/*--------------------------------*- C++ -*----------------------------------*\
| =========                 |                                                 |
| \\      /  F ield         | OpenFOAM: The Open Source CFD Toolbox           |
|  \\    /   O peration     | Version:  2212                                  |
|   \\  /    A nd           | Website:  www.openfoam.com                      |
|    \\/     M anipulation  |                                                 |
\*---------------------------------------------------------------------------*/
FoamFile
{
    version     2.0;
    format      ascii;
    arch        "LSB;label=32;scalar=64";
    class       volScalarField;
    location    "0";
    object      T;
}
// * * * * * * * * * * * * * * * * * * * * * * * * * * * * * * * * * * * * * //

dimensions      [0 0 0 1 0 0 0];

internalField   nonuniform List<scalar> 
3200
(
321.367
320.834
320.665
320.892
321.206
321.654
322.098
322.789
323.272
323.663
323.772
323.763
323.457
323.14
322.681
322.216
321.911
321.892
322.017
322.571
318.594
318.154
318.002
318.192
318.468
318.88
319.22
319.836
320.243
320.596
320.671
320.66
320.369
320.105
319.711
319.303
319.043
319.008
319.116
319.585
315.787
315.421
315.277
315.441
315.688
316.049
316.306
316.852
317.183
317.475
317.542
317.523
317.268
317.05
316.72
316.37
316.17
316.12
316.198
316.584
312.939
312.644
312.543
312.672
312.855
313.177
313.386
313.815
314.085
314.33
314.383
314.358
314.136
313.956
313.702
313.429
313.316
313.232
313.282
313.591
310.087
309.833
309.784
309.89
310.006
310.297
310.455
310.749
310.977
311.167
311.2
311.18
311.026
310.856
310.657
310.456
310.395
310.337
310.349
310.596
307.233
307.026
307.001
307.088
307.148
307.386
307.501
307.665
307.865
307.996
308.026
307.989
307.887
307.771
307.623
307.47
307.441
307.425
307.411
307.595
304.354
304.218
304.212
304.266
304.305
304.449
304.515
304.608
304.74
304.81
304.83
304.818
304.747
304.682
304.569
304.484
304.474
304.467
304.461
304.566
301.46
301.413
301.413
301.42
301.446
301.5
301.523
301.545
301.593
301.608
301.625
301.604
301.587
301.57
301.527
301.517
301.493
301.501
301.497
301.525
321.404
320.91
320.808
320.974
321.291
321.828
322.342
323.039
323.587
323.865
323.909
323.969
323.636
323.238
322.922
322.333
322.191
322.06
322.192
322.663
318.64
318.217
318.124
318.256
318.514
318.977
319.422
320.046
320.53
320.729
320.776
320.838
320.532
320.167
319.925
319.42
319.291
319.174
319.277
319.665
315.822
315.498
315.385
315.498
315.714
316.11
316.475
317.042
317.424
317.587
317.637
317.653
317.408
317.072
316.901
316.471
316.368
316.263
316.344
316.661
312.983
312.733
312.606
312.718
312.888
313.237
313.536
313.983
314.293
314.417
314.471
314.475
314.278
313.978
313.865
313.471
313.411
313.325
313.412
313.666
310.143
309.907
309.823
309.943
310.049
310.325
310.562
310.902
311.166
311.242
311.278
311.288
311.131
310.891
310.781
310.486
310.42
310.36
310.464
310.66
307.247
307.054
307.027
307.131
307.193
307.388
307.564
307.808
308.022
308.054
308.07
308.084
307.946
307.796
307.694
307.496
307.444
307.406
307.488
307.631
304.377
304.24
304.225
304.273
304.317
304.43
304.547
304.692
304.816
304.849
304.861
304.857
304.76
304.688
304.618
304.491
304.474
304.448
304.493
304.594
301.466
301.426
301.418
301.428
301.448
301.489
301.522
301.59
301.606
301.626
301.635
301.615
301.592
301.572
301.537
301.507
301.5
301.49
301.51
301.533
321.584
321.183
321.174
321.218
321.469
322.156
322.739
323.527
324.005
324.379
324.456
324.4
324.144
323.621
323.327
322.693
322.394
322.397
322.395
322.751
318.789
318.467
318.442
318.469
318.686
319.294
319.771
320.471
320.871
321.193
321.249
321.199
320.981
320.52
320.262
319.695
319.455
319.448
319.458
319.755
315.941
315.707
315.69
315.677
315.869
316.368
316.795
317.391
317.712
317.959
317.997
317.982
317.777
317.373
317.154
316.682
316.499
316.488
316.497
316.74
313.083
312.92
312.896
312.914
313.028
313.407
313.778
314.301
314.521
314.724
314.733
314.76
314.582
314.223
314.048
313.684
313.509
313.508
313.536
313.723
310.206
310.08
310.066
310.079
310.165
310.438
310.723
311.19
311.323
311.481
311.474
311.527
311.37
311.092
310.93
310.668
310.523
310.508
310.57
310.68
307.315
307.227
307.203
307.226
307.26
307.466
307.66
308.02
308.107
308.218
308.192
308.267
308.146
307.953
307.808
307.631
307.549
307.501
307.576
307.64
304.402
304.345
304.339
304.352
304.356
304.494
304.596
304.806
304.872
304.954
304.902
304.994
304.901
304.783
304.705
304.596
304.53
304.503
304.57
304.591
301.47
301.46
301.461
301.455
301.456
301.503
301.535
301.611
301.634
301.663
301.649
301.673
301.645
301.605
301.579
301.548
301.523
301.514
301.533
301.533
321.86
321.55
321.489
321.657
322.013
322.533
323.129
323.954
324.507
324.886
325.067
324.988
324.63
324.292
323.845
323.164
322.824
322.672
322.65
323.034
319.023
318.784
318.725
318.846
319.17
319.614
320.112
320.812
321.304
321.629
321.783
321.71
321.382
321.094
320.731
320.142
319.822
319.677
319.669
319.991
316.157
315.979
315.929
315.993
316.28
316.66
317.072
317.673
318.089
318.351
318.478
318.418
318.139
317.862
317.569
317.101
316.8
316.661
316.674
316.934
313.262
313.139
313.096
313.138
313.36
313.655
314.001
314.495
314.84
315.042
315.146
315.11
314.884
314.636
314.372
314.025
313.778
313.647
313.662
313.879
310.35
310.26
310.208
310.267
310.418
310.635
310.883
311.308
311.598
311.707
311.817
311.786
311.605
311.399
311.191
310.943
310.75
310.629
310.656
310.822
307.41
307.353
307.3
307.365
307.457
307.593
307.773
308.101
308.312
308.358
308.458
308.449
308.303
308.146
307.999
307.844
307.722
307.614
307.641
307.751
304.453
304.403
304.374
304.427
304.486
304.569
304.665
304.874
304.985
305.008
305.1
305.07
304.984
304.889
304.808
304.701
304.662
304.579
304.6
304.679
301.491
301.467
301.475
301.49
301.508
301.531
301.566
301.635
301.675
301.68
301.712
301.697
301.676
301.639
301.613
301.58
301.561
301.537
301.539
301.568
322.308
322.045
321.948
322.22
322.589
323.02
323.741
324.541
325.064
325.457
325.724
325.657
325.218
324.896
324.311
323.73
323.254
323.082
323.095
323.46
319.414
319.23
319.159
319.363
319.678
320.016
320.633
321.341
321.773
322.116
322.352
322.279
321.905
321.628
321.12
320.615
320.188
320.044
320.063
320.363
316.493
316.388
316.315
316.457
316.725
316.986
317.522
318.113
318.479
318.746
318.959
318.887
318.566
318.332
317.899
317.466
317.111
316.99
317.032
317.242
313.549
313.503
313.432
313.523
313.716
313.943
314.37
314.894
315.179
315.371
315.553
315.478
315.216
315.042
314.663
314.3
314.036
313.93
314.003
314.124
310.558
310.557
310.493
310.537
310.695
310.871
311.211
311.627
311.855
311.986
312.108
312.055
311.837
311.699
311.42
311.142
310.935
310.843
310.926
310.989
307.541
307.581
307.523
307.55
307.644
307.76
308.042
308.323
308.485
308.569
308.661
308.62
308.466
308.372
308.179
307.973
307.814
307.763
307.814
307.877
304.538
304.566
304.536
304.537
304.595
304.672
304.823
304.983
305.115
305.148
305.205
305.181
305.069
305.013
304.932
304.79
304.709
304.676
304.694
304.734
301.528
301.524
301.527
301.519
301.542
301.576
301.61
301.668
301.716
301.72
301.746
301.742
301.705
301.682
301.653
301.602
301.58
301.57
301.579
301.591
322.929
322.536
322.572
322.786
323.108
323.578
324.333
325.073
325.621
326.185
326.446
326.27
325.983
325.542
325.038
324.28
323.816
323.694
323.634
323.959
319.956
319.621
319.683
319.841
320.147
320.516
321.176
321.822
322.274
322.748
322.994
322.808
322.537
322.179
321.735
321.098
320.669
320.573
320.502
320.795
316.94
316.67
316.731
316.862
317.137
317.441
318.01
318.521
318.902
319.294
319.506
319.338
319.098
318.815
318.41
317.872
317.512
317.453
317.368
317.624
313.918
313.67
313.748
313.856
314.065
314.323
314.803
315.193
315.503
315.815
315.981
315.848
315.641
315.408
315.086
314.648
314.337
314.342
314.22
314.432
310.863
310.661
310.73
310.819
310.951
311.159
311.561
311.83
312.094
312.325
312.439
312.344
312.182
311.993
311.746
311.426
311.153
311.185
311.074
311.245
307.781
307.642
307.678
307.767
307.828
308.009
308.304
308.46
308.646
308.833
308.898
308.841
308.732
308.581
308.402
308.181
307.983
308.003
307.929
308.06
304.679
304.589
304.634
304.688
304.709
304.818
305.005
305.094
305.201
305.317
305.335
305.314
305.259
305.163
305.046
304.922
304.81
304.809
304.784
304.844
301.566
301.539
301.56
301.569
301.58
301.616
301.679
301.715
301.742
301.784
301.79
301.783
301.772
301.72
301.684
301.658
301.616
301.62
301.606
301.616
323.609
323.168
323.282
323.379
323.722
324.363
325.048
325.679
326.395
326.865
327.14
326.995
326.718
326.244
325.685
325.03
324.443
324.348
324.235
324.554
320.564
320.189
320.326
320.371
320.663
321.206
321.802
322.324
322.955
323.353
323.569
323.453
323.189
322.784
322.305
321.751
321.248
321.179
321.04
321.312
317.48
317.158
317.283
317.305
317.575
318.016
318.482
318.934
319.491
319.814
319.997
319.889
319.648
319.315
318.893
318.457
318.046
317.963
317.809
318.042
314.352
314.108
314.212
314.227
314.435
314.768
315.158
315.539
315.96
316.241
316.388
316.287
316.112
315.835
315.484
315.14
314.802
314.738
314.599
314.777
311.191
311.014
311.107
311.11
311.268
311.503
311.82
312.113
312.416
312.654
312.775
312.655
312.546
312.324
312.056
311.81
311.54
311.489
311.392
311.51
308.002
307.899
307.968
307.976
308.066
308.226
308.47
308.67
308.86
309.051
309.139
309.054
308.984
308.815
308.612
308.46
308.243
308.225
308.158
308.23
304.805
304.756
304.799
304.796
304.851
304.94
305.091
305.192
305.313
305.441
305.496
305.458
305.414
305.303
305.178
305.09
304.96
304.944
304.892
304.952
301.613
301.6
301.614
301.601
301.63
301.661
301.708
301.738
301.775
301.825
301.849
301.835
301.827
301.778
301.74
301.712
301.666
301.655
301.631
301.658
324.338
324.066
323.952
324.09
324.494
325.066
325.762
326.375
327.155
327.609
327.78
327.72
327.388
326.865
326.182
325.571
325.112
324.964
324.829
325.173
321.205
320.96
320.875
321.008
321.335
321.827
322.444
322.941
323.624
323.992
324.131
324.063
323.773
323.337
322.745
322.19
321.825
321.701
321.572
321.844
318.008
317.826
317.744
317.862
318.123
318.527
319.049
319.491
320.037
320.352
320.443
320.381
320.153
319.799
319.289
318.799
318.507
318.409
318.279
318.513
314.788
314.661
314.57
314.674
314.875
315.202
315.636
316.013
316.404
316.686
316.723
316.686
316.513
316.253
315.805
315.385
315.181
315.102
314.976
315.161
311.532
311.454
311.375
311.44
311.605
311.869
312.196
312.496
312.777
312.997
313
312.993
312.86
312.684
312.296
311.969
311.831
311.756
311.684
311.805
308.275
308.234
308.154
308.191
308.314
308.494
308.739
308.943
309.135
309.294
309.282
309.289
309.18
309.092
308.784
308.558
308.456
308.412
308.358
308.439
304.976
304.96
304.915
304.911
305.003
305.119
305.267
305.379
305.496
305.589
305.577
305.582
305.51
305.46
305.274
305.15
305.085
305.056
305.02
305.08
301.677
301.661
301.668
301.647
301.667
301.72
301.761
301.813
301.838
301.867
301.871
301.887
301.842
301.825
301.773
301.725
301.706
301.697
301.682
301.703
325.104
324.737
324.631
324.71
325.161
325.72
326.414
327.138
327.763
328.261
328.502
328.422
328.071
327.4
326.867
326.169
325.825
325.705
325.579
325.775
321.887
321.586
321.477
321.528
321.915
322.393
322.992
323.601
324.155
324.562
324.732
324.687
324.364
323.806
323.338
322.719
322.447
322.349
322.217
322.375
318.598
318.382
318.269
318.328
318.631
318.995
319.524
320.025
320.492
320.835
320.964
320.915
320.652
320.2
319.777
319.253
319.069
318.988
318.83
318.952
315.282
315.111
315.034
315.07
315.305
315.592
316.026
316.424
316.815
317.089
317.167
317.142
316.952
316.573
316.192
315.781
315.629
315.568
315.443
315.514
311.955
311.787
311.742
311.771
311.941
312.144
312.498
312.822
313.125
313.32
313.36
313.335
313.219
312.915
312.585
312.288
312.177
312.133
312.039
312.073
308.568
308.43
308.404
308.428
308.548
308.691
308.936
309.183
309.402
309.515
309.546
309.526
309.458
309.239
308.983
308.776
308.706
308.694
308.618
308.646
305.172
305.066
305.046
305.071
305.132
305.23
305.369
305.523
305.657
305.71
305.734
305.719
305.694
305.534
305.382
305.265
305.221
305.241
305.181
305.202
301.745
301.689
301.698
301.692
301.724
301.76
301.806
301.86
301.889
301.909
301.916
301.922
301.915
301.856
301.803
301.758
301.75
301.769
301.734
301.756
325.802
325.588
325.394
325.582
325.889
326.366
327.137
327.796
328.37
328.895
329.053
328.984
328.541
328.055
327.59
326.896
326.552
326.259
326.367
326.44
322.504
322.333
322.171
322.309
322.561
322.939
323.627
324.206
324.668
325.088
325.232
325.177
324.781
324.368
323.982
323.351
323.074
322.802
322.901
322.944
319.14
319.004
318.866
318.957
319.181
319.474
320.063
320.554
320.941
321.274
321.397
321.331
321.012
320.656
320.345
319.78
319.558
319.327
319.423
319.437
315.727
315.624
315.499
315.557
315.743
315.992
316.442
316.838
317.183
317.441
317.54
317.467
317.227
316.927
316.676
316.196
316
315.863
315.903
315.904
312.271
312.203
312.117
312.136
312.291
312.461
312.785
313.111
313.398
313.577
313.66
313.591
313.43
313.174
312.983
312.61
312.469
312.378
312.379
312.373
308.806
308.737
308.693
308.693
308.802
308.918
309.149
309.382
309.617
309.687
309.768
309.713
309.605
309.404
309.267
308.989
308.919
308.873
308.852
308.832
305.299
305.245
305.249
305.234
305.298
305.363
305.503
305.641
305.792
305.821
305.876
305.847
305.771
305.641
305.572
305.403
305.355
305.335
305.341
305.302
301.78
301.759
301.77
301.754
301.775
301.785
301.852
301.9
301.945
301.951
301.973
301.968
301.94
301.898
301.865
301.81
301.798
301.793
301.793
301.789
326.604
326.42
326.152
326.345
326.626
327.04
327.779
328.41
328.979
329.505
329.614
329.574
329.232
328.752
328.219
327.595
327.104
326.88
326.99
327.18
323.205
323.031
322.8
322.941
323.199
323.54
324.178
324.723
325.208
325.645
325.721
325.678
325.394
324.971
324.533
323.962
323.559
323.337
323.453
323.585
319.719
319.601
319.401
319.478
319.719
319.981
320.551
321.013
321.389
321.767
321.803
321.754
321.529
321.163
320.801
320.325
319.989
319.778
319.906
319.984
316.201
316.122
315.963
315.986
316.202
316.394
316.872
317.244
317.552
317.842
317.865
317.8
317.643
317.345
317.057
316.669
316.39
316.208
316.329
316.359
312.646
312.596
312.496
312.463
312.665
312.761
313.154
313.446
313.678
313.916
313.898
313.843
313.737
313.513
313.312
312.991
312.774
312.626
312.727
312.734
309.082
309.038
308.967
308.926
309.092
309.124
309.429
309.618
309.786
309.949
309.948
309.899
309.831
309.672
309.529
309.285
309.14
309.018
309.098
309.096
305.453
305.457
305.412
305.35
305.491
305.49
305.676
305.777
305.902
305.968
305.991
305.939
305.913
305.823
305.746
305.581
305.498
305.418
305.472
305.46
301.828
301.838
301.816
301.793
301.855
301.843
301.912
301.938
301.981
302.006
302.008
301.986
301.991
301.962
301.924
301.878
301.845
301.825
301.838
301.837
327.362
327.109
326.926
327.091
327.345
327.803
328.403
329.029
329.475
329.918
330.244
330.077
329.746
329.112
328.838
328.146
327.775
327.507
327.595
327.727
323.841
323.638
323.471
323.6
323.796
324.195
324.717
325.252
325.63
326.006
326.295
326.141
325.84
325.286
325.049
324.448
324.125
323.888
323.968
324.094
320.277
320.069
319.951
320.064
320.228
320.551
320.988
321.439
321.766
322.063
322.298
322.18
321.921
321.45
321.25
320.712
320.435
320.275
320.333
320.449
316.658
316.496
316.402
316.495
316.643
316.86
317.228
317.592
317.86
318.099
318.264
318.198
317.98
317.614
317.422
316.949
316.747
316.64
316.678
316.746
312.996
312.879
312.813
312.904
312.998
313.144
313.426
313.731
313.941
314.093
314.232
314.173
314.007
313.74
313.557
313.185
313.029
312.989
313.013
313.053
309.32
309.22
309.183
309.253
309.332
309.411
309.612
309.822
309.997
310.093
310.163
310.125
310.024
309.824
309.673
309.437
309.325
309.316
309.313
309.341
305.625
305.536
305.53
305.582
305.631
305.66
305.787
305.912
306.016
306.063
306.108
306.08
306.025
305.902
305.797
305.667
305.599
305.611
305.604
305.622
301.888
301.861
301.858
301.877
301.893
301.892
301.947
301.984
302.015
302.032
302.044
302.041
302.017
301.978
301.94
301.899
301.876
301.888
301.872
301.885
328.143
327.949
327.817
327.906
328.068
328.525
329.015
329.613
330.019
330.345
330.646
330.531
330.256
329.726
329.324
328.752
328.393
328.205
328.265
328.368
324.536
324.368
324.273
324.319
324.448
324.837
325.267
325.785
326.099
326.385
326.642
326.524
326.284
325.833
325.49
324.964
324.671
324.517
324.568
324.641
320.847
320.712
320.645
320.686
320.8
321.103
321.463
321.884
322.153
322.403
322.621
322.504
322.311
321.886
321.601
321.149
320.923
320.811
320.854
320.907
317.117
316.991
316.977
316.992
317.1
317.336
317.625
317.959
318.174
318.402
318.562
318.457
318.291
317.935
317.719
317.31
317.164
317.089
317.103
317.144
313.357
313.246
313.252
313.255
313.365
313.526
313.742
314.009
314.173
314.357
314.446
314.365
314.253
313.989
313.798
313.455
313.379
313.342
313.333
313.353
309.581
309.489
309.507
309.491
309.581
309.677
309.841
310.006
310.152
310.276
310.328
310.262
310.196
310.021
309.854
309.598
309.575
309.572
309.546
309.543
305.766
305.718
305.73
305.701
305.771
305.798
305.938
306.009
306.096
306.174
306.205
306.17
306.133
306.04
305.913
305.765
305.748
305.761
305.73
305.751
301.933
301.912
301.936
301.893
301.934
301.938
301.994
302.009
302.041
302.069
302.083
302.069
302.061
302.029
301.974
301.947
301.931
301.936
301.915
301.922
328.953
328.657
328.558
328.576
328.743
329.131
329.608
330.076
330.592
330.85
331.001
330.931
330.669
330.181
329.732
329.358
328.907
328.906
328.93
329.005
325.232
324.969
324.906
324.92
325.055
325.385
325.768
326.188
326.6
326.828
326.942
326.894
326.652
326.239
325.846
325.51
325.121
325.143
325.156
325.185
321.452
321.223
321.178
321.206
321.307
321.574
321.892
322.233
322.575
322.78
322.84
322.827
322.611
322.252
321.946
321.621
321.316
321.35
321.34
321.363
317.626
317.428
317.39
317.434
317.501
317.72
317.967
318.242
318.501
318.699
318.714
318.724
318.541
318.238
318.004
317.73
317.502
317.525
317.501
317.52
313.767
313.593
313.554
313.6
313.661
313.82
313.994
314.223
314.409
314.573
314.574
314.59
314.448
314.207
314.03
313.823
313.663
313.664
313.624
313.648
309.874
309.718
309.716
309.748
309.801
309.892
310.026
310.206
310.291
310.44
310.426
310.421
310.341
310.172
310.027
309.886
309.798
309.778
309.725
309.747
305.95
305.832
305.838
305.869
305.914
305.955
306.029
306.137
306.188
306.283
306.261
306.252
306.216
306.104
306.01
305.934
305.883
305.884
305.852
305.849
301.99
301.949
301.962
301.968
301.983
301.992
302.03
302.067
302.079
302.099
302.1
302.098
302.089
302.036
302.014
301.995
301.968
301.971
301.959
301.958
329.726
329.433
329.283
329.446
329.537
329.905
330.142
330.565
331.022
331.301
331.427
331.405
331.263
330.862
330.372
329.969
329.658
329.532
329.598
329.746
325.901
325.676
325.534
325.669
325.75
326.04
326.246
326.612
326.995
327.225
327.329
327.329
327.189
326.828
326.392
326.057
325.782
325.678
325.722
325.842
322.024
321.839
321.72
321.814
321.896
322.12
322.293
322.613
322.924
323.098
323.167
323.191
323.068
322.753
322.389
322.07
321.862
321.782
321.812
321.9
318.089
317.952
317.841
317.905
317.999
318.142
318.302
318.57
318.816
318.952
319
319.017
318.905
318.647
318.359
318.066
317.912
317.869
317.877
317.959
314.12
314.02
313.924
313.951
314.057
314.146
314.262
314.488
314.672
314.783
314.799
314.817
314.747
314.541
314.286
314.081
313.975
313.916
313.928
313.983
310.119
310.042
309.971
309.994
310.055
310.139
310.21
310.369
310.504
310.59
310.594
310.6
310.552
310.406
310.209
310.065
310.001
309.96
309.971
310
306.084
306.047
305.999
306.018
306.049
306.111
306.143
306.237
306.3
306.363
306.379
306.37
306.358
306.26
306.133
306.036
305.998
306.002
305.989
306.005
302.039
302.029
302.012
302.023
302.031
302.046
302.06
302.102
302.101
302.131
302.133
302.14
302.127
302.106
302.045
302.024
302.005
302.014
301.995
302.009
330.475
330.261
330.099
330.057
330.127
330.391
330.654
331.06
331.495
331.813
331.926
331.692
331.673
331.324
330.911
330.516
330.269
330.171
330.266
330.453
326.578
326.399
326.257
326.198
326.231
326.477
326.702
327.052
327.408
327.687
327.771
327.561
327.546
327.232
326.88
326.53
326.31
326.222
326.314
326.446
322.626
322.47
322.353
322.274
322.289
322.485
322.698
322.967
323.265
323.501
323.578
323.387
323.385
323.102
322.811
322.507
322.317
322.24
322.324
322.416
318.602
318.474
318.381
318.273
318.318
318.465
318.636
318.859
319.081
319.295
319.348
319.168
319.196
318.974
318.701
318.478
318.303
318.245
318.302
318.354
314.527
314.428
314.366
314.243
314.303
314.396
314.541
314.713
314.888
315.042
315.091
314.925
314.965
314.817
314.584
314.424
314.252
314.23
314.256
314.277
310.421
310.342
310.297
310.21
310.24
310.3
310.415
310.524
310.668
310.759
310.797
310.669
310.717
310.627
310.454
310.341
310.196
310.191
310.203
310.201
306.27
306.231
306.206
306.128
306.162
306.192
306.278
306.317
306.408
306.466
306.501
306.423
306.451
306.386
306.288
306.236
306.134
306.134
306.122
306.102
302.107
302.102
302.074
302.058
302.062
302.079
302.107
302.119
302.159
302.165
302.181
302.155
302.162
302.138
302.106
302.094
302.058
302.066
302.041
302.041
331.268
331.04
330.784
330.756
330.933
330.985
331.383
331.714
331.978
332.267
332.267
332.216
331.974
331.8
331.394
331.067
330.845
330.809
330.927
331.206
327.253
327.067
326.846
326.813
326.945
326.995
327.318
327.587
327.841
328.085
328.056
328.017
327.811
327.654
327.304
327.024
326.824
326.822
326.889
327.142
323.185
323.015
322.847
322.799
322.908
322.953
323.183
323.411
323.633
323.831
323.821
323.768
323.588
323.455
323.152
322.921
322.746
322.779
322.803
323.022
319.042
318.911
318.77
318.712
318.798
318.871
319.016
319.205
319.408
319.551
319.552
319.486
319.351
319.245
318.984
318.806
318.648
318.703
318.695
318.873
314.863
314.767
314.649
314.595
314.684
314.756
314.836
314.975
315.144
315.241
315.254
315.152
315.085
315.003
314.81
314.655
314.528
314.601
314.57
314.679
310.634
310.598
310.489
310.457
310.531
310.565
310.627
310.725
310.842
310.892
310.924
310.827
310.807
310.733
310.594
310.484
310.409
310.452
310.422
310.493
306.381
306.39
306.3
306.283
306.345
306.362
306.4
306.472
306.523
306.534
306.555
306.49
306.496
306.438
306.366
306.317
306.264
306.275
306.26
306.297
302.137
302.151
302.116
302.106
302.135
302.134
302.149
302.165
302.183
302.197
302.199
302.177
302.18
302.162
302.136
302.112
302.101
302.095
302.097
302.104
332.027
331.844
331.396
331.344
331.613
331.733
331.994
332.151
332.465
332.654
332.652
332.583
332.402
332.124
331.878
331.615
331.362
331.374
331.542
331.796
327.889
327.757
327.39
327.315
327.549
327.665
327.865
327.996
328.293
328.407
328.387
328.317
328.171
327.944
327.697
327.484
327.288
327.297
327.436
327.642
323.686
323.613
323.29
323.209
323.426
323.519
323.676
323.786
324.022
324.103
324.103
324
323.874
323.741
323.513
323.313
323.152
323.173
323.305
323.47
319.449
319.404
319.155
319.054
319.261
319.334
319.454
319.541
319.727
319.769
319.792
319.664
319.58
319.477
319.284
319.12
318.999
319.026
319.112
319.242
315.179
315.152
314.971
314.886
315.052
315.117
315.186
315.262
315.388
315.403
315.438
315.325
315.248
315.193
315.033
314.894
314.807
314.818
314.897
314.984
310.89
310.852
310.745
310.66
310.795
310.838
310.87
310.934
311.031
311.015
311.052
310.963
310.907
310.863
310.77
310.645
310.602
310.604
310.675
310.707
306.555
306.536
306.469
306.43
306.485
306.535
306.538
306.577
306.652
306.614
306.651
306.583
306.562
306.525
306.494
306.404
306.361
306.372
306.429
306.441
302.206
302.2
302.166
302.155
302.18
302.204
302.185
302.202
302.236
302.22
302.223
302.204
302.205
302.184
302.173
302.158
302.13
302.14
302.157
302.144
332.693
332.422
332.284
332.019
332.213
332.394
332.527
332.786
332.948
333.061
333.055
332.947
332.771
332.591
332.267
332.066
331.947
331.946
332.057
332.326
328.499
328.276
328.132
327.893
328.035
328.214
328.327
328.553
328.67
328.773
328.752
328.644
328.482
328.34
328.038
327.844
327.763
327.758
327.876
328.075
324.235
324.059
323.922
323.707
323.821
323.963
324.065
324.264
324.345
324.433
324.429
324.306
324.157
324.042
323.788
323.606
323.544
323.527
323.647
323.826
319.897
319.781
319.637
319.471
319.568
319.671
319.75
319.905
319.962
320.034
320.075
319.926
319.802
319.73
319.512
319.359
319.295
319.274
319.405
319.534
315.52
315.466
315.323
315.207
315.261
315.338
315.408
315.521
315.552
315.606
315.663
315.54
315.404
315.372
315.217
315.075
315.045
315.008
315.155
315.202
311.123
311.064
310.976
310.892
310.921
310.995
311.033
311.104
311.134
311.166
311.19
311.099
311.017
311.004
310.879
310.81
310.753
310.746
310.863
310.856
306.7
306.653
306.596
306.554
306.562
306.593
306.633
306.673
306.699
306.709
306.724
306.664
306.615
306.614
306.534
306.523
306.469
306.475
306.536
306.51
302.258
302.229
302.206
302.204
302.214
302.213
302.223
302.239
302.253
302.252
302.25
302.23
302.212
302.225
302.186
302.183
302.172
302.166
302.187
302.187
333.405
332.941
332.784
332.69
332.564
332.757
332.784
333.103
333.249
333.337
333.22
333.23
333.076
332.86
332.672
332.376
332.169
332.364
332.46
332.776
329.083
328.693
328.572
328.449
328.345
328.529
328.515
328.798
328.933
329.019
328.862
328.869
328.729
328.57
328.367
328.12
327.919
328.091
328.166
328.473
324.709
324.386
324.292
324.142
324.065
324.242
324.223
324.432
324.567
324.647
324.489
324.486
324.362
324.236
324.055
323.861
323.65
323.808
323.873
324.154
320.285
320.023
319.976
319.815
319.754
319.899
319.874
320.02
320.156
320.228
320.09
320.078
319.972
319.858
319.711
319.587
319.386
319.505
319.552
319.799
315.813
315.628
315.6
315.447
315.423
315.525
315.515
315.582
315.696
315.77
315.659
315.647
315.564
315.47
315.348
315.255
315.104
315.19
315.225
315.418
311.321
311.184
311.185
311.055
311.025
311.121
311.103
311.134
311.215
311.297
311.218
311.196
311.128
311.074
310.973
310.913
310.806
310.871
310.897
311.012
306.802
306.723
306.72
306.64
306.629
306.682
306.679
306.679
306.728
306.796
306.737
306.735
306.684
306.669
306.601
306.565
306.508
306.536
306.552
306.613
302.292
302.264
302.252
302.224
302.226
302.242
302.234
302.236
302.259
302.283
302.258
302.258
302.25
302.238
302.217
302.203
302.176
302.199
302.198
302.212
)
;

boundaryField
{
    hotSide
    {
        type            fixedGradient;
        gradient        nonuniform List<scalar> 
400
(
218.342
218.618
220.323
223.413
227.738
233.077
239.198
245.89
252.978
260.328
267.843
275.456
283.127
290.835
298.582
306.381
314.26
322.248
330.371
338.643
211.704
212.146
214.117
217.564
222.301
228.07
234.603
241.664
249.066
256.668
264.372
272.113
279.855
287.583
295.306
303.048
310.844
318.737
326.762
334.941
209.224
209.988
212.254
215.965
220.934
226.901
233.599
240.791
248.285
255.938
263.651
271.36
279.029
286.651
294.238
301.819
309.436
317.136
324.96
332.933
210.622
211.853
214.453
218.36
223.411
229.382
236.034
243.143
250.528
258.044
265.593
273.11
280.563
287.946
295.276
302.585
309.919
317.324
324.84
332.498
214.838
216.625
219.612
223.731
228.844
234.764
241.287
248.214
255.374
262.63
269.885
277.077
284.179
291.192
298.139
305.057
311.992
318.993
326.102
333.35
220.66
223.044
226.479
230.887
236.144
242.085
248.526
255.287
262.207
269.156
276.042
282.813
289.454
295.976
302.417
308.823
315.25
321.747
328.362
335.129
227.073
230.066
234.003
238.797
244.32
250.411
256.892
263.582
270.319
276.975
283.466
289.755
295.846
301.778
307.608
313.402
319.229
325.149
331.212
337.456
233.279
236.862
241.33
246.585
252.489
258.871
265.535
272.282
278.932
285.346
291.447
297.219
302.702
307.971
313.12
318.242
323.423
328.733
334.229
339.951
238.628
242.734
247.708
253.445
259.796
266.568
273.536
280.462
287.127
293.368
299.108
304.362
309.219
313.808
318.267
322.722
327.277
332.013
336.987
342.239
242.586
247.08
252.455
258.602
265.363
272.527
279.836
287.003
293.755
299.892
305.334
310.133
314.434
318.428
322.296
326.193
330.238
334.516
339.084
343.98
244.765
249.439
255.014
261.383
268.384
275.793
283.33
290.672
297.506
303.599
308.867
313.388
317.352
320.987
324.507
328.081
331.837
335.861
340.211
344.919
244.986
249.584
255.098
261.421
268.387
275.773
283.293
290.626
297.456
303.553
308.829
313.361
317.334
320.976
324.497
328.072
331.828
335.854
340.211
344.933
243.343
247.613
252.813
258.832
265.506
272.616
279.893
287.045
293.795
299.941
305.399
310.212
314.522
318.513
322.369
326.25
330.282
334.557
339.14
344.071
240.207
243.954
248.66
254.216
260.46
267.183
274.139
281.071
287.748
293.998
299.736
304.972
309.79
314.321
318.709
323.091
327.585
332.283
337.256
342.548
236.201
239.307
243.435
248.486
254.3
260.67
267.364
274.149
280.821
287.225
293.274
298.951
304.298
309.4
314.364
319.305
324.33
329.531
334.979
340.724
232.175
234.591
238.139
242.729
248.194
254.318
260.862
267.599
274.332
280.916
287.258
293.325
299.133
304.736
310.216
315.672
321.201
326.897
332.832
339.057
229.213
230.955
233.968
238.167
243.371
249.337
255.807
262.544
269.353
276.091
282.664
289.03
295.19
301.182
307.071
312.943
318.896
325.022
331.4
338.076
228.587
229.741
232.278
236.122
241.075
246.869
253.229
259.911
266.722
273.522
280.219
286.767
293.159
299.42
305.605
311.792
318.073
324.545
331.286
338.34
231.416
232.132
234.25
237.705
242.302
247.781
253.871
260.337
266.995
273.708
280.389
286.987
293.49
299.913
306.3
312.719
319.253
325.989
333
340.325
238.068
238.513
240.266
243.272
247.375
252.354
257.977
264.037
270.363
276.829
283.347
289.867
296.368
302.856
309.363
315.942
322.658
329.58
336.765
344.242
)
;
    }
    coldSide
    {
        type            mixed;
        refValue        uniform 300;
        refGradient     uniform 0;
        valueFraction   uniform 0.991591;
        source          uniform 0;
        value           nonuniform List<scalar> 
400
(
300.012
300.012
300.012
300.013
300.013
300.013
300.014
300.014
300.015
300.015
300.015
300.016
300.016
300.017
300.017
300.018
300.018
300.019
300.019
300.019
300.012
300.012
300.012
300.012
300.013
300.013
300.013
300.014
300.014
300.015
300.015
300.016
300.016
300.016
300.017
300.018
300.018
300.018
300.019
300.019
300.012