/*--------------------------------*- C++ -*----------------------------------*\
| =========                 |                                                 |
| \\      /  F ield         | OpenFOAM: The Open Source CFD Toolbox           |
|  \\    /   O peration     | Version:  2212                                  |
|   \\  /    A nd           | Website:  www.openfoam.com                      |
|    \\/     M anipulation  |                                                 |
\*---------------------------------------------------------------------------*/
FoamFile
{
    version     2.0;
    format      ascii;
    arch        "LSB;label=32;scalar=64";
    class       volScalarField;
    location    "./ITHACAoutput/true/8.2";
    object      error;
}
// * * * * * * * * * * * * * * * * * * * * * * * * * * * * * * * * * * * * * //

dimensions      [0 0 0 1 0 0 0];

internalField   nonuniform List<scalar> 
3200
(
-2.80464
0.3755
0.615963
0.678346
3.09872
2.66664
3.32632
2.44566
1.81274
2.28044
2.27062
4.7049
5.34722
3.60451
4.47693
0.693618
0.498411
1.43609
-0.103005
-0.208975
-4.1275
0.425551
-0.202456
1.96361
2.80194
2.51728
1.66807
2.39206
2.96205
2.9219
4.36837
1.09175
2.48671
1.14559
4.69198
5.86345
3.04912
-0.838593
-2.17968
-5.04838
-0.521351
-0.998917
1.76367
4.54491
1.1847
2.92996
2.24354
1.73764
1.68759
3.36141
3.29599
2.02952
2.55248
2.5966
1.53304
2.97608
1.79324
2.44808
0.604037
-4.71249
-0.945509
0.0868389
0.490111
1.24276
1.29822
-0.721096
1.11345
0.713245
3.86144
0.965705
2.42547
1.79334
2.38734
0.142441
1.92475
-2.1512
1.14732
-0.119141
-0.868474
-4.13209
-0.242803
-0.527222
-0.908741
0.0577157
-1.24038
3.02131
2.51432
2.36629
2.09467
3.18283
1.84932
-1.05804
0.156407
1.68599
4.87584
1.44819
1.44904
1.22513
-0.738522
-0.116423
-1.3964
1.09176
0.0867779
1.37668
1.91698
1.67057
2.80641
0.0865137
1.22725
2.44357
2.9906
0.625111
-0.116977
2.2283
0.40478
0.928943
-2.17988
1.93996
1.74285
-1.42334
0.319183
1.0625
-0.973958
2.26767
0.661544
-0.915314
0.242563
4.71086
-0.872127
1.05199
0.0824467
1.1296
0.26166
0.298082
0.0791134
1.37987
-1.23897
1.60058
0.405931
1.07002
0.0946353
-1.58175
-0.203553
-1.93301
-1.25749
-2.17164
2.14766
1.1324
-1.73363
0.433731
-2.15543
-0.815102
-0.257263
-1.02488
-1.03567
0.930183
-3.12496
1.2311
-0.58837
-1.81423
-2.69006
0.929122
-0.036262
0.617531
4.34014
1.79967
3.77431
3.6229
3.79516
3.36479
0.904618
1.14308
2.83386
1.7919
3.38274
1.48244
-0.261867
-0.517838
-1.08805
0.604139
-3.40306
0.470718
-2.54553
0.526851
0.762961
-0.617535
2.1947
0.358479
0.776122
0.386085
0.368158
-0.563723
0.0478415
3.03631
-0.278655
0.694694
-0.34823
3.04307
0.488877
-1.90265
-1.65315
-0.56027
-0.43644
3.42091
2.72445
2.78536
0.33255
1.79473
-0.301258
0.487908
-0.235741
0.761818
3.78957
2.51754
4.37755
1.97171
0.595582
0.439811
-1.17181
-3.98188
-2.61168
2.70442
-1.44019
-0.3568
2.82029
2.31982
3.68742
2.5685
2.52786
2.94991
4.60934
2.14146
-0.598533
0.855611
2.14967
3.24304
0.912695
-1.6004
1.22587
-0.629586
-1.82187
0.972854
0.448413
0.352193
1.90873
0.116188
0.333717
1.16334
1.05125
1.06328
0.0897393
2.69536
1.38942
0.590619
2.69865
-0.117909
1.89684
0.91973
-0.553177
-1.83399
-0.868631
0.857236
-0.238829
1.23387
1.26974
1.37063
0.649945
-0.507028
2.87131
2.52288
0.454572
-0.82442
0.314643
1.35578
2.80167
0.283894
0.367776
3.80735
-1.75201
-0.837796
-1.05551
-0.444953
-0.235866
-0.987866
-0.183947
-0.279304
0.292533
-0.0855819
1.34364
4.40687
0.726662
1.82827
-0.124252
1.92431
-1.19719
0.661276
0.662232
0.371642
-0.158872
-1.06813
1.57959
1.82964
2.06984
0.848437
-0.943876
0.555831
-3.20077
-0.0165482
-3.4152
0.106519
0.00654179
2.26615
0.375556
0.744567
-1.38228
1.9706
-0.420199
1.67946
-0.674989
0.28291
-2.57273
-3.09896
0.043768
2.71918
2.25489
2.71724
1.50334
3.40283
3.16596
0.241603
1.24374
-0.485362
-0.329945
1.52348
2.32072
2.35199
3.47511
0.344747
-2.48707
-3.7294
-3.9929
-0.222359
-0.634693
2.82067
2.23517
2.46213
3.39144
0.748096
2.12022
0.859236
0.684182
3.30879
0.264737
1.34902
0.113272
3.02042
1.1493
-0.200205
-2.00544
-1.79512
-2.10313
1.25546
-0.736092
0.720807
3.60618
1.5951
2.17969
1.95232
1.14614
0.791225
-0.205792
0.880869
-0.0089041
2.5704
-0.178098
1.65681
2.80585
0.899443
-1.39581
-0.0824609
-1.98622
-1.08357
2.3102
0.405629
2.13475
2.61869
-0.261787
1.63627
2.96145
-0.593355
2.33903
0.233226
0.927157
2.12748
3.39314
-0.272893
0.0541611
1.07602
-1.5697
-1.71493
-1.15138
0.181951
-1.79588
4.10255
0.868698
2.01295
2.49545
0.296966
1.99761
1.87589
2.52511
0.109172
1.39166
0.858462
-1.67053
0.719616
0.49756
1.90417
1.61802
-0.168849
0.401862
-0.322156
-1.14192
0.351705
0.968486
1.17139
1.12813
3.52026
-0.015874
0.887841
-1.36931
-1.25301
2.62093
0.966798
1.73532
2.88801
0.19921
-0.716272
0.769763
0.356213
-2.29315
0.875366
0.490125
2.23239
-0.678061
1.99448
1.79161
0.66916
2.67079
-1.485
0.30323
-0.217077
0.586723
2.48802
2.86837
0.422122
0.527922
2.05562
1.157
1.24784
1.26044
-0.969458
1.99033
-1.25275
1.75427
0.207856
0.105116
0.568993
0.124187
0.626042
0.656466
-1.84717
-0.200348
-0.979785
0.726222
2.34578
1.04731
-1.28028
1.97955
-2.68204
-3.31749
-4.17468
0.614513
0.440184
3.16994
1.07827
4.38431
3.00291
0.670721
0.377288
1.34262
2.15514
1.7558
0.815167
0.992908
-1.20393
2.41809
-1.33399
-1.02838
-2.2127
-1.04653
-0.298404
0.811663
-0.863441
1.56751
0.0472064
2.68052
-0.332206
0.317405
0.249839
0.145399
0.684052
0.386233
0.896331
-0.00633299
2.34856
0.446389
-0.149709
0.0127902
-2.93435
-3.06616
-0.269906
1.04973
3.22825
0.660524
1.85503
1.2888
2.44407
3.10713
0.287748
0.373937
0.764958
-1.78966
3.06594
-1.21097
2.69941
-0.0662389
0.53995
-2.38632
-0.640521
0.222182
0.726877
-0.173185
1.25173
2.40181
1.88495
0.728696
2.23559
3.35815
0.76676
-1.16493
0.949399
-0.171762
2.25078
2.5441
1.5181
1.17487
0.363615
-1.85395
-1.71567
1.41784
0.822187
-0.351862
-0.225736
0.443278
0.901264
1.05423
2.0876
-0.687321
3.03141
1.41785
1.98621
4.45597
2.37318
0.478625
1.58072
0.921962
2.00991
-1.4968
1.41346
-1.91259
0.591866
1.56468
-0.968373
1.89042
-0.152562
1.64017
-0.611242
0.193132
0.116819
2.03884
-1.39847
-0.434598
-1.22762
-1.68606
2.06938
0.336152
1.67329
1.67365
-1.58521
-2.07557
-0.2856
1.85251
-0.754274
1.26537
0.261802
1.22303
-0.726816
-2.05575
0.416326
2.70554
1.55705
-0.157635
2.74134
-2.25107
-0.703486
2.18569
-0.23488
0.033912
-2.14906
1.36727
1.57429
-1.03118
-1.84425
-0.518017
0.196053
2.65497
-1.78823
0.189342
0.488119
0.543471
0.959812
2.62663
-2.0538
-2.80839
1.35962
1.10161
-0.0249492
0.276283
0.689921
-3.32502
-1.30071
-1.60164
1.35623
2.47338
2.37603
1.23391
0.314695
0.434527
0.230716
-0.0364109
-2.93468
0.0405257
-1.01194
-2.33945
-0.561369
-0.505196
-0.292139
-2.47076
-2.86651
-4.55955
-1.20045
0.691656
-0.114221
0.961086
1.56373
1.15904
0.452551
1.75951
-0.133047
0.658617
-1.32857
1.59658
1.33285
-2.75832
1.97795
2.06072
1.48382
-0.634714
-3.99068
-2.87673
-3.10279
2.07897
-1.11024
-0.279017
1.05491
1.01991
1.42742
0.642903
-0.114152
-3.27437
-0.525895
-0.73142
2.43008
-0.0852618
1.52709
-1.79508
0.0727519
-1.7003
-1.42118
-2.43243
-1.02813
2.31806
0.768804
-0.0827905
1.5696
0.39993
0.590551
0.0635976
0.490527
-0.333114
0.67146
1.22605
2.02274
0.995275
0.94078
0.188165
-2.07194
-0.445749
-0.472269
-3.04358
0.85318
1.74918
1.16904
0.775448
1.72129
-0.395662
1.82175
-0.105637
0.379534
-2.47584
0.173288
0.797673
-0.587522
-0.295867
-2.65872
-0.960812
-3.38772
-2.01938
-1.96933
-0.0483281
-0.501356
2.7009
0.309068
-1.35457
-0.131322
0.307234
-0.0372681
3.09873
0.334714
0.910775
-2.69038
-0.425027
-0.131981
-0.980561
1.79952
-0.48313
2.23737
-0.305546
0.0318118
0.380802
0.655981
-1.18412
3.57558
1.02322
0.257498
1.0221
1.95499
0.969567
-1.0246
0.244677
2.49249
0.990768
0.198415
0.368369
1.09672
-1.91095
-0.783731
1.8382
0.513745
0.0498767
-0.810744
1.98007
-2.59061
0.00370545
-0.274559
0.415468
1.24378
-1.64729
2.03182
1.15373
0.864787
1.80495
-0.850472
1.83923
-0.39915
1.184
1.86504
0.706619
1.34416
-5.21855
-4.36244
0.170611
-0.70381
2.41246
0.262855
-0.706423
1.40811
-0.55941
-0.106275
-2.25308
0.803787
-0.210396
-1.66576
-0.930957
1.04088
-1.67959
-1.98991
-0.681294
-4.43028
-4.07595
0.0480724
-2.59657
-0.357247
2.20461
0.259543
0.62431
-0.0821571
0.424925
0.785094
0.704982
-1.09508
0.52073
0.500894
0.358013
1.71
-0.133683
0.554976
-0.417229
-4.19181
-1.0157
0.601299
-0.201281
0.609887
0.800206
1.90694
0.903261
-0.789867
0.946129
-1.44303
-1.99461
-0.625667
-0.192967
1.54583
0.782441
0.648155
1.93709
0.907106
-3.08786
-2.09856
-2.9317
-1.29626
-0.242819
-0.956142
0.513847
1.92811
3.19853
3.54014
1.17506
1.03054
0.762734
-0.274791
0.369622
-0.125198
0.12045
-1.2853
-0.815919
0.958635
-1.53818
-0.869148
-1.2991
1.26548
-0.743687
3.38634
2.89554
0.0334476
1.28632
-0.978036
-3.29159
-1.2685
-0.108116
0.393949
0.583701
0.711065
-1.13283
0.729708
-0.760102
0.036067
-1.84166
-1.90881
0.791833
-4.11515
0.147713
1.92082
-0.869842
0.670205
-1.93573
0.34439
-1.52848
-1.07899
1.01462
-0.229511
1.74154
-0.681252
-1.64265
-0.798235
-1.11484
0.157019
-1.22358
-2.21505
2.05606
-0.869595
-0.604141
-1.05496
0.887434
-1.55744
-1.04104
1.38556
1.04523
-0.331442
1.84223
0.725583
-1.63008
1.60229
-0.0391371
0.0101175
-0.466812
-1.10589
0.626434
-2.57622
-1.06383
0.0492649
-1.17545
0.740487
-2.47545
2.50015
-0.594681
0.738283
0.0175494
2.23147
-1.06951
0.674295
0.449993
-2.76729
-0.934641
0.359569
-0.0487846
-0.916658
0.896651
0.615799
-5.52122
-2.34727
-2.3786
-2.79682
-0.121472
-0.275433
1.33383
0.796342
-0.324756
-1.64105
-1.63187
-1.46014
-1.26373
1.88904
0.533992
1.41229
1.43228
-0.618748
-3.17774
-4.23477
-4.24321
-1.42154
0.0593041
-0.0511963
0.364924
-1.37416
1.02697
0.85581
-0.10674
-1.92233
-3.20927
-1.28812
-1.8512
-1.31516
0.45864
-1.84764
-1.62722
-0.755792
-2.5253
-2.84479
-4.65077
-3.04636
-1.11892
1.77564
0.122302
1.73573
1.14328
-0.335347
-0.506753
-0.857796
-1.56988
-1.63224
-0.918607
-0.535285
1.26774
-2.05474
-0.602789
0.699809
-1.69795
-3.11311
-2.99668
-1.20513
0.829577
0.352851
-0.234313
1.74876
-1.9706
-1.19282
-0.27727
1.14523
1.62106
-1.68546
1.43516
-0.755735
-0.923579
-1.3515
2.06016
0.629226
-0.442368
-1.82958
-2.96931
-0.438214
-0.446037
-2.02972
0.170654
0.382993
0.125314
-1.3931
-2.32412
0.0377765
0.838532
0.123274
-0.0543464
-0.992289
-0.516471
1.96108
-1.02606
-2.13575
-2.63098
0.172221
-5.12131
-2.21914
-0.533529
-0.198494
-0.0422202
-0.691791
-1.03551
0.851207
0.436959
-1.65343
-0.425024
0.0153012
0.250486
0.377217
0.144152
-0.566096
-0.123387
0.345935
-0.980269
0.538845
-0.539691
0.301081
-0.693046
1.1977
0.924098
0.938508
1.01671
-2.01037
-3.42738
-2.16922
-0.015005
0.41072
-0.966074
2.00246
3.12536
1.23852
-1.6191
0.16308
0.92263
-1.77239
-0.979632
2.24287
2.33206
-0.817744
1.46093
0.398931
0.604039
1.74003
0.613283
0.878587
0.531924
-0.663355
0.132267
0.172049
-0.595666
-2.59108
1.87387
-0.795322
1.04078
-0.710272
-5.40158
-3.86947
-0.910881
-1.00865
-1.74993
-1.21258
-0.747659
0.243729
-1.29269
-2.04554
-4.22617
-4.07211
-1.9852
-0.804598
-1.19689
-1.85398
-2.11444
-1.44952
-4.2202
-2.80827
-5.77391
-0.519824
-2.01349
-0.0227192
-0.70956
-0.078561
0.781509
-0.15252
-0.51229
-0.0574158
-0.0592411
-2.82597
0.0937173
-1.98338
-0.0275623
0.141658
0.485743
-1.93845
0.376705
-3.54948
-3.56459
1.26264
2.38295
-0.117246
1.4312
-0.301476
-0.609323
-1.68327
0.314709
-1.14717
-2.19939
-2.161
-2.16283
-1.44852
-0.169711
-0.368351
0.506223
-1.72905
-2.8439
-2.8248
-1.00554
-2.91828
1.48188
-0.325009
0.135496
1.64415
-0.69057
-1.1224
-0.156712
-3.15399
-1.50563
-1.03971
-2.63606
-1.15123
0.755902
-1.73086
-1.50598
-1.09196
-1.73059
-3.90864
-0.89148
-2.30663
-1.07595
0.727887
-1.29437
-0.125776
2.49356
0.223807
-0.681787
1.25198
-1.32812
0.549234
-1.41348
-1.79463
-0.41176
-2.28662
1.29659
-0.15958
-2.56326
0.344441
0.645343
-0.998805
-1.53223
-0.177245
-1.77049
0.685641
0.0443479
-1.35953
-0.395291
0.21332
-0.187593
0.801609
-0.0382249
0.598642
-0.568474
-0.594702
-0.953196
-0.420762
0.510206
-2.16815
0.681206
0.145788
0.231669
0.80213
0.480527
1.11849
0.713279
-0.851569
-1.11282
-0.529899
-1.51923
0.783932
-0.805197
-0.644303
-1.52283
-1.81008
-1.11336
0.109844
-0.64834
-1.30192
-0.994159
0.00257985
0.99369
-1.30188
0.214154
-1.95709
0.967989
-2.10795
-4.13262e-05
0.0784344
-0.475781
-2.89818
-2.57734
-1.34881
0.988071
-0.178533
-0.230904
1.32233
0.910263
0.115774
-5.50369
-1.96303
-1.55643
-0.0725187
-1.39426
1.27717
-2.71724
-4.39399
-2.56936
-4.04764
-3.25039
-3.14465
-2.37931
-2.00362
-1.0784
-3.54102
-0.961656
-2.95781
-1.73948
-3.71111
-5.75431
-2.44091
-2.70684
-0.500086
-0.665919
-0.170205
-0.540772
-2.11239
0.301341
-0.520138
-1.51546
-2.02611
-2.00525
-0.591265
-0.553618
-1.60783
-2.14334
-1.00973
-2.40732
-4.15839
-4.57724
0.571056
-1.08508
-2.29795
0.929049
-2.84878
1.17633
-2.41627
0.302584
-1.86746
-2.86772
-1.05489
-0.386015
-0.306861
0.356749
0.280387
0.143765
-0.141414
-1.69962
-2.04036
-5.29999
-1.25286
-1.33893
0.26676
-0.0391641
1.36066
-0.00553444
-0.288503
-0.799419
-1.89158
-0.423437
-1.48641
-0.346257
-2.04288
0.965898
-0.640215
0.943637
-2.15186
-3.09584
-1.77195
-1.45029
-0.0263378
-2.42561
-1.2959
-2.46352
-0.101404
-0.187886
-0.950534
-0.167565
-2.22475
0.550612
1.47959
1.06875
-3.00694
-0.0417735
-1.34217
1.64432
1.26511
-2.82111
-1.53767
-1.75027
-0.830504
0.62392
-0.951738
-2.79244
1.52412
-0.00134932
0.223747
0.0292296
-0.935227
-2.48574
-0.731325
-0.79698
-1.73491
-0.464299
-1.63843
0.88909
-0.81204
-0.388505
-2.9244
-1.40339
0.110487
-1.25338
1.68785
1.73341
-2.06054
0.0936556
1.39984
-1.41486
-0.80232
-1.5099
0.476901
0.343621
1.88657
0.254994
0.618664
-0.79492
0.365896
-1.34715
-1.39392
-0.317231
-0.873077
-0.822907
1.18866
0.308477
-0.226756
1.52558
0.666627
0.104512
-0.622056
0.377033
-0.421298
0.126163
0.880868
0.25986
-1.64754
-1.14593
-0.437749
-1.08064
0.190633
-4.7334
-4.63742
-3.59555
0.333544
-0.577196
-0.331538
-0.980442
-1.5732
-2.22554
-3.47837
-0.559188
-2.94715
-2.37372
-2.13421
-1.85584
-2.9434
-1.99034
-1.91858
-2.31196
-5.62047
-4.13773
-0.258887
-1.34434
0.078175
-0.831976
0.31348
-0.248343
-0.316988
-0.769679
0.0869252
-0.193383
0.318406
-0.114148
-0.536946
0.0880653
-0.347809
-0.151948
-3.66062
-0.127201
-4.17926
-2.86575
-3.62862
-0.876256
-0.376199
0.985501
-0.458486
-1.3212
-3.00628
-0.964771
-1.71933
-1.54082
-3.22839
-1.58487
0.870624
-1.14545
-0.616041
-0.898817
-0.70329
-4.23954
-2.77176
-4.02968
1.54824
-1.51057
1.626
0.336499
-1.21715
-0.931131
-0.29134
-2.44166
-1.82229
-2.09504
-0.436172
-2.93425
-1.02565
-0.625058
-2.78569
-2.31136
-0.346079
0.332861
-3.18106
-0.238487
-1.74617
0.603744
-1.1376
0.506211
-0.313443
-2.3313
0.950708
-0.779851
0.4667
1.15937
-0.684403
-1.85538
-2.64148
-1.87424
0.943804
0.404121
-1.91234
-0.238235
-0.82407
-0.777216
-3.48291
0.0610252
-0.156106
0.714067
0.996698
-1.18017
-0.692554
-3.95486
0.634093
-2.54682
-1.05452
-2.16898
-0.76823
0.609545
-1.60933
-0.752413
-0.50155
-2.28957
-0.383445
-1.57912
-0.0271685
0.492598
-0.288594
0.576012
-2.12373
0.780018
-1.09817
-1.09734
0.18029
1.483
-0.420794
2.2133
0.597544
1.41121
-0.278977
-0.552014
0.610971
1.27623
0.891507
-3.10882
0.794328
-1.4019
0.827317
0.905165
-1.09573
-1.65523
2.35674
-0.856941
-2.95665
-1.71396
0.199091
-0.151399
-0.418333
-0.216556
-1.38724
2.50831
1.5901
-1.65553
-0.985912
-3.78361
-2.63814
0.577048
-1.67081
-0.123594
-3.31052
-1.22474
-1.67689
-1.20461
-3.97308
-2.50579
-3.5809
-2.53041
-1.13822
-0.15643
-1.55727
-3.25936
-3.52534
-4.01097
-5.10669
-2.83388
0.297419
-1.22793
0.00921261
0.302638
-0.366584
-0.383657
-0.107278
-0.488612
0.234891
-0.407978
-4.09796
0.23832
-1.63928
-0.281722
-0.728958
-0.090814
-4.38614
0.0462473
-2.00266
-3.59885
-2.22866
-2.18299
-1.26763
-0.520952
-1.36573
-3.66958
-0.997707
-3.19176
-3.07864
0.222601
-2.21428
-1.8233
-0.84306
-0.62353
-1.11761
0.563938
-2.54269
-6.22324
-1.93897
-2.83126
0.810769
-0.820276
-3.11112
-0.20736
1.08168
-2.92415
0.0984923
-0.886195
-3.24078
-1.93427
-1.41923
-2.56385
-1.38587
-1.39197
-3.21522
-1.40494
-0.660836
-0.756736
-1.15319
-2.68176
-1.67493
-1.58477
1.48097
2.58999
-1.29846
2.92143
0.979154
-2.40092
-1.48462
-2.14418
-3.97421
-1.52993
-2.12592
-2.77334
-2.69968
-1.54838
-2.23262
-1.95143
-5.26886
-0.224152
-2.84914
1.66588
-0.451478
0.209626
1.06763
0.74784
1.77945
-0.113983
-1.29758
-0.955549
0.600717
1.58204
-1.43301
-1.08835
-0.66067
0.331773
0.411746
-2.18156
0.23022
-1.91305
0.956914
-3.01174
0.947607
3.33697
-1.15197
-0.408709
-0.331242
-0.912594
-0.477103
-1.79885
0.251172
-0.839868
0.54166
-1.1146
0.424246
-0.124353
-0.626115
-2.27572
0.199622
-0.416513
0.157081
-2.62115
-0.0305083
2.68629
-1.28536
-0.197045
-1.9092
0.0563886
-0.206338
-0.045229
-1.18497
-2.03728
0.917867
2.27053
0.655266
1.44428
0.530267
-0.664189
-0.925918
-3.19241
-1.70118
-1.23386
-2.28954
-0.524031
-0.82266
0.800045
-0.464012
-0.843926
-1.51441
-2.21284
-2.46114
-3.34077
-2.69055
-0.132079
-0.168032
-0.621832
-3.02051
-3.19018
-6.14494
-2.52892
-1.06218
-5.78283
-1.08527
-2.36492
1.48271
-0.9901
-0.650697
-2.87229
-0.926269
-0.518753
-1.54848
-0.42335
-2.72014
-2.85039
-0.754522
-2.1985
-1.00063
-2.47943
-4.18
-5.10264
-1.27686
-1.47867
1.17711
-1.42442
-0.665483
-1.70473
-2.41177
-1.77688
-2.1678
-2.3608
-3.3851
-1.2216
-2.59027
-3.50187
-2.21033
-1.49034
-0.397344
-2.68769
-0.230322
-0.802589
-2.21979
-2.12689
0.382314
-1.65288
0.634707
-1.04787
0.140642
1.56485
1.0583
-0.791018
-3.02809
-1.02449
0.378713
-0.921012
0.750562
-3.15872
-3.0083
-2.78418
-1.1302
-1.8965
-1.11891
-2.29924
-0.307872
-1.72444
1.49615
-0.628099
-2.38013
-1.00978
-1.23658
2.16298
-1.94649
-0.50901
-1.07076
-1.23394
3.34232
1.09664
-1.45463
-1.23719
-2.37176
-0.648226
-1.89776
2.85572
-1.02362
1.10801
0.205042
2.347
1.48384
-2.76234
-0.442193
-0.131479
-2.23848
-1.29326
-1.83415
-1.49548
-1.33522
-2.3815
-2.06286
0.332208
1.05962
-0.853961
-1.40671
-0.937379
-0.640115
-1.1435
0.34703
-0.236423
-0.0410558
-1.17851
-2.76587
-0.349077
-2.56028
1.79478
1.17089
-1.88466
1.2852
-1.21438
1.38951
-2.36628
-3.73209
2.78971
0.333708
1.21747
2.72464
-0.093007
-1.26309
-1.51512
0.404439
0.0813677
0.691311
1.57633
0.664691
-1.71032
1.03481
1.42271
2.06304
-2.37874
1.66584
0.983716
-1.28574
-5.17638
-4.89497
-1.28388
-0.701944
0.330443
-1.25261
0.0868289
0.576425
-2.92659
-1.6486
-2.87172
-2.58247
-1.53759
-2.81417
-3.17369
-1.04833
-1.06844
-4.06641
-0.965607
-5.33528
-3.7258
-0.246217
-0.690399
0.236148
-0.455923
-0.358756
2.79796
-0.408956
-1.14045
0.266828
-0.34964
-0.381768
-0.541287
-3.36144
-0.211098
1.76353
0.344149
-1.31848
0.323954
-4.28903
-4.83882
-2.15993
-1.33122
1.51336
-1.46192
-1.02557
-1.11425
-0.00898091
1.16297
-0.34672
-4.04994
-1.43106
-0.942401
-2.16191
-1.81719
0.341891
-0.685874
-1.26234
-2.13552
-1.233
-1.62791
-1.32826
-0.944844
-1.18272
-1.00706
0.770991
-1.17869
-3.47971
-2.37536
-1.25424
-1.8306
-1.46919
-0.352375
-0.190759
-1.67462
2.01964
-0.709258
-0.462843
-1.63153
-3.35083
-1.37884
-2.52038
-2.32741
0.00770154
1.23873
-0.0245459
0.640502
-2.19445
-0.369803
0.484004
-1.96182
-2.61655
0.351753
1.77613
-3.41911
2.37243
0.118744
-0.8854
0.302991
-2.09034
-2.02464
-0.826132
0.00863995
2.30926
0.502457
2.98302
-2.33327
0.925068
-1.09071
-0.51954
-0.532239
-1.16158
-1.87844
-2.13763
-3.17965
-1.83245
0.630716
-1.94721
-1.84489
-0.22175
0.30597
0.168015
-0.0448428
-0.382972
1.81422
1.36984
-0.298889
-0.0803598
-1.18193
0.380544
0.0593497
0.161727
1.7496
0.0311219
-0.624744
1.42701
-2.0127
1.28814
0.802374
1.01348
-0.0808128
-2.81117
0.815757
0.543721
0.916282
-1.06272
-0.450073
-1.33241
1.55357
-1.87569
0.181889
-1.27258
-0.748592
-0.557001
0.664626
-3.54028
0.67397
-0.633866
-0.136091
-1.53103
-3.91543
-4.75402
-1.82779
1.39319
-0.220947
-0.843495
0.896133
0.0451117
0.00989107
-1.7338
-0.348718
-0.672128
-2.18064
-1.79795
-2.24916
1.26495
-1.75494
-0.720719
-2.00442
-2.06746
-2.85853
-3.23788
-2.37647
-2.09168
0.636247
-0.442816
0.162921
1.80879
1.39899
0.688821
-2.03735
-0.376564
-0.16147
-1.7895
0.441819
0.848235
-0.619361
-0.231549
0.671146
-4.73186
-1.61517
-2.12024
-0.447571
2.03266
-1.2186
-0.578091
-0.0134034
-2.57863
-0.663793
-4.15698
-0.91477
1.43708
0.148427
0.478946
-1.56093
1.63677
-3.28487
0.318895
-2.50369
-2.1132
-3.96032
-0.96706
-0.942761
1.39327
-0.8778
0.93216
1.9086
-0.250505
-1.85033
1.16539
-0.170563
-0.292775
-1.5685
-2.22049
-2.81173
2.66195
-0.858772
-0.294773
-3.11861
-1.70063
-1.57766
-1.77036
-0.645409
-0.312745
2.22228
2.10933
-1.08303
1.52571
-2.05675
-0.7481
1.24969
-0.234851
0.71647
0.375963
-3.19881
1.96857
-4.44489
-1.60779
0.493483
-3.64825
-2.59268
-3.1011
1.27587
0.65562
-0.282001
1.44942
2.122
-2.73955
0.847979
-1.39891
-0.27074
-2.88261
-1.09698
1.84938
1.94757
1.29588
0.949858
-0.619111
1.61208
0.106352
0.0523226
-2.2536
1.29651
0.42844
0.229181
-0.668671
1.10338
0.415214
0.259353
-1.58284
-2.35159
0.644214
-0.0739461
-1.9696
-1.01665
-0.235933
-0.17261
-0.812423
0.178426
-1.20903
0.415371
-3.11195
1.33163
0.387482
0.816462
0.0370718
-0.532218
-1.52002
-0.849611
-0.539109
0.571845
-0.964759
0.348613
0.234788
-1.11041
0.737816
0.637321
-1.89676
1.49141
0.10198
-3.90395
-2.86846
-1.92163
-0.461079
-0.161716
-0.358625
1.17152
0.416928
-1.29913
-0.56406
1.15252
-1.34686
-0.483852
-0.736708
-0.265058
0.570431
2.1687
-1.07492
-0.401071
-2.8413
-0.379222
0.403386
0.619951
0.994383
-0.432042
-0.349192
0.672848
0.305339
-0.894488
-0.336344
-0.233101
0.238114
0.0431438
1.79131
0.614651
2.62238
0.297305
-2.13089
0.539365
-3.63488
-3.89721
-2.29045
-0.0287148
0.180337
1.12814
1.01839
1.30299
2.16724
1.3433
-1.41086
-0.768664
0.614024
0.33361
-1.41
0.0816121
-0.621903
-0.949991
-1.86936
-1.32647
-3.06106
-2.06762
0.106147
-0.459309
-0.100123
0.108897
1.83704
2.39713
0.495157
0.00334064
0.698841
-1.67634
1.96399
2.41734
-1.00263
0.713019
0.291776
-1.04361
-3.21687
-0.580072
0.640657
0.0536864
-0.812362
0.729069
-0.417773
2.05876
1.57671
-0.140994
-0.127648
-0.307337
2.39338
0.748684
-1.64616
-0.100362
-0.217241
2.76588
-0.000119149
0.202366
-0.342866
-1.02754
-2.72332
-3.30038
-2.17126
0.773273
-1.42775
1.20648
2.34652
0.444986
1.81769
1.09461
0.617109
-1.00542
0.992044
-0.742832
2.96468
-1.79704
-1.09068
-2.51742
0.3262
0.398737
-1.09986
-0.854497
0.432003
0.041638
-0.306702
-0.179464
-0.919315
0.00534265
1.26305
-1.90475
2.36675
-1.24988
-0.636962
0.515689
0.419544
-2.55683
-1.08683
-0.855742
-1.97706
-1.36609
-2.84253
1.05249
1.19616
-1.27169
-1.93539
-0.93019
-0.647264
0.771765
0.576718
-0.833287
0.650957
-1.54788
-0.569465
-0.435149
0.203018
0.0538415
-1.15079
-0.335159
0.72897
-2.21127
0.772007
-1.98376
-3.26053
0.0901563
2.20374
-2.164
2.16862
-0.48683
1.0567
1.99046
1.40636
1.67663
-0.30907
-0.927637
-1.20842
1.75835
1.43971
1.34563
0.930022
-0.606677
-1.21222
-5.29255
-1.3716
-0.29126
0.506609
2.98035
0.173176
1.66833
-0.81116
1.90856
1.19741
0.666528
0.146932
0.356523
1.46232
0.504319
0.743317
0.302884
0.98999
0.798333
-1.15232
-1.33434
-0.590049
-3.08505
-0.760697
0.729217
1.37186
1.11021
1.67782
1.56488
1.39904
-1.21898
-2.59347
1.72951
-0.594821
1.7977
0.406923
2.13201
2.81231
-1.76567
-2.0031
0.0198871
-0.501119
-1.8403
0.95516
3.02091
1.07155
2.70424
1.95944
-0.854757
0.803361
1.71402
0.0863901
1.64115
0.894975
-1.19927
2.60739
0.937369
1.16749
0.489462
-0.807348
-0.151889
-0.777013
-0.38495
1.40489
0.4653
-1.37611
-0.0769578
0.092733
1.23124
3.20036
-0.659079
0.0999777
0.73019
-0.291906
3.29729
1.92166
-0.0438122
1.50649
0.617882
-1.28436
0.129333
0.281462
0.69955
1.47464
0.497281
3.40536
-1.12936
4.18546
-1.46491
-1.8236
-0.00459462
-1.17171
1.19024
0.50333
-0.269562
0.0611571
0.487562
4.07982
1.20746
-1.11511
1.68487
-0.565011
-0.0476477
0.632714
-0.618095
-1.27389
0.91595
2.04323
0.949239
0.900465
1.7712
2.04999
-0.82118
0.456064
0.253606
0.718319
-0.0874173
1.30753
-1.30432
-0.15887
0.0450239
-1.31524
-0.279867
-3.65053
-1.58025
0.218752
-0.337062
1.4816
0.910715
0.440404
1.66997
0.427658
0.521125
0.991279
-0.61483
-4.03953
0.00836406
0.426524
2.21899
0.856585
-4.16067
-1.53293
4.20057
2.24924
2.76144
3.87968
0.406593
0.356022
1.1425
1.48432
-0.431003
1.15552
2.3264
2.69876
2.40948
1.59148
3.80087
1.10396
0.911297
-0.627713
-2.27166
0.536621
0.466504
0.235054
-0.39619
0.403223
3.5756
0.292695
1.35511
0.154973
0.933323
1.59571
0.305689
0.566736
0.00876426
3.2691
-0.435631
2.96271
-0.166681
0.00595991
-1.30685
-0.981197
-1.42292
1.24978
2.62051
1.90784
0.806549
2.02339
0.1147
-0.414825
0.70932
1.61435
1.78626
1.72994
1.12662
3.77552
1.5057
1.44336
-0.572971
-2.33124
-0.66322
0.46839
1.98696
0.0550472
1.85106
3.2729
0.369817
0.9738
3.06903
0.226791
0.956181
1.80881
0.863583
0.931098
2.87883
2.97918
1.66293
0.654266
0.707347
0.671714
-1.58397
-2.24081
1.21351
-0.883605
3.14441
-0.490823
1.10581
1.03256
1.54677
-0.801941
2.14485
-2.13749
-1.00669
2.5169
1.2275
1.40037
1.95997
-0.430117
-0.152523
0.85832
-1.23078
0.417143
1.5229
3.49299
0.503115
0.654335
0.882009
1.88123
0.874358
2.23623
0.622235
0.628776
1.47827
2.31418
-0.291592
1.04853
0.214466
0.392656
1.33323
-3.77674
-1.19868
0.0774017
0.475526
-0.201783
0.661208
1.02799
-1.35762
-0.569988
3.24721
0.762974
-0.463504
1.46716
-2.18217
1.34493
-1.29037
1.60345
0.619178
-0.00599425
-0.509559
-1.15463
0.960971
2.08796
-1.56831
-1.57302
-0.0126548
0.85523
-0.0818005
0.0499355
-0.953991
-0.802169
1.83287
1.81229
1.63226
-1.33074
-1.76515
0.340935
0.7581
-0.01353
-0.0333211
1.63877
-1.18434
2.06264
1.97312
1.98545
3.95373
3.53039
2.14887
4.55109
3.66479
3.59299
5.52855
3.67242
1.14007
3.30538
3.76168
4.10479
4.53329
1.83646
0.524161
1.21667
-0.893143
0.0792479
1.23884
2.51766
1.07222
4.59821
4.91547
4.25726
4.34318
2.39907
1.4331
3.47572
3.95538
2.88761
3.15954
2.95464
0.695324
2.26072
-1.38221
0.659785
-1.79213
-1.39515
1.84823
3.59617
-0.772022
0.797294
4.41009
4.2917
1.9016
3.52002
3.58651
1.90966
2.2332
0.35278
0.731622
1.04328
0.693579
0.833591
2.20669
0.873709
0.0124281
1.04977
1.25389
4.62694
3.52681
2.76089
4.06863
3.95702
3.64157
1.84176
1.81407
2.6955
5.2841
0.670171
-0.424861
2.8753
3.99855
4.26742
1.38343
-0.205403
0.733964
2.47617
1.6388
1.55336
1.23085
4.55704
0.454359
2.31659
3.53891
2.85275
2.80216
1.87473
1.74047
2.71287
0.769397
1.43305
1.97629
1.87079
0.0928077
-0.32946
1.94059
-0.69188
2.12329
1.14878
0.490823
1.63182
1.6643
2.14575
1.42928
1.77488
0.995095
2.24758
-0.142079
-0.303909
1.17506
0.613715
2.57102
3.1019
1.59078
0.951842
-1.46227
0.180875
3.29708
0.723936
2.49062
2.59011
2.02343
2.07564
-0.30831
2.55616
1.90825
-0.636961
-1.70559
1.2899
1.23009
-0.950495
1.07708
2.08148
0.644137
0.496004
1.99229
1.4999
-1.57865
0.132509
0.219462
1.2847
3.41735
0.542861
-0.454451
-0.0281313
1.70768
-0.560277
1.45214
1.65363
0.00635616
2.22888
1.59327
-1.51765
2.2311
1.18983
-0.638648
0.996536
4.40371
4.8295
3.29168
1.58455
2.88304
6.12909
1.10054
5.62051
5.65735
4.83134
5.72823
3.96173
3.20679
2.82902
3.66322
0.793639
4.48204
0.995363
0.27111
0.541722
2.46758
0.144179
4.73939
0.220394
1.96753
-0.329365
2.38321
-0.0585622
0.150449
6.06681
0.37812
4.59234
-0.122965
0.7196
0.225569
3.75412
0.441916
2.74316
-0.819835
1.05562
0.935597
3.39494
3.50802
2.29184
2.46794
3.26831
4.0964
1.26454
2.16553
4.12253
0.908149
1.8664
2.56444
1.79058
3.51631
0.0246114
3.16511
2.30144
-0.673612
3.35794
2.67271
2.04381
3.47729
1.99251
1.88097
1.02031
2.33899
2.57345
0.830921
4.53195
2.30408
1.31733
2.37478
3.74028
3.90554
1.64058
1.14396
2.95127
1.55918
3.34599
0.408197
3.05368
3.20856
1.39612
1.39233
2.85133
1.95947
1.95213
1.34206
2.66218
2.08946
3.02385
2.21917
0.379185
2.04914
3.62496
0.310278
1.74523
-0.359808
2.82485
2.85865
2.42182
1.72246
2.15996
-0.52189
1.44855
1.98126
0.900332
1.44879
-0.836561
0.60128
0.772835
1.12522
-0.0503214
-0.982611
-0.411084
2.3861
0.0620992
0.31749
3.61991
3.23873
-0.00670335
-0.288516
0.824698
0.00321145
1.14047
-0.773631
-1.05053
1.57742
-1.0488
4.34931
0.87617
0.0595036
1.2551
1.75458
2.27907
-0.605037
-2.25182
0.75147
1.23149
-0.690787
1.96217
2.01555
2.98768
1.90385
1.8204
-0.0784649
0.140293
-1.11003
-1.10651
-0.466464
-1.10235
-0.601452
-0.491818
1.9321
2.02968
-0.603442
1.74704
0.811807
0.525306
2.66691
1.75763
5.60971
5.70924
6.51932
5.09511
5.34663
5.09494
6.32556
4.98625
4.98866
4.83896
6.29457
6.61501
4.76303
5.59702
4.02999
1.91219
0.565705
0.940899
5.88486
5.13532
3.12487
4.06239
5.91045
3.66984
4.63331
5.13324
5.03362
2.8731
5.7487
5.95015
3.1481
5.24079
4.52535
2.94535
3.26266
2.40498
1.67521
1.7605
4.24264
3.79034
4.35526
1.42841
4.32258
1.60292
3.39187
0.999166
3.56448
5.89754
3.14895
3.83738
5.01617
3.31157
0.321417
3.67769
-0.272119
3.28176
2.63504
0.495117
4.64765
3.07095
1.54744
0.5599
4.11958
0.927483
1.89343
0.621816
5.77796
1.34842
2.30742
3.58199
2.88313
3.45474
2.10784
2.78018
3.30951
1.39317
3.16848
1.44982
0.785875
3.19941
-0.429363
2.10639
3.2199
2.40196
4.80879
2.17926
3.37644
2.93133
1.42364
3.29617
0.91455
1.13515
0.792352
5.45762
0.896755
0.399548
-0.88387
0.479272
-0.247604
2.83443
1.08037
1.89848
0.111123
4.87446
3.51962
1.84981
2.54407
1.18976
2.21559
2.55227
0.471992
1.474
3.16123
0.509905
1.30822
0.0237172
-0.336374
1.56109
-0.610269
1.42566
0.274681
3.19094
0.397674
0.816726
0.491688
0.423159
-0.297647
-0.35504
-0.759806
1.69522
0.73595
0.143924
3.15646
1.1521
2.21719
-2.07169
0.172652
0.628573
-1.17898
0.859249
0.146842
-1.2893
0.865345
-1.38964
2.49735
1.34374
-0.808383
1.60596
0.544216
2.11221
1.88348
-2.23837
1.88679
1.19905
-0.083556
-0.899306
)
;

boundaryField
{
    hotSide
    {
        type            calculated;
        value           nonuniform List<scalar> 
400
(
-1.70028
-1.58298
-1.46018
-2.19667
-2.19306
-4.0725
-4.35801
-4.21804
-4.29655
-3.49925
-2.51894
-1.89361
-3.83974
-2.53715
-2.48016
-0.510524
-2.634
0.399796
1.00702
2.52311
1.51124
2.06734
-1.95576
-3.02392
-0.139718
-3.18843
-1.15733
-2.66052
-0.731873
-3.38069
-1.35234
-0.382688
-3.54005
-3.35882
-1.42906
-1.77291
0.00695048
3.6589
2.65333
2.24679
1.78567
1.13563
1.22006
1.79752
-0.40948
1.37452
-1.16018
0.325005
-0.299941
-2.31514
1.88489
0.105057
0.0898947
-0.415246
-0.46631
1.59234
5.75378
3.58154
6.07158
4.39849
1.88405
1.82506
3.93044
1.65718
2.58114
0.531389
-1.54874
0.255155
1.21008
1.63825
-0.340505
-0.929937
0.690814