/*--------------------------------*- C++ -*----------------------------------*\
| =========                 |                                                 |
| \\      /  F ield         | OpenFOAM: The Open Source CFD Toolbox           |
|  \\    /   O peration     | Version:  2212                                  |
|   \\  /    A nd           | Website:  www.openfoam.com                      |
|    \\/     M anipulation  |                                                 |
\*---------------------------------------------------------------------------*/
FoamFile
{
    version     2.0;
    format      ascii;
    arch        "LSB;label=32;scalar=64";
    class       volScalarField;
    location    "./ITHACAoutput/true/8.2";
    object      trueState;
}
// * * * * * * * * * * * * * * * * * * * * * * * * * * * * * * * * * * * * * //

dimensions      [0 0 0 1 0 0 0];

internalField   nonuniform List<scalar> 
3200
(
347.515
348.066
348.77
349.536
350.326
351.101
351.817
352.421
352.861
353.093
353.093
352.861
352.421
351.817
351.101
350.326
349.536
348.77
348.066
347.515
341.253
341.719
342.326
342.989
343.673
344.343
344.962
345.483
345.863
346.064
346.064
345.863
345.483
344.962
344.343
343.673
342.989
342.326
341.719
341.253
334.96
335.347
335.858
336.419
336.996
337.563
338.085
338.525
338.846
339.015
339.015
338.846
338.525
338.085
337.563
336.996
336.419
335.858
335.347
334.96
328.642
328.954
329.371
329.829
330.301
330.764
331.19
331.55
331.811
331.95
331.95
331.811
331.55
331.19
330.764
330.301
329.829
329.371
328.954
328.642
322.304
322.544
322.867
323.223
323.59
323.949
324.281
324.56
324.763
324.87
324.87
324.763
324.56
324.281
323.949
323.59
323.223
322.867
322.544
322.304
315.951
316.12
316.35
316.605
316.867
317.123
317.36
317.559
317.704
317.781
317.781
317.704
317.559
317.36
317.123
316.867
316.605
316.35
316.12
315.951
309.586
309.687
309.825
309.977
310.135
310.289
310.431
310.551
310.638
310.683
310.683
310.638
310.551
310.431
310.289
310.135
309.977
309.825
309.687
309.586
303.214
303.248
303.294
303.345
303.398
303.45
303.497
303.537
303.566
303.582
303.582
303.566
303.537
303.497
303.45
303.398
303.345
303.294
303.248
303.214
347.684
348.231
348.928
349.688
350.469
351.236
351.943
352.539
352.974
353.203
353.203
352.974
352.539
351.943
351.236
350.469
349.688
348.928
348.231
347.684
341.399
341.862
342.463
343.12
343.797
344.46
345.071
345.587
345.962
346.16
346.16
345.962
345.587
345.071
344.46
343.797
343.12
342.463
341.862
341.399
335.084
335.468
335.975
336.53
337.102
337.662
338.178
338.613
338.929
339.096
339.096
338.929
338.613
338.178
337.662
337.102
336.53
335.975
335.468
335.084
328.744
329.053
329.466
329.92
330.387
330.845
331.267
331.622
331.88
332.016
332.016
331.88
331.622
331.267
330.845
330.387
329.92
329.466
329.053
328.744
322.383
322.621
322.941
323.294
323.657
324.013
324.34
324.616
324.817
324.922
324.922
324.817
324.616
324.34
324.013
323.657
323.294
322.941
322.621
322.383
316.007
316.175
316.403
316.655
316.915
317.169
317.402
317.599
317.742
317.818
317.818
317.742
317.599
317.402
317.169
316.915
316.655
316.403
316.175
316.007
309.62
309.72
309.857
310.008
310.164
310.316
310.457
310.575
310.661
310.706
310.706
310.661
310.575
310.457
310.316
310.164
310.008
309.857
309.72
309.62
303.225
303.259
303.305
303.355
303.408
303.459
303.506
303.545
303.574
303.589
303.589
303.574
303.545
303.506
303.459
303.408
303.355
303.305
303.259
303.225
348.022
348.56
349.246
349.991
350.757
351.507
352.198
352.78
353.203
353.426
353.426
353.203
352.78
352.198
351.507
350.757
349.991
349.246
348.56
348.022
341.692
342.148
342.739
343.384
344.047
344.696
345.293
345.796
346.161
346.354
346.354
346.161
345.796
345.293
344.696
344.047
343.384
342.739
342.148
341.692
335.332
335.71
336.208
336.753
337.313
337.862
338.366
338.79
339.099
339.262
339.262
339.099
338.79
338.366
337.862
337.313
336.753
336.208
335.71
335.332
328.947
329.251
329.657
330.103
330.561
331.009
331.421
331.767
332.019
332.152
332.152
332.019
331.767
331.421
331.009
330.561
330.103
329.657
329.251
328.947
322.541
322.775
323.09
323.436
323.792
324.14
324.46
324.73
324.925
325.028
325.028
324.925
324.73
324.46
324.14
323.792
323.436
323.09
322.775
322.541
316.12
316.285
316.51
316.757
317.011
317.26
317.488
317.681
317.82
317.894
317.894
317.82
317.681
317.488
317.26
317.011
316.757
316.51
316.285
316.12
309.687
309.786
309.921
310.069
310.222
310.371
310.508
310.624
310.707
310.751
310.751
310.707
310.624
310.508
310.371
310.222
310.069
309.921
309.786
309.687
303.248
303.281
303.326
303.376
303.427
303.477
303.523
303.562
303.59
303.605
303.605
303.59
303.562
303.523
303.477
303.427
303.376
303.326
303.281
303.248
348.531
349.056
349.725
350.45
351.193
351.919
352.586
353.147
353.554
353.769
353.769
353.554
353.147
352.586
351.919
351.193
350.45
349.725
349.056
348.531
342.133
342.578
343.154
343.782
344.425
345.053
345.63
346.115
346.467
346.653
346.653
346.467
346.115
345.63
345.053
344.425
343.782
343.154
342.578
342.133
335.705
336.074
336.56
337.09
337.634
338.165
338.652
339.062
339.359
339.515
339.515
339.359
339.062
338.652
338.165
337.634
337.09
336.56
336.074
335.705
329.253
329.55
329.946
330.379
330.823
331.257
331.655
331.99
332.232
332.36
332.36
332.232
331.99
331.655
331.257
330.823
330.379
329.946
329.55
329.253
322.779
323.007
323.314
323.651
323.997
324.334
324.643
324.903
325.091
325.19
325.19
325.091
324.903
324.643
324.334
323.997
323.651
323.314
323.007
322.779
316.29
316.451
316.67
316.911
317.158
317.398
317.619
317.805
317.939
318.01
318.01
317.939
317.805
317.619
317.398
317.158
316.911
316.67
316.451
316.29
309.79
309.886
310.017
310.162
310.31
310.454
310.587
310.698
310.779
310.821
310.821
310.779
310.698
310.587
310.454
310.31
310.162
310.017
309.886
309.79
303.282
303.315
303.358
303.407
303.457
303.505
303.549
303.587
303.614
303.628
303.628
303.614
303.587
303.549
303.505
303.457
303.407
303.358
303.315
303.282
349.212
349.721
350.367
351.067
351.781
352.477
353.115
353.649
354.037
354.241
354.241
354.037
353.649
353.115
352.477
351.781
351.067
350.367
349.721
349.212
342.724
343.155
343.712
344.317
344.936
345.538
346.089
346.552
346.887
347.063
347.063
346.887
346.552
346.089
345.538
344.936
344.317
343.712
343.155
342.724
336.205
336.563
337.033
337.544
338.067
338.576
339.042
339.432
339.715
339.863
339.863
339.715
339.432
339.042
338.576
338.067
337.544
337.033
336.563
336.205
329.662
329.949
330.332
330.75
331.178
331.594
331.974
332.293
332.524
332.646
332.646
332.524
332.293
331.974
331.594
331.178
330.75
330.332
329.949
329.662
323.097
323.318
323.615
323.94
324.273
324.596
324.892
325.139
325.319
325.413
325.413
325.319
325.139
324.892
324.596
324.273
323.94
323.615
323.318
323.097
316.517
316.674
316.886
317.118
317.355
317.586
317.797
317.974
318.102
318.169
318.169
318.102
317.974
317.797
317.586
317.355
317.118
316.886
316.674
316.517
309.926
310.019
310.147
310.286
310.428
310.567
310.694
310.8
310.877
310.917
310.917
310.877
310.8
310.694
310.567
310.428
310.286
310.147
310.019
309.926
303.328
303.359
303.402
303.449
303.496
303.543
303.585
303.621
303.647
303.66
303.66
303.647
303.621
303.585
303.543
303.496
303.449
303.402
303.359
303.328
350.067
350.557
351.177
351.846
352.527
353.188
353.791
354.295
354.66
354.852
354.852
354.66
354.295
353.791
353.188
352.527
351.846
351.177
350.557
350.067
343.465
343.88
344.415
344.994
345.583
346.155
346.677
347.113
347.428
347.594
347.594
347.428
347.113
346.677
346.155
345.583
344.994
344.415
343.88
343.465
336.833
337.177
337.628
338.117
338.615
339.099
339.54
339.908
340.174
340.314
340.314
340.174
339.908
339.54
339.099
338.615
338.117
337.628
337.177
336.833
330.175
330.452
330.82
331.22
331.627
332.022
332.383
332.684
332.901
333.015
333.015
332.901
332.684
332.383
332.022
331.627
331.22
330.82
330.452
330.175
323.497
323.71
323.995
324.306
324.622
324.93
325.21
325.444
325.613
325.701
325.701
325.613
325.444
325.21
324.93
324.622
324.306
323.995
323.71
323.497
316.803
316.954
317.157
317.379
317.605
317.824
318.024
318.191
318.312
318.375
318.375
318.312
318.191
318.024
317.824
317.605
317.379
317.157
316.954
316.803
310.098
310.188
310.309
310.443
310.579
310.71
310.83
310.931
311.003
311.041
311.041
311.003
310.931
310.83
310.71
310.579
310.443
310.309
310.188
310.098
303.386
303.416
303.456
303.501
303.547
303.591
303.631
303.665
303.689
303.702
303.702
303.689
303.665
303.631
303.591
303.547
303.501
303.456
303.416
303.386
351.098
351.567
352.158
352.793
353.436
354.058
354.624
355.095
355.435
355.613
355.613
355.435
355.095
354.624
354.058
353.436
352.793
352.158
351.567
351.098
344.359
344.756
345.266
345.815
346.372
346.911
347.4
347.808
348.102
348.256
348.256
348.102
347.808
347.4
346.911
346.372
345.815
345.266
344.756
344.359
337.59
337.919
338.348
338.813
339.284
339.739
340.153
340.497
340.745
340.876
340.876
340.745
340.497
340.153
339.739
339.284
338.813
338.348
337.919
337.59
330.795
331.06
331.41
331.789
332.175
332.547
332.885
333.166
333.369
333.476
333.476
333.369
333.166
332.885
332.547
332.175
331.789
331.41
331.06
330.795
323.979
324.183
324.454
324.749
325.049
325.338
325.601
325.82
325.977
326.06
326.06
325.977
325.82
325.601
325.338
325.049
324.749
324.454
324.183
323.979
317.148
317.292
317.485
317.696
317.91
318.117
318.304
318.461
318.573
318.632
318.632
318.573
318.461
318.304
318.117
317.91
317.696
317.485
317.292
317.148
310.305
310.391
310.507
310.633
310.762
310.886
310.999
311.092
311.16
311.195
311.195
311.16
311.092
310.999
310.886
310.762
310.633
310.507
310.391
310.305
303.455
303.484
303.523
303.565
303.608
303.65
303.687
303.719
303.742
303.753
303.753
303.742
303.719
303.687
303.65
303.608
303.565
303.523
303.484
303.455
352.309
352.754
353.313
353.912
354.515
355.096
355.622
356.058
356.372
356.537
356.537
356.372
356.058
355.622
355.096
354.515
353.912
353.313
352.754
352.309
345.409
345.786
346.268
346.786
347.309
347.812
348.267
348.645
348.916
349.058
349.058
348.916
348.645
348.267
347.812
347.309
346.786
346.268
345.786
345.409
338.478
338.791
339.197
339.635
340.077
340.502
340.887
341.206
341.436
341.556
341.556
341.436
341.206
340.887
340.502
340.077
339.635
339.197
338.791
338.478
331.522
331.774
332.105
332.463
332.825
333.172
333.487
333.748
333.935
334.033
334.033
333.935
333.748
333.487
333.172
332.825
332.463
332.105
331.774
331.522
324.545
324.738
324.995
325.274
325.555
325.825
326.07
326.273
326.418
326.495
326.495
326.418
326.273
326.07
325.825
325.555
325.274
324.995
324.738
324.545
317.552
317.689
317.872
318.071
318.272
318.465
318.64
318.784
318.888
318.943
318.943
318.888
318.784
318.64
318.465
318.272
318.071
317.872
317.689
317.552
310.548
310.629
310.739
310.859
310.979
311.095
311.2
311.287
311.349
311.382
311.382
311.349
311.287
311.2
311.095
310.979
310.859
310.739
310.629
310.548
303.536
303.564
303.601
303.641
303.681
303.72
303.755
303.784
303.805
303.816
303.816
303.805
303.784
303.755
303.72
303.681
303.641
303.601
303.564
303.536
353.701
354.121
354.648
355.208
355.77
356.309
356.794
357.195
357.483
357.633
357.633
357.483
357.195
356.794
356.309
355.77
355.208
354.648
354.121
353.701
346.616
346.972
347.426
347.911
348.398
348.864
349.284
349.632
349.881
350.011
350.011
349.881
349.632
349.284
348.864
348.398
347.911
347.426
346.972
346.616
339.5
339.795
340.178
340.588
341
341.394
341.749
342.043
342.254
342.364
342.364
342.254
342.043
341.749
341.394
341
340.588
340.178
339.795
339.5
332.358
332.596
332.908
333.243
333.58
333.903
334.193
334.433
334.605
334.695
334.695
334.605
334.433
334.193
333.903
333.58
333.243
332.908
332.596
332.358
325.196
325.378
325.62
325.881
326.143
326.394
326.62
326.806
326.94
327.01
327.01
326.94
326.806
326.62
326.394
326.143
325.881
325.62
325.378
325.196
318.017
318.146
318.319
318.505
318.692
318.872
319.033
319.166
319.262
319.312
319.312
319.262
319.166
319.033
318.872
318.692
318.505
318.319
318.146
318.017
310.827
310.904
311.008
311.119
311.232
311.34
311.436
311.516
311.574
311.604
311.604
311.574
311.516
311.436
311.34
311.232
311.119
311.008
310.904
310.827
303.63
303.656
303.691
303.728
303.766
303.802
303.834
303.861
303.88
303.89
303.89
303.88
303.861
303.834
303.802
303.766
303.728
303.691
303.656
303.63
355.277
355.672
356.164
356.686
357.207
357.703
358.148
358.515
358.776
358.913
358.913
358.776
358.515
358.148
357.703
357.207
356.686
356.164
355.672
355.277
347.982
348.317
348.742
349.193
349.644
350.074
350.46
350.777
351.004
351.122
351.122
351.004
350.777
350.46
350.074
349.644
349.193
348.742
348.317
347.982
340.657
340.934
341.292
341.674
342.056
342.419
342.745
343.014
343.205
343.305
343.305
343.205
343.014
342.745
342.419
342.056
341.674
341.292
340.934
340.657
333.305
333.529
333.821
334.133
334.445
334.742
335.009
335.228
335.385
335.467
335.467
335.385
335.228
335.009
334.742
334.445
334.133
333.821
333.529
333.305
325.933
326.104
326.331
326.573
326.816
327.048
327.255
327.426
327.547
327.611
327.611
327.547
327.426
327.255
327.048
326.816
326.573
326.331
326.104
325.933
318.544
318.665
318.827
319
319.174
319.339
319.487
319.609
319.696
319.741
319.741
319.696
319.609
319.487
319.339
319.174
319
318.827
318.665
318.544
311.144
311.216
311.313
311.417
311.521
311.62
311.709
311.783
311.835
311.862
311.862
311.835
311.783
311.709
311.62
311.521
311.417
311.313
311.216
311.144
303.736
303.76
303.793
303.828
303.863
303.896
303.926
303.95
303.968
303.977
303.977
303.968
303.95
303.926
303.896
303.863
303.828
303.793
303.76
303.736
357.04
357.409
357.868
358.35
358.83
359.285
359.691
360.024
360.261
360.384
360.384
360.261
360.024
359.691
359.285
358.83
358.35
357.868
357.409
357.04
349.511
349.824
350.219
350.637
351.053
351.447
351.799
352.087
352.292
352.399
352.399
352.292
352.087
351.799
351.447
351.053
350.637
350.219
349.824
349.511
341.951
342.21
342.544
342.897
343.249
343.582
343.88
344.123
344.297
344.388
344.388
344.297
344.123
343.88
343.582
343.249
342.897
342.544
342.21
341.951
334.365
334.573
334.845
335.134
335.422
335.695
335.938
336.138
336.28
336.353
336.353
336.28
336.138
335.938
335.695
335.422
335.134
334.845
334.573
334.365
326.757
326.917
327.128
327.353
327.577
327.789
327.978
328.133
328.244
328.301
328.301
328.244
328.133
327.978
327.789
327.577
327.353
327.128
326.917
326.757
319.133
319.247
319.397
319.558
319.718
319.869
320.004
320.115
320.194
320.235
320.235
320.194
320.115
320.004
319.869
319.718
319.558
319.397
319.247
319.133
311.498
311.565
311.655
311.752
311.848
311.939
312.02
312.087
312.134
312.159
312.159
312.134
312.087
312.02
311.939
311.848
311.752
311.655
311.565
311.498
303.855
303.878
303.908
303.94
303.972
304.003
304.03
304.052
304.068
304.076
304.076
304.068
304.052
304.03
304.003
303.972
303.94
303.908
303.878
303.855
358.991
359.335
359.76
360.205
360.645
361.06
361.429
361.729
361.943
362.054
362.054
361.943
361.729
361.429
361.06
360.645
360.205
359.76
359.335
358.991
351.203
351.494
351.861
352.246
352.628
352.987
353.306
353.567
353.752
353.848
353.848
353.752
353.567
353.306
352.987
352.628
352.246
351.861
351.494
351.203
343.383
343.625
343.934
344.26
344.583
344.887
345.157
345.377
345.534
345.615
345.615
345.534
345.377
345.157
344.887
344.583
344.26
343.934
343.625
343.383
335.537
335.731
335.983
336.25
336.514
336.763
336.984
337.164
337.293
337.359
337.359
337.293
337.164
336.984
336.763
336.514
336.25
335.983
335.731
335.537
327.67
327.819
328.014
328.222
328.427
328.621
328.793
328.933
329.032
329.084
329.084
329.032
328.933
328.793
328.621
328.427
328.222
328.014
327.819
327.67
319.785
319.891
320.03
320.178
320.325
320.464
320.586
320.687
320.758
320.795
320.795
320.758
320.687
320.586
320.464
320.325
320.178
320.03
319.891
319.785
311.889
311.952
312.036
312.125
312.213
312.296
312.37
312.43
312.473
312.495
312.495
312.473
312.43
312.37
312.296
312.213
312.125
312.036
311.952
311.889
303.986
304.007
304.035
304.065
304.095
304.123
304.147
304.167
304.182
304.189
304.189
304.182
304.167
304.147
304.123
304.095
304.065
304.035
304.007
303.986
361.132
361.451
361.844
362.253
362.655
363.032
363.365
363.636
363.828
363.927
363.927
363.828
363.636
363.365
363.032
362.655
362.253
361.844
361.451
361.132
353.06
353.33
353.668
354.023
354.371
354.698
354.987
355.221
355.388
355.474
355.474
355.388
355.221
354.987
354.698
354.371
354.023
353.668
353.33
353.06
344.955
345.179
345.464
345.764
346.059
346.335
346.58
346.778
346.919
346.992
346.992
346.919
346.778
346.58
346.335
346.059
345.764
345.464
345.179
344.955
336.824
337.004
337.237
337.482
337.723
337.949
338.149
338.312
338.427
338.487
338.487
338.427
338.312
338.149
337.949
337.723
337.482
337.237
337.004
336.824
328.671
328.809
328.99
329.18
329.368
329.544
329.7
329.826
329.915
329.962
329.962
329.915
329.826
329.7
329.544
329.368
329.18
328.99
328.809
328.671
320.501
320.599
320.728
320.864
320.998
321.124
321.235
321.325
321.389
321.422
321.422
321.389
321.325
321.235
321.124
320.998
320.864
320.728
320.599
320.501
312.319
312.378
312.455
312.537
312.617
312.693
312.76
312.814
312.852
312.872
312.872
312.852
312.814
312.76
312.693
312.617
312.537
312.455
312.378
312.319
304.13
304.15
304.176
304.203
304.23
304.255
304.278
304.296
304.309
304.316
304.316
304.309
304.296
304.278
304.255
304.23
304.203
304.176
304.15
304.13
363.463
363.759
364.12
364.495
364.861
365.202
365.502
365.746
365.917
366.006
366.006
365.917
365.746
365.502
365.202
364.861
364.495
364.12
363.759
363.463
355.081
355.331
355.642
355.967
356.284
356.58
356.84
357.051
357.2
357.277
357.277
357.2
357.051
356.84
356.58
356.284
355.967
355.642
355.331
355.081
346.666
346.873
347.136
347.41
347.679
347.929
348.15
348.328
348.454
348.519
348.519
348.454
348.328
348.15
347.929
347.679
347.41
347.136
346.873
346.666
338.224
338.391
338.605
338.829
339.049
339.254
339.435
339.581
339.684
339.737
339.737
339.684
339.581
339.435
339.254
339.049
338.829
338.605
338.391
338.224
329.76
329.888
330.054
330.229
330.4
330.56
330.7
330.813
330.894
330.935
330.935
330.894
330.813
330.7
330.56
330.4
330.229
330.054
329.888
329.76
321.28
321.37
321.489
321.613
321.736
321.85
321.95
322.031
322.088
322.118
322.118
322.088
322.031
321.95
321.85
321.736
321.613
321.489
321.37
321.28
312.787
312.841
312.912
312.987
313.06
313.129
313.189
313.238
313.272
313.29
313.29
313.272
313.238
313.189
313.129
313.06
312.987
312.912
312.841
312.787
304.287
304.305
304.329
304.354
304.379
304.402
304.422
304.438
304.45
304.456
304.456
304.45
304.438
304.422
304.402
304.379
304.354
304.329
304.305
304.287
365.982
366.254
366.586
366.928
367.26
367.569
367.839
368.057
368.21
368.289
368.289
368.21
368.057
367.839
367.569
367.26
366.928
366.586
366.254
365.982
357.263
357.494
357.78
358.076
358.364
358.632
358.866
359.055
359.188
359.257
359.257
359.188
359.055
358.866
358.632
358.364
358.076
357.78
357.494
357.263
348.513
348.704
348.945
349.196
349.44
349.666
349.864
350.024
350.137
350.195
350.195
350.137
350.024
349.864
349.666
349.44
349.196
348.945
348.704
348.513
339.735
339.889
340.086
340.291
340.49
340.676
340.838
340.969
341.061
341.109
341.109
341.061
340.969
340.838
340.676
340.49
340.291
340.086
339.889
339.735
330.936
331.054
331.206
331.366
331.521
331.666
331.792
331.894
331.965
332.002
332.002
331.965
331.894
331.792
331.666
331.521
331.366
331.206
331.054
330.936
322.12
322.203
322.312
322.426
322.537
322.64
322.73
322.803
322.854
322.881
322.881
322.854
322.803
322.73
322.64
322.537
322.426
322.312
322.203
322.12
313.292
313.341
313.407
313.475
313.542
313.604
313.658
313.702
313.733
313.748
313.748
313.733
313.702
313.658
313.604
313.542
313.475
313.407
313.341
313.292
304.456
304.473
304.495
304.518
304.54
304.561
304.579
304.594
304.604
304.609
304.609
304.604
304.594
304.579
304.561
304.54
304.518
304.495
304.473
304.456
368.676
368.926
369.23
369.542
369.843
370.122
370.365
370.56
370.697
370.767
370.767
370.697
370.56
370.365
370.122
369.843
369.542
369.23
368.926
368.676
359.596
359.808
360.071
360.341
360.602
360.844
361.054
361.223
361.342
361.403
361.403
361.342
361.223
361.054
360.844
360.602
360.341
360.071
359.808
359.596
350.486
350.661
350.882
351.111
351.332
351.537
351.715
351.858
351.959
352.011
352.011
351.959
351.858
351.715
351.537
351.332
351.111
350.882
350.661
350.486
341.349
341.49
341.67
341.857
342.039
342.206
342.352
342.469
342.551
342.594
342.594
342.551
342.469
342.352
342.206
342.039
341.857
341.67
341.49
341.349
332.19
332.299
332.439
332.584
332.725
332.856
332.969
333.06
333.124
333.157
333.157
333.124
333.06
332.969
332.856
332.725
332.584
332.439
332.299
332.19
323.016
323.093
323.192
323.296
323.397
323.49
323.571
323.637
323.682
323.706
323.706
323.682
323.637
323.571
323.49
323.397
323.296
323.192
323.093
323.016
313.83
313.876
313.935
313.998
314.058
314.114
314.163
314.202
314.23
314.244
314.244
314.23
314.202
314.163
314.114
314.058
313.998
313.935
313.876
313.83
304.637
304.652
304.672
304.693
304.713
304.732
304.748
304.761
304.771
304.775
304.775
304.771
304.761
304.748
304.732
304.713
304.693
304.672
304.652
304.637
371.516
371.747
372.025
372.309
372.582
372.833
373.051
373.226
373.348
373.411
373.411
373.348
373.226
373.051
372.833
372.582
372.309
372.025
371.747
371.516
362.052
362.247
362.487
362.733
362.97
363.188
363.377
363.529
363.635
363.689
363.689
363.635
363.529
363.377
363.188
362.97
362.733
362.487
362.247
362.052
352.559
352.72
352.923
353.131
353.332
353.516
353.677
353.805
353.895
353.941
353.941
353.895
353.805
353.677
353.516
353.332
353.131
352.923
352.72
352.559
343.042
343.172
343.337
343.507
343.672
343.823
343.954
344.059
344.132
344.17
344.17
344.132
344.059
343.954
343.823
343.672
343.507
343.337
343.172
343.042
333.505
333.605
333.733
333.866
333.994
334.111
334.213
334.295
334.352
334.382
334.382
334.352
334.295
334.213
334.111
333.994
333.866
333.733
333.605
333.505
323.954
324.025
324.116
324.211
324.302
324.386
324.459
324.518
324.559
324.58
324.58
324.559
324.518
324.459
324.386
324.302
324.211
324.116
324.025
323.954
314.393
314.435
314.49
314.547
314.602
314.652
314.696
314.731
314.756
314.768
314.768
314.756
314.731
314.696
314.652
314.602
314.547
314.49
314.435
314.393
304.825
304.839
304.858
304.877
304.895
304.912
304.927
304.939
304.947
304.951
304.951
304.947
304.939
304.927
304.912
304.895
304.877
304.858
304.839
304.825
374.43
374.641
374.896
375.156
375.404
375.631
375.827
375.984
376.093
376.149
376.149
376.093
375.984
375.827
375.631
375.404
375.156
374.896
374.641
374.43
364.559
364.738
364.958
365.183
365.399
365.596
365.766
365.902
365.997
366.046
366.046
365.997
365.902
365.766
365.596
365.399
365.183
364.958
364.738
364.559
354.666
354.815
355.001
355.191
355.374
355.541
355.685
355.8
355.881
355.922
355.922
355.881
355.8
355.685
355.541
355.374
355.191
355.001
354.815
354.666
344.756
344.876
345.027
345.183
345.333
345.47
345.588
345.682
345.748
345.782
345.782
345.748
345.682
345.588
345.47
345.333
345.183
345.027
344.876
344.756
334.833
334.925
335.042
335.163
335.28
335.386
335.479
335.552
335.603
335.63
335.63
335.603
335.552
335.479
335.386
335.28
335.163
335.042
334.925
334.833
324.899
324.964
325.048
325.135
325.218
325.294
325.36
325.413
325.45
325.468
325.468
325.45
325.413
325.36
325.294
325.218
325.135
325.048
324.964
324.899
314.959
314.998
315.048
315.1
315.15
315.196
315.236
315.267
315.289
315.301
315.301
315.289
315.267
315.236
315.196
315.15
315.1
315.048
314.998
314.959
305.015
305.028
305.045
305.062
305.079
305.094
305.108
305.118
305.126
305.129
305.129
305.126
305.118
305.108
305.094
305.079
305.062
305.045
305.028
305.015
377.227
377.423
377.658
377.896
378.123
378.33
378.508
378.65
378.749
378.799
378.799
378.749
378.65
378.508
378.33
378.123
377.896
377.658
377.423
377.227
366.937
367.103
367.306
367.513
367.71
367.89
368.045
368.168
368.254
368.298
368.298
368.254
368.168
368.045
367.89
367.71
367.513
367.306
367.103
366.937
356.644
356.782
356.953
357.128
357.296
357.449
357.58
357.685
357.758
357.795
357.795
357.758
357.685
357.58
357.449
357.296
357.128
356.953
356.782
356.644
346.351
346.462
346.602
346.745
346.883
347.008
347.116
347.201
347.261
347.292
347.292
347.261
347.201
347.116
347.008
346.883
346.745
346.602
346.462
346.351
336.058
336.143
336.252
336.364
336.471
336.569
336.653
336.72
336.766
336.79
336.79
336.766
336.72
336.653
336.569
336.471
336.364
336.252
336.143
336.058
325.767
325.827
325.905
325.985
326.062
326.131
326.192
326.239
326.273
326.29
326.29
326.273
326.239
326.192
326.131
326.062
325.985
325.905
325.827
325.767
315.477
315.513
315.56
315.608
315.654
315.696
315.732
315.761
315.781
315.791
315.791
315.781
315.761
315.732
315.696
315.654
315.608
315.56
315.513
315.477
305.188
305.2
305.216
305.232
305.247
305.261
305.273
305.283
305.29
305.293
305.293
305.29
305.283
305.273
305.261
305.247
305.232
305.216
305.2
305.188
379.415
379.6
379.821
380.044
380.257
380.45
380.615
380.747
380.839
380.885
380.885
380.839
380.747
380.615
380.45
380.257
380.044
379.821
379.6
379.415
368.727
368.883
369.075
369.269
369.455
369.623
369.768
369.883
369.963
370.003
370.003
369.963
369.883
369.768
369.623
369.455
369.269
369.075
368.883
368.727
358.087
358.217
358.379
358.545
358.702
358.845
358.969
359.066
359.134
359.169
359.169
359.134
359.066
358.969
358.845
358.702
358.545
358.379
358.217
358.087
347.486
347.591
347.723
347.859
347.989
348.106
348.207
348.288
348.344
348.372
348.372
348.344
348.288
348.207
348.106
347.989
347.859
347.723
347.591
347.486
336.914
336.995
337.098
337.204
337.305
337.397
337.476
337.539
337.582
337.605
337.605
337.582
337.539
337.476
337.397
337.305
337.204
337.098
336.995
336.914
326.365
326.422
326.496
326.572
326.644
326.71
326.766
326.811
326.843
326.859
326.859
326.843
326.811
326.766
326.71
326.644
326.572
326.496
326.422
326.365
315.831
315.865
315.909
315.955
315.998
316.038
316.072
316.099
316.118
316.128
316.128
316.118
316.099
316.072
316.038
315.998
315.955
315.909
315.865
315.831
305.306
305.317
305.332
305.347
305.362
305.375
305.387
305.396
305.402
305.405
305.405
305.402
305.396
305.387
305.375
305.362
305.347
305.332
305.317
305.306
)
;

boundaryField
{
    hotSide
    {
        type            fixedGradient;
        gradient        nonuniform List<scalar> 
400
(
498.207
500.002
503.599
509.008
516.246
525.334
536.294
549.153
563.937
580.672
599.384
620.097
642.834
667.613
694.453
723.368
754.372
787.473
822.68
859.999
505.457
507.195
510.679
515.924
522.952
531.79
542.469
555.022
569.484
585.887
604.264
624.645
647.056
671.521
698.06
726.69
757.424
790.274
825.248
862.351
513.303
514.973
518.322
523.372
530.152
538.697
549.046
561.245
575.334
591.358
609.355
629.362
651.41
675.527
701.736
730.056
760.501
793.082
827.808
864.684
521.616
523.205
526.399
531.223
537.716
545.924
555.898
567.694
581.366
596.967
614.544
634.141
655.795
679.538
705.396
733.387
763.529
795.831
830.302
866.945
530.162
531.662
534.68
539.252
545.425
553.259
562.821
574.177
587.397
602.542
619.672
638.836
660.078
683.433
708.928
736.586
766.42
798.442
832.658
869.071
538.586
539.99
542.821
547.123
552.957
560.398
569.526
580.426
593.178
607.858
624.533
643.262
664.092
687.063
712.203
739.534
769.072
800.826
834.8
870.994
546.405
547.713
550.357
554.391
559.89
566.944
575.649
586.104
598.405
612.639
628.883
647.201
667.647
690.26
715.073
742.107
771.376
802.887
836.644
872.644
553.041
554.262
556.738
560.532
565.731
572.44
580.769
590.834
602.741
616.587
632.458
650.424
670.542
692.854
717.392
744.177
773.222
804.533
838.111
873.953
557.897
559.052
561.4
565.01
569.981
576.427
584.474
594.245
605.856
619.415
635.01
652.717
672.594
694.686
719.024
745.63
774.514
805.681
839.132
874.862
560.471
561.59
563.867
567.377
572.224
578.529
586.423
596.035
607.488
620.892
636.34
653.909
673.659
695.635
719.868
746.379
775.179
806.272
839.657
875.328
560.471
561.59
563.867
567.377
572.224
578.529
586.423
596.035
607.488
620.892
636.34
653.909
673.659
695.635
719.868
746.379
775.179
806.272
839.657
875.328
557.897
559.052
561.4
565.01
569.981
576.427
584.474
594.245
605.856
619.415
635.01
652.717
672.594
694.686
719.024
745.63
774.514
805.681
839.132
874.862
553.041
554.262
556.738
560.532
565.731
572.44
580.769
590.834
602.741
616.587
632.458
650.424
670.542
692.854
717.392
744.177
773.222
804.533
838.111
873.953
546.405
547.713
550.357
554.391
559.89
566.944
575.649
586.104
598.405
612.639
628.883
647.201
667.647
690.26
715.073
742.107
771.376
802.887
836.644
872.644
538.586
539.99
542.821
547.123
552.957
560.398
569.526
580.426
593.178
607.858
624.533
643.262
664.092
687.063
712.203
739.534
769.072
800.826
834.8
870.994
530.162
531.662
534.68
539.252
545.425
553.259
562.821
574.177
587.397
602.542
619.672
638.836
660.078
683.433
708.928
736.586
766.42
798.442
832.658
869.071
521.616
523.205
526.399
531.223
537.716
545.924
555.898
567.694
581.366
596.967
614.544
634.141
655.795
679.538
705.396
733.387
763.529
795.831
830.302
866.945
513.303
514.973
518.322
523.372
530.152
538.697
549.046
561.245
575.334
591.358
609.355
629.362
651.41
675.527
701.736
730.056
760.501
793.082
827.808
864.684
505.457
507.195
510.679
515.924
522.952
531.79
542.469
555.022
569.484
585.887
604.264
624.645
647.056
671.521
698.06
726.69
757.424
790.274
825.248
862.351
498.207
500.002
503.599
509.008
516.246
525.334
536.294
549.153
563.937
580.672
599.384
620.097
642.834
667.613
694.453
723.368
754.372
787.473
822.68
859.999
)
;
    }
    coldSide
    {
        type            mixed;
        refValue        uniform 300;
        refGradient     uniform 0;
        valueFraction   uniform 0.991591;
        source          uniform 0;
        value           nonuniform List<scalar> 
400
(
300.027
300.027
300.027
300.028
300.028
300.028
300.029
300.03
300.031
300.031
300.032
300.034
300.035
300.036
300.037
300.039
300.041
300.042
300.044
300.045
300.027
300.027
300.028
300.028
300.028
300.029
300.029
300.03
300.031
300.032
300.033
300.034
300.035
300.036
300.038
300.039
300.041
300.042
300.044