/*--------------------------------*- C++ -*----------------------------------*\
| =========                 |                                                 |
| \\      /  F ield         | OpenFOAM: The Open Source CFD Toolbox           |
|  \\    /   O peration     | Version:  2212                                  |
|   \\  /    A nd           | Website:  www.openfoam.com                      |
|    \\/     M anipulation  |                                                 |
\*---------------------------------------------------------------------------*/
FoamFile
{
    version     2.0;
    format      ascii;
    arch        "LSB;label=32;scalar=64";
    class       volScalarField;
    location    "0";
    object      relativeErrorField;
}
// * * * * * * * * * * * * * * * * * * * * * * * * * * * * * * * * * * * * * //

dimensions      [0 0 0 1 0 0 0];

internalField   nonuniform List<scalar> 
3200
(
0.0079184
0.00262437
0.0027992
0.00643636
0.00879241
0.010292
0.0110772
0.011358
0.0116241
0.0118366
0.0118416
0.0122146
0.0127069
0.0131431
0.0133289
0.0133695
0.0125018
0.0104596
0.0061032
0.00120151
0.00697068
0.00235378
0.00223622
0.00539363
0.0074774
0.00878923
0.00950272
0.0100633
0.0102298
0.0102872
0.0101782
0.0104018
0.0108426
0.0114055
0.0116174
0.0115675
0.010487
0.00867902
0.00503112
0.000882951
0.00588803
0.00214354
0.00184968
0.00456834
0.0063774
0.0073759
0.00816491
0.00851383
0.00867543
0.00858361
0.00834029
0.00871322
0.00923865
0.00960641
0.00973655
0.00987947
0.00909458
0.00712415
0.00423846
0.000301288
0.00485783
0.00177126
0.00110947
0.00378765
0.00541731
0.00599547
0.0066249
0.00697916
0.00721144
0.00720546
0.00705203
0.00752853
0.0075552
0.00785774
0.00809031
0.00788845
0.0075218
0.00603205
0.00325921
0.000494184
0.00386484
0.00138412
0.00110174
0.00306653
0.00383574
0.0050823
0.0051735
0.00518854
0.0055913
0.00553921
0.00546082
0.00588709
0.00607922
0.00649753
0.00642046
0.00630358
0.0057105
0.00447965
0.00237917
0.000104904
0.00306202
0.00115814
0.000565686
0.00222565
0.00285198
0.00335652
0.00383257
0.00409791
0.00414029
0.00396962
0.00420562
0.00380848
0.00409653
0.00456767
0.00456418
0.00451871
0.00419359
0.00328416
0.00159421
0.000411942
0.00186759
0.000700298
0.000630417
0.00118837
0.00185571
0.00220312
0.00220716
0.00245458
0.00235299
0.0026223
0.00239251
0.00239299
0.00247534
0.00278847
0.00256222
0.00290268
0.00283038
0.00182421
0.00107764
1.47652e-05
0.000627202
0.000110429
6.72744e-06
0.00022383
0.00083273
0.000706946
0.000893091
0.00102327
0.000984288
0.00088169
0.000375298
0.000955443
0.000982323
0.000811979
0.000881733
0.000883384
0.000952974
0.000491923
0.000216357
4.77746e-05
0.00765373
0.00226235
0.00281931
0.0060399
0.00841214
0.0094611
0.0101725
0.0102606
0.0103435
0.0103339
0.0103354
0.0108138
0.0112867
0.0120067
0.0124369
0.012647
0.0120914
0.0100044
0.0059676
0.0011995
0.00685304
0.0020464
0.0022988
0.00511002
0.00722555
0.0082956
0.00874268
0.00909069
0.00908309
0.00900533
0.00914499
0.00923748
0.0096753
0.0103849
0.0108664
0.0107047
0.0101118
0.00808725
0.00468659
0.000759279
0.00572957
0.00192821
0.00177929
0.0045329
0.00618693
0.00694216
0.00739122
0.00751852
0.00750534
0.00765397
0.00772402
0.00779753
0.00829621
0.0089315
0.00902579
0.00930269
0.00860876
0.00670771
0.00396399
0.000293501
0.0050633
0.00181716
0.0012119
0.00354012
0.0051312
0.00576716
0.00601092
0.0062809
0.00643299
0.0063224
0.00634105
0.00643777
0.00675592
0.0070629
0.00710684
0.00761302
0.00680273
0.00556069
0.00302464
0.000244599
0.00391808
0.00147061
0.00128654
0.00256501
0.00396941
0.00459466
0.00493007
0.00463662
0.00516145
0.0048158
0.00481116
0.00518614
0.00533144
0.00557893
0.00580799
0.00605498
0.00546962
0.00417599
0.00224955
9.3818e-05
0.0027443
0.000957821
0.000910217
0.00203697
0.00274817
0.00325643
0.00334631
0.00370363
0.00356981
0.00377417
0.00351306
0.00381486
0.003717
0.00426941
0.00429322
0.00431169
0.00409517
0.00322813
0.00163432
0.000181048
0.00174625
0.000901268
0.000506641
0.00129817
0.00170098
0.00206952
0.00215538
0.00213557
0.00222625
0.0020529
0.00237503
0.00241709
0.0023071
0.00258245
0.0024361
0.00276962
0.00240325
0.00178162
0.00091847
4.95057e-05
0.000590804
0.000316385
0.0003363
0.000519173
0.000363917
0.000960411
0.000915984
0.000934241
0.000973078
0.00068326
0.000850969
0.000664894
0.000621893
0.000934575
0.000813578
0.000748994
0.00097768
0.000478278
0.000408602
0.000159256
0.00767784
0.00224699
0.00240431
0.0058306
0.00759372
0.0087779
0.00884092
0.0088368
0.00839915
0.00845495
0.00838496
0.00850027
0.00931534
0.0101069
0.011017
0.0115854
0.0109316
0.00914061
0.00541995
0.000653689
0.00670713
0.0020976
0.00190844
0.00483589
0.00671809
0.00749069
0.00756246
0.00769459
0.00750382
0.00722419
0.00723757
0.00727011
0.00816261
0.00852398
0.00942165
0.00968583
0.00939712
0.00757054
0.00434081
0.000179575
0.00583915
0.0020366
0.00161778
0.00385061
0.00570955
0.00630439
0.00657205
0.00654311
0.00636087
0.00616162
0.00598055
0.00617678
0.00664256
0.0075027
0.00797009
0.00826167
0.0076605
0.00621285
0.00327498
0.000178725
0.00455959
0.0016776
0.00135709
0.00322534
0.00447104
0.00512918
0.00547662
0.00554737
0.00514211
0.00490982
0.00515477
0.00517823
0.00561075
0.00599177
0.00639094
0.0068131
0.00654344
0.00509402
0.00274021
0.00019232
0.00376379
0.00139682
0.000702225
0.00245946
0.00361171
0.00404474
0.00403932
0.00438803
0.00426567
0.00388054
0.00377534
0.00408315
0.00418586
0.0046861
0.00488666
0.005351
0.00495078
0.00383517
0.0019173
3.32339e-05
0.0027932
0.00107344
0.000680828
0.00152553
0.00262266
0.00290772
0.00307533
0.00335136
0.00309815
0.0029818
0.00299597
0.00292712
0.00320868
0.00315632
0.00371134
0.00395519
0.00359692
0.00290569
0.00143159
4.63722e-06
0.00160798
0.000779325
0.000454528
0.00113784
0.00137606
0.00198805
0.00195969
0.00196948
0.00167778
0.00143816
0.00180519
0.0020919
0.00217294
0.00209117
0.00198779
0.0024124
0.00209594
0.00174546
0.000758225
0.000121514
0.000392351
0.000300058
0.00015341
0.000414319
0.00048478
0.000580982
0.000713238
0.000755885
0.000652524
0.000734963
0.000656481
0.000506237
0.00080475
0.000746876
0.000739991
0.000819006
0.000924044
0.000637339
0.000172585
8.1311e-05
0.00780945
0.00241624
0.00190988
0.0048498
0.00673906
0.00755917
0.00755351
0.00731688
0.00646694
0.00605568
0.00566945
0.00596782
0.00691982
0.00777184
0.0089223
0.00983944
0.00959789
0.00772434
0.00419605
0.000229852
0.0068769
0.00249272
0.00170896
0.00450552
0.0059846
0.00633006
0.00644633
0.00612781
0.00552256
0.00505811
0.00513106
0.0053244
0.0058457
0.00677006
0.00774111
0.00845509
0.00812305
0.00663605
0.00349445
0.000190746
0.00600298
0.00223545
0.00130362
0.00369895
0.00496809
0.00533089
0.00556557
0.00539577
0.00475081
0.00455501
0.00427873
0.00436161
0.00492452
0.00552233
0.00637534
0.00708909
0.00707913
0.00527878
0.00276911
0.000637828
0.00476326
0.00193389
0.00100318
0.00309059
0.00387818
0.00456324
0.00448106
0.00405309
0.0038259
0.00360834
0.00359195
0.00329063
0.00415542
0.00450605
0.00556188
0.00578754
0.00557013
0.00405278
0.00205679
0.000359628
0.0037288
0.00147118
0.000493269
0.00217541
0.00310682
0.00365815
0.00366061
0.00328393
0.00325992
0.00303905
0.00257416
0.00279615
0.00312534
0.00361214
0.00432301
0.00432251
0.00399661
0.00314469
0.00148291
0.000600276
0.00291964
0.00137788
0.000355787
0.00152088
0.00225838
0.00256992
0.00255279
0.00250102
0.0024537
0.00216574
0.00201493
0.00203274
0.00222897
0.00229442
0.00304063
0.00289599
0.00292357
0.00227044
0.00130403
0.000576381
0.00171232
0.00102275
0.000109588
0.000906386
0.00152028
0.0016764
0.00158931
0.00175687
0.00137542
0.00116102
0.000923818
0.00123872
0.00127719
0.00159399
0.00196555
0.00170284
0.00173459
0.0013909
0.000344237
0.000237951
0.000622435
0.000219337
0.000169218
0.000441219
0.000504827
0.000662326
0.000493364
0.000357155
0.000243138
0.000440552
0.000465926
0.000458062
0.000296231
0.000476529
0.000963397
0.000616005
0.000645344
0.000208924
0.000233295
3.36455e-05
0.00765192
0.00305989
0.0013061
0.00424547
0.00581069
0.00633467
0.00574226
0.00498703
0.00415896
0.00360325
0.00305503
0.00329134
0.00445417
0.0055395
0.00684684
0.00770942
0.00771028
0.00622861
0.00306871
0.00114062
0.0067988
0.0027319
0.0010054
0.00365166
0.00501137
0.00545777
0.00524019
0.00451715
0.00354104
0.00291094
0.0027381
0.00292014
0.0035543
0.00445146
0.0057229
0.00664929
0.00651635
0.00504166
0.00224154
0.00156928
0.00622824
0.00276503
0.000790424
0.00316737
0.00427387
0.00447605
0.00404316
0.00386954
0.00300582
0.00259796
0.00221018
0.00235392
0.00299068
0.00414662
0.00474634
0.00549349
0.0054181
0.00418192
0.00176386
0.0014023
0.00522818
0.00241739
0.000516264
0.00234685
0.00330128
0.00373055
0.00367534
0.0032699
0.0024188
0.00187963
0.00177882
0.00177575
0.00240864
0.0034407
0.00412397
0.0045304
0.00434777
0.0035203
0.00112647
0.00136173
0.00407695
0.00187681
0.000323488
0.00183157
0.00274758
0.00286429
0.00267325
0.00251772
0.00192157
0.00139072
0.00129603
0.00136095
0.00182608
0.00252383
0.00316668
0.0034764
0.00345349
0.00246748
0.000600773
0.000920412
0.00302326
0.00150802
0.000147619
0.0012764
0.00193754
0.00199822
0.0021101
0.00181653
0.0012566
0.00118805
0.000903368
0.00080589
0.00129808
0.00177863
0.00206442
0.00251817
0.00227042
0.00186268
0.000330347
0.000699368
0.00174981
0.000659398
0.000159839
0.000849056
0.00105889
0.00120793
0.00116314
0.00065781
0.000823688
0.000682058
0.000473102
0.000867275
0.00103764
0.00105687
0.00152071
0.00137701
0.0016131
0.00127103
0.000279268
0.000449828
0.000728642
0.000238714
8.56682e-06
0.000223239
9.96527e-05
0.000484307
0.000340604
0.000370954
0.000192174
0.00011351
0.000323247
0.000178628
0.000192071
0.000328134
0.000495629
0.000558103
0.000496188
0.000396957
6.46554e-05
0.000127621
0.00817987
0.00356955
0.000666399
0.00349323
0.0046234
0.00472004
0.00440401
0.00314409
0.00183017
0.00112622
0.000438791
0.000706654
0.00173336
0.00316292
0.00468566
0.00587361
0.0060084
0.00448477
0.00139854
0.00246517
0.00704707
0.00308039
0.000103681
0.00290153
0.00396489
0.00428664
0.00356783
0.00274441
0.00157746
0.000711671
0.000621824
0.000461379
0.00137986
0.00267427
0.00395255
0.00489559
0.0049126
0.00361176
0.000909061
0.00252544
0.00639494
0.00275682
0.00013414
0.0024566
0.00328829
0.00365046
0.00306216
0.00241732
0.00150999
0.000474836
0.000490689
0.000334995
0.000976228
0.00215927
0.00310864
0.00404888
0.00382305
0.00306424
0.000712407
0.00240209
0.00534717
0.00250743
0.000118766
0.0017259
0.00267679
0.00280051
0.00270826
0.00180701
0.00118874
0.000406895
1.60388e-05
0.000134625
0.000863113
0.00159325
0.00256128
0.00307345
0.00300081
0.0021231
0.000148186
0.00212273
0.0043461
0.00207702
1.09536e-06
0.00187156
0.0021341
0.00226101
0.00178457
0.0016584
0.00091242
0.000396091
1.42783e-05
0.000115418
0.000645464
0.00155518
0.00214478
0.00240777
0.00240822
0.00170542
6.91697e-05
0.00159124
0.00266495
0.00152246
6.93584e-05
0.000827436
0.00147503
0.00159637
0.00124089
0.00119411
0.000587235
0.000277656
9.01641e-05
9.0983e-05
0.000229452
0.0010384
0.00169547
0.00180045
0.00173079
0.00129767
0.00012489
0.00141741
0.00197058
0.00123951
2.19335e-06
0.000721661
0.000970006
0.000891373
0.000970622
0.000811654
0.000325983
0.000101451
9.55563e-05
0.000253589
0.00028113
0.000655093
0.000770002
0.000982931
0.000928413
0.000646339
4.22623e-05
0.0007388
0.000640511
0.000308611
8.01614e-05
0.000341757
0.00012443
0.000352091
0.00010251
0.000174437
6.87876e-05
9.49462e-05
0.000244166
8.74889e-06
0.000224694
0.000105465
0.000256121
0.000234194
0.000385164
0.000254296
0.000227176
0.000542089
0.00854387
0.00414679
0.00016323
0.00250111
0.00351187
0.00364199
0.00270028
0.001524
0.000136132
0.0013012
0.00201543
0.00173185
0.000839929
0.000755815
0.00262685
0.00375063
0.0040234
0.00291405
0.000107757
0.0038389
0.00767833
0.0038076
0.00041599
0.00210517
0.00275519
0.00291656
0.00234229
0.00112104
1.78505e-05
0.00115035
0.00165483
0.00161062
0.000738305
0.00064221
0.00206697
0.00324267
0.003316
0.00212089
0.000458974
0.00326887
0.00641563
0.00331279
0.000258487
0.00185982
0.00255519
0.00265225
0.00206459
0.000972487
6.70971e-05
0.00101179
0.00147701
0.00150854
0.000822821
0.000487196
0.00182376
0.00216627
0.00241908
0.00170753
0.000681086
0.00319706
0.00539763
0.00286098
0.000340526
0.00118331
0.00215419
0.00218549
0.00150991
0.00100179
0.000103183
0.000772308
0.00144211
0.000995847
0.000717292
0.000156445
0.0010824
0.00201651
0.00193657
0.00129224
0.000611755
0.0028819
0.00426967
0.00225306
0.00036722
0.000998675
0.00172355
0.00180691
0.00123206
0.000848254
6.76152e-05
0.000699826
0.00113304
0.00108037
0.000541469
0.000309328
0.000784279
0.00136093
0.00129068
0.000854207
0.000746394
0.00228276
0.00315651
0.00151451
0.00024519
0.000751031
0.0010859
0.00118167
0.000804986
0.000372856
4.62131e-06
0.000483922
0.000856458
0.000793654
0.000482367
0.000163508
0.000462311
0.000903625
0.00101709
0.000593987
0.00046182
0.00187684
0.00184578
0.00109671
0.000259735
0.000489984
0.00056099
0.00077602
0.000451329
0.000443366
2.394e-05
0.0004683
0.000572642
0.000659575
0.000380805
0.000224594
0.000430431
0.000588539
0.000678325
0.000383019
0.000441152
0.00114732
0.000584552
0.00047398
3.10985e-05
0.000221089
0.000226344
0.000184415
0.00015335
0.000243946
0.000162657
0.000320528
0.000252365
0.000317025
0.000179441
7.72351e-05
0.000208772
0.000378892
5.14921e-05
6.86818e-05
0.000180672
0.000490208
0.00871093
0.00444588
0.000517138
0.00182213
0.00258655
0.00250379
0.00157116
4.7434e-05
0.00164025
0.00324244
0.00391217
0.0039583
0.00270084
0.00112622
0.000886355
0.00207914
0.0022398
0.00112381
0.00161971
0.00500517
0.00769321
0.00395887
0.000775412
0.00136966
0.00230052
0.0022457
0.00136637
3.10266e-05
0.00157242
0.00296174
0.00395405
0.00364707
0.00256788
0.0011333
0.000620158
0.00159602
0.00154142
0.000848729
0.00167268
0.00433813
0.00650422
0.00357266
0.000923372
0.00111732
0.00181434
0.00186061
0.00115551
1.57431e-05
0.00120175
0.00264073
0.00317944
0.00316607
0.00220113
0.000915404
0.000463634
0.00136511
0.000950616
0.000617975
0.00153651
0.00407421
0.00551941
0.00323239
0.000455084
0.000856533
0.00154627
0.00131641
0.000705633
2.63089e-05
0.00117344
0.00226198
0.00263181
0.00254597
0.00183377
0.000887683
0.000121549
0.000943392
0.000939572
0.000135966
0.00148211
0.00357224
0.00452116
0.00243604
0.000744899
0.000761923
0.00116616
0.00105551
0.000781995
0.000141394
0.00108931
0.00163839
0.00218025
0.00206535
0.00173129
0.000692829
0.000179717
0.000659977
0.000592362
4.45381e-05
0.00128081
0.00275887
0.00327067
0.00200497
0.000459121
0.000348114
0.00107667
0.000726092
0.000621077
0.000217427
0.000855869
0.00130211
0.00166547
0.00123077
0.00108806
0.000553158
0.000220089
0.000180262
0.000501868
5.48476e-05
0.0012051
0.00204773
0.00212668
0.0010437
0.000386162
0.000147143
0.000257407
0.000360946
0.000255407
4.70735e-05
0.000523906
0.000780708
0.00101381
0.000997582
0.000770717
0.000462967
2.58389e-05
0.000320367
0.000414469
9.01153e-05
0.000792888
0.00121562
0.000676659
0.000298225
9.96821e-05
0.000133459
0.000147582
3.4226e-05
0.000136102
0.000292169
0.000134432
0.000188279
0.000385552
0.000465663
0.000217226
0.000242676
0.000116005
3.50936e-05
5.85172e-05
4.58876e-05
0.000332376
0.00034392
0.00859322
0.00454263
0.00103771
0.00131626
0.00192695
0.0019037
0.000652034
0.00106133
0.00291538
0.00442449
0.00552163
0.00519139
0.00445033
0.00234878
0.000814254
0.000682638
0.0010573
5.08474e-05
0.00259684
0.00591258
0.00760056
0.00406499
0.00117975
0.000957481
0.00189633
0.00136406
0.000641057
0.00104246
0.00272133
0.00413527
0.00492779
0.00479214
0.00390863
0.00223734
0.000866883
0.000358523
0.000664284
0.000345009
0.00281908
0.00554053
0.00642391
0.00356041
0.000828432
0.000707544
0.00146602
0.00135029
0.00067519
0.000829929
0.00239532
0.00354174
0.00428763
0.00419029
0.00337115
0.00215488
0.000803012
2.87715e-06
0.000206724
0.000671298
0.00249091
0.00496265
0.00549896
0.00312706
0.000997451
0.000526408
0.00109128
0.000936021
0.000377753
0.000750577
0.00180228
0.00276625
0.00367232
0.003592
0.00294178
0.00201421
0.000954054
8.09517e-05
7.35788e-06
0.000611205
0.00216215
0.00401752
0.00424723
0.00256555
0.000819548
0.000357787
0.000896268
0.00073652
0.000227236
0.000658652
0.00160649
0.00250053
0.00284526
0.00278979
0.00227303
0.00146252
0.000518435
1.13471e-05
7.11857e-06
0.0006388
0.00166293
0.00319768
0.00309365
0.00191525
0.000521859
0.000126128
0.000376717
0.00041822
0.000101981
0.000579111
0.00131691
0.00183284
0.0021954
0.00214114
0.00159276
0.00101191
0.000713559
8.73052e-05
0.000176385
0.000735432
0.001516
0.00250276
0.00206779
0.00104758
0.000666205
0.000339883
0.000265113
0.000366957
0.000152939
0.000396951
0.000780845
0.0009279
0.00142628
0.00117104
0.00116045
0.000679818
0.000220949
2.34352e-05
0.000125
0.000389184
0.00078828
0.0015584
0.000582392
0.000362793
0.000275542
1.88357e-05
0.000232674
0.000393534
8.65104e-06
1.15834e-05
0.00030822
0.000392435
0.000352682
0.000379395
0.000667807
5.26756e-05
0.000105895
0.00017954
5.44239e-05
0.000207484
0.000403482
0.000490909
0.00797825
0.00452995
0.00103576
0.00120904
0.00174003
0.00161973
0.000505565
0.00122482
0.00363132
0.00531709
0.00637224
0.00638421
0.0052899
0.00342773
0.00123599
0.000351712
5.29086e-06
0.000957353
0.00336833
0.00640625
0.00725392
0.00398034
0.00106034
0.000834517
0.00157822
0.00115308
0.000332046
0.00139879
0.00326464
0.00472778
0.00559192
0.0055564
0.00473501
0.00331083
0.00156274
0.00060723
0.00037455
0.00118995
0.00332447
0.00572268
0.00632563
0.00350896
0.00101407
0.000465298
0.00104362
0.00125445
1.46372e-05
0.00113611
0.00269984
0.00404064
0.00500507
0.00498088
0.00398195
0.00298515
0.00150243
0.000608071
0.000386729
0.00130243
0.00303188
0.00540406
0.00508364
0.00293063
0.00101551
0.000480757
0.000993114
0.000623404
2.49662e-05
0.000959058
0.00231808
0.00329879
0.00400115
0.0041246
0.00324282
0.00240706
0.00133046
0.000360017
0.000531862
0.00115417
0.00284234
0.00434674
0.00406627
0.00263724
0.000834301
0.000256339
0.000850668
0.000472877
0.000104971
0.00087375
0.00202837
0.00308486
0.00350508
0.00305681
0.00254874
0.00208571
0.00115067
0.00059777
0.000571625
0.00113352
0.00232175
0.00348584
0.0029075
0.00170428
0.00027909
3.16344e-05
0.000521777
0.000263472
5.648e-05
0.000624705
0.00134537
0.00170612
0.0025916
0.0023941
0.00200712
0.00169503
0.000615416
0.000430673
0.000300974
0.000693046
0.00174023
0.00267456
0.00193135
0.00107599
0.00040179
9.16573e-05
0.000105452
6.34031e-05
9.64108e-05
0.000511975
0.000456585
0.0014769
0.00146713
0.00149706
0.0013585
0.000872505
0.000463134
0.000496522
0.000299473
0.000425943
0.0011724
0.00173149
0.00077738
0.000196214
0.000171289
6.77636e-06
2.57277e-06
4.36561e-05
0.000130404
0.000216672
0.000372942
0.00040928
0.000424307
0.000565592
0.000356719
0.00034245
0.000143482
0.000118721
4.20998e-05
0.000366126
0.000568493
0.000418879
0.0072453
0.00369923
0.000614354
0.0013543
0.00200429
0.00167613
0.000559807
0.00119114
0.00355641
0.00525848
0.00627375
0.00628358
0.00525189
0.00373476
0.00205729
0.000506488
0.000567037
0.00153863
0.00365533
0.00636851
0.00633201
0.00351593
0.000701021
0.00117116
0.00176347
0.00122971
0.000474727
0.0010459
0.00315585
0.00479447
0.00566144
0.00554743
0.00464102
0.00332185
0.00184001
0.000753786
0.000716352
0.001649
0.00339552
0.00585852
0.0056755
0.00315654
0.000666591
0.000980354
0.00148062
0.00113095
0.000357699
0.000963081
0.00254422
0.00421633
0.00477683
0.00484279
0.00401953
0.00295846
0.00180978
0.000931966
0.000573135
0.00168987
0.00336675
0.00527783
0.00451655
0.00271087
0.000475044
0.000592877
0.00109105
0.000968886
0.000238602
0.00107983
0.00205122
0.00345548
0.00385282
0.00422142
0.00340415
0.00258376
0.00161417
0.000863447
0.000717962
0.00152792
0.0027372
0.00448005
0.00388896
0.00210365
0.000887602
0.000426782
0.00116111
0.000562192
0.000173168
0.000938834
0.00183343
0.00271584
0.00311523
0.00314156
0.00273703
0.0020026
0.00137331
0.000569554
0.000688927
0.00113772
0.00247888
0.00373231
0.00280584
0.00162389
0.000620419
0.00030137
0.000838384
0.00067585
0.000157386
0.000643499
0.00139224
0.0020552
0.00258461
0.00259829
0.00209703
0.00153884
0.000989544
0.00076212
0.000590929
0.00074014
0.00180378
0.00271538
0.00152946
0.000798997
0.000338769
0.000231273
0.000349315
0.000351557
0.000188485
0.000574393
0.000869664
0.00121932
0.00145398
0.00157104
0.00142768
0.000980777
0.000793306
0.000271964
0.000327468
0.000440563
0.00112789
0.001616
0.000724189
0.000225557
7.23527e-06
3.78668e-05
0.000203026
9.99214e-05
6.15837e-05
0.000157826
0.000279439
0.000558914
0.000598974
0.000498312
0.000598068
0.00032579
0.000146386
0.000125029
0.000109766
0.000304705
0.000363968
0.000625168
0.0059882
0.00251522
0.000180344
0.00225673
0.00282372
0.00249593
0.0010149
0.000768434
0.00285754
0.00426982
0.00547867
0.00539349
0.00444826
0.0029886
0.00148288
0.000457926
0.000388646
0.00133228
0.00351224
0.00639102
0.00530872
0.00257991
0.000220222
0.00193775
0.00252742
0.00202942
0.000977123
0.000664942
0.00247269
0.00378811
0.00466309
0.00477943
0.004125
0.00277779
0.00162928
0.000784326
0.000615397
0.00139728
0.00319673
0.00572047
0.00467357
0.00228227
7.36095e-05
0.00136295
0.00195404
0.00167551
0.000704077
0.00064644
0.00213306
0.00343513
0.00438217
0.00429341
0.00356181
0.00284417
0.0016093
0.000620454
0.000731977
0.00145536
0.00314826
0.00495827
0.00390491
0.00179578
0.000176291
0.00117944
0.00148829
0.00125542
0.000559577
0.000298339
0.00179632
0.00315477
0.00355551
0.00408734
0.00299998
0.00261234
0.00139179
0.00089928
0.000695786
0.00122479
0.0026351
0.00449221
0.00315041
0.00156437
0.000112003
0.000845591
0.00130266
0.00121485
0.000611257
0.000370901
0.0014809
0.00266556
0.00267718
0.00280175
0.00257719
0.0019669
0.001187
0.000756257
0.000687271
0.00112809
0.00230496
0.00364569
0.00242755
0.00113001
9.04664e-05
0.000735034
0.000932448
0.000795386
4.37583e-05
0.000581183
0.00117088
0.00177319
0.00217948
0.00213817
0.00170236
0.0013211
0.000935333
0.000518204
0.000437588
0.00105411
0.00177368
0.00254372
0.00164772
0.000762286
0.000173255
0.000360624
0.000647604
0.000604433
0.000258371
0.00038988
0.000765705
0.00103522
0.00129703
0.00136126
0.0012506
0.00103208
0.000692511
0.000232342
0.000380447
0.000810404
0.00123372
0.00156999
0.00048234
0.000196012
0.000296802
2.15778e-05
3.88254e-05
8.07705e-05
9.07489e-05
8.77197e-05
0.00011831
0.000165566
0.000387402
0.000449916
0.000361217
0.000569849
4.77026e-05
3.35769e-05
0.000156469
0.000262067
0.000426454
0.00076075
0.00440022
0.00117443
0.0018898
0.00338783
0.0037271
0.00346782
0.00225235
0.00074876
0.00118426
0.00286317
0.00390835
0.00406517
0.00313865
0.00196025
0.000645022
0.000292625
0.000136509
0.000745971
0.00295804
0.00517924
0.00396575
0.00113612
0.00149867
0.00307747
0.00350743
0.00316293
0.00200768
0.00033995
0.00112205
0.00257419
0.00338209
0.00362474
0.00273689
0.00174312
0.000738266
2.66926e-05
9.7576e-05
0.000961778
0.00257739
0.00499596
0.00361034
0.00135202
0.000895362
0.00245162
0.00281493
0.00281885
0.00174578
0.000494245
0.00104085
0.00221269
0.00318637
0.00324532
0.00270132
0.00178124
0.000809775
0.00010127
0.000298817
0.00104869
0.00265114
0.00463038
0.00302934
0.00118087
0.000565756
0.00184535
0.0023045
0.00195968
0.00137933
0.000181762
0.000869245
0.00188511
0.00243142
0.0028063
0.00220772
0.0015696
0.000582944
0.000238738
0.000347223
0.00094839
0.0023172
0.00368862
0.00239485
0.000895548
0.000687983
0.00141618
0.00164771
0.00170409
0.00104716
0.000389059
0.000613293
0.00154416
0.00222395
0.00223014
0.00186805
0.001114
0.000824273
0.000432624
0.000362442
0.000798792
0.00181904
0.00332181
0.00178389
0.0007407
0.000536149
0.000935275
0.00143057
0.00134334
0.000589595
0.000195596
0.000689954
0.000979519
0.00160889
0.00155772
0.00127134
0.00102456
0.000359709
0.00024468
0.000418429
0.000603114
0.00142991
0.00218794
0.00133703
0.000680979
0.000134023
0.000744075
0.000710669
0.000639952
0.000639517
0.000279684
0.000163548
0.000600657
0.000975743
0.00114557
0.00064696
0.000509598
0.000104262
0.000151324
0.00021061
0.000438579
0.000934097
0.00137899
0.000576864
0.00018643
0.000253778
0.000226232
0.000299529
0.000217719
0.000153528
0.00012496
3.07567e-05
0.000146557
0.000545579
0.00037861
0.000155888
0.000161762
7.14889e-05
0.00013645
2.46429e-05
4.32877e-06
0.000362886
0.000568271
0.00261082
0.000771637
0.00335516
0.00498566
0.005516
0.00511372
0.00426063
0.00246103
0.000940116
0.000791278
0.00146924
0.00177923
0.00100615
0.000192715
0.000915514
0.00167452
0.00127631
0.000533712
0.00158604
0.00389759
0.00243766
0.000568207
0.00268013
0.00440566
0.00489184
0.0043943
0.00350232
0.00213875
0.000807598
0.000666903
0.00142119
0.00173006
0.000928781
0.000444376
0.000465448
0.00111109
0.000883934
7.21444e-05
0.00189225
0.00377371
0.00188034
0.000227818
0.00231519
0.0036413
0.00418137
0.00391607
0.00277798
0.00186185
0.000452664
0.000692611
0.00162154
0.00167981
0.00102538
0.000419342
0.000519166
0.000664375
0.000885413
9.88674e-05
0.00154881
0.0033375
0.00173182
3.69998e-05
0.00212444
0.0029361
0.00331059
0.00332737
0.00233931
0.00156873
0.0004667
0.000863973
0.00123336
0.00142246
0.000770713
0.000432277
5.5714e-05
0.000346111
0.000542978
0.000356609
0.0016247
0.00308198
0.00136667
7.7011e-05
0.00134502
0.00254632
0.00275034
0.00228348
0.00195041
0.00125948
0.00030524
0.000577324
0.00101352
0.00136478
0.000719349
0.000269097
0.000151129
0.000308388
0.000315303
7.97544e-05
0.0010018
0.00254372
0.00123219
0.000100793
0.000915079
0.00189711
0.00199028
0.00182175
0.00133976
0.000702256
0.000221219
0.000277822
0.000940223
0.000722563
0.000478325
0.000208134
2.159e-05
0.00015993
0.000243847
0.000265635
0.000892075
0.00196387
0.000632926
9.13773e-06
0.000454112
0.00115033
0.00118384
0.00104678
0.000775982
0.000309538
0.000242883
9.66307e-05
0.000280999
0.000364833
0.000460604
0.000293222
4.78492e-05
0.000182634
3.32711e-05
0.000239668
0.000828756
0.000971573
0.000207307
0.000223676
0.000257616
0.000548359
0.000615423
0.000342345
0.00021667
0.000395095
9.26019e-05
4.37734e-05
0.000113363
0.000145343
0.000146153
5.97524e-05
4.62827e-05
4.28171e-05
6.56599e-05
0.000319643
0.000184136
0.000438712
8.46933e-05
0.00308328
0.00546745
0.00729026
0.00792973
0.00751478
0.00634281
0.0049391
0.00333452
0.0023524
0.00123173
0.00121398
0.00137825
0.00226194
0.0029034
0.0035055
0.00320803
0.00215904
5.70963e-05
0.00223122
0.000177409
0.00246371
0.00469997
0.00623492
0.00687741
0.00637334
0.00533492
0.00408982
0.00293586
0.00170615
0.00112567
0.000686945
0.00102542
0.00166803
0.0024372
0.00283959
0.00258596
0.00195382
0.000222642
0.00217316
0.000153629
0.00191822
0.00374512
0.00514682
0.00567134
0.00543448
0.00484222
0.00364837
0.00243805
0.00170413
0.000914754
0.000542983
0.000956135
0.00128063
0.00168983
0.00216847
0.00197834
0.00125776
0.000185401
0.00211513
0.000337939
0.00159145
0.00344073
0.00428953
0.00472188
0.00443537
0.00390914
0.00281314
0.00216438
0.00103987
0.000506338
0.000674165
0.000694614
0.00103502
0.00157152
0.00182105
0.00151839
0.000892396
0.000390285
0.00193524
0.000366419
0.00120292
0.00268521
0.00359738
0.00367149
0.00358411
0.00306375
0.00233333
0.00167015
0.000729324
0.000594955
0.00017793
0.000670502
0.000618921
0.0010094
0.00120176
0.00106096
0.000471498
0.000479248
0.00173549
0.000128576
0.000738517
0.00171703
0.00226213
0.00264378
0.00266637
0.0021618
0.00172889
0.00105833
0.000763491
0.000209149
4.16764e-06
0.000386262
0.000547181
0.000690619
0.000990893
0.000949832
0.000408398
0.000188209
0.00118612
7.77223e-05
0.000585076
0.00128505
0.00154334
0.00178541
0.00153694
0.00121089
0.00109219
0.000925648
0.000375532
1.40755e-05
0.000246707
0.000169039
0.000278007
0.00070153
0.000724091
0.000430521
0.000326311
0.000367878
0.000668758
6.9409e-05
0.000253729
0.000203469
0.000625974
0.0005436
0.000358845
0.000489669
0.000511117
0.000290755
0.000210166
0.000149127
8.22056e-05
0.000136716
2.61005e-05
1.16451e-05
8.02395e-05
0.000346357
2.15095e-05
0.000355371
0.000383928
0.00272616
0.00556014
0.00808778
0.00971623
0.0103926
0.0101111
0.00924704
0.00784465
0.00655632
0.00523339
0.00458507
0.00425979
0.00441106
0.00513605
0.00574086
0.00570491
0.00534723
0.0044963
0.00221905
7.624e-05
0.00241725
0.00484111
0.0071116
0.00865682
0.00919862
0.00891347
0.00795789
0.00693203
0.00564807
0.00467859
0.00405584
0.00357512
0.00387554
0.00421176
0.0047694
0.00513811
0.00450996
0.00357703
0.00184444
0.000544947
0.00194729
0.00414414
0.00593005
0.00709017
0.00770185
0.00754133
0.00686302
0.00601378
0.00494856
0.00386598
0.00314606
0.00297748
0.00335171
0.00361505
0.0039765
0.00413123
0.00378864
0.00290193
0.00138351
0.000351759
0.00153702
0.0034909
0.00479795
0.00593282
0.00627456
0.00618244
0.00580966
0.00500292
0.00398407
0.00322491
0.00274762
0.00241867
0.00259688
0.00275481
0.00338983
0.0032213
0.00299568
0.0019577
0.00108901
0.000495091
0.00124609
0.00273394
0.00385983
0.00473152
0.00505638
0.00497459
0.00455759
0.00380487
0.00288667
0.00255828
0.00219616
0.00213737
0.00207144
0.0024174
0.00243503
0.00261053
0.00214331
0.00174008
0.000761459
0.000632137
0.000995432
0.00187896
0.00274961
0.00343069
0.00378079
0.00345671
0.00338803
0.00275038
0.00232922
0.00189015
0.0014781
0.00147638
0.00142842
0.00153305
0.00202588
0.00181156
0.0015625
0.00131197
0.000601251
0.000439053
0.000747982
0.00117972
0.00180368
0.00234139
0.00228978
0.00215598
0.00206177
0.00154522
0.00156645
0.00106075
0.000753096
0.00101359
0.000961353
0.00112169
0.00122745
0.00127856
0.00081306
0.00073521
0.000291572
0.000209064
0.000316775
0.000452916
0.000505088
0.000740694
0.000804102
0.000656999
0.000808447
0.000371097
0.000442781
0.00031958
0.000393403
0.00032744
0.000442241
0.00029417
0.00057557
0.00028518
0.000400492
0.00048242
1.56127e-05
7.1718e-05
0.00584806
0.00857319
0.0109705
0.0126539
0.0132935
0.0127601
0.0123279
0.0111723
0.0100936
0.00884105
0.00826012
0.00788923
0.00801566
0.00835229
0.00864686
0.00866936
0.00828958
0.00695091
0.00504767
0.00267089
0.00519889
0.00750021
0.00970415
0.0111627
0.0116018
0.0115191
0.0107308
0.00992589
0.00866126
0.00756005