/*--------------------------------*- C++ -*----------------------------------*\
| =========                 |                                                 |
| \\      /  F ield         | OpenFOAM: The Open Source CFD Toolbox           |
|  \\    /   O peration     | Version:  2212                                  |
|   \\  /    A nd           | Website:  www.openfoam.com                      |
|    \\/     M anipulation  |                                                 |
\*---------------------------------------------------------------------------*/
FoamFile
{
    version     2.0;
    format      ascii;
    arch        "LSB;label=32;scalar=64";
    class       volScalarField;
    location    "./ITHACAoutput/true/3";
    object      error;
}
// * * * * * * * * * * * * * * * * * * * * * * * * * * * * * * * * * * * * * //

dimensions      [0 0 0 1 0 0 0];

internalField   nonuniform List<scalar> 
3200
(
-7.26251
-3.75517
0.00657098
1.19581
0.322431
2.68724
2.55277
2.05686
2.99392
6.55573
1.88273
4.00973
2.8972
1.59069
3.38852
3.51314
1.30761
0.84867
0.572281
-3.6095
-1.78546
-4.22321
-1.55798
-0.331241
3.4939
2.90062
4.48421
3.43712
4.52449
4.70012
4.31851
5.90343
1.09409
0.226785
1.26025
-0.125414
2.52927
0.444491
-2.17371
-2.90474
-1.68205
0.536323
0.542223
2.74648
0.854955
2.78985
4.40353
4.71095
1.52749
2.74073
3.95955
2.31709
2.12784
2.84745
2.33043
3.19491
0.39619
-0.354569
0.401909
-1.52614
1.21102
-1.67078
-0.22053
2.05365
2.16949
0.964181
0.754997
2.01072
3.82522
2.34318
0.392788
4.09554
4.32804
0.904462
1.42781
-0.362737
1.72363
-0.238785
0.278524
0.0466527
-0.143878
-1.14199
1.42801
-0.173611
1.74849
2.61622
3.13338
2.93306
2.3176
2.09389
3.24904
2.27534
3.0977
1.61469
1.60792
-0.541211
4.37796
-1.25712
0.565243
-2.38006
-0.584287
-2.20337
-0.92636
1.3035
0.23332
2.69572
2.95303
0.81368
2.53548
-1.5132
0.540046
4.58091
1.51541
1.03679
-1.17697
1.60572
-1.18073
1.36398
2.40252
-1.58994
-1.26678
-1.39983
0.61338
-0.935645
2.59604
1.89686
-0.106442
1.68736
2.26561
1.61081
0.841929
-0.950187
0.272612
0.93296
-0.232295
0.878382
1.03494
-1.09566
1.4089
-1.21827
2.00585
-1.2743
0.450066
2.28854
-0.511831
-0.178501
0.888283
0.273063
2.12116
1.90885
-0.413224
-0.352286
1.57328
-1.36376
0.709346
0.286321
-0.416689
-0.300776
-1.33815
-0.512875
-2.12146
-2.34456
1.27293
0.321923
0.222319
3.05874
1.55317
3.03645
4.30372
3.05768
4.80951
4.61329
2.96408
2.55386
3.42526
3.78675
1.6295
-2.52184
-0.99693
-2.28776
-2.56498
0.127605
2.25718
0.368226
2.64356
0.427501
2.85991
0.0185345
2.40338
-0.0653921
-0.515318
1.05766
-0.399339
2.56516
0.266291
0.212531
0.545223
0.775702
-0.0971188
-2.2226
-2.0711
-2.94477
0.196168
2.38937
1.39661
3.26037
2.5564
2.20756
4.89416
4.75774
2.03671
1.53981
4.07757
2.08646
0.291991
-0.918117
0.548016
0.656872
-1.18533
-0.518902
-1.12987
1.60623
0.719755
3.02111
2.16357
2.53635
2.47096
2.74533
2.98316
1.81845
1.41026
1.62405
-0.213093
3.02679
3.35317
1.31274
0.260672
1.83412
-0.164225
-1.04318
-3.25454
-0.0397959
-0.00724105
1.8645
0.481512
3.12715
0.629485
0.991799
3.58086
0.264962
1.86257
2.89476
2.33404
3.30117
0.177252
1.92275
1.04605
1.13569
-1.3585
0.243018
-2.82147
0.497242
-0.983793
0.490395
1.0511
1.63686
1.20886
0.567831
2.12498
0.245628
1.67393
0.705614
1.85475
-0.666412
-0.202208
-0.0452643
1.45492
0.00272337
1.28311
-1.63626
-0.395926
1.67928
1.74398
-2.11635
-0.412631
-0.32448
2.20407
2.42214
-0.267012
0.320907
0.15776
0.54252
-0.705878
1.14938
1.3356
-0.064814
0.0779375
0.0880525
0.558704
-3.29524
0.370847
0.487342
0.21725
2.80759
0.127461
-0.291551
1.17324
2.03466
0.893987
-0.699638
-0.956875
-1.40768
-0.743401
-2.18611
-0.0437933
0.528001
0.925779
-1.11374
-0.754723
1.15367
-2.84725
-1.39305
-2.51594
2.89074
2.78789
0.680622
2.78316
2.78939
1.11692
2.12346
3.79716
1.68521
2.03616
4.24312
0.0345755
1.00476
1.12125
-0.800217
-2.44171
-4.34488
-0.152391
0.0241572
-0.603624
3.38051
0.95322
2.90655
3.33012
2.61144
2.31936
4.08425
4.63864
1.57127
2.05234
3.23101
-0.158976
1.90222
-0.247805
0.119923
-2.69685
-2.54598
-1.43975
-2.39138
-0.12527
0.218044
-0.370194
2.94503
3.04713
4.68521
2.38093
3.56478
3.86645
0.680288
3.01877
3.62081
1.84279
1.29087
1.4644
1.05433
-1.17374
-2.16253
-2.44938
-2.07996
1.21438
0.400014
3.76335
4.18136
-1.40408
3.1876
2.16484
1.4415
1.25269
0.678487
2.40605
1.30134
2.07511
2.2607
-0.178889
-1.6403
0.540291
1.17815
-0.216317
0.1222
2.08384
2.75111
2.88049
1.12672
2.25252
1.50022
2.38312
2.79719
1.56821
3.24872
1.85348
0.857546
1.18757
2.59549
0.741514
-0.382898
-0.822049
-1.19084
0.893541
-1.23405
-0.403539
-1.63869
0.977589
0.190507
0.0567789
2.1668
0.295783
0.964121
1.09122
1.95932
1.24035
-0.971232
0.0240035
2.88433
1.92797
1.00343
-0.706287
-2.20896
1.64362
0.898712
-0.580206
0.218952
-0.225146
0.523066
0.299125
-2.04893
0.575441
0.302109
2.89963
2.44715
-0.459268
0.727162
0.87602
0.375771
-0.355974
0.560817
0.282898
0.0439121
-1.73137
-0.458605
0.863106
-0.130189
0.15142
-1.28557
0.6303
-0.22131
-1.75009
2.96819
1.15738
-0.906837
0.859376
0.432544
-0.975326
-1.1253
1.00552
0.000569991
-0.678162
-0.618343
-4.77324
-3.71783
-0.364387
-0.277188
2.25824
2.77136
1.64103
3.44903
0.0655835
2.80104
4.19312
0.833113
0.851088
0.0475161
1.71176
1.31776
-0.830549
1.14249
-2.12357
-4.03811
-0.935035
0.40119
1.99691
0.147516
0.712755
-0.0373844
2.47255
-0.0860874
0.490108
0.121852
-0.288793
2.79334
-0.260528
2.2764
0.775028
-0.373226
-0.716243
1.3323
-0.0360721
-0.604024
0.834978
-0.229799
1.16098
0.628821
0.524641
2.72388
2.12341
2.45293
0.873532
2.31417
2.94732
2.84146
0.648041
-0.569724
0.0168331
0.224583
1.95868
0.50282
-1.67957
-1.27051
-1.88237
0.684941
-0.769418
1.00463
2.51515
-1.9061
0.739019
0.892837
3.5687
1.82877
2.76899
0.402555
1.62154
0.948032
2.82286
-0.316613
-0.423698
0.0603801
0.0313605
-2.75336
-2.79074
-1.39774
1.36121
0.00255069
2.46247
0.320248
3.05941
0.262437
-2.6695
2.49186
2.13084
0.456026
-0.425809
0.666908
0.456016
-0.110349
3.21435
1.89127
0.294827
-2.06333
-3.07673
1.81137
0.268749
0.0728643
0.968621
0.819499
-0.122782
-0.00430264
0.0175078
1.32844
-1.01531
0.421792
-0.19037
1.1791
1.61901
-0.643978
-0.272942
1.21142
-0.79114
-0.806242
0.73585
0.317186
0.0408973
1.70656
-0.662629
0.196339
0.104083
1.00799
2.93284
-0.854506
-0.765452
-0.921227
0.63806
-1.12405
1.23841
1.00522
1.56606
3.09509
0.345226
-1.14209
-1.43161
0.414372
-1.43821
0.804011
-0.812107
-1.31219
2.00491
0.229052
-1.32815
-0.757323
-0.710411
1.55918
1.50911
1.16318
-1.49749
1.58701
1.16522
2.42404
1.74017
0.953032
-4.91288
-4.20029
-1.36456
1.02573
0.381245
1.57106
0.234102
3.40303
0.0276748
0.91688
0.473724
1.384
0.27044
1.83767
0.84384
-0.0205842
-1.2554
-0.191533
-2.5653
-4.5011
-2.28955
-1.54223
0.288482
-0.466031
2.65825
1.19596
3.7277
1.02908
0.618383
0.711151
1.80432
2.48652
1.1301
1.95614
1.21338
1.49056
2.56493
0.467544
-1.14894
-3.61786
-3.11476
-2.38131
-0.522762
1.2256
-0.298717
2.3111
1.09527
-0.87547
2.92418
1.14304
1.03525
1.83254
2.48562
-0.510292
0.845764
0.415979
-0.42927
-0.479938
-1.21723
-3.08971
-1.38262
-3.658
0.860645
-0.391715
0.468812
0.293878
1.39586
0.0581093
-0.479435
0.759213
-0.815311
-0.394172
1.41213
-0.296174
1.52278
2.36323
0.90659
-1.39774
0.702715
-0.547748
-3.03958
-0.273122
0.152091
0.890546
-1.50316
-0.355367
-1.40212
0.457323
-1.1432
0.137613
0.0258489
0.373083
1.83031
3.11503
-1.40944
-0.0701955
1.64998
0.385758
0.872906
-0.535269
-1.92191
-1.32654
-1.24109
-2.05885
1.34941
-0.441849
0.396326
-0.992606
0.437624
1.45598
0.970794
0.179604
0.491759
1.94105
0.515356
1.13204
1.01443
2.01673
-1.55855
-0.659537
1.70878
0.37332
0.168868
1.31782
-0.541515
-0.411132
-1.0923
1.01742
-0.501543
-0.902551
2.40173
-0.0118046
-0.483671
0.00211827
-0.207257
-0.811377
1.12383
0.827734
-0.668372
1.97235
1.22301
-1.38328
0.0172268
0.267532
1.90301
0.840354
0.381683
-0.942393
1.10145
-1.00533
-0.783189
0.841306
1.24091
1.49952
1.40502
2.22914
0.369785
1.50217
-1.50621
0.972124
-4.8362
-1.33521
-2.4842
0.891255
-0.410158
0.904988
0.667419
2.1801
0.268231
-0.565351
0.0145815
0.671109
-1.24206
-0.338947
-0.617199
-1.32578
-3.69965
-0.240296
-4.65503
-3.20118
-1.99918
-0.249532
-1.80601
-0.28338
-0.279204
0.209477
2.4132
1.25597
-0.351543
-0.829353
0.79045
-0.445257
-0.0142571
-0.505155
-0.298045
-0.0476957
0.141813
0.3439
-0.419991
-0.701026
-3.38908
-1.19981
-0.683752
0.0312784
0.523713
0.378798
0.525494
2.09413
2.27475
0.873503
-0.514994
0.171033
1.46809
0.46473
-1.06187
-1.55619
0.224306
-0.185775
-1.43711
-1.49541
-0.64077
-1.82702
-1.41681
-0.0882482
2.10816
1.0114
2.21684
1.31899
1.80131
-0.409916
-1.08034
3.15826
-0.56095
0.228809
0.792876
-1.49679
-2.2794
0.813756
-0.396525
-2.14096
-3.27256
0.104883
0.257526
-0.59537
3.08488
-1.44296
0.275901
1.66455
0.503685
2.24799
-0.125414
1.59576
-0.534354
0.365892
-0.573862
0.878863
-0.63622
-0.452696
0.301474
-3.40528
-2.76798
-0.586221
-0.502796
2.00387
1.65637
0.672418
-1.56328
0.347273
0.160805
0.472732
-1.19264
-2.34161
-0.0513054
1.09897
0.585732
0.88545
1.40575
2.32191
-2.61867
0.521241
-2.01626
0.243662
-0.331259
2.18082
-0.942254
-0.109916
0.992917
-1.79782
2.22967
-1.5511
1.81439
-1.27929
1.36824
-3.67436
2.17145
0.728465
0.23787
1.70982
-0.531965
-1.19415
-0.938932
2.14129
-3.00658
-1.59843
-0.28789
1.38268
-1.00325
-0.171879
-1.42505
-0.804311
-0.0714708
-1.15926
-2.11751
0.597995
0.821882
0.716199
1.64871
0.242842
-0.626001
-0.45404
-2.62676
-1.8707
-3.40467
-0.310144
-0.626668
-1.72485
-1.27294
0.045917
-0.575162
-2.41336
-1.33088
1.19316
0.521361
-1.08874
-0.229034
-3.12695
-0.26032
-2.64922
-2.922
-3.43989
-3.76707
-1.28325
0.304789
0.574727
-0.473233
-0.953768
-0.962191
0.470255
0.535969
0.519972
-1.17209
0.436378
-2.26013
-0.569741
0.45814
-1.06217
0.691367
-0.148669
-3.12377
-3.63306
-2.36801
-1.83726
-0.764144
0.145911
2.00992
0.459555
3.67543
0.0674772
0.137399
-2.52468
-0.0824762
0.355592
-1.02587
-1.24794
-0.466274
-0.285764
-0.783922
-1.29639
-0.258543
-3.6103
-2.7789
-0.538118
-1.17997
3.40093
-0.705778
0.307146
-1.1514
2.49135
-1.40433
-0.185505
-0.131339
0.27267
1.31079
-1.24906
-0.283792
0.473591
-0.420032
-1.75132
-1.99155
-2.32315
-2.14595
-1.31364
-4.14977
1.84348
1.37996
1.15105
1.90386
-0.416218
-0.32241
0.190739
-0.114142
0.646977
0.163529
-2.05526
-0.716799
1.78886
2.74631
-0.847887
1.56698
-4.09909
0.109046
-0.535166
-0.757098
2.14323
1.83979
-1.44231
-0.27685
-1.29353
1.6598
1.43769
-1.2274
1.65771
-0.435415
0.820438
0.950144
0.958633
-0.428003
2.50783
-0.557527
0.129256
-0.358472
0.872057
-1.27272
1.24017
0.189312
0.074296
1.478
0.430579
0.699986
1.24632
-2.59012
-0.299419
-2.70635
-2.94231
-0.552203
1.67572
-0.0804451
0.547118
0.252688
-0.38562
-0.843597
0.467695
-2.25067
-2.14403
1.09176
1.58517
0.737285
0.342777
0.149456
-0.60244
-1.25715
1.92858
0.610509
-1.35389
-1.28375
1.08011
1.81895
-0.671443
-0.256749
-0.859376
-6.13434
-2.03702
-2.30553
-1.01336
-2.72017
1.49177
0.117847
0.319111
-1.25219
-0.523394
-1.75249
-2.98567
-1.24235
-0.884387
0.938564
-0.486383
-1.47626
-1.16418
-3.89873
-5.6186
-5.87294
0.370344
-0.835301
0.216828
1.41191
0.284298
-1.28867
0.13147
-2.0968
-0.17582
-0.0423026
-2.66153
-0.838738
0.50917
0.244741
0.21955
0.0363372
-1.56867
0.243711
-2.79521
-2.76062
-2.10982
-0.635105
-0.186241
0.0492293
0.558963
2.15411
2.29075
0.269058
1.13401
0.39527
-2.00799
-1.91722
-2.60286
-1.01179
-2.51765
-0.748187
0.674106
-1.47972
-1.90947
-3.91092
-0.436021
0.623578
0.558025
0.654152
1.8143
-1.84497
0.129841
-1.2722
-0.485244
0.530428
-2.85627
-1.06687
2.81598
2.08505
-1.97164
1.64443
-0.908191
-0.325888
-3.18755
-3.00147
-1.68804
0.547686
-1.28063
0.754557
-1.29048
-0.912663
0.635187
1.0588
-1.43678
-2.43377
-2.02892
-2.50907
-0.41687
-1.32386
-0.367974
0.373745
-1.13961
-1.39254
0.0206053
-1.43995
-0.535211
-0.613077
-2.35644
0.744478
0.692915
-2.06052
0.265436
0.697235
0.799083
-0.236981
0.871514
-2.54352
-0.987215
-0.337367
0.127729
0.547221
0.113756
-0.00329839
-1.05211
0.806808
-0.152227
-0.884606
-0.181635
0.771862
0.371078
-0.76791
-2.23768
0.585024
2.08918
0.826369
0.596373
-0.083546
-1.00655
0.813248
-0.312916
-2.54835
-0.930816
0.866425
-0.801026
-0.372712
0.757417
0.167696
1.26952
0.0313933
-2.20142
1.65071
-0.0793465
1.0332
-1.22221
1.63592
-0.664219
-0.421113
-2.7039
-0.66975
-1.47211
-0.135303
-0.332173
1.10335
0.160131
-3.75827
-3.4606
-2.68222
-0.0856537
-0.840717
-1.76272
-0.159453
-2.44254
-2.79509
-1.67875
-4.08939
-2.65603
-3.62562
-2.52102
-1.91746
-4.11299
-2.63074
-4.70194
-2.51537
-4.03864
-3.34085
-1.18277
-3.1669
-1.28831
-1.54159
-1.94471
1.87386
-3.14556
-2.23302
-1.36847
-2.27129
-0.256586
-2.75047
-2.13602
0.781617
-0.00786998
-1.14307
-0.763642
-1.07205
-3.33005
-2.30212
-2.80174
-1.7077
-0.383111
0.118794
-0.576901
-0.332613
0.443915
2.29681
0.501403
-0.260775
-3.08245
0.844685
-3.05913
0.726084
-0.719972
0.212157
-1.73891
-2.53089
-1.8841
-1.38924
-0.722264
-2.2093
-0.802239
0.67217
0.132254
-0.845448
-1.41902
-0.482039
-1.27073
-1.70695
-0.92248
-3.29707
-0.0549602
2.11677
0.168756
0.766627
-0.904751
-0.191217
-1.02596
-1.80041
-0.698135
-1.65688
1.53909
0.822753
-0.404106
0.809269
-1.38103
1.86413
-0.924277
-0.774553
-0.0959253
-1.66855
-2.25547
-0.249461
-0.748448
-1.83474
-1.6444
0.610506
-2.65741
-0.0814565
-1.2164
-0.0514366
-2.55729
0.737181
2.43683
-2.00273
-0.0783336
-2.55414
-2.03931
-2.89286
-1.83035
0.519687
2.7729
-0.42745
0.140787
-1.23501
-0.954147
2.25948
-1.81044
-2.10054
-0.861107
0.260721
0.778883
0.322368
0.255846
-0.382967
2.00352
0.831828
-0.335865
1.55332
0.327886
0.00426579
-0.373512
-0.0338906
-0.657067
-1.52129
-0.760968
-1.78126
-1.21298
0.91821
2.03525
-1.12434
-0.0531203
1.83314
-1.45959
-1.977
0.623532
2.18284
-0.153621
-1.21527
3.5871
0.741935
0.515734
-0.973754
2.35132
0.99462
0.91166
-0.796712
1.0499
-6.80185
-3.39646
-2.3445
-1.6469
-1.09044
-1.50024
-0.0902335
-2.38792
-1.85126
-3.05964
-3.88826
-4.79106
-2.43221
-3.74481
-1.80023
-2.2985
-4.4458
-0.391959
-3.4763
-2.9407
-4.57935
-0.80032
-1.71598
-0.0727401
0.0458066
0.235447
-0.698463
-0.212616
-0.803117
-0.226139
-0.299341
0.954194
-0.297322
-0.023382
-0.362593
-2.16762
0.429303
-2.34407
-0.433221
-3.15055
-3.38072
-2.58966
-1.58767
-1.37127
-2.65736
-0.995302
-1.64788
-1.61195
0.255016
-1.56842
-2.01911
-1.33896
0.802113
-1.12317
-1.59117
-1.66232
-1.01441
-2.5756
-1.20747
1.93852
-3.98524
0.299254
-2.19408
-1.11385
1.5149
-1.29145
-1.18335
0.411663
-2.08204
-0.926509
-2.80739
-1.56368
-0.744664
-0.573509
-0.139708
1.01434
-0.774359
-1.31368
0.137245
-0.478984
-0.150143
-0.2797
-1.46451
-0.58149
-1.44871
-1.07462
0.118803
-1.79023
-2.55649
-2.50896
1.63044
-3.53119
-1.76512
-0.806334
-2.28721
-0.994109
-0.28065
-1.017
0.68957
-2.6906
-2.19327
-0.834513
-1.10683
-1.1962
-1.70815
0.715824
-2.16135
-0.0594193
1.137
-1.91107
-0.440996
-0.588239
-1.76952
-1.93356
1.43142
-0.144779
1.25831
-0.241188
-0.872078
-1.59459
-3.34394
-0.955497
-0.370931
0.989347
2.03932
-1.44329
0.422022
1.6217
0.202758
2.45445
-0.759424
2.34667
-1.72491
-0.36471
-0.67357
0.429956
-2.06537
-0.715981
-1.34392
-0.572094
-0.0784787
-1.18017
-0.0310666
-0.542909
-0.910525
-0.563741
-0.264937
-1.81888
0.343689
1.80663
-1.56062
-1.10467
0.660367
-0.468901
1.15533
-1.69682
0.440167
-1.27935
-0.35817
0.814548
-4.95818
-2.96381
-0.590578
-0.547187
-1.16661
-0.815751
-0.985972
-1.62521
-4.32112
0.588333
-2.33894
-3.19528
-1.80817
-2.52864
-3.52973
-1.01845
-2.0712
-1.62225
-3.01557
-4.77738
-4.09963
0.337625
-3.59555
-0.367447
-0.013106
-0.0249117
-0.802349
0.27172
-1.48005
0.382593
-0.590466
-2.98666
-0.212423
-2.65356
-0.2156
-0.373335
0.0161551
-4.21853
-0.409993
-3.67771
-4.85508
-0.378784
-0.347481
-0.139917
1.09793
0.582684
-1.26069
-0.566785
0.559051
-4.14942
-2.94385
-1.29526
-1.69927
-0.447814
-2.43575
0.307015
1.0116
1.13647
-2.87358
-0.655712
-0.815475
-1.38202
-2.24178
-1.33743
-1.02594
-0.863806
-1.20141
-0.42171
-1.38193
-2.49117
-1.02086
-2.13631
-1.09234
0.412808
-0.146786
-0.537168
-2.61505
-0.136045
-1.86611
-5.07521
-1.73817
-0.886599
-1.12361
-2.84329
0.752352
-0.22504
-3.15332
-1.7741
-0.306993
-0.374233
-1.56714
-1.44186
-1.61381
-1.13602
2.50438
-0.328629
2.10187
0.994599
-1.39263
-0.39465
-1.97785
-0.0305533
-2.22486
0.625948
-1.1436
0.304819
1.48039
-0.194845
-1.24726
-1.88259
1.71341
-1.36346
-0.914116
-1.10389
-1.39584
-0.286688
-1.82188
-0.790861
-1.79635
-2.67964
-3.75302
0.468222
-0.964698
-1.67555
-0.192674
0.500445
-0.19478
-1.77422
-2.14667
-0.181064
-1.91195
-0.704504
-0.76734
-0.610555
1.36691
0.691452
0.566058
-2.21125
-2.79122
-1.69803
0.305556
2.0673
-1.83256
0.642832
0.837322
0.115552
-3.1681
-2.2576
0.424695
1.47519
-0.944259
-3.57572
-1.19333
2.83017
-1.42106
-0.485035
0.366713
-1.59216
0.821275
0.237668
-2.14513
-2.73668
-0.986821
-1.38191
-1.12683
-2.27404
-1.41843
-2.47728
-1.93516
-2.94806
-1.75186
-2.36849
-3.0273
-2.50221
-3.55193
-0.793046
-3.14326
-1.77982
-3.23158
-3.43892
-1.86481
-1.68331
-0.877156
-0.490564
-0.149467
-1.12498
0.426142
-1.10865
-0.814792
-1.55005
-3.35713
-1.25837
0.415677
-2.83173
-2.00347
-1.38737
-0.685384
-0.855114
-2.57535
-3.4154
-2.83876
-2.88885
1.06579
0.0807972
0.279242
-1.32781
1.11832
-1.79929
-0.480145
-1.18563
-2.18271
-3.51595
-1.76049
0.521707
-2.61014
-0.812283
0.984597
-0.505117
-2.50096
-3.97007
-1.17626
-1.15575
-2.08699
0.20032
1.07196
-0.949897
-0.733781
-0.174791
-1.63009
-0.864514
-0.50998
0.485079
-2.16178
1.17252
1.25469
-0.672234
-1.34351
-0.952145
-2.68284
-5.00315
-0.867722
-1.95379
-1.71769
0.855123
0.0716361
2.26241
-0.173
-1.73187
0.889987
-0.444142
-1.09323
-0.498117
-1.21622
1.17194
1.2998
0.793486
0.496339
-0.429327
-2.89393
-3.08715
1.03751
-0.513054
-0.260402
-0.269848
-0.47618
0.453673
-2.52212
0.957745
-0.435111
-3.0323
-0.407059
-0.376731
-0.673501
0.700144
-0.916003
-2.50662
-2.65879
0.905587
-0.541173
-1.40316
-2.37237
-1.20546
-0.394238
-0.789762
3.39049
-0.778585
0.0370324
-0.32166
0.476518
-0.664085
-1.28565
-1.3408
-2.62579
-0.264537
0.404966
0.0808588
0.192536
-1.17264
-0.725528
-0.514054
-2.43596
-0.106646
-0.642715
-0.121335
-0.80606
1.74179
-1.23224
0.675474
-0.803597
-0.441745
-0.921676
1.07118
1.24711
1.30226
-0.502228
-1.51329
-0.460354
0.705155
-1.81645
0.443834
-4.27063
-2.87636
-0.607149
-0.401294
0.229516
-0.260855
-1.19492
-1.67382
-0.972149
-1.382
-3.76645
-2.65246
-3.02856
-0.796853
1.22684
-1.34895
-1.07302
-0.699537
-5.09815
-4.16064
-3.46582
0.0274612
-3.378
0.25632
1.0933
-0.385954
-0.841067
-0.410622
-2.58251
0.0707527
-0.484074
-3.32779
0.428636
-1.32535
0.0369501
-0.272264
-0.212794
-1.82646
-0.47147
-4.05695
-3.11332
-0.379061
-1.97178
-1.10729
-3.09265
-1.63285
-0.748601
0.490688
-1.16495
-2.37465
-0.574303
-2.25487
-2.68297
-2.40772
-0.467081
0.722566
0.849887
-0.136761
-1.38595
-1.74261
-1.29133
-1.878
-0.300748
0.451603
-0.15303
0.514974
-1.27266
-2.86636
-0.411144
-0.471595
-1.53043
-1.67252
-0.892674
-1.25924
-0.19444
-1.84784
-0.930721
-1.09103
-2.10603
-3.06663
-1.76939
-0.287831
-1.17764
-0.20912
-2.00011
0.193208
-0.35544
-1.22715
-0.331783
0.162112
0.174452
-1.3613
-0.514983
-0.229759
-0.0450254
-1.10458
0.259293
-2.41988
-2.0028
-4.59962
-1.36851
-1.24967
0.255872
0.77114
-1.3848
0.643183
0.782208
-0.674151
-0.525873
-1.69874
0.575587
-0.461278
-0.82909
1.30346
0.540967
-1.65905
1.03768
0.33136
-2.9477
-0.0341927
0.863481
-1.54294
-1.24942
0.0643199
-0.925234
-1.05315
0.614343
-2.06487
0.73895
-0.54371
0.388392
0.0283782
-0.00512764
-0.557256
-0.47143
1.85275
0.880755
-2.5009
1.28036
-1.60302
-1.67283
-0.00706232
0.52714
-0.937184
1.09546
0.151718
-1.08164
0.964163
1.39711
-0.662477
0.982177
0.910374
-0.489669
-1.50687
1.61559
-0.104325
-0.536564
-0.139067
-2.17217
1.36136
-3.99466
-1.9932
-1.98656
-1.84198
0.756021
0.283877
-2.56481
-1.8287
-5.01284
-0.427504
-3.59965
-1.5804
-1.32004
-0.615327
-3.39276
1.315
-0.821498
-0.766325
-2.36055
-3.57647
-1.33886
-3.00034
-1.0412
-1.10382
2.47538
-1.13651
-0.46526
-0.502196
-2.31986
0.194307
-3.40174
-0.853031
-1.05933
-0.00266718
0.348248
-0.529473
-0.588417
0.805299
0.387729
-4.28816
-3.10916
-2.46321
-1.40729
-1.14174
-1.36359
-0.901336
-0.301459
-1.56997
-1.72054
0.226525
-1.80257
-1.8826
0.305846
-1.47458
-1.05317
-0.854168
2.05643
1.75941
-3.36837
-3.01591
-1.667
-1.6379
0.610346
-0.33513
0.0379889
-1.08808
-0.682097
-1.00846
0.219731
-3.16205
1.51255
-0.447553
-1.44332
-0.0993844
-1.47891
-2.79683
-1.33944
-2.6373
-2.66199
-0.819849
-0.522316
-0.18617
-1.39813
1.53925
-2.73706
2.17986
-2.22954
-1.41752
-0.266322
0.133179
-1.3075
-0.979726
-1.59035
1.62711
-1.89046
-1.37736
0.577905
-0.0757015
-1.44287
0.535664
-0.277653
0.487103
0.0592714
0.527565
2.31201
-0.103368
0.967194
-2.27738
0.234117
-0.0402332
0.20808
-1.6312
1.08776
-0.405092
1.07576
-0.988465
-0.810164
-0.0117619
-0.172302
1.55
0.401923
0.127165
-0.216262
1.20444
0.672028
0.207102
0.0343733
-0.034426
0.311804
-0.00804425
-0.368886
1.23237
-1.33797
1.1583
2.30542
-2.30901
-0.808409
-0.796782
-2.14044
0.118607
-1.87581
-0.0596262
-2.70809
-1.89199
-1.15291
1.45438
-0.917604
-0.061915
1.90967
-0.71949
-1.37759
-1.144
3.70699
1.30009
-0.347632
1.3268
-2.53224
-2.44125
0.129719
-1.51272
-1.52788
-0.582694
0.324715
-2.29625
-0.367924
-0.521443
3.39889
-1.52682
0.928986
-1.07538
-1.47872
-1.64029
-1.57718
-3.0434
-1.66201
-1.47536
-2.735
1.12033
-0.662385
-1.71399
-5.00629
-0.764578
-0.72292
0.435704
1.02552
-0.114126
-2.46034
0.533921
1.43437
0.385159
-0.309714
-1.52
0.753871
0.0432237
0.0302461
0.216004
-0.0570641
-1.43794
0.953771
-1.89702
-1.77175
0.41804
0.139524
-0.0923108
2.11904
0.545795
0.94011
-0.330647
1.10215
0.897568
-1.5893
-1.17336
-2.56829
1.5661
1.77035
-1.95223
-0.837827
-0.540021
-3.99055
-3.70709
-1.3314
0.13746
0.720087
-0.130009
1.11663
2.79143
-0.57852
-0.114883
-0.444417
-0.261037
-0.376009
-0.787736
1.43847
0.22674
-1.04307
0.179392
-0.805339
1.14913
0.0690194
0.609999
-1.68118
-0.0789719
-1.4121
0.548192
0.956888
0.38106
0.336722
0.0334644
-0.173392
-1.4075
-1.80248
-2.34555
-0.360244
-0.974279
-1.61231
2.38805
0.705617
0.674499
0.144475
-0.906351
0.514857
1.43752
-0.684387
-2.99972
-1.30101
-0.584957
-0.874006
-1.06955
-0.24031
1.49566
3.49001
-0.831716
0.0602679
1.28882
0.642824
-0.936899
-0.629309
1.56157
0.656689
-2.84835
-2.34341
1.87981
-0.106915
-0.425594
-0.315483
-1.21117
-0.0212949
-0.86113
-0.65295
0.300604
1.44283
-0.862566
-0.490609
0.275859
-1.03382
-0.158027
0.0845935
-0.1841
-0.89143
0.204
0.338361
-0.841394
-0.39837
1.38695
0.11418
0.762294
0.658189
-0.651474
0.572381
-2.16085
1.07848
-0.345283
-1.7549
0.229407
0.0366195
0.764211
0.242573
1.19026
-1.24747
-1.16547
-3.44822
-2.51086
2.02273
-1.17158
0.581475
2.25623
1.38854
1.90034
0.294263
-0.440435
-0.322037
-0.704612
-2.90104
0.286592
0.356889
0.476437
-1.18718
-1.31882
-1.42159
-1.01868
-1.60517
-2.3961
-0.161747
3.14944
0.561357
0.0929196
0.549103
-3.55226
-0.670889
-0.824874
2.46901
-0.83503
0.606462
0.01373
0.154287
2.15683
1.07028
-1.85428
-1.41332
-3.98256
-0.0557215
-0.68923
2.06586
-2.14875
0.575884
1.38416
-0.241199
2.25164
1.22238
1.59499
-0.0851123
-2.82645
-0.930223
1.14885
0.837896
-2.29319
1.42868
-0.743139
-0.481272
-2.48094
-0.660592
0.0352577
0.333005
1.46605
0.107883
2.13947
2.6044
0.133073
-0.207396
-1.69376
1.53904
1.13018
-0.837051
-0.283228
0.165807
2.70198
1.70277
0.067574
0.329925
0.888263
-0.508453
-2.91751
-1.47825
-0.302577
-0.0025078
-0.27183
-1.69133
2.8116
0.281778
1.79336
0.686612
0.347676
0.464975
0.482587
-2.37268
2.46951
0.826267
-1.45412
1.26578
-1.1065
-1.47336
-0.91175
-2.25646
-0.737298
-0.880255
-0.907267
0.0354293
2.00433
-2.04997
-0.319483
-0.47418
0.239128
1.82867
0.812115
-1.01198
1.60917
2.22668
-0.460286
0.565307
-1.06367
1.08831
-2.02977
1.95608
-0.632208
1.39892
0.355658
-0.219001
0.249449
0.754535
0.0788545
0.426657
-0.423542
-0.218071
1.57103
-0.167167
1.53498
-0.92099
0.174422
1.12841
0.537085
0.23198
0.680735
3.1303
-0.808341
-1.66385
-0.517571
0.95194
0.343844
1.68249
-1.49176
0.349843
0.141826
0.801443
0.972041
1.89567
-0.861776
-0.226553
-1.20664
-0.355243
-1.18047
-1.31805
-0.380853
1.69138
-1.19526
1.42104
1.68986
3.8654
1.95453
0.711093
1.22917
-0.158056
-0.652572
-1.06146
2.44721
-0.494092
1.3255
1.6982
0.669366
-0.0889774
-1.75166
-3.50781
0.166208
1.57588
0.473729
1.49836
0.39273
0.761239
0.0363134
0.0793344
-0.0236375
-0.189828
-0.677368
-0.235621
1.84639
0.388917
-0.601002
0.114751
1.15381
0.159517
-2.3153
0.220988
1.2442
2.70511
2.86945
1.70957
2.76227
2.41911
1.38989
0.97511
-0.619864
1.28565
-0.919987
1.94358
0.760819
1.53517
2.23216
1.79774
-0.0418378
-1.13077
0.0538285
0.418811
2.5978
-0.628492
0.985283
1.27747
2.72572
-0.341673
2.87927
1.69558
-0.490371
2.13605
1.26893
0.646251
0.494011
-0.26291
4.29251
0.671371
0.20612
-0.0150343
1.07309
-0.0819205
2.90857
-2.19551
1.07537
2.03186
0.148417
0.420504
-0.801416
1.29796
1.36985
0.235861
1.1106
-0.0190488
1.12838
2.4098
0.200206
1.93919
0.55478
0.0592697
-2.35624
1.25384
0.749403
1.98529
1.25722
-0.123589
-1.72992
2.47182
-0.567194
0.578044
0.251486
1.1354
-0.124643
0.796189
-0.0320167
1.28525
-1.15505
1.29719
0.349141
-0.862234
0.982404
-1.90503
-0.244252
-0.456152
2.8645
0.339227
-0.300064
-0.417496
-0.54585
-2.44687
-1.88737
0.587729
0.310971
-0.953473
0.185598
1.8803
0.309695
-0.0708987
1.74114
-0.0908527
0.486203
0.851087
1.0495
1.32212
-0.480445
-1.40612
-1.16599
-0.321458
-0.352377
-1.31828
-1.38696
2.02839
0.703171
-0.287213
1.58129
-1.03568
-0.728967
1.56643
-2.35867
-2.20851
1.9499
-0.821502
1.54094
2.73048
1.13746
2.95234
2.42933
5.01964
3.44794
3.37368
-0.153634
1.5678
2.67756
1.77379
3.6081
4.76151
-0.00242454
0.835571
0.120895
0.713473
-0.714002
-0.280417
1.63432
1.02406
1.18982
1.91813
3.84227
3.75484
2.44155
0.903426
2.5361
1.24705
3.42434
0.826735
0.866394
2.23823
2.21241
2.84346
2.23156
1.5391
0.241518
-0.721181
2.18585
-0.263954
0.0650294
2.94163
0.233789
2.94357
2.22034
3.66077
1.26456
1.83884
3.0556
2.24463
-1.62711
0.569476
0.964326
2.86669
1.12989
1.12422
-0.906767
0.407804
0.174008
0.0519223
0.778337
1.26862
2.17029
2.25707
0.915379
0.402404
1.61954
1.49736
1.88145
3.65005
2.65699
2.99194
1.18391
2.98969
2.44042
1.60608
-0.0898591
0.734029
0.00888749
0.561352
2.78742
1.81064
2.18885
1.02118
0.682945
1.07545
2.04389
1.96273
-0.538628
0.472544
-1.115
2.54451
-0.72148
-0.346992
-0.982635
3.13094
0.0723673
3.56533
0.777345
0.100251
0.741441
1.56315
1.02548
4.55485
3.07255
0.517845
2.80356
2.37167
1.40475
-0.857676
1.35866
1.39453
0.29884
1.03267
2.05207
1.21054
-1.98947
-0.857141
-0.433241
-1.32342
2.26876
-1.46131
2.30213
2.62046
0.675035
-0.987577
-1.70024
-0.0498109
-0.577543
0.758237
-1.81635
1.03882
-0.291846
0.750617
0.165544
-0.519966
-1.28148
-1.90233
0.194506
-2.01143
-0.716563
0.310937
-0.0708007
0.0670979
0.165227
1.20021
-0.57976
0.653582
-0.992554
-0.753827
0.890678
-0.0950194
0.00347146
0.188556
-0.282426
1.06144
0.622599
-0.753485
0.258241
0.815553
2.96514
1.56172
5.3518
3.31853
4.79291
2.865
3.03577
2.22939
2.85135
2.42973
2.07455
3.42548
1.30964
2.5045
1.71533
2.4726
0.522699
-0.138506
0.180176
1.05761
0.0045838
4.78354
0.638926
3.4695
0.355147
4.07139
0.34469
0.309377
3.18161
-0.0686102
1.64479
0.252095
3.95404
0.398726
1.08979
-0.203321
0.620572
2.00495
-0.599541
0.0988195
1.03756
3.3147
3.09993
1.52153
-0.359164
3.92925
2.74559
3.00621
3.90756
3.30244
0.773298
2.41119
2.51689
3.52909
1.34957
2.07006
0.988261
-0.89216
2.00574
2.35951
1.54167
4.85442
4.04898
2.0351
0.725413
2.98616
1.23388
1.4626
2.19593
0.879607
3.18666
0.899285
2.77095
1.6122
2.19638
0.928009
2.81804
0.262764
0.222203
2.01191
0.835447
2.19629
1.13755
2.65376
1.076
1.03985
2.13302
1.53045
2.33329
2.09392
1.43265
1.62316
3.79175
2.53692
2.22551
1.14873
0.608148
-0.247634
0.159537
0.366246
0.250681
3.32034
2.32323
0.360056
-0.037602
1.54173
0.783738
0.937217
1.26395
1.77496
0.672574
1.80028
0.134243
1.76364
2.3068
2.1211
1.46727
-1.40759
0.506043
2.19678
-0.222966
0.291667
0.966104
1.16524
2.47794
1.03262
1.18865
0.887156
1.61962
-0.84144
0.099513
1.63614
0.671076
0.339425
-0.047119
-0.914789
0.109091
0.0877333
-0.316627
1.50195
-0.713936
-1.47189
1.89455
-1.0159
0.0515875
-1.76219
0.375139
-1.69239
-0.711442
1.41306
0.755027
-0.87051
1.81746
-0.566669
-1.05624
0.0318123
0.96093
3.33371
0.881579
1.38632
4.49108
2.841
3.1363
4.40343
1.72678
3.07136
2.95026
5.30896
1.64388
1.89043
2.23601
4.1988
3.02627
0.602792
3.25118
3.03192
0.89187
-0.0934657
0.469059
1.80979
2.32056
2.44929
3.48028
3.90205
4.45655
3.10683
2.39195
3.00514
2.07536
3.5422
2.5095
4.34978
4.38837
3.9732
3.48215
2.99284
3.41745
0.89347
2.04429
1.61978
1.64115
4.26452
2.85661
4.03032
1.70284
1.50451
2.10034
4.95279
3.5666
2.39985
1.46328
2.48054
1.93625
3.95131
2.15806
2.32631
2.59946
2.35923
0.125487
0.186872
4.24089
2.01423
2.44339
0.983341
3.2185
1.4179
0.555315
1.3707
2.61377
0.976429
4.30601
2.98326
1.97768
3.60124
2.82587
4.0016
1.77375
2.11697
3.65285
2.61795
3.59697
-0.710328
2.06683
3.00028
1.25372
0.764971
2.35223
1.51868
0.828457
2.58293
1.2832
3.32955
0.998975
1.42587
1.51142
2.30367
-0.537421
0.088788
2.03677
2.49272
2.2962
0.196149
0.644388
2.97192
1.52691
1.07842
0.581591
0.447041
0.0738616
4.97675
2.81733
1.2253
2.12765
0.945082
1.01768
0.607255
1.49433
1.22294
1.10051
-1.17721
-0.77805
3.12259
-0.180659
1.06645
1.82569
3.13522
-0.706787
0.662221
1.26092
0.675464
-1.5601
1.2895
-0.475947
2.31922
1.48322
-1.3815
0.738632
0.240862
1.8078
-0.454833
2.48213
-1.29938
-2.30808
1.28445
-2.33605
2.01732
0.431321
-0.251356
1.09609
-0.225694
0.510999
1.37904
2.47053
0.241822
2.18003
1.40672
0.461852
)
;

boundaryField
{
    hotSide
    {
        type            calculated;
        value           nonuniform List<scalar> 
400
(
-6.40435
-1.2643
-1.99202
-3.92079
-4.0639
-3.99123
-1.78613
-5.29815
-2.9264
-5.97396
-4.13369
-1.32327
-3.45043
-3.175
-0.707451
-2.62562
-0.491756
0.0100914
0.0850878
4.18099
-2.83471
-1.42559
-0.47698
-2.80595
-3.29369
-0.434768
-0.977012
-1.1504
-2.58108
-2.52376
-2.09738
-1.87575
-2.01988
-1.13995
0.268724
-1.65972
0.471673
2.3966
1.11888
1.74906
0.994443
2.25873
-1.5342
0.611493
-0.396109
-1.52441
-2.45446
-1.36545
-1.75242
-1.42479
0.319585
-0.0853576
0.286738
-1.0989
1.20772
2.90279
2.57034
3.61027
1.69819