/*--------------------------------*- C++ -*----------------------------------*\
| =========                 |                                                 |
| \\      /  F ield         | OpenFOAM: The Open Source CFD Toolbox           |
|  \\    /   O peration     | Version:  2212                                  |
|   \\  /    A nd           | Website:  www.openfoam.com                      |
|    \\/     M anipulation  |                                                 |
\*---------------------------------------------------------------------------*/
FoamFile
{
    version     2.0;
    format      ascii;
    arch        "LSB;label=32;scalar=64";
    class       volScalarField;
    location    "0";
    object      Ttrue;
}
// * * * * * * * * * * * * * * * * * * * * * * * * * * * * * * * * * * * * * //

dimensions      [0 0 0 1 0 0 0];

internalField   nonuniform List<scalar> 
3200
(
331.534
331.754
332.034
332.339
332.654
332.963
333.248
333.489
333.664
333.757
333.757
333.664
333.489
333.248
332.963
332.654
332.339
332.034
331.754
331.534
327.51
327.696
327.938
328.202
328.474
328.742
328.988
329.196
329.347
329.427
329.427
329.347
329.196
328.988
328.742
328.474
328.202
327.938
327.696
327.51
323.409
323.564
323.767
323.991
324.221
324.447
324.655
324.83
324.958
325.025
325.025
324.958
324.83
324.655
324.447
324.221
323.991
323.767
323.564
323.409
319.244
319.368
319.535
319.717
319.905
320.09
320.26
320.403
320.507
320.562
320.562
320.507
320.403
320.26
320.09
319.905
319.717
319.535
319.368
319.244
315.027
315.122
315.251
315.392
315.539
315.682
315.814
315.925
316.006
316.049
316.049
316.006
315.925
315.814
315.682
315.539
315.392
315.251
315.122
315.027
310.768
310.835
310.927
311.028
311.133
311.235
311.329
311.409
311.466
311.497
311.497
311.466
311.409
311.329
311.235
311.133
311.028
310.927
310.835
310.768
306.48
306.52
306.575
306.636
306.698
306.76
306.816
306.864
306.899
306.917
306.917
306.899
306.864
306.816
306.76
306.698
306.636
306.575
306.52
306.48
302.174
302.187
302.206
302.226
302.247
302.268
302.287
302.303
302.314
302.321
302.321
302.314
302.303
302.287
302.268
302.247
302.226
302.206
302.187
302.174
331.661
331.879
332.157
332.46
332.771
333.077
333.359
333.596
333.769
333.861
333.861
333.769
333.596
333.359
333.077
332.771
332.46
332.157
331.879
331.661
327.621
327.805
328.045
328.307
328.577
328.841
329.085
329.29
329.439
329.518
329.518
329.439
329.29
329.085
328.841
328.577
328.307
328.045
327.805
327.621
323.504
323.657
323.859
324.08
324.308
324.531
324.737
324.91
325.036
325.103
325.103
325.036
324.91
324.737
324.531
324.308
324.08
323.859
323.657
323.504
319.322
319.445
319.61
319.791
319.977
320.159
320.327
320.469
320.572
320.626
320.626
320.572
320.469
320.327
320.159
319.977
319.791
319.61
319.445
319.322
315.087
315.182
315.309
315.45
315.595
315.736
315.867
315.977
316.057
316.099
316.099
316.057
315.977
315.867
315.736
315.595
315.45
315.309
315.182
315.087
310.811
310.878
310.969
311.069
311.173
311.274
311.367
311.446
311.503
311.533
311.533
311.503
311.446
311.367
311.274
311.173
311.069
310.969
310.878
310.811
306.506
306.546
306.6
306.661
306.723
306.783
306.839
306.886
306.921
306.939
306.939
306.921
306.886
306.839
306.783
306.723
306.661
306.6
306.546
306.506
302.183
302.196
302.214
302.235
302.255
302.276
302.295
302.31
302.322
302.328
302.328
302.322
302.31
302.295
302.276
302.255
302.235
302.214
302.196
302.183
331.916
332.131
332.404
332.701
333.006
333.305
333.58
333.812
333.981
334.07
334.07
333.981
333.812
333.58
333.305
333.006
332.701
332.404
332.131
331.916
327.844
328.025
328.261
328.518
328.782
329.04
329.278
329.479
329.624
329.701
329.701
329.624
329.479
329.278
329.04
328.782
328.518
328.261
328.025
327.844
323.693
323.844
324.042
324.26
324.483
324.701
324.902
325.071
325.194
325.259
325.259
325.194
325.071
324.902
324.701
324.483
324.26
324.042
323.844
323.693
319.478
319.599
319.761
319.938
320.121
320.299
320.463
320.601
320.702
320.755
320.755
320.702
320.601
320.463
320.299
320.121
319.938
319.761
319.599
319.478
315.209
315.302
315.427
315.565
315.707
315.846
315.973
316.081
316.159
316.2
316.2
316.159
316.081
315.973
315.846
315.707
315.565
315.427
315.302
315.209
310.898
310.964
311.054
311.152
311.253
311.352
311.443
311.52
311.576
311.605
311.605
311.576
311.52
311.443
311.352
311.253
311.152
311.054
310.964
310.898
306.558
306.597
306.651
306.71
306.771
306.831
306.885
306.931
306.965
306.982
306.982
306.965
306.931
306.885
306.831
306.771
306.71
306.651
306.597
306.558
302.2
302.214
302.231
302.251
302.272
302.292
302.31
302.325
302.337
302.342
302.342
302.337
302.325
302.31
302.292
302.272
302.251
302.231
302.214
302.2
332.299
332.509
332.775
333.064
333.36
333.65
333.916
334.139
334.301
334.387
334.387
334.301
334.139
333.916
333.65
333.36
333.064
332.775
332.509
332.299
328.178
328.355
328.585
328.835
329.091
329.341
329.571
329.764
329.905
329.979
329.979
329.905
329.764
329.571
329.341
329.091
328.835
328.585
328.355
328.178
323.978
324.125
324.318
324.529
324.746
324.958
325.152
325.315
325.433
325.496
325.496
325.433
325.315
325.152
324.958
324.746
324.529
324.318
324.125
323.978
319.711
319.83
319.987
320.16
320.337
320.51
320.669
320.802
320.899
320.95
320.95
320.899
320.802
320.669
320.51
320.337
320.16
319.987
319.83
319.711
315.391
315.482
315.604
315.739
315.876
316.011
316.134
316.237
316.312
316.352
316.352
316.312
316.237
316.134
316.011
315.876
315.739
315.604
315.482
315.391
311.029
311.093
311.181
311.276
311.375
311.471
311.559
311.633
311.686
311.714
311.714
311.686
311.633
311.559
311.471
311.375
311.276
311.181
311.093
311.029
306.637
306.675
306.728
306.785
306.844
306.902
306.955
306.999
307.031
307.048
307.048
307.031
306.999
306.955
306.902
306.844
306.785
306.728
306.675
306.637
302.227
302.24
302.257
302.276
302.296
302.316
302.333
302.348
302.359
302.364
302.364
302.359
302.348
302.333
302.316
302.296
302.276
302.257
302.24
302.227
332.811
333.014
333.272
333.55
333.835
334.112
334.367
334.58
334.734
334.815
334.815
334.734
334.58
334.367
334.112
333.835
333.55
333.272
333.014
332.811
328.624
328.796
329.018
329.259
329.506
329.746
329.965
330.15
330.283
330.353
330.353
330.283
330.15
329.965
329.746
329.506
329.259
329.018
328.796
328.624
324.357
324.5
324.687
324.891
325.099
325.302
325.488
325.643
325.756
325.815
325.815
325.756
325.643
325.488
325.302
325.099
324.891
324.687
324.5
324.357
320.024
320.138
320.291
320.457
320.628
320.794
320.945
321.072
321.164
321.213
321.213
321.164
321.072
320.945
320.794
320.628
320.457
320.291
320.138
320.024
315.635
315.723
315.841
315.971
316.103
316.232
316.35
316.449
316.52
316.558
316.558
316.52
316.449
316.35
316.232
316.103
315.971
315.841
315.723
315.635
311.204
311.266
311.35
311.443
311.537
311.629
311.714
311.784
311.835
311.862
311.862
311.835
311.784
311.714
311.629
311.537
311.443
311.35
311.266
311.204
306.742
306.779
306.83
306.885
306.942
306.997
307.048
307.09
307.121
307.137
307.137
307.121
307.09
307.048
306.997
306.942
306.885
306.83
306.779
306.742
302.262
302.274
302.291
302.31
302.329
302.348
302.365
302.379
302.389
302.394
302.394
302.389
302.379
302.365
302.348
302.329
302.31
302.291
302.274
302.262
333.453
333.648
333.895
334.162
334.433
334.696
334.937
335.138
335.283
335.359
335.359
335.283
335.138
334.937
334.696
334.433
334.162
333.895
333.648
333.453
329.183
329.349
329.562
329.793
330.028
330.255
330.463
330.637
330.763
330.829
330.829
330.763
330.637
330.463
330.255
330.028
329.793
329.562
329.349
329.183
324.833
324.971
325.15
325.345
325.544
325.736
325.912
326.059
326.165
326.221
326.221
326.165
326.059
325.912
325.736
325.544
325.345
325.15
324.971
324.833
320.415
320.525
320.672
320.831
320.993
321.151
321.294
321.414
321.501
321.547
321.547
321.501
321.414
321.294
321.151
320.993
320.831
320.672
320.525
320.415
315.94
316.025
316.139
316.263
316.389
316.511
316.623
316.716
316.783
316.819
316.819
316.783
316.716
316.623
316.511
316.389
316.263
316.139
316.025
315.94
311.423
311.483
311.564
311.652
311.742
311.83
311.909
311.976
312.024
312.049
312.049
312.024
311.976
311.909
311.83
311.742
311.652
311.564
311.483
311.423
306.874
306.909
306.958
307.011
307.065
307.118
307.166
307.206
307.234
307.25
307.25
307.234
307.206
307.166
307.118
307.065
307.011
306.958
306.909
306.874
302.306
302.318
302.334
302.352
302.37
302.388
302.404
302.417
302.427
302.432
302.432
302.427
302.417
302.404
302.388
302.37
302.352
302.334
302.318
302.306
334.224
334.411
334.646
334.899
335.156
335.404
335.629
335.817
335.952
336.023
336.023
335.952
335.817
335.629
335.404
335.156
334.899
334.646
334.411
334.224
329.857
330.015
330.218
330.437
330.659
330.873
331.068
331.231
331.348
331.409
331.409
331.348
331.231
331.068
330.873
330.659
330.437
330.218
330.015
329.857
325.406
325.537
325.708
325.893
326.081
326.263
326.427
326.565
326.664
326.715
326.715
326.664
326.565
326.427
326.263
326.081
325.893
325.708
325.537
325.406
320.886
320.991
321.131
321.282
321.436
321.584
321.719
321.831
321.912
321.954
321.954
321.912
321.831
321.719
321.584
321.436
321.282
321.131
320.991
320.886
316.308
316.389
316.497
316.615
316.734
316.85
316.954
317.041
317.104
317.137
317.137
317.104
317.041
316.954
316.85
316.734
316.615
316.497
316.389
316.308
311.686
311.743
311.82
311.904
311.99
312.072
312.147
312.209
312.254
312.277
312.277
312.254
312.209
312.147
312.072
311.99
311.904
311.82
311.743
311.686
307.032
307.066
307.113
307.163
307.214
307.264
307.309
307.346
307.373
307.387
307.387
307.373
307.346
307.309
307.264
307.214
307.163
307.113
307.066
307.032
302.359
302.371
302.386
302.403
302.42
302.437
302.452
302.465
302.474
302.478
302.478
302.474
302.465
302.452
302.437
302.42
302.403
302.386
302.371
302.359
335.127
335.305
335.528
335.766
336.007
336.238
336.448
336.622
336.747
336.812
336.812
336.747
336.622
336.448
336.238
336.007
335.766
335.528
335.305
335.127
330.644
330.795
330.987
331.193
331.402
331.602
331.783
331.934
332.042
332.099
332.099
332.042
331.934
331.783
331.602
331.402
331.193
330.987
330.795
330.644
326.076
326.201
326.363
326.537
326.714
326.883
327.036
327.164
327.255
327.303
327.303
327.255
327.164
327.036
326.883
326.714
326.537
326.363
326.201
326.076
321.437
321.537
321.669
321.812
321.956
322.094
322.22
322.324
322.398
322.437
322.437
322.398
322.324
322.22
322.094
321.956
321.812
321.669
321.537
321.437
316.738
316.815
316.918
317.028
317.141
317.248
317.346
317.427
317.485
317.515
317.515
317.485
317.427
317.346
317.248
317.141
317.028
316.918
316.815
316.738
311.994
312.049
312.122
312.201
312.281
312.358
312.427
312.485
312.527
312.548
312.548
312.527
312.485
312.427
312.358
312.281
312.201
312.122
312.049
311.994
307.218
307.25
307.294
307.342
307.39
307.436
307.478
307.512
307.537
307.55
307.55
307.537
307.512
307.478
307.436
307.39
307.342
307.294
307.25
307.218
302.422
302.433
302.447
302.463
302.479
302.495
302.509
302.52
302.529
302.533
302.533
302.529
302.52
302.509
302.495
302.479
302.463
302.447
302.433
302.422
336.163
336.331
336.54
336.763
336.988
337.202
337.396
337.555
337.67
337.73
337.73
337.67
337.555
337.396
337.202
336.988
336.763
336.54
336.331
336.163
331.548
331.69
331.87
332.064
332.258
332.444
332.611
332.75
332.849
332.901
332.901
332.849
332.75
332.611
332.444
332.258
332.064
331.87
331.69
331.548
326.845
326.963
327.115
327.278
327.443
327.6
327.741
327.858
327.942
327.986
327.986
327.942
327.858
327.741
327.6
327.443
327.278
327.115
326.963
326.845
322.068
322.163
322.287
322.421
322.555
322.684
322.8
322.895
322.964
323
323
322.964
322.895
322.8
322.684
322.555
322.421
322.287
322.163
322.068
317.231
317.304
317.401
317.504
317.609
317.709
317.799
317.873
317.926
317.954
317.954
317.926
317.873
317.799
317.709
317.609
317.504
317.401
317.304
317.231
312.348
312.399
312.468
312.542
312.617
312.688
312.752
312.805
312.843
312.863
312.863
312.843
312.805
312.752
312.688
312.617
312.542
312.468
312.399
312.348
307.43
307.461
307.502
307.547
307.592
307.635
307.673
307.705
307.728
307.74
307.74
307.728
307.705
307.673
307.635
307.592
307.547
307.502
307.461
307.43
302.493
302.503
302.517
302.532
302.547
302.561
302.574
302.585
302.593
302.597
302.597
302.593
302.585
302.574
302.561
302.547
302.532
302.517
302.503
302.493
337.332
337.489
337.686
337.893
338.101
338.299
338.476
338.622
338.727
338.781
338.781
338.727
338.622
338.476
338.299
338.101
337.893
337.686
337.489
337.332
332.567
332.701
332.87
333.05
333.23
333.401
333.555
333.681
333.771
333.819
333.819
333.771
333.681
333.555
333.401
333.23
333.05
332.87
332.701
332.567
327.713
327.823
327.966
328.118
328.27
328.415
328.545
328.652
328.728
328.768
328.768
328.728
328.652
328.545
328.415
328.27
328.118
327.966
327.823
327.713
322.781
322.87
322.987
323.111
323.236
323.354
323.46
323.548
323.61
323.643
323.643
323.61
323.548
323.46
323.354
323.236
323.111
322.987
322.87
322.781
317.788
317.857
317.947
318.043
318.14
318.232
318.315
318.383
318.432
318.457
318.457
318.432
318.383
318.315
318.232
318.14
318.043
317.947
317.857
317.788
312.747
312.795
312.859
312.928
312.997
313.063
313.122
313.171
313.206
313.224
313.224
313.206
313.171
313.122
313.063
312.997
312.928
312.859
312.795
312.747
307.67
307.699
307.738
307.779
307.821
307.86
307.896
307.925
307.946
307.957
307.957
307.946
307.925
307.896
307.86
307.821
307.779
307.738
307.699
307.67
302.574
302.583
302.596
302.61
302.624
302.637
302.649
302.659
302.666
302.669
302.669
302.666
302.659
302.649
302.637
302.624
302.61
302.596
302.583
302.574
338.635
338.783
338.965
339.158
339.349
339.53
339.692
339.825
339.919
339.968
339.968
339.919
339.825
339.692
339.53
339.349
339.158
338.965
338.783
338.635
333.704
333.829
333.986
334.153
334.319
334.476
334.616
334.731
334.813
334.855
334.855
334.813
334.731
334.616
334.476
334.319
334.153
333.986
333.829
333.704
328.68
328.783
328.916
329.057
329.197
329.33
329.448
329.546
329.615
329.651
329.651
329.615
329.546
329.448
329.33
329.197
329.057
328.916
328.783
328.68
323.577
323.66
323.768
323.883
323.998
324.107
324.204
324.283
324.34
324.369
324.369
324.34
324.283
324.204
324.107
323.998
323.883
323.768
323.66
323.577
318.409
318.473
318.557
318.646
318.736
318.82
318.896
318.957
319.001
319.024
319.024
319.001
318.957
318.896
318.82
318.736
318.646
318.557
318.473
318.409
313.191
313.237
313.296
313.36
313.424
313.485
313.538
313.583
313.614
313.63
313.63
313.614
313.583
313.538
313.485
313.424
313.36
313.296
313.237
313.191
307.938
307.965
308.001
308.039
308.078
308.114
308.146
308.173
308.192
308.202
308.202
308.192
308.173
308.146
308.114
308.078
308.039
308.001
307.965
307.938
302.663
302.672
302.684
302.697
302.71
302.722
302.733
302.742
302.748
302.752
302.752
302.748
302.742
302.733
302.722
302.71
302.697
302.684
302.672
302.663
340.074
340.211
340.38
340.558
340.733
340.898
341.045
341.165
341.25
341.294
341.294
341.25
341.165
341.045
340.898
340.733
340.558
340.38
340.211
340.074
334.959
335.075
335.221
335.375
335.527
335.67
335.797
335.901
335.975
336.013
336.013
335.975
335.901
335.797
335.67
335.527
335.375
335.221
335.075
334.959
329.747
329.843
329.967
330.097
330.225
330.346
330.454
330.542
330.604
330.637
330.637
330.604
330.542
330.454
330.346
330.225
330.097
329.967
329.843
329.747
324.454
324.531
324.632
324.738
324.843
324.942
325.031
325.102
325.153
325.18
325.18
325.153
325.102
325.031
324.942
324.843
324.738
324.632
324.531
324.454
319.094
319.153
319.231
319.314
319.396
319.473
319.541
319.597
319.637
319.658
319.658
319.637
319.597
319.541
319.473
319.396
319.314
319.231
319.153
319.094
313.682
313.724
313.78
313.839
313.897
313.952
314.001
314.041
314.07
314.084
314.084
314.07
314.041
314.001
313.952
313.897
313.839
313.78
313.724
313.682
308.233
308.258
308.292
308.327
308.362
308.396
308.425
308.449
308.466
308.475
308.475
308.466
308.449
308.425
308.396
308.362
308.327
308.292
308.258
308.233
302.762
302.771
302.782
302.794
302.806
302.817
302.827
302.835
302.84
302.843
302.843
302.84
302.835
302.827
302.817
302.806
302.794
302.782
302.771
302.762
341.647
341.775
341.931
342.094
342.254
342.404
342.537
342.645
342.721
342.761
342.761
342.721
342.645
342.537
342.404
342.254
342.094
341.931
341.775
341.647
336.331
336.439
336.574
336.715
336.854
336.984
337.099
337.193
337.259
337.293
337.293
337.259
337.193
337.099
336.984
336.854
336.715
336.574
336.439
336.331
330.915
331.004
331.118
331.237
331.355
331.465
331.562
331.641
331.697
331.726
331.726
331.697
331.641
331.562
331.465
331.355
331.237
331.118
331.004
330.915
325.414
325.485
325.578
325.676
325.772
325.862
325.942
326.007
326.052
326.076
326.076
326.052
326.007
325.942
325.862
325.772
325.676
325.578
325.485
325.414
319.843
319.898
319.97
320.046
320.121
320.191
320.253
320.303
320.339
320.358
320.358
320.339
320.303
320.253
320.191
320.121
320.046
319.97
319.898
319.843
314.219
314.258
314.309
314.364
314.417
314.467
314.511
314.547
314.573
314.586
314.586
314.573
314.547
314.511
314.467
314.417
314.364
314.309
314.258
314.219
308.556
308.58
308.61
308.643
308.675
308.705
308.732
308.753
308.769
308.777
308.777
308.769
308.753
308.732
308.705
308.675
308.643
308.61
308.58
308.556
302.871
302.879
302.889
302.9
302.911
302.921
302.93
302.937
302.942
302.945
302.945
302.942
302.937
302.93
302.921
302.911
302.9
302.889
302.879
302.871
343.355
343.473
343.617
343.766
343.912
344.048
344.168
344.265
344.333
344.369
344.369
344.333
344.265
344.168
344.048
343.912
343.766
343.617
343.473
343.355
337.821
337.92
338.044
338.174
338.3
338.418
338.522
338.606
338.665
338.696
338.696
338.665
338.606
338.522
338.418
338.3
338.174
338.044
337.92
337.821
332.182
332.264
332.369
332.478
332.585
332.685
332.773
332.844
332.894
332.92
332.92
332.894
332.844
332.773
332.685
332.585
332.478
332.369
332.264
332.182
326.455
326.521
326.606
326.696
326.783
326.865
326.937
326.995
327.036
327.058
327.058
327.036
326.995
326.937
326.865
326.783
326.696
326.606
326.521
326.455
320.656
320.707
320.773
320.843
320.911
320.974
321.03
321.076
321.107
321.124
321.124
321.107
321.076
321.03
320.974
320.911
320.843
320.773
320.707
320.656
314.801
314.837
314.884
314.934
314.983
315.028
315.068
315.101
315.123
315.135
315.135
315.123
315.101
315.068
315.028
314.983
314.934
314.884
314.837
314.801
308.907
308.928
308.957
308.986
309.016
309.043
309.067
309.086
309.1
309.107
309.107
309.1
309.086
309.067
309.043
309.016
308.986
308.957
308.928
308.907
302.988
302.996
303.005
303.015
303.025
303.034
303.042
303.049
303.053
303.056
303.056
303.053
303.049
303.042
303.034
303.025
303.015
303.005
302.996
302.988
345.194
345.303
345.435
345.571
345.704
345.827
345.934
346.021
346.082
346.114
346.114
346.082
346.021
345.934
345.827
345.704
345.571
345.435
345.303
345.194
339.424
339.515
339.629
339.747
339.862
339.969
340.062
340.138
340.191
340.218
340.218
340.191
340.138
340.062
339.969
339.862
339.747
339.629
339.515
339.424
333.545
333.621
333.717
333.817
333.914
334.004
334.083
334.147
334.192
334.215
334.215
334.192
334.147
334.083
334.004
333.914
333.817
333.717
333.621
333.545
327.575
327.636
327.714
327.796
327.875
327.949
328.014
328.066
328.103
328.122
328.122
328.103
328.066
328.014
327.949
327.875
327.796
327.714
327.636
327.575
321.53
321.577
321.638
321.701
321.763
321.821
321.871
321.912
321.94
321.955
321.955
321.94
321.912
321.871
321.821
321.763
321.701
321.638
321.577
321.53
315.427
315.46
315.504
315.549
315.594
315.635
315.671
315.7
315.72
315.731
315.731
315.72
315.7
315.671
315.635
315.594
315.549
315.504
315.46
315.427
309.283
309.303
309.329
309.356
309.383
309.408
309.429
309.447
309.459
309.465
309.465
309.459
309.447
309.429
309.408
309.383
309.356
309.329
309.303
309.283
303.115
303.121
303.13
303.139
303.148
303.156
303.164
303.169
303.174
303.176
303.176
303.174
303.169
303.164
303.156
303.148
303.139
303.13
303.121
303.115
347.155
347.255
347.376
347.5
347.62
347.731
347.828
347.906
347.96
347.988
347.988
347.96
347.906
347.828
347.731
347.62
347.5
347.376
347.255
347.155
341.131
341.216
341.32
341.428
341.532
341.628
341.712
341.78
341.827
341.851
341.851
341.827
341.78
341.712
341.628
341.532
341.428
341.32
341.216
341.131
334.996
335.066
335.154
335.245
335.333
335.415
335.486
335.543
335.583
335.603
335.603
335.583
335.543
335.486
335.415
335.333
335.245
335.154
335.066
334.996
328.766
328.822
328.894
328.969
329.041
329.108
329.166
329.212
329.245
329.262
329.262
329.245
329.212
329.166
329.108
329.041
328.969
328.894
328.822
328.766
322.459
322.502
322.558
322.616
322.672
322.724
322.769
322.806
322.831
322.844
322.844
322.831
322.806
322.769
322.724
322.672
322.616
322.558
322.502
322.459
316.093
316.123
316.163
316.204
316.245
316.282
316.314
316.34
316.358
316.368
316.368
316.358
316.34
316.314
316.282
316.245
316.204
316.163
316.123
316.093
309.684
309.702
309.726
309.751
309.775
309.797
309.816
309.832
309.843
309.849
309.849
309.843
309.832
309.816
309.797
309.775
309.751
309.726
309.702
309.684
303.249
303.255
303.263
303.271
303.279
303.287
303.293
303.299
303.302
303.304
303.304
303.302
303.299
303.293
303.287
303.279
303.271
303.263
303.255
303.249
349.214
349.306
349.417
349.53
349.639
349.739
349.826
349.896
349.944
349.97
349.97
349.944
349.896
349.826
349.739
349.639
349.53
349.417
349.306
349.214
342.922
342.999
343.095
343.193
343.288
343.374
343.45
343.51
343.552
343.574
343.574
343.552
343.51
343.45
343.374
343.288
343.193
343.095
342.999
342.922
336.514
336.579
336.659
336.742
336.822
336.896
336.96
337.011
337.047
337.065
337.065
337.047
337.011
336.96
336.896
336.822
336.742
336.659
336.579
336.514
330.011
330.063
330.128
330.196
330.262
330.322
330.374
330.416
330.446
330.461
330.461
330.446
330.416
330.374
330.322
330.262
330.196
330.128
330.063
330.011
323.429
323.469
323.52
323.573
323.624
323.671
323.711
323.744
323.767
323.778
323.778
323.767
323.744
323.711
323.671
323.624
323.573
323.52
323.469
323.429
316.786
316.815
316.851
316.889
316.925
316.959
316.988
317.011
317.027
317.036
317.036
317.027
317.011
316.988
316.959
316.925
316.889
316.851
316.815
316.786
310.101
310.117
310.139
310.162
310.184
310.204
310.221
310.235
310.245
310.25
310.25
310.245
310.235
310.221
310.204
310.184
310.162
310.139
310.117
310.101
303.389
303.394
303.402
303.409
303.417
303.423
303.429
303.434
303.437
303.439
303.439
303.437
303.434
303.429
303.423
303.417
303.409
303.402
303.394
303.389
351.316
351.4
351.502
351.605
351.704
351.795
351.873
351.935
351.979
352.001
352.001
351.979
351.935
351.873
351.795
351.704
351.605
351.502
351.4
351.316
344.74
344.811
344.899
344.989
345.074
345.153
345.221
345.275
345.313
345.332
345.332
345.313
345.275
345.221
345.153
345.074
344.989
344.899
344.811
344.74
338.05
338.109
338.183
338.259
338.332
338.399
338.456
338.502
338.534
338.551
338.551
338.534
338.502
338.456
338.399
338.332
338.259
338.183
338.109
338.05
331.265
331.313
331.374
331.436
331.495
331.55
331.597
331.634
331.661
331.674
331.674
331.661
331.634
331.597
331.55
331.495
331.436
331.374
331.313
331.265
324.404
324.44
324.487
324.535
324.582
324.624
324.661
324.69
324.711
324.721
324.721
324.711
324.69
324.661
324.624
324.582
324.535
324.487
324.44
324.404
317.482
317.508
317.541
317.576
317.609
317.639
317.666
317.687
317.701
317.709
317.709
317.701
317.687
317.666
317.639
317.609
317.576
317.541
317.508
317.482
310.518
310.533
310.553
310.574
310.594
310.612
310.628
310.641
310.65
310.654
310.654
310.65
310.641
310.628
310.612
310.594
310.574
310.553
310.533
310.518
303.529
303.534
303.54
303.547
303.554
303.56
303.566
303.57
303.573
303.574
303.574
303.573
303.57
303.566
303.56
303.554
303.547
303.54
303.534
303.529
353.32
353.398
353.492
353.587
353.677
353.76
353.831
353.887
353.926
353.947
353.947
353.926
353.887
353.831
353.76
353.677
353.587
353.492
353.398
353.32
346.453
346.519
346.6
346.682
346.761
346.833
346.894
346.944
346.978
346.995
346.995
346.978
346.944
346.894
346.833
346.761
346.682
346.6
346.519
346.453
339.482
339.537
339.605
339.675
339.742
339.802
339.855
339.896
339.925
339.94
339.94
339.925
339.896
339.855
339.802
339.742
339.675
339.605
339.537
339.482
332.424
332.468
332.524
332.581
332.636
332.686
332.729
332.763
332.787
332.799
332.799
332.787
332.763
332.729
332.686
332.636
332.581
332.524
332.468
332.424
325.297
325.331
325.374
325.419
325.462
325.5
325.534
325.561
325.579
325.589
325.589
325.579
325.561
325.534
325.5
325.462
325.419
325.374
325.331
325.297
318.116
318.14
318.171
318.203
318.233
318.261
318.285
318.304
318.318
318.324
318.324
318.318
318.304
318.285
318.261
318.233
318.203
318.171
318.14
318.116
310.897
310.911
310.93
310.949
310.968
310.984
310.999
311.01
311.018
311.022
311.022
311.018
311.01
310.999
310.984
310.968
310.949
310.93
310.911
310.897
303.655
303.66
303.666
303.673
303.679
303.685
303.689
303.693
303.696
303.697
303.697
303.696
303.693
303.689
303.685
303.679
303.673
303.666
303.66
303.655
354.872
354.946
355.034
355.123
355.207
355.284
355.35
355.403
355.439
355.458
355.458
355.439
355.403
355.35
355.284
355.207
355.123
355.034
354.946
354.872
347.73
347.792
347.869
347.946
348.02
348.087
348.145
348.191
348.222
348.239
348.239
348.222
348.191
348.145
348.087
348.02
347.946
347.869
347.792
347.73
340.517
340.569
340.633
340.699
340.762
340.819
340.868
340.907
340.934
340.948
340.948
340.934
340.907
340.868
340.819
340.762
340.699
340.633
340.569
340.517
333.242
333.284
333.337
333.391
333.443
333.489
333.53
333.562
333.584
333.595
333.595
333.584
333.562
333.53
333.489
333.443
333.391
333.337
333.284
333.242
325.916
325.948
325.989
326.032
326.072
326.109
326.14
326.165
326.182
326.191
326.191
326.182
326.165
326.14
326.109
326.072
326.032
325.989
325.948
325.916
318.55
318.573
318.602
318.632
318.661
318.687
318.71
318.728
318.74
318.747
318.747
318.74
318.728
318.71
318.687
318.661
318.632
318.602
318.573
318.55
311.154
311.168
311.185
311.204
311.221
311.237
311.25
311.261
311.269
311.272
311.272
311.269
311.261
311.25
311.237
311.221
311.204
311.185
311.168
311.154
303.741
303.746
303.751
303.758
303.763
303.769
303.773
303.777
303.779
303.781
303.781
303.779
303.777
303.773
303.769
303.763
303.758
303.751
303.746
303.741
)
;

boundaryField
{
    hotSide
    {
        type            fixedGradient;
        gradient        nonuniform List<scalar> 
400
(
314.847
316.12
318.669
322.498
327.615
334.026
341.741
350.771
361.126
372.817
385.853
400.245
416
433.128
451.635
471.527
492.809
515.485
539.559
565.031
317.736
318.986
321.491
325.255
330.287
336.599
344.202
353.11
363.337
374.895
387.798
402.057
417.683
434.686
453.073
472.851
494.026
516.602
540.582
565.969
320.863
322.086
324.537
328.223
333.156
339.351
346.823
355.59
365.668
377.075
389.827
403.937
419.418
436.282
454.538
474.193
495.252
517.721
541.602
566.898
324.176
325.367
327.755
331.352
336.171
342.231
349.554
358.16
368.072
379.31
391.894
405.841
421.166
437.881
455.996
475.52
496.459
518.816
542.596
567.799
327.581
328.737
331.056
334.551
339.243
345.155
352.313
360.744
370.475
381.532
393.938
407.712
422.873
439.433
457.404
476.795
497.611
519.857
543.535
568.647
330.938
332.056
334.3
337.688
342.245
348
354.985
363.234
372.779
383.651
395.875
409.476
424.472
440.879
458.709
477.97
498.668
520.807
544.388
569.413
334.054
335.134
337.303
340.585
345.008
350.608
357.425
365.497
374.863
385.556
397.609
411.046
425.889
442.154
459.853
478.995
499.586
521.628
545.123
570.071
336.699
337.744
339.846
343.032
347.336
352.798
359.466
367.382
376.59
387.13
399.034
412.331
427.043
443.187
460.777
479.82
500.321
522.284
545.708
570.592
338.634
339.653
341.704
344.816
349.029
354.388
360.942
368.741
377.832
388.256
400.05
413.244
427.86
443.917
461.427
480.399
500.836
522.742
546.115
570.954
339.66
340.664
342.687
345.76
349.923
355.225
361.718
369.454
378.482
388.845
400.581
413.719
428.285
444.296
461.764
480.698
501.102
522.977
546.324
571.14
339.66
340.664
342.687
345.76
349.923
355.225
361.718
369.454
378.482
388.845
400.581
413.719
428.285
444.296
461.764
480.698
501.102
522.977
546.324
571.14
338.634
339.653
341.704
344.816
349.029
354.388
360.942
368.741
377.832
388.256
400.05
413.244
427.86
443.917
461.427
480.399
500.836
522.742
546.115
570.954
336.699
337.744
339.846
343.032
347.336
352.798
359.466
367.382
376.59
387.13
399.034
412.331
427.043
443.187
460.777
479.82
500.321
522.284
545.708
570.592
334.054
335.134
337.303
340.585
345.008
350.608
357.425
365.497
374.863
385.556
397.609
411.046
425.889
442.154
459.853
478.995
499.586
521.628
545.123
570.071
330.938
332.056
334.3
337.688
342.245
348
354.985
363.234
372.779
383.651
395.875
409.476
424.472
440.879
458.709
477.97
498.668
520.807
544.388
569.413
327.581
328.737
331.056
334.551
339.243
345.155
352.313
360.744
370.475
381.532
393.938
407.712
422.873
439.433
457.404
476.795
497.611
519.857
543.535
568.647
324.176
325.367
327.755
331.352
336.171
342.231
349.554
358.16
368.072
379.31
391.894
405.841
421.166
437.881
455.996
475.52
496.459
518.816
542.596
567.799
320.863
322.086
324.537
328.223
333.156
339.351
346.823
355.59
365.668
377.075
389.827
403.937
419.418
436.282
454.538
474.193
495.252
517.721
541.602
566.898
317.736
318.986
321.491
325.255
330.287
336.599
344.202
353.11
363.337
374.895
387.798
402.057
417.683
434.686
453.073
472.851
494.026
516.602
540.582
565.969
314.847
316.12
318.669
322.498
327.615
334.026
341.741
350.771
361.126
372.817
385.853
400.245
416
433.128
451.635
471.527
492.809
515.485
539.559
565.031
)
;
    }
    coldSide
    {
        type            mixed;
        refValue        uniform 300;
        refGradient     uniform 0;
        valueFraction   uniform 0.991591;
        source          uniform 0;
        value           nonuniform List<scalar> 
400
(
300.018
300.018
300.019
300.019
300.019
300.019
300.02
300.02
300.021
300.022
300.022
300.023
300.024
300.025
300.026
300.027
300.028
300.03
300.031
300.031
300.018
300.018
300.019
300.019
300.019
300.019
300.02
300.02
300.021
300.022
300.022
300.023
300.024
300.025
300.026
300.027