/*--------------------------------*- C++ -*----------------------------------*\
| =========                 |                                                 |
| \\      /  F ield         | OpenFOAM: The Open Source CFD Toolbox           |
|  \\    /   O peration     | Version:  2212                                  |
|   \\  /    A nd           | Website:  www.openfoam.com                      |
|    \\/     M anipulation  |                                                 |
\*---------------------------------------------------------------------------*/
FoamFile
{
    version     2.0;
    format      ascii;
    arch        "LSB;label=32;scalar=64";
    class       volScalarField;
    location    "0";
    object      Tdirect;
}
// * * * * * * * * * * * * * * * * * * * * * * * * * * * * * * * * * * * * * //

dimensions      [0 0 0 1 0 0 0];

internalField   nonuniform List<scalar> 
3200
(
389.633
390.31
391.109
391.963
392.839
393.701
394.499
395.175
395.669
395.93
395.93
395.669
395.175
394.499
393.701
392.839
391.963
391.109
390.31
389.633
383.377
383.895
384.516
385.182
385.865
386.536
387.158
387.684
388.068
388.271
388.271
388.068
387.684
387.158
386.536
385.865
385.182
384.516
383.895
383.377
376.246
376.638
377.116
377.628
378.154
378.671
379.149
379.553
379.848
380.005
380.005
379.848
379.553
379.149
378.671
378.154
377.628
377.116
376.638
376.246
367.871
368.162
368.522
368.908
369.305
369.695
370.055
370.36
370.582
370.7
370.7
370.582
370.36
370.055
369.695
369.305
368.908
368.522
368.162
367.871
357.817
358.026
358.288
358.569
358.858
359.141
359.403
359.625
359.786
359.872
359.872
359.786
359.625
359.403
359.141
358.858
358.569
358.288
358.026
357.817
345.563
345.703
345.88
346.071
346.267
346.46
346.637
346.788
346.897
346.955
346.955
346.897
346.788
346.637
346.46
346.267
346.071
345.88
345.703
345.563
330.47
330.551
330.654
330.765
330.878
330.99
331.093
331.18
331.244
331.277
331.277
331.244
331.18
331.093
330.99
330.878
330.765
330.654
330.551
330.47
311.755
311.781
311.815
311.852
311.889
311.926
311.96
311.988
312.009
312.02
312.02
312.009
311.988
311.96
311.926
311.889
311.852
311.815
311.781
311.755
389.671
390.343
391.136
391.981
392.848
393.701
394.489
395.157
395.644
395.902
395.902
395.644
395.157
394.489
393.701
392.848
391.981
391.136
390.343
389.671
383.407
383.921
384.537
385.196
385.872
386.536
387.15
387.669
388.048
388.249
388.249
388.048
387.669
387.15
386.536
385.872
385.196
384.537
383.921
383.407
376.269
376.658
377.132
377.639
378.16
378.671
379.143
379.542
379.834
379.988
379.988
379.834
379.542
379.143
378.671
378.16
377.639
377.132
376.658
376.269
367.889
368.177
368.534
368.917
369.309
369.695
370.051
370.352
370.571
370.687
370.687
370.571
370.352
370.051
369.695
369.309
368.917
368.534
368.177
367.889
357.83
358.037
358.297
358.575
358.861
359.141
359.4
359.619
359.778
359.863
359.863
359.778
359.619
359.4
359.141
358.861
358.575
358.297
358.037
357.83
345.571
345.711
345.886
346.076
346.269
346.46
346.635
346.784
346.892
346.949
346.949
346.892
346.784
346.635
346.46
346.269
346.076
345.886
345.711
345.571
330.475
330.555
330.657
330.767
330.88
330.99
331.092
331.178
331.24
331.274
331.274
331.24
331.178
331.092
330.99
330.88
330.767
330.657
330.555
330.475
311.756
311.783
311.816
311.852
311.89
311.926
311.959
311.988
312.008
312.019
312.019
312.008
311.988
311.959
311.926
311.89
311.852
311.816
311.783
311.756
389.75
390.411
391.19
392.019
392.869
393.702
394.472
395.123
395.597
395.848
395.848
395.597
395.123
394.472
393.702
392.869
392.019
391.19
390.411
389.75
383.468
383.973
384.579
385.226
385.888
386.537
387.137
387.643
388.012
388.207
388.207
388.012
387.643
387.137
386.537
385.888
385.226
384.579
383.973
383.468
376.316
376.699
377.164
377.662
378.172
378.672
379.133
379.522
379.806
379.956
379.956
379.806
379.522
379.133
378.672
378.172
377.662
377.164
376.699
376.316
367.924
368.208
368.559
368.934
369.319
369.696
370.044
370.337
370.551
370.664
370.664
370.551
370.337
370.044
369.696
369.319
368.934
368.559
368.208
367.924
357.856
358.06
358.315
358.588
358.868
359.142
359.395
359.608
359.764
359.846
359.846
359.764
359.608
359.395
359.142
358.868
358.588
358.315
358.06
357.856
345.589
345.726
345.899
346.084
346.274
346.46
346.632
346.777
346.882
346.938
346.938
346.882
346.777
346.632
346.46
346.274
346.084
345.899
345.726
345.589
330.485
330.564
330.664
330.772
330.882
330.99
331.09
331.174
331.235
331.267
331.267
331.235
331.174
331.09
330.99
330.882
330.772
330.664
330.564
330.485
311.76
311.786
311.819
311.854
311.89
311.926
311.959
311.986
312.006
312.017
312.017
312.006
311.986
311.959
311.926
311.89
311.854
311.819
311.786
311.76
389.868
390.514
391.273
392.08
392.904
393.71
394.453
395.08
395.536
395.777
395.777
395.536
395.08
394.453
393.71
392.904
392.08
391.273
390.514
389.868
383.561
384.054
384.645
385.273
385.916
386.544
387.123
387.61
387.965
388.152
388.152
387.965
387.61
387.123
386.544
385.916
385.273
384.645
384.054
383.561
376.388
376.761
377.215
377.699
378.194
378.677
379.122
379.497
379.77
379.914
379.914
379.77
379.497
379.122
378.677
378.194
377.699
377.215
376.761
376.388
367.978
368.255
368.597
368.962
369.335
369.7
370.036
370.319
370.524
370.633
370.633
370.524
370.319
370.036
369.7
369.335
368.962
368.597
368.255
367.978
357.895
358.094
358.343
358.608
358.88
359.145
359.389
359.595
359.744
359.823
359.823
359.744
359.595
359.389
359.145
358.88
358.608
358.343
358.094
357.895
345.615
345.749
345.918
346.098
346.282
346.463
346.628
346.768
346.869
346.922
346.922
346.869
346.768
346.628
346.463
346.282
346.098
345.918
345.749
345.615
330.501
330.578
330.675
330.78
330.887
330.992
331.088
331.168
331.227
331.258
331.258
331.227
331.168
331.088
330.992
330.887
330.78
330.675
330.578
330.501
311.765
311.79
311.822
311.857
311.892
311.926
311.958
311.985
312.004
312.014
312.014
312.004
311.985
311.958
311.926
311.892
311.857
311.822
311.79
311.765
390.029
390.656
391.39
392.167
392.958
393.731
394.44
395.036
395.47
395.698
395.698
395.47
395.036
394.44
393.731
392.958
392.167
391.39
390.656
390.029
383.686
384.165
384.736
385.342
385.959
386.56
387.113
387.577
387.914
388.092
388.092
387.914
387.577
387.113
386.56
385.959
385.342
384.736
384.165
383.686
376.484
376.846
377.285
377.752
378.227
378.69
379.115
379.472
379.732
379.868
379.868
379.732
379.472
379.115
378.69
378.227
377.752
377.285
376.846
376.484
368.051
368.32
368.65
369.002
369.361
369.71
370.031
370.3
370.495
370.598
370.598
370.495
370.3
370.031
369.71
369.361
369.002
368.65
368.32
368.051
357.948
358.141
358.381
358.638
358.898
359.153
359.386
359.582
359.724
359.799
359.799
359.724
359.582
359.386
359.153
358.898
358.638
358.381
358.141
357.948
345.651
345.781
345.944
346.118
346.295
346.468
346.626
346.759
346.855
346.906
346.906
346.855
346.759
346.626
346.468
346.295
346.118
345.944
345.781
345.651
330.522
330.596
330.691
330.792
330.894
330.995
331.086
331.163
331.219
331.249
331.249
331.219
331.163
331.086
330.995
330.894
330.792
330.691
330.596
330.522
311.772
311.796
311.827
311.861
311.894
311.927
311.958
311.983
312.001
312.011
312.011
312.001
311.983
311.958
311.927
311.894
311.861
311.827
311.796
311.772
390.235
390.838
391.542
392.285
393.039
393.771
394.441
395.003
395.41
395.624
395.624
395.41
395.003
394.441
393.771
393.039
392.285
391.542
390.838
390.235
383.846
384.307
384.855
385.434
386.022
386.592
387.115
387.552
387.869
388.036
388.036
387.869
387.552
387.115
386.592
386.022
385.434
384.855
384.307
383.846
376.607
376.956
377.377
377.823
378.276
378.715
379.117
379.454
379.697
379.826
379.826
379.697
379.454
379.117
378.715
378.276
377.823
377.377
376.956
376.607
368.144
368.403
368.72
369.056
369.398
369.729
370.032
370.286
370.47
370.567
370.567
370.47
370.286
370.032
369.729
369.398
369.056
368.72
368.403
368.144
358.016
358.202
358.432
358.677
358.926
359.167
359.387
359.572
359.705
359.776
359.776
359.705
359.572
359.387
359.167
358.926
358.677
358.432
358.202
358.016
345.697
345.822
345.979
346.145
346.314
346.477
346.627
346.752
346.843
346.891
346.891
346.843
346.752
346.627
346.477
346.314
346.145
345.979
345.822
345.697
330.548
330.62
330.711
330.807
330.905
331
331.087
331.16
331.212
331.24
331.24
331.212
331.16
331.087
331
330.905
330.807
330.711
330.62
330.548
311.781
311.804
311.834
311.866
311.898
311.929
311.958
311.982
311.999
312.008
312.008
311.999
311.982
311.958
311.929
311.898
311.866
311.834
311.804
311.781
390.488
391.064
391.735
392.44
393.151
393.84
394.467
394.991
395.37
395.569
395.569
395.37
394.991
394.467
393.84
393.151
392.44
391.735
391.064
390.488
384.043
384.484
385.006
385.555
386.11
386.647
387.135
387.544
387.838
387.993
387.993
387.838
387.544
387.135
386.647
386.11
385.555
385.006
384.484
384.043
376.759
377.092
377.494
377.917
378.344
378.757
379.134
379.448
379.675
379.794
379.794
379.675
379.448
379.134
378.757
378.344
377.917
377.494
377.092
376.759
368.258
368.505
368.808
369.127
369.45
369.761
370.045
370.282
370.453
370.543
370.543
370.453
370.282
370.045
369.761
369.45
369.127
368.808
368.505
368.258
358.099
358.277
358.496
358.729
358.963
359.19
359.397
359.569
359.693
359.759
359.759
359.693
359.569
359.397
359.19
358.963
358.729
358.496
358.277
358.099
345.754
345.873
346.022
346.18
346.339
346.493
346.634
346.75
346.835
346.879
346.879
346.835
346.75
346.634
346.493
346.339
346.18
346.022
345.873
345.754
330.581
330.65
330.736
330.828
330.92
331.01
331.091
331.159
331.208
331.233
331.233
331.208
331.159
331.091
331.01
330.92
330.828
330.736
330.65
330.581
311.791
311.814
311.842
311.872
311.903
311.932
311.959
311.981
311.998
312.006
312.006
311.998
311.981
311.959
311.932
311.903
311.872
311.842
311.814
311.791
390.79
391.338
391.972
392.636
393.303
393.945
394.528
395.012
395.361
395.544
395.544
395.361
395.012
394.528
393.945
393.303
392.636
391.972
391.338
390.79
384.279
384.697
385.191
385.709
386.229
386.729
387.183
387.561
387.833
387.975
387.975
387.833
387.561
387.183
386.729
386.229
385.709
385.191
384.697
384.279
376.94
377.257
377.637
378.035
378.436
378.822
379.171
379.462
379.671
379.781
379.781
379.671
379.462
379.171
378.822
378.436
378.035
377.637
377.257
376.94
368.395
368.63
368.916
369.217
369.519
369.81
370.074
370.293
370.451
370.534
370.534
370.451
370.293
370.074
369.81
369.519
369.217
368.916
368.63
368.395
358.198
358.367
358.575
358.794
359.014
359.226
359.418
359.577
359.692
359.752
359.752
359.692
359.577
359.418
359.226
359.014
358.794
358.575
358.367
358.198
345.821
345.935
346.076
346.225
346.374
346.518
346.648
346.756
346.834
346.875
346.875
346.834
346.756
346.648
346.518
346.374
346.225
346.076
345.935
345.821
330.62
330.686
330.767
330.854
330.94
331.024
331.099
331.162
331.207
331.231
331.231
331.207
331.162
331.099
331.024
330.94
330.854
330.767
330.686
330.62
311.804
311.826
311.853
311.881
311.91
311.937
311.962
311.983
311.997
312.005
312.005
311.997
311.983
311.962
311.937
311.91
311.881
311.853
311.826
311.804
391.145
391.662
392.259
392.88
393.501
394.096
394.632
395.077
395.396
395.564
395.564
395.396
395.077
394.632
394.096
393.501
392.88
392.259
391.662
391.145
384.555
384.951
385.415
385.9
386.384
386.847
387.266
387.612
387.861
387.991
387.991
387.861
387.612
387.266
386.847
386.384
385.9
385.415
384.951
384.555
377.153
377.453
377.81
378.183
378.556
378.913
379.235
379.502
379.693
379.794
379.794
379.693
379.502
379.235
378.913
378.556
378.183
377.81
377.453
377.153
368.556
368.778
369.047
369.328
369.61
369.879
370.123
370.324
370.468
370.544
370.544
370.468
370.324
370.123
369.879
369.61
369.328
369.047
368.778
368.556
358.315
358.475
358.67
358.875
359.08
359.277
359.453
359.6
359.705
359.76
359.76
359.705
359.6
359.453
359.277
359.08
358.875
358.67
358.475
358.315
345.901
346.008
346.141
346.28
346.419
346.552
346.672
346.772
346.843
346.88
346.88
346.843
346.772
346.672
346.552
346.419
346.28
346.141
346.008
345.901
330.666
330.728
330.805
330.886
330.966
331.044
331.113
331.171
331.212
331.234
331.234
331.212
331.171
331.113
331.044
330.966
330.886
330.805
330.728
330.666
311.819
311.84
311.865
311.892
311.918
311.944
311.967
311.986
311.999
312.006
312.006
311.999
311.986
311.967
311.944
311.918
311.892
311.865
311.84
311.819
391.555
392.041
392.599
393.177
393.752
394.299
394.79
395.196
395.486
395.637
395.637
395.486
395.196
394.79
394.299
393.752
393.177
392.599
392.041
391.555
384.875
385.247
385.681
386.132
386.58
387.006
387.39
387.706
387.932
388.05
388.05
387.932
387.706
387.39
387.006
386.58
386.132
385.681
385.247
384.875
377.4
377.681
378.015
378.362
378.707
379.036
379.331
379.574
379.749
379.839
379.839
379.749
379.574
379.331
379.036
378.707
378.362
378.015
377.681
377.4
368.741
368.95
369.202
369.464
369.725
369.973
370.195
370.379
370.51
370.579
370.579
370.51
370.379
370.195
369.973
369.725
369.464
369.202
368.95
368.741
358.451
358.601
358.783
358.974
359.164
359.345
359.507
359.64
359.736
359.786
359.786
359.736
359.64
359.507
359.345
359.164
358.974
358.783
358.601
358.451
345.993
346.093
346.217
346.347
346.476
346.598
346.709
346.799
346.864
346.898
346.898
346.864
346.799
346.709
346.598
346.476
346.347
346.217
346.093
345.993
330.72
330.778
330.85
330.925
330.999
331.071
331.134
331.187
331.225
331.244
331.244
331.225
331.187
331.134
331.071
330.999
330.925
330.85
330.778
330.72
311.837
311.856
311.88
311.904
311.929
311.953
311.974
311.991
312.003
312.01
312.01
312.003
311.991
311.974
311.953
311.929
311.904
311.88
311.856
311.837
392.023
392.478
392.997
393.532
394.061
394.562
395.009
395.377
395.639
395.775
395.775
395.639
395.377
395.009
394.562
394.061
393.532
392.997
392.478
392.023
385.24
385.588
385.992
386.409
386.821
387.212
387.561
387.848
388.052
388.158
388.158
388.052
387.848
387.561
387.212
386.821
386.409
385.992
385.588
385.24
377.681
377.944
378.255
378.576
378.894
379.195
379.464
379.684
379.842
379.924
379.924
379.842
379.684
379.464
379.195
378.894
378.576
378.255
377.944
377.681
368.953
369.149
369.383
369.626
369.866
370.093
370.296
370.462
370.581
370.643
370.643
370.581
370.462
370.296
370.093
369.866
369.626
369.383
369.149
368.953
358.605
358.745
358.916
359.092
359.267
359.432
359.58
359.701
359.788
359.833
359.833
359.788
359.701
359.58
359.432
359.267
359.092
358.916
358.745
358.605
346.097
346.192
346.307
346.427
346.546
346.658
346.758
346.841
346.899
346.93
346.93
346.899
346.841
346.758
346.658
346.546
346.427
346.307
346.192
346.097
330.78
330.835
330.902
330.971
331.04
331.105
331.163
331.211
331.245
331.263
331.263
331.245
331.211
331.163
331.105
331.04
330.971
330.902
330.835
330.78
311.857
311.875
311.897
311.92
311.942
311.964
311.983
311.999
312.01
312.016
312.016
312.01
311.999
311.983
311.964
311.942
311.92
311.897
311.875
311.857
392.551
392.975
393.457
393.949
394.434
394.89
395.296
395.627
395.863
395.986
395.986
395.863
395.627
395.296
394.89
394.434
393.949
393.457
392.975
392.551
385.652
385.976
386.351
386.735
387.113
387.469
387.785
388.044
388.228
388.323
388.323
388.228
388.044
387.785
387.469
387.113
386.735
386.351
385.976
385.652
377.998
378.243
378.531
378.828
379.119
379.393
379.637
379.836
379.978
380.051
380.051
379.978
379.836
379.637
379.393
379.119
378.828
378.531
378.243
377.998
369.193
369.375
369.592
369.816
370.036
370.243
370.427
370.577
370.684
370.74
370.74
370.684
370.577
370.427
370.243
370.036
369.816
369.592
369.375
369.193
358.779
358.91
359.068
359.231
359.391
359.542
359.676
359.785
359.863
359.903
359.903
359.863
359.785
359.676
359.542
359.391
359.231
359.068
358.91
358.779
346.216
346.304
346.411
346.521
346.63
346.732
346.823
346.898
346.951
346.978
346.978
346.951
346.898
346.823
346.732
346.63
346.521
346.411
346.304
346.216
330.849
330.9
330.962
331.026
331.089
331.148
331.201
331.244
331.275
331.291
331.291
331.275
331.244
331.201
331.148
331.089
331.026
330.962
330.9
330.849
311.88
311.896
311.917
311.938
311.959
311.978
311.996
312.01
312.02
312.025
312.025
312.02
312.01
311.996
311.978
311.959
311.938
311.917
311.896
311.88
393.142
393.536
393.981
394.433
394.875
395.289
395.655
395.954
396.165
396.275
396.275
396.165
395.954
395.655
395.289
394.875
394.433
393.981
393.536
393.142
386.113
386.414
386.76
387.113
387.458
387.781
388.066
388.299
388.464
388.549
388.549
388.464
388.299
388.066
387.781
387.458
387.113
386.76
386.414
386.113
378.354
378.581
378.847
379.119
379.385
379.634
379.854
380.033
380.16
380.226
380.226
380.16
380.033
379.854
379.634
379.385
379.119
378.847
378.581
378.354
369.461
369.63
369.831
370.036
370.237
370.425
370.591
370.726
370.822
370.872
370.872
370.822
370.726
370.591
370.425
370.237
370.036
369.831
369.63
369.461
358.975
359.096
359.242
359.391
359.537
359.674
359.795
359.894
359.964
360
360
359.964
359.894
359.795
359.674
359.537
359.391
359.242
359.096
358.975
346.349
346.43
346.529
346.63
346.73
346.823
346.905
346.972
347.019
347.044
347.044
347.019
346.972
346.905
346.823
346.73
346.63
346.529
346.43
346.349
330.926
330.973
331.03
331.089
331.147
331.201
331.249
331.287
331.315
331.329
331.329
331.315
331.287
331.249
331.201
331.147
331.089
331.03
330.973
330.926
311.905
311.92
311.939
311.959
311.978
311.995
312.011
312.024
312.033
312.038
312.038
312.033
312.024
312.011
311.995
311.978
311.959
311.939
311.92
311.905
393.799
394.163
394.572
394.986
395.388
395.763
396.093
396.36
396.549
396.647
396.647
396.549
396.36
396.093
395.763
395.388
394.986
394.572
394.163
393.799
386.625
386.903
387.222
387.545
387.858
388.151
388.408
388.617
388.764
388.84
388.84
388.764
388.617
388.408
388.151
387.858
387.545
387.222
386.903
386.625
378.748
378.958
379.203
379.452
379.694
379.919
380.118
380.279
380.392
380.451
380.451
380.392
380.279
380.118
379.919
379.694
379.452
379.203
378.958
378.748
369.759
369.915
370.1
370.288
370.471
370.641
370.791
370.912
370.998
371.042
371.042
370.998
370.912
370.791
370.641
370.471
370.288
370.1
369.915
369.759
359.192
359.304
359.438
359.575
359.708
359.832
359.941
360.029
360.092
360.124
360.124
360.092
360.029
359.941
359.832
359.708
359.575
359.438
359.304
359.192
346.496
346.571
346.662
346.755
346.846
346.93
347.004
347.064
347.106
347.128
347.128
347.106
347.064
347.004
346.93
346.846
346.755
346.662
346.571
346.496
331.012
331.055
331.108
331.162
331.214
331.263
331.306
331.341
331.365
331.378
331.378
331.365
331.341
331.306
331.263
331.214
331.162
331.108
331.055
331.012
311.933
311.947
311.965
311.983
312
312.016
312.03
312.042
312.05
312.054
312.054
312.05
312.042
312.03
312.016
312
311.983
311.965
311.947
311.933
394.522
394.857
395.233
395.611
395.976
396.314
396.61
396.85
397.018
397.105
397.105
397.018
396.85
396.61
396.314
395.976
395.611
395.233
394.857
394.522
387.189
387.445
387.738
388.032
388.317
388.581
388.812
388.999
389.131
389.198
389.198
389.131
388.999
388.812
388.581
388.317
388.032
387.738
387.445
387.189
379.183
379.377
379.601
379.829
380.048
380.252
380.43
380.574
380.675
380.727
380.727
380.675
380.574
380.43
380.252
380.048
379.829
379.601
379.377
379.183
370.087
370.231
370.401
370.572
370.738
370.892
371.026
371.135
371.212
371.251
371.251
371.212
371.135
371.026
370.892
370.738
370.572
370.401
370.231
370.087
359.43
359.534
359.657
359.782
359.903
360.015
360.113
360.192
360.247
360.276
360.276
360.247
360.192
360.113
360.015
359.903
359.782
359.657
359.534
359.43
346.658
346.728
346.811
346.896
346.978
347.054
347.121
347.174
347.212
347.232
347.232
347.212
347.174
347.121
347.054
346.978
346.896
346.811
346.728
346.658
331.106
331.146
331.194
331.243
331.291
331.335
331.374
331.405
331.427
331.438
331.438
331.427
331.405
331.374
331.335
331.291
331.243
331.194
331.146
331.106
311.964
311.977
311.993
312.009
312.025
312.04
312.052
312.063
312.07
312.074
312.074
312.07
312.063
312.052
312.04
312.025
312.009
311.993
311.977
311.964
395.312
395.621
395.965
396.309
396.64
396.944
397.21
397.424
397.574
397.651
397.651
397.574
397.424
397.21
396.944
396.64
396.309
395.965
395.621
395.312
387.805
388.041
388.309
388.578
388.836
389.074
389.281
389.448
389.565
389.625
389.625
389.565
389.448
389.281
389.074
388.836
388.578
388.309
388.041
387.805
379.658
379.836
380.042
380.249
380.448
380.631
380.791
380.92
381.01
381.057
381.057
381.01
380.92
380.791
380.631
380.448
380.249
380.042
379.836
379.658
370.446
370.578
370.734
370.89
371.04
371.179
371.299
371.397
371.465
371.5
371.5
371.465
371.397
371.299
371.179
371.04
370.89
370.734
370.578
370.446
359.692
359.787
359.899
360.013
360.123
360.224
360.312
360.382
360.432
360.458
360.458
360.432
360.382
360.312
360.224
360.123
360.013
359.899
359.787
359.692
346.835
346.899
346.976
347.053
347.127
347.196
347.256
347.304
347.338
347.355
347.355
347.338
347.304
347.256
347.196
347.127
347.053
346.976
346.899
346.835
331.209
331.245
331.29
331.335
331.378
331.418
331.452
331.48
331.5
331.51
331.51
331.5
331.48
331.452
331.418
331.378
331.335
331.29
331.245
331.209
311.998
312.01
312.025
312.04
312.054
312.067
312.078
312.087
312.094
312.097
312.097
312.094
312.087
312.078
312.067
312.054
312.04
312.025
312.01
311.998
396.169
396.453
396.768
397.081
397.38
397.654
397.892
398.083
398.216
398.285
398.285
398.216
398.083
397.892
397.654
397.38
397.081
396.768
396.453
396.169
388.473
388.69
388.935
389.179
389.413
389.627
389.813
389.962
390.066
390.12
390.12
390.066
389.962
389.813
389.627
389.413
389.179
388.935
388.69
388.473
380.172
380.336
380.524
380.713
380.893
381.058
381.201
381.316
381.396
381.438
381.438
381.396
381.316
381.201
381.058
380.893
380.713
380.524
380.336
380.172
370.834
370.956
371.098
371.24
371.376
371.5
371.609
371.695
371.756
371.787
371.787
371.756
371.695
371.609
371.5
371.376
371.24
371.098
370.956
370.834
359.974
360.061
360.164
360.268
360.367
360.458
360.537
360.6
360.644
360.667
360.667
360.644
360.6
360.537
360.458
360.367
360.268
360.164
360.061
359.974
347.027
347.086
347.156
347.226
347.293
347.355
347.409
347.452
347.482
347.497
347.497
347.482
347.452
347.409
347.355
347.293
347.226
347.156
347.086
347.027
331.32
331.354
331.394
331.435
331.474
331.51
331.541
331.566
331.583
331.592
331.592
331.583
331.566
331.541
331.51
331.474
331.435
331.394
331.354
331.32
312.035
312.046
312.059
312.073
312.085
312.097
312.107
312.116
312.121
312.124
312.124
312.121
312.116
312.107
312.097
312.085
312.073
312.059
312.046
312.035
397.086
397.346
397.634
397.918
398.189
398.436
398.649
398.819
398.938
398.999
398.999
398.938
398.819
398.649
398.436
398.189
397.918
397.634
397.346
397.086
389.186
389.385
389.609
389.831
390.042
390.235
390.401
390.534
390.627
390.675
390.675
390.627
390.534
390.401
390.235
390.042
389.831
389.609
389.385
389.186
380.719
380.87
381.042
381.213
381.376
381.525
381.653
381.756
381.827
381.864
381.864
381.827
381.756
381.653
381.525
381.376
381.213
381.042
380.87
380.719
371.246
371.357
371.487
371.616
371.74
371.852
371.949
372.027
372.081
372.109
372.109
372.081
372.027
371.949
371.852
371.74
371.616
371.487
371.357
371.246
360.273
360.353
360.447
360.541
360.631
360.713
360.784
360.84
360.88
360.9
360.9
360.88
360.84
360.784
360.713
360.631
360.541
360.447
360.353
360.273
347.229
347.283
347.347
347.411
347.472
347.528
347.576
347.614
347.641
347.655
347.655
347.641
347.614
347.576
347.528
347.472
347.411
347.347
347.283
347.229
331.437
331.468
331.505
331.542
331.578
331.61
331.638
331.66
331.676
331.684
331.684
331.676
331.66
331.638
331.61
331.578
331.542
331.505
331.468
331.437
312.073
312.083
312.096
312.108
312.12
312.13
312.139
312.147
312.152
312.154
312.154
312.152
312.147
312.139
312.13
312.12
312.108
312.096
312.083
312.073
398.029
398.269
398.532
398.791
399.037
399.26
399.452
399.604
399.711
399.765
399.765
399.711
399.604
399.452
399.26
399.037
398.791
398.532
398.269
398.029
389.912
390.095
390.3
390.503
390.695
390.869
391.019
391.138
391.222
391.264
391.264
391.222
391.138
391.019
390.869
390.695
390.503
390.3
390.095
389.912
381.271
381.41
381.568
381.724
381.872
382.007
382.123
382.215
382.279
382.312
382.312
382.279
382.215
382.123
382.007
381.872
381.724
381.568
381.41
381.271
371.657
371.76
371.879
371.998
372.11
372.211
372.299
372.369
372.417
372.442
372.442
372.417
372.369
372.299
372.211
372.11
371.998
371.879
371.76
371.657
360.569
360.643
360.73
360.816
360.898
360.972
361.036
361.087
361.122
361.14
361.14
361.122
361.087
361.036
360.972
360.898
360.816
360.73
360.643
360.569
347.429
347.479
347.538
347.596
347.652
347.702
347.746
347.78
347.804
347.817
347.817
347.804
347.78
347.746
347.702
347.652
347.596
347.538
347.479
347.429
331.552
331.581
331.615
331.649
331.681
331.711
331.736
331.756
331.77
331.777
331.777
331.77
331.756
331.736
331.711
331.681
331.649
331.615
331.581
331.552
312.111
312.12
312.132
312.143
312.154
312.163
312.172
312.178
312.183
312.185
312.185
312.183
312.178
312.172
312.163
312.154
312.143
312.132
312.12
312.111
398.862
399.085
399.329
399.569
399.795
400
400.176
400.315
400.412
400.462
400.462
400.412
400.315
400.176
400
399.795
399.569
399.329
399.085
398.862
390.527
390.698
390.889
391.077
391.255
391.415
391.553
391.663
391.739
391.778
391.778
391.739
391.663
391.553
391.415
391.255
391.077
390.889
390.698
390.527
381.723
381.853
382
382.146
382.283
382.408
382.515
382.599
382.658
382.689
382.689
382.658
382.599
382.515
382.408
382.283
382.146
382
381.853
381.723
371.984
372.081
372.192
372.303
372.407
372.501
372.582
372.647
372.692
372.715
372.715
372.692
372.647
372.582
372.501
372.407
372.303
372.192
372.081
371.984
360.799
360.869
360.95
361.031
361.107
361.176
361.235
361.282
361.315
361.332
361.332
361.315
361.282
361.235
361.176
361.107
361.031
360.95
360.869
360.799
347.581
347.628
347.683
347.738
347.79
347.837
347.877
347.909
347.932
347.943
347.943
347.932
347.909
347.877
347.837
347.79
347.738
347.683
347.628
347.581
331.639
331.666
331.698
331.73
331.76
331.787
331.811
331.829
331.842
331.849
331.849
331.842
331.829
331.811
331.787
331.76
331.73
331.698
331.666
331.639
312.139
312.148
312.159
312.169
312.179
312.188
312.196
312.202
312.206
312.209
312.209
312.206
312.202
312.196
312.188
312.179
312.169
312.159
312.148
312.139
)
;

boundaryField
{
    hotSide
    {
        type            fixedGradient;
        gradient        nonuniform List<scalar> 
400
(
456.272
457.124
458.841
461.45
464.986
469.496
475.033
481.653
489.417
498.383
508.61
520.152
533.058
547.373
563.136
580.381
599.135
619.422
641.26
664.662
472.57
473.293
474.757
476.997
480.06
484.01
488.914
494.847
501.886
510.107
519.581
530.375
542.549
556.157
571.244
587.847
605.998
625.72
647.032
669.948
490.207
490.777
491.939
493.74
496.246
499.535
503.699
508.834
515.038
522.405
531.024
540.978
552.337
565.163
579.508
595.414
612.913
632.032
652.788
675.192
508.893
509.283
510.095
511.388
513.248
515.78
519.101
523.332
528.597
535.013
542.688
551.721
562.194
574.18
587.734
602.903
619.72
638.211
658.393
680.274
528.104
528.293
528.71
529.435
530.577
532.27
534.662
537.906
542.153
547.546
554.216
562.276
571.822
582.934
595.675
610.092
626.219
644.081
663.69
685.053
547.04
547.013
547.009
547.129
547.509
548.317
549.736
551.952
555.149
559.495
565.144
572.224
580.845
591.093
603.036
616.72
632.181
649.439
668.503
689.377
564.616
564.373
563.95
563.467
563.094
563.032
563.498
564.716
566.899
570.243
574.921
581.079
588.835
598.281
609.488
622.503
637.359
654.072
672.648
693.086
579.534
579.096
578.294
577.272
576.224
575.386
575.009
575.348
576.644
579.118
582.958
588.324
595.343
604.112
614.7
627.156
641.508
657.771
675.947
696.028
590.451
589.864
588.773
587.337
585.777
584.35
583.337
583.015
583.648
585.473
588.693
593.477
599.956
608.23
618.369
630.422
644.413
660.354
678.243
698.071
596.236
595.567
594.319
592.659
590.82
589.075
587.717
587.039
587.316
588.794
591.684
596.158
602.351
610.363
620.267
632.107
645.909
661.681
679.422
699.119
596.236
595.567
594.319
592.659
590.82
589.075
587.717
587.039
587.316
588.794
591.684
596.158
602.351
610.363
620.267
632.107
645.909
661.681
679.422
699.119
590.451
589.864
588.773
587.337
585.777
584.35
583.337
583.015
583.648
585.473
588.693
593.477
599.956
608.23
618.369
630.422
644.413
660.354
678.243
698.071
579.534
579.096
578.294
577.272
576.224
575.386
575.009
575.348
576.644
579.118
582.958
588.324
595.343
604.112
614.7
627.156
641.508
657.771
675.947
696.028
564.616
564.373
563.95
563.467
563.094
563.032
563.498
564.716
566.899
570.243
574.921
581.079
588.835
598.281
609.488
622.503
637.359
654.072
672.648
693.086
547.04
547.013
547.009
547.129
547.509
548.317
549.736
551.952
555.149
559.495
565.144
572.224
580.845
591.093
603.036
616.72
632.181
649.439
668.503
689.377
528.104
528.293
528.71
529.435
530.577
532.27
534.662
537.906
542.153
547.546
554.216
562.276
571.822
582.934
595.675
610.092
626.219
644.081
663.69
685.053
508.893
509.283
510.095
511.388
513.248
515.78
519.101
523.332
528.597
535.013
542.688
551.721
562.194
574.18
587.734
602.903
619.72
638.211
658.393
680.274
490.207
490.777
491.939
493.74
496.246
499.535
503.699
508.834
515.038
522.405
531.024
540.978
552.337
565.163
579.508
595.414
612.913
632.032
652.788
675.192
472.57
473.293
474.757
476.997
480.06
484.01
488.914
494.847
501.886
510.107
519.581
530.375
542.549
556.157
571.244
587.847
605.998
625.72
647.032
669.948
456.272
457.124
458.841
461.45
464.986
469.496
475.033
481.653
489.417
498.383
508.61
520.152
533.058
547.373
563.136
580.381
599.135
619.422
641.26
664.662
)
;
    }
    coldSide
    {
        type            mixed;
        refValue        uniform 300;
        refGradient     uniform 0;
        valueFraction   uniform 0.991591;
        source          uniform 0;
        value           nonuniform List<scalar> 
400
(
300.099
300.099
300.099
300.099
300.099
300.099
300.099
300.099
300.099
300.1
300.1
300.1
300.1
300.1
300.101
300.101
300.101
300.102
300.102
300.102
300.099
300.099
300.099
300.099
300.099
300.099
300.099
300.099
300.1
300.1
300.1
300.1
300.1
300.1
300.101
300.101
300.101
300.102
300.102
300.102
300.099
300.099
300.099
300.099
300.099
300.1
300.1
300.1