/*--------------------------------*- C++ -*----------------------------------*\
| =========                 |                                                 |
| \\      /  F ield         | OpenFOAM: The Open Source CFD Toolbox           |
|  \\    /   O peration     | Version:  2212                                  |
|   \\  /    A nd           | Website:  www.openfoam.com                      |
|    \\/     M anipulation  |                                                 |
\*---------------------------------------------------------------------------*/
FoamFile
{
    version     2.0;
    format      ascii;
    arch        "LSB;label=32;scalar=64";
    class       volScalarField;
    location    "0";
    object      T;
}
// * * * * * * * * * * * * * * * * * * * * * * * * * * * * * * * * * * * * * //

dimensions      [0 0 0 1 0 0 0];

internalField   nonuniform List<scalar> 
3200
(
343.235
344.222
345.121
346.079
346.774
347.468
348.171
348.416
348.622
348.695
348.786
348.06
348.188
347.681
346.889
346.23
345.296
344.312
343.251
342.455
337.534
338.411
339.105
339.98
340.549
341.194
341.81
341.984
342.196
342.209
342.315
341.666
341.804
341.353
340.662
340.076
339.281
338.412
337.513
336.913
331.829
332.547
333.051
333.863
334.307
334.916
335.418
335.531
335.721
335.723
335.871
335.245
335.403
335.06
334.444
333.946
333.264
332.544
331.775
331.309
326.054
326.676
327.065
327.757
328.093
328.666
328.965
329.074
329.232
329.198
329.413
328.833
329.016
328.748
328.256
327.791
327.179
326.627
326.029
325.685
320.255
320.777
321.1
321.584
321.865
322.364
322.505
322.611
322.745
322.679
322.89
322.435
322.602
322.428
321.98
321.63
321.09
320.706
320.307
319.993
314.463
314.871
315.107
315.434
315.625
316.022
316.062
316.158
316.253
316.221
316.307
316.006
316.173
316.053
315.72
315.426
315.08
314.791
314.513
314.276
308.715
308.925
309.055
309.284
309.385
309.623
309.664
309.712
309.781
309.761
309.765
309.634
309.723
309.669
309.475
309.259
309.068
308.864
308.739
308.547
302.912
302.985
303.038
303.113
303.135
303.223
303.233
303.27
303.271
303.26
303.275
303.21
303.264
303.24
303.199
303.08
303.024
302.954
302.922
302.859
344.142
345.26
346.042
347.138
347.932
348.39
348.879
349.208
349.431
349.673
349.586
349.159
348.925
348.591
347.756
347.124
346.118
345.063
343.942
343.082
338.251
339.254
339.838
340.889
341.557
341.92
342.334
342.581
342.818
343.032
342.963
342.546
342.378
342.145
341.348
340.836
339.928
339.023
338.122
337.395
332.395
333.23
333.712
334.605
335.192
335.51
335.812
335.971
336.291
336.407
336.347
335.939
335.841
335.664
334.984
334.542
333.788
332.985
332.31
331.672
326.575
327.193
327.593
328.307
328.802
329.082
329.315
329.372
329.75
329.767
329.745
329.357
329.351
329.258
328.608
328.236
327.671
326.943
326.426
325.918
320.701
321.15
321.467
322.049
322.397
322.619
322.765
322.834
323.126
323.141
323.129
322.811
322.823
322.796
322.285
321.949
321.514
320.948
320.546
320.163
314.823
315.13
315.323
315.793
316.058
316.18
316.244
316.292
316.517
316.525
316.533
316.298
316.298
316.3
315.942
315.658
315.344
315.004
314.662
314.42
308.907
309.085
309.234
309.468
309.646
309.729
309.745
309.758
309.935
309.926
309.93
309.773
309.79
309.798
309.565
309.405
309.199
309.025
308.801
308.65
302.978
303.032
303.09
303.168
303.224
303.269
303.272
303.272
303.339
303.317
303.347
303.286
303.273
303.281
303.19
303.145
303.086
303.037
302.94
302.894
345.172
346.155
347.159
348.254
349.104
349.573
350.253
350.573
350.689
350.884
350.66
350.618
350.158
349.582
348.943
348.095
347.092
346.202
345.029
344.144
339.171
339.977
340.847
341.792
342.495
342.925
343.51
343.754
343.974
344.048
343.875
343.853
343.417
342.938
342.366
341.661
340.829
339.995
339.014
338.244
333.154
333.767
334.517
335.32
335.915
336.261
336.821
336.96
337.19
337.217
337.105
337.087
336.709
336.264
335.87
335.268
334.533
333.816
333.019
332.358
327.122
327.595
328.194
328.904
329.359
329.572
330.117
330.262
330.379
330.414
330.366
330.289
330.005
329.624
329.387
328.861
328.247
327.636
327.002
326.486
321.099
321.45
321.905
322.469
322.798
322.958
323.384
323.542
323.613
323.639
323.576
323.558
323.318
323.041
322.928
322.45
321.95
321.495
320.997
320.582
315.02
315.329
315.657
316.04
316.29
316.372
316.727
316.813
316.855
316.897
316.857
316.868
316.671
316.484
316.409
316.064
315.676
315.319
314.967
314.679
309.012
309.198
309.421
309.662
309.809
309.824
310.067
310.08
310.127
310.145
310.168
310.155
310.017
309.905
309.873
309.678
309.435
309.187
308.975
308.769
303.028
303.094
303.16
303.214
303.299
303.316
303.375
303.385
303.368
303.416
303.408
303.416
303.356
303.326
303.323
303.247
303.148
303.085
303.009
302.925
346.432
347.116
348.32
349.352
350.251
350.827
351.573
351.966
351.937
352.01
351.984
351.916
351.451
350.73
350.297
349.296
348.082
347.243
346.097
345.23
340.254
340.782
341.817
342.746
343.545
344
344.621
344.964
344.951
345.03
344.988
344.958
344.524
343.934
343.579
342.701
341.616
340.896
339.912
339.202
334.093
334.473
335.363
336.173
336.862
337.204
337.692
337.973
338.009
338.066
338.016
337.982
337.63
337.164
336.841
336.16
335.177
334.594
333.763
333.17
327.865
328.175
328.92
329.606
330.153
330.405
330.802
331.023
331.094
331.117
331.083
331.071
330.811
330.359
330.122
329.558
328.792
328.302
327.616
327.117
321.658
321.902
322.515
322.991
323.43
323.624
323.943
324.119
324.153
324.111
324.131
324.192
323.988
323.573
323.407
323.005
322.386
322.007
321.495
321.083
315.463
315.62
316.127
316.399
316.7
316.851
317.083
317.213
317.249
317.199
317.245
317.31
317.132
316.851
316.702
316.464
315.957
315.703
315.394
315.049
309.295
309.381
309.708
309.841
310.012
310.082
310.254
310.351
310.364
310.314
310.34
310.403
310.285
310.124
310.037
309.92
309.567
309.444
309.294
309.052
303.12
303.158
303.24
303.305
303.353
303.358
303.435
303.479
303.471
303.438
303.455
303.494
303.434
303.367
303.363
303.319
303.218
303.18
303.121
303.04
347.385
348.155
349.675
350.555
351.475
352.263
352.613
353.041
353.103
353.461
353.191
353.236
352.736
351.985
351.572
350.733
349.604
348.351
347.291
346.184
341.022
341.664
343.004
343.756
344.578
345.216
345.541
345.9
345.904
346.298
346.089
346.102
345.699
345.017
344.673
343.916
342.929
341.88
340.953
339.986
334.698
335.235
336.381
336.988
337.715
338.2
338.51
338.764
338.744
339.175
338.969
338.942
338.648
338.037
337.79
337.149
336.271
335.423
334.641
333.814
328.404
328.833
329.739
330.245
330.888
331.182
331.49
331.727
331.651
332.034
331.886
331.852
331.603
331.055
330.904
330.4
329.631
328.93
328.34
327.646
322.104
322.443
323.074
323.507
324.033
324.212
324.465
324.693
324.592
324.946
324.8
324.751
324.584
324.134
324.034
323.655
323.019
322.463
322.026
321.501
315.812
316.051
316.469
316.781
317.153
317.298
317.474
317.655
317.583
317.826
317.706
317.671
317.577
317.233
317.175
316.91
316.43
316.036
315.722
315.353
309.488
309.645
309.902
310.071
310.29
310.39
310.454
310.607
310.545
310.708
310.654
310.601
310.568
310.403
310.266
310.17
309.838
309.613
309.437
309.237
303.168
303.232
303.336
303.368
303.432
303.483
303.493
303.572
303.532
303.576
303.577
303.55
303.538
303.506
303.431
303.409
303.299
303.218
303.156
303.082
348.338
349.311
350.775
351.624
352.716
353.39
353.857
354.501
354.593
354.599
354.644
354.53
354.079
353.215
352.558
351.727
350.683
349.712
348.496
347.289
341.86
342.69
343.97
344.706
345.647
346.205
346.626
347.215
347.222
347.291
347.302
347.176
346.79
346.056
345.5
344.774
343.849
343.073
342.029
340.995
335.418
336.06
337.142
337.788
338.559
339.035
339.418
339.915
339.886
340.021
340.013
339.847
339.545
338.916
338.432
337.841
337.039
336.383
335.522
334.729
328.953
329.484
330.36
330.902
331.488
331.865
332.207
332.645
332.594
332.734
332.71
332.561
332.32
331.828
331.405
330.968
330.288
329.717
329.041
328.364
322.482
322.955
323.593
324.016
324.462
324.766
325.014
325.399
325.323
325.465
325.429
325.3
325.112
324.73
324.437
324.095
323.548
323.045
322.541
321.998
316.066
316.398
316.828
317.154
317.496
317.688
317.858
318.113
318.057
318.176
318.137
318.037
317.949
317.652
317.503
317.26
316.818
316.413
316.103
315.656
309.678
309.886
310.105
310.285
310.492
310.638
310.72
310.851
310.814
310.891
310.892
310.832
310.762
310.585
310.518
310.383
310.098
309.824
309.663
309.372
303.242
303.325
303.386
303.452
303.525
303.588
303.57
303.632
303.617
303.641
303.671
303.629
303.606
303.545
303.53
303.463
303.376
303.287
303.23
303.134
349.428
350.46
351.712
352.636
353.707
354.47
355.396
355.644
355.647
355.656
355.764
355.547
355.054
354.337
353.551
352.804
351.755
350.716
349.416
348.368
342.783
343.682
344.803
345.577
346.5
347.178
347.969
348.18
348.124
348.168
348.274
348.111
347.649
347.05
346.385
345.727
344.781
343.91
342.766
341.911
336.145
336.95
337.881
338.517
339.303
339.869
340.501
340.759
340.658
340.716
340.818
340.666
340.26
339.776
339.227
338.687
337.848
337.097
336.199
335.46
329.473
330.195
330.993
331.478
332.116
332.542
333.077
333.367
333.238
333.286
333.392
333.208
332.915
332.499
332.063
331.633
330.933
330.341
329.579
329.006
322.893
323.51
324.104
324.464
324.962
325.301
325.674
325.92
325.855
325.88
325.98
325.808
325.581
325.258
324.92
324.597
324.015
323.592
322.966
322.58
316.366
316.821
317.244
317.444
317.822
318.075
318.35
318.487
318.462
318.451
318.553
318.429
318.264
318.014
317.827
317.58
317.116
316.816
316.387
316.098
309.861
310.161
310.394
310.463
310.719
310.845
311.038
311.101
311.13
311.052
311.15
311.051
310.992
310.821
310.694
310.539
310.248
310.097
309.818
309.635
303.315
303.404
303.503
303.504
303.578
303.645
303.705
303.719
303.73
303.684
303.729
303.705
303.671
303.611
303.578
303.53
303.418
303.382
303.296
303.231
350.319
351.524
352.676
353.764
354.94
355.574
356.248
356.795
356.752
356.753
356.74
356.383
355.984
355.378
354.684
353.71
352.741
351.673
350.347
349.218
343.569
344.558
345.599
346.579
347.562
348.074
348.701
349.157
349.159
349.117
349.119
348.775
348.439
347.892
347.311
346.48
345.659
344.756
343.599
342.655
336.854
337.613
338.547
339.427
340.176
340.584
341.15
341.54
341.591
341.535
341.573
341.205
340.914
340.46
340.029
339.299
338.608
337.799
336.871
336.093
330.182
330.759
331.554
332.259
332.843
333.166
333.616
333.961
334
333.937
334.032
333.651
333.489
333.056
332.736
332.124
331.509
330.91
330.159
329.523
323.536
323.913
324.56
325.083
325.54
325.787
326.107
326.423
326.421
326.347
326.519
326.138
326.072
325.696
325.487
324.967
324.469
324.027
323.458
322.942
316.856
317.059
317.578
317.896
318.231
318.404
318.639
318.844
318.865
318.828
318.995
318.646
318.631
318.348
318.194
317.823
317.437
317.172
316.738
316.368
310.137
310.218
310.557
310.739
310.936
311.071
311.179
311.319
311.313
311.319
311.432
311.152
311.182
311.027
310.901
310.713
310.438
310.29
310.04
309.837
303.402
303.412
303.532
303.596
303.674
303.72
303.745
303.782
303.803
303.805
303.839
303.747
303.738
303.694
303.663
303.596
303.494
303.434
303.336
303.29
351.372
352.366
353.49
354.677
355.703
356.271
357.127
357.553
357.761
357.736
357.852
357.479
356.844
356.309
355.703
354.853
353.682
352.407
351.301
350.138
344.47
345.33
346.316
347.286
348.22
348.7
349.449
349.809
349.989
349.957
350.105
349.706
349.191
348.715
348.238
347.479
346.445
345.386
344.371
343.438
337.613
338.33
339.146
339.933
340.752
341.17
341.814
342.121
342.267
342.185
342.351
341.992
341.582
341.171
340.799
340.159
339.231
338.392
337.447
336.688
330.751
331.324
331.989
332.614
333.296
333.694
334.186
334.41
334.561
334.432
334.659
334.301
333.989
333.67
333.371
332.854
332.041
331.408
330.611
329.99
323.931
324.352
324.905
325.335
325.889
326.218
326.582
326.759
326.856
326.728
326.929
326.636
326.371
326.168
325.932
325.563
324.86
324.423
323.776
323.312
317.109
317.383
317.78
318.081
318.483
318.701
318.985
319.123
319.163
319.072
319.254
319.014
318.778
318.68
318.557
318.273
317.742
317.471
316.964
316.647
310.259
310.447
310.682
310.869
311.087
311.233
311.425
311.49
311.527
311.478
311.559
311.417
311.219
311.212
311.145
310.985
310.622
310.534
310.178
309.997
303.438
303.483
303.583
303.648
303.722
303.767
303.831
303.859
303.877
303.84
303.887
303.829
303.765
303.761
303.734
303.681
303.544
303.525
303.408
303.341
352.244
353.399
354.518
355.517
356.532
357.284
357.864
358.438
358.805
358.989
358.892
358.333
357.978
357.1
356.851
355.552
354.542
353.418
351.848
351.04
345.26
346.28
347.188
348.034
348.924
349.585
350.033
350.567
350.92
351.064
350.989
350.496
350.135
349.396
349.235
348.129
347.202
346.221
344.885
344.209
338.253
339.088
339.905
340.596
341.363
341.899
342.29
342.757
343.044
343.162
343.107
342.647
342.343
341.733
341.595
340.706
339.897
339.056
337.97
337.39
331.271
331.964
332.645
333.227
333.823
334.239
334.601
335.038
335.208
335.265
335.228
334.865
334.629
334.115
334.013
333.319
332.596
331.983
331.105
330.627
324.307
324.855
325.364
325.865
326.267
326.619
326.891
327.299
327.361
327.381
327.398
327.079
326.892
326.498
326.451
325.908
325.303
324.881
324.211
323.868
317.395
317.767
318.113
318.487
318.748
319.028
319.221
319.498
319.506
319.53
319.593
319.317
319.166
318.94
318.905
318.541
318.071
317.763
317.32
317.061
310.48
310.673
310.867
311.119
311.264
311.464
311.53
311.692
311.713
311.739
311.75
311.574
311.502
311.36
311.331
311.135
310.83
310.663
310.438
310.239
303.518
303.584
303.642
303.729
303.774
303.835
303.836
303.923
303.932
303.922
303.942
303.856
303.862
303.828
303.813
303.728
303.625
303.601
303.503
303.438
352.933
354.289
355.288
356.394
357.367
358.3
358.844
359.26
359.686
359.708
359.756
359.374
358.871
358.045
357.453
356.44
355.412
354.375
352.961
351.811
345.829
347.011
347.85
348.822
349.645
350.438
350.922
351.302
351.695
351.704
351.739
351.407
350.966
350.214
349.692
348.882
347.929
347.071
345.893
344.907
338.757
339.714
340.455
341.276
341.93
342.597
343.017
343.379
343.76
343.717
343.742
343.458
343.031
342.436
342.023
341.322
340.504
339.796
338.835
338.051
331.713
332.438
333.062
333.767
334.299
334.794
335.139
335.496
335.805
335.727
335.783
335.509
335.216
334.686
334.365
333.741
333.142
332.534
331.776
331.137
324.671
325.211
325.749
326.231
326.687
327.049
327.297
327.637
327.866
327.795
327.827
327.582
327.347
326.981
326.704
326.238
325.75
325.276
324.707
324.237
317.625
318.01
318.436
318.73
319.057
319.319
319.481
319.759
319.909
319.877
319.865
319.678
319.509
319.263
319.09
318.762
318.407
318.068
317.636
317.313
310.57
310.82
311.084
311.227
311.43
311.595
311.671
311.881
311.976
311.957
311.902
311.806
311.685
311.551
311.461
311.24
311.035
310.847
310.598
310.413
303.52
303.624
303.724
303.758
303.84
303.901
303.908
303.965
304.032
303.996
303.991
303.949
303.936
303.867
303.843
303.768
303.694
303.637
303.556
303.497
353.515
354.81
356.123
357.122
358.137
358.831
359.552
359.983
360.275
360.587
360.448
360.212
359.732
358.914
358.148
357.289
356.031
354.891
353.357
352.247
346.362
347.46
348.549
349.464
350.332
350.957
351.532
351.933
352.193
352.451
352.32
352.155
351.701
351.018
350.339
349.621
348.531
347.513
346.202
345.301
339.235
340.111
341.016
341.815
342.564
343.066
343.575
343.875
344.152
344.324
344.221
344.058
343.678
343.189
342.58
341.931
341.019
340.171
339.091
338.356
332.106
332.843
333.507
334.188
334.824
335.222
335.659
335.89
336.1
336.263
336.124
335.96
335.69
335.305
334.824
334.286
333.526
332.856
331.962
331.374
324.988
325.561
326.046
326.583
327.054
327.37
327.716
327.932
328.075
328.237
328.077
327.975
327.726
327.425
327.078
326.643
326.041
325.566
324.824
324.419
317.851
318.289
318.619
318.943
319.305
319.548
319.769
319.957
320.072
320.166
320.041
319.993
319.774
319.601
319.361
319.021
318.581
318.274
317.72
317.458
310.71
310.984
311.2
311.339
311.569
311.717
311.898
311.989
312.068
312.127
312.044
312.017
311.872
311.785
311.649
311.456
311.186
310.992
310.651
310.489
303.569
303.698
303.741
303.808
303.874
303.923
303.988
304.006
304.047
304.075
304.045
304.048
303.974
303.945
303.9
303.846
303.747
303.684
303.593
303.526
354.052
355.377
356.571
357.657
358.715
359.636
360.124
360.541
361.018
361.212
361.067
361.016
360.238
359.632
358.901
358.025
356.734
355.386
354.018
352.654
346.825
347.94
348.923
349.901
350.818
351.636
352.034
352.335
352.798
352.959
352.832
352.803
352.155
351.684
350.975
350.238
349.099
347.927
346.76
345.607
339.591
340.522
341.307
342.134
342.959
343.663
343.947
344.231
344.634
344.756
344.617
344.643
344.078
343.708
343.081
342.464
341.504
340.514
339.54
338.605
332.383
333.124
333.739
334.415
335.093
335.654
335.959
336.184
336.465
336.629
336.468
336.468
336.022
335.752
335.179
334.678
333.92
333.145
332.355
331.576
325.194
325.751
326.254
326.732
327.216
327.689
327.975
328.11
328.347
328.473
328.389
328.379
327.979
327.828
327.366
326.955
326.347
325.799
325.138
324.574
318.01
318.405
318.75
319.056
319.389
319.748
319.959
320.052
320.237
320.339
320.275
320.255
319.953
319.865
319.57
319.284
318.769
318.474
317.905
317.58
310.798
311.065
311.278
311.441
311.616
311.849
311.957
312.053
312.119
312.205
312.139
312.154
311.928
311.892
311.723
311.583
311.236
311.134
310.728
310.565
303.608
303.7
303.782
303.841
303.883
303.979
304.013
304.052
304.069
304.077
304.071
304.056
304.003
303.994
303.927
303.88
303.774
303.722
303.591
303.544
354.569
355.937
357.115
358.001
359.017
360.018
360.814
361.048
361.382
361.451
361.616
361.377
360.77
360.177
359.261
358.486
357.08
355.974
354.525
353.383
347.26
348.399
349.422
350.183
351.108
351.928
352.643
352.835
353.096
353.152
353.304
353.129
352.601
352.049
351.277
350.647
349.404
348.465
347.223
346.262
340.004
340.913
341.77
342.401
343.174
343.863
344.504
344.676
344.842
344.916
344.98
344.936
344.45
343.976
343.302
342.791
341.729
340.983
339.944
339.107
332.748
333.467
334.163
334.694
335.278
335.83
336.37
336.573
336.625
336.745
336.75
336.756
336.348
335.911
335.369
334.953
334.1
333.524
332.688
331.977
325.489
326.022
326.57
327.027
327.414
327.847
328.212
328.464
328.468
328.59
328.615
328.587
328.259
327.901
327.486
327.121
326.504
326.044
325.41
324.833
318.217
318.589
319.029
319.329
319.583
319.847
320.135
320.319
320.302
320.403
320.477
320.436
320.16
319.945
319.63
319.364
318.89
318.611
318.156
317.735
310.94
311.174
311.428
311.592
311.757
311.924
312.081
312.195
312.206
312.231
312.303
312.247
312.099
311.963
311.764
311.627
311.311
311.203
310.909
310.649
303.663
303.735
303.841
303.872
303.934
303.995
304.078
304.094
304.088
304.099
304.138
304.103
304.063
304.001
303.938
303.891
303.784
303.758
303.651
303.574
354.899
356.294
357.707
358.472
359.629
360.488
361.071
361.531
361.87
361.912
361.899
361.82
361.126
360.556
359.754
358.773
357.596
356.437
354.777
353.577
347.515
348.698
349.972
350.639
351.606
352.32
352.886
353.263
353.535
353.567
353.572
353.505
352.9
352.407
351.743
350.853
349.87
348.899
347.387
346.416
340.139
341.224
342.257
342.799
343.585
344.151
344.75
345.042
345.241
345.238
345.273
345.224
344.701
344.304
343.773
342.992
342.198
341.349
340.031
339.246
332.85
333.699
334.587
335.009
335.657
336.036
336.582
336.855
336.968
336.936
336.992
337.021
336.562
336.23
335.804
335.123
334.489
333.81
332.761
332.099
325.532
326.207
326.936
327.237
327.763
327.956
328.45
328.665
328.756
328.696
328.763
328.801
328.452
328.185
327.837
327.321
326.845
326.276
325.496
324.999
318.222
318.718
319.288
319.48
319.867
319.951
320.362
320.487
320.565
320.485
320.512
320.573
320.345
320.149
319.869
319.525
319.221
318.761
318.211
317.886
310.955
311.224
311.597
311.723
311.923
311.973
312.234
312.335
312.385
312.303
312.296
312.376
312.232
312.098
311.902
311.734
311.542
311.245
310.882
310.731
303.669
303.75
303.884
303.944
303.996
304.036
304.105
304.13
304.149
304.102
304.128
304.144
304.087
304.062
304
303.908
303.867
303.793
303.632
303.582
355.503
356.535
357.829
358.993
359.98
360.899
361.566
361.954
362.361
362.315
362.428
362.167
361.456
360.715
360.275
359.094
357.972
356.972
355.376
353.933
348.095
348.95
350.048
351.039
351.913
352.689
353.339
353.605
354.008
353.924
354.015
353.791
353.189
352.541
352.189
351.126
350.188
349.329
347.977
346.709
340.673
341.397
342.326
343.105
343.845
344.506
345.117
345.312
345.629
345.59
345.624
345.469
344.972
344.421
344.12
343.256
342.429
341.733
340.569
339.509
333.301
333.831
334.59
335.206
335.813
336.353
336.899
337.073
337.296
337.246
337.28
337.174
336.773
336.323
336.061
335.336
334.673
334.13
333.189
332.337
325.92
326.318
326.894
327.412
327.79
328.226
328.703
328.849
328.961
328.914
328.975
328.874
328.625
328.242
328.021
327.435
326.947
326.535
325.796
325.143
318.559
318.815
319.195
319.561
319.826
320.167
320.511
320.608
320.638
320.605
320.698
320.605
320.451
320.174
319.99
319.575
319.258
318.956
318.43
317.931
311.158
311.284
311.53
311.738
311.885
312.079
312.312
312.376
312.386
312.339
312.413
312.401
312.256
312.139
311.972
311.743
311.543
311.395
311.06
310.742
303.741
303.776
303.853
303.948
303.972
304.04
304.108
304.145
304.145
304.132
304.162
304.162
304.091
304.062
303.995
303.91
303.853
303.816
303.703
303.584
355.614
356.833
357.988
359.238
360.257
360.977
361.933
362.21
362.607
362.68
362.678
362.317
361.851
361.046
360.426
359.303
358.292
356.867
355.389
354.287
348.182
349.179
350.178
351.273
352.147
352.83
353.625
353.867
354.148
354.23
354.219
353.904
353.504
352.83
352.314
351.276
350.476
349.211
347.892
347.017
340.811
341.574
342.357
343.305
344.074
344.672
345.349
345.53
345.787
345.841
345.784
345.549
345.176
344.666
344.218
343.301
342.694
341.597
340.493
339.79
333.397
333.959
334.605
335.405
336.033
336.543
337.113
337.212
337.455
337.473
337.413
337.238
336.88
336.513
336.159
335.33
334.927
334.043
333.127
332.545
325.955
326.385
326.894
327.525
327.976
328.419
328.862
328.877
329.108
329.101
329.101
328.959
328.652
328.369
328.05
327.427
327.162
326.495
325.749
325.313
318.537
318.831
319.177
319.645
319.971
320.317
320.587
320.621
320.799
320.773
320.799
320.696
320.452
320.283
320.002
319.57
319.389
318.938
318.405
318.08
311.144
311.279
311.514
311.789
312.001
312.213
312.321
312.391
312.446
312.464
312.49
312.457
312.253
312.228
312.004
311.764
311.639
311.381
311.05
310.866
303.752
303.776
303.864
303.953
304.01
304.081
304.126
304.168
304.15
304.183
304.186
304.19
304.094
304.107
304.017
303.943
303.894
303.827
303.708
303.638
355.601
356.703
358.119
359.394
360.485
361.519
362.048
362.334
362.71
362.776
362.801
362.348
362.081
361.386
360.485
359.42
358.478
357.168
355.57
354.465
348.139
349.107
350.284
351.465
352.358
353.273
353.673
353.898
354.26
354.281
354.336
353.966
353.693
353.119
352.37
351.39
350.604
349.496
348.09
347.127
340.712
341.491
342.477
343.538
344.269
344.992
345.32
345.563
345.793
345.863
345.911
345.632
345.32
344.897
344.31
343.452
342.789
341.858
340.645
339.849
333.28
333.896
334.707
335.603
336.141
336.767
337.079
337.24
337.429
337.499
337.574
337.339
337.02
336.696
336.193
335.507
335.01
334.253
333.2
332.604
325.832
326.385
326.986
327.688
328.081
328.576
328.804
328.949
329.144
329.158
329.211
329.042
328.764
328.506
328.088
327.573
327.194
326.648
325.762
325.317
318.393
318.871
319.272
319.778
320.034
320.359
320.575
320.702
320.867
320.859
320.88
320.741
320.503
320.328
320.077
319.702
319.388
319.057
318.382
318.111
311.033
311.336
311.578
311.871
312.026
312.203
312.351
312.424
312.519
312.507
312.53
312.457
312.319
312.186
312.062
311.865
311.618
311.428
311.05
310.878
303.713
303.786
303.871
303.982
304.033
304.084
304.137
304.151
304.213
304.189
304.204
304.193
304.126
304.082
304.033
303.961
303.886
303.823
303.717
303.639
355.576
356.7
357.98
359.483
360.533
361.323
362.143
362.649
362.634
362.809
362.727
362.616
362.141
361.461
360.547
359.402
358.378
357.154
355.842
354.379
348.186
349.131
350.173
351.452
352.409
353.075
353.819
354.213
354.235
354.377
354.291
354.215
353.784
353.189
352.362
351.394
350.537
349.481
348.339
347.089
340.745
341.531
342.426
343.529
344.318
344.887
345.514
345.809
345.844
346.002
345.875
345.822
345.441
344.941
344.213
343.4
342.752
341.826
340.861
339.855
333.31
333.945
334.667
335.617
336.228
336.656
337.152
337.444
337.461
337.625
337.502
337.468
337.147
336.763
336.127
335.466
334.967
334.198
333.378
332.611
325.901
326.38
326.94
327.723
328.16
328.491
328.853
329.123
329.171
329.208
329.129
329.131
328.932
328.595
328.059
327.599
327.191
326.59
325.922
325.375
318.496
318.827
319.235
319.821
320.05
320.325
320.633
320.809
320.86
320.86
320.772
320.826
320.698
320.416
320.024
319.714
319.452
318.992
318.473
318.147
311.107
311.312
311.546
311.892
312.048
312.177
312.397
312.509
312.542
312.535
312.464
312.532
312.459
312.26
311.986
311.825
311.688
311.411
311.066
310.891
303.723
303.799
303.891
303.988
304.059
304.074
304.155
304.204
304.201
304.195
304.189
304.185
304.174
304.105
304.019
303.966
303.911
303.835
303.713
303.638
355.676
356.827
358.144
359.324
360.44
361.39
362.078
362.422
362.704
362.895
362.689
362.664
361.883
361.243
360.584
359.509
358.292
356.968
355.829
354.122
348.257
349.214
350.302
351.318
352.315
353.17
353.78
354.025
354.315
354.441
354.29
354.273
353.577
353.028
352.406
351.483
350.475
349.293
348.382
346.874
340.819
341.612
342.458
343.4
344.197
344.933
345.437
345.686
345.903
346.064
345.906
345.927
345.293
344.865
344.252
343.474
342.691
341.641
340.934
339.657
333.368
334.054
334.664
335.53
336.136
336.708
337.13
337.404
337.535
337.691
337.56
337.577
337.029
336.733
336.142
335.519
334.942
333.993
333.499
332.468
325.943
326.477
326.943
327.635
328.125
328.55
328.893
329.078
329.174
329.323
329.207
329.208
328.786
328.599
328.099
327.579
327.191
326.348
326.039
325.272
318.523
318.911
319.215
319.726
320.06
320.376
320.669
320.741
320.833
320.98
320.832
320.872
320.543
320.439
320.077
319.714
319.43
318.746
318.56
318.061
311.131
311.366
311.528
311.853
312.057
312.231
312.42
312.43
312.518
312.611
312.512
312.534
312.313
312.282
312.059
311.842
311.659
311.241
311.151
310.838
303.745
303.808
303.872
303.965
304.048
304.073
304.188
304.171
304.206
304.238
304.2
304.193
304.111
304.118
304.064
303.975
303.897
303.772
303.727
303.631
)
;

boundaryField
{
    hotSide
    {
        type            fixedGradient;
        gradient        nonuniform List<scalar> 
400
(
455.218
468.968
482.301
495.157
507.478
519.205
530.282
540.656
550.276
559.092
567.06
574.139
580.291
585.485
589.691
592.888
595.056
596.185
596.267
595.3
467.524
481.672
495.393
508.625
521.308
533.382
544.789
555.475
565.386
574.472
582.688
589.99
596.34
601.705
606.055
609.368
611.624
612.811
612.921
611.953
478.558
493.065
507.136
520.708
533.719
546.107
557.814
568.782
578.958
588.29
596.73
604.236
610.766
616.288
620.771
624.191
626.529
627.771
627.909
626.943
488.244
503.07
517.451
531.324
544.626
557.293
569.266
580.486
590.897
600.448
609.089
616.776
623.469
629.132
633.735
637.252
639.663
640.957
641.123
640.161
496.52
511.62
526.27
540.404
553.957
566.866
579.069
590.507
601.123
610.865
619.681
627.527
634.362
640.148
644.856
648.459
650.938
652.278
652.471
651.515
503.335
518.665
533.538
547.89
561.653
574.765
587.161
598.782
609.571
619.472
628.437
636.417
643.372
649.264
654.062
657.739
660.276
661.658
661.875
660.927
508.649
524.161
539.212
553.737
567.669
580.941
593.492
605.261
616.187
626.218
635.302
643.391
650.443
656.421
661.293
665.033
667.618
669.036
669.276
668.337
512.434
528.079
543.261
557.914
571.969
585.362
598.028
609.905
620.935
631.062
640.235
648.407
655.533
661.578
666.507
670.295
672.919
674.366
674.627
673.698
514.671
530.4
545.666
560.399
574.534
588.003
600.743
612.691
623.789
633.98
643.212
651.438
658.615
664.705
669.674
673.496
676.149
677.619
677.897
676.979
515.354
531.117
546.417
561.185
575.354
588.856
601.629
613.609
624.737
634.958
644.219
652.473
659.675
665.789
670.78
674.622
677.294
678.78
679.071
678.165
514.484
530.232
545.518
560.273
574.43
587.922
600.686
612.659
623.782
633.999
643.257
651.51
658.713
664.829
669.825
673.673
676.352
677.846
678.148
677.253
512.076
527.758
542.981
557.676
571.776
585.215
597.929
609.855
620.936
631.115
640.34
648.564
655.744
661.841
666.822
670.661
673.336
674.832
675.141
674.258
508.149
523.717
538.829
553.418
567.416
580.758
593.381
605.223
616.225
626.333
635.494
643.662
650.793
656.849
661.799
665.614
668.275
669.765
670.076
669.206
502.736
518.142
533.096
547.532
561.385
574.588
587.08
598.799
609.688
619.691
628.758
636.842
643.9
649.896
654.795
658.573
661.208
662.685
662.996
662.137
495.877
511.072
525.823
540.063
553.727
566.75
579.072
590.632
601.372
611.239
620.183
628.156
635.118
641.032
645.865
649.591
652.19
653.647
653.953
653.105
487.619
502.56
517.063
531.063
544.497
557.301
569.415
580.78
591.338
601.039
609.83
617.668
624.512
630.324
635.073
638.735
641.288
642.717
643.016
642.179
478.021
492.663
506.876
520.597
533.761
546.308
558.178
569.314
579.659
589.162
597.775
605.453
612.156
617.848
622.499
626.082
628.58
629.976
630.263
629.439
467.15
481.452
495.335
508.736
521.594
533.848
545.44
556.314
566.416
575.695
584.104
591.599
598.141
603.695
608.232
611.726
614.159
615.516
615.789
614.976
455.079
469.004
482.519
495.565
508.081
520.008
531.291
541.874
551.704
560.733
568.913
576.204
582.566
587.966
592.375
595.769
598.129
599.441
599.698
598.898
441.892
455.404
468.517
481.174
493.315
504.886
515.829
526.093
535.626
544.38
552.311
559.378
565.543
570.774
575.043
578.326
580.605
581.868
582.107
581.319
)
;
    }
    coldSide
    {
        type            mixed;
        refValue        uniform 300;
        refGradient     uniform 0;
        valueFraction   uniform 0.991591;
        source          uniform 0;
        value           nonuniform List<scalar> 
400
(
300.024
300.025
300.025
300.026
300.027
300.027
300.028
300.029
300.029
300.03
300.03
300.03
300.03
300.031
300.031
300.031
300.032
300.031
300.031
300.031
300.025
300.025
300.026
300.027
300.027
300.028
300.029
300.029
300.029
300.03
300.03
300.031
300.031
300.031
300.032
300.032
300.032