/*--------------------------------*- C++ -*----------------------------------*\
| =========                 |                                                 |
| \\      /  F ield         | OpenFOAM: The Open Source CFD Toolbox           |
|  \\    /   O peration     | Version:  2212                                  |
|   \\  /    A nd           | Website:  www.openfoam.com                      |
|    \\/     M anipulation  |                                                 |
\*---------------------------------------------------------------------------*/
FoamFile
{
    version     2.0;
    format      ascii;
    arch        "LSB;label=32;scalar=64";
    class       volScalarField;
    location    "0";
    object      Ttrue;
}
// * * * * * * * * * * * * * * * * * * * * * * * * * * * * * * * * * * * * * //

dimensions      [0 0 0 1 0 0 0];

internalField   nonuniform List<scalar> 
3200
(
342.676
343.795
345.224
346.781
348.384
349.957
351.41
352.636
353.529
354.001
354.001
353.529
352.636
351.41
349.957
348.384
346.781
345.224
343.795
342.676
337.055
338.003
339.235
340.582
341.969
343.329
344.585
345.644
346.415
346.823
346.823
346.415
345.644
344.585
343.329
341.969
340.582
339.235
338.003
337.055
331.407
332.193
333.231
334.368
335.54
336.69
337.75
338.643
339.294
339.637
339.637
339.294
338.643
337.75
336.69
335.54
334.368
333.231
332.193
331.407
325.735
326.367
327.213
328.143
329.1
330.04
330.905
331.635
332.166
332.446
332.446
332.166
331.635
330.905
330.04
329.1
328.143
327.213
326.367
325.735
320.042
320.528
321.184
321.906
322.651
323.38
324.053
324.619
325.031
325.249
325.249
325.031
324.619
324.053
323.38
322.651
321.906
321.184
320.528
320.042
314.334
314.678
315.146
315.661
316.193
316.714
317.194
317.598
317.892
318.047
318.047
317.892
317.598
317.194
316.714
316.193
315.661
315.146
314.678
314.334
308.615
308.82
309.1
309.41
309.729
310.042
310.33
310.572
310.749
310.842
310.842
310.749
310.572
310.33
310.042
309.729
309.41
309.1
308.82
308.615
302.889
302.957
303.051
303.155
303.262
303.366
303.463
303.544
303.603
303.635
303.635
303.603
303.544
303.463
303.366
303.262
303.155
303.051
302.957
302.889
342.76
343.871
345.287
346.829
348.416
349.973
351.408
352.619
353.501
353.966
353.966
353.501
352.619
351.408
349.973
348.416
346.829
345.287
343.871
342.76
337.128
338.068
339.29
340.624
341.997
343.343
344.584
345.63
346.391
346.793
346.793
346.391
345.63
344.584
343.343
341.997
340.624
339.29
338.068
337.128
331.469
332.248
333.277
334.404
335.564
336.701
337.749
338.632
339.274
339.613
339.613
339.274
338.632
337.749
336.701
335.564
334.404
333.277
332.248
331.469
325.785
326.412
327.251
328.172
329.12
330.049
330.905
331.625
332.149
332.426
332.426
332.149
331.625
330.905
330.049
329.12
328.172
327.251
326.412
325.785
320.081
320.563
321.214
321.929
322.666
323.388
324.052
324.612
325.019
325.233
325.233
325.019
324.612
324.052
323.388
322.666
321.929
321.214
320.563
320.081
314.362
314.703
315.167
315.677
316.204
316.719
317.193
317.593
317.883
318.036
318.036
317.883
317.593
317.193
316.719
316.204
315.677
315.167
314.703
314.362
308.632
308.835
309.113
309.42
309.736
310.045
310.33
310.569
310.743
310.835
310.835
310.743
310.569
310.33
310.045
309.736
309.42
309.113
308.835
308.632
302.894
302.962
303.055
303.158
303.264
303.368
303.463
303.543
303.602
303.632
303.632
303.602
303.543
303.463
303.368
303.264
303.158
303.055
302.962
302.894
342.931
344.024
345.416
346.93
348.485
350.007
351.409
352.591
353.45
353.903
353.903
353.45
352.591
351.409
350.007
348.485
346.93
345.416
344.024
342.931
337.276
338.201
339.401
340.711
342.056
343.373
344.585
345.606
346.348
346.739
346.739
346.348
345.606
344.585
343.373
342.056
340.711
339.401
338.201
337.276
331.593
332.36
333.372
334.478
335.615
336.727
337.751
338.612
339.238
339.568
339.568
339.238
338.612
337.751
336.727
335.615
334.478
333.372
332.36
331.593
325.886
326.504
327.328
328.232
329.161
330.07
330.906
331.61
332.121
332.39
332.39
332.121
331.61
330.906
330.07
329.161
328.232
327.328
326.504
325.886
320.16
320.634
321.274
321.976
322.698
323.404
324.054
324.6
324.997
325.206
325.206
324.997
324.6
324.054
323.404
322.698
321.976
321.274
320.634
320.16
314.418
314.754
315.21
315.711
316.227
316.731
317.195
317.584
317.867
318.017
318.017
317.867
317.584
317.195
316.731
316.227
315.711
315.21
314.754
314.418
308.665
308.865
309.139
309.44
309.749
310.052
310.33
310.564
310.734
310.824
310.824
310.734
310.564
310.33
310.052
309.749
309.44
309.139
308.865
308.665
302.905
302.972
303.064
303.165
303.269
303.37
303.463
303.542
303.598
303.628
303.628
303.598
303.542
303.463
303.37
303.269
303.165
303.064
302.972
302.905
343.189
344.256
345.614
347.086
348.595
350.069
351.423
352.562
353.389
353.825
353.825
353.389
352.562
351.423
350.069
348.595
347.086
345.614
344.256
343.189
337.499
338.402
339.573
340.846
342.152
343.427
344.598
345.582
346.297
346.673
346.673
346.297
345.582
344.598
343.427
342.152
340.846
339.573
338.402
337.499
331.781
332.53
333.517
334.593
335.696
336.773
337.762
338.593
339.196
339.513
339.513
339.196
338.593
337.762
336.773
335.696
334.593
333.517
332.53
331.781
326.04
326.643
327.447
328.326
329.228
330.108
330.916
331.594
332.086
332.346
332.346
332.086
331.594
330.916
330.108
329.228
328.326
327.447
326.643
326.04
320.279
320.742
321.366
322.049
322.75
323.434
324.062
324.588
324.97
325.172
325.172
324.97
324.588
324.062
323.434
322.75
322.049
321.366
320.742
320.279
314.503
314.831
315.275
315.763
316.264
316.752
317.2
317.576
317.849
317.992
317.992
317.849
317.576
317.2
316.752
316.264
315.763
315.275
314.831
314.503
308.716
308.912
309.178
309.471
309.772
310.065
310.334
310.56
310.723
310.809
310.809
310.723
310.56
310.334
310.065
309.772
309.471
309.178
308.912
308.716
302.923
302.988
303.077
303.175
303.276
303.374
303.464
303.54
303.595
303.624
303.624
303.595
303.54
303.464
303.374
303.276
303.175
303.077
302.988
302.923
343.539
344.574
345.886
347.306
348.756
350.169
351.463
352.549
353.336
353.75
353.75
353.336
352.549
351.463
350.169
348.756
347.306
345.886
344.574
343.539
337.801
338.677
339.809
341.037
342.292
343.515
344.634
345.572
346.252
346.61
346.61
346.252
345.572
344.634
343.515
342.292
341.037
339.809
338.677
337.801
332.036
332.762
333.716
334.754
335.815
336.848
337.793
338.585
339.159
339.461
339.461
339.159
338.585
337.793
336.848
335.815
334.754
333.716
332.762
332.036
326.248
326.833
327.61
328.458
329.325
330.169
330.942
331.589
332.057
332.304
332.304
332.057
331.589
330.942
330.169
329.325
328.458
327.61
326.833
326.248
320.441
320.89
321.493
322.152
322.826
323.482
324.082
324.584
324.948
325.14
325.14
324.948
324.584
324.082
323.482
322.826
322.152
321.493
320.89
320.441
314.619
314.936
315.366
315.837
316.318
316.786
317.215
317.574
317.833
317.97
317.97
317.833
317.574
317.215
316.786
316.318
315.837
315.366
314.936
314.619
308.785
308.975
309.233
309.515
309.804
310.086
310.343
310.558
310.714
310.796
310.796
310.714
310.558
310.343
310.086
309.804
309.515
309.233
308.975
308.785
302.946
303.009
303.095
303.19
303.287
303.381
303.467
303.54
303.592
303.619
303.619
303.592
303.54
303.467
303.381
303.287
303.19
303.095
303.009
302.946
343.984
344.98
346.24
347.597
348.98
350.321
351.546
352.57
353.31
353.699
353.699
353.31
352.57
351.546
350.321
348.98
347.597
346.24
344.98
343.984
338.185
339.028
340.115
341.29
342.486
343.647
344.706
345.591
346.231
346.568
346.568
346.231
345.591
344.706
343.647
342.486
341.29
340.115
339.028
338.185
332.36
333.06
333.975
334.968
335.979
336.96
337.855
338.602
339.143
339.426
339.426
339.143
338.602
337.855
336.96
335.979
334.968
333.975
333.06
332.36
326.513
327.076
327.822
328.633
329.46
330.262
330.993
331.603
332.045
332.276
332.276
332.045
331.603
330.993
330.262
329.46
328.633
327.822
327.076
326.513
320.647
321.079
321.657
322.288
322.931
323.554
324.122
324.596
324.939
325.119
325.119
324.939
324.596
324.122
323.554
322.931
322.288
321.657
321.079
320.647
314.765
315.071
315.484
315.934
316.393
316.838
317.244
317.582
317.827
317.955
317.955
317.827
317.582
317.244
316.838
316.393
315.934
315.484
315.071
314.765
308.874
309.056
309.303
309.574
309.849
310.116
310.36
310.563
310.71
310.787
310.787
310.71
310.563
310.36
310.116
309.849
309.574
309.303
309.056
308.874
302.975
303.036
303.119
303.21
303.302
303.392
303.473
303.541
303.59
303.616
303.616
303.59
303.541
303.473
303.392
303.302
303.21
303.119
303.036
302.975
344.529
345.482
346.682
347.97
349.277
350.539
351.687
352.644
353.334
353.696
353.696
353.334
352.644
351.687
350.539
349.277
347.97
346.682
345.482
344.529
338.657
339.462
340.498
341.613
342.744
343.836
344.83
345.657
346.254
346.567
346.567
346.254
345.657
344.83
343.836
342.744
341.613
340.498
339.462
338.657
332.758
333.426
334.299
335.241
336.197
337.121
337.96
338.659
339.163
339.427
339.427
339.163
338.659
337.96
337.121
336.197
335.241
334.299
333.426
332.758
326.838
327.375
328.087
328.857
329.639
330.393
331.079
331.65
332.062
332.278
332.278
332.062
331.65
331.079
330.393
329.639
328.857
328.087
327.375
326.838
320.899
321.312
321.863
322.462
323.07
323.656
324.19
324.633
324.953
325.121
325.121
324.953
324.633
324.19
323.656
323.07
322.462
321.863
321.312
320.899
314.945
315.238
315.631
316.058
316.492
316.911
317.292
317.609
317.837
317.957
317.957
317.837
317.609
317.292
316.911
316.492
316.058
315.631
315.238
314.945
308.982
309.156
309.392
309.648
309.909
310.161
310.389
310.579
310.716
310.788
310.788
310.716
310.579
310.389
310.161
309.909
309.648
309.392
309.156
308.982
303.011
303.07
303.149
303.235
303.322
303.406
303.483
303.547
303.593
303.617
303.617
303.593
303.547
303.483
303.406
303.322
303.235
303.149
303.07
303.011
345.18
346.085
347.221
348.435
349.661
350.839
351.907
352.793
353.43
353.764
353.764
353.43
352.793
351.907
350.839
349.661
348.435
347.221
346.085
345.18
339.219
339.984
340.964
342.015
343.077
344.097
345.021
345.788
346.339
346.627
346.627
346.339
345.788
345.021
344.097
343.077
342.015
340.964
339.984
339.219
333.233
333.868
334.693
335.582
336.479
337.341
338.122
338.77
339.236
339.479
339.479
339.236
338.77
338.122
337.341
336.479
335.582
334.693
333.868
333.233
327.225
327.736
328.409
329.135
329.869
330.574
331.212
331.742
332.122
332.321
332.321
332.122
331.742
331.212
330.574
329.869
329.135
328.409
327.736
327.225
321.2
321.592
322.114
322.678
323.249
323.797
324.293
324.705
325
325.155
325.155
325
324.705
324.293
323.797
323.249
322.678
322.114
321.592
321.2
315.16
315.438
315.81
316.213
316.62
317.012
317.366
317.66
317.871
317.982
317.982
317.871
317.66
317.366
317.012
316.62
316.213
315.81
315.438
315.16
309.11
309.276
309.499
309.741
309.986
310.221
310.434
310.61
310.737
310.803
310.803
310.737
310.61
310.434
310.221
309.986
309.741
309.499
309.276
309.11
303.055
303.11
303.185
303.266
303.348
303.427
303.498
303.557
303.6
303.622
303.622
303.6
303.557
303.498
303.427
303.348
303.266
303.185
303.11
303.055
345.941
346.796
347.865
349.002
350.143
351.236
352.222
353.036
353.62
353.926
353.926
353.62
353.036
352.222
351.236
350.143
349.002
347.865
346.796
345.941
339.877
340.6
341.522
342.506
343.495
344.441
345.294
345.999
346.505
346.769
346.769
346.505
345.999
345.294
344.441
343.495
342.506
341.522
340.6
339.877
333.788
334.388
335.165
335.997
336.833
337.633
338.354
338.95
339.377
339.6
339.6
339.377
338.95
338.354
337.633
336.833
335.997
335.165
334.388
333.788
327.679
328.161
328.795
329.475
330.159
330.813
331.402
331.889
332.238
332.421
332.421
332.238
331.889
331.402
330.813
330.159
329.475
328.795
328.161
327.679
321.552
321.922
322.414
322.942
323.474
323.983
324.441
324.82
325.091
325.233
325.233
325.091
324.82
324.441
323.983
323.474
322.942
322.414
321.922
321.552
315.412
315.674
316.024
316.402
316.781
317.145
317.472
317.742
317.936
318.037
318.037
317.936
317.742
317.472
317.145
316.781
316.402
316.024
315.674
315.412
309.261
309.418
309.628
309.855
310.083
310.301
310.497
310.66
310.776
310.837
310.837
310.776
310.66
310.497
310.301
310.083
309.855
309.628
309.418
309.261
303.105
303.157
303.228
303.304
303.38
303.453
303.519
303.574
303.613
303.633
303.633
303.613
303.574
303.519
303.453
303.38
303.304
303.228
303.157
303.105
346.818
347.621
348.621
349.68
350.737
351.744
352.648
353.392
353.923
354.201
354.201
353.923
353.392
352.648
351.744
350.737
349.68
348.621
347.621
346.818
340.635
341.314
342.177
343.093
344.009
344.881
345.664
346.308
346.768
347.008
347.008
346.768
346.308
345.664
344.881
344.009
343.093
342.177
341.314
340.635
334.428
334.992
335.719
336.493
337.268
338.005
338.667
339.211
339.6
339.803
339.803
339.6
339.211
338.667
338.005
337.268
336.493
335.719
334.992
334.428
328.202
328.655
329.248
329.881
330.514
331.118
331.659
332.104
332.422
332.588
332.588
332.422
332.104
331.659
331.118
330.514
329.881
329.248
328.655
328.202
321.958
322.306
322.766
323.258
323.751
324.22
324.641
324.987
325.234
325.363
325.363
325.234
324.987
324.641
324.22
323.751
323.258
322.766
322.306
321.958
315.702
315.948
316.276
316.627
316.979
317.314
317.615
317.862
318.038
318.13
318.13
318.038
317.862
317.615
317.314
316.979
316.627
316.276
315.948
315.702
309.435
309.582
309.779
309.99
310.201
310.403
310.583
310.732
310.837
310.893
310.893
310.837
310.732
310.583
310.403
310.201
309.99
309.779
309.582
309.435
303.164
303.213
303.278
303.349
303.42
303.488
303.548
303.598
303.633
303.652
303.652
303.633
303.598
303.548
303.488
303.42
303.349
303.278
303.213
303.164
347.816
348.567
349.498
350.478
351.453
352.375
353.199
353.875
354.356
354.607
354.607
354.356
353.875
353.199
352.375
351.453
350.478
349.498
348.567
347.816
341.498
342.133
342.936
343.785
344.629
345.428
346.142
346.727
347.144
347.361
347.361
347.144
346.727
346.142
345.428
344.629
343.785
342.936
342.133
341.498
335.157
335.684
336.36
337.078
337.792
338.468
339.072
339.566
339.919
340.102
340.102
339.919
339.566
339.072
338.468
337.792
337.078
336.36
335.684
335.157
328.797
329.221
329.772
330.359
330.943
331.496
331.99
332.394
332.682
332.832
332.832
332.682
332.394
331.99
331.496
330.943
330.359
329.772
329.221
328.797
322.421
322.746
323.174
323.63
324.084
324.514
324.898
325.213
325.437
325.553
325.553
325.437
325.213
324.898
324.514
324.084
323.63
323.174
322.746
322.421
316.032
316.262
316.567
316.893
317.217
317.525
317.799
318.024
318.184
318.267
318.267
318.184
318.024
317.799
317.525
317.217
316.893
316.567
316.262
316.032
309.634
309.771
309.954
310.15
310.345
310.529
310.694
310.829
310.925
310.975
310.975
310.925
310.829
310.694
310.529
310.345
310.15
309.954
309.771
309.634
303.23
303.276
303.337
303.403
303.468
303.53
303.585
303.63
303.662
303.679
303.679
303.662
303.63
303.585
303.53
303.468
303.403
303.337
303.276
303.23
348.94
349.639
350.502
351.406
352.299
353.141
353.889
354.5
354.933
355.159
355.159
354.933
354.5
353.889
353.141
352.299
351.406
350.502
349.639
348.94
342.469
343.061
343.805
344.588
345.362
346.091
346.739
347.268
347.644
347.839
347.839
347.644
347.268
346.739
346.091
345.362
344.588
343.805
343.061
342.469
335.977
336.468
337.095
337.757
338.412
339.029
339.577
340.024
340.342
340.507
340.507
340.342
340.024
339.577
339.029
338.412
337.757
337.095
336.468
335.977
329.467
329.862
330.373
330.914
331.45
331.955
332.403
332.769
333.029
333.164
333.164
333.029
332.769
332.403
331.955
331.45
330.914
330.373
329.862
329.467
322.941
323.244
323.641
324.062
324.479
324.871
325.22
325.504
325.706
325.811
325.811
325.706
325.504
325.22
324.871
324.479
324.062
323.641
323.244
322.941
316.404
316.618
316.901
317.201
317.499
317.78
318.029
318.232
318.376
318.451
318.451
318.376
318.232
318.029
317.78
317.499
317.201
316.901
316.618
316.404
309.857
309.985
310.154
310.335
310.514
310.682
310.832
310.954
311.04
311.086
311.086
311.04
310.954
310.832
310.682
310.514
310.335
310.154
309.985
309.857
303.305
303.347
303.404
303.465
303.525
303.581
303.631
303.672
303.701
303.716
303.716
303.701
303.672
303.631
303.581
303.525
303.465
303.404
303.347
303.305
350.193
350.841
351.638
352.469
353.285
354.05
354.726
355.276
355.665
355.867
355.867
355.665
355.276
354.726
354.05
353.285
352.469
351.638
350.841
350.193
343.553
344.102
344.789
345.508
346.216
346.878
347.464
347.941
348.278
348.453
348.453
348.278
347.941
347.464
346.878
346.216
345.508
344.789
344.102
343.553
336.893
337.348
337.927
338.535
339.134
339.694
340.19
340.593
340.879
341.026
341.026
340.879
340.593
340.19
339.694
339.134
338.535
337.927
337.348
336.893
330.215
330.581
331.053
331.551
332.04
332.499
332.905
333.235
333.468
333.589
333.589
333.468
333.235
332.905
332.499
332.04
331.551
331.053
330.581
330.215
323.522
323.803
324.17
324.557
324.937
325.294
325.61
325.866
326.048
326.142
326.142
326.048
325.866
325.61
325.294
324.937
324.557
324.17
323.803
323.522
316.818
317.017
317.278
317.555
317.827
318.082
318.307
318.491
318.62
318.687
318.687
318.62
318.491
318.307
318.082
317.827
317.555
317.278
317.017
316.818
310.106
310.224
310.381
310.547
310.71
310.864
310.999
311.109
311.187
311.227
311.227
311.187
311.109
310.999
310.864
310.71
310.547
310.381
310.224
310.106
303.388
303.428
303.48
303.536
303.591
303.642
303.687
303.724
303.75
303.764
303.764
303.75
303.724
303.687
303.642
303.591
303.536
303.48
303.428
303.388
351.578
352.178
352.912
353.672
354.415
355.108
355.718
356.211
356.56
356.74
356.74
356.56
356.211
355.718
355.108
354.415
353.672
352.912
352.178
351.578
344.751
345.258
345.891
346.55
347.194
347.794
348.323
348.751
349.053
349.209
349.209
349.053
348.751
348.323
347.794
347.194
346.55
345.891
345.258
344.751
337.905
338.325
338.859
339.416
339.961
340.469
340.916
341.278
341.534
341.666
341.666
341.534
341.278
340.916
340.469
339.961
339.416
338.859
338.325
337.905
331.042
331.38
331.815
332.271
332.717
333.132
333.498
333.795
334.004
334.112
334.112
334.004
333.795
333.498
333.132
332.717
332.271
331.815
331.38
331.042
324.165
324.425
324.762
325.116
325.463
325.787
326.071
326.302
326.464
326.548
326.548
326.464
326.302
326.071
325.787
325.463
325.116
324.762
324.425
324.165
317.277
317.461
317.701
317.954
318.202
318.433
318.637
318.802
318.918
318.978
318.978
318.918
318.802
318.637
318.433
318.202
317.954
317.701
317.461
317.277
310.381
310.491
310.635
310.787
310.936
311.075
311.197
311.296
311.366
311.402
311.402
311.366
311.296
311.197
311.075
310.936
310.787
310.635
310.491
310.381
303.48
303.517
303.565
303.616
303.666
303.713
303.754
303.787
303.81
303.822
303.822
303.81
303.787
303.754
303.713
303.666
303.616
303.565
303.517
303.48
353.096
353.65
354.323
355.018
355.693
356.319
356.867
357.31
357.621
357.782
357.782
357.621
357.31
356.867
356.319
355.693
355.018
354.323
353.65
353.096
346.064
346.532
347.113
347.714
348.3
348.842
349.318
349.701
349.971
350.11
350.11
349.971
349.701
349.318
348.842
348.3
347.714
347.113
346.532
346.064
339.013
339.401
339.891
340.4
340.895
341.354
341.757
342.081
342.31
342.427
342.427
342.31
342.081
341.757
341.354
340.895
340.4
339.891
339.401
339.013
331.947
332.259
332.659
333.075
333.48
333.856
334.185
334.451
334.638
334.734
334.734
334.638
334.451
334.185
333.856
333.48
333.075
332.659
332.259
331.947
324.868
325.108
325.418
325.741
326.057
326.349
326.605
326.812
326.957
327.032
327.032
326.957
326.812
326.605
326.349
326.057
325.741
325.418
325.108
324.868
317.779
317.949
318.17
318.401
318.626
318.835
319.018
319.166
319.27
319.323
319.323
319.27
319.166
319.018
318.835
318.626
318.401
318.17
317.949
317.779
310.683
310.784
310.916
311.055
311.19
311.316
311.426
311.515
311.577
311.609
311.609
311.577
311.515
311.426
311.316
311.19
311.055
310.916
310.784
310.683
303.581
303.615
303.66
303.706
303.752
303.794
303.83
303.86
303.881
303.892
303.892
303.881
303.86
303.83
303.794
303.752
303.706
303.66
303.615
303.581
354.743
355.252
355.869
356.502
357.115
357.679
358.172
358.568
358.846
358.989
358.989
358.846
358.568
358.172
357.679
357.115
356.502
355.869
355.252
354.743
347.487
347.917
348.45
348.998
349.529
350.019
350.446
350.789
351.03
351.154
351.154
351.03
350.789
350.446
350.019
349.529
348.998
348.45
347.917
347.487
340.214
340.571
341.02
341.484
341.933
342.348
342.709
343
343.204
343.309
343.309
343.204
343
342.709
342.348
341.933
341.484
341.02
340.571
340.214
332.928
333.215
333.581
333.96
334.328
334.667
334.963
335.201
335.368
335.454
335.454
335.368
335.201
334.963
334.667
334.328
333.96
333.581
333.215
332.928
325.63
325.85
326.134
326.429
326.715
326.979
327.21
327.395
327.524
327.591
327.591
327.524
327.395
327.21
326.979
326.715
326.429
326.134
325.85
325.63
318.323
318.478
318.681
318.892
319.096
319.285
319.45
319.582
319.675
319.722
319.722
319.675
319.582
319.45
319.285
319.096
318.892
318.681
318.478
318.323
311.009
311.102
311.223
311.35
311.472
311.586
311.685
311.764
311.82
311.849
311.849
311.82
311.764
311.685
311.586
311.472
311.35
311.223
311.102
311.009
303.691
303.722
303.762
303.805
303.846
303.884
303.917
303.944
303.963
303.972
303.972
303.963
303.944
303.917
303.884
303.846
303.805
303.762
303.722
303.691
356.501
356.969
357.534
358.111
358.666
359.175
359.618
359.972
360.22
360.348
360.348
360.22
359.972
359.618
359.175
358.666
358.111
357.534
356.969
356.501
349.003
349.399
349.887
350.386
350.867
351.309
351.693
352.001
352.215
352.326
352.326
352.215
352.001
351.693
351.309
350.867
350.386
349.887
349.399
349.003
341.492
341.82
342.231
342.654
343.061
343.435
343.76
344.021
344.203
344.296
344.296
344.203
344.021
343.76
343.435
343.061
342.654
342.231
341.82
341.492
333.97
334.234
334.569
334.914
335.248
335.554
335.821
336.034
336.183
336.259
336.259
336.183
336.034
335.821
335.554
335.248
334.914
334.569
334.234
333.97
326.438
326.64
326.9
327.169
327.429
327.667
327.874
328.04
328.156
328.216
328.216
328.156
328.04
327.874
327.667
327.429
327.169
326.9
326.64
326.438
318.899
319.042
319.227
319.42
319.605
319.776
319.924
320.042
320.125
320.168
320.168
320.125
320.042
319.924
319.776
319.605
319.42
319.227
319.042
318.899
311.354
311.44
311.551
311.666
311.778
311.88
311.969
312.04
312.09
312.116
312.116
312.09
312.04
311.969
311.88
311.778
311.666
311.551
311.44
311.354
303.806
303.835
303.872
303.911
303.948
303.983
304.012
304.036
304.053
304.062
304.062
304.053
304.036
304.012
303.983
303.948
303.911
303.872
303.835
303.806
358.326
358.756
359.274
359.8
360.304
360.764
361.163
361.481
361.702
361.817
361.817
361.702
361.481
361.163
360.764
360.304
359.8
359.274
358.756
358.326
350.569
350.934
351.381
351.837
352.274
352.674
353.019
353.295
353.488
353.587
353.587
353.488
353.295
353.019
352.674
352.274
351.837
351.381
350.934
350.569
342.806
343.108
343.485
343.871
344.242
344.58
344.873
345.107
345.27
345.354
345.354
345.27
345.107
344.873
344.58
344.242
343.871
343.485
343.108
342.806
335.037
335.28
335.588
335.904
336.207
336.484
336.724
336.916
337.049
337.118
337.118
337.049
336.916
336.724
336.484
336.207
335.904
335.588
335.28
335.037
327.263
327.45
327.689
327.934
328.17
328.387
328.573
328.722
328.826
328.88
328.88
328.826
328.722
328.573
328.387
328.17
327.934
327.689
327.45
327.263
319.486
319.618
319.788
319.964
320.133
320.287
320.421
320.527
320.602
320.64
320.64
320.602
320.527
320.421
320.287
320.133
319.964
319.788
319.618
319.486
311.706
311.785
311.887
311.992
312.094
312.186
312.267
312.331
312.375
312.398
312.398
312.375
312.331
312.267
312.186
312.094
311.992
311.887
311.785
311.706
303.924
303.95
303.985
304.02
304.054
304.085
304.112
304.134
304.149
304.156
304.156
304.149
304.134
304.112
304.085
304.054
304.02
303.985
303.95
303.924
360.097
360.494
360.972
361.455
361.916
362.336
362.697
362.985
363.185
363.288
363.288
363.185
362.985
362.697
362.336
361.916
361.455
360.972
360.494
360.097
352.071
352.408
352.821
353.24
353.641
354.006
354.32
354.57
354.744
354.834
354.834
354.744
354.57
354.32
354.006
353.641
353.24
352.821
352.408
352.071
344.053
344.332
344.681
345.036
345.376
345.685
345.952
346.164
346.312
346.388
346.388
346.312
346.164
345.952
345.685
345.376
345.036
344.681
344.332
344.053
336.04
336.266
336.55
336.841
337.12
337.374
337.592
337.766
337.887
337.95
337.95
337.887
337.766
337.592
337.374
337.12
336.841
336.55
336.266
336.04
328.033
328.206
328.427
328.654
328.871
329.069
329.239
329.375
329.469
329.518
329.518
329.469
329.375
329.239
329.069
328.871
328.654
328.427
328.206
328.033
320.03
320.153
320.31
320.473
320.628
320.769
320.891
320.988
321.056
321.091
321.091
321.056
320.988
320.891
320.769
320.628
320.473
320.31
320.153
320.03
312.031
312.104
312.198
312.296
312.389
312.474
312.547
312.606
312.646
312.667
312.667
312.646
312.606
312.547
312.474
312.389
312.296
312.198
312.104
312.031
304.033
304.057
304.089
304.121
304.153
304.181
304.206
304.225
304.239
304.246
304.246
304.239
304.225
304.206
304.181
304.153
304.121
304.089
304.057
304.033
361.497
361.871
362.32
362.773
363.204
363.596
363.932
364.199
364.385
364.48
364.48
364.385
364.199
363.932
363.596
363.204
362.773
362.32
361.871
361.497
353.213
353.531
353.92
354.315
354.691
355.032
355.326
355.559
355.721
355.804
355.804
355.721
355.559
355.326
355.032
354.691
354.315
353.92
353.531
353.213
344.971
345.235
345.565
345.9
346.22
346.51
346.76
346.958
347.096
347.166
347.166
347.096
346.958
346.76
346.51
346.22
345.9
345.565
345.235
344.971
336.761
336.974
337.244
337.519
337.782
338.02
338.225
338.388
338.502
338.56
338.56
338.502
338.388
338.225
338.02
337.782
337.519
337.244
336.974
336.761
328.576
328.74
328.949
329.164
329.369
329.555
329.715
329.843
329.931
329.976
329.976
329.931
329.843
329.715
329.555
329.369
329.164
328.949
328.74
328.576
320.409
320.525
320.675
320.828
320.975
321.109
321.223
321.314
321.378
321.41
321.41
321.378
321.314
321.223
321.109
320.975
320.828
320.675
320.525
320.409
312.254
312.324
312.414
312.506
312.594
312.675
312.744
312.798
312.836
312.856
312.856
312.836
312.798
312.744
312.675
312.594
312.506
312.414
312.324
312.254
304.107
304.13
304.16
304.191
304.221
304.248
304.271
304.289
304.302
304.309
304.309
304.302
304.289
304.271
304.248
304.221
304.191
304.16
304.13
304.107
)
;

boundaryField
{
    hotSide
    {
        type            fixedGradient;
        gradient        nonuniform List<scalar> 
400
(
447.079
448.014
449.897
452.75
456.606
461.508
467.503
474.643
482.981
492.572
503.467
515.717
529.365
544.452
561.014
579.08
598.677
619.825
642.54
666.834
461.826
462.645
464.298
466.817
470.246
474.64
480.063
486.581
494.264
503.18
513.394
524.967
537.953
552.401
568.35
585.836
604.887
625.523
647.763
671.618
477.785
478.465
479.845
481.967
484.891
488.688
493.441
499.237
506.163
514.307
523.748
534.561
546.809
560.549
575.828
592.683
611.144
631.235
652.971
676.363
494.693
495.21
496.272
497.935
500.276
503.388
507.377
512.355
518.432
525.715
534.303
544.282
555.729
568.708
583.271
599.459
617.303
636.826
658.043
680.961
512.076
512.41
513.116
514.265
515.956
518.308
521.458
525.542
530.698
537.056
544.733
553.832
564.44
576.63
590.456
605.964
623.184
642.137
662.836
685.286
529.21
529.349
529.674
530.275
531.276
532.828
535.097
538.252
542.457
547.868
554.621
562.834
572.605
584.012
597.117
611.962
628.578
646.985
667.191
689.198
545.113
545.057
545.002
545.059
545.378
546.142
547.549
549.801
553.089
557.593
563.468
570.846
579.834
590.516
602.955
617.195
633.263
651.177
670.941
692.554
558.611
558.379
557.982
557.549
557.259
557.321
557.965
559.421
561.908
565.623
570.74
577.402
585.723
595.791
607.671
621.404
637.018
654.525
673.926
695.216
568.489
568.122
567.463
566.657
565.902
565.432
565.5
566.358
568.245
571.374
575.93
582.064
589.897
599.518
610.991
624.359
639.646
656.861
676.004
697.065
573.724
573.283
572.481
571.472
570.465
569.707
569.463
569.999
571.564
574.379
578.636
584.49
592.064
601.448
612.708
625.884
641
658.063
677.071
698.013
573.724
573.283
572.481
571.472
570.465
569.707
569.463
569.999
571.564
574.379
578.636
584.49
592.064
601.448
612.708
625.884
641
658.063
677.071
698.013
568.489
568.122
567.463
566.657
565.902
565.432
565.5
566.358
568.245
571.374
575.93
582.064
589.897
599.518
610.991
624.359
639.646
656.861
676.004
697.065
558.611
558.379
557.982
557.549
557.259
557.321
557.965
559.421
561.908
565.623
570.74
577.402
585.723
595.791
607.671
621.404
637.018
654.525
673.926
695.216
545.113
545.057
545.002
545.059
545.378
546.142
547.549
549.801
553.089
557.593
563.468
570.846
579.834
590.516
602.955
617.195
633.263
651.177
670.941
692.554
529.21
529.349
529.674
530.275
531.276
532.828
535.097
538.252
542.457
547.868
554.621
562.834
572.605
584.012
597.117
611.962
628.578
646.985
667.191
689.198
512.076
512.41
513.116
514.265
515.956
518.308
521.458
525.542
530.698
537.056
544.733
553.832
564.44
576.63
590.456
605.964
623.184
642.137
662.836
685.286
494.693
495.21
496.272
497.935
500.276
503.388
507.377
512.355
518.432
525.715
534.303
544.282
555.729
568.708
583.271
599.459
617.303
636.826
658.043
680.961
477.785
478.465
479.845
481.967
484.891
488.688
493.441
499.237
506.163
514.307
523.748
534.561
546.809
560.549
575.828
592.683
611.144
631.235
652.971
676.363
461.826
462.645
464.298
466.817
470.246
474.64
480.063
486.581
494.264
503.18
513.394
524.967
537.953
552.401
568.35
585.836
604.887
625.523
647.763
671.618
447.079
448.014
449.897
452.75
456.606
461.508
467.503
474.643
482.981
492.572
503.467
515.717
529.365
544.452
561.014
579.08
598.677
619.825
642.54
666.834
)
;
    }
    coldSide
    {
        type            mixed;
        refValue        uniform 300;
        refGradient     uniform 0;
        valueFraction   uniform 0.991591;
        source          uniform 0;
        value           nonuniform List<scalar> 
400
(
300.024
300.024
300.024
300.025
300.025
300.025
300.025
300.026
300.026
300.027
300.027
300.028
300.028
300.029
300.03
300.031
300.032
300.033
300.034
300.035
300.025
300.025
300.025
300.025
300.025
300.026
300.026
300.026
300.027
300.027
300.028
300.028
300.029
300.03
300.03
300.031
300.032
300.033
300.034
300.035
300.026
300.026
300.026
300.026
300.026