/*--------------------------------*- C++ -*----------------------------------*\
| =========                 |                                                 |
| \\      /  F ield         | OpenFOAM: The Open Source CFD Toolbox           |
|  \\    /   O peration     | Version:  2212                                  |
|   \\  /    A nd           | Website:  www.openfoam.com                      |
|    \\/     M anipulation  |                                                 |
\*---------------------------------------------------------------------------*/
FoamFile
{
    version     2.0;
    format      ascii;
    arch        "LSB;label=32;scalar=64";
    class       volScalarField;
    location    "0";
    object      stateMean;
}
// * * * * * * * * * * * * * * * * * * * * * * * * * * * * * * * * * * * * * //

dimensions      [0 0 0 1 0 0 0];

internalField   nonuniform List<scalar> 
3200
(
342.713
344.265
340.689
347.352
346.867
346.747
345.585
345.189
347.369
347.956
347.939
349.222
345.656
347.067
348.155
345.888
342.855
341.94
341.951
341.227
339.597
337.548
341.706
335.44
340.21
340.066
340.841
341.659
341.427
341.389
340.345
339.583
338.689
338.441
341.037
336.327
335.983
337.747
336.716
335.606
330.515
331.686
328.6
332.385
335.186
333.178
335.539
334.935
335.068
335.739
336.707
334.986
332.943
334.279
332.635
332.893
331.76
332.411
329.381
329.854
326.415
327.203
327.386
328.729
329.368
328.368
328.734
327.357
325.824
329.608
330.611
328.573
331.559
330.432
327.886
327.327
326.476
325.134
326.9
328.499
319.289
319.961
322.334
322.86
321.296
324.241
321.424
321.645
324.264
322.138
321.128
318.923
321.775
321.937
321.657
320.881
320.351
319.794
319.095
320.309
314.965
317.026
312.41
316.006
315.658
313.882
313.732
318.729
317.049
315.964
317.988
315.121
316.381
314.756
314.995
314.819
313.646
313.343
316.026
313.35
307.681
309.531
308.521
311.269
308.242
308.196
307.77
310.52
308.535
310.179
309.053
308.843
310.673
310.185
307.866
309.824
310.639
308.463
307.848
306.626
302.923
303.349
302.793
304.516
303.295
302.293
303.207
305.192
301.404
300.009
303.544
301.715
303.089
304.955
304.384
306.748
303.83
300.668
301.305
300.909
341.616
347.669
345.529
347.823
344.304
344.59
349.971
348.97
347.858
346.798
349.601
348.057
347.883
347.739
349.157
345.766
345.838
343.733
343.294
341.916
339.322
340.991
339.175
339.283
342.802
343.117
340.596
344.329
338.915
345.293
345.982
338.979
344.699
342.819
342.504
339.019
339.855
338.371
337.742
335.637
332.229
335.024
335.774
334.256
335.434
332.205
335.184
336.24
334.823
338.984
336.941
335.783
333.833
333.997
334.046
331.668
334.291
332.72
333.549
333.196
326.561
329.624
328.515
326.948
327.962
326.733
329.946
328.171
330.814
329.02
328.526
327.129
327.85
329.668
332.813
328.129
326.289
329.702
324.555
324.008
320.508
319.14
322.4
320.669
323.364
324.891
319.986
324.103
322.474
321.667
321.583
324.081
321.25
324.284
322.947
320.897
320.914
318.192
319.63
322.839
313.626
315.629
316.128
318.731
317.896
317.29
316.303
314.777
314.226
315.489
318.082
316.895
315.068
316.799
314.805
317.433
315.144
317.692
312.938
312.589
308.589
309.278
308.065
308.982
309.993
306.748
310.121
309.395
310.759
310.079
308.776
309.151
310.822
307.411
309.861
308.722
311.671
308.925
308.751
309.861
303.056
301.591
304.678
304.726
304.522
301.456
303.123
304.301
304.733
302.106
305.312
303.611
302.697
298.013
303.919
305.209
303.065
303.805
303.008
303.225
345.936
345.228
348.51
348.439
347.733
348.184
350.887
347.579
351.48
350.821
349.668
349.827
348.794
347.237
349.869
347.322
347.005
347.137
342.508
345.163
340.532
339.325
340.152
340.348
342.516
341.472
343.482
342.466
343.344
341.265
342.29
342.782
338.147
340.151
342.781
341.161
339.024
340.792
338.463
336.624
330.832
332.755
336.236
335.643
335.562
338.238
333.608
336.646
337.712
336.096
336.913
335.376
337.978
338.006
337.25
334.357
335.149
333.429
334.018
331.157
328.876
324.253
326.88
328.682
330.139
328.964
331.175
327.507
330.887
328.55
330.861
329.984
330.215
330.87
329.591
327.23
329.038
325.354
326.604
326.776
320.96
322.242
322.949
321.132
323.082
325.716
326.193
321.54
323.418
324.334
324.985
321.78
324.671
324.145
325.202
322.311
323.063
323.895
318.664
318.887
316.046
313.283
316.31
316.875
317.645
314.813
316.635
315.026
317.829
317.671
315.346
317.398
317.359
318.505
317.681
316.256
318.112
315.807
315.161
313.747
311.269
309.596
308.263
311.521
311.383
307.197
310.581
308.272
308.696
308.466
311.915
309.329
308.15
312.345
309.685
308.658
308.263
309.465
308.608
307.41
304.853
305.934
303.291
301.371
302.478
300.879
305.938
301.93
302.143
303.064
303.567
302.669
301.26
305.306
301.169
304.038
300.837
303.417
302.671
302.564
344.812
345.592
346.946
345.862
347.763
350.521
350.99
351.533
352.64
352.109
348.845
348.363
350.717
350.246
348.793
345.736
344.282
345.077
345.105
343.438
340.138
340.736
341.962
341.014
342.111
342.53
343.532
345.328
344.87
345.147
346.02
343.699
345.109
346.926
342.622
341.061
340.807
339.608
338.973
339.73
334.952
330.762
333.976
335.037
334.951
335.218
335.434
336.196
338.153
336.587
337.153
335.479
337.503
336.05
337.282
334.447
332.213
331.812
335.855
333.218
326.46
325.797
327.425
332.563
329.515
330.172
330.283
329.197
331.844
332.74
328.815
330.234
330.536
332.282
330.207
327.641
328.843
328.285
326.148
327.968
319.885
322.207
322.735
323.348
322.409
325.036
324.671
324.318
323.584
321.959
325.92
323.622
322.35
325.463
324.4
321.347
321.759
321.476
321.444
321.748
312.36
314.892
317.004
318.263
313.747
316.563
316.757
317.924
317.144
317.078
315.938
318.167
316.56
317.36
316.636
316.685
317.558
318.559
317.366
314.643
307.601
308.24
308.264
310.048
308.648
307.541
311.552
308.702
309.89
312.015
313.017
310.627
310.375
307.183
309.223
310.437
308.721
315.969
311.838
310.67
305.255
304.25
304.618
302.539
300.466
302.654
302.29
304.983
306.185
303.254
304.666
303.349
303.843
301.115
301.287
302.617
301.322
304.157
304.97
303.926
348.693
345.353
348.359
347.61
350.351
350.119
352.668
352.178
353.268
352.003
351.842
351.407
350.855
349.281
349.805
350.529
347.881
347.143
344.348
345.425
340.948
341.631
341.22
343.057
342.602
343.622
345.877
347.174
347.614
342.65
346.604
344.68
344.972
343.411
343.776
341.176
340.509
341.875
339.621
338.135
335.716
335.083
334.911
337.617
337.393
338.136
333.613
339.288
338.921
339.141
338.697
338.682
335.798
335.426
336.821
334.951
336.657
331.606
332.467
331.901
326.26
328.588
328.28
327.905
328.026
332.568
329.767
329.949
334.37
332.196
330.657
332.79
332.053
329.333
327.976
330.616
329.959
327.127
327.449
328.12
323.238
321.407
322.556
323.791
323.238
322.458
324.425
321.009
323.53
326.173
325.369
324.279
322.766
324.626
323.997
323
324.842
322.208
323.4
321.72
315.329
315.129
316.949
315.506
316.198
317.89
318.356
317.491
316.182
315.823
316.668
316.987
314.438
315.677
314.047
315.263
314.827
315.38
315.777
313.252
311.297
308.807
309.611
309.489
308.786
310.291
311.101
310.22
310.114
309.291
308.298
313.489
313.646
311.609
308.679
308.262
309.242
308.892
310.276
310.073
306.489
299.742
303.321
304.036
302.826
303.503
302.097
302.957
304.118
302.912
304.653
303.772
304.51
304.374
301.863
301.906
302.042
303.416
301.798
302.959
349.25
347.535
350.489
348.863
352.191
351.626
350.202
354.075
350.294
352.197
351.071
351.602
349.827
350.013
353.679
350.532
350.734
346.962
347.329
349.738
342.039
339.276
342.314
341.446
345.737
343.696
345.363
344.959
346.696
345.606
345.518
344.373
344.683
346.804
343.026
342.726
341.368
340.809
339.641
338.906
336.448
335.899
334.573
337.965
336.956
337.741
338.669
338.591
340.952
337.666
340.407
340.574
338.548
336.235
336.505
335.738
337.312
335.32
336.662
334.161
330.508
327.758
330.018
332.369
332.013
329.981
329.127
333.015
333.364
334.398
333.181
332.447
329.232
330.171
329.933
331.538
330.333
330.695
328.794
328.354
321.022
320.85
323.116
325.248
324.569
322.88
328.281
324.506
323.378
326.29
326.904
326.42
325.58
322.699
322.236
325.347
322.818
322.155
320.874
320.415
317.44
315.543
317.239
315.926
317.256
315.51
318.616
319.271
314.174
316.43
316.008
318.481
313.594
316.533
317.479
315.224
316.993
317.776
314.468
316.064
309.678
311.461
306.414
308.992
309.388
307.258
312.781
311.81
309.511
308.816
311.105
311.18
307.585
308.06
309.531
307.218
309.702
309.59
310.834
308.366
300.741
302.908
303.041
301.467
301.351
307.156
303.208
302.07
302.668
303.437
303.574
303.443
305.533
302.24
301.804
301.824
301.623
303.082
304.255
303.875
348.008
352.051
351.225
349.653
350.687
351.539
350.853
353.974
354.3
355.376
353.667
354.02
351.773
350.665
350.39
351.145
350.189
350.461
349.821
344.603
340.652
341.733
341.952
344.057
345
345.652
346.09
347.63
347.84
347.558
343.432
346.804
344.156
349.847
344.381
342.889
342.155
343.618
341.673
339.465
333.853
334.965
339.079
336.677
339.808
338.098
339.062
342.135
340.076
337.54
341.131
338.554
339.982
336.604
337.628
337.781
336.352
334.839
335.5
337.442
328.685
330.649
330.049
330.619
334.982
332.13
334.984
332.868
332.012
333.42
331.885
332.607
330.137
329.669
330.259
331.707
332.64
326.862
329.206
330.355
322.337
323.267
322.694
326.108
325.908
325.431
325.083
326.177
325.727
325.651
324.841
326.901
322.7
325.925
324.433
322.906
325.165
321.922
320.903
322.615
312.796
318.191
311.83
317.111
317.642
318.026
318.518
318.666
320.21
315.986
320.69
319.011
319.002
314.332
315.44
317.314
315.712
316.622
314.119
315.204
311.322
308.436
310.281
311.462
311.533
310.438
310.578
309.862
311.164
310.155
311.337
310.776
309.808
313.341
310.791
309.92
311.914
311.169
310.147
310.306
303.988
303.904
304.316
303.818
304.687
301.155
302.768
303.333
301.894
301.472
305.287
304.404
303.498
303.127
303.192
298.768
302.384
302.555
302.016
302.546
348.375
349.803
352.473
354.274
351.052
354.53
353.945
351.952
353.528
353.28
356.403
356.957
355.858
354.109
353.337
351.275
350.5
350.163
348.508
346.479
343.898
340.418
343.933
342.856
347.356
343.521
350.658
345.144
347.962
346.608
345.775
348.608
345.225
346.215
343.948
344.586
341.812
343.968
340.051
339.67
336.482
339.799
336.28
337.697
339.511
338.342
339.579
337.449
340.301
342.632
339.949
340.909
339.836
339.336
338.93
337.151
336.19
337.194
334.053
333.393
330.201
329.875
330.6
329.907
331.884
333.152
332.445
333.657
331.781
331.727
332.195
333.141
331.195
333.054
330.609
331.669
330.023
331.143
328.436
326.832
325.841
323.634
326.081
325.05
326.04
323.896
323.189
325.591
325.528
327.145
327.16
324.727
327.331
324.559
325.817
322.654
324.515
323.194
322.034
324.147
316.42
319.854
319.326
317.93
317.809
315.875
319.861
318.955
317.624
319.454
316.951
317.916
320.4
319.319
316.395
317.647
314.79
319.221
318.45
315.736
307.611
311.12
311.324
311.63
310.787
310.183
310.14
313.771
310.829
313.883
311.986
308.549
309.73
308.702
310.532
311.169
312.27
312.603
311.132
309.535
304.372
302.01
303.698
302.203
298.731
302.045
302.634
305.595
304.705
303.428
305.601
302.735
304.069
306.628
304.991
303.59
301.953
300.808
302.062
303.182
348.733
351.017
351.335
353.655
353.266
354.994
354.911
356.89
358.075
357.139
354.514
356.381
354.24
352.796
354.444
350.755
350.742
351.511
347.258
347.477
341.692
345.779
347.4
346.231
348.654
348.112
348.769
349.33
348.536
347.849
350.768
348.874
348.369
347.814
346.517
343.578
345.657
343.451
340.91
340.378
337.251
337.245
338.465
343.188
341.051
338.293
341.447
341.35
341.572
341.514
340.739
339.733
341.207
338.893
340.267
340.381
340.017
338.928
337.853
333.965
330.271
331.394
333.931
332.623
331.119
333.554
333.193
332.716
335.719
332.718
331.929
331.274
331.979
332.989
333.366
331.072
334.185
330.458
328.507
330.065
324.025
324.368
325.487
324.994
323.38
325.138
324.137
324.193
328.452
327.15
327.071
327.06
326.16
325.653
322.54
324.085
323.792
320.158
323.674
321.839
317.387
318.895
316.418
318.72
318.945
321.272
317.178
317.681
317.111
316.993
319.019
319.415
319.188
318.714
319.303
318.318
319.307
313.663
318.897
317.655
311.788
307.103
311.322
310.36
311.329
311.128
313.333
309.531
312.401
312.079
312.677
311.577
313.092
309.848
310.549
310.087
312.905
310.719
310.07
311.812
304.526
303.592
303.989
303.727
306.595
304.859
305.535
301.822
304.629
303.37
301.977
303.392
303.092
305.011
302.414
304.895
302.82
306.756
302.417
303.525
351.452
352.51
354.939
354.616
354.781
358.656
356.834
356.698
357.485
356.691
356.131
357.975
354.842
355.485
354.859
354.315
349.585
349.754
347.654
349.319
347.031
340.607
342.876
343.212
346.896
344.264
349.218
346.078
349.197
347.812
347.067
349.765
346.609
344.991
344.779
345.66
343.032
341.183
341.991
340.816
338.141
340.311
339.292
337.476
339.975
338.601
341.42
339.636
339.966
342.061
342.957
343.378
339.756
340.549
337.906
341.381
339.508
337.512
336.601
335.22
327.623
332.734
331.017
334.734
334.306
334.432
332.46
334.839
334.152
334.476
335.193
335.065
332.622
335.34
336.217
333.623
331.839
330.793
329.385
328.419
323.72
329.754
323.824
324.842
324.928
325.28
330.663
326.363
326.605
327.105
325.942
327.187
326.265
324.866
323.996
325.704
325.804
325.741
322.06
322.374
315.703
318.793
317.285
317.926
318.778
317.441
323.216
320.949
318.607
321.134
319.833
317.51
320.341
318.121
316.207
318.476
317.966
317.317
317.218
316.408
310.35
310.28
310.417
310.833
313.653
311.367
313.126
309.935
311.745
310.862
311.353
311.052
312.842
311.214
313.053
310.956
311.758
309.861
308.746
310.32
304.21
302.339
301.548
302.825
303.204
301.921
304.215
305.322
302.046
304.432
305.016
305.368
305.252
302.645
305.663
303.636
301.094
305.319
303.158
305.062
352.732
353.404
353.797
354.478
355.49
356.604
352.794
355.295
355.099
357.733
357.955
357.316
355.715
357.3
358.235
354.013
353.237
350.067
352.485
351.901
346.343
343.806
347.147
345.922
350.315
345.475
348.281
346.17
349.236
347.489
347.412
350.465
347.05
348.481
345.449
347.651
343.915
345.794
341.921
343.669
341.678
339.833
336.797
340.624
341.2
343.399
341.176
342.853
343.968
342.386
343.121
339.874
342.115
341.303
341.066
343.147
341.638
338.839
340.196
336.7
332.637
331.23
334.916
332.413
334.931
332.084
332.706
333.636
334.69
334.478
336.671
335.071
334.653
333.235
334.165
333.169
332.14
332.212
330.448
330.864
323.731
323.204
323.226
326.69
329.48
325.352
329.34
329.446
326.257
325.95
328.061
326.294
325.453
326.936
327.062
326.777
324.679
324.629
323.276
321.809
318.043
320.528
316.888
317.677
317.35
320.085
317.924
317.794
319.355
319.691
317.149
318.497
320.137
318.402
321.038
318.353
317.404
318.567
316.096
317.726
311.121
307.962
311.178
311.596
309.186
312.314
307.424
310.579
311.675
310.379
313.584
310.463
310.992
310.665
309.897
312.5
312.17
309.07
306.213
309.409
306.863
303.436
304.235
302.067
301.261
303.014
301.74
304.513
304.063
306.937
302.587
305.452
306.23
304.232
303.567
299.861
302.993
305.171
299.749
305.362
354.01
350.991
356.926
354.4
352.526
357.785
359.7
356.403
358.501
356.212
358.817
358.283
357.371
356.45
358.04
355.389
354.624
351.815
348.841
350.114
345.447
342.237
346.955
346.321
345.929
349.724
351.551
353.635
349.076
352.897
348.957
349.575
349.514
350.904
347.88
351.796
349.627
346.609
346.148
344.879
337.964
338.383
341.787
342.161
341.574
343.083
344.103
341.986
345.188
343.159
343.454
342.927
343.268
341.687
341.204
342.489
339.072
340.062
337.076
336.534
332.845
332.236
334.982
332.296
333.24
336.077
334.958
332.507
337.697
334.644
333.834
335.754
335.008
337.963
335.361
331.484
331.077
333.049
331.536
329.988
324.599
323.079
326.776
326.957
326.725
327.113
327.288
329.627
326.601
329.348
329.465
328.174
329.292
328.632
324.827
324.743
325.8
324.96
326.98
325.404
317.241
317.288
318.189
319.129
319.995
319.667
319.54
320.77
322.002
317.317
320.17
318.94
318.418
317.355
319.696
317.039
317.295
316.833
318.565
317.488
314.268
307.209
312.42
313.598
313.595
312.956
310.625
312.012
309.448
309.749
313.05
312.328
312.743
312.002
313.535
310.12
311.323
312.637
311.347
311.894
302.731
303.237
305.086
304.112
305.828
303.216
303.704
303.506
305.101
303.432
302.773
304.651
303.431
305.526
305.882
303.432
303.056
306.606
303.507
301.415
352.468
354.205
354.433
352.611
355.81
357.181
360.647
357.022
357.149
356.507
355.69
358.258
355.516
357.88
354.088
355.817
351.905
348.339
351.349
351.475
346.626
344.935
346.303
346.567
349.772
346.846
350.396
348.909
352.215
349.149
348.302
350.753
347.924
349.427
347.447
348.562
346.467
346.824
344.598
346.123
339.546
341.344
340.444
340.72
340.096
341.092
343.9
341.727
344.602
342.761
343.911
342.67
341.855
342.681
341.115
341.265
341.226
339.115
337
338.108
334.194
332.578
333.076
333.424
335.769
333.222
334.618
332.867
337.821
333.65
336.945
335.98
335.759
336.788
335.644
333.018
332.389
332.989
330.693
330.881
326.765
325.514
326.113
326.41
328.637
324.952
326.579
326.51
328.805
326.369
326.855
329.205
328.99
326.311
326.723
325.883
325.235
323.782
323.381
323.416
318.266
317.309
319.784
317.634
319.834
319.753
317.561
320.501
317.402
319.735
319.185
319.935
319.479
320.709
319.698
318.156
316.972
317.646
319.991
316.309
311.584
310.379
310.055
311.475
314.376
310.796
312.714
314.698
312.361
313.796
311.449
313.492
309.793
310.473
310.737
313.3
309.48
311.168
311.194
309.861
307.402
302.697
302.623
304.609
305.395
304.217
305.322
303.037
303.135
303.643
303.125
304.606
303.779
304.355
301.8
302.746
304.06
304.159
304.271
303.712
352.748
356.603
354.552
354.665
356.603
357.814
359.161
358.958
360.406
361.755
359.248
358.286
360.362
357.244
358.99
357.217
353.584
354.416
352.186
351.553
347.243
348.858
348.237
348.777
351.998
348.935
350.808
349.127
350.696
353.477
351.486
349.765
348.117
350.086
348.279
348.966
343.092
347.113
344.41
342.76
338.893
340.163
339.203
340.072
342.478
343.873
341.582
342.637
342.218
344.941
342.452
342.524
344.774
341.3
339.581
342.119
342.131
338.98
339.673
338.041
333.841
331.551
330.454
334.672
339.015
335.744
335.958
337.319
336.645
339.354
334.596
335.676
336.424
332.794
337.48
332.035
332.554
331.976
333.618
330.469
325.171
326.597
323.465
326.7
329.193
327.57
326.884
326.414
330.058
329.228
329.777
329.759
329.854
327.775
328.954
327.357
327.025
326.214
323.521
321.964
319.333
317.421
318.424
322.333
320.291
319.104
321.595
317.582
322.487
318.269
317.957
321.249
318.474
319.18
321.053
319.581
317.097
316.736
317.475
317.153
310.871
311.576
309.234
313.553
309.918
312.691
310.391
311.731
312.43
314.596
312.076
312.336
314.296
313.89
313.218
314.115
310.584
310.704
311.918
310.078
302.106
304.174
303.965
304.012
305.957
305.2
302.565
305.219
306.156
303.629
303.254
304.341
305.136
306.209
302.125
306.037
305.157
302.827
304.677
303.967
352.639
356.532
359.431
355.606
359.434
356.244
357.779
359.361
358.682
358.635
360.133
360.203
358.837
360.676
358.188
359.475
354.066
355.019
354.027
353.874
348.382
346.764
350.197
348.197
347.928
348.921
352.346
349.837
352.568
349.913
350.783
352.468
350.469
349.536
349.978
350.339
348.092
344.873
347.07
341.803
341.53
338.144
342.826
339.955
343.403
340.179
344.253
343.377
342.447
341.16
345.89
346.184
345.062
342.594
343.402
340.414
339.193
339.737
341.542
339.815
332.644
333.64
333.687
335.82
336.268
335.433
334.661
334.633
335.64
337.744
334.1
336.712
337.373
332.965
334.806
332.304
333.899
333.936
330.413
330.931
324.295
327.692
327.201
328.33
328.495
325.982
328.469
326.993
327.925
328.432
328.151
330.62
328.809
327.375
325.372
326.773
325.894
325.412
324.953
323.485
317.874
318.766
317.914
319.77
320.164
322.522
320.338
317.681
320.089
317.815
320.842
318.086
319.774
320.439
320.991
315.972
316.229
320.309
318.823
315.496
310.711
314.009
312.24
312.138
311.255
313.285
310.612
314.278
313.634
312.8
311.501
315.496
312.727
312.076
311.435
308.016
311.226
313.982
312.973
308.98
304.833
304.301
306.977
305.189
305.823
302.802
305.676
303.005
302.092
301.88
304.984
306.067
303.686
302.422
303.564
301.135
302.513
302.753
304.645
303.666
351.184
352.867
357.151
357.705
358.883
358.385
362.992
361.669
358.682
359.826
358.059
362.387
357.894
359.6
356.682
356.006
355.183
355.08
353.156
351.555
346.94
347.802
350.361
352.738
351.859
349.951
352.312
355.711
352.451
351.162
351.584
353.323
352.641
347.932
349.512
352.403
345.74
347.142
344.482
343.307
341.107
337.837
341.696
346.749
341.644
345.334
345.122
344.241
343.932
345.641
346.307
342.282
348.25
345.591
343.096
344.345
344.103
340.599
338.88
337.411
332.083
332.419
333.717
333.999
335.268
335.967
336.832
335.566
334.866
333.783
335.728
338.644
335.007
337.241
335.378
333.935
333.678
334.74
331.739
330.639
324.118
325.159
325.789
326.998
325.202
325.375
326.891
326.922
327.963
326.945
327.781
329.905
328.352
325.556
327.132
329.164
325.62
327.232
325.163
328.244
316.669
317.765
319.078
317.013
318.024
319.438
322.581
316.599
320.048
320.192
319.891
319.104
321.79
320.629
321.117
321.48
318.781
317.951
314.985
316.559
309.728
311.192
310.524
312.049
312.807
313.195
310.769
309.716
309.938
311.303
310.658
313.929
308.373
311.151
312.115
309.709
310.465
308.906
309.156
312.628
301.863
303.297
303.636
305.739
303.582
302.048
306.443
304.62
303.214
302.273
304.479
300.355
302.699
303.651
304.36
301.533
306.178
304.773
305.188
303.492
354.061
354.789
359.256
358.998
355.641
361.002
359.696
360.797
359.368
360.664
359.951
360.107
357.736
358.895
359.666
356.48
356.224
354.309
355.493
350.67
346.711
351.415
348.399
351.873
352.169
351.541
353.951
352.815
351.526
352.784
352.503
351.751
352.372
348.607
352.263
349.022
351.24
348.323
349.936
341.776
338.592
340.675
339.558
344.605
345.761
344.103
343.43
345.006
346.259
342.051
344.741
343.847
343.517
342.589
345.089
341.849
340.29
340.538
339.575
338.465
333.501
332.234
333.949
337.886
334.772
333.718
336.766
335.358
337.332
337.104
337.037
335.101
334.735
334.621
336.635
331.988
335.918
333.971
331.414
331.53
325.472
325.979
325.759
330.421
328.124
325.719
325.181
326.54
329.352
326.546
329.868
329.856
327.841
325.668
324.932
326.442
325.74
328.298
325.024
323.792
318.145
319.726
319.231
318.112
321.189
318.222
321.246
321.154
322.063
320.956
321.988
318.401
319.965
319.054
321.431
319.637
319.309
317.308
315.697
317.084
309.792
308.118
313.609
310.694
311.197
309.756
311.909
313.411
311.76
313.578
314.736
313.106
312.33
311.539
311.088
312.285
308.711
311.46
310.422
309.722
305.963
303.568
303.677
305.885
305.192
305.037
303.406
306.089
304.492
303.651
304.383
304.1
305.678
303.842
305.669
303.441
301.905
305.668
304.301
303.234
354.982
353.5
356.448
357.524
358.65
357.59
361.228
360.262
360.664
362.727
360.587
359.401
360.126
360.119
355.438
358.563
355.056
355.617
352.089
351.755
347.324
345.685
346.411
349.413
350.735
348.668
350.771
352.196
353.267
352.663
352.814
352.646
351.809
351.774
350.043
346.819
346.157
348.4
344.681
346.887
338.427
341.862
342.715
345.342
343.981
344.225
344.339
343.647
347.433
342.364
345.286
343.32
343.159
342.432
343.846
343.316
340.537
341.255
345.205
339.037
333.129
332.042
333.015
335.67
334.272
339.127
337.077
335.731
339.15
341.366
337.711
335.577
337.071
338.085
335.93
333.453
330.255
333.03
332.88
329.485
323.242
325.687
325.563
326.873
325.727
327.32
328.507
328.809
328.832
326.507
327.604
329.71
327.18
329.978
329.058
327.605
328.371
322.174
323.323
323.753
318.615
321.547
320.293
320.015
318.619
322.663
322.533
323.144
319.428
319.268
318.622
319.182
321.221
317.807
318.14
317.535
320.529
317.835
319.063
317.77
312.879
310.547
310.639
310.9
311.851
314.222
310.094
316.766
313.582
313.304
316.728
312.62
312.905
311.189
311.852
312.88
306.064
310.978
312.208
311.795
304.949
303.966
305.014
304.194
305.443
304.258
304.756
303.31
305.525
303.717
302.64
303.42
303.717
303.841
304.838
303.481
304.277
305.193
303.097
302.586
352.014
356.259
356.091
356.394
357.831
360.128
358.012
362.748
359.955
362.473
359.884
359.057
361.212
358.851
357.141
357.189
353.616
356.533
352.714
349.804
346.613
352.963
348.076
354.991
353.416
355.249
352.385
354.666
351.988
356.11
355.413
351.919
355.94
351.825
354.61
349.566
354.022
348.313
352.697
346.317
341.869
339.722
339.318
342.158
342.244
344.111
343.717
341.61
342.35
346.649
346.699
346.003
342.552
344.566
343.891
344.221
341.55
341.523
341.423
339.659
332.674
333.238
333.564
337.562
335.444
336.621
335.585
337.259
335.987
336.833
335.207
337.912
335.945
338.829
337.388
335.869
332.895
330.351
332.61
332.681
326.659
324.964
322.007
327.722
326.233
329.739
326.643
325.963
330.522
331.253
327.871
327.246
327.258
329.027
326.779
325.594
324.273
327.701
326.866
324.569
317.069
318.138
319.037
316.476
319.622
317.403
319.957
321.739
321.949
317.055
321.107
320.305
321.012
322.052
319.813
320.621
317.491
318.802
318.402
316.729
310.234
311.514
310.894
312.051
314.398
310.268
312.371
311.733
311.572
313.036
311.981
309.718
315.017
312.426
312.05
314.574
309.786
308.64
312.786
311.574
304.801
303.394
302.839
304.564
303.814
301.083
303.142
303.524
304.565
307.612
304.683
304.951
303.715
307.064
305.606
306.943
305.477
303.283
300.976
303.441
353.475
358.115
355.181
357.998
358.718
358.759
359.896
360.995
357.238
358.958
362.963
359.957
358.136
356.284
355.815
356.61
354.858
353.559
354.806
352.059
347.143
347.055
350.828
351.274
352.624
350.508
349.65
348.371
353.396
352.179
352.039
351.943
354.909
348.177
351.022
348.81
346.653
345.845
345.114
349.146
338.424
337.304
341.053
344.347
345.112
342.982
344.313
345.961
347.327
345.297
344.985
348.07
343.931
343.966
342.266
339.472
339.371
339.528
339.125
337.318
332.809
331.235
331.721
335.155
335.867
337.421
335.712
337.308
336.164
336.389
335.665
335.6
335.165
334.264
332.885
334.598
335.487
333.52
331.908
331.807
325.477
325.598
325.176
329.421
329.527
326.496
325.418
331.063
327.526
326.778
326.796
330.517
329.679
326.16
324.482
328.557
323.347
324.457
325.473
322.593
319.856
316.592
320.447
322.092
320.34
317.402
319.671
319.755
322.204
321.361
319.12
322.574
321.395
320.993
316.132
318.162
319.174
319.115
316.029
318.648
312.943
312.364
312.808
310.217
313.688
311.762
310.217
314.292
311.686
311.461
308.797
311.998
312.722
313.302
313.886
310.913
312.088
310.535
311.462
311.119
302.311
304.669
302.022
303.72
302.711
302.19
300.793
305.184
301.953
302.811
306.527
306.921
303.685
302.77
306.274
305.415
302.927
301.416
303.897
300.842
)
;

boundaryField
{
    hotSide
    {
        type            fixedGradient;
        gradient        nonuniform List<scalar> 
400
(
321.511
322.87
325.591
329.677
335.133
341.965
350.181
359.788
370.794
383.208
397.037
412.289
428.971
447.088
466.647
487.651
510.105
534.011
559.372
586.191
323.738
325.08
327.767
331.802
337.194
343.949
352.078
361.591
372.498
384.81
398.537
413.687
430.268
448.289
467.755
488.672
511.043
534.872
560.161
586.913
326.149
327.47
330.116
334.091
339.406
346.071
354.099
363.503
374.296
386.491
400.101
415.136
431.606
449.52
468.885
489.706
511.988
535.735
560.948
587.63
328.704
330
332.597
336.503
341.73
348.292
356.205
365.485
376.15
388.215
401.695
416.604
432.954
450.753
470.009
490.73
512.919
536.579
561.714
588.325
331.33
332.599
335.142
338.97
344.099
350.546
358.332
367.477
378.003
389.928
403.271
418.047
434.27
451.949
471.095
491.712
513.807
537.382
562.439
588.978
333.918
335.158
337.643
341.389
346.414
352.74
360.392
369.397
379.779
391.562
404.765
419.407
435.503
453.065
472.101
492.618
514.622
538.114
563.096
589.569
336.321
337.531
339.959
343.622
348.544
354.751
362.274
371.142
381.385
393.031
406.101
420.618
436.595
454.047
472.983
493.409
515.33
538.747
563.663
590.076
338.36
339.543
341.92
345.509
350.339
356.44
363.847
372.595
382.718
394.244
407.2
421.608
437.485
454.844
473.695
494.045
515.897
539.253
564.114
590.478
339.852
341.015
343.352
346.885
351.645
357.665
364.985
373.643
383.675
395.113
407.984
422.312
438.116
455.407
474.197
494.491
516.294
539.606
564.428
590.758
340.643
341.795
344.11
347.613
352.334
358.311
365.584
374.193
384.176
395.567
408.393
422.679
438.443
455.699
474.456
494.722
516.498
539.788
564.589
590.901
340.643
341.795
344.11
347.613
352.334
358.311
365.584
374.193
384.176
395.567
408.393
422.679
438.443
455.699
474.456
494.722
516.498
539.788
564.589
590.901
339.852
341.015
343.352
346.885
351.645
357.665
364.985
373.643
383.675
395.113
407.984
422.312
438.116
455.407
474.197
494.491
516.294
539.606
564.428
590.758
338.36
339.543
341.92
345.509
350.339
356.44
363.847
372.595
382.718
394.244
407.2
421.608
437.485
454.844
473.695
494.045
515.897
539.253
564.114
590.478
336.321
337.531
339.959
343.622
348.544
354.751
362.274
371.142
381.385
393.031
406.101
420.618
436.595
454.047
472.983
493.409
515.33
538.747
563.663
590.076
333.918
335.158
337.643
341.389
346.414
352.74
360.392
369.397
379.779
391.562
404.765
419.407
435.503
453.065
472.101
492.618
514.622
538.114
563.096
589.569
331.33
332.599
335.142
338.97
344.099
350.546
358.332
367.477
378.003
389.928
403.271
418.047
434.27
451.949
471.095
491.712
513.807
537.382
562.439
588.978
328.704
330
332.597
336.503
341.73
348.292
356.205
365.485
376.15
388.215
401.695
416.604
432.954
450.753
470.009
490.73
512.919
536.579
561.714
588.325
326.149
327.47
330.116
334.091
339.406
346.071
354.099
363.503
374.296
386.491
400.101
415.136
431.606
449.52
468.885
489.706
511.988
535.735
560.948
587.63
323.738
325.08
327.767
331.802
337.194
343.949
352.078
361.591
372.498
384.81
398.537
413.687
430.268
448.289
467.755
488.672
511.043
534.872
560.161
586.913
321.511
322.87
325.591
329.677
335.133
341.965
350.181
359.788
370.794
383.208
397.037
412.289
428.971
447.088
466.647
487.651
510.105
534.011
559.372
586.191
)
;
    }
    coldSide
    {
        type            mixed;
        refValue        uniform 300;
        refGradient     uniform 0;
        valueFraction   uniform 0.991591;
        source          uniform 0;
        value           nonuniform List<scalar> 
400
(
300.025
300.026
300.041
300.044
300.055
300.006
300.034
300.037
300.038
300.035
300.058
300.023
300.062
300.018
300.041
300.016
300.05
300.042
300.04
300.019
300.028
300.013
300.05
300.036
299.998
300.024
300.033
300.017
300.03
300.02
300.029
300.027
300.023
300.035
300.036
300.028
300.03
300.033