/*--------------------------------*- C++ -*----------------------------------*\
| =========                 |                                                 |
| \\      /  F ield         | OpenFOAM: The Open Source CFD Toolbox           |
|  \\    /   O peration     | Version:  2212                                  |
|   \\  /    A nd           | Website:  www.openfoam.com                      |
|    \\/     M anipulation  |                                                 |
\*---------------------------------------------------------------------------*/
FoamFile
{
    version     2.0;
    format      ascii;
    arch        "LSB;label=32;scalar=64";
    class       volScalarField;
    location    "./ITHACAoutput/true/17.2";
    object      error;
}
// * * * * * * * * * * * * * * * * * * * * * * * * * * * * * * * * * * * * * //

dimensions      [0 0 0 1 0 0 0];

internalField   nonuniform List<scalar> 
3200
(
-1.8975
-0.49109
0.679033
1.43241
1.56401
1.36551
1.04955
0.638505
0.309718
-0.0521148
-0.271601
-0.407322
-0.293049
-0.157826
0.00816412
0.0856024
-0.159446
-0.811509
-2.03147
-3.45365
-1.54713
-0.309159
0.664711
1.24165
1.43916
1.16204
0.9949
0.631505
0.340281
0.00911635
-0.104311
-0.193707
-0.141229
0.0347604
0.133213
0.180197
0.00600912
-0.638781
-1.67721
-2.82976
-1.33467
-0.30278
0.636773
1.12731
1.15436
0.998953
0.9166
0.544556
0.273041
0.0654024
-0.111771
-0.0810012
-0.0204927
-0.00190129
0.163903
0.123418
0.0345986
-0.46205
-1.28357
-2.32231
-1.00683
-0.222564
0.457806
0.891823
1.06085
0.882766
0.620213
0.525673
0.200408
0.0907748
-0.0206997
-0.0811438
-0.00830684
0.00936601
0.217821
0.143588
0.0940542
-0.336118
-0.880662
-1.71916
-0.748174
-0.146518
0.328655
0.731878
0.853255
0.723245
0.584974
0.416536
0.240979
0.186223
0.0399394
-0.0897349
0.0118406
0.130704
0.2105
0.250345
0.0572441
-0.237504
-0.758787
-1.35161
-0.504373
-0.0880479
0.268403
0.483261
0.531737
0.465542
0.44536
0.305122
0.185263
0.114888
-0.0431262
-0.0436421
0.0112281
0.0748813
0.118853
0.125406
0.0568741
-0.092907
-0.495954
-0.939586
-0.352622
-0.0225118
0.226249
0.340756
0.251756
0.279874
0.245136
0.207531
0.0525847
0.103699
-0.045896
-0.0243866
0.0709193
-0.00677344
0.139221
0.126406
0.0155711
-0.0640211
-0.33949
-0.543891
-0.0582136
-0.0772615
0.0575954
0.046906
0.114649
0.0577909
0.0787302
0.0196902
0.0586645
0.000217227
-0.0110829
-0.0308041
-0.0175267
-0.0499743
0.0262661
-0.0189264
0.0275419
0.0137
-0.180255
-0.132812
-2.085
-0.66901
0.569626
1.11479
1.25036
1.03719
0.665116
0.187756
-0.18699
-0.570483
-0.745942
-0.811065
-0.730088
-0.59731
-0.370806
-0.231082
-0.372282
-1.03891
-2.14874
-3.71644
-1.77232
-0.517746
0.472687
1.13472
1.17437
1.06364
0.680661
0.239053
-0.0562964
-0.332689
-0.567703
-0.611169
-0.553653
-0.408781
-0.237328
-0.0569852
-0.225742
-0.799087
-1.85489
-2.93719
-1.38436
-0.433202
0.410143
0.837395
0.980843
0.849989
0.533439
0.253746
0.0451011
-0.228573
-0.422758
-0.455649
-0.335484
-0.2628
-0.094887
-0.0546129
-0.11705
-0.609368
-1.40337
-2.3121
-1.10085
-0.272734
0.335926
0.778944
0.855171
0.716785
0.471645
0.207822
-0.0110823
-0.137665
-0.397226
-0.264747
-0.23235
-0.152991
-0.071939
-0.00538167
-0.0153801
-0.429299
-1.10262
-1.91142
-0.817254
-0.256328
0.300984
0.68118
0.669284
0.556076
0.458521
0.261417
0.0361386
-0.0530687
-0.211661
-0.202982
-0.122311
-0.0405177
0.000938729
0.0688121
-0.0639712
-0.380354
-0.820798
-1.42578
-0.589348
-0.153625
0.235805
0.452072
0.476499
0.435291
0.299221
0.0950459
0.0543155
-0.0672165
-0.164544
-0.181099
-0.0913129
0.00597346
-0.0153377
0.00156545
0.0402485
-0.238228
-0.599479
-0.970028
-0.277762
-0.0697043
0.152097
0.269692
0.293499
0.273242
0.21397
0.102387
0.0225968
-0.0624246
-0.0675058
0.00911035
-0.0888193
-0.0802957
0.0181638
0.000623031
0.011458
-0.0823012
-0.266405
-0.644529
-0.127909
-0.0987113
-0.0218341
0.0352586
0.128816
0.103976
0.135482
-0.0322557
0.0349943
-0.0419402
-0.0366314
0.0143137
0.0349062
0.0555002
-0.00373578
-0.0676441
0.00438659
0.0725084
-0.134927
-0.167676
-2.43104
-0.995798
0.192655
0.749039
0.89917
0.575706
0.196458
-0.400662
-0.797004
-1.27202
-1.42731
-1.50197
-1.34924
-1.25554
-0.935277
-0.684109
-0.92275
-1.40869
-2.67075
-3.99416
-2.08512
-0.840735
0.231455
0.639784
0.748935
0.52404
0.214689
-0.211685
-0.629034
-0.906664
-1.1459
-1.17692
-1.04203
-0.868281
-0.672965
-0.512533
-0.692551
-1.12655
-2.10465
-3.24638
-1.61911
-0.643475
0.178886
0.506998
0.610812
0.489192
0.153087
-0.119587
-0.445019
-0.788853
-0.907289
-0.941786
-0.890436
-0.714051
-0.491073
-0.485417
-0.458931
-0.888048
-1.72304
-2.65248
-1.25343
-0.510449
0.159848
0.501719
0.517792
0.453818
0.244733
-0.0366009
-0.32999
-0.467426
-0.6456
-0.659914
-0.71081
-0.466914
-0.363775
-0.213285
-0.349485
-0.60962
-1.33834
-2.05934
-0.989767
-0.371002
0.119191
0.352034
0.396657
0.31886
0.11462
-0.00954771
-0.280519
-0.384412
-0.456187
-0.561587
-0.476799
-0.385396
-0.296159
-0.267604
-0.298701
-0.507717
-0.950816
-1.54195
-0.729057
-0.341326
0.105769
0.357904
0.363013
0.304391
0.207659
-0.0946286
-0.111256
-0.269583
-0.370771
-0.380414
-0.263513
-0.255364
-0.167963
0.00449607
-0.110502
-0.322711
-0.680232
-1.07868
-0.445339
-0.190719
-0.0232845
0.197243
0.203637
0.0915747
0.0648612
-0.0298386
-0.125844
-0.178586
-0.208516
-0.223668
-0.174972
-0.160298
-0.175686
-0.0941992
-0.102126
-0.165492
-0.395496
-0.667963
-0.106774
-0.00718988
0.0800151
0.0967113
0.0736597
0.0191064
-0.0136951
0.0479571
0.0282723
-0.0237669
-0.0963356
-0.068038
-0.0593536
-0.0950993
-0.00639292
-0.00608595
-0.0326254
-0.0592963
-0.139577
-0.191356
-2.85106
-1.47759
-0.282502
0.231741
0.244824
-0.0282208
-0.421247
-1
-1.43466
-1.99473
-2.23126
-2.28056
-2.13433
-1.90144
-1.63913
-1.42357
-1.49557
-2.03327
-3.09892
-4.45915
-2.3578
-1.17895
-0.323289
0.247742
0.269295
0.0958857
-0.376891
-0.798326
-1.30623
-1.5544
-1.80242
-1.89453
-1.74908
-1.50238
-1.33581
-1.09654
-1.19921
-1.53565
-2.49399
-3.63399
-1.99666
-1.0257
-0.287339
0.293867
0.274942
0.0718063
-0.26272
-0.604321
-1.03142
-1.26435
-1.48822
-1.50025
-1.3901
-1.21089
-0.966547
-0.883675
-0.863676
-1.34641
-1.97907
-2.96142
-1.62595
-0.799577
-0.108303
0.165068
0.152752
0.0548346
-0.184942
-0.466798
-0.805085
-1.04239
-1.16796
-1.21882
-1.10715
-0.964784
-0.774004
-0.65114
-0.642022
-0.97319
-1.66552
-2.43103
-1.18955
-0.56539
-0.0989805
0.112369
0.192258
0.131599
-0.168387
-0.380524
-0.545364
-0.756919
-0.902953
-0.866102
-0.750527
-0.65427
-0.635991
-0.429221
-0.612541
-0.708859
-1.18889
-1.73895
-0.787605
-0.496233
-0.0392047
0.103068
0.16973
0.12058
-0.0650737
-0.253457
-0.403827
-0.549319
-0.695137
-0.639738
-0.498211
-0.455048
-0.409144
-0.36167
-0.399208
-0.490362
-0.855838
-1.19918
-0.454876
-0.272166
-0.0638987
0.115893
0.0273623
0.0410237
-0.00263452
-0.21176
-0.189765
-0.295343
-0.297518
-0.381849
-0.331372
-0.259551
-0.258437
-0.23566
-0.152701
-0.312273
-0.478682
-0.737698
-0.186265
-0.0941296
0.0371363
0.0274675
-0.0473833
0.03824
-0.047605
-0.0477291
-0.199469
-0.0719147
-0.109928
-0.13631
-0.111189
-0.091732
-0.0385038
-0.102871
-0.0913511
-0.114688
-0.130494
-0.20637
-3.47728
-2.03037
-1.10264
-0.48098
-0.467839
-0.69234
-1.13888
-1.7661
-2.33124
-2.82327
-3.07542
-3.0526
-2.94206
-2.65854
-2.25898
-2.00078
-2.19348
-2.59009
-3.69045
-4.89343
-2.83832
-1.69496
-0.831868
-0.357662
-0.243319
-0.565182
-0.990776
-1.45379
-1.85984
-2.34154
-2.49297
-2.55638
-2.44851
-2.24978
-1.89307
-1.66173
-1.748
-2.27239
-3.10116
-4.10994
-2.31245
-1.4429
-0.653401
-0.301574
-0.317476
-0.456423
-0.704841
-1.14341
-1.48366
-1.89907
-2.09513
-2.1069
-2.01064
-1.78899
-1.53694
-1.42708
-1.41891
-1.78736
-2.5436
-3.39438
-1.86601
-1.16564
-0.516373
-0.132209
-0.144295
-0.273742
-0.599175
-0.985542
-1.23449
-1.5559
-1.65815
-1.64338
-1.5421
-1.29253
-1.14799
-1.08543
-1.08159
-1.41623
-2.00291
-2.66153
-1.54673
-0.908579
-0.430197
-0.184206
-0.0961677
-0.220895
-0.3899
-0.700882
-0.906675
-1.1021
-1.27104
-1.33108
-1.17608
-1.0954
-0.947299
-0.798061
-0.791782
-0.981234
-1.55548
-2.03558
-1.01109
-0.684766
-0.226184
-0.119421
-0.0671033
-0.149177
-0.292343
-0.54739
-0.659919
-0.760076
-0.829547
-0.85242
-0.891101
-0.700683
-0.626708
-0.517054
-0.505155
-0.648211
-0.989758
-1.45763
-0.61649
-0.419336
-0.160871
0.0151132
0.00576776
-0.0111558
-0.170715
-0.264707
-0.378021
-0.567598
-0.503774
-0.503042
-0.411236
-0.392679
-0.326247
-0.333111
-0.340168
-0.46319
-0.568235
-0.846141
-0.292182
-0.157271
-0.116787
-0.0171614
-0.0684086
-0.00638807
-0.0308364
-0.0902043
-0.141891
-0.141932
-0.0801171
-0.212532
-0.157216
-0.125051
-0.162092
-0.0616902
-0.086881
-0.135878
-0.134233
-0.351968
-4.09957
-2.73096
-1.76675
-1.18826
-1.18003
-1.41888
-1.94216
-2.50072
-3.08062
-3.67014
-3.97609
-3.92399
-3.78067
-3.46583
-3.12284
-2.84526
-2.94095
-3.40284
-4.35587
-5.53348
-3.32247
-2.2883
-1.45852
-1.05867
-0.960289
-1.17374
-1.59942
-2.00352
-2.62166
-2.94453
-3.22161
-3.31979
-3.13371
-2.93459
-2.58703
-2.30905
-2.3847
-2.81646
-3.65476
-4.70136
-2.82241
-1.98172
-1.23632
-0.87984
-0.834833
-1.00829
-1.28589
-1.72081
-2.14029
-2.57413
-2.75143
-2.80339
-2.56082
-2.37693
-2.04835
-2.00696
-1.97787
-2.3095
-3.00004
-3.86204
-2.31478
-1.57304
-1.0168
-0.661555
-0.551894
-0.794946
-1.03558
-1.375
-1.71412
-2.07767
-2.20241
-2.18597
-2.01416
-1.87204
-1.68509
-1.51638
-1.60906
-1.81946
-2.36598
-3.02991
-1.75987
-1.11852
-0.743224
-0.513779
-0.43799
-0.527559
-0.796872
-0.953105
-1.24362
-1.5821
-1.66353
-1.64129
-1.65742
-1.36131
-1.29313
-1.11119
-1.14997
-1.37944
-1.77649
-2.27261
-1.21972
-0.89869
-0.568457
-0.395551
-0.381659
-0.360523
-0.512184
-0.792362
-0.917485
-1.1174
-1.17402
-1.23073
-1.11933
-0.985134
-0.982041
-0.707181
-0.838318
-0.960038
-1.3273
-1.59623
-0.749272
-0.550638
-0.364564
-0.172625
-0.137175
-0.277903
-0.300134
-0.526145
-0.591919
-0.689095
-0.651976
-0.716899
-0.693868
-0.611151
-0.483098
-0.480605
-0.430772
-0.585828
-0.779179
-0.96471
-0.27357
-0.190188
-0.153376
-0.0750275
-0.0660369
-0.0445723
-0.144811
-0.144872
-0.178238
-0.228565
-0.193506
-0.296838
-0.231075
-0.241503
-0.171509
-0.199496
-0.155408
-0.115819
-0.156072
-0.345793
-4.69772
-3.48046
-2.45262
-1.95504
-1.90212
-2.23423
-2.72154
-3.25561
-3.94415
-4.33907
-4.70989
-4.82111
-4.64683
-4.14641
-3.82535
-3.56713
-3.70883
-4.11823
-5.06955
-6.25288
-3.96589
-3.00962
-2.0908
-1.6986
-1.58011
-1.78696
-2.19569
-2.75639
-3.30163
-3.69012
-3.97886
-4.08001
-3.86364
-3.55623
-3.14789
-3.04951
-3.0585
-3.4921
-4.28412
-5.17804
-3.32454
-2.49264
-1.73286
-1.32515
-1.28021
-1.5016
-1.81693
-2.22727
-2.69155
-3.10147
-3.31478
-3.2414
-3.11207
-2.89213
-2.63759
-2.52883
-2.46279
-2.91287
-3.44584
-4.35997
-2.7034
-1.95886
-1.41193
-1.138
-1.07136
-1.1924
-1.42709
-1.83399
-2.14965
-2.4783
-2.6717
-2.59496
-2.49808
-2.33115
-2.11116
-1.96449
-2.02095
-2.20689
-2.74779
-3.44637
-2.09411
-1.47089
-1.08069
-0.786992
-0.712653
-0.849534
-1.05359
-1.36894
-1.6207
-1.89035
-2.03609
-2.07656
-1.91256
-1.78466
-1.589
-1.49404
-1.56306
-1.75383
-2.17755
-2.60144
-1.34993
-1.07773
-0.738823
-0.58758
-0.556606
-0.643559
-0.773168
-0.974026
-1.11382
-1.31085
-1.42072
-1.40065
-1.38881
-1.25009
-1.17884
-1.06083
-1.00488
-1.23447
-1.50111
-1.86554
-0.827536
-0.677308
-0.471837
-0.279878
-0.306025
-0.333005
-0.503579
-0.556735
-0.67767
-0.756069
-0.958626
-0.86576
-0.794229
-0.760864
-0.699524
-0.591583
-0.619258
-0.64211
-0.926507
-1.08159
-0.292408
-0.21214
-0.145624
-0.109033
-0.0630148
-0.051375
-0.147166
-0.20863
-0.213936
-0.204816
-0.266647
-0.273436
-0.317255
-0.302906
-0.230432
-0.208531
-0.257696
-0.248246
-0.360649
-0.318146
-5.32286
-4.12445
-3.20541
-2.67983
-2.55466
-2.85691
-3.21391
-3.88461
-4.4604
-5.06494
-5.44894
-5.43385
-5.28482
-4.93747
-4.56753
-4.35088
-4.37867
-4.85362
-5.76208
-6.82996
-4.55082
-3.60864
-2.75598
-2.29217
-2.19229
-2.35563
-2.75565
-3.25225
-3.77276
-4.23404
-4.56286
-4.68708
-4.45048
-4.0985
-3.8553
-3.60142
-3.64876
-4.09342
-4.81996
-5.73202
-3.79386
-2.99379
-2.26758
-1.95977
-1.74265
-1.93994
-2.29249
-2.72231
-3.11522
-3.61407
-3.80877
-3.77605
-3.63024
-3.42339
-3.15724
-3.01589
-2.93598
-3.32782
-3.83823
-4.72562
-3.00036
-2.40643
-1.85357
-1.55892
-1.47654
-1.596
-1.81795
-2.17055
-2.55604
-2.86735
-3.09241
-3.09272
-2.9584
-2.78716
-2.48618
-2.4394
-2.40237
-2.60702
-3.21371
-3.83008
-2.46534
-1.81605
-1.38751
-1.19941
-1.13477
-1.17164
-1.39056
-1.69231
-2.00433
-2.21867
-2.34002
-2.29461
-2.25725
-2.10598
-1.9302
-1.84059
-1.84837
-2.02382
-2.43511
-2.89627
-1.6692
-1.33983
-0.998139
-0.8371
-0.784148
-0.843603
-1.06904
-1.1472
-1.39714
-1.52695
-1.69484
-1.67035
-1.63378
-1.43605
-1.35804
-1.32769
-1.31783
-1.45677
-1.68626
-2.0557
-0.986859
-0.77483
-0.666934
-0.477283
-0.486574
-0.513781
-0.540215
-0.768614
-0.826198
-0.922358
-0.946361
-1.11766
-0.897807
-0.839741
-0.813115
-0.841528
-0.784129
-0.79235
-1.00656
-1.1547
-0.246525
-0.281888
-0.124926
-0.0929157
-0.176241
-0.0997714
-0.206877
-0.317573
-0.206133
-0.299686
-0.317054
-0.372835
-0.346903
-0.378207
-0.21907
-0.23892
-0.301967
-0.347882
-0.352259
-0.430987
-5.92919
-4.82692
-3.92567
-3.30638
-3.23565
-3.46794
-3.90056
-4.44308
-5.18949
-5.78617
-5.99819
-6.04213
-5.85133
-5.54369
-5.18898
-4.97265
-5.05273
-5.52658
-6.33718
-7.38702
-5.07883
-4.19629
-3.31858
-2.86235
-2.69208
-2.97668
-3.32296
-3.83272
-4.31999
-4.75057
-5.09821
-5.17352
-5.01313
-4.62411
-4.29178
-4.25954
-4.23649
-4.62598
-5.28466
-6.19908
-4.19001
-3.41196
-2.77252
-2.3823
-2.25867
-2.45076
-2.72233
-3.15567
-3.56956
-3.95985
-4.23375
-4.29552
-4.05494
-3.89482
-3.63018
-3.51515
-3.43334
-3.94111
-4.34419
-5.08847
-3.38054
-2.75668
-2.28514
-1.87507
-1.82155
-1.92847
-2.19952
-2.57683
-2.89537
-3.22072
-3.39045
-3.35425
-3.33751
-3.14392
-2.83494
-2.8584
-2.87474
-3.00215
-3.60772
-4.13963
-2.61997
-2.22778
-1.71219
-1.39858
-1.4035
-1.47788
-1.68382
-2.00438
-2.25178
-2.51811
-2.62844
-2.54917
-2.58111
-2.37268
-2.18021
-2.08535
-2.10645
-2.2865
-2.68365
-3.11955
-1.82977
-1.54825
-1.19644
-1.05629
-1.01556
-1.01938
-1.21016
-1.41379
-1.67017
-1.81331
-1.84782
-1.91695
-1.79053
-1.67857
-1.56951
-1.43973
-1.50033
-1.58534
-1.8872
-2.24927
-1.08201
-0.936158
-0.77723
-0.603578
-0.590424
-0.645835
-0.740524
-0.800303
-0.874216
-1.07826
-1.07927
-1.1062
-1.04899
-0.980319
-0.94196
-0.803895
-0.942512
-0.90975
-1.15736
-1.30613
-0.385287
-0.293414
-0.212667
-0.272519
-0.234709
-0.208853
-0.285492
-0.246268
-0.295191
-0.369439
-0.323627
-0.401769
-0.411662
-0.319118
-0.38719
-0.271919
-0.355606
-0.427839
-0.378396
-0.476961
-6.57305
-5.41232
-4.51366
-3.98179
-3.77259
-3.97328
-4.35347
-4.93047
-5.55658
-6.01847
-6.37372
-6.44637
-6.34489
-5.97439
-5.63652
-5.47308
-5.56188
-6.02109
-6.83662
-7.7513
-5.5554
-4.64571
-3.94496
-3.42488
-3.22812
-3.31173
-3.73685
-4.2553
-4.73863
-5.17009
-5.43421
-5.43666
-5.40794
-5.10394
-4.77484
-4.63779
-4.68883
-5.07084
-5.82401
-6.64072
-4.65206
-3.9342
-3.15598
-2.82053
-2.69376
-2.86724
-3.03754
-3.51506
-4.03915
-4.37574
-4.51928
-4.62217
-4.49991
-4.25225
-3.91818
-3.86522
-3.91772
-4.17518
-4.71802
-5.46601
-3.69985
-3.19058
-2.65083
-2.27977
-2.18622
-2.23434
-2.47807
-2.88474
-3.16016
-3.46727
-3.64851
-3.66762
-3.52915
-3.36726
-3.15436
-2.9732
-3.15936
-3.38023
-3.91359
-4.469
-2.86702
-2.39676
-2.00821
-1.74517
-1.61725
-1.67361
-1.91482
-2.15019
-2.45474
-2.63579
-2.75861
-2.7638
-2.82467
-2.50105
-2.45074
-2.31719
-2.42073
-2.57575
-2.9874
-3.3483
-2.03616
-1.73139
-1.41312
-1.25162
-1.21062
-1.2519
-1.39074
-1.51544
-1.72583
-1.87934
-1.99829
-2.01279
-1.96703
-1.80172
-1.74052
-1.72567
-1.6964
-1.83697
-2.05234
-2.38556
-1.18316
-1.0633
-0.828223
-0.815592
-0.725976
-0.789347
-0.796693
-0.849543
-0.9886
-1.11229
-1.16701
-1.21508
-1.20702
-1.15667
-1.01902
-0.96064
-0.924399
-1.1465
-1.26405
-1.45429
-0.366892
-0.370994
-0.221233
-0.289827
-0.205545
-0.252916
-0.304994
-0.275141
-0.386446
-0.388377
-0.410266
-0.388371
-0.434222
-0.326594
-0.354909
-0.414438
-0.276883
-0.387656
-0.508427
-0.437255
-6.9621
-5.89042
-4.99746
-4.54752
-4.32402
-4.38495
-4.67579
-5.28447
-5.92826
-6.34019
-6.69167
-6.74971
-6.6191
-6.2616
-6.02628
-5.83192
-6.0655
-6.44995
-7.3161
-8.22725
-5.88405
-5.04372
-4.29
-3.8214
-3.63131
-3.80974
-4.05261
-4.43118
-4.91235
-5.45597
-5.65781
-5.75361
-5.54532
-5.30956
-5.07232
-4.9314
-5.09975
-5.51062
-6.13888
-6.93824
-4.86246
-4.22841
-3.54629
-3.15707
-2.98915
-3.12137
-3.32522
-3.75711
-4.10348
-4.50154
-4.74797
-4.71217
-4.69209
-4.45663
-4.13687
-4.03713
-4.186
-4.51396
-5.07667
-5.73226
-3.91078
-3.37346
-2.8436
-2.54748
-2.47546
-2.49651
-2.68329
-2.94704
-3.30013
-3.65349
-3.77046
-3.84356
-3.69842
-3.54614
-3.25832
-3.32492
-3.46621
-3.62299
-4.11552
-4.62064
-3.07408
-2.66956
-2.20837
-1.97081
-1.87715
-1.89746
-2.04197
-2.33911
-2.58662
-2.78919
-2.90698
-2.993
-2.87355
-2.71755
-2.61699
-2.51036
-2.57355
-2.83138
-3.11815
-3.58003
-2.10472
-1.89973
-1.56687
-1.39939
-1.28823
-1.37844
-1.48706
-1.61409
-1.89017
-1.9723
-2.00084
-2.09118
-2.0644
-2.00046
-1.90496
-1.76661
-1.85284
-1.95494
-2.22189
-2.51391
-1.30083
-1.09697
-0.920414
-0.788468
-0.864237
-0.82234
-0.850406
-0.973206
-1.11473
-1.189
-1.20923
-1.30672
-1.223
-1.1863
-1.0685
-1.11239
-1.1504
-1.13901
-1.35401
-1.51083
-0.495788
-0.367476
-0.279949
-0.336352
-0.278673
-0.224954
-0.27492
-0.216583
-0.330232
-0.389857
-0.44774
-0.431173
-0.435658
-0.469358
-0.375684
-0.315826
-0.401893
-0.494331
-0.469427
-0.419922
-7.29395
-6.29268
-5.40961
-4.83765
-4.65599
-4.7128
-5.03796
-5.44596
-5.95609
-6.39258
-6.77117
-6.77809
-6.65242
-6.48808
-6.29529
-6.21672
-6.27035
-6.75173
-7.52212
-8.43366
-6.12189
-5.46461
-4.6224
-4.10046
-3.94578
-3.90492
-4.20932
-4.69485
-5.01361
-5.44817
-5.66334
-5.72829
-5.63471
-5.44178
-5.2787
-5.12724
-5.36725
-5.70101
-6.3762
-7.10896
-5.15638
-4.58739
-3.93372
-3.47037
-3.28244
-3.30169
-3.56244
-3.79469
-4.12732
-4.52569
-4.81568
-4.73104
-4.64932
-4.56975
-4.3477
-4.28747
-4.36072
-4.75567
-5.24844
-5.91932
-4.14069
-3.71914
-3.06951
-2.85943
-2.65125
-2.6951
-2.78996
-3.03678
-3.35655
-3.60915
-3.82563
-3.84673
-3.71464
-3.59155
-3.5024
-3.44109
-3.53503
-3.78353
-4.22211
-4.78588
-3.20072
-2.78803
-2.40947
-2.0415
-2.03233
-2.09534
-2.1857
-2.3738
-2.57034
-2.82778
-2.94182
-2.9805
-2.89966
-2.7816
-2.58366
-2.62363
-2.72124
-2.85824
-3.21195
-3.63344
-2.35503
-2.03136
-1.65291
-1.51865
-1.44912
-1.3765
-1.56086
-1.67197
-1.81355
-1.95274
-2.08588
-2.15304
-1.99717
-1.93836
-1.87136
-1.89292
-1.91531
-2.02674
-2.30622
-2.53963
-1.39911
-1.20725
-1.08566
-0.911111
-0.814682
-0.861261
-0.959757
-1.06537
-1.10522
-1.18231
-1.2294
-1.27026
-1.23664
-1.16868
-1.18398
-1.17434
-1.13196
-1.24168
-1.40567
-1.57753
-0.441896
-0.441162
-0.401004
-0.333492
-0.25723
-0.244476
-0.30348
-0.349001
-0.35232
-0.397978
-0.435231
-0.390259
-0.408814
-0.384011
-0.307509
-0.42193
-0.316655
-0.390032
-0.495503
-0.539614
-7.46111
-6.53226
-5.61032
-5.20608
-4.84893
-4.82052
-5.02871
-5.43334
-5.91913
-6.26206
-6.55699
-6.73932
-6.55723
-6.32787
-6.24045
-6.20717
-6.39305
-6.90772
-7.65258
-8.60459
-6.41462
-5.56224
-4.83768
-4.37232
-4.07391
-4.09833
-4.25943
-4.60043
-5.00329
-5.33556
-5.57544
-5.70281
-5.56413
-5.39463
-5.3573
-5.29596
-5.39762
-5.88709
-6.44476
-7.24767
-5.27881
-4.64532
-3.9858
-3.61891
-3.43418
-3.43292
-3.62933
-3.84
-4.15921
-4.44635
-4.66061
-4.62511
-4.61092
-4.54061
-4.49797
-4.29679
-4.4625
-4.8109
-5.33307
-5.99861
-4.26284
-3.77281
-3.1783
-2.88835
-2.75736
-2.74994
-2.82263
-3.04026
-3.37558
-3.60291
-3.76418
-3.80602
-3.70235
-3.5915
-3.55678
-3.48258
-3.52893
-3.88017
-4.35522
-4.7918
-3.35746
-2.91162
-2.50781
-2.27142
-2.16153
-2.09362
-2.23757
-2.39608
-2.59207
-2.71453
-2.7877
-2.90994
-2.87913
-2.76782
-2.72782
-2.70635
-2.78714
-2.85018
-3.39222
-3.68817
-2.3363
-2.02836
-1.77398
-1.59766
-1.45619
-1.46126
-1.51806
-1.63875
-1.85905
-2.05235
-2.09669
-2.03502
-2.00197
-1.98709
-1.91495
-1.81419
-1.94254
-2.12119
-2.33383
-2.55539
-1.37676
-1.25481
-1.13984
-1.01498
-0.884224
-0.859435
-0.910413
-1.05486
-1.17114
-1.10013
-1.22184
-1.21893
-1.20036
-1.21427
-1.12214
-1.14126
-1.1123
-1.24
-1.45133
-1.63019
-0.532401
-0.397947
-0.338641
-0.30885
-0.394353
-0.307059
-0.319731
-0.350028
-0.392462
-0.354458
-0.441924
-0.366938
-0.352381
-0.417225
-0.40529
-0.379472
-0.397855
-0.368338
-0.506087
-0.54755
-7.5732
-6.61603
-5.87734
-5.19473
-5.00078
-4.88223
-5.03228
-5.3066
-5.66102
-6.03265
-6.35964
-6.40448
-6.32608
-6.194
-6.05984
-6.1298
-6.39424
-6.87011
-7.61606
-8.5317
-6.44587
-5.66892
-4.93564
-4.41732
-4.21431
-4.13727
-4.27018
-4.51346
-4.82337
-5.08811
-5.38669
-5.40668
-5.4412
-5.23227
-5.22779
-5.25597
-5.39361
-5.79336
-6.50237
-7.14164
-5.37913
-4.76734
-4.05957
-3.66674
-3.41253
-3.48261
-3.52814
-3.7013
-4.02138
-4.31884
-4.45617
-4.57901
-4.45815
-4.40803
-4.29129
-4.27052
-4.43021
-4.73097
-5.31179
-5.93099
-4.39644
-3.85335
-3.34049
-2.9824
-2.72644
-2.72634
-2.84461
-3.05915
-3.21318
-3.44067
-3.57204
-3.62797
-3.56363
-3.50584
-3.43677
-3.46186
-3.62081
-3.80286
-4.41212
-4.74122
-3.3214
-2.87544
-2.60664
-2.30559
-2.15597
-2.20528
-2.1704
-2.3736
-2.48325
-2.62645
-2.69199
-2.87209
-2.70036
-2.6448
-2.65112
-2.60112
-2.79453
-2.93954
-3.22389
-3.72335
-2.3271
-2.08931
-1.84571
-1.63303
-1.59056
-1.51651
-1.56568
-1.58001
-1.79229
-1.88177
-1.9214
-1.87279
-1.95132
-2.00388
-1.77522
-1.85758
-1.94368
-2.10227
-2.35281
-2.60131
-1.38178
-1.22585
-1.0892
-0.965644
-0.906073
-0.921743
-0.886109
-0.954993
-1.04391
-1.13675
-1.1797
-1.24157
-1.21327
-1.16093
-1.14499
-1.14949
-1.07047
-1.2588
-1.36665
-1.59207
-0.514961
-0.408467
-0.383951
-0.326668
-0.315384
-0.262227
-0.319726
-0.285851
-0.326183
-0.417172
-0.370302
-0.366565
-0.37043
-0.458818
-0.418652
-0.339206
-0.304968
-0.386015
-0.446709
-0.474844
-7.46389
-6.62276
-5.77661
-5.10583
-4.7685
-4.68218
-4.83856
-4.96973
-5.36705
-5.68737
-5.79589
-5.97859
-5.85473
-5.83837
-5.83349
-5.91996
-6.18824
-6.69887
-7.59354
-8.28353
-6.42798
-5.57016
-4.97279
-4.37446
-4.02533
-3.97444
-4.06112
-4.30062
-4.52687
-4.76724
-4.97221
-5.02849
-5.03002
-4.95308
-4.89166
-4.98391
-5.19962
-5.70875
-6.33128
-7.0217
-5.21909
-4.71145
-4.11057
-3.61969
-3.40465
-3.36419
-3.30363
-3.56453
-3.62453
-3.90895
-4.15318
-4.19266
-4.12043
-4.1725
-4.00843
-4.11617
-4.31125
-4.71137
-5.20983
-5.76028
-4.28302
-3.74577
-3.29016
-2.88087
-2.81292
-2.65631
-2.62731
-2.81689
-3.08933
-3.16983
-3.26369
-3.3044
-3.40554
-3.36674
-3.23033
-3.32363
-3.42204
-3.76663
-4.27549
-4.72711
-3.31093
-2.92654
-2.51107
-2.28012
-2.09544
-2.0505
-2.10335
-2.18408
-2.36512
-2.41375
-2.52159
-2.57645
-2.54026
-2.54021
-2.46226
-2.61658
-2.64942
-2.93874
-3.1749
-3.56002
-2.42714
-2.12914
-1.79624
-1.57621
-1.52925
-1.43214
-1.43341
-1.5506
-1.64101
-1.76195
-1.8105
-1.76864
-1.72098
-1.81578
-1.6695
-1.86859
-1.85901
-2.03908
-2.28596
-2.52892
-1.46172
-1.27119
-1.04613
-0.953496
-0.907029
-0.833538
-0.845445
-0.93412
-0.905047
-1.01653
-1.01826
-1.13344
-1.0265
-1.12424
-1.05133
-1.08617
-1.08118
-1.21643
-1.28224
-1.50007
-0.455768
-0.413132
-0.378325
-0.306003
-0.260066
-0.25489
-0.289837
-0.350311
-0.348583
-0.443427
-0.311576
-0.350769
-0.398455
-0.356311
-0.365365
-0.355021
-0.305545
-0.384182
-0.458164
-0.532596
-7.20792
-6.33446
-5.4919
-5.00959
-4.59921
-4.41901
-4.482
-4.58572
-4.80834
-5.04085
-5.25056
-5.39535
-5.31876
-5.36902
-5.33254
-5.60365
-5.90479
-6.45813
-7.22477
-8.088
-6.17214
-5.53104
-4.7831
-4.23165
-3.86685
-3.73721
-3.80587
-3.85383
-3.99579
-4.27154
-4.37184
-4.51415
-4.42017
-4.53235
-4.47732
-4.66961
-4.957
-5.38063
-6.03264
-6.70273
-5.11846
-4.58839
-3.92706
-3.51893
-3.19392
-3.08784
-3.07985
-3.18924
-3.36376
-3.54106
-3.65087
-3.73177
-3.77097
-3.69748
-3.77839
-3.7546
-4.13384
-4.38358
-4.95681
-5.54116
-4.12166
-3.66696
-3.13995
-2.86588
-2.54543
-2.50751
-2.46213
-2.53695
-2.63478
-2.83012
-2.88772
-3.00266
-2.97666
-2.93662
-3.01292
-3.07047
-3.22576
-3.57183
-3.99257
-4.50399
-3.16438
-2.8573
-2.37894
-2.13944
-2.05138
-1.90842
-1.89464
-2.01587
-1.98201
-2.14279
-2.21995
-2.29843
-2.31144
-2.24016
-2.25084
-2.31818
-2.5153
-2.76509
-3.12719
-3.44834
-2.35406
-1.978
-1.66843
-1.55054
-1.42162
-1.31685
-1.3131
-1.42752
-1.46169
-1.5931
-1.54468
-1.66708
-1.61633
-1.54737
-1.58493
-1.64109
-1.79774
-1.83195
-2.16927
-2.40967
-1.33264
-1.14791
-0.949588
-0.885838
-0.813784
-0.778022
-0.736385
-0.842773
-0.908013
-0.957429
-0.937957
-0.928639
-1.00262
-0.947019
-0.930817
-0.96607
-1.10112
-1.13373
-1.2947
-1.43538
-0.467409
-0.33586
-0.374512
-0.295534
-0.23605
-0.237337
-0.256479
-0.244849
-0.382125
-0.303924
-0.321227
-0.329319
-0.319914
-0.324442
-0.282831
-0.32182
-0.361771
-0.331753
-0.438536
-0.512029
-6.78477
-6.06425
-5.17816
-4.5809
-4.13145
-3.9621
-3.95805
-4.04772
-4.28288
-4.44204
-4.53791
-4.61627
-4.71266
-4.74141
-4.80762
-4.99147
-5.32905
-6.00638
-6.73105
-7.48751
-5.83794
-5.13839
-4.37723
-3.85818
-3.50751
-3.34854
-3.28722
-3.31842
-3.54609
-3.66869
-3.82049
-3.88034
-3.95897
-4.01832
-4.00313
-4.19189
-4.5137
-4.97405
-5.62083
-6.34644
-4.84999
-4.25506
-3.54864
-3.31154
-2.79303
-2.66416
-2.79304
-2.76429
-2.90417
-2.92696
-3.04105
-3.19363
-3.24661
-3.23161
-3.2282
-3.39936
-3.7216
-4.0217
-4.69897
-5.24042
-3.96815
-3.38771
-2.97678
-2.55558
-2.2969
-2.19515
-2.16646
-2.25419
-2.29055
-2.39868
-2.45578
-2.55975
-2.60682
-2.59057
-2.67778
-2.72605
-2.92195
-3.27492
-3.75863
-4.21751
-3.00158
-2.71001
-2.31016
-1.95448
-1.72745
-1.74316
-1.64762
-1.66661
-1.76743
-1.87774
-1.93354
-1.95584
-2.02602
-1.97358
-2.06044
-2.06242
-2.26421
-2.50485
-2.86637
-3.16744
-2.18086
-1.91627
-1.6453
-1.31787
-1.26727
-1.09805
-1.14199
-1.23028
-1.27444
-1.22427
-1.33702
-1.34947
-1.34867
-1.30412
-1.43389
-1.51434
-1.53396
-1.67422
-1.9464
-2.31703
-1.23639
-1.17737
-0.96554
-0.831515
-0.778324
-0.775962
-0.706886
-0.674242
-0.744266
-0.820961
-0.768476
-0.831189
-0.828143
-0.886074
-0.858557
-0.829063
-0.899932
-1.01948
-1.20893
-1.38997
-0.376478
-0.375603
-0.283734
-0.266915
-0.258565
-0.218877
-0.239092
-0.279294
-0.269684
-0.277
-0.291754
-0.221827
-0.320037
-0.340402
-0.297779
-0.391733
-0.290116
-0.360322
-0.397751
-0.464844
-6.409
-5.51911
-4.71664
-4.13982
-3.74196
-3.39592
-3.23133
-3.346
-3.46835
-3.57086
-3.69716
-3.85775
-3.90621
-3.96811
-4.17712
-4.36252
-4.76851
-5.41029
-6.15778
-6.85459
-5.43405
-4.73594
-3.99478
-3.50876
-3.04395
-2.85939
-2.83193
-2.71399
-2.82849
-2.96702
-3.10034
-3.21119
-3.16218
-3.25425
-3.45602
-3.63376
-4.03707
-4.50135
-5.1665
-5.77832
-4.53055
-3.93594
-3.32232
-2.81585
-2.54874
-2.27402
-2.24945
-2.29749
-2.41133
-2.38186
-2.59465
-2.57786
-2.65703
-2.73082
-2.76935
-3.01741
-3.22905
-3.7064
-4.24412
-4.83864
-3.62697
-3.17284
-2.69804
-2.28956
-2.02089
-1.87276
-1.84667
-1.76587
-1.84463
-1.88074
-1.97227
-2.06877
-2.09687
-2.19552
-2.24212
-2.31831
-2.59867
-2.89418
-3.40104
-3.82833
-2.86705
-2.4735
-2.11775
-1.72027
-1.51482
-1.39222
-1.36219
-1.35816
-1.43182
-1.45914
-1.58719
-1.56381
-1.54626
-1.62775
-1.67821
-1.78534
-1.99785
-2.27036
-2.55156
-2.94262
-1.94536
-1.63032
-1.40664
-1.21638
-1.15736
-1.04852
-0.979767
-0.952264
-1.05733
-1.00544
-1.0763
-1.0829
-1.0343
-1.17102
-1.1983
-1.29289
-1.29498
-1.60342
-1.83452
-2.07399
-1.18432
-1.03901
-0.910084
-0.762621
-0.64418
-0.55471
-0.598094
-0.543944
-0.589258
-0.653389
-0.638279
-0.672665
-0.711326
-0.595085
-0.685711
-0.704013
-0.801725
-0.96688
-1.07127
-1.21016
-0.361873
-0.291056
-0.282827
-0.233904
-0.230409
-0.244807
-0.190916
-0.211601
-0.173137
-0.208189
-0.143346
-0.256105
-0.245892
-0.21619
-0.255327
-0.23623
-0.20827
-0.293815
-0.299261
-0.400999
-5.85022
-5.06608
-4.24481
-3.58082
-3.05412
-2.72744
-2.65445
-2.62768
-2.70942
-2.77938
-2.88952
-3.01208
-3.14761
-3.2109
-3.41654
-3.67156
-4.10598
-4.73949
-5.48018
-6.3405
-4.91522
-4.32035
-3.56602
-3.08061
-2.59707
-2.28034
-2.17862
-2.21605
-2.22245
-2.27916
-2.37142
-2.52487
-2.60524
-2.64553
-2.74519
-3.10544
-3.40299
-4.03994
-4.6451
-5.34869
-4.10001
-3.51942
-2.97422
-2.40971
-2.12057
-1.89321
-1.66471
-1.84756
-1.79843
-1.84595
-1.91782
-1.95268
-2.08123
-2.08207
-2.3448
-2.46606
-2.79827
-3.25348
-3.82299
-4.36641
-3.30363
-2.9065
-2.33178
-1.95483
-1.72332
-1.49083
-1.32859
-1.39953
-1.43017
-1.50986
-1.49163
-1.60807
-1.61096
-1.7478
-1.80461
-1.93641
-2.24795
-2.51274
-3.03322
-3.44669
-2.47085
-2.16046
-1.84232
-1.52917
-1.25088
-1.13336
-1.06995
-1.08839
-1.11629
-1.11356
-1.23944
-1.21129
-1.29847
-1.3369
-1.31284
-1.49656
-1.69859
-1.99096
-2.33847
-2.6063
-1.75491
-1.54349
-1.24239
-1.08066
-0.920392
-0.760152
-0.71507
-0.704129
-0.782704
-0.728405
-0.812792
-0.783193
-0.886784
-0.890951
-0.959091
-1.05023
-1.22967
-1.43524
-1.63904
-1.81499
-1.1057
-0.974074
-0.722446
-0.674136
-0.452134
-0.490294
-0.455918
-0.386626
-0.491217
-0.441101
-0.458044
-0.462041
-0.489067
-0.512231
-0.559013
-0.635605
-0.711711
-0.809942
-0.946877
-1.13523
-0.347446
-0.331098
-0.235185
-0.227221
-0.145813
-0.056332
-0.14179
-0.14241
-0.116388
-0.17019
-0.151271
-0.208708
-0.175515
-0.185868
-0.25734
-0.260117
-0.307331
-0.223255
-0.349711
-0.4003
-5.3374
-4.5996
-3.76082
-3.09233
-2.6135
-2.21904
-2.12893
-2.04958
-2.00908
-2.06474
-2.29937
-2.28722
-2.43033
-2.55947
-2.8182
-3.12672
-3.56084
-4.22378
-4.99457
-5.75551
-4.60321
-3.87635
-3.17677
-2.62201
-2.16417
-1.83391
-1.6927
-1.70109
-1.74959
-1.7701
-1.86626
-1.94636
-2.09774
-2.16774
-2.35987
-2.59789
-3.00345
-3.5789
-4.25022
-4.89978
-3.75288
-3.15724
-2.7093
-2.1751
-1.76769
-1.57819
-1.48741
-1.28141
-1.36282
-1.46294
-1.4785
-1.58444
-1.65801
-1.78503
-1.92711
-2.06534
-2.50851
-2.88978
-3.49106
-3.97795
-3.01165
-2.5914
-2.15572
-1.72115
-1.43428
-1.26256
-1.09715
-1.06234
-1.07311
-1.17011
-1.20142
-1.26856
-1.28792
-1.28952
-1.46596
-1.64536
-1.90633
-2.29615
-2.70828
-3.15342
-2.37496
-2.03538
-1.62576
-1.30039
-1.02875
-0.934208
-0.833748
-0.833212
-0.818029
-0.821834
-0.900087
-1.03499
-0.96005
-1.00257
-1.11849
-1.19531
-1.43558
-1.80918
-2.06855
-2.42701
-1.55796
-1.32481
-1.16061
-0.977154
-0.777027
-0.633124
-0.591087
-0.577715