/*--------------------------------*- C++ -*----------------------------------*\
| =========                 |                                                 |
| \\      /  F ield         | OpenFOAM: The Open Source CFD Toolbox           |
|  \\    /   O peration     | Version:  2212                                  |
|   \\  /    A nd           | Website:  www.openfoam.com                      |
|    \\/     M anipulation  |                                                 |
\*---------------------------------------------------------------------------*/
FoamFile
{
    version     2.0;
    format      ascii;
    arch        "LSB;label=32;scalar=64";
    class       volScalarField;
    location    "0";
    object      relativeErrorField;
}
// * * * * * * * * * * * * * * * * * * * * * * * * * * * * * * * * * * * * * //

dimensions      [0 0 0 1 0 0 0];

internalField   nonuniform List<scalar> 
3200
(
0.00567253
0.00146712
0.00202686
0.00427165
0.00465964
0.00406443
0.00312129
0.00189748
0.000919916
0.000154747
0.000806477
0.00120981
0.000870868
0.000469363
2.43005e-05
0.000255035
0.000475491
0.00242229
0.00606897
0.0103246
0.00468719
0.000936096
0.00201116
0.00375369
0.00434713
0.00350718
0.00300046
0.0019033
0.0010251
2.74563e-05
0.000314159
0.000583544
0.000425653
0.000104832
0.000402054
0.000544304
1.81665e-05
0.00193271
0.00507838
0.00857309
0.00409949
0.000929549
0.00195367
0.00345627
0.00353665
0.00305837
0.00280442
0.00166521
0.000834601
0.000199874
0.000341578
0.000247596
6.26649e-05
5.81716e-06
0.000501801
0.000378119
0.000106077
0.00141761
0.00394063
0.00713302
0.00313647
0.000693059
0.00142484
0.00277404
0.00329783
0.00274263
0.00192587
0.00163157
0.000621815
0.000281602
6.42149e-05
0.000251769
2.57825e-05
2.90831e-05
0.000676738
0.000446367
0.000292558
0.00104611
0.00274236
0.00535551
0.00236469
0.000462945
0.001038
0.00231046
0.00269237
0.00228108
0.0018442
0.00131271
0.000759245
0.000586646
0.000125818
0.000282725
3.73155e-05
0.000412058
0.000663908
0.00078994
0.000180714
0.000750118
0.0023975
0.00427192
0.00161792
0.000282376
0.000860528
0.00154887
0.00170366
0.00149108
0.001426
0.000976715
0.000592928
0.000367658
0.00013801
0.000139675
3.5942e-05
0.000239762
0.000380673
0.000401794
0.000182284
0.00029787
0.00159056
0.00301399
0.00114837
7.33032e-05
0.000736579
0.00110915
0.000819284
0.000910605
0.000797428
0.000674993
0.000171012
0.000337222
0.00014925
7.93079e-05
0.000230664
2.2034e-05
0.000452973
0.000411361
5.06833e-05
0.000208428
0.00110545
0.00177126
0.000192524
0.000255508
0.00019046
0.000155101
0.000379073
0.000191066
0.000260278
6.50913e-05
0.000193924
7.18062e-07
3.66355e-05
0.000101827
5.79392e-05
0.000165213
8.68398e-05
6.25781e-05
9.10707e-05
4.53041e-05
0.000596112
0.000439236
0.00623043
0.00199781
0.00169959
0.00332314
0.00372373
0.00308602
0.00197728
0.000557764
0.000555197
0.00169337
0.00221419
0.00240816
0.00216887
0.0017757
0.00110328
0.000688194
0.00110976
0.00309981
0.00641661
0.0111055
0.00536745
0.0015671
0.00142965
0.0034292
0.0035461
0.00320912
0.00205209
0.000720257
0.00016954
0.00100167
0.00170926
0.00184058
0.00166813
0.00123241
0.000716047
0.000172071
0.000682209
0.00241686
0.00561432
0.00889524
0.00425073
0.00132953
0.00125796
0.00256663
0.00300415
0.00260156
0.00163164
0.00077572
0.000137823
0.000698345
0.00129163
0.0013924
0.0010256
0.000803834
0.00029042
0.00016727
0.00035876
0.00186902
0.00430704
0.0070994
0.00342845
0.000849063
0.00104524
0.00242231
0.00265778
0.00222641
0.0014642
0.000644884
3.43779e-05
0.00042697
0.001232
0.000821257
0.000720995
0.000474954
0.00022345
1.67257e-05
4.78281e-05
0.00133577
0.00343262
0.00595286
0.00258248
0.000809736
0.000950415
0.00214998
0.00211145
0.0017535
0.00144527
0.000823704
0.00011384
0.000167149
0.000666665
0.000639413
0.000385391
0.000127713
2.96014e-06
0.000217088
0.000201909
0.00120104
0.00259289
0.0045054
0.00189021
0.000492611
0.000755903
0.0014487
0.00152646
0.00139399
0.000957943
0.000304207
0.000173812
0.000215074
0.000526494
0.000579524
0.000292259
1.91238e-05
4.91178e-05
5.0149e-06
0.000128979
0.000763668
0.00192228
0.00311116
0.000904489
0.000226951
0.000495125
0.000877759
0.000955047
0.000888951
0.00069599
0.000332988
7.34815e-05
0.000202984
0.000219506
2.96256e-05
0.000288861
0.000261181
5.9093e-05
2.02734e-06
3.72921e-05
0.000267916
0.000867391
0.00209881
0.000423006
0.000326434
7.21998e-05
0.000116584
0.000425904
0.000343751
0.000447885
0.000106627
0.000115676
0.000138633
0.000121085
4.73147e-05
0.000115388
0.000183475
1.23507e-05
0.000223651
1.45044e-05
0.000239767
0.000446197
0.000554519
0.00725832
0.0029712
0.000574357
0.00223107
0.00267576
0.00171164
0.000583603
0.00118939
0.00236474
0.00377311
0.00423374
0.00445638
0.00400528
0.00372974
0.00278068
0.00203578
0.00274848
0.00419968
0.00796883
0.0119253
0.00631006
0.00254284
0.000699536
0.00193211
0.0022599
0.00158003
0.000646833
0.000637391
0.00189319
0.00272813
0.00344798
0.00354217
0.00313759
0.00261603
0.00202905
0.00154657
0.00209146
0.00340483
0.00636558
0.00982431
0.00496835
0.00197362
0.000548323
0.00155301
0.0018697
0.0014964
0.000467988
0.000365385
0.00135919
0.00240884
0.0027705
0.00287642
0.00272062
0.00218285
0.00150215
0.00148586
0.00140577
0.00272206
0.00528478
0.00813933
0.00390155
0.00158826
0.000497113
0.00155942
0.00160845
0.00140892
0.000759404
0.000113523
0.00102318
0.00144908
0.00200144
0.00204616
0.00220467
0.00144883
0.00112938
0.00066254
0.00108626
0.00189586
0.00416424
0.00641012
0.00312629
0.0011715
0.000376213
0.00111067
0.00125088
0.00100509
0.00036115
3.00731e-05
0.000883346
0.00121034
0.00143633
0.00176842
0.00150181
0.00121432
0.000933533
0.000843902
0.000942401
0.00160255
0.00300236
0.00487042
0.00233757
0.00109415
0.000338954
0.0011466
0.00116258
0.000974519
0.00066463
0.000302791
0.000355931
0.000862367
0.00118606
0.00121702
0.000843186
0.000817315
0.000537741
1.4399e-05
0.000354009
0.00103418
0.00218055
0.00345856
0.0014499
0.000620848
7.57844e-05
0.000641847
0.000662518
0.000297873
0.000210941
9.70263e-05
0.000409162
0.00058061
0.000677917
0.000727221
0.000568956
0.00052132
0.000571468
0.00030647
0.000332328
0.000538629
0.00128746
0.00217471
0.000353089
2.37751e-05
0.000264573
0.000319759
0.000243526
6.31634e-05
4.52715e-05
0.000158522
9.34503e-05
7.85567e-05
0.000318419
0.000224891
0.000196193
0.000314366
2.11342e-05
2.01207e-05
0.00010787
0.000196066
0.000461546
0.000632794
0.00850163
0.00440324
0.000841179
0.000689427
0.000727694
8.38076e-05
0.00124998
0.00296533
0.00425214
0.00591057
0.00661144
0.00675926
0.00632896
0.00564218
0.00486775
0.00423129
0.00444932
0.00605425
0.00923483
0.0132968
0.00712727
0.00356185
0.000976027
0.000747373
0.000811752
0.000288811
0.00113441
0.00240147
0.00392761
0.00467277
0.00541835
0.00569653
0.00526147
0.00452205
0.00402352
0.00330538
0.0036177
0.00463623
0.00753484
0.010985
0.00612098
0.00314295
0.000879935
0.000899331
0.000840844
0.000219458
0.00080245
0.0018449
0.00314761
0.00385769
0.00454075
0.00457833
0.00424376
0.00369854
0.002954
0.00270251
0.00264313
0.00412318
0.00606428
0.00907856
0.00505706
0.00248592
0.000336551
0.000512665
0.000474149
0.000170115
0.000573466
0.00144683
0.00249458
0.00322936
0.00361836
0.00377654
0.00343159
0.00299159
0.00240122
0.00202116
0.00199398
0.00302417
0.00517817
0.007561
0.00375495
0.00178419
0.000312228
0.000354308
0.000605936
0.000414579
0.000530263
0.0011979
0.00171641
0.00238193
0.00284148
0.00272585
0.00236268
0.00206034
0.00200358
0.00135277
0.00193139
0.00223605
0.00375176
0.00548918
0.00252412
0.00159
0.000125582
0.000330047
0.000543339
0.000385881
0.000208189
0.000810684
0.00129141
0.00175653
0.0022228
0.00204585
0.00159353
0.00145582
0.00130934
0.00115778
0.00127835
0.00157074
0.00274223
0.00384315
0.00148053
0.000885734
0.000207915
0.000377025
8.8998e-05
0.000133407
8.56583e-06
0.00068841
0.00061684
0.000959976
0.000967044
0.00124122
0.00107726
0.000843898
0.000840422
0.000766501
0.000496769
0.00101608
0.00155782
0.00240106
0.000615899
0.000311233
0.000122781
9.08081e-05
0.000156639
0.000126405
0.000157353
0.000157755
0.000659265
0.00023768
0.000363315
0.000450518
0.000367505
0.000303209
0.000127277
0.000340071
0.000302008
0.000379186
0.00043147
0.000682376
0.0103514
0.00604045
0.00327784
0.00142861
0.00138838
0.0020529
0.00337436
0.00522937
0.00689953
0.0083537
0.00909975
0.00903447
0.00871138
0.00787696
0.00669826
0.00593762
0.00651511
0.00769961
0.0109793
0.0145672
0.00856703
0.00511327
0.00250782
0.00107744
0.000732431
0.00170004
0.0029782
0.00436752
0.00558512
0.00703012
0.00748477
0.00767682
0.0073559
0.00676268
0.00569426
0.0050021
0.00526576
0.00685055
0.00935541
0.0124052
0.00707997
0.00441572
0.00199844
0.000921787
0.000969762
0.00139331
0.0021504
0.00348676
0.00452273
0.00578798
0.00638552
0.0064226
0.0061313
0.00545804
0.00469176
0.00435917
0.004337
0.00546669
0.00778422
0.0103925
0.00579745
0.00362017
0.00160295
0.000410191
0.000447448
0.000848409
0.00185613
0.00305181
0.00382159
0.00481584
0.00513233
0.00508736
0.00477523
0.00400403
0.00355797
0.00336583
0.00335575
0.00439631
0.00622053
0.00826904
0.00487827
0.00286478
0.00135591
0.000580344
0.000302849
0.000695352
0.00122689
0.00220476
0.00285147
0.00346565
0.00399688
0.00418622
0.00369959
0.00344688
0.00298198
0.00251324
0.00249453
0.00309268
0.00490447
0.00642008
0.00323837
0.00219275
0.000724082
0.000382188
0.000214687
0.000477126
0.000934766
0.00174988
0.00210926
0.00242917
0.0026512
0.00272454
0.00284865
0.00224044
0.00200445
0.00165423
0.00161667
0.00207512
0.00316939
0.00466856
0.0020058
0.00136418
0.000523255
4.91486e-05
1.87534e-05
3.62654e-05
0.000554871
0.000860253
0.00122838
0.00184431
0.00163693
0.00163463
0.00133644
0.00127632
0.00106057
0.00108308
0.00110624
0.00150659
0.00184857
0.00275299
0.000965997
0.000519938
0.000386076
5.6729e-05
0.000226118
2.11138e-05
0.000101915
0.000298111
0.000468911
0.00046904
0.000264761
0.000702363
0.000519573
0.000413294
0.000535744
0.000203911
0.000287195
0.000449188
0.000443774
0.00116366
0.0121782
0.00810779
0.0052413
0.00352228
0.00349501
0.00419911
0.00574355
0.0073909
0.00910081
0.0108399
0.0117435
0.0115923
0.0111738
0.0102495
0.00924187
0.00842709
0.00871766
0.010095
0.0129319
0.0164378
0.0100097
0.00689051
0.004389
0.00318351
0.0028856
0.00352453
0.00479971
0.0060092
0.00786019
0.0088264
0.00965696
0.0099533
0.00939901
0.00880644
0.00776839
0.00693853
0.007171
0.00847534
0.0110051
0.0141639
0.00862741
0.00605506
0.00377539
0.00268517
0.00254624
0.00307343
0.00391746
0.00524006
0.00651529
0.00783457
0.00837421
0.00853383
0.007798
0.00724133
0.00624371
0.00612123
0.00603622
0.0070526
0.00916646
0.0118053
0.00718208
0.00487898
0.00315229
0.00204991
0.00170924
0.00246075
0.00320417
0.00425276
0.00530018
0.00642338
0.00680902
0.0067592
0.00622964
0.00579225
0.00521617
0.00469628
0.00498586
0.00564067
0.00733837
0.00940093
0.00554461
0.00352304
0.0023401
0.00161703
0.00137793
0.00165908
0.00250511
0.00299537
0.00390754
0.0049705
0.00522634
0.00515702
0.00520885
0.00427954
0.00406665
0.00349585
0.00361933
0.00434328
0.00559545
0.00716003
0.00390355
0.00287557
0.00181843
0.00126496
0.00122017
0.00115227
0.00163657
0.00253127
0.00293053
0.00356878
0.00374961
0.00393106
0.00357581
0.00314778
0.00313871
0.00226087
0.00268091
0.00307105
0.00424699
0.0051085
0.00243667
0.00179049
0.00118524
0.000561128
0.000445816
0.000903021
0.000975105
0.00170917
0.00192264
0.00223818
0.00211762
0.0023286
0.00225401
0.00198556
0.00156978
0.00156196
0.00140025
0.00190461
0.00253363
0.00313728
0.000904315
0.000628662
0.000506956
0.000247973
0.000218245
0.000147298
0.000478533
0.000478713
0.000588947
0.000755227
0.000639386
0.000980832
0.000763558
0.000798054
0.000566786
0.000659313
0.000513638
0.000382816
0.000515892
0.00114306
0.0139198
0.0103071
0.00725804
0.00578114
0.0056203
0.00659668
0.00803007
0.00960041
0.0116261
0.0127875
0.0138803
0.0142111
0.013703
0.0122342
0.0112946
0.01054
0.0109672
0.0121871
0.015013
0.0185278
0.0119214
0.00904246
0.00627795
0.00509688
0.00473811
0.00535487
0.00657577
0.00825088
0.00987945
0.0110398
0.0119037
0.0122086
0.0115653
0.0106504
0.00943307
0.00914427
0.00917746
0.0104856
0.0128717
0.0155651
0.0101427
0.00760156
0.00528174
0.00403671
0.00389753
0.00456897
0.00552562
0.00677065
0.00817951
0.00942372
0.0100719
0.00985049
0.00946035
0.00879551
0.00802552
0.00769891
0.00750224
0.0088784
0.0105085
0.0133016
0.00837435
0.00606599
0.00437038
0.00352078
0.00331301
0.00368558
0.00440911
0.00566426
0.00663749
0.00765123
0.00824831
0.00801248
0.0077153
0.00720225
0.00652539
0.00607487
0.00625249
0.00683103
0.00850905
0.0106758
0.00658926
0.00462704
0.00339839
0.00247388
0.00223934
0.00266847
0.00330833
0.00429731
0.00508662
0.00593232
0.00638968
0.00651736
0.00600383
0.00560391
0.00499122
0.00469468
0.0049134
0.00551517
0.00685001
0.00818561
0.00431625
0.00344528
0.00236127
0.00187738
0.00177792
0.00205512
0.00246841
0.00310903
0.00355473
0.00418321
0.00453385
0.00447014
0.004433
0.00399102
0.00376447
0.00338854
0.0032107
0.00394536
0.00479872
0.00596488
0.00268966
0.00220114
0.00153315
0.000909265
0.000994044
0.0010815
0.00163523
0.00180762
0.00220008
0.00245449
0.00311207
0.00281072
0.00257872
0.00247069
0.00227185
0.0019216
0.00201184
0.00208643
0.00301099
0.00351537
0.000966403
0.000701089
0.00048124
0.000360298
0.00020822
0.000169749
0.000486229
0.000689274
0.000706781
0.000676641
0.000880911
0.00090335
0.00104815
0.00100078
0.000761372
0.00068905
0.000851554
0.000820372
0.00119189
0.00105147
0.0157255
0.0121785
0.00945846
0.00790192
0.00752735
0.00841209
0.00945733
0.011425
0.0131135
0.0148879
0.0160166
0.0159754
0.0155431
0.0145291
0.013449
0.01282
0.0129112
0.0143219
0.017014
0.020178
0.013644
0.0108142
0.00825413
0.00686071
0.00655757
0.00704187
0.00823313
0.00971235
0.0112631
0.012638
0.0136195
0.0139927
0.0132907
0.0122452
0.011525
0.0107726
0.0109211
0.0122597
0.0144442
0.0171853
0.0115484
0.00910952
0.00689633
0.00595697
0.00529413
0.00589039
0.00695753
0.00825875
0.00944807
0.0109594
0.0115498
0.0114523
0.0110132
0.0103898
0.00958655
0.0091622
0.00892429
0.0101208
0.011679
0.0143847
0.00927679
0.00743807
0.00572682
0.00481433
0.00455786
0.00492443
0.00560706
0.00669236
0.00787908
0.00883761
0.00953129
0.00953344
0.00912152
0.00859636
0.00767109
0.00753003
0.0074191
0.00805471
0.00993331
0.0118422
0.00774578
0.00570438
0.00435686
0.00376487
0.0035607
0.00367515
0.00436047
0.00530531
0.00628232
0.00695347
0.0073338
0.00719216
0.00707638
0.00660383
0.00605454
0.00577545
0.00580193
0.00635491
0.00764891
0.00909969
0.0053313
0.00427855
0.00318665
0.00267183
0.00250217
0.00269121
0.00340962
0.00365821
0.00445464
0.00486816
0.00540344
0.00532572
0.00520981
0.00458017
0.00433233
0.00423658
0.00420621
0.00465089
0.00538483
0.00656573
0.00320536
0.00251641
0.00216568
0.0015496
0.00157951
0.00166758
0.00175313
0.00249406
0.00268069
0.00299256
0.00307044
0.00362637
0.00291327
0.00272517
0.00263913
0.00273176
0.00254584
0.00257293
0.003269
0.0037505
0.000814574
0.000931386
0.000412749
0.000306972
0.000582227
0.000329586
0.000683368
0.00104898
0.000680865
0.000989859
0.00104722
0.00123149
0.00114587
0.00124931
0.000723681
0.000789292
0.000997629
0.00114938
0.0011639
0.00142408
0.0174577
0.0142051
0.0115456
0.00971767
0.00950339
0.0101791
0.0114423
0.0130276
0.0152109
0.0169568
0.0175781
0.0177101
0.0171567
0.0162625
0.0152307
0.0146051
0.0148503
0.0162539
0.0186496
0.0217501
0.0151816
0.0125381
0.00991009
0.00854263
0.00802974
0.00887359
0.00990084
0.0114149
0.0128622
0.014142
0.0151769
0.0154035
0.0149304
0.0137777
0.012794
0.012705
0.0126437
0.0138143
0.01579
0.0185302
0.0127215
0.0103554
0.00841072
0.0072233
0.00684494
0.0074235
0.00824248
0.00955106
0.010801
0.0119803
0.012809
0.0129976
0.0122728
0.0117925
0.010996
0.0106527
0.0104101
0.0119558
0.0131848
0.0154493
0.0104298
0.00850251
0.00704536
0.00577864
0.00561133
0.0059383
0.00677047
0.00792951
0.00890782
0.00990764
0.0104298
0.0103196
0.0102703
0.00967746
0.00872956
0.00880538
0.00885945
0.00925599
0.0111274
0.0127718
0.00821755
0.00698583
0.00536741
0.00438285
0.00439678
0.0046283
0.00527173
0.00627389
0.00704705
0.00787985
0.0082251
0.00797775
0.00807909
0.00742844
0.00682781
0.00653282
0.00660114
0.00716777
0.00841534
0.00978448
0.00583687
0.004938
0.00381508
0.00336739
0.00323674
0.00324817
0.00385528
0.00450321
0.00531918
0.00577469
0.00588458
0.00610512
0.0057032
0.00534752
0.00500112
0.00458865
0.00478295
0.00505519
0.00601906
0.00717508
0.00351174
0.00303806
0.00252196
0.0019582
0.00191524
0.00209469
0.00240149
0.00259509
0.00283454
0.00349598
0.00349926
0.00358673
0.00340147
0.00317914
0.00305514
0.0026077
0.00305781
0.00295196
0.00375593
0.00423914
0.00127274
0.000969221
0.000702461
0.000900112
0.00077519
0.000689761
0.000942828
0.000813261
0.000974798
0.00121997
0.00106868
0.00132675
0.00135945
0.00105388
0.00127874
0.000898088
0.00117454
0.0014132
0.00124994
0.00157558
0.01928
0.015868
0.0132255
0.0116598
0.0110404
0.0116208
0.012726
0.0144064
0.0162309
0.0175772
0.0186147
0.0188299
0.0185392
0.0174643
0.0164853
0.0160168
0.0162868
0.0176424
0.0200437
0.0227361
0.0165504
0.0138347
0.0117418
0.0101883
0.00959774
0.00984122
0.0110993
0.0126344
0.0140656
0.0153441
0.016128
0.0161376
0.0160567
0.0151599
0.014189
0.0137889
0.0139483
0.0150929
0.0173436
0.0197837
0.0140834
0.0119061
0.00954673
0.00852802
0.0081409
0.00866132
0.00917205
0.0106105
0.0121896
0.0132038
0.0136369
0.0139491
0.0135833
0.01284
0.011836
0.0116812
0.0118454
0.0126298
0.0142782
0.0165475
0.0113873
0.00981715
0.00815338
0.00700935
0.0067191
0.00686447
0.0076107
0.00885727
0.00970099
0.0106427
0.011199
0.0112588
0.0108358
0.0103416
0.009691
0.00913778
0.00971373
0.0103969
0.0120418
0.0137546
0.00897517
0.0075014
0.00628349
0.00545878
0.00505707
0.00523179
0.00598424
0.00671837
0.00766875
0.00823372
0.00861736
0.00863429
0.00882583
0.00781636
0.00766113
0.00724578
0.0075719
0.00805926
0.00934997
0.0104818
0.00648616
0.00551444
0.00449982
0.00398466
0.00385326
0.0039838
0.00442479
0.00482075
0.00548943
0.00597734
0.00635567
0.00640215
0.00625731
0.00573236
0.0055387
0.00549263
0.00540068
0.00584949
0.00653668
0.00759915
0.00383673
0.00344773
0.00268516
0.00264384
0.00235302
0.00255808
0.00258159
0.00275257
0.00320291
0.00360351
0.00378078
0.00393668
0.00391082
0.00374806
0.00330239
0.0031136
0.00299655
0.00371702
0.00409866
0.00471598
0.00121162
0.00122513
0.000730544
0.000957009
0.000678678
0.000835051
0.00100696
0.000908366
0.0012758
0.00128216
0.00135442
0.00128216
0.00143356
0.00107827
0.0011718
0.00136841
0.000914266
0.0012801
0.00167897
0.00144399
0.0203353
0.0171975
0.0145825
0.013262
0.012603
0.0127737
0.0136144
0.0153807
0.0172496
0.0184455
0.019468
0.0196397
0.0192652
0.0182318
0.0175551
0.016998
0.0176889
0.0188209
0.0213599
0.0240306
0.0174641
0.0149643
0.0127221
0.0113267
0.0107579
0.0112811
0.0119952
0.0131112
0.0145313
0.0161373
0.0167343
0.0170198
0.0164078
0.0157156
0.0150198
0.0146094
0.0151157
0.0163418
0.0182136
0.020593
0.0146729
0.0127555
0.0106935
0.00951566
0.00900567
0.00940018
0.0100105
0.0113073
0.012347
0.0135433
0.0142847
0.0141785
0.0141211
0.0134165
0.0124584
0.012163
0.0126169
0.0136114
0.0153144
0.0172976
0.0120041
0.0103521
0.00872317
0.00781196
0.00758837
0.00765032
0.00822017
0.00902594
0.0101056
0.0111866
0.0115447
0.0117697
0.0113272
0.0108635
0.00998481
0.0101923
0.0106293
0.0111141
0.0126293
0.014183
0.00960281
0.00833747
0.00689525
0.00615175
0.00585772
0.00591951
0.00636883
0.00729415
0.00806485
0.0086958
0.00906303
0.00933191
0.00896073
0.00847593
0.00816425
0.00783368
0.00803314
0.00884048
0.00973848
0.0111833
0.00669409
0.00604124
0.00498178
0.00444835
0.00409415
0.00437999
0.00472431
0.00512715
0.00600348
0.00626402
0.00635465
0.00664192
0.00655754
0.00635534
0.006053
0.00561451
0.00588977
0.0062156
0.00706574
0.00799554
0.00421429
0.00355354
0.00298124
0.00255354
0.00279857
0.00266258
0.00275316
0.00315044
0.00360836
0.00384866
0.00391414
0.00422984
0.00395908
0.0038406
0.00345958
0.00360213
0.00372569
0.00368929
0.00438617
0.00489461
0.00163675
0.00121312
0.000924139
0.00111028
0.000919844
0.0007425
0.000907386
0.00071482
0.00108989
0.00128666
0.00147769
0.00142303
0.00143787
0.00154914
0.00124001
0.00104248
0.00132662
0.00163183
0.00154968
0.0013863
0.0212061
0.0182876
0.0157133
0.0140446
0.0135101
0.0136683
0.014605
0.0157822
0.0172562
0.0185184
0.0196151
0.0196378
0.0192785
0.0188089
0.0182579
0.0180389
0.018204
0.0196118
0.0218605
0.0245196
0.0180957
0.0161471
0.0136525
0.0121054
0.0116433
0.0115178
0.0124109
0.0138382
0.0147744
0.0160532
0.0166872
0.0168805
0.0166084
0.0160448
0.0155699
0.0151296
0.0158452
0.0168383
0.0188407
0.0210133
0.0155048
0.0137897
0.0118204
0.0104239
0.00985552
0.00990964
0.0106887
0.0113825
0.0123779
0.0135713
0.0144409
0.0141885
0.0139461
0.013711
0.0130491
0.0128731
0.0130982
0.0142902
0.0157769
0.0177988
0.0126722
0.0113793
0.00938875
0.00874326
0.00810405
0.00823555
0.00852308
0.00927499
0.01025
0.0110205
0.0116815
0.0117469
0.0113453
0.0109718
0.0107025
0.0105184
0.010809
0.0115727
0.0129183
0.0146467
0.00997489
0.00868711
0.00750571
0.00635778
0.00632757
0.00652216
0.00680193
0.00738601
0.00799652
0.00879685
0.00915165
0.00927257
0.00902219
0.00865638
0.00804214
0.00816858
0.00847469
0.00890369
0.010008
0.0113234
0.00747738
0.00644883
0.00524644
0.00481938
0.00459783
0.00436667
0.0049507
0.00530244
0.00575093
0.00619201
0.00661417
0.00682749
0.00633376
0.00614806
0.0059365
0.00600597
0.00607815
0.00643298
0.00732139
0.0080635
0.00452791
0.00390667
0.00351283
0.0029477
0.00263542
0.00278579
0.00310408
0.0034454
0.00357406
0.00382323
0.00397552
0.00410779
0.00399927
0.00377979
0.00382964
0.00379889
0.0036622
0.00401766
0.00454876
0.00510535
0.00145832
0.00145585
0.00132328
0.00110045
0.000848769
0.000806656
0.00100131
0.00115147
0.0011624
0.00131303
0.00143593
0.00128757
0.00134881
0.00126702
0.00101464
0.00139222
0.00104489
0.00128707
0.00163518
0.0017808
0.0215829
0.0188889
0.0162155
0.0150399
0.0140015
0.0139133
0.0145085
0.015671
0.0170683
0.018055
0.0189054
0.0194334
0.0189126
0.0182568
0.0180116
0.0179235
0.018469
0.0199654
0.0221285
0.0248907
0.0188764
0.0163628
0.0142256
0.0128517
0.0119696
0.0120366
0.0125054
0.0135028
0.0146823
0.0156558
0.0163597
0.0167351
0.0163314
0.0158383
0.0157342
0.0155601
0.0158654
0.0173114
0.018959
0.0213278
0.0158116
0.0139103
0.0119313
0.0108291
0.0102726
0.0102654
0.0108495
0.0114765
0.0124284
0.0132852
0.0139254
0.0138205
0.0137805
0.0135736
0.0134502
0.0128529
0.0133534
0.0144012
0.0159698
0.0179677
0.0130039
0.0115065
0.00969052
0.00880384
0.00840205
0.00837711
0.00859637
0.00925731
0.0102769
0.0109682
0.0114591
0.0115874
0.0112733
0.010938
0.010835
0.0106119
0.0107563
0.0118305
0.0132828
0.0146175
0.0104365
0.00904906
0.00779228
0.00705609
0.00671309
0.00650076
0.00694636
0.00743724
0.0080447
0.00842425
0.00865134
0.00903123
0.0089366
0.00859249
0.00846996
0.00840515
0.00865814
0.00885607
0.0105427
0.0114645
0.007404
0.00642731
0.00562033
0.00506081
0.00461188
0.00462721
0.00480637
0.0051879
0.00588484
0.00649641
0.00663678
0.00644184
0.00633777
0.00629138
0.00606386
0.00574571
0.00615324
0.00672036
0.00739525
0.00809835
0.00445046
0.00405596
0.00368394
0.00328005
0.00285719
0.00277681
0.00294127
0.00340769
0.00378315
0.00355367
0.00394682
0.00393753
0.00387772
0.00392294
0.00362562
0.00368774
0.00359456
0.00400767
0.00469117
0.0052697
0.0017563
0.00131273
0.00111705
0.00101875
0.00130073
0.00101277
0.00105453
0.00115443
0.00129436
0.00116901
0.00145747
0.00121018
0.00116219
0.00137609
0.00133676
0.00125165
0.00131233
0.00121501
0.00166945
0.00180628
0.0217882
0.0190278
0.0168962
0.0149273
0.0143638
0.0140178
0.0144435
0.0152265
0.0162402
0.0173046
0.0182425
0.018373
0.0181518
0.0177778
0.0173989
0.0176067
0.0183741
0.0197502
0.0219039
0.0245458
0.0188771
0.0165968
0.0144446
0.0129227
0.0123241
0.0120946
0.0124793
0.013187
0.0140899
0.0148619
0.015734
0.0157939
0.0158975
0.0152909
0.0152826
0.0153703
0.0157788
0.0169548
0.0190368
0.0209146
0.016045
0.0142166
0.0121021
0.0109274
0.0101665
0.0103721
0.0105049
0.0110181
0.0119691
0.0128534
0.0132621
0.0136288
0.0132711
0.0131247
0.0127806
0.0127226
0.0132026
0.0141036
0.0158401
0.0176911
0.0133647
0.0117114
0.01015
0.0090594
0.00827965
0.00827725
0.00863439
0.00928393
0.00975015
0.0104397
0.0108384
0.0110088
0.0108149
0.0106415
0.0104341
0.010513
0.0109987
0.0115548
0.0134096
0.0144128
0.0102958
0.00891193
0.00807713
0.00714272
0.00667776
0.0068291
0.00671991
0.00734801
0.00768669
0.0081295
0.00833238
0.0088903
0.00835957
0.00818873
0.00820975
0.00805654
0.00865745
0.00910868
0.0099919
0.0115418
0.00735991
0.00660707
0.00583584
0.00516254
0.00502753
0.00479275
0.0049475
0.00499227
0.00566257
0.00594506
0.00607027
0.0059169
0.00616547
0.00633222
0.00561037
0.00587152
0.00614464
0.00664704
0.00744034
0.00822714
0.00446114
0.00395744
0.00351594
0.00311681
0.00292425
0.00297455
0.00285933
0.00308141
0.00336817
0.00366761
0.0038062
0.00400591
0.00391478
0.00374612
0.00369501
0.00370985
0.00345517
0.00406344
0.00441198
0.00514008
0.00169805
0.00134686
0.00126598
0.00107707
0.00103983
0.000864542
0.00105408
0.000942384
0.00107533
0.00137529
0.00122077
0.00120846
0.00122122
0.00151265
0.00138026
0.00111837
0.00100552
0.00127278
0.00147296
0.00156577
0.0213489
0.0189371
0.0165112
0.0145881
0.0136191
0.0133677
0.0138099
0.0141807
0.0153117
0.016224
0.0165336
0.0170564
0.0167059
0.0166635
0.0166547
0.0169077
0.0176807
0.0191473
0.0217129
0.0236934
0.0187276
0.016224
0.0144791
0.0127325
0.0117123
0.0115606
0.0118095
0.0125031
0.0131588
0.0138564
0.0144522
0.0146169
0.0146237
0.0144032
0.0142286
0.0145015
0.0151343
0.016622
0.0184409
0.0204574
0.0154981
0.0139874
0.0122
0.0107398
0.0100988
0.0099761
0.00979417
0.0105656
0.010742
0.0115841
0.0123079
0.0124258
0.0122134
0.0123701
0.0118865
0.0122093
0.0127917
0.0139832
0.0154671
0.0171052
0.0129713
0.011342
0.00996007
0.00871887
0.00851111
0.00803541
0.00794612
0.00851811
0.00934088
0.00958374
0.00986751
0.00999117
0.0102982
0.0101825
0.00977185
0.0100564
0.0103567
0.0114025
0.012946
0.0143162
0.0102328
0.00904346
0.00775813
0.00704317
0.00647145
0.0063315
0.00649368
0.00674204
0.00730021
0.00744998
0.00778282
0.00795252
0.00784151
0.00784238
0.00760293
0.0080809
0.00818391
0.00907943
0.00981095
0.0110027
0.00765962
0.00671847
0.00566721
0.00497229
0.00482346
0.00451654
0.00452004
0.00488912
0.00517385
0.00555499
0.00570805
0.00557625
0.00542632
0.00572579
0.00526512
0.00589376
0.00586439
0.00643337
0.0072133
0.0079808
0.00471293
0.00409833
0.00337245
0.00307355
0.00292351
0.00268642
0.0027246
0.0030102
0.00291639
0.00327555
0.00328114
0.00365236
0.00330789
0.00362305
0.00338835
0.00350091
0.00348515
0.00392147
0.00413396
0.00483657
0.00150218
0.00136162
0.00124687
0.00100848
0.000857059
0.000839978
0.000955123
0.00115439
0.00114867
0.0014612
0.00102672
0.00115588
0.00131304
0.00117418
0.00120404
0.00116999
0.00100697
0.00126617
0.00151004
0.0017554
0.0204898
0.0180016
0.0156017
0.0142264
0.0130564
0.0125409
0.0127161
0.0130074
0.0136367
0.014295
0.0148897
0.0153015
0.0150867
0.0152327
0.0151334
0.0159079
0.0167686
0.0183467
0.0205317
0.0229916
0.017884
0.0160224
0.0138515
0.0122506
0.0111911
0.0108128
0.0110088
0.0111452
0.0115542
0.0123507
0.0126407
0.0130531
0.0127831
0.0131102
0.0129542
0.0135144
0.0143505
0.0155819
0.0174755
0.0194214
0.0151274
0.0135579
0.0116007
0.0103923
0.0094299
0.00911449
0.00908898
0.00941018
0.00992392
0.0104463
0.0107703
0.0110096
0.0111266
0.0109117
0.0111528
0.0110853
0.0122082
0.0129493
0.0146466
0.0163767
0.0124332
0.0110596
0.00946807
0.00863965
0.0076719
0.00755607
0.007418
0.00764232
0.00793623
0.00852414
0.00869764
0.00904433
0.00896689
0.00884757
0.00907904
0.00925438
0.00972457
0.0107703
0.0120417
0.0135865
0.00974903
0.00880175
0.00732692
0.00658808
0.00631582
0.00587469
0.00583147
0.00620389
0.00609918
0.00659366
0.0068311
0.00707289
0.00711351
0.00689493
0.00692877
0.00713723
0.00774547
0.00851622
0.00963316
0.0106239
0.00741187
0.00622722
0.00525194
0.00488018
0.00447386
0.00414364
0.00413143
0.00449103
0.00459828
0.00501151
0.0048592
0.00524441
0.00508504
0.00486851
0.00498718
0.00516452
0.00565824
0.00576668
0.00682938
0.00758697
0.00429063
0.00369565
0.00305693
0.00285147
0.00261932
0.00250403
0.00236988
0.00271212
0.00292196
0.00308093
0.00301827
0.00298833
0.00322653
0.00304775
0.00299579
0.00310948
0.00354445
0.00364973
0.00416824
0.00462143
0.00153979
0.00110641
0.0012337
0.000973509
0.000777544
0.000781763
0.000844796
0.000806475
0.00125861
0.00100103
0.00105803
0.00108468
0.00105372
0.00106865
0.000931615
0.00106007
0.0011917
0.00109285
0.00144465
0.00168679
0.019163
0.0171234
0.0146167
0.0129266
0.0116546
0.0111737
0.0111595
0.01141
0.0120712
0.0125189
0.0127891
0.0130109
0.0132844
0.0133681
0.0135582
0.0140807
0.0150377
0.0169546
0.0190062
0.0211478
0.0168194
0.0148005
0.0126046
0.0111067
0.0100944
0.00963448
0.00945594
0.009544
0.0101975
0.0105494
0.0109859
0.0111587
0.0113863
0.011559
0.0115179
0.012064
0.0129938
0.0143232
0.0161901
0.0182844
0.0142634
0.0125113
0.0104317
0.00973226
0.00820648
0.00782608
0.00820312
0.00811743
0.00852727
0.00859373
0.0089287
0.00937719
0.00953378
0.00949121
0.00948298
0.009988
0.0109374
0.0118223
0.0138166
0.0154116
0.0119208
0.0101754
0.00893935
0.00767287
0.00689483
0.00658819
0.00650103
0.00676344
0.0068719
0.00719598
0.00736727
0.00767952
0.00782146
0.00777369
0.00803667
0.00818307
0.00877286
0.00983468
0.0112895
0.0126699
0.00921713
0.00832077
0.00709195
0.00599904
0.00530137
0.0053488
0.00505498
0.00511272
0.00542165
0.0057598
0.00593095
0.00599957
0.0062153
0.00605503
0.00632235
0.00632935
0.00694973
0.00768963
0.00880086
0.00972647
0.00685005
0.00601843
0.00516681
0.00413808
0.00397871
0.00344705
0.00358467
0.00386152
0.00399992
0.00384235
0.00419622
0.0042354
0.0042331
0.0040936
0.00450135
0.00475441
0.00481657
0.00525762
0.00611307
0.00727776
0.00397488
0.00378491
0.00310373
0.00267271
0.00250156
0.0024938
0.00227167
0.00216667
0.00239162
0.00263803
0.00246937
0.00267093