/*--------------------------------*- C++ -*----------------------------------*\
| =========                 |                                                 |
| \\      /  F ield         | OpenFOAM: The Open Source CFD Toolbox           |
|  \\    /   O peration     | Version:  2212                                  |
|   \\  /    A nd           | Website:  www.openfoam.com                      |
|    \\/     M anipulation  |                                                 |
\*---------------------------------------------------------------------------*/
FoamFile
{
    version     2.0;
    format      ascii;
    arch        "LSB;label=32;scalar=64";
    class       volScalarField;
    location    "0";
    object      T;
}
// * * * * * * * * * * * * * * * * * * * * * * * * * * * * * * * * * * * * * //

dimensions      [0 0 0 1 0 0 0];

internalField   nonuniform List<scalar> 
3200
(
354.435
352.997
351.896
351.315
351.32
351.889
352.372
352.764
353.092
353.421
353.243
352.795
352.22
351.279
350.348
349.47
348.86
348.919
349.844
350.94
347.344
346.134
345.177
344.657
344.647
345.117
345.554
345.846
346.117
346.424
346.239
345.845
345.334
344.528
343.713
342.943
342.422
342.475
343.291
344.182
340.179
339.193
338.339
337.93
337.922
338.265
338.635
338.873
339.089
339.368
339.18
338.86
338.405
337.74
337.029
336.388
335.959
335.984
336.662
337.418
332.951
332.176
331.457
331.131
331.113
331.35
331.68
331.846
332.035
332.282
332.093
331.813
331.468
330.909
330.315
329.807
329.46
329.479
330.017
330.648
325.679
325.091
324.528
324.279
324.242
324.411
324.677
324.793
324.946
325.139
324.987
324.757
324.492
324.054
323.596
323.204
322.92
322.942
323.388
323.886
318.361
317.962
317.564
317.384
317.343
317.46
317.662
317.729
317.845
317.971
317.865
317.709
317.513
317.2
316.877
316.582
316.39
316.398
316.733
317.089
311.026
310.803
310.571
310.455
310.45
310.498
310.617
310.649
310.717
310.798
310.728
310.659
310.52
310.324
310.139
309.959
309.846
309.845
310.05
310.26
303.695
303.628
303.553
303.504
303.514
303.524
303.562
303.579
303.582
303.617
303.597
303.584
303.529
303.458
303.408
303.336
303.299
303.308
303.365
303.445
354.346
353.014
351.904
351.526
351.531
352.053
352.664
353.153
353.56
353.896
353.781
353.284
352.561
351.727
350.709
349.821
349.232
349.124
350.053
351.046
347.286
346.161
345.188
344.839
344.826
345.269
345.774
346.2
346.538
346.797
346.669
346.255
345.62
344.889
344.001
343.237
342.75
342.663
343.453
344.257
340.141
339.196
338.382
338.085
338.049
338.426
338.838
339.177
339.448
339.66
339.543
339.195
338.645
338.021
337.264
336.649
336.218
336.177
336.814
337.456
332.915
332.18
331.512
331.265
331.211
331.512
331.852
332.095
332.304
332.48
332.394
332.095
331.638
331.128
330.518
330.028
329.676
329.649
330.146
330.667
325.647
325.093
324.571
324.387
324.315
324.564
324.817
324.988
325.146
325.288
325.244
324.978
324.629
324.236
323.781
323.363
323.107
323.103
323.48
323.896
318.359
317.945
317.587
317.453
317.392
317.594
317.759
317.868
317.979
318.09
318.061
317.846
317.588
317.335
317.025
316.695
316.518
316.533
316.8
317.086
311.048
310.792
310.59
310.49
310.44
310.593
310.674
310.748
310.805
310.881
310.873
310.723
310.562
310.434
310.231
310.034
309.927
309.927
310.102
310.271
303.701
303.628
303.553
303.511
303.503
303.555
303.579
303.615
303.616
303.648
303.642
303.596
303.535
303.508
303.437
303.357
303.325
303.331
303.386
303.439
354.617
353.244
352.204
351.83
351.916
352.416
353.157
353.75
354.282
354.621
354.626
354.147
353.395
352.485
351.456
350.447
349.65
349.542
350.285
351.503
347.52
346.377
345.445
345.11
345.163
345.562
346.199
346.678
347.121
347.404
347.4
346.988
346.305
345.546
344.662
343.788
343.129
342.987
343.651
344.65
340.348
339.409
338.597
338.325
338.328
338.646
339.16
339.573
339.914
340.17
340.149
339.804
339.199
338.575
337.834
337.095
336.572
336.429
336.983
337.793
333.114
332.34
331.663
331.454
331.469
331.696
332.082
332.413
332.677
332.927
332.867
332.606
332.097
331.574
330.983
330.374
329.978
329.875
330.269
330.932
325.818
325.212
324.688
324.517
324.537
324.711
324.979
325.206
325.442
325.652
325.571
325.392
325.005
324.578
324.122
323.618
323.343
323.274
323.563
324.071
318.472
318.046
317.685
317.548
317.566
317.685
317.857
318.009
318.2
318.351
318.28
318.159
317.886
317.572
317.24
316.867
316.682
316.635
316.846
317.218
311.098
310.854
310.646
310.558
310.575
310.641
310.724
310.826
310.944
311.022
310.978
310.915
310.752
310.571
310.347
310.121
310.018
310.002
310.112
310.353
303.719
303.64
303.565
303.545
303.547
303.574
303.595
303.638
303.67
303.695
303.672
303.67
303.618
303.54
303.467
303.392
303.347
303.358
303.391
303.477
355.044
353.731
352.757
352.353
352.455
353.081
353.871
354.496
355.22
355.553
355.622
355.201
354.408
353.406
352.265
351.269
350.578
350.404
351.023
352.104
347.906
346.79
345.914
345.578
345.635
346.132
346.83
347.33
347.947
348.198
348.258
347.868
347.191
346.336
345.341
344.485
343.915
343.755
344.28
345.172
340.666
339.747
338.969
338.705
338.726
339.121
339.712
340.108
340.619
340.81
340.879
340.504
339.926
339.235
338.406
337.666
337.217
337.088
337.518
338.233
333.389
332.599
331.963
331.764
331.748
332.063
332.546
332.864
333.258
333.41
333.481
333.14
332.653
332.12
331.453
330.821
330.48
330.389
330.717
331.267
326.043
325.416
324.909
324.78
324.737
324.951
325.339
325.588
325.891
326.005
326.055
325.782
325.413
325.01
324.485
323.982
323.736
323.683
323.924
324.311
318.649
318.192
317.819
317.741
317.692
317.833
318.126
318.299
318.495
318.608
318.616
318.415
318.185
317.897
317.499
317.142
316.952
316.956
317.088
317.37
311.228
310.935
310.707
310.662
310.644
310.711
310.889
311.002
311.115
311.189
311.187
311.08
310.923
310.765
310.517
310.313
310.174
310.194
310.257
310.44
303.77
303.672
303.589
303.578
303.571
303.601
303.653
303.69
303.725
303.765
303.758
303.719
303.661
303.61
303.531
303.457
303.413
303.42
303.44
303.503
355.598
354.345
353.517
353.095
353.243
353.965
354.8
355.481
356.163
356.718
356.786
356.52
355.67
354.517
353.472
352.38
351.637
351.494
352.052
353.078
348.363
347.317
346.571
346.208
346.29
346.881
347.617
348.159
348.734
349.206
349.254
349.005
348.286
347.269
346.346
345.45
344.803
344.699
345.148
345.998
341.036
340.186
339.527
339.23
339.283
339.735
340.365
340.826
341.276
341.672
341.7
341.466
340.886
340.018
339.239
338.503
337.942
337.858
338.229
338.915
333.649
332.99
332.425
332.189
332.185
332.551
333.078
333.446
333.797
334.137
334.126
333.917
333.467
332.759
332.118
331.551
331.077
331.025
331.291
331.828
326.228
325.725
325.27
325.097
325.063
325.333
325.762
326.071
326.306
326.574
326.557
326.382
326.049
325.503
325.009
324.561
324.198
324.151
324.334
324.76
318.801
318.412
318.081
317.965
317.921
318.106
318.447
318.639
318.804
318.997
319.001
318.868
318.634
318.209
317.885
317.571
317.303
317.279
317.377
317.694
311.315
311.06
310.862
310.814
310.775
310.878
311.109
311.206
311.315
311.437
311.428
311.35
311.185
310.924
310.743
310.574
310.408
310.398
310.451
310.644
303.796
303.707
303.642
303.629
303.614
303.653
303.725
303.761
303.799
303.828
303.83
303.807
303.748
303.664
303.612
303.552
303.491
303.48
303.499
303.561
356.369
355.249
354.371
354
354.252
354.751
355.763
356.621
357.384
357.872
357.997
357.785
357.023
355.894
354.642
353.662
352.904
352.774
353.332
354.223
349.042
348.09
347.323
346.961
347.155
347.572
348.432
349.154
349.788
350.183
350.293
350.098
349.437
348.448
347.373
346.55
345.886
345.791
346.261
347.004
341.631
340.813
340.159
339.846
340.001
340.328
341.072
341.66
342.151
342.488
342.568
342.4
341.833
341.031
340.103
339.428
338.871
338.752
339.157
339.784
334.124
333.467
332.896
332.668
332.781
333.069
333.67
334.137
334.51
334.776
334.854
334.717
334.215
333.604
332.821
332.289
331.824
331.73
332.037
332.571
326.581
326.073
325.615
325.45
325.525
325.771
326.24
326.597
326.866
327.057
327.125
327.037
326.618
326.174
325.532
325.137
324.759
324.689
324.936
325.361
319.03
318.659
318.325
318.206
318.271
318.418
318.772
319.03
319.207
319.338
319.382
319.343
319.025
318.724
318.235
317.968
317.709
317.645
317.835
318.147
311.445
311.215
311
310.95
310.984
311.044
311.258
311.453
311.548
311.63
311.657
311.631
311.437
311.244
310.94
310.792
310.644
310.601
310.716
310.918
303.836
303.765
303.679
303.666
303.679
303.705
303.777
303.849
303.873
303.895
303.916
303.901
303.832
303.77
303.659
303.628
303.572
303.553
303.593
303.659
357.349
356.222
355.443
355.074
355.454
355.818
356.935
357.829
358.64
359.16
359.377
359.15
358.372
357.196
356.002
355.126
354.284
354.114
354.689
355.55
349.867
348.902
348.21
347.897
348.22
348.472
349.448
350.212
350.879
351.316
351.469
351.284
350.599
349.586
348.564
347.801
347.079
346.962
347.429
348.147
342.301
341.507
340.894
340.644
340.905
341.086
341.918
342.557
343.094
343.419
343.565
343.402
342.819
341.954
341.138
340.484
339.852
339.79
340.151
340.747
334.674
334.052
333.526
333.316
333.532
333.676
334.348
334.85
335.279
335.504
335.654
335.538
335.07
334.343
333.665
333.151
332.59
332.613
332.846
333.332
327.008
326.53
326.131
325.982
326.141
326.223
326.752
327.133
327.468
327.596
327.737
327.676
327.289
326.739
326.178
325.808
325.348
325.411
325.554
325.923
319.309
318.957
318.695
318.579
318.72
318.764
319.118
319.405
319.632
319.697
319.82
319.794
319.501
319.146
318.717
318.464
318.118
318.164
318.281
318.515
311.597
311.381
311.249
311.176
311.25
311.292
311.486
311.663
311.798
311.82
311.92
311.904
311.721
311.508
311.253
311.099
310.876
310.908
311.001
311.122
303.885
303.812
303.778
303.756
303.772
303.795
303.85
303.921
303.955
303.969
304.001
304.003
303.934
303.86
303.782
303.728
303.638
303.657
303.684
303.727
358.506
357.416
356.728
356.303
356.644
357.023
357.971
359.024
359.88
360.528
360.89
360.561
359.798
358.614
357.457
356.644
355.835
355.69
356.123
357.071
350.88
349.939
349.347
348.955
349.241
349.53
350.327
351.226
351.934
352.481
352.77
352.494
351.836
350.791
349.785
349.104
348.383
348.291
348.651
349.474
343.178
342.371
341.868
341.532
341.766
341.985
342.636
343.382
343.967
344.413
344.664
344.407
343.866
342.992
342.12
341.558
340.939
340.857
341.165
341.86
335.404
334.751
334.32
334.053
334.241
334.396
334.925
335.529
335.983
336.345
336.554
336.327
335.887
335.196
334.436
334
333.52
333.446
333.665
334.237
327.594
327.086
326.735
326.525
326.691
326.752
327.207
327.634
328.01
328.262
328.431
328.251
327.918
327.397
326.781
326.435
326.08
326.021
326.185
326.637
319.764
319.376
319.151
318.963
319.089
319.109
319.454
319.755
320.032
320.177
320.314
320.199
319.946
319.581
319.133
318.877
318.66
318.593
318.709
319.039
311.898
311.633
311.512
311.392
311.471
311.484
311.685
311.866
312.04
312.115
312.212
312.149
311.971
311.76
311.501
311.344
311.222
311.156
311.244
311.437
303.989
303.908
303.864
303.826
303.848
303.856
303.921
303.974
304.041
304.061
304.09
304.082
304
303.941
303.855
303.797
303.756
303.731
303.774
303.831
359.687
358.615
357.838
357.667
357.886
358.325
359.23
360.223
361.119
361.762
362.059
361.861
361.192
360.116
358.924
358.09
357.359
357.319
357.673
358.692
351.908
350.982
350.291
350.138
350.283
350.641
351.409
352.226
352.999
353.533
353.763
353.59
353.036
352.082
351.051
350.356
349.713
349.698
350.002
350.848
344.01
343.251
342.676
342.537
342.625
342.927
343.546
344.235
344.878
345.288
345.482
345.334
344.853
344.046
343.181
342.616
342.063
342.063
342.333
343.005
336.055
335.448
334.982
334.87
334.944
335.171
335.665
336.221
336.76
337.037
337.205
337.094
336.718
336.017
335.318
334.898
334.43
334.416
334.644
335.19
328.085
327.617
327.259
327.167
327.227
327.399
327.759
328.204
328.613
328.795
328.93
328.871
328.557
328.025
327.46
327.166
326.77
326.764
326.949
327.388
320.076
319.749
319.491
319.437
319.492
319.606
319.834
320.152
320.468
320.57
320.651
320.64
320.396
320.041
319.63
319.41
319.127
319.116
319.261
319.587
312.058
311.881
311.716
311.67
311.733
311.801
311.921
312.112
312.289
312.358
312.403
312.408
312.245
312.047
311.799
311.667
311.498
311.478
311.577
311.752
304.033
303.98
303.929
303.905
303.931
303.966
303.992
304.06
304.122
304.143
304.155
304.163
304.092
304.04
303.969
303.922
303.856
303.843
303.886
303.934
360.866
359.91
359.245
359.013
359.202
359.635
360.556
361.44
362.329
363.03
363.371
363.363
362.575
361.562
360.323
359.567
358.968
358.929
359.378
360.124
352.881
352.065
351.509
351.303
351.447
351.787
352.559
353.305
354.052
354.632
354.894
354.89
354.225
353.316
352.214
351.635
351.098
351.048
351.47
352.086
344.845
344.167
343.711
343.524
343.623
343.871
344.511
345.144
345.743
346.213
346.432
346.418
345.866
345.086
344.126
343.698
343.224
343.181
343.525
344.037
336.738
336.238
335.844
335.682
335.763
335.92
336.458
336.982
337.435
337.803
337.984
337.954
337.529
336.879
336.079
335.751
335.337
335.306
335.605
336.001
328.613
328.246
327.947
327.804
327.862
327.954
328.393
328.801
329.134
329.391
329.547
329.513
329.199
328.683
328.042
327.813
327.479
327.448
327.682
327.991
320.457
320.226
320
319.882
319.929
319.972
320.299
320.608
320.823
320.991
321.133
321.07
320.875
320.478
320.009
319.859
319.64
319.612
319.78
319.985
312.28
312.171
312.023
311.957
311.974
311.994
312.199
312.379
312.518
312.601
312.711
312.656
312.533
312.307
312.018
311.92
311.807
311.777
311.877
311.982
304.12
304.081
304.035
304.007
304.019
304.038
304.087
304.155
304.195
304.219
304.259
304.236
304.208
304.124
304.025
303.993
303.959
303.943
303.987
304.011
362.159
361.333
360.638
360.347
360.288
360.876
361.789
362.672
363.604
364.273
364.585
364.536
363.816
363.012
361.919
361.246
360.671
360.659
361.096
361.746
354.008
353.329
352.71
352.436
352.372
352.844
353.635
354.368
355.135
355.717
355.951
355.888
355.283
354.587
353.635
353.074
352.583
352.599
352.931
353.465
345.8
345.244
344.701
344.459
344.408
344.785
345.451
346.059
346.652
347.142
347.309
347.236
346.752
346.146
345.362
344.915
344.502
344.51
344.777
345.222
337.534
337.081
336.619
336.419
336.403
336.698
337.248
337.716
338.195
338.545
338.7
338.613
338.235
337.721
337.113
336.759
336.393
336.401
336.613
336.964
329.251
328.9
328.533
328.36
328.358
328.579
329.02
329.357
329.728
329.971
330.094
330.006
329.739
329.328
328.867
328.593
328.302
328.297
328.438
328.748
320.936
320.672
320.406
320.269
320.277
320.448
320.766
320.99
321.25
321.402
321.492
321.404
321.241
320.94
320.628
320.415
320.218
320.208
320.295
320.525
312.583
312.419
312.264
312.18
312.199
312.288
312.479
312.62
312.772
312.861
312.916
312.839
312.757
312.568
312.393
312.257
312.153
312.13
312.172
312.321
304.209
304.171
304.112
304.079
304.098
304.119
304.186
304.229
304.279
304.313
304.316
304.307
304.282
304.216
304.153
304.105
304.069
304.064
304.079
304.125
363.606
362.658
361.959
361.666
361.627
362.068
362.998
363.856
364.762
365.392
365.802
365.658
365.057
364.246
363.503
362.699
362.339
362.446
362.8
363.557
355.284
354.472
353.861
353.582
353.501
353.88
354.677
355.38
356.144
356.692
356.99
356.867
356.344
355.652
355.011
354.322
354.014
354.117
354.409
355.048
346.897
346.188
345.67
345.409
345.347
345.65
346.314
346.885
347.514
347.984
348.181
348.079
347.636
347.051
346.552
345.951
345.699
345.794
346.021
346.579
338.44
337.858
337.419
337.2
337.137
337.39
337.933
338.387
338.879
339.269
339.413
339.322
338.963
338.461
338.087
337.605
337.377
337.468
337.636
338.092
329.955
329.482
329.153
328.961
328.912
329.13
329.537
329.885
330.253
330.532
330.672
330.581
330.295
329.914
329.638
329.256
329.05
329.148
329.259
329.624
321.417
321.09
320.857
320.695
320.661
320.825
321.134
321.362
321.621
321.813
321.94
321.849
321.638
321.37
321.175
320.91
320.745
320.82
320.887
321.141
312.867
312.669
312.532
312.442
312.422
312.503
312.719
312.836
312.986
313.107
313.178
313.122
312.986
312.828
312.71
312.556
312.445
312.498
312.55
312.696
304.313
304.242
304.199
304.172
304.161
304.187
304.279
304.294
304.352
304.404
304.424
304.406
304.345
304.299
304.249
304.211
304.17
304.188
304.209
304.247
365.146
364.09
363.372
363.024
363.059
363.471
364.308
365.057
365.83
366.53
366.82
366.669
366.322
365.65
365.024
364.321
364.029
364.1
364.447
365.19
356.611
355.71
355.079
354.765
354.769
355.093
355.825
356.424
357.079
357.645
357.89
357.736
357.454
356.888
356.325
355.718
355.462
355.54
355.843
356.457
347.988
347.255
346.715
346.447
346.441
346.673
347.301
347.758
348.301
348.778
348.96
348.857
348.593
348.133
347.62
347.129
346.927
346.988
347.213
347.736
339.328
338.74
338.281
338.087
338.036
338.213
338.729
339.11
339.523
339.925
340.037
339.984
339.755
339.385
338.943
338.535
338.397
338.433
338.597
339.044
330.62
330.182
329.799
329.669
329.618
329.744
330.15
330.422
330.759
331.06
331.146
331.095
330.943
330.623
330.277
329.969
329.83
329.903
330.012
330.378
321.88
321.586
321.299
321.23
321.195
321.268
321.556
321.74
321.988
322.184
322.256
322.21
322.136
321.896
321.622
321.41
321.304
321.381
321.439
321.695
313.146
312.958
312.806
312.773
312.738
312.782
312.963
313.06
313.217
313.304
313.367
313.351
313.295
313.157
312.972
312.844
312.794
312.865
312.868
313.03
304.417
304.347
304.293
304.287
304.267
304.276
304.347
304.375
304.432
304.455
304.479
304.478
304.457
304.424
304.347
304.308
304.289
304.311
304.309
304.367
366.432
365.56
364.781
364.329
364.461
364.804
365.589
366.305
366.9
367.553
367.962
367.825
367.559
366.912
366.437
365.884
365.632
365.738
366.152
366.84
357.732
356.99
356.312
355.849
355.965
356.23
356.921
357.519
358.019
358.543
358.888
358.744
358.531
357.967
357.536
357.097
356.865
356.948
357.3
357.867
348.936
348.333
347.744
347.333
347.418
347.624
348.229
348.705
349.104
349.554
349.806
349.695
349.517
349.026
348.649
348.281
348.103
348.152
348.449
348.919
340.092
339.594
339.126
338.783
338.82
338.991
339.496
339.846
340.2
340.579
340.758
340.624
340.499
340.114
339.798
339.496
339.342
339.378
339.626
339.988
331.204
330.84
330.472
330.204
330.222
330.363
330.769
331.005
331.29
331.583
331.721
331.584
331.48
331.197
330.961
330.719
330.591
330.597
330.818
331.091
322.308
322.05
321.803
321.609
321.606
321.71
322.006
322.158
322.351
322.565
322.655
322.576
322.493
322.286
322.121
321.954
321.839
321.848
322.01
322.222
313.395
313.243
313.117
312.991
312.994
313.043
313.226
313.314
313.429
313.544
313.613
313.56
313.515
313.39
313.288
313.197
313.099
313.109
313.208
313.358
304.494
304.444
304.406
304.359
304.365
304.376
304.431
304.466
304.507
304.543
304.573
304.55
304.531
304.492
304.452
304.424
304.391
304.39
304.429
304.483
367.92
366.933
366.282
365.812
365.808
366.15
366.808
367.529
368.063
368.677
368.953
368.969
368.706
368.327
367.827
367.421
367.188
367.392
367.822
368.643
359.013
358.168
357.596
357.165
357.123
357.404
357.95
358.589
359.02
359.547
359.778
359.776
359.518
359.201
358.769
358.403
358.203
358.377
358.742
359.43
350.015
349.313
348.829
348.475
348.386
348.625
349.052
349.6
349.959
350.396
350.605
350.545
350.35
350.069
349.72
349.397
349.222
349.353
349.674
350.246
340.972
340.397
340.02
339.719
339.624
339.821
340.138
340.61
340.905
341.248
341.448
341.322
341.18
340.938
340.667
340.401
340.24
340.362
340.63
341.082
331.883
331.44
331.166
330.929
330.866
330.99
331.223
331.616
331.849
332.097
332.289
332.134
332.026
331.848
331.629
331.424
331.291
331.391
331.56
331.95
322.797
322.481
322.274
322.106
322.084
322.16
322.321
322.586
322.757
322.938
323.1
322.967
322.891
322.773
322.599
322.471
322.36
322.406
322.541
322.824
313.691
313.507
313.372
313.282
313.276
313.31
313.4
313.582
313.657
313.769
313.898
313.799
313.759
313.671
313.586
313.497
313.408
313.436
313.519
313.701
304.589
304.531
304.48
304.458
304.454
304.463
304.495
304.55
304.578
304.618
304.667
304.633
304.612
304.581
304.563
304.52
304.491
304.511
304.528
304.591
369.492
368.384
367.764
367.413
367.255
367.568
368.061
368.639
369.205
369.753
370.113
370.16
370.025
369.494
369.285
368.975
368.804
369.084
369.539
370.389
360.367
359.402
358.864
358.567
358.388
358.629
359.042
359.539
359.992
360.468
360.768
360.769
360.685
360.196
360.016
359.737
359.592
359.855
360.219
360.934
351.179
350.368
349.891
349.63
349.472
349.659
349.988
350.401
350.758
351.139
351.409
351.393
351.32
350.888
350.772
350.524
350.411
350.614
350.92
351.513
341.935
341.288
340.865
340.674
340.546
340.689
340.923
341.281
341.532
341.832
342.043
341.993
341.952
341.617
341.541
341.32
341.206
341.387
341.644
342.097
332.651
332.137
331.834
331.69
331.587
331.656
331.844
332.142
332.326
332.526
332.705
332.628
332.634
332.373
332.312
332.134
332.03
332.201
332.378
332.719
323.345
322.986
322.777
322.649
322.591
322.626
322.766
322.976
323.098
323.238
323.361
323.292
323.327
323.088
323.101
322.953
322.875
323.023
323.11
323.372
314.035
313.821
313.696
313.604
313.564
313.605
313.674
313.811
313.869
313.958
314.02
313.99
314
313.856
313.883
313.768
313.729
313.847
313.861
314.049
304.701
304.647
304.593
304.566
304.541
304.564
304.575
304.627
304.661
304.678
304.699
304.689
304.699
304.65
304.649
304.613
304.598
304.646
304.644
304.704
370.933
369.953
369.295
368.884
368.734
368.869
369.516
369.901
370.395
370.875
371.158
371.196
371.007
370.782
370.571
370.557
370.405
370.749
371.329
372.066
361.613
360.766
360.203
359.844
359.666
359.781
360.295
360.638
361.016
361.421
361.66
361.677
361.528
361.308
361.111
361.125
361.003
361.277
361.743
362.375
352.223
351.514
351.03
350.734
350.56
350.638
351.07
351.347
351.632
351.957
352.155
352.16
352.069
351.871
351.68
351.701
351.594
351.827
352.178
352.707
342.789
342.2
341.793
341.56
341.396
341.473
341.803
342.043
342.255
342.497
342.655
342.651
342.599
342.437
342.312
342.279
342.195
342.382
342.66
343.102
333.308
332.861
332.554
332.363
332.202
332.302
332.543
332.72
332.875
333.024
333.166
333.135
333.11
333.015
332.938
332.89
332.823
332.953
333.17
333.517
323.831
323.484
323.261
323.125
323.013
323.122
323.244
323.403
323.498
323.587
323.684
323.669
323.649
323.598
323.558
323.498
323.428
323.525
323.693
323.93
314.316
314.111
313.973
313.874
313.816
313.902
313.947
314.063
314.121
314.168
314.224
314.201
314.201
314.181
314.161
314.121
314.068
314.128
314.232
314.363
304.79
304.731
304.685
304.648
304.631
304.672
304.671
304.714
304.747
304.741
304.762
304.758
304.762
304.757
304.748
304.735
304.717
304.737
304.771
304.813
372.593
371.549
370.728
370.307
370.153
370.278
370.667
371.152
371.656
371.883
372.154
372.266
372.225
372.043
372.036
371.857
371.958
372.313
372.904
373.658
363.063
362.159
361.418
361.039
360.91
360.996
361.304
361.699
362.145
362.285
362.522
362.597
362.543
362.414
362.415
362.249
362.333
362.602
363.12
363.755
353.451
352.669
352.043
351.725
351.617
351.677
351.914
352.24
352.596
352.714
352.877
352.942
352.883
352.781
352.781
352.682
352.705
352.933
353.354
353.866
343.783
343.141
342.624
342.359
342.288
342.323
342.516
342.784
343.038
343.136
343.249
343.308
343.245
343.159
343.147
343.101
343.102
343.291
343.608
344.011
334.083
333.606
333.182
332.98
332.93
332.938
333.099
333.319
333.49
333.578
333.616
333.672
333.616
333.57
333.565
333.526
333.514
333.649
333.877
334.189
324.351
324.046
323.707
323.585
323.529
323.551
323.64
323.829
323.92
324.01
324.005
324.043
324.017
323.982
323.989
323.949
323.929
324.026
324.18
324.4
314.626
314.462
314.235
314.171
314.13
314.158
314.199
314.31
314.364
314.43
314.393
314.443
314.42
314.396
314.411
314.38
314.361
314.433
314.503
314.641
304.9
304.852
304.768
304.75
304.741
304.742
304.762
304.795
304.802
304.841
304.816
304.845
304.827
304.822
304.838
304.831
304.807
304.85
304.848
304.898
374.046
373.017
372.06
371.698
371.545
371.618
371.961
372.422
372.822
372.954
373.19
373.413
373.405
373.197
373.267
373.194
373.445
373.869
374.55
375.202
364.29
363.382
362.556
362.227
362.088
362.134
362.399
362.8
363.13
363.209
363.395
363.608
363.551
363.362
363.434
363.368
363.604
363.96
364.529
365.061
354.464
353.685
352.999
352.727
352.594
352.595
352.823
353.151
353.422
353.475
353.61
353.827
353.731
353.582
353.627
353.565
353.771
354.049
354.537
354.97
344.6
343.957
343.391
343.182
343.081
343.031
343.214
343.474
343.715
343.756
343.858
344.026
343.92
343.811
343.822
343.78
343.947
344.178
344.573
344.92
334.711
334.193
333.77
333.616
333.542
333.461
333.6
333.819
334.023
334.041
334.125
334.216
334.149
334.042
334.075
334.02
334.147
334.333
334.628
334.909
324.796
324.447
324.136
324.043
323.976
323.899
324.004
324.167
324.29
324.343
324.368
324.429
324.396
324.301
324.33
324.316
324.376
324.507
324.715
324.921
314.885
314.695
314.495
314.461
314.406
314.349
314.424
314.537
314.577
314.64
314.608
314.666
314.656
314.581
314.603
314.604
314.626
314.718
314.828
314.951
304.994
304.925
304.851
304.851
304.832
304.808
304.838
304.876
304.887
304.915
304.899
304.919
304.912
304.88
304.892
304.893
304.905
304.932
304.963
305.014
374.987
374.104
373.337
372.755
372.63
372.737
372.998
373.348
373.783
373.891
374.082
374.332
374.272
374.191
374.145
374.254
374.572
374.93
375.647
376.4
365.027
364.263
363.621
363.087
362.963
363.048
363.258
363.529
363.922
363.983
364.136
364.353
364.271
364.195
364.142
364.235
364.514
364.817
365.416
366.045
355.038
354.399
353.853
353.404
353.276
353.348
353.505
353.734
354.039
354.073
354.224
354.409
354.315
354.243
354.208
354.278
354.49
354.745
355.26
355.781
345.025
344.526
344.08
343.716
343.606
343.648
343.765
343.964
344.196
344.198
344.32
344.479
344.408
344.333
344.325
344.357
344.51
344.728
345.184
345.574
335.027
334.62
334.278
334.03
333.925
333.964
334.07
334.197
334.378
334.363
334.452
334.564
334.533
334.488
334.486
334.467
334.576
334.743
335.115
335.4
325.022
324.719
324.477
324.321
324.253
324.305
324.353
324.434
324.565
324.531
324.615
324.677
324.67
324.637
324.647
324.624
324.684
324.784
325.066
325.253
315.034
314.841
314.69
314.598
314.577
314.618
314.64
314.675
314.764
314.739
314.772
314.823
314.815
314.813
314.805
314.784
314.806
314.868
315.039
315.152
305.035
304.97
304.921
304.899
304.892
304.904
304.906
304.916
304.959
304.931
304.947
304.966
304.957
304.967
304.954
304.958
304.97
304.975
305.039
305.073
)
;

boundaryField
{
    hotSide
    {
        type            fixedGradient;
        gradient        nonuniform List<scalar> 
400
(
557.508
556.534
558.45
563.178
570.428
579.785
590.806
603.092
616.316
630.228
644.652
659.476
674.643
690.146
706.022
722.349
739.231
756.778
775.074
794.151
538.111
537.471
539.922
545.365
553.447
563.674
575.538
588.592
602.482
616.946
631.803
646.944
662.317
677.927
693.826
710.113
726.919
744.384
762.618
781.669
527.001
527.013
530.081
536.092
544.692
555.389
567.672
581.09
595.282
609.979
624.998
640.229
655.624
671.194
687
703.148
719.777
737.032
755.031
773.828
523.641
524.605
528.385
534.866
543.737
554.572
566.914
580.342
594.508
609.144
624.067
639.163
654.39
669.76
685.337
701.225
717.556
734.46
752.045
770.367
526.001
528.105
532.724
539.731
548.865
559.771
572.058
585.35
599.322
613.718
628.355
643.127
657.994
672.978
688.146
703.599
719.455
735.834
752.828
770.497
531.755
535.096
540.69
548.397
557.977
569.119
581.475
594.701
608.491
622.598
636.852
651.159
665.495
679.899
694.452
709.263
724.45
740.123
756.375
773.265
538.952
543.564
550.255
558.862
569.146
580.799
593.482
606.852
620.599
634.479
648.329
662.08
675.743
689.392
703.142
717.126
731.476
746.309
761.717
777.764
546.052
551.908
559.762
569.431
580.656
593.108
606.416
620.199
634.111
647.884
661.363
674.514
687.405
700.175
712.994
726.038
739.464
753.4
767.944
783.162
551.799
558.778
567.759
578.545
590.851
604.313
618.498
632.95
647.244
661.063
674.247
686.813
698.914
710.781
722.66
734.778
747.321
760.43
774.202
788.7
555.161
563.012
572.928
584.707
598.047
612.544
627.701
642.963
657.802
671.823
684.855
696.973
708.432
719.566
730.7
742.105
753.989
766.497
779.724
793.723
555.394
563.721
574.203
586.635
600.706
615.986
631.93
647.911
663.315
677.679
690.816
702.844
714.09
724.954
735.81
746.954
758.601
770.897
783.931
797.752
552.164
560.48
571.037
583.629
597.939
613.525
629.828
646.214
662.057
676.885
690.5
703.004
714.71
726.005
737.256
748.755
760.715
773.284
786.552
800.571
545.674
553.494
563.648
575.93
590.015
605.463
621.736
638.242
654.416
669.828
684.274
697.788
710.588
722.977
735.26
747.698
760.496
773.8
787.709
802.282
536.7
543.635
553.045
564.725
578.35
593.483
609.614
626.203
642.753
658.879
674.366
689.173
703.407
717.259
730.954
744.702
758.686
773.05
787.897
803.298
526.562
532.362
540.863
551.873
565.056
579.967
596.096
612.928
629.999
646.946
663.538
679.676
695.38
710.752
725.939
741.104
756.398
771.957
787.886
804.261
517.139
521.684
529.257
539.678
552.586
567.486
583.83
601.086
618.792
636.585
654.219
671.561
688.578
705.311
721.854
738.328
754.862
771.58
788.584
805.95
510.934
514.23
520.937
530.887
543.662
558.686
575.341
593.055
611.352
629.865
648.344
666.64
684.69
702.502
720.135
737.683
755.257
772.973
790.928
809.196
510.98
513.186
519.111
528.596
541.169
556.178
572.946
590.873
609.475
628.391
647.372
666.263
684.986
703.53
721.929
740.257
758.611
777.095
795.802
814.796
519.968
521.406
526.615
535.456
547.46
561.979
578.343
595.962
614.367
633.207
652.234
671.29
690.287
709.192
728.022
746.828
765.688
784.689
803.91
823.404
538.706
539.736
544.288
552.247
563.23
576.69
592.043
608.763
626.414
644.662
663.263
682.052
700.925
719.834
738.771
757.763
776.861
796.126
815.613
835.361
)
;
    }
    coldSide
    {
        type            mixed;
        refValue        uniform 300;
        refGradient     uniform 0;
        valueFraction   uniform 0.991591;
        source          uniform 0;
        value           nonuniform List<scalar> 
400
(
300.031
300.031
300.031
300.032
300.032
300.032
300.033
300.034
300.034
300.035
300.035
300.036
300.037
300.038
300.039
300.04
300.04
300.041
300.042
300.042
300.031
300.031
300.031
300.031
300.031
300.032
300.032
300.033
300.033
300.034
300.035
300.036
300.037
300.037
300.038
300.039
300.04
300.041
300.041
300.042
300.03
300.03
300.03
300.03
300.031