/*--------------------------------*- C++ -*----------------------------------*\
| =========                 |                                                 |
| \\      /  F ield         | OpenFOAM: The Open Source CFD Toolbox           |
|  \\    /   O peration     | Version:  2212                                  |
|   \\  /    A nd           | Website:  www.openfoam.com                      |
|    \\/     M anipulation  |                                                 |
\*---------------------------------------------------------------------------*/
FoamFile
{
    version     2.0;
    format      ascii;
    arch        "LSB;label=32;scalar=64";
    class       volScalarField;
    location    "0";
    object      relativeErrorField;
}
// * * * * * * * * * * * * * * * * * * * * * * * * * * * * * * * * * * * * * //

dimensions      [0 0 0 1 0 0 0];

internalField   nonuniform List<scalar> 
3200
(
0.00135531
0.000834755
0.000625638
0.000888014
0.00154042
0.00286674
0.00415708
0.00527183
0.00640632
0.00714674
0.00739894
0.00693887
0.00638878
0.00546883
0.00450101
0.00362619
0.00329395
0.00326692
0.00377094
0.00454895
0.000938096
0.000334684
0.000274055
0.000641008
0.00106816
0.00195573
0.00328838
0.00435307
0.00536735
0.00599965
0.00624507
0.0060229
0.00544934
0.00451084
0.00378623
0.00312485
0.00260469
0.00252865
0.00285641
0.00353066
0.000363817
0.000178502
0.000128019
0.000179135
0.000646273
0.00160933
0.00267562
0.00355404
0.0040511
0.00488383
0.00498018
0.00479038
0.00436549
0.00355494
0.00293422
0.00230872
0.00205067
0.0019522
0.00223003
0.00275997
6.06865e-05
0.000161878
0.000132875
0.000206988
0.000550433
0.00116002
0.00181841
0.00293267
0.00365697
0.00374956
0.00392513
0.00395015
0.00342988
0.00289823
0.0022621
0.00185014
0.0017202
0.00149625
0.00186755
0.00220151
6.50627e-05
0.000244099
0.000361312
3.44065e-06
0.000631118
0.000882653
0.00134769
0.00203218
0.00265046
0.00286328
0.00308375
0.00292693
0.00253098
0.00212245
0.00170235
0.00138262
0.00108147
0.00118797
0.00120879
0.00145639
3.55637e-05
0.000247096
0.000116725
9.69787e-05
0.000177755
0.000746652
0.000944706
0.00129448
0.00197905
0.00208072
0.00215439
0.00190291
0.00195563
0.00137522
0.00121065
0.000678361
0.000676199
0.000783001
0.000855451
0.000930023
0.000280411
0.000171181
0.000188675
0.000208497
0.000229402
0.000429238
0.000629493
0.000719748
0.00102113
0.00101947
0.00130141
0.00116844
0.00104146
0.000745343
0.00102638
0.00075511
0.000290364
0.000453981
0.0005479
0.000530645
4.84084e-05
0.000184779
1.05702e-05
3.47118e-05
1.60558e-05
0.000158163
0.000280222
0.000190281
0.000327304
0.000435685
0.000569087
0.000372932
0.000334047
0.000179756
0.000265634
0.000127276
0.000170792
0.000188791
0.00048685
0.000439912
0.00105504
0.00119064
0.00171757
0.00136844
0.000744283
0.00032209
0.00125778
0.00256727
0.00395208
0.00432913
0.00440545
0.00449983
0.00360557
0.0028174
0.00196933
0.00135521
0.00118674
0.000967355
0.00152491
0.002281
0.000914204
0.00158599
0.0015243
0.00158359
0.000750431
2.25963e-05
0.000873024
0.00220165
0.00285064
0.00373696
0.00359583
0.00358464
0.00322096
0.00236047
0.00158568
0.00101346
0.000683361
0.000760817
0.00112391
0.00176399
0.000966857
0.00142554
0.00162957
0.0013627
0.000846834
0.000330092
0.000663783
0.00153384
0.00225763
0.00307261
0.00318656
0.00296493
0.00259674
0.00180629
0.00128992
0.00081322
0.000322217
0.000494649
0.00107377
0.00153079
0.000992151
0.00136412
0.00132418
0.00127151
0.000818044
0.000403139
0.000582619
0.00115515
0.00192958
0.00239066
0.00238975
0.00240531
0.00194216
0.00132362
0.000788906
0.000573079
0.000249471
9.03827e-05
0.000550932
0.00103056
0.000881884
0.00115261
0.00113842
0.00123179
0.000625712
9.38902e-05
0.000163648
0.00101079
0.0015412
0.00198651
0.00198309
0.00184646
0.00141378
0.00094204
0.000791383
0.00046883
9.34366e-06
5.12238e-05
0.000511237
0.000635331
0.000635908
0.000842755
0.000703584
0.000993543
0.000679584
0.000187798
0.000238558
0.000827058
0.00115407
0.00129697
0.00123271
0.00106499
0.00107691
0.000726883
0.000577273
4.8889e-05
4.21133e-05
0.000116593
8.64815e-05
0.000254472
0.000231193
0.00048451
0.00040897
0.000594413
0.000411542
6.24356e-05
0.000110339
0.000249335
0.000507638
0.000581401
0.000890731
0.000783603
0.000459463
0.000322471
0.000428666
0.000174495
1.91968e-05
7.1719e-05
7.0387e-06
0.000232818
2.97322e-05
0.00021366
0.000332991
2.36464e-06
0.000291671
0.000218356
8.43457e-05
2.33341e-05
0.000321383
0.000194992
0.000197143
0.000397806
0.000288637
0.000433209
0.000157191
3.65605e-05
0.000196671
0.000174409
3.9912e-05
0.000473029
0.00343689
0.00416734
0.00438133
0.00423391
0.0038478
0.00285948
0.00155067
0.000440437
0.000291686
0.00110977
0.00114074
0.00113259
0.000349499
0.000440147
0.00100499
0.0014246
0.00186686
0.00162777
0.000934985
9.89358e-05
0.00321764
0.00362487
0.00407969
0.0038292
0.00344105
0.00251166
0.00172446
0.000487862
7.93472e-05
0.000685381
0.000944732
0.000673512
0.000251722
0.000534106
0.000972312
0.00177514
0.00169212
0.00164049
0.000815444
0.000197779
0.00292582
0.00333743
0.0035166
0.00338124
0.00318194
0.00209084
0.001498
0.000834407
6.79296e-05
0.000412326
0.000644206
0.000643564
0.000227162
0.000404189
0.00101934
0.00155827
0.00175315
0.00156054
0.000955407
0.000506523
0.00240413
0.00280859
0.0031357
0.00315987
0.002555
0.00200575
0.00138978
0.000608819
0.000181764
0.000140429
0.00061474
0.00043072
0.000235144
0.000561005
0.000762605
0.00132426
0.00147811
0.00126904
0.000921837
0.000271226
0.00200438
0.00227838
0.00254554
0.00225502
0.00206441
0.00167319
0.00121584
0.000576522
0.000170367
0.000289215
0.000253479
0.000288227
9.65993e-05
0.000277537
0.00077652
0.00115763
0.00116114
0.00119789
0.000679462
0.000573583
0.00147964
0.0017473
0.00184374
0.00169454
0.00158602
0.00126318
0.000820939
0.000484529
9.98441e-07
4.50231e-05
0.000359411
4.50717e-05
0.000107797
0.000471
0.0009244
0.00076813
0.000949292
0.000837765
0.000638446
0.000244494
0.000971433
0.00098501
0.00101129
0.00112861
0.00107687
0.000918377
0.000628835
0.00016132
7.45263e-05
0.000161403
0.000435276
0.000100301
0.000107331
0.000380547
0.000508711
0.000665703
0.000381312
0.000611165
0.000445486
0.000127412
0.000218034
0.000362429
0.000486025
0.000493523
0.000367788
0.000274325
0.000492638
1.45393e-05
5.88723e-07
6.48475e-05
0.000322193
0.000232003
7.96873e-05
2.46062e-05
3.80688e-06
0.000202548
0.000391991
0.000255502
0.000399813
3.49253e-05
0.00560267
0.00649558
0.00696326
0.0070652
0.00667752
0.00582401
0.0047788
0.00384232
0.00298848
0.00237347
0.00200837
0.00236448
0.00293461
0.00346644
0.00410479
0.00435228
0.0045983
0.00411221
0.00327761
0.00217532
0.00520398
0.00569629
0.00645517
0.00626204
0.00608904
0.00539853
0.00451948
0.00342418
0.00281193
0.00217149
0.00213745
0.00243768
0.00260589
0.00320844
0.00365482
0.00402774
0.00408951
0.00375055
0.00309182
0.00235879
0.00476364
0.00514289
0.00549411
0.0055441
0.00525936
0.00467552
0.00394605
0.00320021
0.0024812
0.00200982
0.0018386
0.00200991
0.00226404
0.0028619
0.00337463
0.00338112
0.0037283
0.00340303
0.00302078
0.00194586
0.00398312
0.00416533
0.00478364
0.00459065
0.00449724
0.00412825
0.00350549
0.00268641
0.00221419
0.00183446
0.00170662
0.0016977
0.00205552
0.00265952
0.00276037
0.00297395
0.00313805
0.0027859
0.0024117
0.00181719
0.00333419
0.00338752
0.00394632
0.00367679
0.00351246
0.00343275
0.00277875
0.00224732
0.00189559
0.00154105
0.00136326
0.00125788
0.00140244
0.00184121
0.00211656
0.00247666
0.00246082
0.00241791
0.00190145
0.001569
0.00225772
0.0024893
0.00286055
0.00274984
0.00266964
0.00254861
0.00218259
0.00169795
0.00120978
0.00104117
0.00110351
0.0011249
0.00131731
0.00142914
0.00166843
0.0017965
0.00196268
0.0016342
0.00149591
0.00119892
0.00167813
0.00130975
0.00198581
0.00169535
0.00163965
0.00143698
0.00128716
0.00114102
0.000737638
0.000721164
0.000355336
0.000737432
0.000728685
0.0010606
0.000920591
0.00123151
0.00117163
0.00109296
0.00110402
0.000878625
0.000541144
0.000543345
0.000636224
0.000581691
0.000571482
0.000318014
0.00025634
0.000169484
0.000330755
0.000332653
0.000209251
0.000221038
0.000428499
0.000361409
0.000260264
0.000290827
0.000439171
0.000443337
0.000259243
0.000216657
0.0074874
0.00868266
0.00935327
0.00974331
0.0094694
0.00866518
0.00787082
0.00719964
0.00630693
0.00554992
0.0054101
0.00535042
0.00577996
0.00626376
0.00669667
0.00695988
0.00678148
0.00650968
0.00538918
0.00427271
0.0069583
0.00763244
0.00816472
0.00862386
0.00818941
0.00782066
0.0069797
0.00621602
0.00563808
0.00508009
0.0048576
0.00512094
0.00530184
0.00564384
0.00607627
0.00618588
0.00626122
0.00572152
0.00492646
0.00378498
0.00594316
0.00669594
0.00737557
0.00741199
0.00744767
0.0066807
0.00611647
0.00553256
0.00497318
0.00456381
0.00428301
0.0045378
0.00458209
0.0050752
0.00534983
0.00559187
0.00530993
0.00495606
0.00412613
0.0033338
0.00508317
0.00550094
0.00608859
0.00630347
0.00609305
0.00568026
0.00516339
0.0047392
0.0041388
0.00391963
0.00343977
0.00364848
0.00406442
0.00426371
0.00442949
0.00443879
0.00459254
0.00422888
0.00334591
0.00304683
0.00383653
0.00455059
0.00492598
0.00489322
0.00478434
0.00452432
0.00423128
0.00376992
0.0033255
0.00322633
0.00308625
0.00323438
0.00308182
0.00325351
0.00354151
0.00368645
0.00370849
0.00330116
0.00268467
0.00251816
0.00286975
0.00332827
0.00351101
0.00387504
0.00362581
0.0032452
0.00302043
0.0025853
0.00230157
0.00239977
0.00213541
0.00213615
0.00240509
0.00272665
0.00260746
0.00292775
0.00275854
0.00259151
0.00197111
0.00150489
0.00218469
0.00221651
0.00221871
0.00233624
0.00219606
0.00228856
0.00188729
0.00167903
0.00129909
0.00146643
0.00121745
0.00129595
0.00123472
0.00152428
0.00171372
0.00179949
0.00164096
0.00165839
0.00139244
0.000869609
0.000636602
0.000659992
0.000722496
0.00089378
0.000776943
0.000858761
0.000859285
0.000447419
0.000615418
0.000392143
0.00025301
0.000527164
0.00046768
0.000309615
0.000567021
0.000571757
0.000507486
0.000341514
0.000330472
0.000480604
0.00881662
0.0100128
0.0110136
0.0113857
0.0113896
0.010841
0.010536
0.0094396
0.00879819
0.00830009
0.00802878
0.00823478
0.00822012
0.00882908
0.0090333
0.00907534
0.00867406
0.00781209
0.0068462
0.00523765
0.00781179
0.00899019
0.00969301
0.0101751
0.0101848
0.00960869
0.00903364
0.00864768
0.00772017
0.00743132
0.00741421
0.00731692
0.00743308
0.00770092
0.00793509
0.00804392
0.00772553
0.00694279
0.00601076
0.00484657
0.00700379
0.00782233
0.00865153
0.0088448
0.00883612
0.00868895
0.00801857
0.00746637
0.00706552
0.00662958
0.00656062
0.00658697
0.00650658
0.00696456
0.00707303
0.00712349
0.00692366
0.00619033
0.00524097
0.0044896
0.00620247
0.00656864
0.00716334
0.00743873
0.00743355
0.00717362
0.00675858
0.00609752
0.00593993
0.00571335
0.00546024
0.00551317
0.00569742
0.00588502
0.00617267
0.00587366
0.00584907
0.00516966
0.00442746
0.00383199
0.004853
0.00538282
0.00570052
0.00605321
0.00581325
0.0056724
0.0056177
0.005045
0.00473149
0.00447032
0.00422915
0.0043866
0.00460019
0.00470962
0.0045535
0.00490821
0.00463702
0.004276
0.00369627
0.00298701
0.00353606
0.00375192
0.00431201
0.00437549
0.00443349
0.00405461
0.00389307
0.00393685
0.00341874
0.00334984
0.00334106
0.00317588
0.00337503
0.00353887
0.00332341
0.00341939
0.00340748
0.00321541
0.00270927
0.00220362
0.00233012
0.0024334
0.00253802
0.00281569
0.00270121
0.00254866
0.00229999
0.00231219
0.00211755
0.00232346
0.00199945
0.0020037
0.00227666
0.00189522
0.00252305
0.00215813
0.00211243
0.00183073
0.00163431
0.00139861
0.000438062
0.000990727
0.00104018
0.000720074
0.000929005
0.000889556
0.000933408
0.000735767
0.000786588
0.000872231
0.000515009
0.000725794
0.00073498
0.000796417
0.000619538
0.000626803
0.000845213
0.000673072
0.000662005
0.000169947
0.00984079
0.0108099
0.0120368
0.0127914
0.0129318
0.0125948
0.0120956
0.0115555
0.0109648
0.0107761
0.0103903
0.0104798
0.0104758
0.0105416
0.0106369
0.0103878
0.0100305
0.00901219
0.00770224
0.00621308
0.00870376
0.00982552
0.0107744
0.0112764
0.0114638
0.0113946
0.0109322
0.0103842
0.00977753
0.00961242
0.00935977
0.00913403
0.00946062
0.00939474
0.00944553
0.00929095
0.00877826
0.00799358
0.00692234
0.00559881
0.00773056
0.00855595
0.00934822
0.00990699
0.0100557
0.00985195
0.00951408
0.00882449
0.00878911
0.00839714
0.008148
0.00810659
0.00824964
0.0084077
0.00837065
0.00822973
0.00778734
0.00698512
0.00596283
0.00509235
0.00650533
0.00711951
0.00781309
0.00812033
0.00839093
0.0080196
0.00805506
0.00755093
0.00752529
0.00681607
0.00683221
0.00703723
0.00688839
0.00714084
0.00725265
0.0070612
0.00662592
0.00572742
0.00498076
0.00431516
0.00526843
0.0057989
0.00626095
0.00666938
0.00688995
0.00671253
0.00644138
0.00634332
0.00600597
0.00557358
0.00554378
0.00563116
0.00548198
0.00549328
0.0055451
0.0053161
0.00519665
0.00477912
0.00401138
0.00345747
0.0036793
0.00433134
0.00462142
0.00481909
0.00494771
0.0050566
0.00470975
0.00428715
0.00437763
0.00431405
0.00418107
0.00416882
0.004146
0.00413443
0.004155
0.00419105
0.00384141
0.00334383
0.00296934
0.00265607
0.00217522
0.00267703
0.00283449
0.00282736
0.00305385
0.0030624
0.00278458
0.00266112
0.0026146
0.00267189
0.00224274
0.00228225
0.00263057
0.00267325
0.00258712
0.00229055
0.00224084
0.00210385
0.00178995
0.00143322
0.00066633
0.00106232
0.000939555
0.0010064
0.000953253
0.000768791
0.000848417
0.000949721
0.000848075
0.000629771
0.000882972
0.000841693
0.000746883
0.000775896
0.000879274
0.0012191
0.000953081
0.000765988
0.000537713
0.000502955
0.00991742
0.011258
0.0124574
0.0134014
0.0138381
0.0137874
0.0136098
0.0131013
0.0125885
0.0121859
0.011916
0.0116606
0.0121798
0.0117258
0.0116789
0.0114374
0.0104119
0.00929556
0.00772296
0.00626643
0.0089913
0.00991843
0.0112223
0.0119085
0.0121836
0.0122994
0.0118149
0.0116911
0.0111744
0.0109053
0.0108152
0.0105151
0.010798
0.0105687
0.0105761
0.0102101
0.00935277
0.00868425
0.00694941
0.00552731
0.00787215
0.0087357
0.00987104
0.0103784
0.010754
0.0106059
0.0104839
0.0101842
0.00978056
0.00950942
0.00942882
0.00914332
0.00927091
0.00922808
0.00891699
0.00883341
0.0081966
0.0070884
0.00612798
0.00502575
0.00668551
0.00732331
0.0082348
0.00882416
0.00906552
0.00909209
0.00887401
0.00881625
0.00821809
0.00788701
0.00800281
0.00766318
0.00787895
0.00784586
0.00756617
0.00746529
0.00713688
0.00623043
0.00523193
0.00408619
0.00509168
0.00591655
0.00649301
0.00701265
0.00735792
0.00718279
0.00721516
0.00679575
0.00651465
0.00656473
0.00612752
0.00636658
0.006295
0.00610978
0.00602531
0.00605801
0.00532412
0.00479583
0.0040568
0.00333343
0.00387699
0.00449873
0.00494859
0.00496281
0.00517564
0.00511014
0.0052033
0.00506985
0.00461059
0.00464136
0.00477972
0.00455481
0.00448267
0.00456353
0.00454802
0.00431762
0.00411068
0.00351974
0.00300044
0.00246334
0.00217018
0.0027982
0.0029873
0.00304817
0.00330382
0.00329671
0.00326983
0.00290139
0.00289703
0.0030886
0.00299578
0.00295246
0.0029177
0.00300717
0.00294264
0.00254587
0.00237808
0.00203999
0.00183222
0.00156943
0.000883524
0.000897969
0.000984301
0.000906639
0.00125192
0.00113284
0.00107259
0.00127773
0.000946616
0.00102367
0.00100082
0.000767319
0.000745446
0.00099537
0.00102122
0.000943108
0.000745457
0.000802543
0.000833358
0.000552863
0.00918176
0.0108484
0.0126146
0.0133266
0.0140688
0.0140438
0.0142637
0.0136919
0.013551
0.0132358
0.0131082
0.0128897
0.0127065
0.0125963
0.0120658
0.0113773
0.0105971
0.00897031
0.00717982
0.00557806
0.00839472
0.00978826
0.0111045
0.0120302
0.0125409
0.0126083
0.0124794
0.0123927
0.0120688
0.0117716
0.0116266
0.0115297
0.0114088
0.0111225
0.0108823
0.0102749
0.00934177
0.00804275
0.00655806
0.00519405
0.0074261
0.00847509
0.00958161
0.010185
0.0109542
0.010938
0.0108728
0.0109183
0.0104697
0.010378
0.010039
0.0100192
0.0100213
0.00983497
0.00951211
0.00906121
0.00825684
0.00710066
0.00588321
0.00426213
0.00615038
0.00704565
0.00792881
0.00873913
0.00917287
0.00929145
0.00926928
0.0091532
0.00903216
0.00863729
0.00862508
0.00829204
0.00842248
0.00807223
0.0080467
0.00763173
0.00709011
0.00600751
0.00483604
0.00370736
0.00503282
0.00565247
0.00648502
0.00701518
0.00728446
0.00755032
0.00743635
0.00714457
0.0072803
0.00687081
0.0068273
0.00661869
0.00686956
0.00666393
0.00625193
0.00613098
0.00562332
0.00490277
0.00386212
0.00321608
0.00373375
0.00444504
0.00483077
0.00490972
0.00548659
0.00552717
0.00560772
0.00522787
0.00523882
0.00496888
0.00506972
0.0048977
0.0049506
0.00474597
0.00475947
0.00462471
0.00391809
0.00352637
0.00301009
0.00215018
0.0020768
0.00269641
0.0030197
0.00312383
0.00328201
0.00325436
0.00321698
0.00338231
0.00310022
0.00313031
0.00308847
0.00284494
0.00320011
0.00294116
0.00251318
0.00265028
0.00256969
0.00215907
0.00189008
0.00140601
0.00065167
0.000851048
0.000837901
0.00134937
0.00134447
0.00140089
0.00118041
0.00117842
0.00103349
0.0011706
0.00131852
0.000863567
0.00105904
0.000923249
0.00095678
0.00106775
0.000801322
0.000737761
0.000535732
0.000522802
0.00800392
0.00968495
0.0113862
0.0126949
0.0134992
0.0141979
0.0140637
0.014073
0.0136152
0.0135703
0.0131428
0.0128797
0.0129411
0.0123245
0.011859
0.0108899
0.00967598
0.00841659
0.00630717
0.00426391
0.00713796
0.0087133
0.0103042
0.0112657
0.0121761
0.0125221
0.0123822
0.0124246
0.0121984
0.0120402
0.0119432
0.0116855
0.0114311
0.0111746
0.0106775
0.0100408
0.00875512
0.00735022
0.005508
0.00398958
0.00652568
0.00754155
0.00868499
0.00980194
0.0105157
0.0107078
0.0108337
0.0107962
0.0108315
0.0105567
0.010314
0.010135
0.00979589
0.00948926
0.00917857
0.0085641
0.00758445
0.00629355
0.00497806
0.00362981
0.00538373
0.0061146
0.00733744
0.00837647
0.00886257
0.00905604
0.00927539
0.00918217
0.00909079
0.00884728
0.0089171
0.00850688
0.00841096
0.00828346
0.00769603
0.00704296
0.00663985
0.00520035
0.00436673
0.00314154
0.00444275
0.00503883
0.00587431
0.00663746
0.00697001
0.00728178
0.00745699
0.00744172
0.00723209
0.00691832
0.00680846
0.00701434
0.00678751
0.00656259
0.00611748
0.00562306
0.00523366
0.00430204
0.00334588
0.0025792
0.00317821
0.00378287
0.00452528
0.00470428
0.00499595
0.00538799
0.00546613
0.0052765
0.00539702
0.00520492
0.00532038
0.0051703
0.00496035
0.00462364
0.00466434
0.0042337
0.00379825
0.00318729
0.00219096
0.00177973
0.00209353
0.00229657
0.00266972
0.00314435
0.00335062
0.003278
0.00310732
0.00327167
0.00330812
0.0034326
0.00316323
0.00333635
0.00292344
0.00297591
0.00288413
0.00248011
0.00228346
0.00191965
0.00148674
0.00123822
0.000678368
0.000943493
0.000721356
0.000960694
0.00114586
0.00126117
0.00106105
0.000773134
0.00121421
0.00130635
0.000810215
0.000857615
0.000963158
0.00103879
0.00102252
0.000822617
0.000769556
0.000775048
0.000446786
0.000376934
0.00595881
0.00817053
0.00981368
0.0113644
0.0123584
0.0130936
0.0132131
0.0132517
0.0133517
0.0129821
0.0128498
0.012472
0.012072
0.0115491
0.0109448
0.00965004
0.00848765
0.00674136
0.00444946
0.00212486
0.00544775
0.00726067
0.00877494
0.0104078
0.0111349
0.0114142
0.0117964
0.0118762
0.0117972
0.0115418
0.0114369
0.0113495
0.0109347
0.0103786
0.00958346
0.00881253
0.00729735
0.00581464
0.00396457
0.00215773
0.00500474
0.00632791
0.00765858
0.00891462
0.00943457
0.00995558
0.0103083
0.0101604
0.0101259
0.0100695
0.00981815
0.0097607
0.00949134
0.00916372
0.00857601
0.00767082
0.00639151
0.0051572
0.00354089
0.00212067
0.00431657
0.00517336
0.0064463
0.00764641
0.00825204
0.00856582
0.00867518
0.00895866
0.00897949
0.00841275
0.00844388
0.00805696
0.00802275
0.00753908
0.0072419
0.0061889
0.0052672
0.00439262
0.00311374
0.00190266
0.0032924
0.00440511
0.00514184
0.00605139
0.00658405
0.00688001
0.00692013
0.00696581
0.0069055
0.00678465
0.00688754
0.0065355
0.00647907
0.00603563
0.00579068
0.00507121
0.00450223
0.00352734
0.00258783
0.00131866
0.0026484
0.00296622
0.00359176
0.00448042
0.00473415
0.00500726
0.00505514
0.00506475
0.005181
0.00514253
0.00493603
0.00481333
0.0045704
0.00457489
0.00433528
0.00400064
0.00318175
0.00271323
0.00177892
0.00121486
0.0019142
0.00182885
0.00230869
0.00258115
0.00308054
0.0032011
0.00295408
0.00322601
0.00313193
0.0031307
0.00316652
0.0028835
0.00281246
0.00262061
0.00267875
0.00240391
0.00201496
0.00164672
0.00120426
0.000651922
0.000476591
0.000658084
0.000839568
0.000927555
0.000936805
0.00109868
0.00123159
0.00118016
0.00112521
0.00105198
0.000968975
0.000725502
0.00102085
0.00100994
0.000724818
0.000899995
0.000872333
0.000505456
0.000435284
0.000263896
0.00326398
0.00541249
0.00749698
0.00919439
0.0104122
0.0112175
0.0118094
0.0117583
0.0119029
0.0118102
0.0113583
0.0111459
0.0107276
0.0100864
0.0090231
0.00780118
0.0062251
0.00392687
0.00183658
0.000378929
0.00302423
0.00497345
0.00666889
0.00820526
0.00934367
0.0100233
0.0105696
0.0107639
0.010622
0.0103109
0.0104085
0.0100573
0.00940536
0.00882246
0.00810546
0.00706243
0.00553075
0.00362942
0.00154951
0.000233228
0.0029541
0.00436571
0.00590485
0.00713086
0.00800533
0.00886065
0.00905971
0.00921215
0.00926219
0.00898167
0.00890665
0.00862104
0.00845817
0.00806375
0.00735752
0.00608127
0.00500112
0.00342555
0.00149807
0.000105058
0.00258867
0.00363171
0.00501233
0.00596429
0.00692736
0.00728913
0.00773947
0.00786356
0.0079738
0.0079035
0.0076642
0.00728605
0.00713192
0.00668283
0.00600881
0.00526263
0.00409478
0.00292025
0.00110813
2.07664e-05
0.00205316
0.00312662
0.0041317
0.00492859
0.00562637
0.00601493
0.00626867
0.00652446
0.00634707
0.00610149
0.00613502
0.00595044
0.00548229
0.00522715
0.0047061
0.00408069
0.00333515
0.00236446
0.00126469
0.000125778
0.00160524
0.00235499
0.00276685
0.00356283
0.00402256
0.00442969
0.00456325
0.00470778
0.00472862
0.00469509
0.0045379
0.00445928
0.00403132
0.00408372
0.00352758
0.00295823
0.00250762
0.00166432
0.000828021
0.00019403
0.00105497
0.00135287
0.00175084
0.00201672
0.00241279
0.00261827
0.00302095
0.00288165
0.00281599
0.00301948
0.0029141
0.00272131
0.00267955
0.00260818
0.00213587
0.00206895
0.00156018
0.00116384
0.000679507
7.71434e-05
0.000217798
0.000571964
0.000580482
0.000754043
0.000739032
0.000732129
0.00091967
0.00105177
0.0011668
0.00091944
0.000960247
0.000853476
0.00101936
0.000963589
0.000877406
0.000591443
0.000722235
0.000476897
4.31815e-05
3.92823e-05
0.000243741
0.00222458
0.00448274
0.00641874
0.00746944
0.00865325
0.0093143
0.00962085
0.00985394
0.0094912
0.00953914
0.0089889
0.00842242
0.00768539
0.00661185
0.00513773
0.00337541
0.000980767
0.00145661
0.0038136
4.98435e-05
0.00223732
0.00405466
0.00565743
0.00691564
0.00786817
0.00832352
0.00853366
0.00869486
0.00864826
0.0086139
0.00810036
0.00752325
0.00684018
0.00583368
0.0045331
0.00322126
0.00112982
0.00107604
0.00337327
0.000375419
0.0018879
0.00348525
0.00494102
0.00611431
0.00694025
0.00720306
0.00764537
0.00761203
0.00778037
0.00739934
0.00707994
0.00654524
0.00595571
0.00519608
0.00405438
0.0026773
0.000965413
0.000954639
0.00266926
0.000389225
0.00168295
0.00314967
0.00399039
0.00537071
0.00588724
0.00619007
0.00612947
0.00672814
0.00647068
0.00631006
0.00604845
0.00579533
0.0051411
0.00441847
0.00331927
0.00232292
0.000917057
0.000614211
0.00216979
0.000283797
0.00116901
0.00254554
0.00336709
0.00419461
0.00461059
0.00489183
0.005087
0.00535888
0.00504205
0.00521317
0.00487045
0.00449736
0.0041158
0.00360506
0.00284947
0.00179029
0.000567093
0.000473312
0.0017913
0.000175356
0.00100621
0.00183556
0.00249183
0.00296169
0.00332373
0.00379729
0.00390527
0.00391399
0.00407341
0.00344781
0.00377655
0.00328017
0.0031445
0.00259554
0.00194296
0.00117783
0.00063595
0.000353414
0.00126338
0.000322251
0.000511815
0.00104395
0.00166882
0.00180873
0.00211768
0.00234907
0.00238203
0.00234424
0.00232761
0.00229626
0.00219627
0.00193924
0.00185295
0.00140595
0.00132457
0.000809294
0.000240564
0.000272078
0.000795355
0.000197592
7.07815e-05
0.000568023
0.000570766
0.000782722
0.000810277
0.000607689
0.000663568
0.000897497
0.000745188
0.00103208
0.000554703
0.000778162
0.000658703
0.000494417
0.000516415
0.000301666
5.74056e-05
0.000125748
0.000359174
0.00422805
0.00196575
0.00061307
0.00262579
0.00435588
0.00543317
0.00620428
0.00646126
0.00680124
0.00690531
0.0067096
0.00613283
0.00555195
0.00433489
0.00326177
0.00170439
0.000475319
0.00270836
0.00538037
0.00786657
0.00348425
0.00140211
0.000508315
0.00249544
0.00384184
0.00477164
0.00538175
0.00599283
0.00602831
0.00619773
0.00584461
0.00551982
0.00493524
0.00405773
0.00292486
0.00151593
0.000288521
0.00246114
0.00455642
0.00712848
0.00280146
0.00105418
0.000532483
0.00205225
0.00352152
0.00421679
0.00473634
0.00523402
0.00532488
0.00536395
0.00517193
0.00483701
0.00421903
0.00364605
0.00270658
0.00155608
0.000233349
0.00208192
0.00383316
0.00597586
0.00224616
0.000734248
0.00058617
0.00206633
0.00297846
0.00355496
0.00424638
0.00446054
0.00467859
0.00465676
0.00460284
0.00423477
0.00393289
0.00326392
0.00213791
0.00134626
7.74382e-05
0.00149824
0.0031329
0.00468236
0.00180947
0.000682723
0.000493593
0.00156783
0.00245733
0.00291632
0.00336299
0.00371803
0.00387067
0.0034269
0.00351547
0.00337356
0.00313045
0.00247015
0.00202065
0.00115003
0.000229468
0.00110908
0.00264085
0.00381871
0.00136457
0.000527106
0.000373499
0.0012422
0.00171182
0.00234034
0.00256596
0.00270554
0.00275396
0.00262906
0.00273435
0.00211014
0.00220864
0.00183758
0.00151436
0.000640264
2.60079e-05
0.000969612
0.00186254
0.00273126
0.000797477
0.000443529
0.000298368
0.000771224
0.00103958
0.0013373
0.00175839
0.00190221
0.00166264
0.00169478
0.00170163
0.00158775
0.00145596
0.0012025
0.000737149
0.000656145
2.13311e-05
0.000637368
0.00103894
0.00160385
0.000386401
0.000130413
3.83542e-05
0.000350265
0.000332343
0.000383699
0.00050319
0.000862928
0.000563195
0.000632926
0.000675806
0.000681473
0.000344296
0.000406898
0.000456155
0.000247657
0.000160446
0.000392457
0.00028722
0.000517828
0.00887235
0.00637957
0.0040076
0.00190632
0.000187756
0.00128696
0.00227402
0.00281395
0.00306763
0.00296611
0.00286599
0.00223633
0.0014965
0.00059135
0.000850537
0.00277666
0.00498156
0.00734835
0.00997132
0.0127473
0.00756965
0.00555425
0.00320082
0.00147107
3.11796e-05
0.00119441
0.00225748
0.00275723
0.00294139
0.00274963
0.00260698
0.00223744
0.00157408
0.000672742
0.000721148
0.00215004
0.00408797
0.00633015
0.00899636
0.011244
0.0065186
0.00481358
0.00294565
0.00112139
3.30287e-05
0.00112903
0.00190592
0.0024209
0.00251661
0.00254515
0.00235655
0.00209554
0.00124864
0.000783151
0.000511371
0.00181675
0.0034641
0.00524928
0.00765816
0.00944402
0.00552939
0.0039143
0.00227727
0.00108041
0.000224909
0.0010937
0.00166626
0.00208496
0.00199566
0.00230154
0.00227216
0.00163222
0.00118657
0.000713181
0.000289864
0.00148191
0.00270182
0.00448981
0.00627371
0.00785426
0.00412608
0.00321051
0.00185082
0.000906833
0.000194318
0.000945677
0.00142515
0.00166108
0.00161272
0.00170302
0.00164441
0.00135361
0.00073284
0.000571252
0.000212243
0.00107848
0.00192742
0.00356625
0.00478999
0.00632832
0.0031843
0.00226669
0.00143758
0.000358839
7.63448e-05
0.000670012
0.000964578
0.00112818
0.00121867
0.00143306
0.00135094
0.00109417
0.000803624
0.000211609
0.000130647
0.000791986
0.00167228
0.00279199
0.00352678
0.00445769
0.00175488
0.00139814
0.000803549
0.000303966
0.000243392
0.000462088
0.000655796
0.000666391
0.000882441
0.000708416
0.000668753
0.000602861
0.000439175
0.000171195
7.00237e-05
0.000381294
0.000891169
0.00149835
0.00217648
0.00294529
0.000632988
0.000559669
0.00013886
6.70795e-05
0.000137865
0.000117651
0.000370287
0.000258634
0.000273321
0.000386422
0.000127995
0.000184607
0.000216881
0.000273417
0.0001209
0.000188337
0.000264943
0.000569972
0.000485207
0.000947192
0.0142703
0.0118557
0.0091819
0.00672291
0.00499122
0.00374624
0.00235455
0.0019208
0.00146989
0.00139462
0.00153454
0.00215763
0.00296639
0.00412025
0.00579538
0.00755537
0.00981047
0.0126596
0.0154888
0.0182311
0.0122792
0.0102267
0.00805664
0.00602808
0.00434179
0.00296399
0.00191267
0.00152671
0.00121225
0.00105635
0.00129689
0.00146898
0.00243595
0.00360922
0.00487861
0.00667468
0.00851619
0.0109822
0.0135761
0.0160287
0.0109125
0.00890726
0.00667111
0.00536292
0.00354193
0.00231711
0.00150998
0.00133089
0.000990531
0.000883121
0.00101971
0.00157697
0.00197687
0.00278823
0.00418854
0.00569157
0.007503
0.00950456
0.0116043
0.0137449
0.00897793
0.00744556
0.0057015
0.00423798
0.00295126
0.0021598
0.00133437
0.000825431
0.000483903
0.000762779
0.000861704
0.00130609
0.00167324
0.00254284
0.00342264
0.00477001
0.00606614
0.0077082
0.00965872
0.0114653
0.00692552
0.00582543
0.00457349
0.00338118
0.00226225
0.00174049
0.00114861
0.000557466
0.000468216
0.000496345
0.000554279
0.000972636
0.00129649
0.00180456
0.00275428
0.00360134
0.00496627
0.00627533
0.00792406
0.00894009
0.00504729
0.00436221
0.00314039
0.00232717
0.00159524
0.00110546
0.000795683
0.000270301
0.000500601
0.000426728
0.000431675
0.000545461
0.00105423
0.00138917
0.00186851
0.00281467
0.00360004
0.00473094
0.00565513
0.00643816
0.00307385
0.0027575
0.00202531
0.00131881
0.000947409
0.000741207
0.000239401
0.000156263
0.000106985
0.000150625
0.000325578
0.000256285
0.000683233
0.000736993
0.00135043
0.00176825
0.00228395
0.00294147
0.00346141
0.00418657
0.00104378
0.00110112
0.000660872
0.000621601
0.000437527
0.000175142
3.37855e-05
1.74012e-05
0.000149213
0.00019949
2.30396e-05
0.000154949
7.87919e-05
0.000235856
0.000476478
0.000583912
0.000785412
0.000863642
0.00123582
0.00127235
0.0204536
0.0179965
0.0148753
0.0125985
0.0105378
0.008968
0.00786754
0.00713042
0.00639386
0.00655394
0.00682749
0.00739274
0.00828332
0.00952319
0.0111624
0.0133453
0.0156753
0.0184441
0.0212969
0.0242915
0.0179169
0.0158327
0.0131029
0.0111092
0.00916134
0.00788758
0.00680982
0.00626852
0.00581766
0.00572808
0.00598014
0.00649057
0.00727667
0.00833064
0.00982953
0.0117972
0.0138171
0.0159956
0.018766
0.0214393
0.0152071
0.0133604
0.0114066
0.00956252
0.00793202
0.00686955
0.00576365
0.00531105
0.00508448
0.00490777
0.00496059
0.00545954
0.00626693
0.00709124
0.00847868
0.00986394
0.0117318
0.0139828
0.0163401
0.0181296
0.0126003
0.0113807
0.00960046
0.00784757
0.00653073
0.00575506
0.00490317
0.00428074
0.00412638
0.00405284
0.00425957
0.00442824
0.00498116
0.00589337