/*--------------------------------*- C++ -*----------------------------------*\
| =========                 |                                                 |
| \\      /  F ield         | OpenFOAM: The Open Source CFD Toolbox           |
|  \\    /   O peration     | Version:  2212                                  |
|   \\  /    A nd           | Website:  www.openfoam.com                      |
|    \\/     M anipulation  |                                                 |
\*---------------------------------------------------------------------------*/
FoamFile
{
    version     2.0;
    format      ascii;
    arch        "LSB;label=32;scalar=64";
    class       volScalarField;
    location    "./ITHACAoutput/true/4.8";
    object      trueState;
}
// * * * * * * * * * * * * * * * * * * * * * * * * * * * * * * * * * * * * * //

dimensions      [0 0 0 1 0 0 0];

internalField   nonuniform List<scalar> 
3200
(
346.77
347.544
348.532
349.609
350.719
351.808
352.813
353.661
354.279
354.606
354.606
354.279
353.661
352.813
351.808
350.719
349.609
348.532
347.544
346.77
340.549
341.205
342.057
342.989
343.949
344.891
345.76
346.493
347.027
347.309
347.309
347.027
346.493
345.76
344.891
343.949
342.989
342.057
341.205
340.549
334.324
334.867
335.585
336.373
337.184
337.98
338.714
339.332
339.783
340.02
340.02
339.783
339.332
338.714
337.98
337.184
336.373
335.585
334.867
334.324
328.093
328.531
329.117
329.76
330.423
331.073
331.673
332.178
332.545
332.739
332.739
332.545
332.178
331.673
331.073
330.423
329.76
329.117
328.531
328.093
321.86
322.196
322.65
323.15
323.665
324.171
324.636
325.029
325.314
325.465
325.465
325.314
325.029
324.636
324.171
323.665
323.15
322.65
322.196
321.86
315.624
315.861
316.185
316.542
316.91
317.271
317.603
317.883
318.087
318.194
318.194
318.087
317.883
317.603
317.271
316.91
316.542
316.185
315.861
315.624
309.385
309.527
309.722
309.936
310.157
310.373
310.573
310.741
310.863
310.928
310.928
310.863
310.741
310.573
310.373
310.157
309.936
309.722
309.527
309.385
303.146
303.194
303.259
303.331
303.405
303.477
303.544
303.6
303.641
303.663
303.663
303.641
303.6
303.544
303.477
303.405
303.331
303.259
303.194
303.146
346.911
347.679
348.659
349.726
350.824
351.901
352.895
353.733
354.343
354.665
354.665
354.343
353.733
352.895
351.901
350.824
349.726
348.659
347.679
346.911
340.672
341.322
342.167
343.09
344.041
344.972
345.831
346.555
347.082
347.36
347.36
347.082
346.555
345.831
344.972
344.041
343.09
342.167
341.322
340.672
334.427
334.966
335.678
336.458
337.262
338.049
338.774
339.385
339.829
340.064
340.064
339.829
339.385
338.774
338.049
337.262
336.458
335.678
334.966
334.427
328.178
328.612
329.193
329.83
330.486
331.13
331.722
332.221
332.584
332.775
332.775
332.584
332.221
331.722
331.13
330.486
329.83
329.193
328.612
328.178
321.926
322.259
322.709
323.204
323.715
324.214
324.675
325.062
325.344
325.493
325.493
325.344
325.062
324.675
324.214
323.715
323.204
322.709
322.259
321.926
315.67
315.906
316.227
316.581
316.945
317.302
317.631
317.907
318.108
318.214
318.214
318.108
317.907
317.631
317.302
316.945
316.581
316.227
315.906
315.67
309.414
309.554
309.747
309.959
310.178
310.392
310.589
310.755
310.876
310.94
310.94
310.876
310.755
310.589
310.392
310.178
309.959
309.747
309.554
309.414
303.156
303.203
303.267
303.338
303.412
303.483
303.55
303.605
303.646
303.667
303.667
303.646
303.605
303.55
303.483
303.412
303.338
303.267
303.203
303.156
347.196
347.952
348.915
349.962
351.038
352.092
353.062
353.879
354.474
354.788
354.788
354.474
353.879
353.062
352.092
351.038
349.962
348.915
347.952
347.196
340.918
341.558
342.388
343.294
344.226
345.137
345.976
346.683
347.196
347.467
347.467
347.196
346.683
345.976
345.137
344.226
343.294
342.388
341.558
340.918
334.635
335.165
335.865
336.631
337.418
338.188
338.897
339.493
339.926
340.155
340.155
339.926
339.493
338.897
338.188
337.418
336.631
335.865
335.165
334.635
328.348
328.775
329.345
329.971
330.615
331.244
331.823
332.31
332.663
332.85
332.85
332.663
332.31
331.823
331.244
330.615
329.971
329.345
328.775
328.348
322.057
322.385
322.828
323.314
323.814
324.303
324.753
325.131
325.406
325.551
325.551
325.406
325.131
324.753
324.303
323.814
323.314
322.828
322.385
322.057
315.764
315.997
316.312
316.659
317.017
317.366
317.687
317.957
318.153
318.256
318.256
318.153
317.957
317.687
317.366
317.017
316.659
316.312
315.997
315.764
309.47
309.609
309.798
310.006
310.221
310.43
310.623
310.785
310.903
310.965
310.965
310.903
310.785
310.623
310.43
310.221
310.006
309.798
309.609
309.47
303.175
303.221
303.284
303.354
303.426
303.496
303.561
303.615
303.655
303.675
303.675
303.655
303.615
303.561
303.496
303.426
303.354
303.284
303.221
303.175
347.624
348.362
349.301
350.32
351.364
352.384
353.322
354.11
354.682
354.983
354.983
354.682
354.11
353.322
352.384
351.364
350.32
349.301
348.362
347.624
341.288
341.913
342.723
343.604
344.508
345.391
346.201
346.882
347.377
347.637
347.637
347.377
346.882
346.201
345.391
344.508
343.604
342.723
341.913
341.288
334.948
335.466
336.148
336.893
337.657
338.403
339.087
339.662
340.08
340.299
340.299
340.08
339.662
339.087
338.403
337.657
336.893
336.148
335.466
334.948
328.603
329.02
329.577
330.185
330.81
331.419
331.979
332.448
332.789
332.968
332.968
332.789
332.448
331.979
331.419
330.81
330.185
329.577
329.02
328.603
322.256
322.576
323.008
323.481
323.966
324.44
324.874
325.239
325.504
325.643
325.643
325.504
325.239
324.874
324.44
323.966
323.481
323.008
322.576
322.256
315.906
316.133
316.441
316.778
317.125
317.463
317.774
318.034
318.223
318.322
318.322
318.223
318.034
317.774
317.463
317.125
316.778
316.441
316.133
315.906
309.555
309.69
309.875
310.078
310.286
310.489
310.675
310.832
310.945
311.004
311.004
310.945
310.832
310.675
310.489
310.286
310.078
309.875
309.69
309.555
303.203
303.248
303.31
303.378
303.448
303.516
303.578
303.631
303.669
303.689
303.689
303.669
303.631
303.578
303.516
303.448
303.378
303.31
303.248
303.203
348.199
348.915
349.823
350.805
351.809
352.787
353.682
354.433
354.978
355.265
355.265
354.978
354.433
353.682
352.787
351.809
350.805
349.823
348.915
348.199
341.785
342.391
343.174
344.024
344.893
345.739
346.514
347.163
347.634
347.882
347.882
347.634
347.163
346.514
345.739
344.893
344.024
343.174
342.391
341.785
335.367
335.87
336.53
337.248
337.983
338.698
339.352
339.9
340.298
340.507
340.507
340.298
339.9
339.352
338.698
337.983
337.248
336.53
335.87
335.367
328.946
329.35
329.889
330.476
331.076
331.661
332.195
332.643
332.968
333.138
333.138
332.968
332.643
332.195
331.661
331.076
330.476
329.889
329.35
328.946
322.522
322.833
323.25
323.706
324.173
324.627
325.043
325.391
325.643
325.775
325.775
325.643
325.391
325.043
324.627
324.173
323.706
323.25
322.833
322.522
316.096
316.316
316.614
316.94
317.273
317.597
317.894
318.143
318.322
318.417
318.417
318.322
318.143
317.894
317.597
317.273
316.94
316.614
316.316
316.096
309.669
309.8
309.979
310.175
310.375
310.569
310.748
310.897
311.005
311.061
311.061
311.005
310.897
310.748
310.569
310.375
310.175
309.979
309.8
309.669
303.241
303.285
303.345
303.411
303.478
303.543
303.603
303.653
303.689
303.708
303.708
303.689
303.653
303.603
303.543
303.478
303.411
303.345
303.285
303.241
348.923
349.612
350.484
351.423
352.38
353.308
354.155
354.864
355.376
355.646
355.646
355.376
354.864
354.155
353.308
352.38
351.423
350.484
349.612
348.923
342.412
342.995
343.746
344.559
345.387
346.191
346.924
347.537
347.98
348.213
348.213
347.98
347.537
346.924
346.191
345.387
344.559
343.746
342.995
342.412
335.896
336.38
337.013
337.7
338.4
339.079
339.699
340.217
340.591
340.787
340.787
340.591
340.217
339.699
339.079
338.4
337.7
337.013
336.38
335.896
329.378
329.767
330.284
330.845
331.418
331.973
332.479
332.902
333.208
333.368
333.368
333.208
332.902
332.479
331.973
331.418
330.845
330.284
329.767
329.378
322.858
323.157
323.557
323.994
324.439
324.87
325.264
325.592
325.83
325.954
325.954
325.83
325.592
325.264
324.87
324.439
323.994
323.557
323.157
322.858
316.336
316.548
316.833
317.145
317.463
317.771
318.052
318.287
318.456
318.545
318.545
318.456
318.287
318.052
317.771
317.463
317.145
316.833
316.548
316.336
309.813
309.939
310.111
310.298
310.489
310.674
310.842
310.983
311.085
311.138
311.138
311.085
310.983
310.842
310.674
310.489
310.298
310.111
309.939
309.813
303.29
303.332
303.389
303.452
303.516
303.578
303.634
303.682
303.716
303.734
303.734
303.716
303.682
303.634
303.578
303.516
303.452
303.389
303.332
303.29
349.8
350.459
351.289
352.181
353.085
353.958
354.753
355.415
355.893
356.143
356.143
355.893
355.415
354.753
353.958
353.085
352.181
351.289
350.459
349.8
343.17
343.727
344.443
345.215
345.998
346.754
347.442
348.015
348.427
348.644
348.644
348.427
348.015
347.442
346.754
345.998
345.215
344.443
343.727
343.17
336.536
336.999
337.602
338.255
338.917
339.556
340.137
340.621
340.97
341.153
341.153
340.97
340.621
340.137
339.556
338.917
338.255
337.602
336.999
336.536
329.901
330.273
330.765
331.299
331.84
332.363
332.838
333.233
333.518
333.667
333.667
333.518
333.233
332.838
332.363
331.84
331.299
330.765
330.273
329.901
323.264
323.55
323.932
324.346
324.767
325.174
325.543
325.85
326.071
326.187
326.187
326.071
325.85
325.543
325.174
324.767
324.346
323.932
323.55
323.264
316.626
316.828
317.101
317.397
317.697
317.987
318.251
318.471
318.629
318.711
318.711
318.629
318.471
318.251
317.987
317.697
317.397
317.101
316.828
316.626
309.987
310.108
310.271
310.449
310.629
310.804
310.962
311.094
311.189
311.238
311.238
311.189
311.094
310.962
310.804
310.629
310.449
310.271
310.108
309.987
303.348
303.388
303.443
303.502
303.563
303.621
303.674
303.719
303.75
303.767
303.767
303.75
303.719
303.674
303.621
303.563
303.502
303.443
303.388
303.348
350.833
351.459
352.245
353.085
353.933
354.749
355.487
356.101
356.542
356.773
356.773
356.542
356.101
355.487
354.749
353.933
353.085
352.245
351.459
350.833
344.063
344.592
345.27
345.998
346.732
347.439
348.078
348.609
348.99
349.19
349.19
348.99
348.609
348.078
347.439
346.732
345.998
345.27
344.592
344.063
337.291
337.73
338.301
338.916
339.537
340.135
340.675
341.124
341.446
341.615
341.615
341.446
341.124
340.675
340.135
339.537
338.916
338.301
337.73
337.291
330.518
330.871
331.337
331.84
332.348
332.836
333.278
333.644
333.908
334.046
334.046
333.908
333.644
333.278
332.836
332.348
331.84
331.337
330.871
330.518
323.743
324.015
324.376
324.767
325.162
325.541
325.885
326.17
326.375
326.482
326.482
326.375
326.17
325.885
325.541
325.162
324.767
324.376
324.015
323.743
316.968
317.16
317.418
317.697
317.979
318.25
318.496
318.699
318.845
318.922
318.922
318.845
318.699
318.496
318.25
317.979
317.697
317.418
317.16
316.968
310.193
310.307
310.462
310.629
310.799
310.962
311.109
311.231
311.319
311.365
311.365
311.319
311.231
311.109
310.962
310.799
310.629
310.462
310.307
310.193
303.417
303.455
303.507
303.563
303.62
303.674
303.724
303.765
303.794
303.809
303.809
303.794
303.765
303.724
303.674
303.62
303.563
303.507
303.455
303.417
352.026
352.616
353.356
354.143
354.933
355.689
356.371
356.935
357.339
357.551
357.551
357.339
356.935
356.371
355.689
354.933
354.143
353.356
352.616
352.026
345.094
345.594
346.232
346.913
347.598
348.253
348.843
349.331
349.681
349.864
349.864
349.681
349.331
348.843
348.253
347.598
346.913
346.232
345.594
345.094
338.162
338.577
339.114
339.69
340.269
340.823
341.322
341.735
342.031
342.185
342.185
342.031
341.735
341.322
340.823
340.269
339.69
339.114
338.577
338.162
331.229
331.563
332.001
332.472
332.946
333.399
333.807
334.144
334.386
334.512
334.512
334.386
334.144
333.807
333.399
332.946
332.472
332.001
331.563
331.229
324.296
324.553
324.893
325.259
325.627
325.979
326.297
326.559
326.747
326.845
326.845
326.747
326.559
326.297
325.979
325.627
325.259
324.893
324.553
324.296
317.363
317.544
317.787
318.048
318.311
318.563
318.79
318.977
319.111
319.181
319.181
319.111
318.977
318.79
318.563
318.311
318.048
317.787
317.544
317.363
310.43
310.538
310.683
310.84
310.998
311.149
311.286
311.398
311.478
311.521
311.521
311.478
311.398
311.286
311.149
310.998
310.84
310.683
310.538
310.43
303.496
303.532
303.581
303.634
303.687
303.737
303.783
303.821
303.848
303.862
303.862
303.848
303.821
303.783
303.737
303.687
303.634
303.581
303.532
303.496
353.381
353.937
354.629
355.361
356.093
356.79
357.415
357.93
358.298
358.49
358.49
358.298
357.93
357.415
356.79
356.093
355.361
354.629
353.937
353.381
346.267
346.737
347.334
347.968
348.602
349.206
349.747
350.193
350.512
350.678
350.678
350.512
350.193
349.747
349.206
348.602
347.968
347.334
346.737
346.267
339.153
339.542
340.045
340.582
341.118
341.629
342.087
342.464
342.733
342.873
342.873
342.733
342.464
342.087
341.629
341.118
340.582
340.045
339.542
339.153
332.039
332.352
332.763
333.201
333.64
334.057
334.432
334.74
334.96
335.075
335.075
334.96
334.74
334.432
334.057
333.64
333.201
332.763
332.352
332.039
324.925
325.166
325.484
325.825
326.166
326.491
326.782
327.022
327.193
327.283
327.283
327.193
327.022
326.782
326.491
326.166
325.825
325.484
325.166
324.925
317.812
317.982
318.209
318.453
318.697
318.929
319.137
319.308
319.43
319.494
319.494
319.43
319.308
319.137
318.929
318.697
318.453
318.209
317.982
317.812
310.699
310.801
310.937
311.083
311.23
311.369
311.494
311.597
311.67
311.708
311.708
311.67
311.597
311.494
311.369
311.23
311.083
310.937
310.801
310.699
303.586
303.62
303.666
303.715
303.764
303.811
303.853
303.887
303.912
303.925
303.925
303.912
303.887
303.853
303.811
303.764
303.715
303.666
303.62
303.586
354.904
355.423
356.067
356.746
357.42
358.059
358.629
359.097
359.43
359.603
359.603
359.43
359.097
358.629
358.059
357.42
356.746
356.067
355.423
354.904
347.584
348.023
348.579
349.167
349.751
350.304
350.798
351.203
351.492
351.642
351.642
351.492
351.203
350.798
350.304
349.751
349.167
348.579
348.023
347.584
340.265
340.63
341.098
341.595
342.089
342.557
342.975
343.318
343.562
343.689
343.689
343.562
343.318
342.975
342.557
342.089
341.595
341.098
340.63
340.265
332.948
333.241
333.623
334.029
334.434
334.817
335.158
335.439
335.638
335.742
335.742
335.638
335.439
335.158
334.817
334.434
334.029
333.623
333.241
332.948
325.632
325.857
326.153
326.469
326.783
327.081
327.347
327.565
327.72
327.801
327.801
327.72
327.565
327.347
327.081
326.783
326.469
326.153
325.857
325.632
318.316
318.476
318.687
318.913
319.137
319.35
319.54
319.696
319.807
319.864
319.864
319.807
319.696
319.54
319.35
319.137
318.913
318.687
318.476
318.316
311.002
311.097
311.224
311.359
311.494
311.622
311.736
311.83
311.896
311.931
311.931
311.896
311.83
311.736
311.622
311.494
311.359
311.224
311.097
311.002
303.688
303.72
303.762
303.808
303.853
303.896
303.934
303.965
303.988
303.999
303.999
303.988
303.965
303.934
303.896
303.853
303.808
303.762
303.72
303.688
356.597
357.08
357.677
358.303
358.921
359.504
360.021
360.444
360.744
360.9
360.9
360.744
360.444
360.021
359.504
358.921
358.303
357.677
357.08
356.597
349.048
349.457
349.972
350.514
351.05
351.555
352.003
352.37
352.63
352.765
352.765
352.63
352.37
352.003
351.555
351.05
350.514
349.972
349.457
349.048
341.502
341.841
342.276
342.734
343.187
343.614
343.994
344.304
344.524
344.638
344.638
344.524
344.304
343.994
343.614
343.187
342.734
342.276
341.841
341.502
333.959
334.232
334.586
334.96
335.331
335.681
335.991
336.245
336.425
336.518
336.518
336.425
336.245
335.991
335.681
335.331
334.96
334.586
334.232
333.959
326.417
326.627
326.901
327.193
327.481
327.753
327.995
328.192
328.332
328.404
328.404
328.332
328.192
327.995
327.753
327.481
327.193
326.901
326.627
326.417
318.877
319.026
319.221
319.43
319.636
319.83
320.003
320.144
320.243
320.295
320.295
320.243
320.144
320.003
319.83
319.636
319.43
319.221
319.026
318.877
311.339
311.427
311.545
311.67
311.793
311.91
312.014
312.098
312.158
312.19
312.19
312.158
312.098
312.014
311.91
311.793
311.67
311.545
311.427
311.339
303.801
303.83
303.87
303.912
303.953
303.992
304.027
304.055
304.075
304.086
304.086
304.075
304.055
304.027
303.992
303.953
303.912
303.87
303.83
303.801
358.462
358.91
359.462
360.036
360.601
361.13
361.599
361.979
362.249
362.389
362.389
362.249
361.979
361.599
361.13
360.601
360.036
359.462
358.91
358.462
350.661
351.041
351.517
352.014
352.504
352.963
353.368
353.698
353.932
354.053
354.053
353.932
353.698
353.368
352.963
352.504
352.014
351.517
351.041
350.661
342.865
343.18
343.581
344.002
344.416
344.804
345.148
345.427
345.624
345.727
345.727
345.624
345.427
345.148
344.804
344.416
344.002
343.581
343.18
342.865
335.072
335.326
335.653
335.997
336.336
336.654
336.935
337.163
337.325
337.408
337.408
337.325
337.163
336.935
336.654
336.336
335.997
335.653
335.326
335.072
327.283
327.477
327.731
327.998
328.262
328.509
328.728
328.906
329.031
329.096
329.096
329.031
328.906
328.728
328.509
328.262
327.998
327.731
327.477
327.283
319.495
319.633
319.814
320.005
320.193
320.37
320.526
320.653
320.743
320.79
320.79
320.743
320.653
320.526
320.37
320.193
320.005
319.814
319.633
319.495
311.71
311.792
311.9
312.015
312.128
312.234
312.328
312.404
312.458
312.486
312.486
312.458
312.404
312.328
312.234
312.128
312.015
311.9
311.792
311.71
303.925
303.953
303.989
304.027
304.065
304.101
304.132
304.158
304.176
304.185
304.185
304.176
304.158
304.132
304.101
304.065
304.027
303.989
303.953
303.925
360.5
360.915
361.422
361.949
362.463
362.942
363.364
363.706
363.948
364.072
364.072
363.948
363.706
363.364
362.942
362.463
361.949
361.422
360.915
360.5
352.424
352.775
353.213
353.669
354.115
354.531
354.897
355.193
355.402
355.51
355.51
355.402
355.193
354.897
354.531
354.115
353.669
353.213
352.775
352.424
344.354
344.645
345.014
345.4
345.777
346.129
346.439
346.69
346.867
346.958
346.958
346.867
346.69
346.439
346.129
345.777
345.4
345.014
344.645
344.354
336.289
336.523
336.824
337.14
337.449
337.737
337.99
338.195
338.34
338.415
338.415
338.34
338.195
337.99
337.737
337.449
337.14
336.824
336.523
336.289
328.228
328.408
328.641
328.887
329.127
329.351
329.548
329.708
329.82
329.879
329.879
329.82
329.708
329.548
329.351
329.127
328.887
328.641
328.408
328.228
320.17
320.298
320.464
320.639
320.811
320.971
321.112
321.226
321.307
321.348
321.348
321.307
321.226
321.112
320.971
320.811
320.639
320.464
320.298
320.17
312.115
312.191
312.291
312.396
312.499
312.595
312.68
312.748
312.797
312.822
312.822
312.797
312.748
312.68
312.595
312.499
312.396
312.291
312.191
312.115
304.061
304.086
304.12
304.155
304.19
304.222
304.25
304.273
304.289
304.298
304.298
304.289
304.273
304.25
304.222
304.19
304.155
304.12
304.086
304.061
362.71
363.093
363.559
364.039
364.506
364.94
365.319
365.626
365.841
365.952
365.952
365.841
365.626
365.319
364.94
364.506
364.039
363.559
363.093
362.71
354.335
354.659
355.061
355.477
355.883
356.258
356.587
356.853
357.04
357.136
357.136
357.04
356.853
356.587
356.258
355.883
355.477
355.061
354.659
354.335
345.968
346.237
346.576
346.928
347.271
347.589
347.867
348.092
348.25
348.332
348.332
348.25
348.092
347.867
347.589
347.271
346.928
346.576
346.237
345.968
337.608
337.824
338.1
338.388
338.669
338.929
339.157
339.341
339.471
339.537
339.537
339.471
339.341
339.157
338.929
338.669
338.388
338.1
337.824
337.608
329.253
329.418
329.633
329.857
330.075
330.278
330.455
330.598
330.699
330.751
330.751
330.699
330.598
330.455
330.278
330.075
329.857
329.633
329.418
329.253
320.902
321.019
321.172
321.332
321.488
321.633
321.76
321.862
321.934
321.971
321.971
321.934
321.862
321.76
321.633
321.488
321.332
321.172
321.019
320.902
312.554
312.624
312.716
312.812
312.905
312.992
313.069
313.13
313.173
313.196
313.196
313.173
313.13
313.069
312.992
312.905
312.812
312.716
312.624
312.554
304.208
304.231
304.262
304.294
304.326
304.355
304.38
304.401
304.416
304.423
304.423
304.416
304.401
304.38
304.355
304.326
304.294
304.262
304.231
304.208
365.083
365.435
365.862
366.3
366.724
367.115
367.456
367.73
367.922
368.021
368.021
367.922
367.73
367.456
367.115
366.724
366.3
365.862
365.435
365.083
356.386
356.684
357.052
357.432
357.799
358.138
358.434
358.672
358.839
358.925
358.925
358.839
358.672
358.434
358.138
357.799
357.432
357.052
356.684
356.386
347.699
347.946
348.256
348.578
348.889
349.176
349.426
349.627
349.769
349.841
349.841
349.769
349.627
349.426
349.176
348.889
348.578
348.256
347.946
347.699
339.021
339.219
339.473
339.735
339.99
340.225
340.43
340.595
340.71
340.77
340.77
340.71
340.595
340.43
340.225
339.99
339.735
339.473
339.219
339.021
330.35
330.502
330.699
330.903
331.101
331.284
331.444
331.572
331.662
331.708
331.708
331.662
331.572
331.444
331.284
331.101
330.903
330.699
330.502
330.35
321.685
321.793
321.933
322.079
322.22
322.351
322.465
322.557
322.621
322.654
322.654
322.621
322.557
322.465
322.351
322.22
322.079
321.933
321.793
321.685
313.024
313.088
313.172
313.26
313.345
313.424
313.492
313.547
313.586
313.606
313.606
313.586
313.547
313.492
313.424
313.345
313.26
313.172
313.088
313.024
304.365
304.387
304.415
304.445
304.473
304.499
304.522
304.541
304.554
304.56
304.56
304.554
304.541
304.522
304.499
304.473
304.445
304.415
304.387
304.365
367.595
367.918
368.309
368.708
369.092
369.445
369.751
369.997
370.168
370.257
370.257
370.168
369.997
369.751
369.445
369.092
368.708
368.309
367.918
367.595
358.552
358.826
359.163
359.509
359.842
360.149
360.414
360.627
360.776
360.853
360.853
360.776
360.627
360.414
360.149
359.842
359.509
359.163
358.826
358.552
349.524
349.751
350.036
350.328
350.611
350.87
351.095
351.275
351.401
351.466
351.466
351.401
351.275
351.095
350.87
350.611
350.328
350.036
349.751
349.524
340.509
340.692
340.924
341.163
341.394
341.606
341.791
341.938
342.041
342.094
342.094
342.041
341.938
341.791
341.606
341.394
341.163
340.924
340.692
340.509
331.504
331.644
331.824
332.011
332.19
332.356
332.499
332.614
332.694
332.736
332.736
332.694
332.614
332.499
332.356
332.19
332.011
331.824
331.644
331.504
322.508
322.607
322.735
322.868
322.997
323.115
323.218
323.3
323.357
323.387
323.387
323.357
323.3
323.218
323.115
322.997
322.868
322.735
322.607
322.508
313.517
313.577
313.654
313.734
313.811
313.882
313.943
313.993
314.027
314.045
314.045
314.027
313.993
313.943
313.882
313.811
313.734
313.654
313.577
313.517
304.531
304.551
304.576
304.603
304.629
304.653
304.673
304.69
304.702
304.708
304.708
304.702
304.69
304.673
304.653
304.629
304.603
304.576
304.551
304.531
370.18
370.478
370.836
371.2
371.549
371.868
372.143
372.364
372.517
372.596
372.596
372.517
372.364
372.143
371.868
371.549
371.2
370.836
370.478
370.18
360.772
361.024
361.333
361.649
361.952
362.229
362.468
362.659
362.793
362.861
362.861
362.793
362.659
362.468
362.229
361.952
361.649
361.333
361.024
360.772
351.387
351.596
351.857
352.124
352.381
352.615
352.818
352.98
353.093
353.151
353.151
353.093
352.98
352.818
352.615
352.381
352.124
351.857
351.596
351.387
342.022
342.19
342.403
342.622
342.832
343.024
343.191
343.323
343.416
343.463
343.463
343.416
343.323
343.191
343.024
342.832
342.622
342.403
342.19
342.022
332.674
332.803
332.969
333.139
333.302
333.452
333.582
333.685
333.757
333.794
333.794
333.757
333.685
333.582
333.452
333.302
333.139
332.969
332.803
332.674
323.34
323.431
323.549
323.671
323.788
323.895
323.988
324.061
324.113
324.14
324.14
324.113
324.061
323.988
323.895
323.788
323.671
323.549
323.431
323.34
314.016
314.07
314.141
314.214
314.284
314.349
314.404
314.449
314.48
314.496
314.496
314.48
314.449
314.404
314.349
314.284
314.214
314.141
314.07
314.016
304.698
304.716
304.74
304.764
304.788
304.809
304.828
304.843
304.853
304.858
304.858
304.853
304.843
304.828
304.809
304.788
304.764
304.74
304.716
304.698
372.673
372.949
373.279
373.613
373.932
374.223
374.473
374.673
374.811
374.883
374.883
374.811
374.673
374.473
374.223
373.932
373.613
373.279
372.949
372.673
362.887
363.12
363.406
363.696
363.973
364.226
364.444
364.617
364.738
364.799
364.799
364.738
364.617
364.444
364.226
363.973
363.696
363.406
363.12
362.887
353.142
353.336
353.577
353.823
354.058
354.273
354.458
354.605
354.707
354.76
354.76
354.707
354.605
354.458
354.273
354.058
353.823
353.577
353.336
353.142
343.435
343.591
343.788
343.989
344.182
344.358
344.51
344.63
344.714
344.757
344.757
344.714
344.63
344.51
344.358
344.182
343.989
343.788
343.591
343.435
333.759
333.878
334.031
334.188
334.339
334.476
334.594
334.688
334.753
334.787
334.787
334.753
334.688
334.594
334.476
334.339
334.188
334.031
333.878
333.759
324.107
324.192
324.301
324.413
324.521
324.619
324.704
324.771
324.818
324.842
324.842
324.818
324.771
324.704
324.619
324.521
324.413
324.301
324.192
324.107
314.473
314.524
314.589
314.657
314.722
314.781
314.831
314.872
314.9
314.915
314.915
314.9
314.872
314.831
314.781
314.722
314.657
314.589
314.524
314.473
304.85
304.867
304.889
304.912
304.934
304.953
304.97
304.984
304.993
304.998
304.998
304.993
304.984
304.97
304.953
304.934
304.912
304.889
304.867
304.85
374.634
374.893
375.203
375.517
375.816
376.087
376.32
376.505
376.633
376.699
376.699
376.633
376.505
376.32
376.087
375.816
375.517
375.203
374.893
374.634
364.487
364.706
364.976
365.249
365.509
365.746
365.949
366.11
366.223
366.28
366.28
366.223
366.11
365.949
365.746
365.509
365.249
364.976
364.706
364.487
354.429
354.612
354.84
355.072
355.294
355.495
355.668
355.805
355.901
355.95
355.95
355.901
355.805
355.668
355.495
355.294
355.072
354.84
354.612
354.429
344.445
344.593
344.779
344.97
345.152
345.317
345.459
345.572
345.651
345.691
345.691
345.651
345.572
345.459
345.317
345.152
344.97
344.779
344.593
344.445
334.519
334.633
334.778
334.927
335.069
335.198
335.309
335.397
335.458
335.49
335.49
335.458
335.397
335.309
335.198
335.069
334.927
334.778
334.633
334.519
324.638
324.718
324.822
324.928
325.03
325.123
325.202
325.265
325.309
325.332
325.332
325.309
325.265
325.202
325.123
325.03
324.928
324.822
324.718
324.638
314.787
314.835
314.897
314.961
315.023
315.078
315.126
315.164
315.191
315.204
315.204
315.191
315.164
315.126
315.078
315.023
314.961
314.897
314.835
314.787
304.955
304.971
304.992
305.013
305.034
305.052
305.068
305.081
305.09
305.095
305.095
305.09
305.081
305.068
305.052
305.034
305.013
304.992
304.971
304.955
)
;

boundaryField
{
    hotSide
    {
        type            fixedGradient;
        gradient        nonuniform List<scalar> 
400
(
497.106
498.655
501.762
506.442
512.719
520.621
530.182
541.436
554.422
569.176
585.735
604.132
624.398
646.562
670.647
696.676
724.664
754.627
786.576
820.519
507.292
508.761
511.709
516.159
522.141
529.692
538.857
549.683
562.215
576.503
592.591
610.521
630.331
652.052
675.715
701.342
728.953
758.563
790.184
823.823
518.316
519.688
522.448
526.624
532.256
539.396
548.098
558.424
570.435
584.19
599.744
617.148
636.448
657.681
680.88
706.071
733.276
762.508
793.781
827.1
529.994
531.255
533.795
537.654
542.883
549.549
557.724
567.486
578.91
592.07
607.034
623.863
642.609
663.316
686.021
710.752
737.53
766.37
797.284
830.277
542.001
543.136
545.43
548.933
553.714
559.855
567.45
576.594
587.382
599.903
614.239
630.459
648.626
668.788
690.984
715.245
741.592
770.039
800.595
833.264
553.836
554.836
556.867
559.992
564.296
569.885
576.871
585.373
595.505
607.371
621.068
636.677
654.266
673.888
695.585
719.388
745.318
773.387
803.603
835.966
564.822
565.686
567.455
570.203
574.037
579.081
585.473
593.351
602.848
614.089
627.179
642.211
659.259
678.38
699.618
723.002
748.554
776.283
806.194
838.284
574.145
574.888
576.42
578.831
582.243
586.803
592.667
599.996
608.939
619.635
632.202
646.74
663.327
682.024
702.875
725.91
751.147
778.595
808.255
840.123
580.968
581.618
582.969
585.122
588.214
592.406
597.872
604.788
613.317
623.607
635.787
649.96
666.21
684.598
705.169
727.951
752.963
780.209
809.691
841.4
584.584
585.182
586.435
588.448
591.365
595.358
600.61
607.303
615.609
625.683
637.656
651.636
667.707
685.931
706.355
729.005
753.898
781.039
810.427
842.055
584.584
585.182
586.435
588.448
591.365
595.358
600.61
607.303
615.609
625.683
637.656
651.636
667.707
685.931
706.355
729.005
753.898
781.039
810.427
842.055
580.968
581.618
582.969
585.122
588.214
592.406
597.872
604.788
613.317
623.607
635.787
649.96
666.21
684.598
705.169
727.951
752.963
780.209
809.691
841.4
574.145
574.888
576.42
578.831
582.243
586.803
592.667
599.996
608.939
619.635
632.202
646.74
663.327
682.024
702.875
725.91
751.147
778.595
808.255
840.123
564.822
565.686
567.455
570.203
574.037
579.081
585.473
593.351
602.848
614.089
627.179
642.211
659.259
678.38
699.618
723.002
748.554
776.283
806.194
838.284
553.836
554.836
556.867
559.992
564.296
569.885
576.871
585.373
595.505
607.371
621.068
636.677
654.266
673.888
695.585
719.388
745.318
773.387
803.603
835.966
542.001
543.136
545.43
548.933
553.714
559.855
567.45
576.594
587.382
599.903
614.239
630.459
648.626
668.788
690.984
715.245
741.592
770.039
800.595
833.264
529.994
531.255
533.795
537.654
542.883
549.549
557.724
567.486
578.91
592.07
607.034
623.863
642.609
663.316
686.021
710.752
737.53
766.37
797.284
830.277
518.316
519.688
522.448
526.624
532.256
539.396
548.098
558.424
570.435
584.19
599.744
617.148
636.448
657.681
680.88
706.071
733.276
762.508
793.781
827.1
507.292
508.761
511.709
516.159
522.141
529.692
538.857
549.683
562.215
576.503
592.591
610.521
630.331
652.052
675.715
701.342
728.953
758.563
790.184
823.823
497.106
498.655
501.762
506.442
512.719
520.621
530.182
541.436
554.422
569.176
585.735
604.132
624.398
646.562
670.647
696.676
724.664
754.627
786.576
820.519
)
;
    }
    coldSide
    {
        type            mixed;
        refValue        uniform 300;
        refGradient     uniform 0;
        valueFraction   uniform 0.991591;
        source          uniform 0;
        value           nonuniform List<scalar> 
400
(
300.026
300.027
300.027
300.027
300.027
300.028
300.028
300.029
300.029
300.03
300.031
300.032
300.033
300.034
300.035
300.037
300.038
300.04
300.041
300.042
300.027
300.027
300.027
300.027
300.028
300.028
300.028
300.029
300.03
300.03
300.031
300.032
300.033
300.034