/*--------------------------------*- C++ -*----------------------------------*\
| =========                 |                                                 |
| \\      /  F ield         | OpenFOAM: The Open Source CFD Toolbox           |
|  \\    /   O peration     | Version:  2212                                  |
|   \\  /    A nd           | Website:  www.openfoam.com                      |
|    \\/     M anipulation  |                                                 |
\*---------------------------------------------------------------------------*/
FoamFile
{
    version     2.0;
    format      ascii;
    arch        "LSB;label=32;scalar=64";
    class       volScalarField;
    location    "0";
    object      T;
}
// * * * * * * * * * * * * * * * * * * * * * * * * * * * * * * * * * * * * * //

dimensions      [0 0 0 1 0 0 0];

internalField   nonuniform List<scalar> 
3200
(
337.95
338.71
339.303
340.186
340.904
341.352
341.902
342.273
342.517
343.058
342.876
342.997
342.646
342.628
342.414
341.645
341.371
340.606
339.73
338.997
333.051
333.644
334.205
334.954
335.552
335.974
336.46
336.76
336.98
337.466
337.249
337.364
337.101
337.086
336.886
336.175
335.983
335.317
334.581
333.941
328.089
328.544
329.016
329.719
330.17
330.53
330.965
331.178
331.407
331.796
331.592
331.701
331.513
331.529
331.336
330.73
330.515
329.98
329.326
328.814
323.054
323.376
323.782
324.404
324.742
325.059
325.462
325.554
325.782
326.056
325.887
326.029
325.852
325.895
325.715
325.255
325.06
324.591
324.086
323.667
317.986
318.193
318.507
319.036
319.301
319.561
319.893
319.89
320.098
320.264
320.194
320.246
320.159
320.206
320.016
319.712
319.549
319.198
318.792
318.482
312.903
312.992
313.233
313.63
313.846
313.987
314.268
314.219
314.371
314.461
314.43
314.476
314.429
314.47
314.281
314.13
313.964
313.769
313.438
313.249
307.768
307.827
307.958
308.226
308.308
308.393
308.596
308.548
308.603
308.712
308.637
308.699
308.671
308.707
308.595
308.519
308.38
308.279
308.087
307.96
302.609
302.621
302.654
302.771
302.771
302.804
302.878
302.864
302.89
302.944
302.885
302.92
302.929
302.908
302.875
302.861
302.818
302.776
302.72
302.657
338.782
339.424
340.323
341.229
342.041
342.503
343.104
343.65
343.926
344.074
344.021
344.244
344.155
343.867
343.433
342.81
342.457
341.694
340.732
340.229
333.702
334.244
334.991
335.825
336.52
336.94
337.394
337.922
338.126
338.289
338.193
338.443
338.345
338.087
337.7
337.195
336.912
336.194
335.354
334.973
328.575
329.009
329.621
330.359
330.96
331.375
331.712
332.136
332.263
332.464
332.319
332.566
332.507
332.277
331.959
331.561
331.308
330.653
329.927
329.712
323.409
323.767
324.298
324.881
325.405
325.723
325.968
326.3
326.425
326.605
326.468
326.673
326.644
326.447
326.174
325.875
325.717
325.113
324.485
324.415
318.217
318.547
318.964
319.386
319.782
320.059
320.257
320.502
320.586
320.729
320.657
320.777
320.759
320.609
320.367
320.194
320.074
319.554
319.055
319.043
313.042
313.303
313.543
313.837
314.153
314.339
314.531
314.65
314.72
314.843
314.798
314.877
314.828
314.797
314.587
314.459
314.366
313.997
313.594
313.65
307.872
308.023
308.146
308.312
308.474
308.591
308.758
308.794
308.861
308.909
308.899
308.918
308.904
308.934
308.788
308.687
308.663
308.419
308.148
308.227
302.652
302.704
302.737
302.781
302.829
302.875
302.933
302.951
302.968
302.979
302.967
302.992
302.986
303.008
302.953
302.922
302.901
302.812
302.73
302.775
340.066
340.861
341.652
342.671
343.478
344.181
344.602
345.323
345.278
345.611
345.633
345.653
345.732
345.184
344.747
344.459
343.969
343.118
342.388
341.577
334.762
335.455
336.182
337.048
337.712
338.367
338.731
339.342
339.34
339.577
339.608
339.599
339.699
339.22
338.809
338.594
338.168
337.381
336.778
336.072
329.416
330.05
330.664
331.376
331.985
332.5
332.838
333.346
333.345
333.556
333.546
333.538
333.648
333.194
332.889
332.721
332.364
331.664
331.149
330.545
324.076
324.64
325.111
325.695
326.25
326.608
326.918
327.329
327.335
327.524
327.436
327.495
327.55
327.163
326.961
326.831
326.47
325.907
325.489
325.02
318.711
319.186
319.56
319.964
320.449
320.713
320.998
321.268
321.28
321.467
321.339
321.441
321.449
321.135
321.003
320.891
320.584
320.17
319.82
319.464
313.344
313.72
313.971
314.275
314.606
314.812
315.039
315.198
315.242
315.334
315.249
315.318
315.355
315.151
315.03
314.945
314.72
314.461
314.184
313.882
308.01
308.271
308.384
308.596
308.793
308.914
309.044
309.167
309.145
309.245
309.158
309.197
309.212
309.142
309.029
308.994
308.83
308.695
308.511
308.335
302.669
302.767
302.797
302.882
302.941
302.997
303.03
303.085
303.078
303.107
303.086
303.063
303.083
303.068
303.045
303.017
302.967
302.936
302.853
302.798
341.502
342.416
343.266
344.173
344.854
345.852
346.373
346.773
346.863
347.331
347.331
347.255
347.401
346.917
346.517
346.053
345.458
344.621
343.824
343.049
336.04
336.806
337.517
338.368
338.889
339.797
340.273
340.588
340.67
341.052
341.076
340.962
341.177
340.649
340.331
339.933
339.45
338.68
338
337.368
330.533
331.222
331.741
332.531
332.932
333.719
334.142
334.398
334.529
334.798
334.808
334.707
334.912
334.401
334.124
333.825
333.391
332.716
332.199
331.624
325.017
325.592
325.975
326.667
326.972
327.602
327.992
328.224
328.3
328.461
328.497
328.448
328.601
328.161
327.917
327.708
327.278
326.761
326.398
325.922
319.508
319.931
320.188
320.747
321.005
321.474
321.786
322.034
322.107
322.174
322.154
322.193
322.215
321.917
321.739
321.619
321.208
320.855
320.529
320.204
313.963
314.233
314.451
314.829
315.016
315.347
315.543
315.779
315.842
315.887
315.82
315.897
315.853
315.695
315.553
315.502
315.142
314.955
314.666
314.464
308.396
308.526
308.701
308.907
309.03
309.208
309.316
309.5
309.523
309.544
309.508
309.562
309.535
309.471
309.342
309.31
309.122
309.028
308.782
308.678
302.809
302.848
302.912
302.976
303.033
303.073
303.116
303.183
303.191
303.211
303.181
303.208
303.205
303.178
303.137
303.113
303.046
303.055
302.943
302.91
342.958
343.903
344.798
345.808
346.529
347.401
348.023
348.481
348.706
349.015
348.989
348.853
348.865
348.602
348.004
347.642
346.863
346.29
345.31
344.214
337.261
338.083
338.865
339.76
340.353
341.137
341.66
342.087
342.248
342.546
342.457
342.345
342.406
342.165
341.686
341.317
340.595
340.151
339.288
338.344
331.594
332.289
332.953
333.712
334.143
334.853
335.304
335.637
335.807
336.056
336.001
335.863
335.959
335.69
335.339
334.978
334.335
334.001
333.273
332.467
325.863
326.458
326.985
327.64
328.018
328.533
328.904
329.197
329.344
329.563
329.503
329.399
329.444
329.256
328.939
328.64
328.058
327.825
327.24
326.606
320.134
320.603
321.03
321.486
321.825
322.2
322.519
322.755
322.829
323.02
322.989
322.882
322.888
322.777
322.524
322.269
321.818
321.676
321.216
320.749
314.378
314.753
315.039
315.378
315.614
315.867
316.118
316.264
316.309
316.463
316.431
316.355
316.362
316.279
316.054
315.888
315.612
315.519
315.156
314.853
308.648
308.892
309.036
309.239
309.357
309.508
309.67
309.769
309.789
309.907
309.867
309.827
309.847
309.791
309.627
309.549
309.37
309.347
309.065
308.914
302.886
302.979
303.026
303.112
303.156
303.183
303.244
303.282
303.29
303.297
303.298
303.293
303.293
303.283
303.227
303.191
303.147
303.145
303.019
302.972
344.468
345.261
346.269
347.398
348.208
348.859
349.442
349.934
350.192
350.611
350.568
350.44
350.568
350.311
349.829
349.291
348.655
348.019
347.058
345.797
338.638
339.257
340.147
341.135
341.821
342.382
342.875
343.316
343.617
343.889
343.878
343.752
343.838
343.655
343.196
342.741
342.229
341.626
340.825
339.721
332.76
333.265
333.992
334.836
335.411
335.925
336.298
336.673
336.953
337.22
337.186
337.062
337.111
336.983
336.583
336.179
335.797
335.202
334.567
333.653
326.88
327.231
327.842
328.583
328.964
329.449
329.731
330.031
330.272
330.525
330.459
330.386
330.411
330.303
329.953
329.651
329.308
328.818
328.286
327.564
320.931
321.204
321.701
322.247
322.523
322.937
323.166
323.328
323.556
323.806
323.707
323.667
323.687
323.574
323.29
323.089
322.785
322.446
321.975
321.467
314.965
315.195
315.545
315.917
316.077
316.353
316.598
316.675
316.849
317.047
316.944
316.929
316.982
316.901
316.631
316.506
316.269
316.087
315.671
315.404
308.982
309.17
309.358
309.534
309.663
309.826
310.024
310.043
310.135
310.228
310.151
310.199
310.211
310.171
309.999
309.897
309.782
309.68
309.403
309.255
303.002
303.087
303.137
303.203
303.224
303.306
303.392
303.368
303.404
303.439
303.386
303.433
303.417
303.405
303.364
303.316
303.281
303.245
303.132
303.107
345.914
346.85
347.716
348.917
349.85
350.346
350.989
351.698
351.833
352.114
352.338
352.355
352.28
352.009
351.476
350.803
350.098
349.463
348.416
347.278
339.942
340.698
341.41
342.51
343.259
343.71
344.259
344.831
344.967
345.227
345.45
345.404
345.382
345.084
344.634
344.08
343.458
342.889
342.008
340.996
333.92
334.51
335.107
336.036
336.598
337.041
337.508
337.987
338.053
338.322
338.516
338.485
338.428
338.156
337.799
337.311
336.832
336.303
335.56
334.676
327.829
328.246
328.786
329.521
329.945
330.344
330.695
331.12
331.119
331.41
331.57
331.612
331.451
331.224
330.941
330.563
330.158
329.698
329.112
328.394
321.702
322.012
322.434
322.995
323.255
323.612
323.877
324.216
324.216
324.461
324.567
324.644
324.483
324.288
324.043
323.777
323.513
323.113
322.635
322.098
315.524
315.764
316.049
316.47
316.594
316.929
317.016
317.332
317.316
317.513
317.563
317.661
317.521
317.355
317.195
316.972
316.771
316.508
316.154
315.788
309.337
309.512
309.628
309.911
309.926
310.186
310.212
310.447
310.402
310.507
310.522
310.629
310.522
310.447
310.315
310.208
310.044
309.902
309.694
309.501
303.137
303.189
303.21
303.33
303.319
303.403
303.411
303.512
303.494
303.508
303.52
303.576
303.523
303.51
303.462
303.429
303.346
303.324
303.241
303.17
347.233
348.298
349.214
350.382
350.974
351.918
352.681
353.314
353.52
353.858
353.907
353.913
353.759
353.339
352.749
352.168
351.422
350.558
349.705
348.704
341.033
341.97
342.679
343.697
344.204
345.039
345.676
346.209
346.413
346.69
346.771
346.729
346.594
346.251
345.711
345.209
344.626
343.797
343.099
342.264
334.812
335.609
336.166
336.986
337.46
338.142
338.674
339.142
339.309
339.533
339.607
339.57
339.475
339.174
338.702
338.265
337.758
337.082
336.474
335.836
328.554
329.2
329.61
330.285
330.649
331.232
331.626
332.052
332.171
332.338
332.419
332.393
332.349
332.099
331.727
331.35
330.904
330.348
329.864
329.396
322.247
322.747
323.075
323.593
323.838
324.339
324.63
324.961
325.029
325.139
325.239
325.2
325.188
325.011
324.735
324.404
324.049
323.597
323.252
322.957
315.929
316.258
316.497
316.894
317.005
317.411
317.588
317.864
317.909
317.949
318.075
318.001
318
317.887
317.711
317.467
317.18
316.844
316.624
316.459
309.55
309.75
309.894
310.163
310.22
310.448
310.532
310.713
310.777
310.785
310.847
310.826
310.786
310.75
310.649
310.466
310.337
310.116
310.02
309.916
303.211
303.266
303.317
303.402
303.435
303.522
303.545
303.579
303.609
303.619
303.64
303.622
303.622
303.57
303.57
303.52
303.471
303.375
303.382
303.352
348.283
349.481
350.752
351.329
352.456
353.359
354.117
354.647
354.953
355.226
355.336
355.396
355.175
354.84
354.33
353.594
352.634
352.203
351.108
350.255
341.857
342.94
344.08
344.546
345.495
346.306
346.933
347.354
347.641
347.902
347.971
348.036
347.824
347.582
347.097
346.467
345.655
345.24
344.298
343.595
335.431
336.355
337.344
337.719
338.522
339.186
339.731
340.049
340.291
340.56
340.566
340.635
340.462
340.242
339.827
339.347
338.657
338.323
337.561
336.914
329.051
329.762
330.581
330.906
331.484
332.046
332.533
332.791
332.968
333.236
333.17
333.236
333.094
332.907
332.602
332.264
331.655
331.421
330.783
330.247
322.631
323.12
323.806
324.085
324.488
324.934
325.293
325.51
325.67
325.895
325.827
325.826
325.769
325.555
325.381
325.125
324.604
324.491
323.936
323.537
316.211
316.531
317.027
317.216
317.447
317.833
318.102
318.228
318.382
318.535
318.493
318.462
318.403
318.254
318.185
317.971
317.563
317.5
317.071
316.867
309.772
309.904
310.214
310.358
310.434
310.724
310.854
310.94
311.055
311.127
311.109
311.119
311.032
310.978
310.927
310.796
310.544
310.502
310.24
310.142
303.304
303.324
303.414
303.452
303.495
303.606
303.637
303.676
303.708
303.734
303.717
303.744
303.699
303.705
303.678
303.618
303.54
303.503
303.434
303.414
349.381
350.503
351.902
352.769
353.633
354.684
355.551
355.998
356.475
356.629
356.826
356.834
356.511
356.119
355.643
355.134
354.292
353.491
352.478
351.414
342.836
343.821
345.024
345.778
346.506
347.422
348.218
348.571
348.972
349.072
349.275
349.342
349.006
348.645
348.293
347.834
347.074
346.398
345.529
344.622
336.266
337.115
338.153
338.781
339.407
340.134
340.857
341.147
341.465
341.563
341.748
341.777
341.452
341.148
340.919
340.533
339.88
339.31
338.564
337.773
329.741
330.393
331.191
331.757
332.247
332.84
333.444
333.709
333.96
334.014
334.219
334.187
333.894
333.65
333.536
333.168
332.69
332.181
331.551
330.915
323.123
323.659
324.254
324.705
325.101
325.54
326.032
326.251
326.405
326.469
326.626
326.604
326.354
326.148
326.09
325.806
325.488
325.027
324.516
324.064
316.514
316.929
317.319
317.666
317.947
318.27
318.624
318.742
318.857
318.905
319.082
318.968
318.804
318.672
318.643
318.438
318.224
317.867
317.514
317.221
309.958
310.159
310.404
310.619
310.793
310.95
311.172
311.238
311.364
311.345
311.458
311.397
311.271
311.215
311.191
311.086
310.948
310.714
310.507
310.335
303.345
303.391
303.464
303.534
303.611
303.65
303.732
303.748
303.831
303.81
303.847
303.805
303.804
303.744
303.748
303.711
303.653
303.591
303.538
303.465
350.486
351.949
352.994
354.016
355.155
355.969
356.869
357.39
357.867
358.067
358.3
358.087
357.95
357.558
356.943
356.423
355.788
354.797
353.582
352.692
343.817
345.027
346.008
346.82
347.856
348.524
349.343
349.801
350.231
350.407
350.537
350.37
350.231
349.917
349.376
348.899
348.362
347.495
346.484
345.663
337.147
338.091
338.964
339.62
340.56
341.105
341.766
342.197
342.556
342.737
342.782
342.66
342.491
342.258
341.799
341.397
340.923
340.21
339.356
338.666
330.458
331.154
331.91
332.441
333.207
333.698
334.157
334.581
334.882
335.01
335.029
334.924
334.748
334.579
334.21
333.896
333.498
332.937
332.181
331.646
323.744
324.248
324.866
325.236
325.906
326.242
326.611
326.907
327.164
327.247
327.232
327.178
327.06
326.904
326.65
326.406
326.052
325.611
325.027
324.602
316.978
317.342
317.764
318.058
318.544
318.746
319.001
319.205
319.485
319.482
319.453
319.383
319.342
319.223
319.091
318.879
318.599
318.272
317.915
317.568
310.165
310.447
310.662
310.86
311.167
311.246
311.388
311.54
311.721
311.683
311.667
311.618
311.643
311.543
311.458
311.341
311.161
310.977
310.804
310.539
303.408
303.505
303.569
303.641
303.748
303.756
303.822
303.857
303.932
303.909
303.908
303.9
303.919
303.873
303.828
303.798
303.752
303.703
303.632
303.525
351.777
352.863
354.061
355.248
356.339
357.127
358.169
358.637
359.094
359.393
359.707
359.261
359.218
358.983
358.245
357.658
356.787
355.878
354.667
353.777
344.952
345.842
346.89
347.889
348.84
349.588
350.483
350.852
351.316
351.529
351.8
351.423
351.422
351.112
350.526
349.977
349.254
348.462
347.37
346.628
338.143
338.81
339.698
340.53
341.366
342.019
342.744
343.052
343.441
343.606
343.841
343.54
343.54
343.252
342.738
342.279
341.718
341.007
340.09
339.501
331.259
331.79
332.519
333.176
333.842
334.432
334.996
335.245
335.603
335.708
335.825
335.708
335.623
335.387
335
334.588
334.147
333.552
332.805
332.34
324.377
324.742
325.319
325.829
326.355
326.823
327.214
327.405
327.713
327.816
327.86
327.821
327.675
327.556
327.254
326.899
326.613
326.102
325.492
325.165
317.434
317.663
318.11
318.497
318.838
319.208
319.425
319.589
319.822
319.906
319.934
319.9
319.76
319.749
319.476
319.203
319.036
318.633
318.176
317.971
310.491
310.618
310.894
311.1
311.294
311.552
311.679
311.809
311.94
311.997
312.013
311.991
311.873
311.887
311.721
311.552
311.455
311.159
310.916
310.79
303.524
303.563
303.659
303.715
303.767
303.89
303.915
303.949
304.023
304.031
304.038
304.024
303.957
303.986
303.94
303.864
303.849
303.736
303.651
303.588
352.729
354.007
355.213
356.243
357.455
358.294
359.18
359.774
360.474
360.703
360.711
360.542
360.273
359.826
359.509
358.747
357.984
357.046
355.816
354.814
345.801
346.812
347.863
348.742
349.811
350.552
351.379
351.838
352.477
352.663
352.643
352.516
352.267
351.848
351.585
350.928
350.291
349.465
348.391
347.52
338.848
339.655
340.532
341.256
342.121
342.787
343.523
343.9
344.417
344.601
344.52
344.477
344.243
343.897
343.618
343.087
342.597
341.861
340.882
340.251
331.847
332.514
333.157
333.761
334.493
335.023
335.663
335.915
336.381
336.518
336.419
336.406
336.212
335.937
335.703
335.325
334.873
334.282
333.459
332.961
324.827
325.29
325.799
326.305
326.842
327.252
327.754
327.94
328.275
328.428
328.358
328.327
328.171
327.965
327.804
327.531
327.142
326.662
326.048
325.656
317.793
318.08
318.458
318.815
319.165
319.488
319.824
319.966
320.224
320.345
320.287
320.253
320.129
320.008
319.883
319.679
319.37
319.078
318.611
318.338
310.694
310.86
311.097
311.323
311.503
311.68
311.939
311.977
312.182
312.239
312.178
312.176
312.099
312.049
311.955
311.826
311.672
311.499
311.187
311.036
303.598
303.631
303.716
303.783
303.852
303.924
304.013
304.013
304.074
304.121
304.087
304.063
304.066
304.067
303.995
303.967
303.91
303.837
303.759
303.701
353.564
354.749
355.885
357.31
358.221
359.085
360.055
360.674
361.182
361.586
361.591
361.622
361.295
360.974
360.637
359.752
358.992
357.939
356.889
355.79
346.513
347.489
348.498
349.683
350.476
351.194
352.099
352.623
353.084
353.4
353.42
353.455
353.161
352.891
352.558
351.79
351.186
350.254
349.311
348.414
339.406
340.211
341.111
342.037
342.7
343.327
344.127
344.57
344.969
345.194
345.22
345.264
344.998
344.771
344.443
343.835
343.348
342.539
341.724
341.039
332.29
332.919
333.687
334.38
334.956
335.449
336.153
336.438
336.813
336.981
336.98
337.049
336.804
336.676
336.329
335.891
335.498
334.83
334.171
333.607
325.15
325.645
326.283
326.726
327.2
327.541
328.143
328.348
328.696
328.77
328.791
328.853
328.615
328.583
328.24
327.937
327.641
327.155
326.598
326.171
317.988
318.368
318.86
319.082
319.442
319.638
320.089
320.278
320.563
320.549
320.609
320.641
320.426
320.424
320.168
319.938
319.71
319.409
319.026
318.744
310.793
311.059
311.37
311.455
311.704
311.798
312.082
312.179
312.367
312.355
312.39
312.419
312.25
312.264
312.116
311.952
311.844
311.673
311.454
311.25
303.614
303.725
303.818
303.841
303.901
303.972
304.038
304.094
304.155
304.122
304.138
304.182
304.111
304.129
304.052
303.992
303.985
303.905
303.848
303.778
354.23
355.578
356.748
358.003
359.106
360.239
360.908
361.416
361.991
362.499
362.451
362.556
362.185
361.948
361.408
360.606
359.672
358.669
357.563
356.663
347.087
348.221
349.248
350.296
351.256
352.201
352.782
353.252
353.765
354.181
354.169
354.269
353.926
353.694
353.272
352.531
351.723
350.835
349.918
349.177
339.921
340.808
341.706
342.605
343.366
344.124
344.642
345.119
345.491
345.816
345.879
345.963
345.691
345.451
345.134
344.501
343.754
343.028
342.296
341.643
332.756
333.384
334.173
334.893
335.457
336.073
336.543
336.947
337.207
337.475
337.529
337.67
337.416
337.229
336.938
336.45
335.795
335.215
334.613
334.097
325.547
325.978
326.659
327.165
327.584
327.986
328.44
328.767
328.964
329.132
329.187
329.33
329.165
329.015
328.741
328.357
327.873
327.413
326.934
326.528
318.259
318.595
319.065
319.433
319.715
319.963
320.375
320.558
320.713
320.822
320.853
320.994
320.878
320.772
320.572
320.257
319.954
319.642
319.275
318.951
310.987
311.153
311.486
311.716
311.841
311.972
312.241
312.329
312.436
312.525
312.52
312.582
312.541
312.502
312.402
312.196
312.002
311.83
311.597
311.387
303.679
303.749
303.852
303.923
303.975
304.003
304.104
304.129
304.163
304.194
304.18
304.216
304.206
304.204
304.147
304.102
304.042
303.98
303.889
303.806
354.906
356.146
357.626
358.969
359.935
360.945
361.716
362.326
362.957
363.235
363.332
363.353
363.128
362.903
362.304
361.368
360.399
359.542
358.212
357.349
347.685
348.651
350.015
351.142
351.96
352.838
353.495
354.045
354.59
354.827
354.942
354.925
354.742
354.547
353.994
353.179
352.348
351.626
350.473
349.791
340.437
341.195
342.338
343.298
343.961
344.728
345.276
345.789
346.215
346.39
346.508
346.508
346.327
346.182
345.704
344.982
344.352
343.688
342.723
342.149
333.169
333.785
334.69
335.484
335.954
336.62
337.029
337.508
337.809
337.939
338.06
338.077
337.957
337.787
337.388
336.786
336.31
335.767
335
334.484
325.882
326.359
327.009
327.575
327.944
328.462
328.808
329.225
329.381
329.501
329.567
329.639
329.538
329.387
329.13
328.602
328.228
327.81
327.248
326.819
318.492
318.867
319.293
319.663
319.997
320.338
320.632
320.897
320.992
321.077
321.059
321.182
321.11
321.033
320.844
320.458
320.152
319.879
319.512
319.188
311.126
311.322
311.596
311.798
312.016
312.242
312.397
312.543
312.598
312.653
312.673
312.725
312.645
312.636
312.498
312.318
312.098
311.922
311.713
311.561
303.722
303.793
303.867
303.945
304.046
304.105
304.145
304.214
304.218
304.232
304.25
304.275
304.238
304.238
304.175
304.119
304.069
303.991
303.916
303.886
355.61
356.543
358.391
359.56
360.488
361.659
362.463
363.164
363.683
364.022
364.172
364.081
363.914
363.396
362.811
361.955
360.994
360.063
358.857
357.949
348.3
349.005
350.637
351.651
352.449
353.47
354.182
354.732
355.22
355.553
355.632
355.614
355.418
354.978
354.415
353.73
352.875
352.029
350.971
350.236
340.955
341.46
342.866
343.779
344.443
345.293
345.859
346.323
346.723
347.069
347.125
347.1
346.893
346.534
346.021
345.485
344.757
343.995
343.123
342.517
333.501
333.905
335.052
335.869
336.408
337.092
337.509
337.887
338.204
338.533
338.601
338.566
338.373
338.113
337.668
337.22
336.656
336.001
335.271
334.768
326.056
326.357
327.272
327.924
328.352
328.877
329.161
329.469
329.694
329.998
330.033
330.004
329.881
329.681
329.303
328.945
328.503
328.019
327.417
327.071
318.606
318.819
319.488
319.94
320.287
320.66
320.842
321.056
321.229
321.455
321.504
321.416
321.348
321.224
320.95
320.642
320.362
320.031
319.6
319.371
311.158
311.278
311.719
311.991
312.164
312.414
312.503
312.645
312.79
312.906
312.97
312.855
312.814
312.742
312.594
312.386
312.212
311.995
311.774
311.631
303.736
303.778
303.936
304.009
304.094
304.152
304.196
304.25
304.284
304.317
304.34
304.321
304.299
304.28
304.213
304.13
304.091
304.004
303.961
303.904
356.103
357.179
358.936
360.015
361.01
362.064
362.953
363.569
364.084
364.66
364.794
364.769
364.398
364.076
363.26
362.531
361.672
360.815
359.394
358.232
348.705
349.586
351.112
352.02
352.894
353.811
354.569
355.126
355.501
356.109
356.178
356.17
355.815
355.549
354.855
354.172
353.466
352.722
351.5
350.525
341.257
341.96
343.264
344.044
344.762
345.575
346.114
346.63
347.019
347.582
347.589
347.543
347.195
347.021
346.416
345.847
345.274
344.624
343.611
342.829
333.789
334.337
335.392
336.075
336.65
337.31
337.715
338.156
338.506
338.994
338.939
338.914
338.614
338.489
337.978
337.506
337.044
336.511
335.718
335.037
326.327
326.705
327.513
328.058
328.539
329.031
329.32
329.668
329.968
330.341
330.304
330.295
329.997
329.951
329.51
329.172
328.802
328.368
327.752
327.249
318.845
319.097
319.636
320.071
320.403
320.7
320.919
321.182
321.433
321.664
321.657
321.643
321.448
321.396
321.077
320.825
320.594
320.234
319.767
319.431
311.321
311.481
311.793
312.093
312.229
312.426
312.558
312.69
312.845
313.021
312.997
312.981
312.886
312.815
312.656
312.506
312.367
312.123
311.865
311.647
303.802
303.842
303.947
304.057
304.092
304.166
304.218
304.248
304.314
304.364
304.347
304.349
304.285
304.296
304.253
304.19
304.134
304.071
303.993
303.903
356.34
357.496
359.083
360.244
361.559
362.721
363.388
364.038
364.623
365.037
365.155
365.23
364.788
364.288
363.825
362.951
362.195
361.088
360.004
358.74
348.915
349.851
351.219
352.191
353.377
354.378
354.937
355.507
356.056
356.415
356.512
356.538
356.097
355.733
355.309
354.549
353.939
352.948
351.998
350.953
341.465
342.198
343.371
344.214
345.18
346.056
346.46
346.944
347.509
347.758
347.825
347.847
347.45
347.174
346.807
346.154
345.642
344.792
344.008
343.15
333.943
334.545
335.504
336.21
337.029
337.73
337.983
338.405
338.922
339.097
339.157
339.136
338.786
338.623
338.3
337.758
337.337
336.621
336.031
335.329
326.406
326.884
327.671
328.185
328.832
329.365
329.539
329.903
330.308
330.435
330.462
330.413
330.129
330.004
329.763
329.393
329.016
328.455
328.047
327.488
318.862
319.197
319.794
320.137
320.635
320.993
321.101
321.366
321.714
321.771
321.798
321.734
321.514
321.401
321.251
321.002
320.724
320.304
320.048
319.625
311.32
311.528
311.912
312.094
312.427
312.616
312.672
312.858
313.059
313.02
313.115
313.069
312.926
312.82
312.78
312.624
312.486
312.211
312.034
311.759
303.799
303.854
304.007
304.051
304.168
304.254
304.233
304.31
304.397
304.374
304.409
304.383
304.345
304.294
304.296
304.234
304.184
304.102
304.03
303.927
356.743
357.75
359.019
360.552
361.698
362.82
363.678
364.426
364.954
365.329
365.533
365.529
365.038
364.511
364.157
363.404
362.458
361.353
360.065
358.882
349.255
350.022
351.15
352.49
353.485
354.463
355.211
355.854
356.27
356.61
356.825
356.807
356.402
355.932
355.569
354.996
354.087
353.159
352.055
351.078
341.719
342.299
343.301
344.45
345.304
346.085
346.694
347.265
347.628
347.93
348.161
348.058
347.716
347.328
347.025
346.578
345.759
344.987
344.057
343.287
334.178
334.648
335.476
336.399
337.084
337.683
338.195
338.683
338.98
339.2
339.402
339.318
339.025
338.711
338.477
338.105
337.456
336.787
336.062
335.489
326.589
326.95
327.653
328.319
328.851
329.329
329.718
330.116
330.341
330.493
330.621
330.568
330.325
330.111
329.967
329.6
329.132
328.624
328.048
327.597
318.992
319.26
319.772
320.266
320.64
320.975
321.267
321.539
321.708
321.765
321.866
321.808
321.646
321.557
321.489
321.131
320.833
320.49
320.033
319.721
311.383
311.578
311.86
312.184
312.399
312.64
312.801
312.95
313.063
313.069
313.114
313.061
312.996
312.962
312.933
312.699
312.511
312.349
312.004
311.826
303.81
303.869
303.976
304.105
304.176
304.237
304.274
304.345
304.401
304.381
304.392
304.378
304.359
304.353
304.339
304.263
304.195
304.123
304.039
303.979
)
;

boundaryField
{
    hotSide
    {
        type            fixedGradient;
        gradient        nonuniform List<scalar> 
400
(
385.131
401.5
417.68
433.598
449.182
464.358
479.055
493.201
506.725
519.558
531.636
542.896
553.279
562.731
571.2
578.644
585.022
590.3
594.453
597.458
395.347
412.225
428.912
445.332
461.412
477.077
492.25
506.859
520.83
534.094
546.581
558.229
568.975
578.763
587.541
595.264
601.89
607.385
611.72
614.873
404.658
422.004
439.157
456.041
472.578
488.692
504.304
519.34
533.725
547.385
560.251
572.257
583.339
593.44
602.505
610.487
617.344
623.041
627.546
630.839
413.024
430.794
448.37
465.673
482.625
499.146
515.158
530.582
545.342
559.363
572.574
584.905
596.294
606.679
616.006
624.225
631.294
637.175
641.837
645.258
420.41
438.558
456.509
474.186
491.507
508.391
524.758
540.528
555.623
569.966
583.483
596.106
607.768
618.407
627.968
636.4
643.658
649.705
654.508
658.045
426.79
445.264
463.542
481.543
499.184
516.384
533.06
549.131
564.516
579.139
592.924
605.8
617.7
628.562
638.327
646.944
654.368
660.559
665.486
669.125
432.137
450.886
469.439
487.712
505.623
523.089
540.024
556.348
571.978
586.837
600.847
613.937
626.038
637.086
647.023
655.797
663.36
669.674
674.706
678.43
436.432
455.402
474.175
492.667
510.795
528.473
545.618
562.145
577.972
593.02
607.211
620.472
632.735
643.933
654.008
662.908
670.584
676.996
682.112
685.906
439.656
458.791
477.729
496.385
514.674
532.511
549.812
566.49
582.464
597.654
611.98
625.369
637.752
649.062
659.24
668.233
675.993
682.479
687.658
691.503
441.794
461.037
480.082
498.845
517.239
535.18
552.582
569.359
585.429
600.71
615.124
628.596
641.057
652.44
662.685
671.738
679.552
686.085
691.304
695.182
442.832
462.125
481.219
500.03
518.473
536.461
553.909
570.731
586.844
602.166
616.62
630.129
642.625
654.04
664.315
673.395
681.232
687.786
693.022
696.914
442.758
462.041
481.126
499.927
518.36
536.339
553.777
570.589
586.692
602.005
616.449
629.95
642.436
653.843
664.11
673.183
681.013
687.56
692.79
696.677
441.562
460.776
479.792
498.525
516.89
534.802
552.174
568.921
584.962
600.214
614.6
628.046
640.48
651.838
662.059
671.09
678.883
685.396
690.597
694.459
439.237
458.323
477.211
495.817
514.057
531.844
549.094
565.723
581.648
596.789
611.068
624.412
636.751
648.019
658.158
667.113
674.838
681.291
686.44
690.259
435.777
454.678
473.38
491.801
509.857
527.464
544.537
560.994
576.752
591.731
605.856
619.053
631.254
642.393
652.412
661.259
668.886
675.253
680.328
684.085
431.184
449.842
468.301
486.48
504.297
521.668
538.51
554.742
570.281
585.051
598.975
611.981
624.002
634.973
644.838
653.544
661.045
667.301
672.281
675.958
425.463
443.821
461.982
479.864
497.387
514.469
531.028
546.983
562.255
576.767
590.445
603.218
615.019
625.786
635.462
643.997
651.344
657.466
662.33
665.913
418.626
436.63
454.438
471.97
489.147
505.888
522.113
537.743
552.701
566.91
580.299
592.798
604.342
614.869
624.325
632.659
639.827
645.792
650.523
653.995
410.692
428.291
445.694
462.825
479.605
495.956
511.8
527.059
541.657
555.522
568.581
580.768
592.018
602.273
611.478
619.585
626.55
632.338
636.918
640.268
401.689
418.833
435.784
452.466
468.802
484.717
500.134
514.978
529.176
542.655
555.347
567.186
578.111
588.062
596.99
604.844
611.586
617.178
621.592
624.807
)
;
    }
    coldSide
    {
        type            mixed;
        refValue        uniform 300;
        refGradient     uniform 0;
        valueFraction   uniform 0.991591;
        source          uniform 0;
        value           nonuniform List<scalar> 
400
(
300.022
300.022
300.022
300.024
300.024
300.025
300.026
300.027
300.028
300.028
300.029
300.03
300.03
300.03
300.031
300.031
300.031
300.032
300.032
300.032
300.022
300.023
300.023
300.024
300.025
300.026
300.027
300.027
300.028
300.029
300.029
300.03
300.031
300.031
300.032
300.032
300.032
300.032
300.032