/*--------------------------------*- C++ -*----------------------------------*\
| =========                 |                                                 |
| \\      /  F ield         | OpenFOAM: The Open Source CFD Toolbox           |
|  \\    /   O peration     | Version:  2212                                  |
|   \\  /    A nd           | Website:  www.openfoam.com                      |
|    \\/     M anipulation  |                                                 |
\*---------------------------------------------------------------------------*/
FoamFile
{
    version     2.0;
    format      ascii;
    arch        "LSB;label=32;scalar=64";
    class       volScalarField;
    location    "0";
    object      relativeErrorField;
}
// * * * * * * * * * * * * * * * * * * * * * * * * * * * * * * * * * * * * * //

dimensions      [0 0 0 1 0 0 0];

internalField   nonuniform List<scalar> 
3200
(
0.0218133
0.0220228
0.0225493
0.0228095
0.0238198
0.0243172
0.0252804
0.0258706
0.0264806
0.0265676
0.0265753
0.0267674
0.0261523
0.0258432
0.0252102
0.0245689
0.0240409
0.0234867
0.022986
0.0227932
0.0188272
0.0190909
0.0193349
0.0199515
0.0204866
0.0209173
0.02162
0.0223061
0.0227733
0.0230072
0.0231131
0.0229753
0.022484
0.0221001
0.021599
0.0210678
0.0205246
0.0200438
0.0198218
0.0194651
0.0157288
0.0158704
0.016124
0.0167226
0.017503
0.0179941
0.0181393
0.0188413
0.019162
0.0193827
0.0193831
0.0192918
0.0189567
0.0185634
0.0181731
0.01759
0.0173095
0.0170816
0.0166759
0.0163123
0.0129572
0.0132611
0.0132721
0.0136346
0.0140262
0.0144944
0.0150792
0.015559
0.0155096
0.0158027
0.0157546
0.0157392
0.0155738
0.0152251
0.0146276
0.0145978
0.0140904
0.013904
0.0134969
0.0132586
0.010231
0.0102025
0.0105239
0.0105916
0.010997
0.011205
0.0118985
0.0120426
0.0120546
0.0121422
0.0123101
0.0124854
0.0120813
0.011536
0.0114111
0.011361
0.0109187
0.0104599
0.0105724
0.0104567
0.00715781
0.00710657
0.00740149
0.00764783
0.00791989
0.00822572
0.00839234
0.00868792
0.00881155
0.00898063
0.00908905
0.0086728
0.00858168
0.00839051
0.00843798
0.00807227
0.00764792
0.00778618
0.00748366
0.0075268
0.00458124
0.00459521
0.00432089
0.00468221
0.00480933
0.00508276
0.00494148
0.0051593
0.0051059
0.00538272
0.00534274
0.00535773
0.00539032
0.00515852
0.00496009
0.0048485
0.0048814
0.00480534
0.004663
0.00460332
0.00152302
0.00130928
0.00143193
0.00152382
0.00158127
0.00181778
0.0018837
0.0018792
0.00158618
0.00174367
0.00174706
0.00165677
0.0018529
0.00152128
0.0016252
0.0017312
0.00158045
0.00162924
0.00132877
0.00124305
0.0198915
0.0202301
0.0210042
0.0214449
0.0219101
0.022607
0.0234121
0.0238907
0.0243105
0.0246726
0.0246603
0.0245021
0.0237848
0.02352
0.0230113
0.0225165
0.0218156
0.0215077
0.0212014
0.0206515
0.0174129
0.0174523
0.017907
0.0186075
0.0189305
0.0196167
0.0201493
0.0204041
0.0209339
0.0213646
0.0214052
0.0213084
0.0208438
0.0206183
0.0200871
0.0193955
0.0189671
0.018442
0.0180504
0.0178396
0.0147633
0.0148773
0.015307
0.0154541
0.0159553
0.0163661
0.017114
0.0177257
0.01756
0.0182654
0.0180071
0.017893
0.0177992
0.0171873
0.0166844
0.01657
0.0159036
0.0155606
0.0153932
0.0149437
0.0119094
0.0122605
0.0125003
0.0128848
0.0131657
0.0132975
0.0139223
0.0142332
0.0146316
0.0147091
0.0146133
0.0145858
0.0144264
0.0142983
0.0137136
0.0133168
0.0132078
0.0127081
0.012564
0.0123911
0.00943292
0.00953105
0.0095593
0.0099098
0.0101952
0.0104877
0.0108598
0.0111977
0.0110576
0.0114976
0.0115372
0.0115149
0.0115678
0.0109658
0.0107779
0.0103335
0.0103518
0.00998905
0.00972782
0.00966691
0.00647618
0.00682676
0.00697321
0.00710288
0.00734342
0.00755413
0.00812349
0.00805306
0.00846906
0.00845138
0.00838337
0.00815472
0.00833922
0.00807826
0.00783726
0.00738263
0.00733262
0.00732509
0.00694941
0.00700844
0.00409567
0.00419785
0.0041554
0.0044047
0.00445674
0.00464422
0.00484907
0.00487818
0.00488993
0.00512167
0.00509972
0.00490198
0.00465644
0.00470532
0.00466294
0.00454486
0.00447787
0.00441942
0.00421753
0.00406746
0.00142893
0.00131624
0.00143585
0.00154566
0.00153114
0.00141847
0.0015664
0.0017224
0.00146454
0.00149677
0.00168166
0.00161912
0.00153195
0.00137812
0.00184089
0.00143617
0.00138975
0.00148095
0.0014347
0.00133662
0.0179558
0.018201
0.0184174
0.0187822
0.0195483
0.0201717
0.020943
0.02118
0.021692
0.0218164
0.0218653
0.0216803
0.0214091
0.0211435
0.0204027
0.0199727
0.019563
0.0191458
0.0186249
0.0184422
0.0153134
0.0156336
0.016149
0.0165352
0.0169374
0.0174536
0.0178979
0.0185788
0.018787
0.0190508
0.0190419
0.0191239
0.0185272
0.018191
0.0175591
0.0171841
0.0166786
0.0164072
0.0162463
0.0160934
0.0130341
0.0133168
0.0133418
0.0137892
0.0141944
0.0146894
0.0154135
0.0156192
0.0158032
0.0161363
0.0161535
0.0161666
0.0156075
0.0152646
0.0149998
0.0145194
0.0141767
0.0137747
0.0135401
0.0133013
0.0105606
0.0107478
0.0110712
0.011103
0.0117326
0.0121762
0.0127445
0.0127328
0.0129204
0.0131971
0.0133286
0.0131392
0.0129176
0.0125793
0.0122951
0.0119754
0.0115129
0.0114002
0.0109554
0.0108942
0.00831267
0.00864262
0.00861669
0.00906708
0.00909098
0.00940879
0.0100743
0.00976267
0.0101315
0.0105108
0.0101914
0.0101744
0.00995053
0.00978292
0.00945282
0.00938065
0.0087102
0.0088081
0.00856901
0.00864554
0.00588317
0.00615414
0.00618874
0.0062523
0.00647969
0.00671554
0.00705015
0.00724923
0.00735165
0.00728332
0.00737101
0.00726801
0.00722118
0.00677297
0.00669847
0.00648686
0.00648503
0.00644886
0.00607277
0.00596412
0.0037576
0.00358108
0.0036016
0.00391684
0.00402453
0.00392464
0.00413356
0.00442138
0.00431289
0.00426081
0.00446245
0.0044929
0.0044854
0.00432568
0.00417295
0.00407184
0.00400045
0.00397381
0.00357851
0.0036646
0.00127038
0.00119404
0.0013921
0.00123934
0.00137512
0.00154815
0.00149732
0.00126725
0.0015009
0.00153582
0.00129349
0.00155091
0.00158924
0.00162952
0.00133393
0.00121008
0.00138424
0.00100351
0.00110522
0.00145382
0.015661
0.0159188
0.0160851
0.0166554
0.0172114
0.0174643
0.0181718
0.0186462
0.0188716
0.0191455
0.0191986
0.0187536
0.0187467
0.018107
0.0180017
0.0175257
0.0168891
0.0165639
0.01629
0.0161838
0.0138866
0.0138351
0.0141616
0.0143231
0.0148334
0.0152536
0.0156684
0.0160291
0.0163864
0.0168099
0.0164248
0.0164783
0.0160625
0.0158055
0.0153237
0.0151481
0.0145376
0.014193
0.0138757
0.0138205
0.0115865
0.0114164
0.0117026
0.0120205
0.0124415
0.0127319
0.0133459
0.0135009
0.0138843
0.0138352
0.0138445
0.0139141
0.0135142
0.0131377
0.0131402
0.0127435
0.0122113
0.0120398
0.0116946
0.011621
0.0096311
0.00939783
0.00984066
0.00996689
0.0102223
0.0105555
0.0108969
0.0111781
0.0113098
0.0115577
0.011521
0.0112842
0.0111979
0.0107528
0.010835
0.0104558
0.0099255
0.00982124
0.00942985
0.00950455
0.00739816
0.00749263
0.00744338
0.0074652
0.00789967
0.00807625
0.00862761
0.00878423
0.00898371
0.00894532
0.00882459
0.00877681
0.00853293
0.00844432
0.00815866
0.00796205
0.00776466
0.00728429
0.00727802
0.0075188
0.00539947
0.00525202
0.00529868
0.00565893
0.00565073
0.00605526
0.00612124
0.00614291
0.00645255
0.00650249
0.00648707
0.00634426
0.00620022
0.00590614
0.0057811
0.00574525
0.00579769
0.00536293
0.0052033
0.00536684
0.00298101
0.00329209
0.00315096
0.00340449
0.00345734
0.00361474
0.00375321
0.00372319
0.00387
0.00386153
0.00364061
0.0039085
0.00376116
0.00392767
0.00343373
0.00359246
0.00314461
0.00338481
0.00316095
0.00321975
0.0012313
0.00106602
0.00104294
0.00125818
0.00114434
0.00121867
0.00117513
0.0011768
0.00115669
0.00132543
0.00136474
0.00121633
0.00143859
0.00128573
0.0013051
0.00113694
0.00132351
0.00136743
0.000949161
0.000898082
0.0139107
0.0139366
0.0142494
0.0142916
0.0146678
0.0152045
0.0157774
0.0159077
0.0164777
0.0164621
0.0164768
0.0162759
0.0156625
0.0156035
0.0152383
0.0147711
0.0142437
0.0142167
0.0139996
0.0138607
0.0118946
0.0118881
0.0122059
0.0123544
0.0126784
0.0130191
0.0135194
0.0136007
0.0141035
0.0142757
0.0143532
0.0139698
0.0137289
0.0133357
0.0130288
0.0126837
0.0123521
0.0120492
0.0119203
0.0118988
0.010263
0.00999966
0.0103375
0.01047
0.0106511
0.0110866
0.011432
0.0116504
0.0118923
0.0117843
0.0123207
0.011931
0.0117251
0.0112945
0.0111425
0.0107445
0.0105475
0.0101413
0.00979206
0.00998239
0.0082849
0.00852519
0.00849428
0.00839455
0.00857898
0.00908123
0.00938233
0.00956981
0.00965362
0.00974412
0.00982287
0.00961365
0.00943769
0.00932707
0.00915925
0.00868867
0.00861651
0.00823776
0.00826838
0.00814182
0.00640361
0.00652134
0.00663405
0.00669064
0.00685833
0.0070371
0.00750531
0.00758314
0.00745525
0.00778366
0.00764908
0.00776314
0.00719713
0.00721279
0.00701597
0.00668169
0.00659343
0.00636296
0.00637463
0.00625962
0.00469689
0.00488566
0.004859
0.00488379
0.00498486
0.00485927
0.0053465
0.00504722
0.00519779
0.00540495
0.00553318
0.00554412
0.00542943
0.00496151
0.00502084
0.00501005
0.00495487
0.00458252
0.00441155
0.00445183
0.00278663
0.00284999
0.00284578
0.00307105
0.0026487
0.00283944
0.0031803
0.00334568
0.0032256
0.00336689
0.00333278
0.00320515
0.00322725
0.00327031
0.00306842
0.00298238
0.00276043
0.0028253
0.00266014
0.00269308
0.000848871
0.000878101
0.000860066
0.000813886
0.000945509
0.000916373
0.00116009
0.0010749
0.000810067
0.000992763
0.00130413
0.00102799
0.000983784
0.00097972
0.000943878
0.000842442
0.00116243
0.000777253
0.000819217
0.000881255
0.0122632
0.0121935
0.0120445
0.0123401
0.0124176
0.0127871
0.0131398
0.0134183
0.0137358
0.0138178
0.0140592
0.013627
0.0135188
0.012913
0.0128016
0.0123835
0.0120775
0.0119245
0.0117756
0.0117822
0.0104076
0.0106759
0.0104243
0.0105278
0.0107484
0.0111093
0.0114272
0.0117408
0.0117663
0.0119843
0.0119229
0.0121098
0.0114544
0.0113917
0.0111917
0.0107867
0.0103936
0.0102525
0.0099132
0.0100121
0.00897332
0.00870776
0.00877964
0.00894516
0.00914765
0.00961028
0.00962243
0.0100876
0.0100014
0.0101016
0.0101037
0.00976888
0.00966706
0.00946718
0.00943926
0.0088334
0.00890044
0.00846601
0.00838971
0.00864115
0.0069609
0.00723602
0.00713863
0.00717091
0.00757913
0.00775558
0.00783561
0.00802579
0.00824859
0.00847267
0.00818898
0.00801051
0.00797856
0.00790798
0.00768741
0.00723657
0.00719073
0.00688587
0.00691287
0.00680769
0.00549101
0.00555893
0.00571561
0.00566985
0.00562642
0.0059564
0.00589442
0.00629731
0.00644913
0.00634695
0.00656125
0.00638334
0.00604224
0.00602831
0.00569605
0.00566122
0.00564692
0.00553904
0.00515006
0.00537722
0.00391428
0.00386697
0.00400384
0.00415348
0.00408763
0.00428353
0.00428376
0.00441008
0.00445342
0.00461364
0.00458749
0.00450146
0.00427056
0.00460095
0.00406059
0.0039396
0.00388517
0.00366642
0.00389385
0.00370795
0.00240724
0.00243386
0.00247069
0.00246045
0.00237347
0.00255209
0.00231569
0.00243961
0.00271117
0.00256457
0.00283101
0.00283544
0.00273926
0.00268054
0.00243691
0.00253504
0.00209795
0.00224793
0.00218066
0.00237304
0.000884231
0.000693464
0.00087298
0.000720108
0.000766039
0.000917501
0.00105083
0.00110676
0.000999067
0.000989702
0.000866237
0.00093891
0.000863711
0.000967681
0.000746303
0.00095462
0.000779507
0.000671735
0.000852547
0.000881914
0.0106195
0.0108036
0.0104104
0.010366
0.0106899
0.0108857
0.0112103
0.0113134
0.0114905
0.0119341
0.011429
0.0112368
0.0109811
0.0107445
0.0106158
0.0103735
0.0100751
0.0100245
0.0101368
0.0102939
0.00944938
0.00913551
0.00886303
0.00923464
0.00917911
0.00924437
0.00963706
0.00998033
0.0100712
0.00967296
0.00986734
0.00983474
0.00964585
0.00932364
0.00902641
0.00896121
0.00847922
0.00844599
0.00837352
0.00877517
0.00777392
0.00777688
0.0077274
0.00770828
0.00768756
0.00779211
0.00801045
0.0082145
0.00830048
0.00835399
0.00842481
0.00822294
0.00798101
0.00789426
0.00767936
0.00727458
0.00731717
0.00725164
0.00702518
0.00719098
0.00627485
0.00621349
0.00626044
0.00622688
0.00631097
0.00641272
0.00666208
0.00671431
0.00671902
0.00685638
0.00667491
0.00673291
0.00648188
0.0063181
0.00612803
0.00575703
0.00605301
0.00565913
0.00576495
0.00583574
0.00489244
0.0047722
0.00481331
0.00485667
0.00492388
0.00507205
0.00503841
0.00525821
0.00532143
0.00518874
0.00500905
0.00533845
0.00487118
0.00491609
0.00488515
0.00441586
0.00442411
0.00439812
0.00433607
0.00453031
0.00332869
0.00328995
0.0032856
0.00348167
0.00344099
0.0036466
0.00386948
0.00370149
0.00364316
0.00373478
0.00390281
0.00356208
0.00355769
0.00333435
0.00329558
0.00308505
0.0033252
0.00317283
0.00302096
0.00323002
0.00210022
0.0021284
0.0021531
0.00235894
0.00194764
0.00198688
0.00218833
0.00222036
0.00216441
0.00212506
0.00216021
0.00216744
0.00215906
0.00192516
0.00199071
0.00193262
0.00194824
0.00194315
0.0018623
0.00182157
0.000903125
0.000728119
0.000497584
0.000925189
0.000781263
0.000613448
0.000786974
0.00102101
0.000904118
0.000654857
0.000704864
0.000605638
0.000648116
0.000696338
0.000547835
0.000797802
0.000628878
0.000838391
0.000700432
0.000700111
0.00955996
0.00932155
0.00917692
0.00899715
0.00905067
0.00928872
0.00944234
0.00953643
0.00943511
0.00958311
0.00956925
0.00947558
0.00915338
0.00905191
0.00882215
0.00855582
0.00829706
0.00840517
0.00862075
0.00853389
0.00806522
0.00800405
0.00783439
0.00776247
0.00776141
0.00779047
0.00805985
0.00818327
0.00842797
0.00819979
0.00787779
0.00801267
0.00782943
0.00775245
0.00734126
0.00729697
0.00718968
0.00716921
0.00717756
0.00744854
0.00694073
0.00648386
0.00657649
0.00631719
0.00646939
0.00661861
0.00668294
0.00698347
0.00703515
0.00696449
0.00674981
0.00651816
0.00654843
0.00641406
0.00624805
0.0060384
0.00614548
0.00582799
0.00596139
0.00615146
0.00558715
0.0054805
0.00530223
0.00505664
0.00517483
0.00560674
0.00539008
0.00551661
0.00558079
0.00544855
0.00563846
0.00543695
0.00522289
0.00526314
0.004955
0.0049339
0.00488422
0.00470346
0.00462184
0.00478785
0.00444277
0.00410463
0.00421139
0.0042523
0.00420065
0.00429364
0.00442347
0.00430195
0.0043386
0.0041879
0.00439284
0.00402277
0.00420564
0.00399475
0.00400791
0.0036164
0.00369185
0.00360536
0.00361881
0.00392999
0.00305584
0.00304459
0.00300241
0.00289517
0.00295512
0.00309281
0.00323217
0.00319123
0.00300708
0.00318748
0.00323169
0.00300769
0.00305315
0.00292208
0.00272297
0.00266992
0.00260675
0.00245089
0.00273425
0.00250592
0.00179702
0.00196966
0.00165556
0.00169531
0.00162691
0.00194188
0.00175915
0.0019522
0.00179986
0.00178392
0.00210149
0.00193233
0.00155447
0.00180858
0.00142802
0.00153932
0.00160665
0.00167506
0.00162508
0.00148701
0.000822721
0.000857944
0.000614989
0.000582362
0.000648162
0.000728341
0.000823292
0.00076569
0.000557499
0.000739321
0.000651359
0.000464472
0.000811634
0.000679871
0.000424283
0.000557158
0.000365881
0.000311907
0.000595124
0.000785114
0.00868322
0.00844828
0.00807306
0.00785534
0.00794831
0.00761701
0.00790377
0.00785995
0.00794564
0.00803155
0.0078366
0.00797094
0.00777349
0.00744153
0.0072655
0.00697355
0.00682073
0.00703447
0.00727121
0.00745572
0.00732832
0.00702269
0.00675649
0.00669168
0.00655253
0.00674619
0.00676268
0.00682496
0.00697371
0.00666122
0.00661088
0.00658106
0.00644033
0.00618554
0.00608767
0.00593104
0.00582785
0.00594853
0.00602922
0.00616244
0.00625194
0.00598063
0.00546825
0.00590019
0.00556519
0.00546017
0.00569265
0.00566078
0.00565028
0.00547409
0.00528517
0.00531694
0.00522701
0.00503447
0.00480735
0.00483879
0.00477805
0.00492378
0.00512959
0.0050758
0.00515639
0.00488129
0.00459063
0.00439239
0.00423594
0.00441364
0.0046328
0.00453974
0.00448196
0.00456154
0.00431337
0.00444994
0.00405557
0.00416772
0.00390977
0.00389147
0.00383178
0.00414407
0.00399758
0.00399858
0.00399665
0.0036415
0.00368425
0.00372754
0.00356637
0.00348291
0.00339625
0.00331489
0.00348943
0.00369639
0.00346291
0.00326553
0.00326916
0.00316991
0.00323824
0.00300897
0.00310918
0.0027725
0.00291927
0.00297126
0.00294045
0.00271417
0.00263031
0.00253744
0.00266139
0.00234353
0.0022326
0.00252769
0.00262282
0.00253788
0.00252939
0.002495
0.00215289
0.00220189
0.00236477
0.00208386
0.00218777
0.00208743
0.00213139
0.00224582
0.00135952
0.00165212
0.00159931
0.00134019
0.00157536
0.00158469
0.0016558
0.00155316
0.00141649
0.00164362
0.00161214
0.00137921
0.0014173
0.00142226
0.00126201
0.00129136
0.00133537
0.00128342
0.00111012
0.00141548
0.000634833
0.000474232
0.000585097
0.00058775
0.000530041
0.000528357
0.000453605
0.000420883
0.00054902
0.000424668
0.000507792
0.000362322
0.000626139
0.000505968
0.000380432
0.000320057
0.000588188
0.00026818
0.000582737
0.000327253
0.00839624
0.0077701
0.00733616
0.00710011
0.00675655
0.00677498
0.00662839
0.00665648
0.00652319
0.00650908
0.00641796
0.00617814
0.00639286
0.00597324
0.00609526
0.00592127
0.00590859
0.00612852
0.00632095
0.00685783
0.00687896
0.00656813
0.00640572
0.0059882
0.00577558
0.00563836
0.00553869
0.00579475
0.0054867
0.00530163
0.00552959
0.00554991
0.00502877
0.00510602
0.00490843
0.00481343
0.00468717
0.00502751
0.00532938
0.0054093
0.00586571
0.0055331
0.00502406
0.00508238
0.00484754
0.00468852
0.00473663
0.00467018
0.00468322
0.00467611
0.00460197
0.00463071
0.00440947
0.0041666
0.00404413
0.00372932
0.00401094
0.00422081
0.00419406
0.00451508
0.0045143
0.00448359
0.004167
0.00390395
0.00395029
0.00363294
0.00380381
0.00395015
0.00359453
0.00343053
0.00353836
0.00351696
0.00348669
0.00310297
0.00311213
0.00334257
0.00300924
0.00305033
0.00362257
0.00372025
0.0039882
0.00340344
0.00298122
0.00326258
0.00316713
0.00274491
0.00308175
0.00297556
0.00281464
0.00276902
0.00259323
0.00285054
0.00245366
0.00262545
0.00244814
0.00244753
0.00226779
0.00236666
0.0025509
0.00279146
0.00246689
0.00232984
0.00206673
0.00193451
0.0021668
0.0020635
0.00192124
0.00217774
0.00222553
0.00202965
0.00190089
0.00163182
0.00180701
0.00161313
0.00170908
0.00159993
0.00176099
0.00188218
0.00171951
0.00200198
0.00149649
0.00148193
0.00127269
0.00141101
0.00116895
0.00129649
0.00121061
0.00122558
0.00113336
0.00130554
0.00122324
0.00111369
0.00124217
0.000905932
0.00123237
0.000932932
0.00116785
0.00110915
0.0013406
0.00104834
0.000524753
0.000435382
0.000460344
0.000495151
0.000418719
0.000513468
0.000561902
0.00061802
0.000553788
0.000369152
0.000426272
0.000346202
0.000497595
0.000358455
0.000260249
0.000357296
0.000362174
0.000608746
0.00063001
0.000588276
0.00818515
0.0074552
0.00707944
0.00650799
0.00615749
0.00592669
0.0059034
0.00566781
0.00557684
0.00538778
0.00550845
0.00528071
0.00504652
0.00499392
0.0051971
0.00496205
0.00506168
0.00562728
0.00585966
0.00648652
0.00674854
0.00620371
0.00578742
0.00567042
0.00485682
0.00508445
0.00493748
0.00458452
0.00476918
0.00442226
0.00462006
0.00440524
0.0043782
0.00405213
0.00416399
0.00435394
0.00417795
0.00425676
0.00519258
0.00541928
0.00586788
0.00513313
0.00486332
0.00433681
0.00420653
0.00412117
0.00409238
0.00374633
0.00394219
0.00365048
0.0036604
0.00359971
0.00372348
0.00322268
0.00340809
0.00358465
0.00327678
0.00373434
0.00397361
0.00436985
0.00441551
0.0041769
0.00397526
0.00368409
0.00337134
0.00319145
0.00326945
0.00321357
0.0029318
0.00313665
0.00300847
0.00282042
0.00295476
0.00258899
0.00272741
0.00259118
0.00266324
0.00294471
0.00324227
0.00309011
0.00367715
0.00332734
0.00306716
0.00262451
0.00251602
0.00254178
0.00248184
0.00202656
0.00237775
0.00231725
0.00221814
0.00222271
0.00215463
0.00207713
0.00203025
0.0018758
0.00197715
0.0021474
0.00236713
0.00242401
0.00244277
0.00228249
0.00214152
0.00179259
0.00190623
0.00164965
0.00162274
0.00180816
0.00173911
0.00160823
0.00152002
0.00160459
0.00173864
0.001268
0.00136881
0.00149453
0.00153119
0.00148442
0.00181756
0.00163237
0.00150395
0.00155506
0.00118292
0.00106868
0.00100697
0.000976067
0.000969299
0.000950607
0.000916383
0.00086194
0.000984301
0.000881246
0.000782878
0.000917277
0.000705402
0.000852415
0.000917192
0.00100757
0.000885345
0.00112109
0.000528223
0.000292993
0.000542229
0.00025919
0.000635303
0.000318803
0.000256507
0.000239759
0.00042157
0.000156629
0.000388081
0.000240679
0.000485001
0.000228534
0.000258763
0.000301336
0.000183856
0.000207007
0.000517757
6.12793e-05
0.00831612
0.0077441
0.00719836
0.00631104
0.00602773
0.00573207
0.00532366
0.00514113
0.00533476
0.00498749
0.00489827
0.00465782
0.00460752
0.00441846
0.00441516
0.00474602
0.00491574
0.0050603
0.00563746
0.00635515
0.00721457
0.00649699
0.00587206
0.00529956
0.00501814
0.00472616
0.00455644
0.00426158
0.00430633
0.004049
0.00398144
0.00385712
0.00373427
0.00369753
0.00345233
0.00382083
0.00392765
0.00411228
0.00474581
0.00522493
0.00584613
0.00545285
0.00475875
0.00433944
0.00415312
0.00398034
0.00366789
0.00351267
0.00356181
0.00339241
0.00297189
0.00306771
0.00305745
0.00301534
0.00280257
0.00325497
0.00329342
0.00332068
0.00401072
0.00430029
0.00463233
0.00444117
0.00368092
0.00370426
0.00322006
0.0030554
0.0027538
0.00283899
0.0027234
0.00272752
0.00252002
0.00242467
0.00230814
0.0020862
0.00219119
0.00238502
0.00245319
0.00259027
0.0031357
0.00335882
0.00338267
0.00347226
0.00301551
0.00285896
0.00246365
0.00235146
0.00225252
0.00218808
0.00199767
0.00188723
0.00192327
0.00194372
0.00193579
0.00179255
0.00183857
0.00166389
0.00175463
0.00206608
0.0023027
0.00262088
0.00256663
0.00218293
0.00215885
0.00187684
0.00196744
0.00147788
0.00148109
0.00127449
0.00134366
0.00135381
0.00132128
0.001096
0.00129953
0.00117445
0.00124396
0.00133025
0.00126326
0.00149563
0.00161038
0.00179297
0.00139836
0.00151504
0.00144829
0.00127197
0.00121804
0.000769448
0.00094552
0.000836288
0.000798458
0.000898807
0.000840675
0.000791568
0.000619941
0.000748259
0.00056823
0.000442836
0.000807754
0.000700807
0.000699624
0.00108315
0.000599592
0.00038482
0.000614601
0.00027657
0.000427106
0.000171404
0.000219711
0.000475637
0.000324225
0.000442137
0.00016666
0.000354264
0.00014875
5.4438e-05
0.000193037
0.000334973
0.000293463
0.000230505
0.00022708
0.00035914
0.00884962
0.00820079
0.00741192
0.00671845
0.00620951
0.00570907
0.00542741
0.00499874
0.00501994
0.00474886
0.00458801
0.00446897
0.00441444
0.00434102
0.00442853
0.0045795
0.00496904
0.00538111
0.00587799
0.00662817
0.00772926
0.00696776
0.00624496
0.00553003
0.00516356
0.00467075
0.00457283
0.00420321
0.00407285
0.00382673
0.00372125
0.00346036
0.00366161
0.00332516
0.00356749
0.00381677
0.00391906
0.00427308
0.00485415
0.00545868
0.0062267
0.0059642
0.00512574
0.00458394
0.00414482
0.00407433
0.00342553
0.00358502
0.00326543
0.00316763
0.00318997
0.00287738
0.00283585
0.00277491
0.00292214
0.00304144
0.00319342
0.00353883
0.00390473
0.00445657
0.00507427
0.00476264
0.0038784
0.00351089
0.0033374
0.00322304
0.00281866
0.00264172
0.00266369
0.00239075
0.00220877
0.00221573
0.00215746
0.00231251
0.00214903
0.00233356
0.00248319
0.00277695
0.00294623
0.00334563
0.00377
0.00369097
0.00315283
0.00300052
0.00246983
0.00248464
0.00212824
0.00213653
0.00187976
0.00169301
0.00155423
0.00147953
0.00164224
0.00164634
0.00167608
0.00141239
0.00191948
0.00213691
0.00249887
0.00260665
0.00270291
0.00254894
0.0021829
0.00181965
0.00181672
0.00158886
0.00165922
0.00137715
0.00131911
0.00111685
0.00106891
0.00119321
0.000878431
0.000987869
0.000886845
0.0011844
0.00138855
0.00148444
0.00167401
0.00178582
0.0016171
0.00173518
0.00114139
0.00124917
0.00117162
0.00114544
0.000845314
0.000923506
0.000712855
0.000898694
0.00116332
0.000800256
0.000629174
0.000654444
0.000551007
0.000756829
0.000648058
0.000901332
0.00109449
0.00115041
0.000286191
0.000445108
0.000407603
0.000235091
0.000273892
0.000189244
0.000139375
0.000304504
0.000314729
0.000302193
3.01308e-05
0.000251283
0.000383209
0.00027605
0.000217081
8.88196e-05
9.14718e-05
0.000185883
0.000279921
6.84682e-05
0.00995751
0.0090984
0.00829131
0.0073396
0.0066235
0.00609255
0.00567748
0.0050808
0.00508262
0.00490404
0.00490366
0.00462237
0.00472183
0.00451856
0.00499879
0.00494954
0.00564678
0.00593911
0.00679222
0.00740664
0.00859319
0.00777696
0.00690124
0.00637206
0.00570696
0.00513664
0.00465092
0.00440501
0.00421245
0.00409781
0.00382397
0.00388788
0.00370217
0.00364297
0.00380222
0.00403016
0.00429285
0.00507909
0.00564534
0.00595127
0.00692694
0.00657843
0.00553227
0.00518107
0.00466106
0.00417022
0.00385362
0.00361107
0.00323655
0.00349065
0.00324774
0.00296567
0.00283534
0.00274799
0.00303636
0.00322522
0.00333653
0.00382994
0.00436722
0.00488789
0.0054682
0.0052177
0.00447911
0.0040688
0.00377727
0.00331062
0.00294881
0.00269942
0.00249098
0.00264248
0.00226817
0.00206597
0.00216281
0.00225741
0.00245684
0.00258308
0.00289089
0.0030327
0.00335753
0.00380676
0.00423013
0.00384753
0.00359918
0.00324273
0.00293267
0.00242193
0.00222645
0.00193288
0.00223229
0.00192867
0.00179681
0.0018692
0.00182688
0.00161693
0.00175471
0.00202725
0.00188752
0.0023212
0.00272483
0.00287026
0.00317218
0.00267961
0.00233801
0.00203379
0.00209443
0.00170292
0.00170191
0.00162806
0.00146651
0.00149984
0.00134112
0.0010668
0.00105834
0.00124565
0.00112395
0.00124697
0.00125694
0.00179753
0.00184685
0.0020558
0.00199488
0.00170427
0.00138502
0.00135506
0.00104794
0.00116097
0.000955679
0.000873521
0.00095988
0.000833612
0.000768511
0.000744084
0.00059983
0.00068
0.000734605
0.000839257
0.000699424
0.000901959
0.00101929
0.00107305
0.00053596
0.000528093
0.000620278
0.000432455
0.000240506
0.00042866
0.000470761
0.000301765
0.000254023
9.53826e-05
7.06329e-05
0.00031981
0.000289611
0.000206996
0.000332562
0.000193822
0.000345064
0.000247218
0.000303884
0.000476827
0.011434
0.0104697
0.0093666
0.00856413
0.00768127
0.00723391
0.00654812
0.00604574
0.00572952
0.00563014
0.00554637
0.00533921
0.0051913
0.00550177
0.00554359
0.00569266
0.00633634
0.00672777
0.00794232
0.00850916
0.00944158
0.00897792
0.0079773
0.0071302
0.00632088
0.00561828
0.00539694
0.0048777
0.00463002
0.00451252
0.00451377
0.00405306
0.00415057
0.00430722
0.00447139
0.00478763
0.0052568
0.00559812
0.00634793
0.00702075
0.00794283
0.00728519
0.00647225
0.0059067
0.00506683
0.00487033
0.00449138
0.00422361
0.00383384
0.0037725
0.00363379
0.0034001
0.00361355
0.0034789
0.00371418
0.00371813
0.00414092
0.00463063
0.00513414
0.00569483
0.00638008
0.00585809
0.0050887
0.00473563
0.00431692
0.00398327
0.00346344
0.0032163
0.00289698
0.00299492
0.00269114
0.00260685
0.00247175
0.00261832
0.00269595
0.00307439
0.00326299
0.00370717
0.00400051
0.00433789
0.00507224
0.00432499
0.00415456
0.00370925
0.00331982
0.00283527
0.00273249
0.00244994
0.00243813
0.00193044
0.00202158
0.00187917
0.00218192
0.00188763
0.00201117
0.00220595
0.00252225
0.00275286
0.00296317
0.00350925
0.00343294
0.00311222
0.00260603
0.00253809
0.00209845
0.00226456
0.00197327
0.00194551
0.00173955
0.00141129
0.00148995
0.00136293
0.00124252
0.00160464
0.00138712
0.00141513
0.00158924
0.00184075
0.00206049
0.00262556
0.00209968
0.00195574
0.0018769
0.00158046
0.00132336
0.00123211
0.0011282
0.00106243
0.000924424
0.0009033
0.000771065
0.000837321
0.000848728
0.000804843
0.000918533
0.000939558
0.000930625
0.00106854
0.00118608
0.00144983
0.00058969
0.000638757
0.000476309
0.000657049
0.000400298
0.000484814
0.000438968
0.000331818
0.00013521
0.000408735
0.000264342
0.000289522
0.000141949
0.000124036
0.000217115
0.000316141
0.000389929
0.000358913
0.000220859
0.000692042
0.0130654
0.0120405
0.0109366
0.0100532
0.00912418
0.0084443
0.00765099
0.00736807
0.00700328
0.00638326
0.00658108
0.00604864
0.00626822
0.00632587
0.00637662
0.00692062
0.00764481
0.0082968
0.0091884
0.0100835
0.0111293
0.0101517
0.00939738
0.00843616
0.00751398
0.00672642
0.00671816
0.00598836
0.0057846
0.00545033
0.0051658
0.00539557
0.00493622
0.00518209
0.00575782
0.0057599
0.00604458
0.00684655
0.00758735
0.00819586
0.00926578
0.00844537
0.00780851
0.00694058
0.00631704
0.00584713
0.00519349
0.00486851
0.00463337
0.0043727
0.0041928
0.00437236
0.00411303
0.00434953
0.00432498
0.00491166
0.00495682
0.00560326
0.00618008
0.00679603
0.00740307
0.00712394
0.00591536
0.00570314
0.00510426
0.00451086
0.00432261
0.00377148
0.00368702
0.00348173
0.00336435
0.00332787
0.00340822
0.00330803
0.00354352
0.00364785
0.00386905
0.00443225
0.00496746
0.00554777
0.00571486
0.00535196
0.00455046
0.00433271
0.00381923
0.00353932
0.00321144
0.00305574
0.0029949
0.00270879
0.00247102
0.00253055
0.00231773
0.00253911
0.00250883
0.00290519
0.00301896
0.00329689
0.00383704
0.00411904
0.00425672
0.00374787
0.00344589
0.00305596
0.00284227
0.00270113
0.00239238
0.00203837
0.00193226
0.00184753
0.00179063
0.00173238
0.00172357
0.00168525
0.00186975
0.00207958
0.00230243
0.00227932
0.00279104
0.00298331
0.00222508
0.00217417
0.00198285
0.00169527
0.00154956
0.00139209
0.00129862
0.00131265
0.000989513
0.000949415
0.000843397
0.00109412
0.000851299
0.000927181
0.00120802
0.00131455
0.00112538
0.0014769
0.00175416
0.00179193
0.00079007
0.000560473
0.000865062
0.000589304
0.000690299
0.000310074
0.000175392
0.000406424
0.000569978
0.0003896
0.000230267
0.000302756
0.000342781
0.000316019
0.000328439
0.000427665
0.000218597
0.000547873
0.000499719
0.000719286
0.0152752
0.014174
0.0129667
0.0117887
0.0111188
0.010115
0.00945622
0.00900272
0.00849083
0.00818573
0.00784365
0.00763969
0.00798318
0.00789002
0.00824397
0.00859201
0.00928719
0.0100753
0.0108371
0.0117357
0.0130181
0.011888
0.0109073
0.00982883
0.00899087
0.00845002
0.0078071
0.00737126
0.00710285
0.00675922
0.00656839
0.00641504
0.0063893
0.00662628
0.00669994
0.0070571
0.00762819
0.00833571
0.00940999
0.00995221
0.0108906
0.00984063
0.00921368
0.00849219
0.00781993
0.00694795
0.00652264
0.00598953
0.00574547
0.00543863
0.00506151
0.00534648
0.00544202
0.00517897
0.00568465
0.00595305
0.00623782
0.00681883
0.00748757
0.00817872
0.00890385
0.00809306
0.00736483
0.00684221
0.00610133
0.00573587
0.00533792
0.00479859
0.0044726
0.00444656
0.00418455
0.0043414
0.00410808
0.0043742
0.00425858
0.00472933
0.00503039
0.00549813
0.00592691
0.00645429
0.00655844
0.00606506
0.00582995
0.00523905
0.00475274
0.00428403
0.00407694
0.00371976
0.00359833
0.00319799
0.003014
0.00331115
0.00305798
0.00343691
0.00326914
0.00352582
0.00397501
0.00409068
0.00451501
0.00502073
0.0047799
0.00445094
0.00408577
0.00373551
0.00322833
0.00306683
0.00262042
0.0024679
0.00247399
0.00241673
0.00219693
0.00215284
0.00234583
0.00220932
0.00238596
0.00263466
0.00288793
0.00276192
0.00296436
0.00341086
0.00295315
0.00260394
0.00239366
0.00226638
0.00174077
0.00195555
0.00167879