/*--------------------------------*- C++ -*----------------------------------*\
| =========                 |                                                 |
| \\      /  F ield         | OpenFOAM: The Open Source CFD Toolbox           |
|  \\    /   O peration     | Version:  2212                                  |
|   \\  /    A nd           | Website:  www.openfoam.com                      |
|    \\/     M anipulation  |                                                 |
\*---------------------------------------------------------------------------*/
FoamFile
{
    version     2.0;
    format      ascii;
    arch        "LSB;label=32;scalar=64";
    class       volScalarField;
    location    "./ITHACAoutput/true/19.5";
    object      trueState;
}
// * * * * * * * * * * * * * * * * * * * * * * * * * * * * * * * * * * * * * //

dimensions      [0 0 0 1 0 0 0];

internalField   nonuniform List<scalar> 
3200
(
320.917
321.095
321.322
321.57
321.825
322.075
322.306
322.501
322.643
322.718
322.718
322.643
322.501
322.306
322.075
321.825
321.57
321.322
321.095
320.917
318.027
318.178
318.374
318.588
318.809
319.025
319.225
319.394
319.517
319.581
319.581
319.517
319.394
319.225
319.025
318.809
318.588
318.374
318.178
318.027
315.182
315.307
315.472
315.653
315.84
316.023
316.192
316.334
316.437
316.492
316.492
316.437
316.334
316.192
316.023
315.84
315.653
315.472
315.307
315.182
312.374
312.475
312.61
312.758
312.91
313.06
313.197
313.314
313.398
313.443
313.443
313.398
313.314
313.197
313.06
312.91
312.758
312.61
312.475
312.374
309.597
309.674
309.778
309.893
310.012
310.128
310.235
310.325
310.391
310.425
310.425
310.391
310.325
310.235
310.128
310.012
309.893
309.778
309.674
309.597
306.842
306.896
306.971
307.053
307.137
307.22
307.297
307.361
307.408
307.433
307.433
307.408
307.361
307.297
307.22
307.137
307.053
306.971
306.896
306.842
304.103
304.136
304.18
304.23
304.28
304.33
304.376
304.415
304.443
304.458
304.458
304.443
304.415
304.376
304.33
304.28
304.23
304.18
304.136
304.103
301.374
301.385
301.4
301.417
301.434
301.45
301.466
301.479
301.488
301.493
301.493
301.488
301.479
301.466
301.45
301.434
301.417
301.4
301.385
301.374
320.998
321.174
321.4
321.645
321.898
322.145
322.374
322.566
322.706
322.781
322.781
322.706
322.566
322.374
322.145
321.898
321.645
321.4
321.174
320.998
318.097
318.246
318.441
318.653
318.872
319.086
319.283
319.45
319.571
319.635
319.635
319.571
319.45
319.283
319.086
318.872
318.653
318.441
318.246
318.097
315.241
315.365
315.529
315.708
315.893
316.074
316.24
316.381
316.483
316.537
316.537
316.483
316.381
316.24
316.074
315.893
315.708
315.529
315.365
315.241
312.422
312.522
312.655
312.802
312.953
313.101
313.237
313.352
313.435
313.479
313.479
313.435
313.352
313.237
313.101
312.953
312.802
312.655
312.522
312.422
309.633
309.71
309.814
309.927
310.045
310.16
310.266
310.355
310.419
310.454
310.454
310.419
310.355
310.266
310.16
310.045
309.927
309.814
309.71
309.633
306.868
306.922
306.996
307.077
307.161
307.243
307.319
307.382
307.428
307.453
307.453
307.428
307.382
307.319
307.243
307.161
307.077
306.996
306.922
306.868
304.119
304.151
304.195
304.244
304.295
304.344
304.389
304.427
304.455
304.47
304.47
304.455
304.427
304.389
304.344
304.295
304.244
304.195
304.151
304.119
301.38
301.39
301.405
301.422
301.438
301.455
301.47
301.483
301.492
301.497
301.497
301.492
301.483
301.47
301.455
301.438
301.422
301.405
301.39
301.38
321.16
321.334
321.556
321.796
322.044
322.286
322.509
322.697
322.834
322.906
322.906
322.834
322.697
322.509
322.286
322.044
321.796
321.556
321.334
321.16
318.237
318.384
318.575
318.783
318.997
319.207
319.4
319.562
319.68
319.742
319.742
319.68
319.562
319.4
319.207
318.997
318.783
318.575
318.384
318.237
315.358
315.48
315.641
315.817
315.998
316.175
316.338
316.475
316.575
316.627
316.627
316.575
316.475
316.338
316.175
315.998
315.817
315.641
315.48
315.358
312.518
312.616
312.747
312.891
313.039
313.183
313.317
313.428
313.51
313.553
313.553
313.51
313.428
313.317
313.183
313.039
312.891
312.747
312.616
312.518
309.707
309.783
309.884
309.996
310.111
310.224
310.327
310.414
310.477
310.511
310.511
310.477
310.414
310.327
310.224
310.111
309.996
309.884
309.783
309.707
306.921
306.974
307.046
307.126
307.208
307.289
307.363
307.425
307.47
307.493
307.493
307.47
307.425
307.363
307.289
307.208
307.126
307.046
306.974
306.921
304.15
304.182
304.226
304.274
304.323
304.371
304.415
304.453
304.48
304.494
304.494
304.48
304.453
304.415
304.371
304.323
304.274
304.226
304.182
304.15
301.39
301.401
301.415
301.431
301.448
301.464
301.479
301.491
301.5
301.505
301.505
301.5
301.491
301.479
301.464
301.448
301.431
301.415
301.401
301.39
321.404
321.574
321.79
322.024
322.264
322.499
322.714
322.896
323.027
323.097
323.097
323.027
322.896
322.714
322.499
322.264
322.024
321.79
321.574
321.404
318.446
318.59
318.776
318.979
319.187
319.39
319.576
319.733
319.846
319.906
319.906
319.846
319.733
319.576
319.39
319.187
318.979
318.776
318.59
318.446
315.535
315.654
315.811
315.982
316.157
316.329
316.486
316.619
316.715
316.765
316.765
316.715
316.619
316.486
316.329
316.157
315.982
315.811
315.654
315.535
312.661
312.757
312.885
313.025
313.168
313.308
313.437
313.545
313.623
313.665
313.665
313.623
313.545
313.437
313.308
313.168
313.025
312.885
312.757
312.661
309.818
309.892
309.991
310.1
310.212
310.321
310.42
310.504
310.565
310.597
310.597
310.565
310.504
310.42
310.321
310.212
310.1
309.991
309.892
309.818
307
307.052
307.122
307.2
307.28
307.358
307.429
307.489
307.532
307.555
307.555
307.532
307.489
307.429
307.358
307.28
307.2
307.122
307.052
307
304.198
304.229
304.271
304.318
304.366
304.412
304.455
304.491
304.517
304.531
304.531
304.517
304.491
304.455
304.412
304.366
304.318
304.271
304.229
304.198
301.406
301.416
301.431
301.446
301.462
301.478
301.492
301.504
301.513
301.518
301.518
301.513
301.504
301.492
301.478
301.462
301.446
301.431
301.416
301.406
321.731
321.895
322.104
322.33
322.561
322.786
322.992
323.164
323.289
323.355
323.355
323.289
323.164
322.992
322.786
322.561
322.33
322.104
321.895
321.731
318.727
318.866
319.046
319.242
319.442
319.636
319.814
319.964
320.072
320.129
320.129
320.072
319.964
319.814
319.636
319.442
319.242
319.046
318.866
318.727
315.77
315.886
316.037
316.203
316.372
316.536
316.686
316.812
316.904
316.952
316.952
316.904
316.812
316.686
316.536
316.372
316.203
316.037
315.886
315.77
312.853
312.946
313.069
313.204
313.342
313.477
313.6
313.703
313.777
313.817
313.817
313.777
313.703
313.6
313.477
313.342
313.204
313.069
312.946
312.853
309.967
310.038
310.134
310.239
310.346
310.451
310.546
310.626
310.684
310.715
310.715
310.684
310.626
310.546
310.451
310.346
310.239
310.134
310.038
309.967
307.105
307.156
307.224
307.299
307.376
307.45
307.519
307.576
307.617
307.639
307.639
307.617
307.576
307.519
307.45
307.376
307.299
307.224
307.156
307.105
304.261
304.291
304.332
304.377
304.423
304.468
304.509
304.543
304.568
304.581
304.581
304.568
304.543
304.509
304.468
304.423
304.377
304.332
304.291
304.261
301.427
301.437
301.451
301.466
301.482
301.497
301.51
301.522
301.53
301.534
301.534
301.53
301.522
301.51
301.497
301.482
301.466
301.451
301.437
301.427
322.14
322.299
322.499
322.715
322.935
323.148
323.343
323.506
323.624
323.686
323.686
323.624
323.506
323.343
323.148
322.935
322.715
322.499
322.299
322.14
319.079
319.213
319.386
319.573
319.763
319.948
320.116
320.257
320.359
320.413
320.413
320.359
320.257
320.116
319.948
319.763
319.573
319.386
319.213
319.079
316.066
316.177
316.323
316.481
316.642
316.798
316.94
317.059
317.145
317.19
317.19
317.145
317.059
316.94
316.798
316.642
316.481
316.323
316.177
316.066
313.093
313.183
313.301
313.43
313.562
313.69
313.806
313.903
313.974
314.011
314.011
313.974
313.903
313.806
313.69
313.562
313.43
313.301
313.183
313.093
310.153
310.222
310.314
310.414
310.517
310.616
310.706
310.782
310.836
310.865
310.865
310.836
310.782
310.706
310.616
310.517
310.414
310.314
310.222
310.153
307.238
307.287
307.352
307.424
307.497
307.568
307.632
307.686
307.725
307.746
307.746
307.725
307.686
307.632
307.568
307.497
307.424
307.352
307.287
307.238
304.341
304.37
304.409
304.452
304.496
304.538
304.577
304.61
304.633
304.645
304.645
304.633
304.61
304.577
304.538
304.496
304.452
304.409
304.37
304.341
301.454
301.464
301.477
301.491
301.506
301.52
301.533
301.544
301.552
301.556
301.556
301.552
301.544
301.533
301.52
301.506
301.491
301.477
301.464
301.454
322.633
322.784
322.975
323.18
323.388
323.589
323.772
323.924
324.034
324.091
324.091
324.034
323.924
323.772
323.589
323.388
323.18
322.975
322.784
322.633
319.502
319.631
319.795
319.973
320.153
320.327
320.485
320.616
320.711
320.761
320.761
320.711
320.616
320.485
320.327
320.153
319.973
319.795
319.631
319.502
316.422
316.528
316.667
316.817
316.969
317.116
317.25
317.361
317.441
317.483
317.483
317.441
317.361
317.25
317.116
316.969
316.817
316.667
316.528
316.422
313.383
313.468
313.581
313.704
313.829
313.949
314.058
314.149
314.214
314.249
314.249
314.214
314.149
314.058
313.949
313.829
313.704
313.581
313.468
313.383
310.377
310.443
310.531
310.626
310.723
310.816
310.901
310.972
311.023
311.049
311.049
311.023
310.972
310.901
310.816
310.723
310.626
310.531
310.443
310.377
307.398
307.444
307.507
307.575
307.644
307.711
307.771
307.822
307.858
307.877
307.877
307.858
307.822
307.771
307.711
307.644
307.575
307.507
307.444
307.398
304.436
304.464
304.502
304.542
304.584
304.624
304.66
304.691
304.712
304.724
304.724
304.712
304.691
304.66
304.624
304.584
304.542
304.502
304.464
304.436
301.486
301.495
301.508
301.521
301.535
301.549
301.561
301.571
301.578
301.582
301.582
301.578
301.571
301.561
301.549
301.535
301.521
301.508
301.495
301.486
323.21
323.354
323.535
323.728
323.923
324.111
324.281
324.422
324.523
324.576
324.576
324.523
324.422
324.281
324.111
323.923
323.728
323.535
323.354
323.21
319.999
320.121
320.276
320.444
320.613
320.775
320.922
321.044
321.132
321.178
321.178
321.132
321.044
320.922
320.775
320.613
320.444
320.276
320.121
319.999
316.839
316.94
317.071
317.213
317.355
317.493
317.617
317.72
317.794
317.833
317.833
317.794
317.72
317.617
317.493
317.355
317.213
317.071
316.94
316.839
313.722
313.803
313.91
314.026
314.143
314.255
314.357
314.441
314.502
314.533
314.533
314.502
314.441
314.357
314.255
314.143
314.026
313.91
313.803
313.722
310.64
310.702
310.785
310.875
310.966
311.053
311.132
311.198
311.245
311.27
311.27
311.245
311.198
311.132
311.053
310.966
310.875
310.785
310.702
310.64
307.585
307.629
307.688
307.752
307.817
307.88
307.936
307.983
308.016
308.034
308.034
308.016
307.983
307.936
307.88
307.817
307.752
307.688
307.629
307.585
304.548
304.575
304.61
304.649
304.688
304.725
304.759
304.787
304.807
304.818
304.818
304.807
304.787
304.759
304.725
304.688
304.649
304.61
304.575
304.548
301.523
301.532
301.544
301.557
301.57
301.583
301.594
301.603
301.61
301.614
301.614
301.61
301.603
301.594
301.583
301.57
301.557
301.544
301.532
301.523
323.873
324.009
324.179
324.36
324.541
324.715
324.872
325.002
325.095
325.143
325.143
325.095
325.002
324.872
324.715
324.541
324.36
324.179
324.009
323.873
320.568
320.683
320.83
320.987
321.144
321.295
321.43
321.543
321.623
321.665
321.665
321.623
321.543
321.43
321.295
321.144
320.987
320.83
320.683
320.568
317.318
317.413
317.536
317.669
317.802
317.929
318.044
318.139
318.207
318.243
318.243
318.207
318.139
318.044
317.929
317.802
317.669
317.536
317.413
317.318
314.111
314.188
314.289
314.397
314.506
314.61
314.704
314.782
314.837
314.866
314.866
314.837
314.782
314.704
314.61
314.506
314.397
314.289
314.188
314.111
310.942
311
311.079
311.163
311.247
311.328
311.401
311.462
311.505
311.527
311.527
311.505
311.462
311.401
311.328
311.247
311.163
311.079
311
310.942
307.799
307.841
307.897
307.957
308.017
308.075
308.127
308.171
308.201
308.217
308.217
308.201
308.171
308.127
308.075
308.017
307.957
307.897
307.841
307.799
304.677
304.702
304.735
304.771
304.808
304.843
304.874
304.9
304.918
304.928
304.928
304.918
304.9
304.874
304.843
304.808
304.771
304.735
304.702
304.677
301.566
301.575
301.586
301.598
301.61
301.622
301.632
301.641
301.647
301.651
301.651
301.647
301.641
301.632
301.622
301.61
301.598
301.586
301.575
301.566
324.622
324.749
324.908
325.077
325.245
325.405
325.549
325.668
325.752
325.796
325.796
325.752
325.668
325.549
325.405
325.245
325.077
324.908
324.749
324.622
321.212
321.32
321.457
321.603
321.749
321.888
322.012
322.115
322.188
322.226
322.226
322.188
322.115
322.012
321.888
321.749
321.603
321.457
321.32
321.212
317.858
317.948
318.064
318.187
318.31
318.428
318.533
318.62
318.682
318.714
318.714
318.682
318.62
318.533
318.428
318.31
318.187
318.064
317.948
317.858
314.552
314.624
314.718
314.819
314.92
315.016
315.102
315.173
315.223
315.25
315.25
315.223
315.173
315.102
315.016
314.92
314.819
314.718
314.624
314.552
311.282
311.338
311.411
311.489
311.568
311.642
311.709
311.764
311.804
311.824
311.824
311.804
311.764
311.709
311.642
311.568
311.489
311.411
311.338
311.282
308.042
308.081
308.133
308.189
308.246
308.299
308.347
308.386
308.414
308.429
308.429
308.414
308.386
308.347
308.299
308.246
308.189
308.133
308.081
308.042
304.823
304.846
304.877
304.911
304.944
304.977
305.005
305.029
305.046
305.055
305.055
305.046
305.029
305.005
304.977
304.944
304.911
304.877
304.846
304.823
301.615
301.623
301.633
301.645
301.656
301.667
301.676
301.684
301.69
301.693
301.693
301.69
301.684
301.676
301.667
301.656
301.645
301.633
301.623
301.615
325.457
325.577
325.725
325.881
326.036
326.183
326.314
326.421
326.498
326.538
326.538
326.498
326.421
326.314
326.183
326.036
325.881
325.725
325.577
325.457
321.93
322.031
322.159
322.294
322.429
322.556
322.669
322.763
322.829
322.863
322.863
322.829
322.763
322.669
322.556
322.429
322.294
322.159
322.031
321.93
318.462
318.546
318.654
318.768
318.882
318.989
319.085
319.164
319.22
319.249
319.249
319.22
319.164
319.085
318.989
318.882
318.768
318.654
318.546
318.462
315.043
315.11
315.198
315.291
315.384
315.472
315.551
315.615
315.661
315.685
315.685
315.661
315.615
315.551
315.472
315.384
315.291
315.198
315.11
315.043
311.663
311.715
311.783
311.855
311.928
311.996
312.057
312.107
312.143
312.162
312.162
312.143
312.107
312.057
311.996
311.928
311.855
311.783
311.715
311.663
308.313
308.35
308.398
308.45
308.502
308.551
308.594
308.63
308.656
308.669
308.669
308.656
308.63
308.594
308.551
308.502
308.45
308.398
308.35
308.313
304.985
305.007
305.036
305.067
305.098
305.127
305.154
305.175
305.19
305.198
305.198
305.19
305.175
305.154
305.127
305.098
305.067
305.036
305.007
304.985
301.67
301.677
301.687
301.697
301.707
301.717
301.726
301.733
301.738
301.741
301.741
301.738
301.733
301.726
301.717
301.707
301.697
301.687
301.677
301.67
326.38
326.492
326.629
326.773
326.915
327.049
327.168
327.265
327.334
327.37
327.37
327.334
327.265
327.168
327.049
326.915
326.773
326.629
326.492
326.38
322.724
322.818
322.937
323.061
323.184
323.3
323.404
323.488
323.548
323.579
323.579
323.548
323.488
323.404
323.3
323.184
323.061
322.937
322.818
322.724
319.129
319.207
319.307
319.412
319.517
319.615
319.702
319.773
319.824
319.85
319.85
319.824
319.773
319.702
319.615
319.517
319.412
319.307
319.207
319.129
315.585
315.648
315.73
315.816
315.901
315.981
316.053
316.111
316.152
316.174
316.174
316.152
316.111
316.053
315.981
315.901
315.816
315.73
315.648
315.585
312.083
312.131
312.194
312.261
312.328
312.39
312.446
312.491
312.523
312.54
312.54
312.523
312.491
312.446
312.39
312.328
312.261
312.194
312.131
312.083
308.612
308.646
308.692
308.739
308.787
308.831
308.871
308.904
308.927
308.938
308.938
308.927
308.904
308.871
308.831
308.787
308.739
308.692
308.646
308.612
305.164
305.185
305.212
305.24
305.269
305.296
305.32
305.339
305.353
305.36
305.36
305.353
305.339
305.32
305.296
305.269
305.24
305.212
305.185
305.164
301.73
301.736
301.745
301.755
301.765
301.774
301.782
301.788
301.793
301.795
301.795
301.793
301.788
301.782
301.774
301.765
301.755
301.745
301.736
301.73
327.391
327.495
327.621
327.753
327.883
328.005
328.113
328.2
328.262
328.294
328.294
328.262
328.2
328.113
328.005
327.883
327.753
327.621
327.495
327.391
323.593
323.681
323.79
323.904
324.017
324.123
324.216
324.292
324.345
324.373
324.373
324.345
324.292
324.216
324.123
324.017
323.904
323.79
323.681
323.593
319.86
319.932
320.024
320.121
320.216
320.306
320.385
320.449
320.494
320.518
320.518
320.494
320.449
320.385
320.306
320.216
320.121
320.024
319.932
319.86
316.18
316.238
316.313
316.392
316.47
316.543
316.608
316.661
316.698
316.717
316.717
316.698
316.661
316.608
316.543
316.47
316.392
316.313
316.238
316.18
312.543
312.588
312.646
312.708
312.769
312.825
312.876
312.917
312.945
312.96
312.96
312.945
312.917
312.876
312.825
312.769
312.708
312.646
312.588
312.543
308.94
308.972
309.013
309.057
309.101
309.141
309.177
309.206
309.227
309.238
309.238
309.227
309.206
309.177
309.141
309.101
309.057
309.013
308.972
308.94
305.361
305.38
305.405
305.431
305.457
305.481
305.503
305.521
305.533
305.539
305.539
305.533
305.521
305.503
305.481
305.457
305.431
305.405
305.38
305.361
301.795
301.802
301.81
301.819
301.828
301.836
301.843
301.849
301.853
301.855
301.855
301.853
301.849
301.843
301.836
301.828
301.819
301.81
301.802
301.795
328.49
328.586
328.702
328.823
328.941
329.052
329.149
329.227
329.283
329.312
329.312
329.283
329.227
329.149
329.052
328.941
328.823
328.702
328.586
328.49
324.538
324.619
324.719
324.824
324.927
325.022
325.106
325.175
325.223
325.247
325.247
325.223
325.175
325.106
325.022
324.927
324.824
324.719
324.619
324.538
320.654
320.721
320.805
320.894
320.981
321.062
321.133
321.191
321.231
321.252
321.252
321.231
321.191
321.133
321.062
320.981
320.894
320.805
320.721
320.654
316.826
316.88
316.949
317.021
317.092
317.159
317.217
317.264
317.297
317.315
317.315
317.297
317.264
317.217
317.159
317.092
317.021
316.949
316.88
316.826
313.044
313.085
313.139
313.195
313.25
313.302
313.347
313.384
313.41
313.423
313.423
313.41
313.384
313.347
313.302
313.25
313.195
313.139
313.085
313.044
309.296
309.326
309.364
309.404
309.444
309.481
309.513
309.539
309.558
309.567
309.567
309.558
309.539
309.513
309.481
309.444
309.404
309.364
309.326
309.296
305.574
305.592
305.615
305.639
305.663
305.685
305.704
305.72
305.731
305.737
305.737
305.731
305.72
305.704
305.685
305.663
305.639
305.615
305.592
305.574
301.867
301.873
301.88
301.889
301.896
301.904
301.91
301.916
301.919
301.921
301.921
301.919
301.916
301.91
301.904
301.896
301.889
301.88
301.873
301.867
329.675
329.763
329.87
329.981
330.088
330.188
330.275
330.346
330.395
330.421
330.421
330.395
330.346
330.275
330.188
330.088
329.981
329.87
329.763
329.675
325.557
325.631
325.724
325.819
325.912
325.999
326.074
326.136
326.178
326.201
326.201
326.178
326.136
326.074
325.999
325.912
325.819
325.724
325.631
325.557
321.51
321.571
321.649
321.73
321.809
321.882
321.946
321.998
322.034
322.053
322.053
322.034
321.998
321.946
321.882
321.809
321.73
321.649
321.571
321.51
317.522
317.572
317.635
317.701
317.766
317.826
317.878
317.921
317.95
317.966
317.966
317.95
317.921
317.878
317.826
317.766
317.701
317.635
317.572
317.522
313.583
313.621
313.67
313.721
313.772
313.818
313.859
313.892
313.915
313.927
313.927
313.915
313.892
313.859
313.818
313.772
313.721
313.67
313.621
313.583
309.68
309.707
309.742
309.779
309.815
309.848
309.878
309.901
309.918
309.926
309.926
309.918
309.901
309.878
309.848
309.815
309.779
309.742
309.707
309.68
305.804
305.82
305.841
305.863
305.885
305.905
305.923
305.937
305.947
305.952
305.952
305.947
305.937
305.923
305.905
305.885
305.863
305.841
305.82
305.804
301.944
301.949
301.956
301.964
301.971
301.978
301.984
301.988
301.992
301.993
301.993
301.992
301.988
301.984
301.978
301.971
301.964
301.956
301.949
301.944
330.942
331.023
331.121
331.222
331.32
331.41
331.488
331.551
331.595
331.618
331.618
331.595
331.551
331.488
331.41
331.32
331.222
331.121
331.023
330.942
326.645
326.713
326.798
326.885
326.97
327.048
327.116
327.171
327.209
327.229
327.229
327.209
327.171
327.116
327.048
326.97
326.885
326.798
326.713
326.645
322.423
322.48
322.551
322.625
322.697
322.763
322.82
322.867
322.899
322.916
322.916
322.899
322.867
322.82
322.763
322.697
322.625
322.551
322.48
322.423
318.265
318.311
318.369
318.429
318.488
318.542
318.589
318.627
318.653
318.667
318.667
318.653
318.627
318.589
318.542
318.488
318.429
318.369
318.311
318.265
314.157
314.193
314.238
314.285
314.33
314.372
314.409
314.438
314.459
314.47
314.47
314.459
314.438
314.409
314.372
314.33
314.285
314.238
314.193
314.157
310.089
310.114
310.146
310.18
310.213
310.243
310.269
310.29
310.305
310.312
310.312
310.305
310.29
310.269
310.243
310.213
310.18
310.146
310.114
310.089
306.049
306.064
306.083
306.104
306.123
306.141
306.157
306.17
306.179
306.183
306.183
306.179
306.17
306.157
306.141
306.123
306.104
306.083
306.064
306.049
302.026
302.031
302.037
302.044
302.051
302.057
302.062
302.066
302.069
302.071
302.071
302.069
302.066
302.062
302.057
302.051
302.044
302.037
302.031
302.026
332.279
332.353
332.443
332.535
332.623
332.704
332.775
332.831
332.871
332.891
332.891
332.871
332.831
332.775
332.704
332.623
332.535
332.443
332.353
332.279
327.791
327.854
327.931
328.011
328.088
328.158
328.219
328.268
328.302
328.32
328.32
328.302
328.268
328.219
328.158
328.088
328.011
327.931
327.854
327.791
323.384
323.436
323.502
323.569
323.634
323.693
323.745
323.787
323.816
323.83
323.83
323.816
323.787
323.745
323.693
323.634
323.569
323.502
323.436
323.384
319.045
319.087
319.14
319.195
319.248
319.297
319.339
319.373
319.397
319.409
319.409
319.397
319.373
319.339
319.297
319.248
319.195
319.14
319.087
319.045
314.76
314.793
314.834
314.877
314.918
314.956
314.989
315.016
315.034
315.044
315.044
315.034
315.016
314.989
314.956
314.918
314.877
314.834
314.793
314.76
310.518
310.541
310.571
310.601
310.631
310.658
310.681
310.7
310.714
310.72
310.72
310.714
310.7
310.681
310.658
310.631
310.601
310.571
310.541
310.518
306.306
306.32
306.337
306.356
306.374
306.39
306.404
306.415
306.423
306.427
306.427
306.423
306.415
306.404
306.39
306.374
306.356
306.337
306.32
306.306
302.112
302.116
302.122
302.129
302.134
302.14
302.145
302.148
302.151
302.153
302.153
302.151
302.148
302.145
302.14
302.134
302.129
302.122
302.116
302.112
333.653
333.721
333.804
333.887
333.967
334.041
334.104
334.155
334.19
334.208
334.208
334.19
334.155
334.104
334.041
333.967
333.887
333.804
333.721
333.653
328.964
329.022
329.093
329.165
329.235
329.299
329.354
329.398
329.428
329.444
329.444
329.428
329.398
329.354
329.299
329.235
329.165
329.093
329.022
328.964
324.363
324.411
324.471
324.533
324.592
324.646
324.692
324.729
324.755
324.769
324.769
324.755
324.729
324.692
324.646
324.592
324.533
324.471
324.411
324.363
319.837
319.876
319.924
319.975
320.023
320.067
320.106
320.136
320.157
320.168
320.168
320.157
320.136
320.106
320.067
320.023
319.975
319.924
319.876
319.837
315.371
315.401
315.439
315.478
315.515
315.55
315.579
315.603
315.62
315.628
315.628
315.62
315.603
315.579
315.55
315.515
315.478
315.439
315.401
315.371
310.951
310.972
310.999
311.027
311.054
311.079
311.1
311.117
311.129
311.135
311.135
311.129
311.117
311.1
311.079
311.054
311.027
310.999
310.972
310.951
306.565
306.578
306.594
306.611
306.627
306.642
306.654
306.665
306.672
306.675
306.675
306.672
306.665
306.654
306.642
306.627
306.611
306.594
306.578
306.565
302.198
302.203
302.208
302.214
302.219
302.224
302.228
302.232
302.234
302.235
302.235
302.234
302.232
302.228
302.224
302.219
302.214
302.208
302.203
302.198
334.979
335.043
335.118
335.195
335.269
335.336
335.393
335.439
335.471
335.487
335.487
335.471
335.439
335.393
335.336
335.269
335.195
335.118
335.043
334.979
330.082
330.136
330.202
330.268
330.332
330.39
330.44
330.48
330.508
330.522
330.522
330.508
330.48
330.44
330.39
330.332
330.268
330.202
330.136
330.082
325.287
325.332
325.387
325.444
325.498
325.547
325.589
325.623
325.647
325.659
325.659
325.647
325.623
325.589
325.547
325.498
325.444
325.387
325.332
325.287
320.577
320.613
320.659
320.705
320.749
320.79
320.825
320.852
320.872
320.881
320.881
320.872
320.852
320.825
320.79
320.749
320.705
320.659
320.613
320.577
315.937
315.965
316
316.036
316.071
316.102
316.129
316.151
316.166
316.174
316.174
316.166
316.151
316.129
316.102
316.071
316.036
316
315.965
315.937
311.351
311.37
311.396
311.421
311.446
311.469
311.488
311.504
311.514
311.52
311.52
311.514
311.504
311.488
311.469
311.446
311.421
311.396
311.37
311.351
306.803
306.815
306.83
306.845
306.86
306.874
306.885
306.895
306.901
306.904
306.904
306.901
306.895
306.885
306.874
306.86
306.845
306.83
306.815
306.803
302.278
302.282
302.287
302.292
302.297
302.302
302.305
302.309
302.311
302.312
302.312
302.311
302.309
302.305
302.302
302.297
302.292
302.287
302.282
302.278
336.028
336.088
336.159
336.231
336.3
336.362
336.416
336.458
336.488
336.503
336.503
336.488
336.458
336.416
336.362
336.3
336.231
336.159
336.088
336.028
330.933
330.984
331.045
331.108
331.168
331.223
331.269
331.306
331.332
331.345
331.345
331.332
331.306
331.269
331.223
331.168
331.108
331.045
330.984
330.933
325.968
326.01
326.062
326.116
326.166
326.213
326.253
326.284
326.306
326.317
326.317
326.306
326.284
326.253
326.213
326.166
326.116
326.062
326.01
325.968
321.109
321.143
321.186
321.23
321.272
321.31
321.342
321.368
321.386
321.396
321.396
321.386
321.368
321.342
321.31
321.272
321.23
321.186
321.143
321.109
316.336
316.362
316.396
316.43
316.463
316.492
316.518
316.538
316.552
316.559
316.559
316.552
316.538
316.518
316.492
316.463
316.43
316.396
316.362
316.336
311.629
311.647
311.671
311.695
311.719
311.74
311.758
311.773
311.783
311.788
311.788
311.783
311.773
311.758
311.74
311.719
311.695
311.671
311.647
311.629
306.967
306.978
306.992
307.007
307.021
307.034
307.045
307.053
307.059
307.063
307.063
307.059
307.053
307.045
307.034
307.021
307.007
306.992
306.978
306.967
302.332
302.336
302.341
302.346
302.35
302.355
302.358
302.361
302.363
302.364
302.364
302.363
302.361
302.358
302.355
302.35
302.346
302.341
302.336
302.332
)
;

boundaryField
{
    hotSide
    {
        type            fixedGradient;
        gradient        nonuniform List<scalar> 
400
(
235.34
236.277
238.152
240.971
244.736
249.457
255.139
261.791
269.422
278.04
287.654
298.271
309.899
322.543
336.21
350.905
366.631
383.391
401.189
420.025
237.682
238.6
240.44
243.205
246.903
251.542
257.133
263.687
271.214
279.725
289.231
299.74
311.263
323.806
337.376
351.978
367.617
384.296
402.018
420.785
240.217
241.113
242.909
245.611
249.228
253.773
259.258
265.697
273.104
281.492
290.875
301.264
312.669
325.1
338.563
353.065
368.611
385.203
402.845
421.539
242.902
243.772
245.518
248.147
251.672
256.108
261.471
267.78
275.052
283.304
292.551
302.808
314.086
326.396
339.745
354.141
369.589
386.091
403.651
422.269
245.663
246.504
248.193
250.74
254.162
258.477
263.708
269.875
277
285.105
294.208
304.325
315.469
327.654
340.886
355.174
370.523
386.935
404.412
422.956
248.384
249.194
250.822
253.283
256.595
260.783
265.874
271.893
278.868
286.822
295.778
305.754
316.766
328.826
341.944
356.127
371.379
387.704
405.104
423.577
250.909
251.689
253.257
255.631
258.835
262.898
267.851
273.727
280.556
288.367
297.183
307.027
317.914
329.859
342.871
356.958
372.123
388.37
405.699
424.11
253.053
253.805
255.318
257.615
260.722
264.673
269.506
275.255
281.957
289.642
298.338
308.068
318.85
330.697
343.62
357.627
372.72
388.902
406.173
424.533
254.622
255.352
256.824
259.061
262.094
265.962
270.702
276.357
282.963
290.555
299.162
308.808
319.512
331.289
344.148
358.096
373.137
389.273
406.503
424.827
255.453
256.172
257.621
259.826
262.819
266.64
271.332
276.935
283.49
291.033
299.592
309.194
319.857
331.595
344.42
358.338
373.352
389.464
406.673
424.977
255.453
256.172
257.621
259.826
262.819
266.64
271.332
276.935
283.49
291.033
299.592
309.194
319.857
331.595
344.42
358.338
373.352
389.464
406.673
424.977
254.622
255.352
256.824
259.061
262.094
265.962
270.702
276.357
282.963
290.555
299.162
308.808
319.512
331.289
344.148
358.096
373.137
389.273
406.503
424.827
253.053
253.805
255.318
257.615
260.722
264.673
269.506
275.255
281.957
289.642
298.338
308.068
318.85
330.697
343.62
357.627
372.72
388.902
406.173
424.533
250.909
251.689
253.257
255.631
258.835
262.898
267.851
273.727
280.556
288.367
297.183
307.027
317.914
329.859
342.871
356.958
372.123
388.37
405.699
424.11
248.384
249.194
250.822
253.283
256.595
260.783
265.874
271.893
278.868
286.822
295.778
305.754
316.766
328.826
341.944
356.127
371.379
387.704
405.104
423.577
245.663
246.504
248.193
250.74
254.162
258.477
263.708
269.875
277
285.105
294.208
304.325
315.469
327.654
340.886
355.174
370.523
386.935
404.412
422.956
242.902
243.772
245.518
248.147
251.672
256.108
261.471
267.78
275.052
283.304
292.551
302.808
314.086
326.396
339.745
354.141
369.589
386.091
403.651
422.269
240.217
241.113
242.909
245.611
249.228
253.773
259.258
265.697
273.104
281.492
290.875
301.264
312.669
325.1
338.563
353.065
368.611
385.203
402.845
421.539
237.682
238.6
240.44
243.205
246.903
251.542
257.133
263.687
271.214
279.725
289.231
299.74
311.263
323.806
337.376
351.978
367.617
384.296
402.018
420.785
235.34
236.277
238.152
240.971
244.736
249.457
255.139
261.791
269.422
278.04
287.654
298.271
309.899
322.543
336.21
350.905
366.631
383.391
401.189
420.025
)
;
    }
    coldSide
    {
        type            mixed;
        refValue        uniform 300;
        refGradient     uniform 0;
        valueFraction   uniform 0.991591;
        source          uniform 0;
        value           nonuniform List<scalar> 
400
(
300.012
300.012
300.012
300.012
300.012
300.012
300.012
300.013
300.013
300.014
300.014
300.015
300.015
300.016
300.016
300.017
300.018
300.018
300.019
300.02
300.012
300.012
300.012
300.012
300.012
300.012
300.013
300.013
300.013
300.014
300.014
300.015
300.015
300.016
300.016
300.017