/*--------------------------------*- C++ -*----------------------------------*\
| =========                 |                                                 |
| \\      /  F ield         | OpenFOAM: The Open Source CFD Toolbox           |
|  \\    /   O peration     | Version:  2212                                  |
|   \\  /    A nd           | Website:  www.openfoam.com                      |
|    \\/     M anipulation  |                                                 |
\*---------------------------------------------------------------------------*/
FoamFile
{
    version     2.0;
    format      ascii;
    arch        "LSB;label=32;scalar=64";
    class       volScalarField;
    location    "0";
    object      relativeErrorField;
}
// * * * * * * * * * * * * * * * * * * * * * * * * * * * * * * * * * * * * * //

dimensions      [0 0 0 1 0 0 0];

internalField   nonuniform List<scalar> 
3200
(
0.0103861
0.0096492
0.0090013
0.00886103
0.00925709
0.00974106
0.0104438
0.0112813
0.0121977
0.0126699
0.0130617
0.0130113
0.0127656
0.0123751
0.0121797
0.0124058
0.0124929
0.0134291
0.0140532
0.0151588
0.00893888
0.00818607
0.00740409
0.00742266
0.00771012
0.00830698
0.00878846
0.00954581
0.0104
0.010901
0.0109486
0.0110484
0.0107513
0.0107325
0.0106438
0.0103604
0.010766
0.011206
0.0120563
0.0128111
0.00733958
0.00663948
0.00637422
0.00623844
0.00632956
0.00682117
0.00727069
0.0080821
0.00840666
0.00895716
0.00919091
0.00929564
0.00925525
0.00873736
0.00877165
0.00864655
0.00902158
0.00961067
0.0101027
0.0108764
0.00593747
0.00553814
0.00512461
0.0048196
0.00499748
0.00540248
0.00591964
0.00670594
0.00693023
0.00736386
0.00737512
0.00765663
0.00745431
0.00722863
0.00698134
0.00700689
0.00727868
0.00759635
0.00854708
0.00880403
0.00462204
0.00429264
0.0041267
0.00379336
0.00400291
0.00426883
0.00460444
0.00502906
0.00550832
0.00568268
0.00579398
0.00578739
0.00573195
0.00551762
0.00546049
0.00555244
0.00569978
0.00591163
0.00637481
0.00708461
0.00331833
0.00297172
0.0030284
0.00281437
0.00300633
0.00328957
0.00349693
0.00338285
0.00383042
0.00414161
0.00400714
0.00447277
0.00412266
0.00390729
0.00386323
0.00387061
0.00391799
0.00426741
0.00477938
0.00495007
0.00236893
0.00172274
0.00202056
0.00156793
0.00188068
0.00176106
0.00210224
0.00198908
0.00236931
0.00218047
0.00249845
0.0025485
0.00282217
0.00252171
0.00219912
0.00243184
0.00241275
0.00258029
0.00286706
0.00305664
0.000655824
0.000726795
0.000578029
0.000822936
0.000689939
0.000724814
0.000773147
0.000665384
0.000862406
0.00109053
0.00103973
0.000782608
0.00095945
0.000710382
0.000745882
0.000709966
0.000908487
0.000934531
0.000870661
0.00102234
0.00772887
0.00694714
0.0062755
0.00610053
0.00613992
0.00671221
0.0075496
0.00805287
0.00913532
0.00978936
0.0100518
0.0101105
0.00987994
0.00976592
0.00965266
0.00953465
0.00998722
0.0106458
0.0115404
0.0128501
0.00663642
0.00592835
0.00556484
0.0050849
0.00520728
0.00585586
0.00655377
0.00693587
0.00771301
0.00807151
0.00847149
0.00854903
0.00840554
0.00839287
0.00816884
0.00812228
0.00871006
0.0088545
0.0102088
0.0109047
0.0055598
0.00509101
0.00447574
0.00438282
0.00451938
0.00488742
0.00536153
0.00574228
0.00654189
0.00688751
0.00718663
0.0071809
0.00720553
0.00687394
0.00674352
0.0069818
0.00720056
0.00766724
0.00849626
0.00924559
0.00466247
0.00406239
0.00398963
0.00356247
0.00365556
0.00403598
0.00454054
0.00473104
0.00534719
0.00553296
0.00569073
0.00599046
0.00598574
0.00586151
0.00562449
0.00561146
0.00583008
0.00621862
0.00698111
0.00749919
0.00359919
0.00310922
0.00278077
0.00284346
0.00267292
0.00304731
0.00351732
0.00394123
0.00416395
0.00436324
0.0045427
0.00453076
0.00455009
0.00429913
0.00436356
0.00424196
0.00451242
0.00490777
0.00564988
0.00594361
0.0026063
0.00218533
0.00207355
0.00207193
0.00200926
0.00234528
0.00226195
0.00256461
0.00305918
0.00315166
0.00335392
0.00321203
0.00316567
0.00300791
0.00334373
0.00308834
0.00329816
0.00355683
0.00397455
0.00448671
0.00161765
0.00152021
0.00114586
0.00128135
0.00119175
0.00152989
0.00132756
0.00182582
0.00188101
0.00170658
0.00198797
0.00216208
0.0022028
0.00206807
0.00211021
0.00191463
0.00196718
0.00207764
0.00231762
0.00259583
0.000520745
0.000686892
0.000385127
0.000255638
0.000298069
0.000345543
0.000574852
0.00067097
0.000266678
0.000657077
0.000553735
0.000652695
0.000722223
0.000707205
0.000595746
0.000683168
0.000868236
0.000521055
0.000951436
0.000885334
0.00460528
0.00360787
0.00325501
0.00280596
0.00292352
0.00328615
0.00391898
0.00476894
0.00508847
0.00558698
0.00613167
0.00624054
0.00628251
0.00600897
0.00622942
0.00619162
0.00677031
0.00748935
0.00869811
0.00986549
0.00428629
0.00320528
0.00262877
0.00224404
0.00231041
0.00263944
0.00336751
0.00400667
0.00440377
0.00484256
0.00527755
0.00547429
0.00531728
0.00530108
0.00529311
0.00549738
0.00567574
0.006459
0.00751212
0.00827457
0.00350578
0.00265996
0.00220693
0.00191808
0.00189657
0.002387
0.00266435
0.00318527
0.00379324
0.00410099
0.00433721
0.00438285
0.00439907
0.00440481
0.00441995
0.00448116
0.00468652
0.00564443
0.00642262
0.00717605
0.0029701
0.00232355
0.00180047
0.00152964
0.00137164
0.00183228
0.00220527
0.00248971
0.00338437
0.0033297
0.0037627
0.0036968
0.00342793
0.00356503
0.00374784
0.00362831
0.00396104
0.00455396
0.005254
0.00579665
0.00230502
0.00197879
0.00139906
0.00122777
0.0011707
0.00135348
0.00173562
0.00204694
0.00232724
0.00277175
0.00286224
0.0026781
0.00254371
0.00259902
0.0027121
0.00284135
0.00310761
0.00351738
0.00408215
0.0046471
0.00180319
0.00130472
0.00111234
0.000900891
0.000753734
0.000967058
0.00117019
0.00146965
0.00167816
0.00178292
0.00207187
0.00189835
0.00200674
0.00208293
0.00181624
0.00191378
0.00211379
0.0026119
0.00278869
0.00334437
0.000966677
0.000908488
0.000660998
0.000511068
0.000497433
0.000710667
0.000795945
0.000602573
0.00104481
0.00124013
0.00106975
0.00120282
0.00110359
0.00122946
0.0012904
0.00128726
0.00114346
0.00143553
0.00176125
0.00190291
0.00036963
0.000301862
0.000363944
0.000432593
0.000282016
0.000424514
0.000381521
0.000278112
0.000487313
0.000302048
0.000420648
0.000269181
0.000378554
0.000473361
0.000410204
0.000433268
0.00028053
0.00025545
0.0004818
0.000920133
0.00203902
0.000938687
5.59672e-05
0.000636307
0.000733864
0.000540083
0.000410316
0.000969236
0.0015703
0.00203432
0.00234663
0.00274641
0.00251667
0.00246508
0.00280169
0.00283364
0.00350011
0.00441233
0.00584965
0.00735695
0.00172712
0.000497705
7.42822e-05
0.000475041
0.000507859
0.000260043
0.0001001
0.000776595
0.000966756
0.0016389
0.00180968
0.002275
0.00210793
0.00206354
0.00219826
0.00255801
0.00304905
0.00377844
0.0049719
0.0061739
0.00126135
0.000368514
0.000113922
0.000412626
0.000481158
0.000289552
7.49002e-05
0.000538082
0.00106822
0.00125972
0.00163483
0.00187455
0.00173473
0.00173906
0.001724
0.00208443
0.0024985
0.00316403
0.00414371
0.00504867
0.00121661
0.000385548
0.000206549
0.000382418
0.000639996
0.000254457
9.76629e-05
0.000377185
0.000748259
0.00114257
0.00126449
0.0011205
0.00137233
0.00130405
0.00167048
0.00163571
0.00219409
0.00289319
0.00343902
0.00423138
0.000938311
0.000326775
4.71495e-05
0.000420332
0.000345654
0.000439989
0.00017206
0.000301622
0.000760945
0.000763068
0.000943782
0.00101672
0.00113419
0.00107671
0.00117059
0.00129739
0.00169521
0.00215549
0.00262382
0.00317578
0.00078984
0.000273281
8.8234e-05
0.000363553
0.00042815
0.000287483
0.000109815
0.000245612
0.000442728
0.000553358
0.000702828
0.00059879
0.000770088
0.000725889
0.000734864
0.000817334
0.000883786
0.00151197
0.00180764
0.00242551
0.00028041
2.1733e-05
4.67676e-05
0.000105297
0.000284927
0.00024243
0.000224537
0.000186106
0.000258581
0.000321173
0.000177564
0.000576642
0.000432484
0.000294536
0.000436365
0.000596649
0.000598268
0.000849367
0.00104517
0.00165735
0.000382525
0.000128634
8.98842e-05
0.00011421
0.000135862
1.14429e-05
0.000117663
0.000149073
0.000147884
0.000114043
8.80176e-05
2.54893e-05
0.000196679
0.00028065
0.000163124
5.29105e-05
0.000301224
0.000214717
0.000420966
0.000696307
0.000432002
0.00170826
0.00271421
0.00315322
0.00366361
0.00344554
0.00286365
0.00223149
0.0017868
0.00140314
0.00102611
0.000736505
0.000625354
0.000721004
0.000290968
0.000187943
0.000723558
0.00192703
0.00350549
0.00503967
0.000493698
0.00147646
0.0024166
0.00281266
0.00325205
0.00314046
0.00273401
0.00219311
0.0015797
0.00150853
0.00115942
0.000907364
0.000764194
0.000654437
0.000542124
0.000122104
0.000811362
0.0018139
0.00279314
0.0041138
0.000515721
0.00136551
0.00183044
0.00253258
0.00265537
0.00286837
0.00237712
0.00211205
0.0018701
0.00133922
0.000979891
0.000774743
0.000863422
0.000611728
0.000364565
6.15716e-05
0.000574716
0.00148679
0.0023535
0.00330241
0.000437515
0.00101543
0.00173113
0.00224664
0.00234169
0.00211967
0.00211098
0.00164037
0.00133484
0.00105835
0.000884517
0.000873015
0.000709311
0.000768389
0.000510021
0.000226483
0.000270724
0.00115208
0.00184331
0.0027965
0.000388769
0.000845506
0.00162583
0.00169082
0.00196332
0.00186547
0.00182445
0.00148715
0.0012344
0.000949579
0.000643376
0.00072217
0.000748172
0.000458767
0.000594087
0.000129914
0.000237903
0.000831716
0.00142627
0.00213952
0.000139276
0.000800765
0.000789971
0.00132901
0.00141108
0.00147892
0.00129435
0.00117131
0.000905023
0.000834306
0.000518608
0.000637167
0.000382391
0.00042618
0.000224151
0.000316102
7.65344e-05
0.000780683
0.00116874
0.00154595
0.000292017
0.000419471
0.000428053
0.000923077
0.000871983
0.000886307
0.000869955
0.000763055
0.000532662
0.00056386
0.000502436
0.000439312
0.000215226
0.000283971
0.00037607
0.000323492
0.000143571
0.000394253
0.000670924
0.000896385
0.000116806
9.92123e-06
0.000393983
0.00039776
0.000313139
0.000459097
0.000158662
0.000229829
0.000163313
0.000164475
0.000289642
0.000215154
0.000170763
8.48125e-05
1.34841e-05
6.65823e-05
1.55353e-05
0.00031784
0.000179409
0.00047047
0.00225062
0.00371096
0.00474643
0.00560358
0.00609861
0.00600511
0.00556431
0.00518815
0.00472865
0.00435585
0.00401366
0.00374848
0.00345853
0.00322151
0.00280629
0.00211333
0.00113278
5.99425e-07
0.0017396
0.00327414
0.00199198
0.00301065
0.00425625
0.00497584
0.00523771
0.00535558
0.00533315
0.00488457
0.00457454
0.00374552
0.00382194
0.00329801
0.00324426
0.00289469
0.0026387
0.00216411
0.00121164
4.09662e-05
0.00132124
0.00273848
0.00190133
0.00269935
0.00374716
0.00419747
0.00472551
0.00465426
0.00434056
0.00413994
0.00398872
0.00352428
0.0033279
0.00316556
0.00276459
0.00282658
0.002302
0.0018594
0.00126482
0.000102102
0.00109674
0.00221723
0.00160632
0.00230686
0.00311457
0.00361645
0.00382243
0.00400802
0.0037486
0.00358589
0.00317628
0.00289367
0.00297857
0.00260853
0.00252927
0.00246511
0.00204219
0.00158777
0.000891443
5.01464e-05
0.000960987
0.00200367
0.00104977
0.00179892
0.00245367
0.00275619
0.00298192
0.0032586
0.00294354
0.0027766
0.00267715
0.00239944
0.00234467
0.00199429
0.00201409
0.00197442
0.00161613
0.00125165
0.000650505
0.000365891
0.000408438
0.00141828
0.000943057
0.00120058
0.00178016
0.00221103
0.00266501
0.00231269
0.00217103
0.00189709
0.00194366
0.00169828
0.00149425
0.00163206
0.0013974
0.00132596
0.00106176
0.00108853
0.000662676
0.000256709
0.000441822
0.00109317
0.0004028
0.000757194
0.00106681
0.00123629
0.00153636
0.00155001
0.00136155
0.00123028
0.00126819
0.00106998
0.0010432
0.000986816
0.00113193
0.000686464
0.000759946
0.000495639
0.000579773
9.39416e-05
0.000234141
0.000557684
0.000273783
0.00023221
0.000331293
0.000444132
0.000255225
0.000586617
0.000472953
0.00043982
0.00034155
0.000146178
0.00060454
0.000304455
0.000284833
0.000304272
8.41939e-05
0.000326073
0.000316641
4.92004e-05
0.000116117
0.000194045
0.00364272
0.00494738
0.00637537
0.00729117
0.00798056
0.0081061
0.00787938
0.00750895
0.00732802
0.00674561
0.00664205
0.00611466
0.00594119
0.00555206
0.00477446
0.00395779
0.00286029
0.00144222
0.000276609
0.00216229
0.00310524
0.00431923
0.00546496
0.00639101
0.00690194
0.00716424
0.00700595
0.00679809
0.00650361
0.00628452
0.00566742
0.00536625
0.00523182
0.00475679
0.00468989
0.00366976
0.00282017
0.00143588
0.000448245
0.00181667
0.00271936
0.00371692
0.00493899
0.00562921
0.00613462
0.00611221
0.00613716
0.0057217
0.00559881
0.00543224
0.00493315
0.0048763
0.00447005
0.00423006
0.00377009
0.00327259
0.00243395
0.00110855
5.42797e-05
0.00141662
0.00248024
0.00316861
0.0038597
0.00462178
0.00515415
0.00525476
0.00517823
0.00503736
0.00479333
0.0045493
0.00431753
0.00424415
0.00384991
0.00349228
0.00306649
0.00273808
0.00206757
0.00109331
0.000110629
0.00130446
0.00203831
0.00270653
0.00304267
0.00384542
0.00389985
0.00414719
0.0040825
0.00391177
0.00386457
0.00373878
0.00359961
0.00333378
0.00320854
0.00293741
0.00268408
0.0021484
0.00161595
0.000776307
0.000187573
0.000930646
0.00129295
0.00176481
0.00226967
0.00283109
0.00298041
0.00299198
0.00310663
0.00299507
0.0026381
0.00265226
0.00240338
0.0023892
0.00205671
0.002106
0.00187176
0.00151223
0.00138186
0.000447249
3.70281e-05
0.000390058
0.000758688
0.00119763
0.00134032
0.00179958
0.00175889
0.00199568
0.00164431
0.00193045
0.00177243
0.00157617
0.00152099
0.00138538
0.00134767
0.00144701
0.00125939
0.00105979
0.000633931
0.000396525
0.000260234
0.000359882
0.000252352
0.000225667
0.000405206
0.000390426
0.000613168
0.000527906
0.000535763
0.000769145
0.000369014
0.000717136
0.000715524
0.000366838
0.000440923
0.000268464
0.000674621
0.000230681
0.000342471
7.05664e-06
7.49677e-05
2.42026e-05
0.00401819
0.00585117
0.00709686
0.00847623
0.00895609
0.0096057
0.00941092
0.00932822
0.00912134
0.00865506
0.00835266
0.00778878
0.00756063
0.00671355
0.00624192
0.00519347
0.00388942
0.00215594
0.000171245
0.00190757
0.00346273
0.00511457
0.00647962
0.00744643
0.00801472
0.00843198
0.00832471
0.00829532
0.00790251
0.00768474
0.00747482
0.00712742
0.00677482
0.00629164
0.00553018
0.00451958
0.0033281
0.0019509
0.000412514
0.00157718
0.00311439
0.00441924
0.00550389
0.00626025
0.00693124
0.00739758
0.00733319
0.00718229
0.0071066
0.0065476
0.00632291
0.00614993
0.00583921
0.00534257
0.00472592
0.00407771
0.00312239
0.0015313
0.000341102
0.00124275
0.00252804
0.00365289
0.00440663
0.0053514
0.00556915
0.00603861
0.00630081
0.00610161
0.00595173
0.00576624
0.00547845
0.00524736
0.00493786
0.00453953
0.00399428
0.00368653
0.00271044
0.00163316
0.000363537
0.000715691
0.00218018
0.00269421
0.00360077
0.00459167
0.00435757
0.00478458
0.00495967
0.00492824
0.00475305
0.00446474
0.00433864
0.00405539
0.00396929
0.00358607
0.00330971
0.00269134
0.00222751
0.00136606
0.000437036
0.000556928
0.0013721
0.00205073
0.00275701
0.00304181
0.00347331
0.00364203
0.00355472
0.00358733
0.0031786
0.00333359
0.00323689
0.00286933
0.00304427
0.00270039
0.00245928
0.00212241
0.00152681
0.000797993
0.000135712
0.000259275
0.000902114
0.00126807
0.0016903
0.00190867
0.00226867
0.00209083
0.00222333
0.00217272
0.00204706
0.00218694
0.00180416
0.00170957
0.0016687
0.00163782
0.00142926
0.0013816
0.000998946
0.000554966
1.82993e-05
0.000177167
0.000328211
0.000431877
0.000414302
0.000839109
0.00076258
0.000826083
0.000888777
0.000918492
0.000583904
0.000838941
0.000368171
0.000530971
0.000657988
0.000607019
0.000421944
0.000420923
0.000268323
0.000171345
9.09643e-05
0.000225287
0.00380397
0.00570231
0.007503
0.00867884
0.00954246
0.0101332
0.0103371
0.0103113
0.0100625
0.00976957
0.00927691
0.00896416
0.00821246
0.00771063
0.00672788
0.00554119
0.00436245
0.0021624
2.31744e-05
0.00183995
0.00355672
0.0049141
0.00640237
0.00775166
0.00842886
0.00892604
0.00922589
0.00912028
0.00882705
0.00876693
0.00839787
0.00794835
0.00739722
0.00668079
0.00602101
0.00506556
0.0037764
0.00212089
8.02885e-05
0.00155446
0.00309384
0.00413074
0.00561128
0.00658177
0.00733192
0.00794095
0.00778051
0.00779231
0.00777766
0.00749277
0.00754731
0.00682589
0.00649642
0.00604591
0.00530596
0.0044352
0.00333202
0.00184105
0.000307021
0.00145537
0.00246926
0.00376834
0.00436639
0.00567463
0.00626569
0.00643184
0.00669113
0.00667543
0.00661242
0.00641808
0.00589841
0.00572056
0.00547898
0.00505949
0.00439742
0.00377046
0.0027622
0.00148242
7.08074e-05
0.00110438
0.00191165
0.00284929
0.00372728
0.00438217
0.00492162
0.005295
0.005379
0.00524251
0.00504954
0.00487794
0.00477255
0.00468724
0.0042658
0.00406331
0.00344947
0.00305638
0.00202833
0.00109714
9.72847e-05
0.000610487
0.00149565
0.00196886
0.00271314
0.00316091
0.00370085
0.00386706
0.00402172
0.00396959
0.0037806
0.00374344
0.00351403
0.00338324
0.00328421
0.00291209
0.00250916
0.00238719
0.00194775
0.000967739
0.000150591
0.000546188
0.000879511
0.00134002
0.00159903
0.00227583
0.00213769
0.00228174
0.00231096
0.0023626
0.00248095
0.00221818
0.00217148
0.00194989
0.00224986
0.00198833
0.00176165
0.00167026
0.000956593
0.000555172
8.1652e-05
0.000341246
0.000300652
0.000423028
0.000576138
0.000869955
0.000572244
0.000802731
0.000871786
0.000920988
0.000691746
0.000914249
0.000641207
0.000707151
0.000526022
0.000596993
0.000770879
0.000559239
0.000358022
0.00025616
4.3263e-05
0.000210609
0.00333801
0.0050371
0.00688331
0.00849845
0.00954523
0.0100053
0.0104565
0.0108992
0.0104082
0.0100528
0.00966229
0.00926794
0.00872938
0.00777286
0.00651454
0.00532647
0.00363123
0.00161801
0.000621496
0.00298033
0.00249969
0.00446892
0.00611325
0.0072825
0.00834545
0.00899926
0.00926334
0.00945517
0.00943609
0.00901358
0.00863458
0.00825948
0.00742174
0.00693702
0.00594557
0.00501323
0.00323038
0.00136704
0.000554258
0.00260393
0.00240991
0.00376432
0.00521136
0.00636919
0.0073033
0.0078119
0.00829853
0.00838443
0.00797371
0.00782431
0.00770594
0.00710542
0.00660755
0.00594089
0.00530111
0.00417069
0.00291215
0.00113511
0.00036523
0.00215064
0.00205474
0.00334413
0.00438565
0.00523538
0.00609106
0.00646355
0.00677535
0.00655473
0.00683071
0.00677786
0.00635042
0.00606247
0.0056065
0.00510431
0.00441044
0.00362935
0.00245187
0.00102477
0.000372136
0.00196883
0.00143341
0.00244788
0.00325921
0.00416213
0.00483862
0.00514289
0.00534412
0.00570051
0.00540887
0.00532757
0.0051013
0.00481098
0.00446777
0.00413033
0.00358179
0.00294921
0.00190498
0.000822384
0.000271662
0.0013753
0.00103567
0.0018857
0.00254638
0.00304759
0.00335826
0.00384771
0.00391721
0.00380697
0.00394866
0.00381009
0.00377091
0.0034925
0.00326771
0.00299834
0.00261931
0.00214722
0.00139002
0.000650626
0.000362142
0.00078382
0.000875448
0.000877436
0.00146423
0.00197722
0.00215853
0.00232615
0.00272037
0.00243167
0.00252551
0.00235602
0.00214863
0.0021497
0.00201408
0.00164161
0.00165856
0.00120023
0.00101601
0.000326303
0.000114987
0.000545743
0.00043067
0.000266676
0.000466019
0.000629701
0.000620139
0.000833811
0.00094697
0.000886602
0.000781321
0.000828366
0.000702395
0.000526999
0.0007682
0.000542846
0.000768581
0.000439207
0.000228509
6.34077e-05
2.68231e-05
6.59484e-05
0.00151801
0.00349591
0.00550057
0.00725497
0.00858178
0.00951847
0.00973195
0.0100809
0.0100055
0.00976047
0.00933937
0.0087732
0.00804838
0.00700532
0.00587299
0.00423342
0.00251578
0.000100288
0.0022796
0.0046263
0.00132713
0.00314366
0.0048622
0.00640799
0.00748324
0.00832347
0.0086938
0.00889501
0.00893485
0.00874938
0.00848358
0.00803888
0.00711839
0.00637845
0.00511039
0.00387782
0.00218296
0.000181708
0.00189694
0.00401115
0.00116092
0.00252442
0.00413398
0.00550354
0.00639432
0.00723768
0.00753089
0.0074747
0.00786243
0.00765201
0.00734985
0.00683093
0.00618515
0.00562951
0.00468252
0.00356611
0.00222656
0.000204448
0.00167617
0.00343556
0.000828418
0.00219862
0.00347265
0.00455251
0.00559536
0.0059279
0.00639771
0.00632213
0.00632673
0.00631095
0.00589933
0.00591038
0.00511497
0.0046846
0.00382526
0.00296007
0.00160811
0.00027978
0.00119359
0.00287982
0.000689576
0.00179115
0.00279975
0.00352801
0.00433446
0.00461433
0.00503015
0.00523609
0.00519869
0.00493183
0.00493819
0.00461527
0.00442461
0.0038919
0.00319409
0.0022491
0.00115498
0.000161547
0.00114864
0.00206933
0.000672439
0.00104485
0.00188556
0.00269972
0.00327718
0.00345409
0.00355161
0.00381556
0.00403797
0.00359653
0.00354454
0.00324525
0.00318147
0.00261657
0.00222228
0.00178377
0.00115603
0.000240931
0.000623414
0.00157585
0.000108443
0.000733802
0.00118039
0.00173734
0.00173931
0.002222
0.00212812
0.00240335
0.00231538
0.00242748
0.00198222
0.0022257
0.00163949
0.00185834
0.00143114
0.000806639
0.000509203
0.000145452
0.000523024
0.000900068
0.000254617
7.54996e-05
0.000292863
0.000577219
0.000648828
0.000725689
0.000880838
0.000815857
0.000831286
0.000846684
0.000685825
0.000578792
0.000518103
0.000739284
0.00050124
0.000366955
6.55109e-05
3.82926e-05
0.0003085
0.000278177
0.000800931
0.00122504
0.0034063
0.00535782
0.00679446
0.00790852
0.0086058
0.00873248
0.00874264
0.00859579
0.00825083
0.00753117
0.00681695
0.00550361
0.00434274
0.00238322
0.000630247
0.0018638
0.0046152
0.00697883
0.000779889
0.00100742
0.00316489
0.00469467
0.00586502
0.00679328
0.00741375
0.00783463
0.00775749
0.0076833
0.00749961
0.00680175
0.00610185
0.00522381
0.00384587
0.00229485
0.000560948
0.00190696
0.0039751
0.00603732
0.000433305
0.000782839
0.00267205
0.00402818
0.00509543
0.00582146
0.00667488
0.00674413
0.00678332
0.00652997
0.00631538
0.00580591
0.00528044
0.00438281
0.00343834
0.00205932
0.000502801
0.00131733
0.00344961
0.00530417
0.000338032
0.000818603
0.00220251
0.00339558
0.00439343
0.00501614
0.00549932
0.00548362
0.00569238
0.005674
0.00534073
0.00488158
0.00431087
0.00359875
0.00265973
0.00181627
0.000398793
0.00102489
0.0027135
0.00415
0.00054264
0.000603689
0.00149052
0.00247664
0.003383
0.00384369
0.00429673
0.00437003
0.00442556
0.00452176
0.00393882
0.0041334
0.00358559
0.00284005
0.00225711
0.00119375
0.000329353
0.000824069
0.00206591
0.00338474
0.000171118
0.00010686
0.00115371
0.00198452
0.00252697
0.00301648
0.00309819
0.0032094
0.00305588
0.00321999
0.00301047
0.00283542
0.00257487
0.00209236
0.00172615
0.00086842
0.000161907
0.000725092
0.00155101
0.00244948
0.000124486
0.000373512
0.000627712
0.00104595
0.00170274
0.00184789
0.00182016
0.00217734
0.0019783
0.00191524
0.00198016
0.00178966
0.00163152
0.00124461
0.000913376
0.000735831
0.000193878
0.000251285
0.00101244
0.00161394
2.38374e-05
0.000265375
0.000317332
0.000393061
0.000516069
0.000487785
0.000631896
0.00055792
0.000721696
0.000491929
0.000743734
0.000556427
0.000280632
0.000520184
0.000262626
0.000397147
0.000139995
0.000156113
0.000275471
0.000493862
0.00387394
0.00145746
0.000731441
0.00270139
0.00413908
0.00560315
0.00625045
0.00671653
0.00668167
0.00659848
0.00614143
0.00550233
0.00457244
0.00353153
0.00182284
3.27446e-05
0.00203489
0.00439566
0.00758405
0.0103524
0.00338593
0.00177276
0.000630017
0.0024234
0.00372433
0.00493772
0.00549774
0.00590748
0.00612327
0.00605346
0.00540826
0.00498696
0.00409216
0.00309562
0.00162519
0.000208198
0.00178538
0.00406395
0.00634953
0.00901857
0.00290972
0.00116977
0.000494288
0.00203344
0.00314477
0.00416902
0.00480944
0.0052698
0.00519582
0.00525552
0.00470121
0.00419634
0.00355173
0.00266057
0.00159963
0.000244424
0.00149071
0.00353802
0.00572396
0.0077835
0.00230247
0.00110426
0.000389571
0.00183981
0.00264358
0.00316519
0.00385423
0.00398711
0.00425617
0.00446796
0.0039187
0.00356668
0.00300393
0.00235963
0.00129313
0.000131839
0.00157987
0.00294737
0.00496916
0.00648295
0.00198417
0.000932762
0.000213109
0.00108594
0.00196209
0.00263652
0.00311527
0.00337164
0.00341303
0.00331476
0.00323209
0.00289609
0.00246226
0.00166623
0.00116655
0.000207445
0.00102925
0.00238176
0.00378083
0.00505974
0.00150956
0.000804231
0.000127309
0.000795413
0.00152189
0.00194263
0.00228411
0.00243948
0.00255526
0.00251718
0.00243827
0.00214603
0.00192992
0.00152614
0.000997882
3.79276e-05
0.000827593
0.0015678
0.00287868
0.00371811
0.00121349
0.000256753
4.38694e-05
0.000746229
0.000914805
0.00133619
0.00143027
0.00160375
0.00161471
0.00155841
0.00144736
0.00132372
0.00106832
0.000842736
0.000457471
0.000135318
0.000467302
0.00117238
0.00183352
0.00221624
0.000156644
6.6793e-06
0.000226263
0.000245558
0.000379525
0.000353826
0.000474739
0.000607297
0.000666093
0.000556697
0.000412206
0.000353114
0.00039272
0.000170381
8.34152e-05
0.000101107
0.000264536
0.000324136
0.00043783
0.000855481
0.00745529
0.00521978
0.00293406
0.00067603
0.00103678
0.00233798
0.00320566
0.00362856
0.00401275
0.00379645
0.00336196
0.00288243
0.0015478
0.000318139
0.00122348
0.00314749
0.00559891
0.00812214
0.0113089
0.0139051
0.0069101
0.00474093
0.00262947
0.000603026
0.00092935
0.00212055
0.0027842
0.00345672
0.00355334
0.00311724
0.00300221
0.0023497
0.0016228
0.000317383
0.00106616
0.00282309
0.00486783
0.00743698
0.0100471
0.0121621
0.00600774
0.0040698
0.00227673
0.000473934
0.000751316
0.00166331
0.00229492
0.00291918
0.00298859
0.00290828
0.00274039
0.00216053
0.00168779
4.74161e-05
0.00099416
0.00244046
0.00436601
0.00642849
0.00865656
0.0106929
0.00499174
0.0034446
0.00182213
0.000479508
0.000717419
0.00137238
0.00206103
0.00226004
0.00244373
0.00218316
0.00229762
0.00187792
0.00104086
0.000160908
0.000798951
0.00186006
0.0036709
0.00521343
0.00713129
0.00881147
0.0041009
0.00276954
0.00173198
0.000541216
0.000372058
0.00115797
0.00155073
0.00177414
0.00196987
0.00198232
0.00166285
0.00135436
0.000772674
0.000147662
0.000400061
0.00163802
0.00285289
0.00432313
0.00580828
0.00677761
0.00270426
0.00207626
0.00117613
0.000610053
5.71752e-05
0.00075751
0.000992664
0.00120004
0.00149708
0.00148132
0.00151719
0.00104271
0.000589839
0.000280669
0.000562355
0.00142227
0.00203278
0.00312729
0.00412174
0.00538568
0.00186193
0.00106295
0.000898923
7.79717e-05
0.000145495
0.000615849
0.000811832
0.000794049
0.000881217
0.000806662
0.000991013
0.000584438
0.000410616
0.000159597
0.000254323
0.000850912
0.00143027
0.00197113
0.00257761
0.00290219
0.000631157
0.000324411
8.35774e-05
8.06602e-05
5.59305e-05
0.000190985
0.000133747
0.000497109
0.000355435
0.000314882
0.000260902
0.000235296
0.000164616
2.69666e-07
0.000140948
0.000137074
0.000419924
0.000765989
0.000929616
0.000995836
0.0125037
0.00966815
0.00696815
0.00484579
0.00304148
0.00163342
0.0006105
4.03762e-05
0.000139363
0.000157103
0.000250484
0.000896816
0.00217588
0.00337683
0.00510359
0.00728631
0.00998421
0.0125837
0.0154679
0.0186226
0.010952
0.00883975
0.00643486
0.00418971
0.00273777
0.00144309
0.000599702
2.81618e-05
0.000235267
0.000121187
0.000304335
0.000903158
0.0016775
0.0031059
0.00451058
0.00644246
0.00875589
0.0113233
0.0139651
0.0163245
0.00938896
0.0076177
0.0055634
0.00375588
0.00232095
0.0011043
0.000467645
0.000114897
0.000239281
0.000267423
0.000316839
0.000692843
0.00151804
0.0027642
0.00409558
0.00548181
0.00755739
0.00944089
0.0122081
0.0140531
0.00788776
0.00673616
0.00455252
0.00312045
0.00207229
0.00094394
0.000431089
0.000123275
0.000116625
3.54598e-05
0.000222099
0.000813574
0.00122257
0.00226823
0.00348241
0.0046903
0.0063183
0.00808475
0.00988819
0.0116825
0.00627039
0.00508642
0.00380645
0.00271397
0.00161245
0.000806171
0.000464138
3.00123e-05
4.09179e-05
0.000108914
0.000121776
0.000445751
0.00101009
0.00189904
0.00269533
0.00384328
0.00487154
0.006492
0.00779294
0.0095489
0.00468233
0.0035187
0.00285766
0.00188435
0.00124408
0.000653666
0.000189183
0.000251989
0.000185082
0.000133668
0.000145173
0.00049293
0.000908816
0.00144201
0.00194633
0.00295082
0.00353744
0.00502591
0.0059583
0.00688136
0.00303424
0.00240995
0.00184658
0.00131439
0.000960981
0.000373954
0.000152941
0.000118601
0.00011242
0.00010956
0.000145415
0.000216838
0.000451256
0.000960762
0.00128385
0.00187158
0.00216989
0.00288323
0.00364333
0.00426247
0.00110866
0.00094152
0.00048079
0.000583918
0.000367479
0.000139556
3.58106e-05
0.000159503
5.30316e-05
4.99412e-05
7.3096e-05
3.89194e-05
0.000494456
0.000469302
0.000328354
0.000432066
0.000810418
0.000767296
0.00128313
0.00155118
0.0173642
0.014829
0.0121072
0.00975536
0.00768082
0.00628065
0.00501087
0.00444241
0.00438193
0.00430352
0.00462613
0.00543096
0.00678332
0.00801842
0.00979823
0.011819
0.0143947
0.0175644
0.0207596
0.0237824
0.0154295
0.0133744
0.0107355
0.00864231
0.00686603
0.00574126
0.0046524
0.00389231
0.00375223
0.00376906
0.00409313
0.00480954
0.00582772
0.00722521
0.00877303
0.0107335
0.0129873
0.0156741
0.0183868
0.0209851
0.0133664
0.0115759
0.00930089
0.00763741
0.0062007
0.00486876
0.00399454
0.00365099
0.00324647
0.00322495
0.00353728
0.00422974
0.00503692
0.00605356
0.00757583
0.00917435
0.0112221
0.0135431
0.0159278
0.0181093
0.0111665
0.00964214
0.00797345
0.00625225
0.00516451
0.00398123
0.00335561
0.00289523
0.00284525
0.00287348
0.00292894
0.00372736
0.00422102
0.00498402
0.00664759
0.00772224
0.00951361
0.0114988
0.0134433
0.0153148
0.00931423
0.00768663
0.00650565
0.0052664
0.00391657
0.00337247
0.00271447
0.00248437
0.00219246
0.00232893
0.00226569
0.00299058
0.0033498
0.00451395
0.00521223
0.00626058
0.0076076
0.00926032
0.0106694
0.0121023
0.00674817
0.00577479
0.00441771
0.0038256
0.00304234
0.0024983
0.00203128
0.00171869
0.00150094
0.0017452
0.0017771
0.00201183
0.00249124
0.00305647
0.0037223
0.00475126
0.00564638
0.00664395
0.0080355
0.00872399
0.00400471
0.00367905
0.00282314
0.00240229
0.00205568
0.00153663
0.00152183
0.00127472
0.000916585
0.00109818
0.00108028
0.00127119
0.0015118
0.00182885
0.00233736
0.00267681
0.00344135
0.00389378
0.00499291
0.00550356
0.00138638
0.00148571
0.000870375
0.000705697
0.000614464
0.000380034
0.000379948
0.000423297
0.000333114
0.00044805
0.000460658
0.000214574
0.000493814
0.000659864
0.000878744
0.0010046
0.00138765
0.00125728
0.00163346
0.00192822
0.0230649
0.0205925
0.0174209
0.0152437
0.0132062
0.0114754
0.0105674
0.00957308
0.00928649
0.00918424
0.00979382
0.0105707
0.0118191
0.0133875
0.0148823
0.0175611
0.0200096
0.0233112
0.0263362
0.029387
0.0207
0.0183468
0.0155953
0.0135791
0.0115144
0.0102899
0.00932706
0.0086338
0.00831557
0.00837915
0.00873017
0.0091678
0.010433
0.0118098
0.0133878
0.0155452
0.0177319
0.0205033
0.0234666
0.025988
0.0182288
0.0158714
0.0138048
0.0118235
0.0101003
0.0090706
0.00796461
0.00747475
0.00738452
0.00738648
0.00749536
0.00822973
0.00920252
0.0101999
0.0115318
0.013394