/*--------------------------------*- C++ -*----------------------------------*\
| =========                 |                                                 |
| \\      /  F ield         | OpenFOAM: The Open Source CFD Toolbox           |
|  \\    /   O peration     | Version:  2212                                  |
|   \\  /    A nd           | Website:  www.openfoam.com                      |
|    \\/     M anipulation  |                                                 |
\*---------------------------------------------------------------------------*/
FoamFile
{
    version     2.0;
    format      ascii;
    arch        "LSB;label=32;scalar=64";
    class       volScalarField;
    location    "0";
    object      stateMean;
}
// * * * * * * * * * * * * * * * * * * * * * * * * * * * * * * * * * * * * * //

dimensions      [0 0 0 1 0 0 0];

internalField   nonuniform List<scalar> 
3200
(
342.057
342.836
343.73
344.509
345.122
345.691
346.126
346.407
346.503
346.559
346.421
346.218
345.887
345.45
344.84
344.025
343.247
342.194
341.311
340.407
336.613
337.313
338.158
338.784
339.337
339.772
340.196
340.432
340.501
340.518
340.502
340.277
340.018
339.528
338.971
338.431
337.642
336.862
335.997
335.298
331.165
331.769
332.345
332.926
333.446
333.822
334.169
334.316
334.511
334.487
334.408
334.211
333.921
333.675
333.167
332.668
331.994
331.262
330.612
329.985
325.604
326.032
326.567
327.105
327.497
327.806
328.044
328.127
328.302
328.291
328.287
328.062
327.88
327.612
327.286
326.836
326.297
325.756
325.046
324.665
319.973
320.307
320.67
321.118
321.401
321.66
321.868
321.997
322.037
322.083
322.047
321.947
321.77
321.573
321.275
320.901
320.504
320.095
319.637
319.182
314.303
314.573
314.777
315.088
315.278
315.434
315.596
315.822
315.819
315.794
315.836
315.615
315.588
315.466
315.252
315.005
314.739
314.386
314.003
313.788
308.492
308.789
308.83
309.117
309.17
309.355
309.385
309.535
309.501
309.603
309.505
309.445
309.277
309.255
309.219
309
308.855
308.657
308.435
308.28
302.894
302.906
302.995
302.969
303.061
303.1
303.13
303.202
303.17
303.116
303.131
303.195
303.113
303.149
303.094
303.055
302.944
302.887
302.862
302.783
343.136
343.928
344.826
345.613
346.345
346.877
347.259
347.652
347.686
347.674
347.582
347.343
347.011
346.484
345.85
345.162
344.261
343.31
342.337
341.365
337.535
338.217
338.915
339.707
340.312
340.723
341.068
341.428
341.518
341.583
341.446
341.231
340.923
340.437
339.93
339.314
338.469
337.794
336.761
336.085
331.878
332.401
333.091
333.654
334.155
334.567
334.901
335.188
335.221
335.263
335.162
335.005
334.695
334.392
333.943
333.328
332.71
332.024
331.263
330.647
326.118
326.611
327.03
327.605
328.021
328.334
328.571
328.848
328.891
328.96
328.908
328.678
328.433
328.135
327.811
327.378
326.859
326.298
325.654
325.189
320.377
320.762
321.174
321.492
321.895
322.115
322.277
322.404
322.523
322.56
322.502
322.405
322.207
322.025
321.69
321.389
320.954
320.489
319.944
319.623
314.581
314.874
315.129
315.371
315.64
315.777
316.028
316.12
316.1
316.143
316.079
316.052
315.93
315.791
315.461
315.298
314.984
314.661
314.31
313.988
308.758
308.884
309.131
309.234
309.412
309.453
309.65
309.609
309.674
309.771
309.684
309.587
309.492
309.421
309.273
309.188
309.022
308.843
308.637
308.455
302.946
302.928
303.064
303.151
303.189
303.223
303.2
303.208
303.358
303.255
303.286
303.241
303.193
303.159
303.147
303.072
302.966
303.023
302.848
302.836
344.54
345.4
346.179
347.049
347.741
348.334
348.774
349.033
349.324
349.363
349.172
348.92
348.502
348.042
347.305
346.602
345.67
344.708
343.636
342.719
338.613
339.418
340.18
340.93
341.543
342.052
342.374
342.636
342.848
342.881
342.732
342.48
342.185
341.71
341.142
340.452
339.758
338.874
337.951
337.257
332.801
333.446
334.075
334.694
335.239
335.599
335.989
336.221
336.31
336.362
336.282
336.111
335.811
335.403
334.915
334.371
333.765
332.924
332.188
331.575
326.868
327.372
327.933
328.449
328.94
329.219
329.49
329.728
329.673
329.819
329.676
329.57
329.418
329.041
328.587
328.197
327.649
327.028
326.41
325.942
320.946
321.274
321.763
322.15
322.51
322.786
322.968
323.126
323.223
323.178
323.148
323.109
322.965
322.689
322.346
321.971
321.544
321.081
320.597
320.192
314.943
315.259
315.535
315.839
316.13
316.301
316.455
316.545
316.613
316.65
316.559
316.543
316.375
316.166
316.032
315.763
315.456
315.061
314.791
314.457
309.024
309.137
309.342
309.532
309.682
309.76
309.865
310.035
309.979
309.96
310.013
309.93
309.88
309.731
309.58
309.437
309.336
309.103
308.873
308.734
303.014
303.066
303.091
303.118
303.212
303.217
303.274
303.343
303.306
303.377
303.341
303.372
303.312
303.246
303.222
303.167
303.164
303.124
303.012
302.847
345.916
346.801
347.788
348.688
349.436
350.067
350.375
350.717
350.897
350.94
350.83
350.484
350.174
349.655
348.898
348.191
347.246
346.235
345.096
344.073
339.907
340.753
341.501
342.242
342.871
343.39
343.821
344.054
344.326
344.272
344.213
343.875
343.595
343.145
342.546
341.82
341.036
340.186
339.228
338.393
333.909
334.563
335.19
335.801
336.346
336.791
337.137
337.373
337.48
337.565
337.438
337.208
336.969
336.576
336.114
335.483
334.823
334.092
333.299
332.643
327.737
328.294
328.87
329.344
329.856
330.146
330.476
330.64
330.75
330.743
330.702
330.627
330.311
330.013
329.511
329.106
328.496
327.851
327.292
326.748
321.613
322.03
322.415
322.889
323.197
323.551
323.762
323.858
323.89
323.985
323.926
323.807
323.589
323.357
323.03
322.666
322.206
321.735
321.29
320.893
315.426
315.744
316.069
316.387
316.645
316.831
316.987
317.052
317.12
317.152
317.105
317.07
316.886
316.722
316.507
316.25
315.992
315.563
315.259
314.909
309.334
309.521
309.654
309.812
310.009
310.135
310.257
310.236
310.292
310.313
310.358
310.193
310.16
310.096
309.925
309.736
309.594
309.377
309.191
308.908
303.043
303.151
303.205
303.244
303.367
303.376
303.452
303.407
303.432
303.456
303.464
303.469
303.392
303.331
303.324
303.31
303.188
303.167
303.062
302.948
347.427
348.36
349.333
350.16
351.026
351.621
352.031
352.324
352.541
352.602
352.469
352.171
351.76
351.279
350.516
349.679
348.806
347.716
346.547
345.527
341.231
341.981
342.84
343.558
344.304
344.847
345.237
345.497
345.607
345.753
345.632
345.375
345.004
344.521
343.953
343.23
342.316
341.393
340.523
339.66
334.985
335.613
336.221
336.949
337.494
338.056
338.339
338.626
338.815
338.779
338.658
338.445
338.204
337.743
337.212
336.579
335.905
335.108
334.366
333.706
328.673
329.14
329.744
330.315
330.759
331.086
331.449
331.601
331.722
331.747
331.689
331.569
331.293
331.005
330.555
330.061
329.486
328.795
328.2
327.61
322.347
322.707
323.244
323.578
323.986
324.265
324.537
324.666
324.756
324.754
324.655
324.59
324.427
324.095
323.853
323.393
322.955
322.451
321.974
321.533
315.938
316.298
316.498
316.892
317.146
317.39
317.534
317.666
317.704
317.746
317.646
317.619
317.415
317.259
316.992
316.799
316.447
316.001
315.676
315.406
309.643
309.773
309.898
310.184
310.305
310.444
310.56
310.629
310.631
310.68
310.661
310.602
310.459
310.378
310.286
310.135
309.854
309.643
309.435
309.276
303.238
303.23
303.393
303.44
303.46
303.548
303.498
303.554
303.559
303.572
303.61
303.574
303.536
303.424
303.413
303.385
303.314
303.178
303.179
303.06
348.881
349.863
350.822
351.767
352.598
353.204
353.633
353.987
354.178
354.231
354.111
353.832
353.378
352.809
352.081
351.202
350.203
349.165
347.963
346.958
342.456
343.204
344.147
344.952
345.611
346.204
346.7
346.967
347.164
347.037
347.063
346.723
346.4
345.859
345.269
344.554
343.66
342.674
341.722
340.839
336.053
336.652
337.439
338.062
338.721
339.163
339.483
339.771
339.976
339.954
339.887
339.697
339.305
338.971
338.369
337.755
337.075
336.213
335.378
334.671
329.553
330.05
330.67
331.221
331.682
332.124
332.385
332.622
332.695
332.712
332.74
332.507
332.272
331.96
331.474
330.944
330.321
329.626
328.974
328.365
322.945
323.392
323.878
324.274
324.653
325.039
325.206
325.377
325.508
325.503
325.485
325.286
325.13
324.892
324.507
324.093
323.593
323.203
322.679
322.148
316.467
316.694
317.072
317.422
317.785
317.884
318.032
318.105
318.236
318.22
318.155
318.137
317.947
317.764
317.488
317.285
316.932
316.428
316.174
315.823
309.843
310.04
310.253
310.433
310.657
310.788
310.845
310.9
310.982
310.956
310.948
310.894
310.869
310.635
310.543
310.334
310.23
309.951
309.732
309.545
303.342
303.357
303.427
303.505
303.49
303.634
303.638
303.66
303.654
303.606
303.746
303.642
303.613
303.586
303.482
303.512
303.466
303.312
303.252
303.2
350.361
351.268
352.339
353.274
354.139
354.785
355.253
355.578
355.844
355.81
355.773
355.415
355.025
354.433
353.612
352.726
351.72
350.612
349.442
348.334
343.699
344.498
345.383
346.233
346.947
347.558
347.977
348.3
348.482
348.556
348.342
348.088
347.758
347.2
346.704
345.833
345.004
343.999
342.862
342.013
337.057
337.71
338.536
339.217
339.843
340.275
340.684
340.875
341.074
341.143
340.974
340.829
340.451
340.038
339.483
338.876
338.139
337.245
336.477
335.667
330.438
330.919
331.486
332.103
332.652
333.044
333.345
333.57
333.685
333.706
333.629
333.502
333.176
332.786
332.319
331.852
331.258
330.572
329.91
329.19
323.729
324.141
324.511
325.055
325.362
325.721
325.954
326.11
326.246
326.284
326.239
326.073
325.881
325.583
325.247
324.794
324.333
323.778
323.205
322.769
316.91
317.198
317.544
317.926
318.179
318.382
318.599
318.714
318.709
318.77
318.691
318.629
318.416
318.281
318.026
317.714
317.466
316.967
316.651
316.378
310.153
310.371
310.528
310.791
310.903
311.096
311.095
311.274
311.29
311.263
311.246
311.169
311.093
311.033
310.867
310.686
310.43
310.235
310.081
309.806
303.402
303.421
303.513
303.549
303.659
303.672
303.712
303.812
303.713
303.83
303.829
303.712
303.713
303.63
303.717
303.543
303.535
303.392
303.376
303.318
351.658
352.731
353.71
354.773
355.527
356.319
356.761
357.155
357.386
357.381
357.273
356.914
356.529
355.808
355.132
354.201
353.159
351.974
350.739
349.583
344.834
345.765
346.701
347.536
348.238
348.869
349.274
349.629
349.755
349.818
349.745
349.486
349.102
348.569
347.865
347.03
346.115
345.141
344.148
343.102
338.048
338.789
339.548
340.226
340.88
341.449
341.8
342.058
342.254
342.181
342.105
341.929
341.602
341.125
340.544
339.914
339.165
338.206
337.413
336.579
331.154
331.769
332.338
332.996
333.418
333.909
334.3
334.487
334.618
334.651
334.555
334.383
334.1
333.715
333.231
332.793
332.121
331.42
330.681
330.083
324.321
324.673
325.215
325.804
325.999
326.399
326.692
326.878
326.962
326.941
326.9
326.735
326.566
326.246
325.92
325.459
325.037
324.491
323.943
323.435
317.325
317.672
318.073
318.354
318.685
318.924
319.065
319.215
319.185
319.288
319.257
319.087
319.042
318.794
318.548
318.256
317.874
317.451
317.065
316.808
310.432
310.623
310.861
311.043
311.271
311.327
311.469
311.537
311.558
311.633
311.514
311.454
311.381
311.287
311.121
310.995
310.76
310.508
310.224
310.097
303.504
303.561
303.591
303.759
303.774
303.831
303.884
303.921
303.839
303.927
303.784
303.823
303.842
303.798
303.708
303.671
303.585
303.517
303.458
303.472
352.926
354
355.143
356.101
356.951
357.682
358.225
358.606
358.797
358.839
358.664
358.407
357.861
357.294
356.476
355.536
354.577
353.26
351.985
350.942
346.03
346.842
347.795
348.73
349.437
350.061
350.573
350.873
351.012
351.117
350.989
350.707
350.274
349.689
349.053
348.271
347.355
346.315
345.118
344.268
339.026
339.661
340.532
341.256
341.91
342.498
342.788
343.077
343.275
343.284
343.303
342.951
342.636
342.198
341.603
340.926
340.155
339.255
338.368
337.488
331.942
332.601
333.1
333.858
334.38
334.747
335.114
335.342
335.487
335.509
335.335
335.19
334.943
334.571
334.071
333.551
332.891
332.144
331.375
330.758
324.861
325.341
325.859
326.324
326.751
327.115
327.36
327.497
327.563
327.574
327.54
327.445
327.179
326.932
326.514
326.145
325.559
325.005
324.449
324.043
317.813
318.087
318.49
318.812
319.164
319.389
319.594
319.706
319.738
319.775
319.702
319.612
319.488
319.241
318.957
318.746
318.426
317.935
317.51
317.165
310.694
310.911
311.091
311.408
311.473
311.622
311.725
311.818
311.91
311.857
311.843
311.745
311.783
311.624
311.461
311.328
310.998
310.766
310.52
310.315
303.585
303.647
303.727
303.852
303.798
303.903
303.955
303.996
303.944
304.022
303.939
303.949
303.876
303.871
303.893
303.794
303.697
303.63
303.532
303.43
354.282
355.263
356.392
357.469
358.345
358.99
359.582
360.095
360.175
360.181
360.042
359.769
359.323
358.627
357.749
356.848
355.744
354.529
353.262
352.051
346.983
347.987
348.967
349.81
350.616
351.26
351.726
352.1
352.313
352.281
352.149
351.903
351.391
350.916
350.197
349.457
348.403
347.321
346.247
345.217
339.91
340.636
341.473
342.236
342.923
343.448
343.93
344.219
344.264
344.31
344.27
343.968
343.613
343.125
342.593
341.857
341.06
340.089
339.235
338.364
332.717
333.361
333.988
334.572
335.159
335.571
335.933
336.072
336.315
336.377
336.234
336.058
335.755
335.375
334.887
334.339
333.646
332.871
332.126
331.381
325.417
325.911
326.393
326.921
327.375
327.699
327.964
328.246
328.268
328.303
328.229
328.073
327.843
327.568
327.19
326.76
326.186
325.601
325.027
324.504
318.174
318.562
318.927
319.254
319.519
319.835
320
320.082
320.211
320.211
320.199
320.066
319.91
319.707
319.444
319.134
318.726
318.324
317.847
317.596
310.997
311.068
311.343
311.603
311.759
311.907
312.116
312.096
312.175
312.149
312.084
312.058
311.966
311.78
311.699
311.461
311.304
310.989
310.759
310.555
303.727
303.7
303.793
303.875
303.906
304.003
304.066
304.071
304.056
304.079
304.04
303.979
304.035
303.943
303.983
303.851
303.753
303.632
303.611
303.616
355.335
356.393
357.548
358.639
359.577
360.351
360.821
361.269
361.472
361.504
361.354
361.031
360.542
359.846
359.049
358.026
356.952
355.628
354.341
353.155
348.048
348.981
349.96
350.903
351.68
352.356
352.826
353.176
353.389
353.427
353.334
353.075
352.554
352.016
351.233
350.422
349.43
348.33
347.227
346.193
340.732
341.446
342.316
343.125
343.769
344.38
344.767
344.985
345.286
345.3
345.197
344.932
344.543
344.116
343.506
342.803
342.007
340.977
340.015
339.168
333.33
333.988
334.674
335.314
335.939
336.314
336.706
336.874
337.013
337.079
336.941
336.873
336.47
336.133
335.611
335.059
334.331
333.609
332.857
332.095
325.969
326.482
327.014
327.468
327.947
328.243
328.561
328.779
328.873
328.842
328.844
328.682
328.513
328.189
327.779
327.266
326.694
326.154
325.524
325.07
318.627
318.854
319.267
319.681
320.019
320.222
320.383
320.575
320.722
320.62
320.603
320.469
320.372
320.084
319.829
319.543
319.189
318.743
318.322
317.911
311.1
311.359
311.585
311.851
311.945
312.182
312.231
312.381
312.4
312.458
312.319
312.372
312.143
312.147
311.936
311.654
311.469
311.263
310.968
310.786
303.787
303.755
303.85
303.967
304.02
304.074
304.147
304.148
304.168
304.18
304.131
304.091
304.057
304.104
304.005
303.934
303.812
303.773
303.638
303.626
356.385
357.438
358.627
359.754
360.694
361.495
362.103
362.44
362.65
362.705
362.581
362.215
361.751
360.989
360.217
359.114
358.063
356.744
355.353
354.182
348.941
349.845
350.952
351.86
352.638
353.311
353.838
354.239
354.39
354.458
354.393
354.054
353.63
353.069
352.277
351.387
350.412
349.178
348.104
347.105
341.567
342.215
343.158
343.937
344.614
345.157
345.711
345.948
346.113
346.104
346.031
345.777
345.446
344.924
344.339
343.573
342.729
341.793
340.767
339.902
334.069
334.643
335.348
336.004
336.593
337.042
337.418
337.587
337.781
337.839
337.727
337.509
337.193
336.781
336.252
335.73
335.001
334.268
333.462
332.795
326.445
326.962
327.44
327.963
328.457
328.795
329.109
329.269
329.382
329.464
329.273
329.286
329.011
328.632
328.275
327.741
327.261
326.684
326.09
325.516
318.985
319.176
319.644
320.052
320.367
320.656
320.801
320.933
320.953
321.04
320.973
320.882
320.73
320.479
320.244
319.837
319.47
319.044
318.647
318.259
311.404
311.62
311.78
311.996
312.285
312.41
312.473
312.642
312.621
312.623
312.643
312.562
312.472
312.293
312.119
311.983
311.73
311.506
311.189
310.94
303.83
303.938
303.98
304.032
304.098
304.116
304.184
304.181
304.244
304.182
304.258
304.194
304.096
304.15
304.048
304.062
303.956
303.837
303.773
303.687
357.338
358.511
359.674
360.776
361.682
362.573
363.129
363.559
363.731
363.798
363.633
363.305
362.784
362.147
361.21
360.203
359.072
357.831
356.311
355.014
349.81
350.634
351.805
352.776
353.57
354.313
354.789
355.161
355.397
355.456
355.228
354.996
354.52
353.941
353.145
352.331
351.295
350.154
349.027
347.833
342.227
343.04
343.886
344.704
345.37
345.989
346.445
346.796
346.906
346.997
346.806
346.561
346.203
345.704
345.104
344.371
343.491
342.5
341.476
340.555
334.648
335.222
335.948
336.67
337.173
337.567
337.992
338.193
338.394
338.524
338.339
338.162
337.862
337.488
336.937
336.328
335.521
334.827
333.925
333.245
326.936
327.413
327.962
328.431
328.9
329.291
329.598
329.804
329.904
329.916
329.889
329.734
329.505
329.121
328.808
328.324
327.737
327.111
326.48
325.929
319.246
319.566
319.988
320.333
320.694
320.949
321.166
321.303
321.402
321.421
321.396
321.271
321.14
320.923
320.647
320.195
319.813
319.445
318.902
318.54
311.479
311.833
311.973
312.299
312.429
312.633
312.727
312.833
312.873
312.875
312.84
312.782
312.666
312.543
312.359
312.185
311.92
311.621
311.341
311.166
303.928
303.992
303.95
304.121
304.187
304.204
304.261
304.32
304.35
304.323
304.279
304.254
304.254
304.169
304.121
304.103
303.966
303.92
303.861
303.716
358.276
359.365
360.537
361.713
362.685
363.485
364.089
364.478
364.783
364.79
364.632
364.372
363.722
363.041
362.193
361.169
359.931
358.661
357.166
355.948
350.501
351.506
352.551
353.579
354.425
355.132
355.618
356.061
356.238
356.158
356.117
355.811
355.41
354.744
354.003
353.096
352.07
350.851
349.632
348.648
342.8
343.667
344.537
345.423
346.105
346.661
347.092
347.48
347.626
347.66
347.602
347.339
347.054
346.313
345.741
345.001
344.078
343.103
342.084
341.184
335.086
335.766
336.519
337.187
337.802
338.221
338.626
338.835
338.996
338.959
338.998
338.805
338.423
337.984
337.487
336.932
336.111
335.375
334.524
333.8
327.286
327.846
328.347
328.906
329.371
329.783
330.048
330.231
330.373
330.417
330.311
330.17
329.901
329.586
329.27
328.71
328.145
327.495
326.847
326.407
319.612
319.9
320.303
320.603
320.935
321.269
321.442
321.586
321.737
321.76
321.771
321.591
321.39
321.213
320.845
320.461
320.147
319.677
319.245
318.753
311.726
312.027
312.147
312.476
312.615
312.829
312.948
312.989
313.05
313.043
313.101
312.957
312.869
312.744
312.556
312.304
312.053
311.812
311.554
311.401
303.935
304.045
304.192
304.166
304.232
304.295
304.297
304.423
304.391
304.385
304.368
304.355
304.322
304.256
304.194
304.173
304.063
303.934
303.861
303.824
358.842
360.131
361.43
362.53
363.505
364.314
364.947
365.365
365.578
365.66
365.511
365.199
364.585
363.937
363.048
361.957
360.658
359.386
358.022
356.619
351.15
352.119
353.246
354.328
355.121
355.839
356.364
356.77
356.971
356.996
356.844
356.565
356.162
355.471
354.746
353.802
352.703
351.508
350.298
349.242
343.392
344.189
345.132
345.999
346.731
347.372
347.783
348.06
348.291
348.171
348.154
347.967
347.572
346.984
346.332
345.633
344.678
343.786
342.597
341.776
335.553
336.09
337.017
337.698
338.245
338.805
339.135
339.364
339.535
339.529
339.466
339.219
338.991
338.511
337.944
337.357
336.615
335.821
335.023
334.27
327.697
328.201
328.769
329.283
329.795
330.201
330.435
330.696
330.769
330.754
330.75
330.608
330.352
329.96
329.576
329.058
328.571
327.882
327.308
326.616
319.783
320.237
320.553
320.976
321.288
321.577
321.813
321.863
322.053
322.062
321.972
321.834
321.651
321.41
321.161
320.739
320.444
319.856
319.453
319.076
311.844
312.087
312.326
312.559
312.733
312.976
313.097
313.15
313.252
313.266
313.186
313.149
313.046
312.844
312.691
312.448
312.291
312.002
311.701
311.46
303.953
304.019
304.181
304.171
304.258
304.348
304.396
304.373
304.415
304.452
304.459
304.443
304.271
304.264
304.29
304.238
304.102
304.093
303.916
303.818
359.618
360.783
362.069
363.228
364.275
365.056
365.754
366.149
366.303
366.399
366.281
365.917
365.288
364.648
363.763
362.756
361.526
360.069
358.612
357.269
351.767
352.703
353.896
354.901
355.787
356.421
357.012
357.446
357.61
357.663
357.547
357.231
356.752
356.089
355.334
354.402
353.346
352.129
350.911
349.782
343.885
344.676
345.681
346.478
347.192
347.852
348.329
348.586
348.824
348.881
348.772
348.48
348.101
347.609
346.906
346.153
345.227
344.2
343.159
342.232
335.979
336.632
337.37
338.135
338.678
339.241
339.594
339.862
339.958
339.989
339.97
339.657
339.41
339.039
338.333
337.807
337.025
336.171
335.34
334.569
327.89
328.532
329.056
329.606
330.188
330.494
330.821
330.984
331.142
331.129
331.15
330.878
330.697
330.224
329.884
329.411
328.83
328.144
327.545
326.967
319.976
320.363
320.895
321.186
321.535
321.8
322.029
322.191
322.306
322.25
322.239
322.141
321.942
321.698
321.405
320.984
320.599
320.178
319.635
319.34
312.056
312.202
312.528
312.72
312.886
313.103
313.154
313.269
313.408
313.364
313.37
313.297
313.195
313.057
312.852
312.692
312.394
312.193
311.79
311.587
304.041
304.026
304.232
304.302
304.35
304.439
304.454
304.454
304.491
304.46
304.456
304.527
304.433
304.369
304.287
304.231
304.094
304.114
303.981
303.876
360.197
361.326
362.758
363.831
364.842
365.721
366.264
366.799
367.021
367.119
366.893
366.545
365.967
365.22
364.461
363.232
362.07
360.584
359.207
357.866
352.195
353.225
354.443
355.402
356.371
357.019
357.547
357.942
358.157
358.186
358.06
357.849
357.292
356.651
355.902
354.918
353.905
352.676
351.383
350.294
344.147
345.127
346.043
346.936
347.732
348.269
348.811
349.106
349.223
349.266
349.228
348.926
348.498
348.025
347.404
346.575
345.696
344.557
343.582
342.609
336.285
336.93
337.635
338.438
339.069
339.598
339.935
340.164
340.372
340.377
340.292
340.091
339.837
339.369
338.888
338.126
337.364
336.544
335.644
334.968
328.183
328.791
329.408
329.932
330.388
330.818
331.077
331.336
331.426
331.465
331.421
331.214
330.917
330.71
330.265
329.66
329.092
328.463
327.758
327.24
320.262
320.553
321.01
321.403
321.634
322.018
322.189
322.402
322.432
322.478
322.494
322.303
322.148
321.851
321.657
321.28
320.729
320.322
319.781
319.492
312.146
312.361
312.6
312.827
313.068
313.201
313.428
313.464
313.521
313.537
313.434
313.34
313.261
313.176
312.943
312.685
312.478
312.276
311.922
311.724
304.075
304.169
304.21
304.288
304.407
304.409
304.436
304.474
304.534
304.529
304.449
304.531
304.462
304.465
304.339
304.217
304.189
304.095
304.073
303.869
360.611
361.829
363.198
364.331
365.303
366.144
366.81
367.277
367.54
367.519
367.34
367.015
366.505
365.815
364.802
363.765
362.51
361.088
359.581
358.264
352.599
353.61
354.78
355.817
356.656
357.481
357.976
358.345
358.545
358.653
358.51
358.157
357.714
357.062
356.254
355.284
354.229
353.003
351.771
350.638
344.651
345.424
346.437
347.237
348.001
348.623
349.075
349.494
349.683
349.703
349.555
349.318
348.876
348.386
347.712
346.848
345.958
344.928
343.852
342.902
336.536
337.262
337.939
338.665
339.287
339.861
340.294
340.544
340.663
340.681
340.62
340.405
340.056
339.627
339.052
338.433
337.621
336.799
336.013
335.148
328.427
328.945
329.568
330.12
330.639
330.996
331.363
331.584
331.615
331.77
331.602
331.475
331.147
330.851
330.382
329.888
329.321
328.702
327.968
327.384
320.356
320.67
321.149
321.532
321.829
322.182
322.326
322.579
322.625
322.651
322.648
322.52
322.286
322.079
321.778
321.421
320.983
320.511
319.973
319.559
312.233
312.451
312.69
312.971
313.147
313.329
313.463
313.552
313.601
313.6
313.532
313.522
313.451
313.268
313.094
312.918
312.61
312.317
312.025
311.783
304.149
304.231
304.216
304.365
304.41
304.49
304.471
304.565
304.542
304.51
304.532
304.519
304.418
304.528
304.379
304.338
304.19
304.212
303.96
304.001
360.91
362.101
363.477
364.623
365.668
366.495
367.235
367.667
367.873
367.902
367.753
367.349
366.945
366.102
365.2
364.077
362.83
361.434
359.891
358.577
352.878
353.884
355.062
356.075
356.962
357.778
358.319
358.714
358.921
358.941
358.867
358.549
358.097
357.455
356.548
355.638
354.524
353.298
352.067
350.847
344.795
345.633
346.599
347.535
348.348
348.887
349.37
349.769
349.933
349.943
349.788
349.591
349.127
348.65
347.958
347.132
346.165
345.115
344.106
343.201
336.732
337.378
338.187
338.943
339.556
340.003
340.396
340.721
340.875
340.929
340.85
340.554
340.24
339.815
339.291
338.643
337.849
336.958
336.147
335.303
328.658
329.109
329.731
330.285
330.77
331.191
331.551
331.682
331.839
331.865
331.825
331.594
331.385
331.063
330.543
330.015
329.467
328.842
328.143
327.547
320.432
320.784
321.267
321.594
322
322.27
322.499
322.67
322.734
322.667
322.749
322.588
322.474
322.141
321.916
321.514
321.071
320.528
320.049
319.772
312.267
312.524
312.748
313.038
313.165
313.349
313.524
313.637
313.691
313.681
313.664
313.601
313.475
313.284
313.154
312.848
312.696
312.361
312.158
311.855
304.123
304.179
304.265
304.304
304.404
304.517
304.557
304.575
304.563
304.532
304.567
304.596
304.53
304.399
304.36
304.336
304.195
304.188
304.069
303.947
361.072
362.302
363.617
364.85
365.869
366.761
367.411
367.862
368.146
368.166
368.027
367.693
367.09
366.421
365.505
364.304
363.039
361.643
360.104
358.709
353.083
354.115
355.159
356.266
357.165
357.924
358.483
358.965
359.045
359.184
358.997
358.655
358.262
357.561
356.757
355.864
354.728
353.452
352.149
351.019
344.867
345.792
346.77
347.655
348.45
349.057
349.546
349.836
350.063
350.114
349.977
349.666
349.292
348.782
348.084
347.292
346.375
345.295
344.15
343.226
336.802
337.451
338.273
338.947
339.646
340.185
340.564
340.759
341.02
341.045
340.952
340.75
340.408
339.931
339.403
338.788
337.97
337.15
336.239
335.44
328.591
329.12
329.735
330.374
330.84
331.214
331.561
331.739
331.862
331.895
331.794
331.697
331.477
331.146
330.677
330.224
329.513
328.836
328.174
327.523
320.46
320.866
321.303
321.698
322.073
322.335
322.549
322.728
322.791
322.81
322.845
322.652
322.492
322.227
321.902
321.524
321.123
320.612
320.213
319.695
312.302
312.547
312.817
313.052
313.247
313.434
313.585
313.644
313.675
313.735
313.688
313.597
313.498
313.23
313.211
312.923
312.705
312.389
312.066
311.881
304.086
304.178
304.289
304.34
304.468
304.445
304.552
304.527
304.612
304.605
304.616
304.564
304.498
304.451
304.441
304.381
304.263
304.141
303.983
303.982
)
;

boundaryField
{
    hotSide
    {
        type            fixedGradient;
        gradient        nonuniform List<scalar> 
400
(
321.511
322.87
325.591
329.677
335.133
341.965
350.181
359.788
370.794
383.208
397.037
412.289
428.971
447.088
466.647
487.651
510.105
534.011
559.372
586.191
323.738
325.08
327.767
331.802
337.194
343.949
352.078
361.591
372.498
384.81
398.537
413.687
430.268
448.289
467.755
488.672
511.043
534.872
560.161
586.913
326.149
327.47
330.116
334.091
339.406
346.071
354.099
363.503
374.296
386.491
400.101
415.136
431.606
449.52
468.885
489.706
511.988
535.735
560.948
587.63
328.704
330
332.597
336.503
341.73
348.292
356.205
365.485
376.15
388.215
401.695
416.604
432.954
450.753
470.009
490.73
512.919
536.579
561.714
588.325
331.33
332.599
335.142
338.97
344.099
350.546
358.332
367.477
378.003
389.928
403.271
418.047
434.27
451.949
471.095
491.712
513.807
537.382
562.439
588.978
333.918
335.158
337.643
341.389
346.414
352.74
360.392
369.397
379.779
391.562
404.765
419.407
435.503
453.065
472.101
492.618
514.622
538.114
563.096
589.569
336.321
337.531
339.959
343.622
348.544
354.751
362.274
371.142
381.385
393.031
406.101
420.618
436.595
454.047
472.983
493.409
515.33
538.747
563.663
590.076
338.36
339.543
341.92
345.509
350.339
356.44
363.847
372.595
382.718
394.244
407.2
421.608
437.485
454.844
473.695
494.045
515.897
539.253
564.114
590.478
339.852
341.015
343.352
346.885
351.645
357.665
364.985
373.643
383.675
395.113
407.984
422.312
438.116
455.407
474.197
494.491
516.294
539.606
564.428
590.758
340.643
341.795
344.11
347.613
352.334
358.311
365.584
374.193
384.176
395.567
408.393
422.679
438.443
455.699
474.456
494.722
516.498
539.788
564.589
590.901
340.643
341.795
344.11
347.613
352.334
358.311
365.584
374.193
384.176
395.567
408.393
422.679
438.443
455.699
474.456
494.722
516.498
539.788
564.589
590.901
339.852
341.015
343.352
346.885
351.645
357.665
364.985
373.643
383.675
395.113
407.984
422.312
438.116
455.407
474.197
494.491
516.294
539.606
564.428
590.758
338.36
339.543
341.92
345.509
350.339
356.44
363.847
372.595
382.718
394.244
407.2
421.608
437.485
454.844
473.695
494.045
515.897
539.253
564.114
590.478
336.321
337.531
339.959
343.622
348.544
354.751
362.274
371.142
381.385
393.031
406.101
420.618
436.595
454.047
472.983
493.409
515.33
538.747
563.663
590.076
333.918
335.158
337.643
341.389
346.414
352.74
360.392
369.397
379.779
391.562
404.765
419.407
435.503
453.065
472.101
492.618
514.622
538.114
563.096
589.569
331.33
332.599
335.142
338.97
344.099
350.546
358.332
367.477
378.003
389.928
403.271
418.047
434.27
451.949
471.095
491.712
513.807
537.382
562.439
588.978
328.704
330
332.597
336.503
341.73
348.292
356.205
365.485
376.15
388.215
401.695
416.604
432.954
450.753
470.009
490.73
512.919
536.579
561.714
588.325
326.149
327.47
330.116
334.091
339.406
346.071
354.099
363.503
374.296
386.491
400.101
415.136
431.606
449.52
468.885
489.706
511.988
535.735
560.948
587.63
323.738
325.08
327.767
331.802
337.194
343.949
352.078
361.591
372.498
384.81
398.537
413.687
430.268
448.289
467.755
488.672
511.043
534.872
560.161
586.913
321.511
322.87
325.591
329.677
335.133
341.965
350.181
359.788
370.794
383.208
397.037
412.289
428.971
447.088
466.647
487.651
510.105
534.011
559.372
586.191
)
;
    }
    coldSide
    {
        type            mixed;
        refValue        uniform 300;
        refGradient     uniform 0;
        valueFraction   uniform 0.991591;
        source          uniform 0;
        value           nonuniform List<scalar> 
400
(
300.024
300.025
300.025
300.026
300.027
300.028
300.029
300.029
300.03
300.031
300.032
300.032
300.033
300.033
300.033
300.034
300.034
300.035
300.035
300.034
300.024
300.025
300.026
300.026
300.027
300.028
300.029
300.03
300.031
300.031
300.032
300.033
300.034
300.034
300.034
300.034
300.035
300.036
300.035