/*--------------------------------*- C++ -*----------------------------------*\
| =========                 |                                                 |
| \\      /  F ield         | OpenFOAM: The Open Source CFD Toolbox           |
|  \\    /   O peration     | Version:  2212                                  |
|   \\  /    A nd           | Website:  www.openfoam.com                      |
|    \\/     M anipulation  |                                                 |
\*---------------------------------------------------------------------------*/
FoamFile
{
    version     2.0;
    format      ascii;
    arch        "LSB;label=32;scalar=64";
    class       volScalarField;
    location    "0";
    object      T;
}
// * * * * * * * * * * * * * * * * * * * * * * * * * * * * * * * * * * * * * //

dimensions      [0 0 0 1 0 0 0];

internalField   nonuniform List<scalar> 
3200
(
315.256
314.758
314.6
314.643
315.096
315.355
315.803
316.21
316.776
316.966
317.089
317.145
316.963
316.551
316.401
316.02
315.903
315.871
316.15
316.518
313.306
312.89
312.752
312.796
313.194
313.394
313.799
314.143
314.629
314.796
314.902
314.938
314.798
314.434
314.32
313.986
313.883
313.838
314.106
314.407
311.322
310.985
310.851
310.878
311.248
311.408
311.758
312.034
312.433
312.599
312.68
312.687
312.597
312.291
312.19
311.907
311.798
311.796
312.014
312.273
309.301
309.05
308.921
308.944
309.247
309.387
309.663
309.878
310.246
310.356
310.431
310.425
310.363
310.135
309.995
309.824
309.688
309.703
309.873
310.096
307.274
307.09
306.958
306.991
307.233
307.343
307.534
307.691
308.019
308.088
308.142
308.138
308.124
307.929
307.807
307.681
307.534
307.562
307.712
307.896
305.212
305.09
304.994
305.019
305.188
305.268
305.418
305.504
305.74
305.784
305.834
305.834
305.837
305.697
305.604
305.509
305.4
305.408
305.535
305.66
303.131
303.069
303
303.029
303.14
303.155
303.278
303.32
303.446
303.471
303.504
303.5
303.507
303.427
303.378
303.326
303.247
303.244
303.316
303.417
301.049
301.028
300.998
301.021
301.049
301.044
301.109
301.105
301.149
301.16
301.18
301.178
301.185
301.16
301.132
301.118
301.094
301.082
301.105
301.151
315.364
315.054
314.774
314.973
315.225
315.619
316.133
316.439
317.15
317.327
317.454
317.365
317.245
316.967
316.659
316.354
316.198
316.054
316.273
316.526
313.394
313.142
312.924
313.077
313.283
313.623
314.083
314.331
314.957
315.099
315.22
315.14
315.027
314.785
314.512
314.271
314.139
314.016
314.223
314.431
311.384
311.19
311
311.118
311.322
311.599
311.988
312.182
312.713
312.832
312.935
312.864
312.745
312.57
312.343
312.134
312.035
311.93
312.102
312.305
309.348
309.2
309.029
309.118
309.319
309.529
309.858
310.002
310.434
310.562
310.635
310.572
310.437
310.333
310.167
309.983
309.916
309.807
309.949
310.135
307.3
307.175
307.047
307.102
307.291
307.423
307.694
307.791
308.12
308.264
308.311
308.244
308.132
308.084
307.961
307.791
307.741
307.649
307.766
307.916
305.218
305.121
305.038
305.082
305.231
305.323
305.502
305.569
305.811
305.933
305.961
305.896
305.827
305.81
305.706
305.583
305.553
305.47
305.567
305.679
303.122
303.069
303.027
303.058
303.147
303.202
303.297
303.344
303.496
303.57
303.586
303.55
303.505
303.516
303.423
303.356
303.35
303.293
303.358
303.418
301.042
301.033
301.01
301.022
301.058
301.076
301.107
301.122
301.162
301.196
301.21
301.192
301.178
301.185
301.147
301.122
301.12
301.1
301.126
301.142
315.696
315.219
315.108
315.236
315.568
316.075
316.501
316.924
317.44
317.721
317.949
317.859
317.623
317.451
317.031
316.713
316.384
316.318
316.42
316.749
313.675
313.296
313.195
313.292
313.587
314
314.4
314.735
315.201
315.45
315.648
315.536
315.34
315.24
314.855
314.563
314.313
314.258
314.334
314.643
311.631
311.34
311.241
311.315
311.575
311.913
312.272
312.532
312.934
313.127
313.321
313.196
313.027
312.978
312.649
312.377
312.173
312.127
312.217
312.466
309.578
309.339
309.243
309.291
309.53
309.776
310.075
310.305
310.616
310.774
310.944
310.81
310.689
310.684
310.416
310.184
309.977
309.985
310.067
310.256
307.467
307.299
307.224
307.242
307.453
307.611
307.862
308.045
308.292
308.423
308.557
308.424
308.342
308.364
308.163
307.953
307.761
307.827
307.857
308.004
305.338
305.228
305.185
305.192
305.364
305.42
305.622
305.754
305.945
306.045
306.107
306.027
306.007
306.032
305.866
305.694
305.545
305.597
305.63
305.733
303.214
303.155
303.124
303.108
303.226
303.251
303.365
303.456
303.572
303.635
303.65
303.626
303.619
303.643
303.528
303.416
303.329
303.364
303.39
303.462
301.069
301.058
301.048
301.038
301.084
301.084
301.126
301.162
301.196
301.225
301.218
301.226
301.22
301.225
301.176
301.147
301.107
301.126
301.138
301.169
316.144
315.946
315.594
315.664
316.058
316.59
317.015
317.416
317.975
318.309
318.488
318.261
318.139
318.017
317.515
317.223
316.915
316.656
316.859
317.073
314.079
313.913
313.604
313.684
314.028
314.462
314.829
315.168
315.662
315.948
316.107
315.891
315.768
315.714
315.268
315.046
314.749
314.531
314.73
314.921
311.975
311.862
311.585
311.656
311.954
312.279
312.597
312.898
313.306
313.54
313.683
313.487
313.389
313.381
312.975
312.826
312.543
312.356
312.556
312.716
309.843
309.764
309.547
309.565
309.848
310.063
310.337
310.597
310.941
311.109
311.231
311.071
310.99
311.018
310.653
310.555
310.313
310.152
310.318
310.467
307.698
307.626
307.476
307.451
307.722
307.838
308.084
308.27
308.521
308.638
308.763
308.656
308.574
308.607
308.309
308.24
308.066
307.929
308.057
308.197
305.514
305.48
305.365
305.316
305.541
305.607
305.792
305.933
306.103
306.17
306.273
306.211
306.132
306.17
305.943
305.9
305.81
305.683
305.77
305.877
303.323
303.307
303.222
303.193
303.337
303.356
303.483
303.57
303.679
303.695
303.784
303.732
303.7
303.72
303.581
303.551
303.516
303.404
303.454
303.546
301.116
301.107
301.071
301.058
301.115
301.135
301.164
301.19
301.246
301.232
301.282
301.252
301.24
301.252
301.206
301.191
301.179
301.146
301.153
301.19
316.722
316.46
316.205
316.245
316.763
317.105
317.497
318.042
318.508
318.917
319.09
318.883
318.79
318.468
318.063
317.672
317.335
317.093
317.241
317.568
314.59
314.371
314.151
314.169
314.637
314.92
315.241
315.724
316.116
316.479
316.633
316.45
316.347
316.126
315.728
315.422
315.135
314.936
315.077
315.323
312.394
312.256
312.044
312.079
312.455
312.663
312.952
313.372
313.689
313.988
314.156
313.969
313.89
313.759
313.357
313.109
312.897
312.722
312.842
313.069
310.18
310.1
309.923
309.936
310.252
310.388
310.651
310.974
311.238
311.48
311.634
311.442
311.418
311.334
310.975
310.774
310.612
310.473
310.562
310.747
307.924
307.879
307.773
307.766
308.004
308.106
308.317
308.567
308.765
308.946
309.084
308.916
308.9
308.849
308.574
308.44
308.302
308.194
308.254
308.415
305.653
305.639
305.576
305.566
305.725
305.787
305.967
306.132
306.255
306.404
306.505
306.375
306.354
306.322
306.138
306.075
305.969
305.886
305.925
306.051
303.4
303.384
303.372
303.363
303.44
303.469
303.581
303.664
303.759
303.859
303.917
303.824
303.814
303.803
303.692
303.67
303.584
303.566
303.575
303.654
301.149
301.137
301.141
301.128
301.157
301.164
301.196
301.228
301.254
301.302
301.322
301.288
301.285
301.283
301.243
301.234
301.203
301.204
301.202
301.234
317.225
317.095
316.841
316.97
317.293
317.782
318.206
318.706
319.25
319.635
319.702
319.702
319.519
319.061
318.634
318.29
317.892
317.669
317.873
317.915
315.024
314.925
314.706
314.837
315.092
315.499
315.868
316.302
316.761
317.096
317.157
317.134
316.993
316.615
316.233
315.961
315.625
315.428
315.606
315.642
312.793
312.712
312.53
312.634
312.83
313.184
313.503
313.855
314.226
314.537
314.589
314.542
314.431
314.114
313.818
313.586
313.293
313.148
313.29
313.342
310.515
310.468
310.317
310.411
310.512
310.842
311.091
311.39
311.643
311.941
311.989
311.923
311.833
311.599
311.376
311.175
310.928
310.821
310.911
310.986
308.217
308.172
308.076
308.14
308.183
308.458
308.655
308.888
309.062
309.332
309.348
309.284
309.22
309.047
308.885
308.744
308.544
308.465
308.53
308.599
305.883
305.854
305.802
305.844
305.848
306.036
306.201
306.377
306.484
306.69
306.699
306.641
306.596
306.471
306.359
306.282
306.132
306.079
306.108
306.165
303.548
303.527
303.501
303.518
303.52
303.616
303.731
303.84
303.895
304.018
304.038
303.99
303.962
303.897
303.822
303.782
303.719
303.669
303.694
303.716
301.195
301.192
301.176
301.182
301.18
301.224
301.251
301.287
301.305
301.349
301.361
301.34
301.326
301.303
301.284
301.266
301.245
301.244
301.251
301.26
318.002
317.725
317.574
317.789
317.989
318.411
318.864
319.362
319.985
320.283
320.432
320.388
320.213
319.624
319.245
318.795
318.52
318.337
318.405
318.374
315.703
315.46
315.347
315.54
315.719
316.056
316.447
316.876
317.42
317.679
317.787
317.758
317.597
317.073
316.78
316.401
316.128
316.003
316.071
316.059
313.375
313.176
313.074
313.266
313.382
313.664
313.989
314.343
314.818
315.021
315.104
315.095
314.964
314.492
314.285
313.957
313.706
313.637
313.665
313.683
311.012
310.836
310.756
310.912
311.003
311.244
311.503
311.771
312.184
312.324
312.429
312.381
312.293
311.897
311.739
311.471
311.265
311.215
311.227
311.257
308.615
308.463
308.411
308.501
308.576
308.78
308.96
309.19
309.497
309.602
309.693
309.658
309.583
309.295
309.183
308.965
308.807
308.771
308.762
308.802
306.171
306.081
306.031
306.083
306.124
306.284
306.393
306.579
306.801
306.871
306.92
306.913
306.856
306.671
306.592
306.424
306.317
306.289
306.285
306.333
303.701
303.659
303.63
303.671
303.673
303.783
303.822
303.961
304.075
304.14
304.159
304.146
304.116
304.012
303.971
303.863
303.807
303.777
303.781
303.825
301.242
301.229
301.219
301.23
301.228
301.265
301.283
301.337
301.365
301.388
301.399
301.387
301.381
301.333
301.335
301.292
301.269
301.259
301.275
301.276
318.721
318.581
318.31
318.476
318.643
319.123
319.601
320.131
320.682
320.926
321.168
321.031
320.897
320.309
319.859
319.364
319.042
318.909
318.935
319.103
316.333
316.211
315.985
316.131
316.267
316.692
317.087
317.543
318.014
318.229
318.456
318.341
318.211
317.697
317.332
316.876
316.627
316.507
316.529
316.672
313.886
313.789
313.611
313.754
313.844
314.196
314.532
314.922
315.302
315.504
315.678
315.615
315.484
315.06
314.747
314.346
314.137
314.045
314.061
314.181
311.406
311.32
311.176
311.314
311.392
311.67
311.937
312.275
312.562
312.758
312.864
312.824
312.712
312.373
312.117
311.796
311.636
311.551
311.559
311.655
308.915
308.831
308.695
308.819
308.873
309.093
309.296
309.575
309.794
309.981
310.03
310.004
309.913
309.674
309.466
309.186
309.086
309.016
309.016
309.102
306.378
306.324
306.209
306.317
306.333
306.482
306.658
306.844
306.998
307.164
307.183
307.171
307.087
306.921
306.781
306.569
306.509
306.452
306.456
306.532
303.823
303.798
303.745
303.789
303.793
303.89
303.991
304.115
304.218
304.319
304.316
304.317
304.257
304.152
304.097
303.939
303.907
303.883
303.869
303.934
301.279
301.281
301.265
301.262
301.269
301.293
301.329
301.378
301.417
301.455
301.442
301.45
301.429
301.393
301.372
301.317
301.316
301.302
301.292
301.317
319.505
319.218
319.112
319.264
319.35
319.852
320.241
320.864
321.34
321.581
321.936
321.818
321.462
321.038
320.483
320.021
319.629
319.575
319.476
319.695
317.012
316.74
316.689
316.801
316.87
317.338
317.663
318.185
318.591
318.811
319.125
319.021
318.708
318.316
317.865
317.474
317.131
317.105
316.995
317.195
314.492
314.241
314.204
314.288
314.367
314.75
315.043
315.483
315.8
316.008
316.258
316.177
315.917
315.58
315.184
314.886
314.577
314.572
314.478
314.639
311.932
311.685
311.686
311.728
311.828
312.123
312.37
312.724
312.957
313.157
313.369
313.307
313.081
312.798
312.488
312.226
311.972
311.983
311.893
312.025
309.325
309.122
309.134
309.155
309.259
309.467
309.656
309.946
310.107
310.269
310.431
310.388
310.215
309.985
309.753
309.552
309.34
309.35
309.281
309.405
306.677
306.534
306.552
306.55
306.628
306.781
306.918
307.145
307.235
307.353
307.47
307.444
307.318
307.159
306.98
306.849
306.707
306.708
306.631
306.734
303.996
303.922
303.946
303.93
303.995
304.091
304.167
304.292
304.35
304.425
304.484
304.477
304.408
304.306
304.188
304.12
304.036
304.043
303.98
304.038
301.34
301.311
301.324
301.324
301.342
301.383
301.39
301.434
301.463
301.48
301.511
301.5
301.481
301.443
301.41
301.387
301.361
301.35
301.33
301.356
320.373
320.042
319.947
319.993
320.211
320.622
321.043
321.578
321.973
322.366
322.603
322.5
322.15
321.743
321.138
320.708
320.266
320.195
320.179
320.417
317.77
317.478
317.395
317.431
317.618
317.986
318.342
318.814
319.164
319.506
319.695
319.627
319.326
318.971
318.416
318.077
317.67
317.633
317.628
317.836
315.142
314.888
314.796
314.831
314.979
315.306
315.612
315.995
316.288
316.562
316.74
316.683
316.45
316.146
315.637
315.372
315.03
315.004
315.023
315.19
312.464
312.256
312.149
312.192
312.307
312.577
312.838
313.15
313.39
313.598
313.749
313.709
313.511
313.264
312.827
312.634
312.348
312.321
312.372
312.509
309.736
309.592
309.494
309.515
309.598
309.828
310.031
310.263
310.476
310.62
310.719
310.718
310.564
310.341
310.005
309.878
309.646
309.603
309.677
309.759
306.991
306.898
306.799
306.806
306.867
307.041
307.184
307.348
307.522
307.611
307.669
307.695
307.576
307.39
307.181
307.09
306.921
306.886
306.942
306.994
304.216
304.169
304.111
304.092
304.135
304.24
304.306
304.414
304.541
304.578
304.598
304.634
304.566
304.447
304.329
304.265
304.157
304.138
304.168
304.22
301.416
301.408
301.379
301.372
301.388
301.425
301.443
301.485
301.53
301.529
301.541
301.55
301.536
301.488
301.447
301.432
301.4
301.396
301.396
301.407
321.291
320.952
320.808
320.86
321.107
321.449
321.885
322.159
322.523
322.989
323.15
323.045
322.727
322.283
321.767
321.338
320.956
320.823
320.91
320.954
318.578
318.293
318.179
318.211
318.436
318.713
319.083
319.331
319.627
320.036
320.156
320.099
319.81
319.412
318.992
318.64
318.307
318.172
318.262
318.31
315.807
315.591
315.481
315.511
315.698
315.914
316.235
316.436
316.671
317.04
317.124
317.104
316.865
316.508
316.156
315.871
315.611
315.474
315.564
315.617
312.989
312.822
312.725
312.774
312.906
313.071
313.352
313.483
313.673
313.971
314.052
314.043
313.837
313.538
313.299
313.066
312.857
312.739
312.803
312.849
310.135
310.022
309.926
309.98
310.069
310.2
310.429
310.526
310.658
310.872
310.958
310.971
310.798
310.553
310.386
310.207
310.061
309.97
310
310.047
307.241
307.187
307.107
307.136
307.204
307.295
307.479
307.539
307.619
307.781
307.832
307.864
307.728
307.549
307.425
307.311
307.227
307.171
307.176
307.199
304.349
304.33
304.278
304.288
304.324
304.37
304.493
304.531
304.583
304.68
304.703
304.732
304.661
304.547
304.464
304.408
304.36
304.322
304.33
304.33
301.457
301.452
301.443
301.443
301.452
301.458
301.502
301.52
301.527
301.574
301.577
301.583
301.575
301.528
301.5
301.48
301.471
301.447
301.454
301.455
322.069
321.854
321.688
321.733
321.888
322.126
322.551
322.893
323.134
323.492
323.625
323.578
323.244
322.82
322.399
321.979
321.654
321.452
321.565
321.549
319.256
319.076
318.933
318.977
319.071
319.316
319.669
319.951
320.169
320.487
320.623
320.551
320.268
319.916
319.549
319.197
318.919
318.731
318.843
318.807
316.395
316.226
316.12
316.177
316.203
316.428
316.729
316.979
317.148
317.433
317.526
317.452
317.238
316.946
316.624
316.36
316.13
315.965
316.039
316.026
313.481
313.336
313.228
313.304
313.319
313.519
313.722
313.983
314.096
314.324
314.408
314.319
314.156
313.926
313.646
313.441
313.289
313.135
313.196
313.194
310.515
310.41
310.313
310.398
310.424
310.579
310.705
310.928
311.009
311.193
311.232
311.17
311.047
310.875
310.652
310.486
310.386
310.263
310.316
310.313
307.535
307.439
307.378
307.438
307.463
307.593
307.672
307.845
307.897
308.03
308.025
308.005
307.899
307.801
307.651
307.51
307.439
307.361
307.396
307.398
304.532
304.49
304.448
304.44
304.482
304.569
304.611
304.732
304.762
304.841
304.809
304.812
304.742
304.7
304.593
304.514
304.462
304.436
304.46
304.459
301.515
301.504
301.487
301.489
301.501
301.535
301.548
301.586
301.606
301.619
301.606
301.609
301.592
301.584
301.551
301.517
301.497
301.486
301.511
301.496
322.947
322.818
322.603
322.554
322.798
322.9
323.215
323.505
323.722
324.036
324.148
324.146
323.721
323.372
322.987
322.524
322.208
322.044
322.158
322.159
320.04
319.94
319.727
319.704
319.902
319.983
320.253
320.498
320.697
320.956
321.062
321.066
320.685
320.409
320.065
319.659
319.391
319.269
319.369
319.35
317.062
317.003
316.794
316.781
316.934
316.986
317.253
317.45
317.617
317.835
317.907
317.921
317.621
317.378
317.083
316.764
316.505
316.456
316.52
316.484
314.04
314.003
313.832
313.802
313.924
313.954
314.214
314.317
314.487
314.679
314.728
314.741
314.502
314.298
314.056
313.806
313.576
313.56
313.602
313.574
310.968
310.941
310.788
310.8
310.879
310.895
311.104
311.154
311.308
311.463
311.492
311.53
311.329
311.18
310.971
310.801
310.61
310.596
310.631
310.625
307.864
307.854
307.716
307.745
307.798
307.815
307.944
307.987
308.119
308.222
308.223
308.271
308.114
308.031
307.879
307.766
307.63
307.591
307.627
307.609
304.735
304.731
304.633
304.652
304.7
304.7
304.781
304.811
304.883
304.942
304.947
304.987
304.873
304.837
304.749
304.681
304.601
304.558
304.599
304.586
301.599
301.587
301.555
301.559
301.579
301.579
301.6
301.622
301.646
301.649
301.661
301.673
301.628
301.621
301.601
301.57
301.549
301.528
301.528
301.53
323.934
323.73
323.493
323.5
323.489
323.651
323.837
324.135
324.272
324.467
324.687
324.673
324.222
323.931
323.527
322.987
322.815
322.662
322.751
322.81
320.911
320.715
320.52
320.518
320.518
320.644
320.803
321.045
321.15
321.314
321.528
321.51
321.134
320.867
320.544
320.077
319.942
319.788
319.874
319.945
317.816
317.627
317.465
317.449
317.464
317.581
317.699
317.902
317.97
318.144
318.296
318.289
317.996
317.731
317.509
317.094
317.008
316.86
316.932
317.012
314.687
314.48
314.365
314.338
314.357
314.455
314.535
314.721
314.757
314.92
315.026
315.03
314.772
314.581
314.421
314.078
314.001
313.877
313.933
314.003
311.487
311.293
311.199
311.19
311.239
311.284
311.333
311.51
311.532
311.63
311.724
311.731
311.538
311.401
311.279
311.004
310.942
310.851
310.88
310.958
308.248
308.073
308.006
308.018
308.068
308.074
308.109
308.241
308.258
308.326
308.41
308.403
308.29
308.193
308.086
307.898
307.842
307.78
307.785
307.846
304.976
304.836
304.835
304.825
304.873
304.849
304.895
304.965
304.963
305.018
305.065
305.055
304.99
304.92
304.869
304.771
304.727
304.672
304.68
304.722
301.665
301.605
301.623
301.617
301.641
301.63
301.651
301.667
301.655
301.689
301.695
301.707
301.672
301.644
301.633
301.605
301.596
301.57
301.565
301.574
324.819
324.55
324.317
324.322
324.245
324.354
324.42
324.773
324.802
325.079
325.122
325.079
324.647
324.452
323.99
323.637
323.367
323.257
323.333
323.486
321.67
321.457
321.237
321.255
321.152
321.273
321.309
321.619
321.621
321.878
321.941
321.87
321.499
321.326
320.932
320.635
320.425
320.295
320.409
320.492
318.46
318.28
318.097
318.119
318.034
318.14
318.14
318.385
318.379
318.602
318.675
318.605
318.288
318.15
317.821
317.58
317.433
317.29
317.397
317.446
315.206
315.041
314.89
314.903
314.837
314.924
314.92
315.093
315.089
315.285
315.338
315.291
315.028
314.921
314.653
314.453
314.352
314.225
314.315
314.322
311.887
311.758
311.632
311.623
311.603
311.657
311.693
311.764
311.771
311.927
311.961
311.952
311.721
311.661
311.427
311.294
311.203
311.132
311.197
311.171
308.526
308.442
308.352
308.319
308.33
308.351
308.396
308.408
308.419
308.56
308.571
308.566
308.388
308.362
308.178
308.11
308.028
307.995
308.032
308.005
305.134
305.099
305.026
305.003
305.038
305.015
305.045
305.061
305.061
305.159
305.156
305.151
305.05
305.031
304.922
304.872
304.834
304.818
304.818
304.809
301.72
301.704
301.689
301.676
301.696
301.681
301.683
301.703
301.7
301.736
301.743
301.725
301.691
301.696
301.65
301.628
301.617
301.628
301.61
301.615
325.584
325.366
325.154
325.13
325.072
325.084
325.093
325.304
325.473
325.639
325.659
325.434
325.209
324.883
324.563
324.318
324.154
323.864
323.965
324.129
322.339
322.16
322.001
321.958
321.908
321.876
321.896
322.087
322.212
322.375
322.376
322.184
321.981
321.703
321.445
321.233
321.105
320.871
320.952
321.081
319.047
318.864
318.766
318.691
318.677
318.614
318.621
318.786
318.879
319.001
319.042
318.871
318.694
318.469
318.262
318.072
317.984
317.794
317.876
317.972
315.682
315.537
315.445
315.384
315.373
315.296
315.301
315.446
315.51
315.603
315.669
315.523
315.371
315.171
315.018
314.858
314.8
314.655
314.731
314.782
312.247
312.138
312.08
312.029
311.988
311.916
311.947
312.051
312.107
312.187
312.262
312.117
312.017
311.836
311.739
311.599
311.571
311.426
311.517
311.564
308.782
308.691
308.67
308.633
308.604
308.525
308.547
308.643
308.691
308.726
308.78
308.66
308.619
308.473
308.431
308.32
308.309
308.185
308.258
308.301
305.291
305.217
305.223
305.208
305.179
305.128
305.134
305.201
305.244
305.267
305.268
305.21
305.188
305.084
305.092
305.004
305.008
304.939
304.969
304.997
301.78
301.745
301.755
301.746
301.736
301.717
301.72
301.756
301.761
301.778
301.759
301.748
301.734
301.697
301.711
301.676
301.686
301.672
301.675
301.668
326.461
326.003
325.873
325.873
325.801
325.717
325.805
325.924
325.985
326.037
326.077
325.865
325.654
325.298
325.123
324.855
324.764
324.678
324.665
324.742
323.108
322.678
322.584
322.582
322.536
322.442
322.498
322.619
322.673
322.718
322.754
322.581
322.395
322.059
321.938
321.694
321.626
321.579
321.573
321.634
319.673
319.268
319.246
319.222
319.211
319.104
319.116
319.246
319.279
319.339
319.395
319.22
319.076
318.745
318.686
318.467
318.419
318.407
318.383
318.472
316.168
315.83
315.842
315.796
315.807
315.72
315.713
315.809
315.851
315.9
315.958
315.79
315.7
315.395
315.379
315.201
315.172
315.158
315.109
315.227
312.621
312.385
312.382
312.321
312.357
312.282
312.266
312.302
312.37
312.407
312.47
312.317
312.258
312
312.014
311.883
311.891
311.852
311.807
311.904
309.049
308.901
308.871
308.824
308.851
308.787
308.779
308.793
308.876
308.883
308.939
308.827
308.8
308.602
308.602
308.508
308.557
308.488
308.477
308.543
305.445
305.369
305.315
305.302
305.325
305.275
305.28
305.287
305.352
305.338
305.363
305.308
305.298
305.186
305.183
305.127
305.168
305.12
305.103
305.15
301.825
301.806
301.776
301.779
301.791
301.778
301.783
301.772
301.791
301.788
301.796
301.771
301.777
301.737
301.732
301.716
301.734
301.706
301.705
301.729
327.114
326.677
326.641
326.591
326.446
326.35
326.525
326.521
326.574
326.575
326.542
326.322
325.969
325.769
325.61
325.308
325.246
325.132
325.283
325.261
323.672
323.283
323.26
323.227
323.095
323.01
323.17
323.136
323.184
323.184
323.154
322.953
322.671
322.481
322.35
322.095
322.08
321.985
322.094
322.064
320.176
319.828
319.792
319.779
319.688
319.597
319.722
319.694
319.712
319.74
319.7
319.531
319.316
319.122
319.021
318.823
318.834
318.742
318.836
318.791
316.625
316.306
316.278
316.267
316.201
316.132
316.215
316.195
316.196
316.224
316.21
316.071
315.877
315.711
315.646
315.482
315.507
315.429
315.512
315.468
312.986
312.737
312.726
312.711
312.65
312.625
312.664
312.64
312.653
312.683
312.627
312.537
312.418
312.249
312.224
312.119
312.119
312.043
312.149
312.108
309.315
309.131
309.118
309.123
309.078
309.064
309.068
309.068
309.061
309.094
309.024
308.981
308.896
308.776
308.786
308.697
308.681
308.616
308.744
308.676
305.605
305.501
305.491
305.51
305.485
305.46
305.457
305.45
305.46
305.483
305.419
305.393
305.355
305.273
305.302
305.234
305.226
305.179
305.27
305.227
301.876
301.846
301.838
301.854
301.835
301.835
301.828
301.842
301.841
301.839
301.814
301.811
301.798
301.768
301.78
301.757
301.75
301.738
301.778
301.749
327.739
327.464
327.359
327.211
326.984
326.86
326.976
327.087
327.105
327.035
326.992
326.775
326.366
326.152
325.955
325.832
325.776
325.636
325.749
325.752
324.221
323.984
323.865
323.764
323.53
323.428
323.549
323.635
323.664
323.617
323.543
323.366
323.017
322.803
322.645
322.557
322.528
322.406
322.512
322.488
320.632
320.432
320.292
320.242
320.004
319.908
320.045
320.126
320.151
320.104
320.047
319.896
319.594
319.404
319.246
319.218
319.18
319.071
319.208
319.152
316.971
316.793
316.659
316.667
316.436
316.358
316.483
316.563
316.573
316.554
316.486
316.348
316.103
315.943
315.823
315.808
315.764
315.665
315.81
315.774
313.266
313.118
312.989
313.023
312.847
312.772
312.882
312.923
312.948
312.937
312.87
312.777
312.576
312.426
312.365
312.354
312.314
312.242
312.372
312.336
309.512
309.4
309.308
309.33
309.21
309.126
309.244
309.241
309.265
309.275
309.218
309.164
309.007
308.918
308.856
308.874
308.826
308.772
308.864
308.839
305.722
305.659
305.584
305.611
305.544
305.483
305.578
305.545
305.566
305.58
305.533
305.514
305.428
305.367
305.348
305.347
305.313
305.272
305.337
305.321
301.917
301.891
301.874
301.874
301.863
301.833
301.875
301.855
301.877
301.869
301.852
301.848
301.831
301.803
301.8
301.79
301.78
301.774
301.79
301.787
328.303
328.066
327.704
327.652
327.412
327.35
327.335
327.391
327.386
327.399
327.267
326.956
326.888
326.512
326.246
326.218
326.15
326.022
326.207
326.291
324.689
324.469
324.154
324.134
323.881
323.82
323.829
323.865
323.894
323.91
323.807
323.487
323.442
323.116
322.895
322.858
322.807
322.712
322.888
322.951
321.014
320.82
320.524
320.531
320.317
320.239
320.272
320.3
320.335
320.344
320.255
319.969
319.921
319.7
319.48
319.439
319.41
319.326
319.493
319.521
317.296
317.112
316.846
316.878
316.704
316.629
316.645
316.653
316.714
316.729
316.631
316.404
316.354
316.21
316.029
315.966
315.957
315.896
316.042
316.039
313.541
313.378
313.133
313.185
313.051
312.981
312.967
312.996
313.052
313.081
312.969
312.802
312.752
312.655
312.536
312.459
312.442
312.406
312.533
312.516
309.72
309.606
309.387
309.44
309.359
309.299
309.275
309.306
309.368
309.383
309.282
309.153
309.126
309.082
308.995
308.916
308.91
308.89
308.985
308.97
305.856
305.775
305.63
305.67
305.632
305.606
305.568
305.591
305.653
305.652
305.567
305.515
305.507
305.468
305.409
305.37
305.352
305.361
305.406
305.42
301.97
301.939
301.893
301.9
301.89
301.885
301.857
301.875
301.899
301.89
301.864
301.854
301.849
301.826
301.814
301.802
301.786
301.803
301.813
301.815
)
;

boundaryField
{
    hotSide
    {
        type            fixedGradient;
        gradient        nonuniform List<scalar> 
400
(
153.127
154.688
157.543
161.656
166.891
173.052
179.931
187.335
195.104
203.11
211.257
219.468
227.687
235.87
243.983
251.998
259.89
267.642
275.244
282.698
147.155
148.836
151.903
156.312
161.898
168.431
175.672
183.409
191.471
199.724
208.071
216.44
224.775
233.039
241.2
249.234
257.12
264.844
272.398
279.786
144.68
146.599
149.881
154.479
160.227
166.898
174.252
182.076
190.197
198.48
206.825
215.162
223.437
231.613
239.666
247.574
255.323
262.903
270.311
277.555
145.467
147.733
151.242
155.942
161.694
168.299
175.545
183.234
191.199
199.307
207.457
215.576
223.615
231.538
239.325
246.961
254.441
261.76
268.925
275.948
148.597
151.271
155.031
159.825
165.534
171.997
179.033
186.468
194.146
201.938
209.748
217.503
225.158
232.684
240.068
247.305
254.399
261.357
268.191
274.917
153.029
156.128
160.175
165.11
170.826
177.186
184.03
191.201
198.556
205.973
213.36
220.653
227.817
234.836
241.709
248.446
255.063
261.576
268.007
274.375
157.906
161.429
165.796
170.938
176.752
183.104
189.843
196.818
203.886
210.93
217.867
224.647
231.251
237.685
243.969
250.133
256.208
262.221
268.201
274.171
162.58
166.503
171.205
176.611
182.611
189.064
195.812
202.69
209.548
216.264
222.761
229.007
235.014
240.818
246.47
252.023
257.526
263.02
268.536
274.101
166.539
170.805
175.823
181.51
187.748
194.385
201.241
208.126
214.862
221.311
227.401
233.125
238.534
243.708
248.734
253.692
258.647
263.649
268.734
273.928
169.378
173.883
179.136
185.053
191.509
198.34
205.343
212.293
218.975
225.224
230.969
236.233
241.112
245.732
250.218
254.672
259.173
263.777
268.52
273.424
170.809
175.395
180.736
186.747
193.301
200.225
207.303
214.283
220.92
227.03
232.537
237.489
242.014
246.272
250.411
254.547
258.767
263.129
267.669
272.408
170.708
175.184
180.419
186.328
192.783
199.611
206.592
213.476
220.02
226.04
231.461
236.33
240.774
244.954
249.018
253.087
257.248
261.564
266.072
270.796
169.157
173.336
178.278
183.899
190.071
196.623
203.35
210.023
216.43
222.407
227.884
232.885
237.505
241.874
246.12
250.357
254.672
259.129
263.771
268.625
166.45
170.187
174.705
179.924
185.717
191.921
198.346
204.792
211.078
217.066
222.685
227.933
232.867
237.575
242.16
246.717
251.329
256.061
260.961
266.059
163.072
166.278
170.316
175.107
180.529
186.419
192.596
198.879
205.105
211.151
216.944
222.464
227.734
232.813
237.775
242.7
247.665
252.733
257.957
263.368
159.684
162.326
165.884
170.286
175.404
181.068
187.09
193.291
199.516
205.647
211.608
217.367
222.93
228.332
233.631
238.895
244.194
249.596
255.152
260.897
157.133
159.226
162.34
166.411
171.296
176.805
182.733
188.894
195.133
201.334
207.421
213.356
219.134
224.78
230.338
235.869
241.445
247.132
252.988
259.045
156.415
158.025
160.744
164.513
169.174
174.517
180.325
186.405
192.604
198.807
204.942
210.967
216.872
222.674
228.409
234.134
239.916
245.827
251.922
258.235
158.406
159.653
162.022
165.461
169.816
174.882
180.445
186.32
192.358
198.451
204.527
210.544
216.487
222.366
228.21
234.068
240.002
246.075
252.341
258.828
163.394
164.41
166.471
169.533
173.474
178.118
183.283
188.804
194.544
200.403
206.31
212.221
218.118
224.002
229.895
235.833
241.867
248.045
254.409
260.979
)
;
    }
    coldSide
    {
        type            mixed;
        refValue        uniform 300;
        refGradient     uniform 0;
        valueFraction   uniform 0.991591;
        source          uniform 0;
        value           nonuniform List<scalar> 
400
(
300.009
300.009
300.009
300.009
300.01
300.01
300.01
300.011
300.011
300.012
300.012
300.013
300.013
300.014
300.014
300.015
300.015
300.016
300.016
300.017
300.009
300.009
300.009
300.009
300.01
300.01
300.01
300.011
300.011
300.012
300.012
300.013
300.013
300.014
300.014
300.015
300.015
300.016
300.016
300.016
300.008
300.008
300.009