/*--------------------------------*- C++ -*----------------------------------*\
| =========                 |                                                 |
| \\      /  F ield         | OpenFOAM: The Open Source CFD Toolbox           |
|  \\    /   O peration     | Version:  2212                                  |
|   \\  /    A nd           | Website:  www.openfoam.com                      |
|    \\/     M anipulation  |                                                 |
\*---------------------------------------------------------------------------*/
FoamFile
{
    version     2.0;
    format      ascii;
    arch        "LSB;label=32;scalar=64";
    class       volScalarField;
    location    "0";
    object      Ttrue;
}
// * * * * * * * * * * * * * * * * * * * * * * * * * * * * * * * * * * * * * //

dimensions      [0 0 0 1 0 0 0];

internalField   nonuniform List<scalar> 
3200
(
339.834
340.067
340.365
340.689
341.024
341.352
341.654
341.91
342.096
342.194
342.194
342.096
341.91
341.654
341.352
341.024
340.689
340.365
340.067
339.834
334.656
334.853
335.11
335.39
335.68
335.963
336.225
336.446
336.607
336.692
336.692
336.607
336.446
336.225
335.963
335.68
335.39
335.11
334.853
334.656
329.421
329.585
329.801
330.038
330.283
330.522
330.743
330.93
331.065
331.137
331.137
331.065
330.93
330.743
330.522
330.283
330.038
329.801
329.585
329.421
324.139
324.271
324.447
324.641
324.841
325.037
325.217
325.369
325.48
325.539
325.539
325.48
325.369
325.217
325.037
324.841
324.641
324.447
324.271
324.139
318.819
318.92
319.057
319.208
319.363
319.515
319.656
319.774
319.86
319.905
319.905
319.86
319.774
319.656
319.515
319.363
319.208
319.057
318.92
318.819
313.47
313.541
313.639
313.746
313.857
313.966
314.066
314.15
314.212
314.244
314.244
314.212
314.15
314.066
313.966
313.857
313.746
313.639
313.541
313.47
308.099
308.142
308.201
308.265
308.332
308.397
308.457
308.508
308.544
308.564
308.564
308.544
308.508
308.457
308.397
308.332
308.265
308.201
308.142
308.099
302.716
302.731
302.75
302.772
302.794
302.816
302.836
302.853
302.866
302.872
302.872
302.866
302.853
302.836
302.816
302.794
302.772
302.75
302.731
302.716
340
340.231
340.526
340.848
341.178
341.503
341.802
342.054
342.238
342.335
342.335
342.238
342.054
341.802
341.503
341.178
340.848
340.526
340.231
340
334.8
334.995
335.25
335.528
335.814
336.095
336.354
336.572
336.73
336.814
336.814
336.73
336.572
336.354
336.095
335.814
335.528
335.25
334.995
334.8
329.543
329.706
329.92
330.155
330.397
330.634
330.852
331.036
331.17
331.241
331.241
331.17
331.036
330.852
330.634
330.397
330.155
329.92
329.706
329.543
324.239
324.37
324.545
324.737
324.935
325.128
325.307
325.457
325.567
325.624
325.624
325.567
325.457
325.307
325.128
324.935
324.737
324.545
324.37
324.239
318.897
318.998
319.133
319.283
319.436
319.587
319.725
319.842
319.927
319.972
319.972
319.927
319.842
319.725
319.587
319.436
319.283
319.133
318.998
318.897
313.526
313.597
313.693
313.8
313.91
314.017
314.116
314.199
314.26
314.292
314.292
314.26
314.199
314.116
314.017
313.91
313.8
313.693
313.597
313.526
308.133
308.175
308.233
308.297
308.363
308.428
308.487
308.537
308.574
308.593
308.593
308.574
308.537
308.487
308.428
308.363
308.297
308.233
308.175
308.133
302.728
302.742
302.761
302.783
302.805
302.826
302.846
302.863
302.875
302.882
302.882
302.875
302.863
302.846
302.826
302.805
302.783
302.761
302.742
302.728
340.331
340.559
340.849
341.164
341.488
341.806
342.098
342.344
342.523
342.618
342.618
342.523
342.344
342.098
341.806
341.488
341.164
340.849
340.559
340.331
335.088
335.281
335.531
335.804
336.084
336.359
336.611
336.824
336.979
337.061
337.061
336.979
336.824
336.611
336.359
336.084
335.804
335.531
335.281
335.088
329.788
329.948
330.158
330.389
330.626
330.858
331.071
331.251
331.382
331.45
331.45
331.382
331.251
331.071
330.858
330.626
330.389
330.158
329.948
329.788
324.44
324.569
324.741
324.929
325.123
325.312
325.487
325.633
325.74
325.796
325.796
325.74
325.633
325.487
325.312
325.123
324.929
324.741
324.569
324.44
319.054
319.152
319.286
319.432
319.583
319.73
319.866
319.98
320.062
320.106
320.106
320.062
319.98
319.866
319.73
319.583
319.432
319.286
319.152
319.054
313.638
313.707
313.803
313.907
314.015
314.12
314.217
314.298
314.357
314.388
314.388
314.357
314.298
314.217
314.12
314.015
313.907
313.803
313.707
313.638
308.2
308.242
308.299
308.362
308.426
308.49
308.548
308.596
308.632
308.65
308.65
308.632
308.596
308.548
308.49
308.426
308.362
308.299
308.242
308.2
302.75
302.764
302.783
302.804
302.826
302.847
302.867
302.883
302.895
302.901
302.901
302.895
302.883
302.867
302.847
302.826
302.804
302.783
302.764
302.75
340.829
341.051
341.334
341.641
341.955
342.263
342.545
342.782
342.955
343.046
343.046
342.955
342.782
342.545
342.263
341.955
341.641
341.334
341.051
340.829
335.521
335.709
335.953
336.218
336.49
336.756
337
337.206
337.355
337.433
337.433
337.355
337.206
337
336.756
336.49
336.218
335.953
335.709
335.521
330.155
330.311
330.517
330.741
330.971
331.196
331.402
331.575
331.701
331.767
331.767
331.701
331.575
331.402
331.196
330.971
330.741
330.517
330.311
330.155
324.741
324.867
325.034
325.218
325.406
325.589
325.758
325.899
326.002
326.056
326.056
326.002
325.899
325.758
325.589
325.406
325.218
325.034
324.867
324.741
319.288
319.385
319.515
319.657
319.804
319.946
320.077
320.187
320.267
320.309
320.309
320.267
320.187
320.077
319.946
319.804
319.657
319.515
319.385
319.288
313.806
313.874
313.966
314.068
314.173
314.275
314.368
314.446
314.503
314.533
314.533
314.503
314.446
314.368
314.275
314.173
314.068
313.966
313.874
313.806
308.301
308.342
308.398
308.459
308.521
308.583
308.639
308.686
308.72
308.738
308.738
308.72
308.686
308.639
308.583
308.521
308.459
308.398
308.342
308.301
302.784
302.798
302.816
302.837
302.858
302.878
302.897
302.913
302.924
302.93
302.93
302.924
302.913
302.897
302.878
302.858
302.837
302.816
302.798
302.784
341.494
341.709
341.983
342.279
342.581
342.875
343.145
343.371
343.535
343.622
343.622
343.535
343.371
343.145
342.875
342.581
342.279
341.983
341.709
341.494
336.099
336.281
336.517
336.773
337.035
337.29
337.523
337.719
337.86
337.935
337.935
337.86
337.719
337.523
337.29
337.035
336.773
336.517
336.281
336.099
330.645
330.797
330.996
331.212
331.433
331.648
331.846
332.011
332.13
332.193
332.193
332.13
332.011
331.846
331.648
331.433
331.212
330.996
330.797
330.645
325.143
325.265
325.427
325.604
325.785
325.961
326.122
326.257
326.355
326.406
326.406
326.355
326.257
326.122
325.961
325.785
325.604
325.427
325.265
325.143
319.602
319.695
319.821
319.959
320.099
320.236
320.361
320.466
320.542
320.582
320.582
320.542
320.466
320.361
320.236
320.099
319.959
319.821
319.695
319.602
314.03
314.096
314.186
314.284
314.384
314.482
314.571
314.646
314.7
314.729
314.729
314.7
314.646
314.571
314.482
314.384
314.284
314.186
314.096
314.03
308.436
308.476
308.529
308.588
308.649
308.707
308.761
308.806
308.838
308.855
308.855
308.838
308.806
308.761
308.707
308.649
308.588
308.529
308.476
308.436
302.829
302.843
302.861
302.88
302.901
302.92
302.938
302.953
302.964
302.97
302.97
302.964
302.953
302.938
302.92
302.901
302.88
302.861
302.843
302.829
342.326
342.534
342.796
343.079
343.367
343.647
343.902
344.116
344.27
344.351
344.351
344.27
344.116
343.902
343.647
343.367
343.079
342.796
342.534
342.326
336.823
336.998
337.225
337.47
337.719
337.961
338.182
338.366
338.5
338.57
338.57
338.5
338.366
338.182
337.961
337.719
337.47
337.225
336.998
336.823
331.26
331.405
331.596
331.803
332.014
332.219
332.405
332.561
332.674
332.733
332.733
332.674
332.561
332.405
332.219
332.014
331.803
331.596
331.405
331.26
325.647
325.764
325.92
326.089
326.262
326.429
326.581
326.709
326.801
326.849
326.849
326.801
326.709
326.581
326.429
326.262
326.089
325.92
325.764
325.647
319.995
320.085
320.205
320.337
320.471
320.601
320.719
320.818
320.89
320.927
320.927
320.89
320.818
320.719
320.601
320.471
320.337
320.205
320.085
319.995
314.311
314.375
314.461
314.554
314.65
314.743
314.828
314.898
314.949
314.976
314.976
314.949
314.898
314.828
314.743
314.65
314.554
314.461
314.375
314.311
308.605
308.643
308.695
308.751
308.809
308.864
308.915
308.957
308.988
309.004
309.004
308.988
308.957
308.915
308.864
308.809
308.751
308.695
308.643
308.605
302.886
302.899
302.916
302.935
302.954
302.973
302.99
303.004
303.014
303.02
303.02
303.014
303.004
302.99
302.973
302.954
302.935
302.916
302.899
302.886
343.328
343.526
343.776
344.045
344.317
344.58
344.82
345.019
345.163
345.238
345.238
345.163
345.019
344.82
344.58
344.317
344.045
343.776
343.526
343.328
337.693
337.861
338.077
338.309
338.545
338.773
338.98
339.153
339.277
339.342
339.342
339.277
339.153
338.98
338.773
338.545
338.309
338.077
337.861
337.693
331.999
332.138
332.32
332.516
332.716
332.908
333.083
333.229
333.334
333.389
333.389
333.334
333.229
333.083
332.908
332.716
332.516
332.32
332.138
331.999
326.253
326.365
326.514
326.674
326.837
326.995
327.138
327.257
327.343
327.388
327.388
327.343
327.257
327.138
326.995
326.837
326.674
326.514
326.365
326.253
320.467
320.553
320.668
320.793
320.92
321.042
321.153
321.246
321.312
321.347
321.347
321.312
321.246
321.153
321.042
320.92
320.793
320.668
320.553
320.467
314.649
314.71
314.792
314.881
314.971
315.059
315.138
315.204
315.252
315.277
315.277
315.252
315.204
315.138
315.059
314.971
314.881
314.792
314.71
314.649
308.808
308.845
308.894
308.947
309.002
309.054
309.102
309.141
309.17
309.185
309.185
309.17
309.141
309.102
309.054
309.002
308.947
308.894
308.845
308.808
302.954
302.966
302.983
303.001
303.019
303.037
303.052
303.066
303.075
303.08
303.08
303.075
303.066
303.052
303.037
303.019
303.001
302.983
302.966
302.954
344.499
344.687
344.924
345.177
345.433
345.678
345.901
346.086
346.219
346.288
346.288
346.219
346.086
345.901
345.678
345.433
345.177
344.924
344.687
344.499
338.712
338.871
339.076
339.295
339.516
339.729
339.921
340.081
340.196
340.256
340.256
340.196
340.081
339.921
339.729
339.516
339.295
339.076
338.871
338.712
332.863
332.995
333.167
333.352
333.54
333.719
333.882
334.017
334.114
334.165
334.165
334.114
334.017
333.882
333.719
333.54
333.352
333.167
332.995
332.863
326.962
327.068
327.209
327.36
327.513
327.66
327.793
327.904
327.983
328.025
328.025
327.983
327.904
327.793
327.66
327.513
327.36
327.209
327.068
326.962
321.019
321.101
321.21
321.328
321.447
321.561
321.664
321.75
321.812
321.844
321.844
321.812
321.75
321.664
321.561
321.447
321.328
321.21
321.101
321.019
315.044
315.102
315.18
315.264
315.349
315.43
315.504
315.566
315.61
315.633
315.633
315.61
315.566
315.504
315.43
315.349
315.264
315.18
315.102
315.044
309.046
309.08
309.127
309.177
309.228
309.278
309.322
309.359
309.385
309.399
309.399
309.385
309.359
309.322
309.278
309.228
309.177
309.127
309.08
309.046
303.034
303.045
303.061
303.078
303.095
303.111
303.126
303.139
303.147
303.152
303.152
303.147
303.139
303.126
303.111
303.095
303.078
303.061
303.045
303.034
345.841
346.019
346.242
346.479
346.717
346.945
347.15
347.32
347.442
347.506
347.506
347.442
347.32
347.15
346.945
346.717
346.479
346.242
346.019
345.841
339.879
340.03
340.222
340.427
340.633
340.83
341.008
341.155
341.261
341.316
341.316
341.261
341.155
341.008
340.83
340.633
340.427
340.222
340.03
339.879
333.853
333.978
334.14
334.314
334.488
334.655
334.805
334.929
335.018
335.065
335.065
335.018
334.929
334.805
334.655
334.488
334.314
334.14
333.978
333.853
327.774
327.875
328.007
328.149
328.291
328.428
328.551
328.652
328.725
328.763
328.763
328.725
328.652
328.551
328.428
328.291
328.149
328.007
327.875
327.774
321.652
321.73
321.832
321.942
322.053
322.159
322.255
322.334
322.39
322.42
322.42
322.39
322.334
322.255
322.159
322.053
321.942
321.832
321.73
321.652
315.497
315.552
315.625
315.703
315.783
315.859
315.927
315.983
316.024
316.045
316.045
316.024
315.983
315.927
315.859
315.783
315.703
315.625
315.552
315.497
309.318
309.351
309.395
309.442
309.489
309.535
309.576
309.61
309.634
309.647
309.647
309.634
309.61
309.576
309.535
309.489
309.442
309.395
309.351
309.318
303.125
303.136
303.151
303.167
303.183
303.198
303.212
303.223
303.231
303.235
303.235
303.231
303.223
303.212
303.198
303.183
303.167
303.151
303.136
303.125
347.356
347.523
347.731
347.952
348.172
348.382
348.571
348.726
348.837
348.895
348.895
348.837
348.726
348.571
348.382
348.172
347.952
347.731
347.523
347.356
341.196
341.337
341.517
341.708
341.899
342.081
342.244
342.378
342.474
342.524
342.524
342.474
342.378
342.244
342.081
341.899
341.708
341.517
341.337
341.196
334.971
335.088
335.239
335.401
335.563
335.716
335.854
335.968
336.049
336.091
336.091
336.049
335.968
335.854
335.716
335.563
335.401
335.239
335.088
334.971
328.691
328.785
328.909
329.041
329.173
329.299
329.412
329.504
329.571
329.605
329.605
329.571
329.504
329.412
329.299
329.173
329.041
328.909
328.785
328.691
322.366
322.439
322.535
322.638
322.74
322.838
322.926
322.998
323.05
323.077
323.077
323.05
322.998
322.926
322.838
322.74
322.638
322.535
322.439
322.366
316.008
316.059
316.128
316.201
316.275
316.344
316.407
316.459
316.496
316.515
316.515
316.496
316.459
316.407
316.344
316.275
316.201
316.128
316.059
316.008
309.625
309.656
309.697
309.741
309.785
309.827
309.865
309.896
309.918
309.929
309.929
309.918
309.896
309.865
309.827
309.785
309.741
309.697
309.656
309.625
303.228
303.238
303.252
303.267
303.282
303.296
303.308
303.319
303.326
303.33
303.33
303.326
303.319
303.308
303.296
303.282
303.267
303.252
303.238
303.228
349.043
349.199
349.393
349.598
349.801
349.993
350.165
350.306
350.406
350.459
350.459
350.406
350.306
350.165
349.993
349.801
349.598
349.393
349.199
349.043
342.663
342.795
342.963
343.14
343.316
343.482
343.631
343.753
343.84
343.885
343.885
343.84
343.753
343.631
343.482
343.316
343.14
342.963
342.795
342.663
336.215
336.325
336.466
336.616
336.765
336.906
337.032
337.135
337.208
337.247
337.247
337.208
337.135
337.032
336.906
336.765
336.616
336.466
336.325
336.215
329.712
329.8
329.915
330.037
330.159
330.275
330.378
330.462
330.522
330.553
330.553
330.522
330.462
330.378
330.275
330.159
330.037
329.915
329.8
329.712
323.162
323.23
323.319
323.414
323.509
323.599
323.679
323.745
323.791
323.816
323.816
323.791
323.745
323.679
323.599
323.509
323.414
323.319
323.23
323.162
316.578
316.626
316.689
316.757
316.825
316.889
316.946
316.993
317.026
317.044
317.044
317.026
316.993
316.946
316.889
316.825
316.757
316.689
316.626
316.578
309.968
309.996
310.035
310.075
310.116
310.155
310.189
310.217
310.237
310.248
310.248
310.237
310.217
310.189
310.155
310.116
310.075
310.035
309.996
309.968
303.343
303.353
303.365
303.379
303.393
303.406
303.417
303.427
303.433
303.437
303.437
303.433
303.427
303.417
303.406
303.393
303.379
303.365
303.353
303.343
350.904
351.05
351.23
351.418
351.604
351.78
351.936
352.063
352.153
352.2
352.2
352.153
352.063
351.936
351.78
351.604
351.418
351.23
351.05
350.904
344.281
344.404
344.559
344.723
344.884
345.036
345.171
345.282
345.36
345.401
345.401
345.36
345.282
345.171
345.036
344.884
344.723
344.559
344.404
344.281
337.588
337.691
337.821
337.959
338.096
338.225
338.339
338.432
338.499
338.533
338.533
338.499
338.432
338.339
338.225
338.096
337.959
337.821
337.691
337.588
330.838
330.92
331.027
331.139
331.251
331.357
331.45
331.526
331.581
331.609
331.609
331.581
331.526
331.45
331.357
331.251
331.139
331.027
330.92
330.838
324.04
324.103
324.186
324.273
324.36
324.442
324.515
324.574
324.617
324.638
324.638
324.617
324.574
324.515
324.442
324.36
324.273
324.186
324.103
324.04
317.206
317.25
317.309
317.372
317.434
317.493
317.544
317.587
317.617
317.633
317.633
317.617
317.587
317.544
317.493
317.434
317.372
317.309
317.25
317.206
310.345
310.372
310.407
310.445
310.482
310.517
310.549
310.574
310.592
310.602
310.602
310.592
310.574
310.549
310.517
310.482
310.445
310.407
310.372
310.345
303.47
303.479
303.49
303.503
303.515
303.527
303.538
303.546
303.552
303.555
303.555
303.552
303.546
303.538
303.527
303.515
303.503
303.49
303.479
303.47
352.939
353.074
353.24
353.413
353.583
353.743
353.884
353.998
354.08
354.122
354.122
354.08
353.998
353.884
353.743
353.583
353.413
353.24
353.074
352.939
346.05
346.165
346.308
346.458
346.605
346.743
346.866
346.965
347.035
347.072
347.072
347.035
346.965
346.866
346.743
346.605
346.458
346.308
346.165
346.05
339.09
339.184
339.305
339.432
339.557
339.674
339.777
339.861
339.921
339.952
339.952
339.921
339.861
339.777
339.674
339.557
339.432
339.305
339.184
339.09
332.069
332.145
332.244
332.347
332.449
332.545
332.63
332.698
332.747
332.772
332.772
332.747
332.698
332.63
332.545
332.449
332.347
332.244
332.145
332.069
324.999
325.058
325.134
325.215
325.294
325.369
325.435
325.488
325.526
325.546
325.546
325.526
325.488
325.435
325.369
325.294
325.215
325.134
325.058
324.999
317.892
317.933
317.988
318.045
318.102
318.155
318.203
318.241
318.268
318.282
318.282
318.268
318.241
318.203
318.155
318.102
318.045
317.988
317.933
317.892
310.758
310.783
310.815
310.85
310.884
310.916
310.944
310.967
310.984
310.992
310.992
310.984
310.967
310.944
310.916
310.884
310.85
310.815
310.783
310.758
303.608
303.616
303.627
303.639
303.65
303.661
303.67
303.678
303.684
303.686
303.686
303.684
303.678
303.67
303.661
303.65
303.639
303.627
303.616
303.608
355.146
355.271
355.424
355.583
355.738
355.882
356.009
356.112
356.185
356.222
356.222
356.185
356.112
356.009
355.882
355.738
355.583
355.424
355.271
355.146
347.969
348.075
348.207
348.344
348.478
348.604
348.714
348.803
348.866
348.899
348.899
348.866
348.803
348.714
348.604
348.478
348.344
348.207
348.075
347.969
340.718
340.805
340.916
341.033
341.146
341.252
341.345
341.421
341.474
341.502
341.502
341.474
341.421
341.345
341.252
341.146
341.033
340.916
340.805
340.718
333.404
333.474
333.565
333.66
333.753
333.84
333.916
333.978
334.021
334.044
334.044
334.021
333.978
333.916
333.84
333.753
333.66
333.565
333.474
333.404
326.039
326.094
326.164
326.238
326.31
326.378
326.437
326.485
326.519
326.537
326.537
326.519
326.485
326.437
326.378
326.31
326.238
326.164
326.094
326.039
318.636
318.675
318.725
318.777
318.829
318.877
318.92
318.954
318.979
318.991
318.991
318.979
318.954
318.92
318.877
318.829
318.777
318.725
318.675
318.636
311.205
311.228
311.258
311.29
311.321
311.35
311.376
311.396
311.411
311.418
311.418
311.411
311.396
311.376
311.35
311.321
311.29
311.258
311.228
311.205
303.758
303.766
303.776
303.786
303.797
303.807
303.815
303.822
303.827
303.829
303.829
303.827
303.822
303.815
303.807
303.797
303.786
303.776
303.766
303.758
357.523
357.638
357.778
357.923
358.064
358.194
358.308
358.401
358.466
358.499
358.499
358.466
358.401
358.308
358.194
358.064
357.923
357.778
357.638
357.523
350.034
350.132
350.253
350.378
350.5
350.613
350.712
350.792
350.849
350.878
350.878
350.849
350.792
350.712
350.613
350.5
350.378
350.253
350.132
350.034
342.469
342.55
342.652
342.758
342.861
342.957
343.041
343.108
343.156
343.181
343.181
343.156
343.108
343.041
342.957
342.861
342.758
342.652
342.55
342.469
334.839
334.904
334.988
335.074
335.159
335.237
335.306
335.361
335.4
335.421
335.421
335.4
335.361
335.306
335.237
335.159
335.074
334.988
334.904
334.839
327.158
327.208
327.272
327.34
327.406
327.467
327.52
327.563
327.594
327.609
327.609
327.594
327.563
327.52
327.467
327.406
327.34
327.272
327.208
327.158
319.436
319.472
319.518
319.566
319.613
319.657
319.695
319.726
319.747
319.758
319.758
319.747
319.726
319.695
319.657
319.613
319.566
319.518
319.472
319.436
311.686
311.707
311.735
311.764
311.792
311.818
311.841
311.86
311.873
311.88
311.88
311.873
311.86
311.841
311.818
311.792
311.764
311.735
311.707
311.686
303.919
303.926
303.936
303.945
303.955
303.964
303.971
303.977
303.982
303.984
303.984
303.982
303.977
303.971
303.964
303.955
303.945
303.936
303.926
303.919
360.056
360.162
360.291
360.423
360.55
360.668
360.771
360.853
360.911
360.941
360.941
360.911
360.853
360.771
360.668
360.55
360.423
360.291
360.162
360.056
352.234
352.324
352.435
352.549
352.66
352.762
352.851
352.922
352.973
352.999
352.999
352.973
352.922
352.851
352.762
352.66
352.549
352.435
352.324
352.234
344.333
344.408
344.501
344.598
344.692
344.778
344.853
344.914
344.957
344.978
344.978
344.957
344.914
344.853
344.778
344.692
344.598
344.501
344.408
344.333
336.367
336.427
336.503
336.582
336.659
336.73
336.791
336.841
336.876
336.894
336.894
336.876
336.841
336.791
336.73
336.659
336.582
336.503
336.427
336.367
328.347
328.393
328.452
328.514
328.574
328.629
328.677
328.715
328.743
328.756
328.756
328.743
328.715
328.677
328.629
328.574
328.514
328.452
328.393
328.347
320.287
320.319
320.362
320.406
320.448
320.488
320.522
320.55
320.569
320.579
320.579
320.569
320.55
320.522
320.488
320.448
320.406
320.362
320.319
320.287
312.197
312.217
312.242
312.269
312.294
312.318
312.339
312.355
312.367
312.373
312.373
312.367
312.355
312.339
312.318
312.294
312.269
312.242
312.217
312.197
304.091
304.097
304.106
304.115
304.123
304.131
304.138
304.144
304.147
304.149
304.149
304.147
304.144
304.138
304.131
304.123
304.115
304.106
304.097
304.091
362.718
362.816
362.933
363.054
363.169
363.276
363.368
363.442
363.493
363.52
363.52
363.493
363.442
363.368
363.276
363.169
363.054
362.933
362.816
362.718
354.541
354.624
354.725
354.829
354.93
355.022
355.102
355.166
355.211
355.234
355.234
355.211
355.166
355.102
355.022
354.93
354.829
354.725
354.624
354.541
346.285
346.354
346.439
346.528
346.613
346.691
346.758
346.813
346.851
346.87
346.87
346.851
346.813
346.758
346.691
346.613
346.528
346.439
346.354
346.285
337.964
338.019
338.089
338.161
338.23
338.294
338.35
338.394
338.425
338.441
338.441
338.425
338.394
338.35
338.294
338.23
338.161
338.089
338.019
337.964
329.589
329.632
329.686
329.742
329.796
329.846
329.889
329.924
329.948
329.96
329.96
329.948
329.924
329.889
329.846
329.796
329.742
329.686
329.632
329.589
321.174
321.204
321.243
321.283
321.322
321.357
321.388
321.413
321.43
321.439
321.439
321.43
321.413
321.388
321.357
321.322
321.283
321.243
321.204
321.174
312.73
312.748
312.771
312.795
312.819
312.84
312.859
312.874
312.884
312.889
312.889
312.884
312.874
312.859
312.84
312.819
312.795
312.771
312.748
312.73
304.269
304.275
304.283
304.291
304.299
304.306
304.312
304.317
304.321
304.323
304.323
304.321
304.317
304.312
304.306
304.299
304.291
304.283
304.275
304.269
365.438
365.528
365.636
365.745
365.85
365.946
366.029
366.096
366.142
366.166
366.166
366.142
366.096
366.029
365.946
365.85
365.745
365.636
365.528
365.438
356.888
356.964
357.057
357.152
357.243
357.326
357.398
357.456
357.496
357.517
357.517
357.496
357.456
357.398
357.326
357.243
357.152
357.057
356.964
356.888
348.262
348.325
348.404
348.484
348.562
348.632
348.693
348.742
348.776
348.794
348.794
348.776
348.742
348.693
348.632
348.562
348.484
348.404
348.325
348.262
339.575
339.626
339.69
339.756
339.819
339.877
339.927
339.967
339.995
340.009
340.009
339.995
339.967
339.927
339.877
339.819
339.756
339.69
339.626
339.575
330.839
330.878
330.928
330.979
331.028
331.073
331.112
331.143
331.165
331.176
331.176
331.165
331.143
331.112
331.073
331.028
330.979
330.928
330.878
330.839
322.065
322.093
322.128
322.165
322.2
322.232
322.26
322.282
322.298
322.306
322.306
322.298
322.282
322.26
322.232
322.2
322.165
322.128
322.093
322.065
313.264
313.281
313.302
313.324
313.345
313.365
313.382
313.395
313.404
313.409
313.409
313.404
313.395
313.382
313.365
313.345
313.324
313.302
313.281
313.264
304.448
304.454
304.461
304.468
304.475
304.482
304.487
304.492
304.495
304.497
304.497
304.495
304.492
304.487
304.482
304.475
304.468
304.461
304.454
304.448
368.038
368.121
368.221
368.321
368.417
368.505
368.58
368.64
368.682
368.704
368.704
368.682
368.64
368.58
368.505
368.417
368.321
368.221
368.121
368.038
359.104
359.174
359.26
359.347
359.431
359.507
359.573
359.625
359.661
359.68
359.68
359.661
359.625
359.573
359.507
359.431
359.347
359.26
359.174
359.104
350.11
350.168
350.24
350.315
350.385
350.45
350.506
350.55
350.581
350.597
350.597
350.581
350.55
350.506
350.45
350.385
350.315
350.24
350.168
350.11
341.067
341.114
341.174
341.234
341.293
341.345
341.391
341.427
341.453
341.466
341.466
341.453
341.427
341.391
341.345
341.293
341.234
341.174
341.114
341.067
331.987
332.024
332.07
332.117
332.162
332.203
332.239
332.267
332.287
332.297
332.297
332.287
332.267
332.239
332.203
332.162
332.117
332.07
332.024
331.987
322.879
322.905
322.937
322.971
323.004
323.033
323.059
323.079
323.093
323.1
323.1
323.093
323.079
323.059
323.033
323.004
322.971
322.937
322.905
322.879
313.751
313.766
313.786
313.806
313.826
313.843
313.859
313.871
313.879
313.884
313.884
313.879
313.871
313.859
313.843
313.826
313.806
313.786
313.766
313.751
304.611
304.616
304.622
304.629
304.636
304.642
304.647
304.651
304.654
304.655
304.655
304.654
304.651
304.647
304.642
304.636
304.629
304.622
304.616
304.611
370.061
370.139
370.232
370.327
370.417
370.499
370.569
370.624
370.663
370.683
370.683
370.663
370.624
370.569
370.499
370.417
370.327
370.232
370.139
370.061
360.763
360.829
360.91
360.993
361.071
361.142
361.203
361.252
361.286
361.303
361.303
361.286
361.252
361.203
361.142
361.071
360.993
360.91
360.829
360.763
351.451
351.506
351.574
351.644
351.711
351.772
351.824
351.865
351.894
351.909
351.909
351.894
351.865
351.824
351.772
351.711
351.644
351.574
351.506
351.451
342.124
342.169
342.225
342.283
342.337
342.387
342.43
342.464
342.488
342.5
342.5
342.488
342.464
342.43
342.387
342.337
342.283
342.225
342.169
342.124
332.786
332.82
332.864
332.909
332.952
332.99
333.024
333.05
333.069
333.078
333.078
333.069
333.05
333.024
332.99
332.952
332.909
332.864
332.82
332.786
323.438
323.462
323.493
323.525
323.556
323.584
323.608
323.627
323.64
323.647
323.647
323.64
323.627
323.608
323.584
323.556
323.525
323.493
323.462
323.438
314.082
314.096
314.115
314.134
314.152
314.169
314.184
314.195
314.203
314.207
314.207
314.203
314.195
314.184
314.169
314.152
314.134
314.115
314.096
314.082
304.721
304.726
304.732
304.738
304.745
304.75
304.755
304.759
304.762
304.763
304.763
304.762
304.759
304.755
304.75
304.745
304.738
304.732
304.726
304.721
)
;

boundaryField
{
    hotSide
    {
        type            fixedGradient;
        gradient        nonuniform List<scalar> 
400
(
409.019
410.73
414.153
419.295
426.161
434.76
445.103
457.2
471.062
486.701
504.127
523.35
544.381
567.226
591.895
618.392
646.724
676.895
708.907
742.764
412.087
413.774
417.149
422.221
428.998
437.492
447.716
459.683
473.409
488.907
506.192
525.275
546.167
568.88
593.421
619.798
648.016
678.08
709.994
743.759
415.408
417.065
420.384
425.373
432.045
440.415
450.499
462.316
475.885
491.222
508.346
527.27
548.01
570.575
594.977
621.222
649.318
679.268
711.077
744.746
418.925
420.549
423.802
428.695
435.246
443.473
453.399
465.046
478.437
493.596
510.542
529.293
549.865
572.273
596.525
622.632
650.599
680.432
712.132
745.703
422.542
424.127
427.306
432.093
438.508
446.577
456.328
467.789
480.989
495.955
512.712
531.28
551.678
573.921
598.02
623.985
651.823
681.537
713.129
746.603
426.106
427.651
430.751
435.423
441.695
449.598
459.165
470.433
483.436
498.205
514.769
533.153
553.376
575.457
599.406
625.233
652.945
682.545
714.035
747.417
429.415
430.919
433.94
438.499
444.629
452.368
461.756
472.836
485.648
500.228
516.609
534.819
554.88
576.81
600.621
626.322
653.92
683.417
714.816
748.115
432.223
433.691
436.64
441.098
447.101
454.694
463.923
474.837
487.482
501.898
518.122
536.183
556.106
577.907
601.602
627.198
654.701
684.114
715.437
748.669
434.278
435.718
438.613
442.993
448.899
456.381
465.491
476.281
488.801
503.095
519.202
537.153
556.974
578.683
602.293
627.812
655.248
684.6
715.869
749.053
435.367
436.791
439.657
443.994
449.848
457.27
466.315
477.038
489.491
503.72
519.765
537.658
557.425
579.084
602.65
628.13
655.529
684.85
716.091
749.25
435.367
436.791
439.657
443.994
449.848
457.27
466.315
477.038
489.491
503.72
519.765
537.658
557.425
579.084
602.65
628.13
655.529
684.85
716.091
749.25
434.278
435.718
438.613
442.993
448.899
456.381
465.491
476.281
488.801
503.095
519.202
537.153
556.974
578.683
602.293
627.812
655.248
684.6
715.869
749.053
432.223
433.691
436.64
441.098
447.101
454.694
463.923
474.837
487.482
501.898
518.122
536.183
556.106
577.907
601.602
627.198
654.701
684.114
715.437
748.669
429.415
430.919
433.94
438.499
444.629
452.368
461.756
472.836
485.648
500.228
516.609
534.819
554.88
576.81
600.621
626.322
653.92
683.417
714.816
748.115
426.106
427.651
430.751
435.423
441.695
449.598
459.165
470.433
483.436
498.205
514.769
533.153
553.376
575.457
599.406
625.233
652.945
682.545
714.035
747.417
422.542
424.127
427.306
432.093
438.508
446.577
456.328
467.789
480.989
495.955
512.712
531.28
551.678
573.921
598.02
623.985
651.823
681.537
713.129
746.603
418.925
420.549
423.802
428.695
435.246
443.473
453.399
465.046
478.437
493.596
510.542
529.293
549.865
572.273
596.525
622.632
650.599
680.432
712.132
745.703
415.408
417.065
420.384
425.373
432.045
440.415
450.499
462.316
475.885
491.222
508.346
527.27
548.01
570.575
594.977
621.222
649.318
679.268
711.077
744.746
412.087
413.774
417.149
422.221
428.998
437.492
447.716
459.683
473.409
488.907
506.192
525.275
546.167
568.88
593.421
619.798
648.016
678.08
709.994
743.759
409.019
410.73
414.153
419.295
426.161
434.76
445.103
457.2
471.062
486.701
504.127
523.35
544.381
567.226
591.895
618.392
646.724
676.895
708.907
742.764
)
;
    }
    coldSide
    {
        type            mixed;
        refValue        uniform 300;
        refGradient     uniform 0;
        valueFraction   uniform 0.991591;
        source          uniform 0;
        value           nonuniform List<scalar> 
400
(
300.023
300.023
300.023
300.023
300.024
300.024
300.025
300.026
300.026
300.027
300.028
300.029
300.03
300.032
300.033
300.034
300.036
300.037
300.039
300.04
300.023
300.023
300.023
300.024
300.024
300.024
300.025
300.026
300.026
300.027
300.028
300.029
300.03
300.032
300.033
300.034
300.036