/*--------------------------------*- C++ -*----------------------------------*\
| =========                 |                                                 |
| \\      /  F ield         | OpenFOAM: The Open Source CFD Toolbox           |
|  \\    /   O peration     | Version:  2212                                  |
|   \\  /    A nd           | Website:  www.openfoam.com                      |
|    \\/     M anipulation  |                                                 |
\*---------------------------------------------------------------------------*/
FoamFile
{
    version     2.0;
    format      ascii;
    arch        "LSB;label=32;scalar=64";
    class       volScalarField;
    location    "0";
    object      T;
}
// * * * * * * * * * * * * * * * * * * * * * * * * * * * * * * * * * * * * * //

dimensions      [0 0 0 1 0 0 0];

internalField   nonuniform List<scalar> 
3200
(
334.495
334.995
335.652
336.518
336.765
337.04
337.154
337.295
337.225
337.244
337.687
337.782
337.187
336.645
336.366
335.743
335.42
334.926
333.981
333.559
330.061
330.486
330.991
331.795
332.007
332.275
332.337
332.47
332.457
332.426
332.839
332.945
332.413
331.933
331.673
331.14
330.869
330.425
329.589
329.263
325.581
325.89
326.309
326.999
327.149
327.385
327.491
327.585
327.579
327.57
327.938
328
327.555
327.146
326.913
326.485
326.271
325.81
325.113
324.852
321.004
321.244
321.623
322.174
322.295
322.464
322.577
322.662
322.705
322.632
322.954
322.983
322.623
322.25
322.148
321.794
321.595
321.171
320.603
320.39
316.443
316.573
316.836
317.311
317.437
317.52
317.61
317.663
317.733
317.651
317.945
317.955
317.631
317.275
317.274
316.998
316.813
316.485
316.058
315.895
311.796
311.836
312.022
312.365
312.506
312.558
312.635
312.649
312.679
312.654
312.868
312.888
312.593
312.308
312.356
312.2
312.036
311.834
311.519
311.347
307.077
307.117
307.183
307.443
307.545
307.574
307.594
307.599
307.594
307.621
307.767
307.78
307.578
307.398
307.422
307.356
307.279
307.148
306.902
306.803
302.37
302.391
302.399
302.503
302.535
302.521
302.531
302.535
302.541
302.567
302.586
302.6
302.553
302.471
302.483
302.485
302.437
302.414
302.312
302.275
335.407
336.22
336.863
337.359
337.668
338.217
338.392
338.557
338.577
338.668
338.666
338.584
338.375
337.787
337.54
336.905
336.357
336.006
335.247
334.736
330.797
331.475
332.074
332.498
332.728
333.214
333.416
333.563
333.519
333.649
333.638
333.558
333.359
332.835
332.697
332.069
331.662
331.33
330.616
330.191
326.198
326.694
327.201
327.566
327.744
328.184
328.411
328.499
328.507
328.538
328.543
328.498
328.331
327.85
327.767
327.222
326.861
326.587
325.984
325.613
321.577
321.894
322.304
322.633
322.785
323.12
323.312
323.372
323.424
323.399
323.413
323.431
323.211
322.844
322.794
322.348
322.062
321.812
321.317
321.014
316.872
317.057
317.327
317.631
317.792
318.045
318.17
318.224
318.239
318.203
318.261
318.258
318.096
317.827
317.799
317.413
317.192
317.022
316.62
316.374
312.075
312.17
312.38
312.616
312.743
312.912
313.005
313.033
313.085
313.074
313.072
313.044
312.945
312.729
312.753
312.455
312.324
312.167
311.912
311.731
307.254
307.324
307.431
307.614
307.689
307.758
307.809
307.83
307.864
307.894
307.857
307.872
307.802
307.62
307.648
307.523
307.424
307.302
307.17
307.059
302.43
302.442
302.488
302.535
302.6
302.583
302.613
302.619
302.647
302.66
302.651
302.652
302.623
302.524
302.571
302.521
302.508
302.438
302.416
302.343
336.872
337.663
338.404
338.71
339.195
339.733
339.928
340.16
340.145
340.258
340.101
340.13
339.927
339.345
339.055
338.456
338.13
337.366
336.681
335.937
332.068
332.729
333.335
333.6
334.06
334.461
334.695
334.916
334.898
334.937
334.814
334.819
334.651
334.178
333.954
333.416
333.121
332.463
331.905
331.235
327.205
327.729
328.23
328.468
328.858
329.19
329.425
329.635
329.596
329.613
329.496
329.536
329.374
328.985
328.805
328.346
328.097
327.561
327.103
326.53
322.347
322.72
323.141
323.3
323.688
323.965
324.111
324.288
324.314
324.228
324.167
324.189
324.083
323.744
323.589
323.217
323.061
322.617
322.206
321.803
317.442
317.688
318.048
318.11
318.49
318.654
318.801
318.883
318.926
318.857
318.793
318.839
318.775
318.498
318.387
318.108
318.012
317.663
317.313
317.023
312.477
312.668
312.898
312.94
313.249
313.346
313.445
313.529
313.534
313.486
313.449
313.532
313.436
313.236
313.154
312.958
312.904
312.636
312.411
312.196
307.495
307.574
307.76
307.776
307.951
308.048
308.044
308.13
308.114
308.091
308.068
308.138
308.062
307.967
307.914
307.803
307.78
307.594
307.463
307.341
302.537
302.544
302.617
302.622
302.652
302.712
302.7
302.715
302.724
302.717
302.685
302.732
302.7
302.658
302.659
302.599
302.616
302.552
302.508
302.47
338.244
339.098
339.945
340.248
340.723
341.402
341.776
341.77
341.691
341.866
341.817
341.78
341.698
341.262
340.666
340.025
339.619
338.814
338.224
337.545
333.211
333.988
334.668
334.961
335.355
335.99
336.302
336.263
336.223
336.355
336.298
336.313
336.227
335.871
335.331
334.741
334.412
333.727
333.205
332.629
328.179
328.798
329.353
329.693
329.968
330.554
330.77
330.771
330.745
330.792
330.791
330.826
330.716
330.443
329.952
329.486
329.197
328.6
328.137
327.644
323.114
323.626
324.025
324.377
324.532
325.02
325.219
325.221
325.219
325.257
325.288
325.279
325.16
324.946
324.521
324.129
323.936
323.442
323.051
322.645
318.02
318.416
318.7
319.005
319.114
319.453
319.649
319.666
319.677
319.654
319.733
319.679
319.551
319.42
319.083
318.766
318.638
318.279
317.976
317.672
312.933
313.195
313.406
313.587
313.66
313.895
314.04
314.073
314.107
314.024
314.12
314.096
313.985
313.859
313.661
313.444
313.34
313.111
312.887
312.659
307.77
307.944
308.098
308.176
308.205
308.369
308.415
308.485
308.507
308.416
308.47
308.465
308.386
308.326
308.177
308.097
308.022
307.901
307.751
307.636
302.617
302.664
302.719
302.761
302.76
302.787
302.812
302.849
302.849
302.807
302.836
302.864
302.804
302.786
302.749
302.721
302.67
302.648
302.592
302.548
339.808
340.55
341.353
342.033
342.423
343.146
343.286
343.555
343.53
343.674
343.762
343.539
343.3
342.953
342.492
341.941
341.146
340.572
339.821
338.949
334.611
335.202
335.908
336.494
336.797
337.448
337.621
337.8
337.803
337.944
337.99
337.835
337.598
337.297
336.873
336.387
335.725
335.22
334.617
333.827
329.357
329.864
330.437
330.941
331.202
331.771
331.907
331.989
332.027
332.192
332.242
332.084
331.93
331.609
331.247
330.799
330.273
329.87
329.334
328.689
324.042
324.452
324.93
325.403
325.547
326.045
326.149
326.18
326.196
326.347
326.441
326.342
326.164
325.901
325.57
325.198
324.804
324.517
324.086
323.497
318.7
319.011
319.396
319.775
319.924
320.308
320.332
320.388
320.389
320.535
320.644
320.575
320.335
320.231
319.869
319.594
319.281
319.131
318.804
318.303
313.397
313.571
313.869
314.121
314.25
314.531
314.558
314.612
314.577
314.725
314.776
314.746
314.541
314.469
314.187
314.013
313.756
313.717
313.465
313.109
308.036
308.117
308.349
308.462
308.552
308.714
308.745
308.793
308.749
308.855
308.899
308.875
308.749
308.697
308.495
308.41
308.246
308.295
308.096
307.889
302.691
302.723
302.799
302.826
302.85
302.894
302.949
302.933
302.942
302.963
303.01
302.98
302.939
302.918
302.867
302.809
302.75
302.777
302.719
302.638
341.214
342.094
342.981
343.718
344.069
344.601
344.805
345.072
345.183
345.348
345.515
345.39
345.033
344.884
344.197
343.363
342.816
341.923
341.429
340.441
335.814
336.608
337.265
337.97
338.255
338.725
338.885
339.118
339.214
339.362
339.574
339.41
339.118
338.955
338.356
337.635
337.14
336.403
335.961
335.136
330.384
331.065
331.583
332.17
332.411
332.781
332.954
333.156
333.274
333.377
333.526
333.365
333.163
333.006
332.557
331.882
331.449
330.886
330.473
329.783
324.917
325.443
325.869
326.391
326.576
326.793
327.022
327.198
327.286
327.346
327.461
327.329
327.199
327.014
326.659
326.101
325.707
325.343
324.997
324.425
319.412
319.785
320.138
320.57
320.691
320.786
321.04
321.224
321.241
321.278
321.361
321.331
321.149
321.009
320.74
320.276
320.005
319.735
319.475
319.033
313.885
314.127
314.367
314.721
314.797
314.812
315.004
315.212
315.229
315.209
315.277
315.271
315.139
314.992
314.836
314.502
314.276
314.143
313.937
313.613
308.331
308.483
308.606
308.855
308.885
308.863
309.031
309.15
309.157
309.119
309.183
309.16
309.12
309.012
308.924
308.72
308.554
308.513
308.358
308.186
302.789
302.831
302.878
302.972
302.983
302.966
303.039
303.068
303.073
303.051
303.075
303.067
303.068
303.017
302.985
302.927
302.864
302.838
302.803
302.763
342.688
343.566
344.509
345.404
345.669
346.32
346.627
346.695
346.966
347.061
347.341
347.1
346.762
346.356
345.921
345.194
344.502
343.811
343.014
341.945
337.085
337.854
338.625
339.458
339.673
340.204
340.488
340.561
340.756
340.862
341.115
340.888
340.618
340.213
339.88
339.201
338.672
338.036
337.329
336.448
331.435
332.086
332.731
333.438
333.672
334.032
334.287
334.42
334.529
334.595
334.84
334.611
334.439
334.092
333.839
333.186
332.789
332.201
331.661
330.907
325.73
326.263
326.79
327.391
327.594
327.845
328.069
328.223
328.313
328.318
328.507
328.322
328.233
327.963
327.71
327.119
326.871
326.361
325.959
325.337
320.019
320.471
320.858
321.321
321.492
321.63
321.826
322.016
322.047
322.016
322.199
322.046
321.95
321.821
321.565
321.101
320.891
320.518
320.249
319.732
314.313
314.659
314.865
315.222
315.353
315.442
315.574
315.754
315.771
315.744
315.865
315.744
315.708
315.613
315.425
315.077
314.963
314.671
314.525
314.106
308.619
308.789
308.921
309.144
309.256
309.264
309.356
309.464
309.495
309.463
309.513
309.447
309.47
309.373
309.283
309.057
309.012
308.848
308.76
308.513
302.899
302.934
303.001
303.068
303.107
303.093
303.139
303.171
303.207
303.172
303.179
303.168
303.186
303.153
303.096
303.038
303.032
302.976
302.95
302.861
344.199
345.234
345.976
346.776
347.18
347.735
348.26
348.344
348.804
348.834
348.947
348.663
348.311
347.846
347.505
346.923
346.111
345.181
344.193
343.236
338.417
339.271
339.954
340.62
340.959
341.433
341.902
341.994
342.349
342.358
342.524
342.324
341.956
341.527
341.267
340.74
340.044
339.219
338.398
337.539
332.622
333.294
333.853
334.422
334.712
335.141
335.505
335.604
335.883
335.94
336.081
335.882
335.585
335.2
334.987
334.514
333.974
333.242
332.566
331.821
326.757
327.262
327.735
328.21
328.468
328.747
329.062
329.145
329.407
329.486
329.587
329.394
329.107
328.824
328.72
328.257
327.85
327.257
326.689
326.115
320.816
321.191
321.567
321.959
322.245
322.34
322.622
322.702
322.901
323.015
323.057
322.867
322.669
322.448
322.388
321.997
321.693
321.206
320.805
320.395
314.877
315.125
315.41
315.691
315.914
315.982
316.166
316.263
316.372
316.486
316.523
316.349
316.251
316.079
316.012
315.759
315.51
315.127
314.891
314.587
308.944
309.083
309.254
309.432
309.56
309.601
309.706
309.803
309.834
309.892
309.937
309.811
309.795
309.642
309.626
309.514
309.302
309.089
308.99
308.745
302.993
303.062
303.121
303.161
303.201
303.238
303.243
303.295
303.301
303.32
303.336
303.309
303.301
303.224
303.223
303.207
303.124
303.053
303.015
302.932
345.65
346.518
347.37
348.087
348.771
349.26
349.732
349.939
350.417
350.387
350.456
350.297
349.983
349.359
349.128
348.603
347.719
346.801
345.729
345.227
339.628
340.385
341.149
341.716
342.328
342.732
343.148
343.396
343.749
343.755
343.862
343.674
343.358
342.844
342.66
342.189
341.405
340.655
339.685
339.307
333.616
334.222
334.865
335.357
335.837
336.153
336.538
336.776
337.128
337.119
337.2
337.044
336.716
336.366
336.193
335.767
335.094
334.492
333.659
333.303
327.573
328.052
328.539
328.962
329.333
329.573
329.943
330.123
330.454
330.415
330.495
330.373
330.072
329.769
329.693
329.282
328.763
328.243
327.568
327.268
321.434
321.881
322.197
322.58
322.8
323.033
323.323
323.481
323.745
323.651
323.756
323.668
323.407
323.13
323.166
322.765
322.458
322.002
321.456
321.257
315.288
315.654
315.864
316.166
316.288
316.473
316.681
316.798
316.982
316.865
317.015
316.925
316.759
316.51
316.611
316.246
316.054
315.679
315.303
315.222
309.205
309.411
309.517
309.739
309.785
309.911
310.011
310.09
310.201
310.113
310.245
310.165
310.075
309.885
309.985
309.764
309.635
309.405
309.189
309.19
303.085
303.153
303.199
303.278
303.277
303.325
303.363
303.39
303.423
303.378
303.463
303.416
303.358
303.285
303.352
303.285
303.213
303.158
303.069
303.087
346.957
347.841
348.671
349.63
350.166
350.677
351.091
351.466
352.161
352.053
352.07
351.756
351.496
351.048
350.446
349.912
349.456
348.194
347.059
346.413
340.778
341.522
342.209
343.061
343.532
344.011
344.327
344.636
345.32
345.17
345.23
344.949
344.684
344.31
343.81
343.317
342.962
341.815
340.852
340.296
334.6
335.201
335.711
336.459
336.901
337.286
337.574
337.805
338.396
338.248
338.371
338.108
337.847
337.563
337.131
336.701
336.4
335.467
334.64
334.141
328.371
328.881
329.275
329.827
330.203
330.568
330.808
330.957
331.463
331.309
331.465
331.229
331
330.757
330.396
330.063
329.81
329.09
328.352
328.001
322.074
322.515
322.821
323.235
323.54
323.837
323.998
324.062
324.508
324.324
324.49
324.355
324.166
323.954
323.678
323.451
323.213
322.651
322.055
321.809
315.802
316.116
316.339
316.65
316.874
317.063
317.167
317.24
317.521
317.375
317.523
317.43
317.295
317.096
316.9
316.741
316.613
316.146
315.779
315.561
309.51
309.677
309.845
310.025
310.166
310.24
310.28
310.371
310.515
310.439
310.537
310.484
310.395
310.268
310.127
310.05
309.983
309.675
309.451
309.306
303.206
303.24
303.288
303.379
303.408
303.423
303.466
303.473
303.526
303.486
303.536
303.516
303.48
303.447
303.406
303.354
303.343
303.261
303.161
303.11
348.186
349.173
350.071
350.851
351.513
351.923
352.497
352.969
353.465
353.441
353.366
353.2
353.205
352.578
351.996
351.273
350.743
349.497
348.589
347.718
341.875
342.717
343.455
344.162
344.704
345.08
345.537
345.975
346.391
346.418
346.287
346.175
346.147
345.642
345.168
344.497
344.079
342.971
342.16
341.493
335.504
336.147
336.809
337.404
337.883
338.218
338.554
338.952
339.294
339.356
339.233
339.127
339.12
338.676
338.312
337.666
337.365
336.416
335.758
335.163
329.092
329.597
330.151
330.65
331.043
331.318
331.557
331.893
332.204
332.228
332.159
332.066
332.064
331.67
331.36
330.804
330.617
329.852
329.296
328.79
322.707
323.035
323.483
323.837
324.182
324.358
324.555
324.798
325.119
325.069
325.018
324.973
325.002
324.666
324.429
323.93
323.815
323.298
322.829
322.438
316.249
316.463
316.794
317.054
317.301
317.418
317.578
317.682
317.998
317.908
317.874
317.861
317.911
317.657
317.491
317.084
317.017
316.668
316.369
316.049
309.741
309.857
310.082
310.243
310.422
310.496
310.583
310.571
310.848
310.739
310.727
310.732
310.774
310.608
310.519
310.273
310.207
310.004
309.866
309.643
303.257
303.305
303.365
303.418
303.507
303.541
303.57
303.542
303.645
303.586
303.588
303.6
303.617
303.544
303.528
303.449
303.42
303.354
303.326
303.236
349.295
350.229
351.177
352.134
352.815
353.226
353.85
354.223
354.715
354.854
354.774
354.542
354.317
353.891
353.519
352.791
351.937
350.781
349.744
349.134
342.778
343.569
344.455
345.251
345.79
346.204
346.692
346.998
347.529
347.626
347.52
347.341
347.167
346.766
346.464
345.869
345.096
344.065
343.136
342.667
336.243
336.848
337.685
338.297
338.77
339.124
339.506
339.778
340.248
340.303
340.234
340.127
339.951
339.644
339.377
338.844
338.227
337.312
336.532
336.173
329.673
330.138
330.875
331.341
331.756
332.041
332.308
332.557
332.97
332.98
332.924
332.842
332.68
332.48
332.287
331.8
331.306
330.594
329.942
329.662
323.098
323.436
324.047
324.414
324.721
324.916
325.17
325.331
325.69
325.669
325.682
325.611
325.409
325.248
325.163
324.775
324.338
323.88
323.329
323.113
316.518
316.751
317.19
317.463
317.686
317.794
317.996
318.103
318.407
318.378
318.403
318.362
318.173
318.006
317.979
317.733
317.385
317.133
316.689
316.538
309.929
310.054
310.357
310.506
310.632
310.668
310.795
310.878
311.053
311.022
311.077
311.07
310.941
310.827
310.792
310.657
310.462
310.33
310.013
309.928
303.31
303.373
303.464
303.53
303.557
303.564
303.611
303.648
303.733
303.699
303.707
303.719
303.686
303.623
303.629
303.558
303.513
303.474
303.356
303.315
350.268
351.413
352.388
353.249
354.016
354.772
355.21
355.743
356.055
356.227
355.885
355.863
355.834
355.196
354.775
353.947
353.209
352.106
350.814
350.052
343.664
344.615
345.494
346.216
346.927
347.522
347.877
348.389
348.656
348.806
348.55
348.51
348.477
348
347.571
346.85
346.204
345.232
344.108
343.499
336.969
337.78
338.535
339.144
339.822
340.186
340.549
340.994
341.231
341.342
341.117
341.091
341.093
340.725
340.33
339.708
339.192
338.323
337.368
336.88
330.257
330.914
331.554
332.059
332.655
332.933
333.218
333.538
333.78
333.826
333.673
333.67
333.662
333.416
333.051
332.57
332.079
331.404
330.585
330.291
323.547
324.052
324.572
324.973
325.446
325.665
325.864
326.086
326.323
326.331
326.237
326.208
326.189
326.013
325.764
325.393
324.974
324.464
323.825
323.625
316.807
317.206
317.598
317.862
318.176
318.338
318.466
318.631
318.831
318.827
318.798
318.729
318.701
318.612
318.415
318.168
317.884
317.491
317.067
316.913
310.093
310.337
310.566
310.729
310.911
311.024
311.103
311.178
311.294
311.325
311.298
311.299
311.247
311.196
311.062
310.941
310.736
310.523
310.261
310.172
303.385
303.459
303.55
303.61
303.667
303.708
303.718
303.723
303.77
303.807
303.786
303.791
303.768
303.739
303.704
303.675
303.591
303.516
303.446
303.417
351.263
352.348
353.171
354.309
355.144
355.982
356.373
356.89
357.09
357.084
357.153
357.133
357.174
356.431
355.967
355.104
354.289
353.115
352.198
351.352
344.511
345.458
346.172
347.107
347.861
348.568
348.936
349.366
349.557
349.517
349.615
349.586
349.61
349.017
348.579
347.856
347.119
346.121
345.311
344.579
337.718
338.553
339.133
339.925
340.534
341.114
341.479
341.903
341.957
341.968
342.033
342.018
342.053
341.502
341.154
340.569
339.93
339.102
338.404
337.757
330.916
331.6
332.124
332.678
333.212
333.654
333.973
334.396
334.347
334.401
334.45
334.433
334.485
334.002
333.73
333.259
332.732
332.034
331.493
330.925
324.095
324.607
325.054
325.436
325.879
326.192
326.446
326.816
326.748
326.768
326.832
326.819
326.857
326.447
326.311
325.907
325.457
324.95
324.528
324.075
317.228
317.609
317.924
318.167
318.499
318.715
318.912
319.225
319.136
319.142
319.224
319.197
319.222
318.933
318.841
318.56
318.192
317.857
317.554
317.232
310.361
310.575
310.804
310.919
311.097
311.237
311.392
311.559
311.499
311.478
311.561
311.541
311.563
311.372
311.323
311.147
310.886
310.743
310.518
310.367
303.475
303.542
303.614
303.665
303.732
303.758
303.821
303.878
303.868
303.852
303.889
303.859
303.899
303.824
303.783
303.731
303.651
303.6
303.533
303.488
352.166
353.185
354.104
355.407
356.301
356.672
357.315
357.853
357.95
358.354
358.479
358.21
358.106
357.482
356.887
356.018
355.294
354.238
353.153
352.479
345.299
346.147
346.974
348.131
348.833
349.183
349.748
350.268
350.285
350.653
350.738
350.536
350.46
349.899
349.353
348.634
347.995
347.085
346.135
345.561
338.403
339.136
339.813
340.804
341.351
341.69
342.14
342.618
342.602
342.921
343.025
342.852
342.724
342.28
341.817
341.247
340.681
339.883
339.044
338.563
331.449
332.116
332.633
333.396
333.847
334.176
334.508
334.937
334.904
335.159
335.269
335.094
334.949
334.616
334.299
333.784
333.332
332.72
331.957
331.585
324.445
325.022
325.403
325.98
326.309
326.572
326.829
327.197
327.154
327.369
327.471
327.32
327.157
326.936
326.712
326.309
325.943
325.531
324.881
324.562
317.493
317.912
318.162
318.562
318.787
318.963
319.165
319.477
319.375
319.553
319.668
319.52
319.397
319.247
319.074
318.848
318.546
318.235
317.789
317.513
310.526
310.748
310.93
311.161
311.273
311.353
311.515
311.72
311.632
311.765
311.828
311.752
311.617
311.591
311.442
311.34
311.178
310.948
310.694
310.49
303.51
303.624
303.674
303.76
303.799
303.799
303.872
303.931
303.899
303.938
303.958
303.948
303.913
303.883
303.828
303.798
303.742
303.674
303.607
303.517
352.987
353.908
354.822
356.311
357.182
357.642
358.377
358.901
359.07
359.545
359.337
359.268
359.043
358.383
357.613
356.983
356.416
355.228
354.068
353.119
345.977
346.841
347.545
348.831
349.678
349.993
350.696
351.119
351.23
351.673
351.477
351.45
351.231
350.663
349.975
349.447
348.966
347.951
346.933
346.177
338.962
339.737
340.239
341.363
342.118
342.312
342.935
343.32
343.399
343.791
343.585
343.592
343.449
342.944
342.334
341.901
341.511
340.649
339.793
339.152
331.893
332.569
332.961
333.867
334.507
334.634
335.165
335.502
335.541
335.916
335.733
335.716
335.596
335.174
334.661
334.359
333.971
333.306
332.604
332.118
324.829
325.391
325.72
326.354
326.898
326.95
327.358
327.667
327.668
327.99
327.809
327.821
327.667
327.403
326.941
326.77
326.385
325.921
325.423
325.038
317.745
318.176
318.441
318.831
319.278
319.27
319.573
319.78
319.797
320.049
319.884
319.916
319.777
319.619
319.23
319.157
318.796
318.554
318.249
317.934
310.679
310.933
311.042
311.293
311.571
311.569
311.806
311.907
311.921
312.046
311.916
311.979
311.851
311.786
311.547
311.523
311.29
311.164
310.999
310.768
303.586
303.653
303.693
303.78
303.869
303.879
303.973
303.988
304.018
304.05
303.977
304.031
303.973
303.932
303.868
303.848
303.783
303.73
303.688
303.632
353.588
354.62
355.793
356.979
357.97
358.448
359.436
359.783
360.07
360.272
360.099
360.118
359.886
359.344
358.692
357.944
357.084
355.96
354.873
354.094
346.516
347.404
348.428
349.46
350.368
350.681
351.583
351.888
352.097
352.322
352.131
352.163
351.942
351.51
350.909
350.275
349.557
348.574
347.601
346.948
339.391
340.174
341.011
341.855
342.68
342.904
343.724
343.965
344.138
344.359
344.149
344.192
343.995
343.61
343.138
342.612
342.008
341.134
340.317
339.771
332.278
332.922
333.612
334.236
334.932
335.093
335.82
336.036
336.148
336.351
336.152
336.193
335.979
335.671
335.314
334.92
334.412
333.671
333.04
332.563
325.191
325.642
326.222
326.635
327.209
327.28
327.938
328.047
328.108
328.325
328.162
328.188
327.983
327.729
327.483
327.208
326.787
326.224
325.738
325.358
318.013
318.375
318.768
319.057
319.472
319.504
319.976
320.013
320.055
320.281
320.124
320.179
319.987
319.829
319.627
319.42
319.172
318.799
318.388
318.121
310.817
311.08
311.309
311.464
311.691
311.709
311.987
312.032
312.038
312.165
312.049
312.137
311.993
311.928
311.793
311.648
311.538
311.305
311.025
310.91
303.619
303.712
303.798
303.839
303.911
303.922
304.013
304.04
304.043
304.088
304.019
304.059
303.993
304.005
303.962
303.904
303.853
303.78
303.69
303.639
354.192
355.447
356.467
357.589
358.631
359.163
359.992
360.558
361.013
361.03
360.809
360.836
360.429
360.05
359.296
358.634
357.714
356.749
355.605
354.576
347.063
348.153
349.005
349.988
350.905
351.347
352.107
352.597
352.936
353.002
352.759
352.785
352.473
352.094
351.42
350.88
350.087
349.265
348.293
347.368
339.847
340.778
341.518
342.387
343.121
343.484
344.159
344.591
344.825
344.898
344.676
344.674
344.465
344.122
343.537
343.074
342.434
341.771
340.919
340.119
332.63
333.366
333.999
334.748
335.292
335.578
336.204
336.516
336.69
336.724
336.61
336.608
336.409
336.145
335.644
335.247
334.778
334.219
333.502
332.797
325.383
325.968
326.488
327.077
327.454
327.657
328.243
328.418
328.548
328.569
328.503
328.491
328.344
328.125
327.718
327.425
327.087
326.621
326.073
325.514
318.107
318.56
319.004
319.39
319.651
319.778
320.242
320.335
320.399
320.415
320.359
320.421
320.257
320.094
319.787
319.614
319.333
318.993
318.643
318.255
310.877
311.157
311.437
311.658
311.79
311.904
312.186
312.246
312.275
312.271
312.237
312.289
312.166
312.078
311.875
311.785
311.588
311.445
311.185
310.941
303.663
303.725
303.845
303.896
303.952
304.011
304.107
304.109
304.099
304.118
304.088
304.117
304.069
304.054
303.971
303.951
303.856
303.837
303.749
303.675
354.677
355.913
357.09
358.182
359.112
359.896
360.488
361.106
361.325
361.734
361.501
361.611
361.057
360.656
359.978
359.385
358.324
357.421
356.175
355.063
347.462
348.555
349.524
350.512
351.3
351.989
352.453
353.016
353.217
353.561
353.403
353.434
352.967
352.616
352.024
351.573
350.598
349.82
348.773
347.832
340.213
341.163
341.942
342.831
343.422
344.048
344.463
344.902
345.079
345.362
345.286
345.261
344.855
344.58
344.068
343.685
342.833
342.186
341.32
340.535
332.964
333.744
334.391
335.126
335.57
336.061
336.438
336.795
336.974
337.136
337.109
337.06
336.713
336.509
336.129
335.738
335.066
334.546
333.863
333.201
325.714
326.274
326.793
327.376
327.741
328.031
328.394
328.681
328.827
328.869
328.9
328.872
328.55
328.422
328.155
327.815
327.318
326.878
326.391
325.847
318.38
318.767
319.138
319.602
319.842
320.038
320.308
320.541
320.664
320.628
320.686
320.629
320.395
320.276
320.141
319.848
319.529
319.171
318.868
318.485
311.071
311.231
311.484
311.773
311.925
312.061
312.199
312.354
312.452
312.399
312.434
312.423
312.242
312.185
312.106
311.912
311.738
311.477
311.336
311.082
303.719
303.758
303.858
303.942
303.993
304.052
304.109
304.14
304.179
304.162
304.172
304.162
304.116
304.097
304.046
303.998
303.924
303.848
303.804
303.722
354.993
356.383
357.464
358.47
359.417
360.264
360.682
361.289
361.715
362.21
362.022
361.907
361.57
361.007
360.465
359.502
358.557
357.724
356.28
355.305
347.744
348.926
349.876
350.707
351.529
352.324
352.613
353.174
353.518
353.987
353.792
353.743
353.41
352.913
352.479
351.598
350.804
350.034
348.787
347.963
340.442
341.433
342.25
342.898
343.633
344.379
344.564
345.062
345.35
345.716
345.571
345.509
345.231
344.77
344.422
343.7
343.05
342.354
341.352
340.542
333.105
333.923
334.587
335.153
335.721
336.389
336.534
336.925
337.11
337.411
337.355
337.265
337.005
336.63
336.378
335.805
335.24
334.664
333.9
333.134
325.782
326.38
326.898
327.386
327.808
328.375
328.473
328.754
328.88
329.086
329.08
329.005
328.785
328.492
328.302
327.901
327.466
326.96
326.423
325.774
318.457
318.834
319.222
319.538
319.88
320.296
320.387
320.575
320.653
320.759
320.802
320.724
320.591
320.352
320.256
319.973
319.653
319.267
318.886
318.413
311.067
311.306
311.545
311.715
311.959
312.193
312.263
312.401
312.41
312.468
312.518
312.431
312.372
312.214
312.185
312.021
311.769
311.574
311.374
311.09
303.684
303.801
303.839
303.913
304
304.104
304.105
304.15
304.153
304.181
304.213
304.153
304.138
304.099
304.096
304.036
303.929
303.87
303.806
303.732
)
;

boundaryField
{
    hotSide
    {
        type            fixedGradient;
        gradient        nonuniform List<scalar> 
400
(
351.304
367.855
384.297
400.556
416.559
432.231
447.497
462.283
476.516
490.123
503.036
515.186
526.511
536.952
546.452
554.962
562.437
568.838
574.131
578.291
358.172
375.222
392.166
408.93
425.438
441.613
457.378
472.655
487.37
501.447
514.815
527.404
539.15
549.989
559.864
568.725
576.523
583.218
588.776
593.169
364.134
381.64
399.046
416.275
433.249
449.888
466.113
481.845
497.007
511.52
525.312
538.311
550.448
561.661
571.889
581.079
589.182
596.157
601.966
606.582
369.189
387.108
404.932
422.582
439.978
457.039
473.684
489.831
505.4
520.313
534.493
547.868
560.366
571.923
582.477
591.973
600.36
607.595
613.641
618.467
373.346
391.631
409.826
427.85
445.623
463.06
480.079
496.598
512.533
527.805
542.335
556.048
568.873
580.742
591.592
601.366
610.013
617.488
623.751
628.772
376.617
395.219
413.735
432.085
450.185
467.95
485.297
502.14
518.396
533.983
548.821
562.834
575.947
588.093
599.206
609.229
618.108
625.798
632.258
637.456
379.02
397.887
416.673
435.296
453.672
471.715
489.339
506.458
522.987
538.843
553.945
568.213
581.575
593.959
605.3
615.539
624.621
632.499
639.132
644.488
380.574
399.652
418.655
437.498
456.097
474.364
492.213
509.556
526.308
542.384
557.702
572.182
585.749
598.331
609.862
620.281
629.533
637.571
644.352
649.843
381.299
400.534
419.698
438.706
457.472
475.908
493.928
511.442
528.365
544.61
560.094
574.738
588.465
601.202
612.883
623.446
632.834
641
647.901
653.503
381.214
400.55
419.818
438.934
457.81
476.36
494.494
512.124
529.164
545.525
561.126
575.885
589.725
602.573
614.361
625.028
634.517
642.779
649.771
655.458
380.335
399.715
419.03
438.196
457.125
475.73
493.922
511.613
528.713
545.138
560.802
575.626
589.53
602.444
614.297
625.028
634.58
642.904
649.956
655.702
378.677
398.043
417.347
436.505
455.429
474.031
492.223
509.916
527.022
543.455
559.13
573.967
587.888
600.819
612.693
623.447
633.024
641.375
648.457
654.233
376.25
395.545
414.78
433.871
452.73
471.271
489.405
507.044
524.099
540.484
556.117
570.916
584.803
597.706
609.556
620.291
629.855
638.198
645.277
651.056
373.062
392.228
411.336
430.301
449.038
467.46
485.477
503.004
519.952
536.236
551.772
566.481
580.285
593.112
604.895
615.57
625.082
633.382
640.426
646.18
369.118
388.099
407.022
425.804
444.36
462.603
480.447
497.805
514.59
530.718
546.106
560.674
574.347
587.051
598.722
609.296
618.718
626.94
633.919
639.62
364.421
383.16
401.841
420.383
438.701
456.71
474.325
491.458
508.026
523.944
539.131
553.509
567.002
579.539
591.054
601.487
610.783
618.893
625.776
631.397
358.973
377.416
395.8
414.046
432.071
449.79
467.12
483.975
500.272
515.929
530.865
545.004
558.271
570.597
581.916
592.169
601.302
609.268
616.025
621.541
352.778
370.87
388.904
406.801
424.478
441.854
458.846
475.371
491.347
506.693
521.33
535.183
548.18
560.252
571.335
581.372
590.309
598.1
604.705
610.09
345.839
363.531
381.163
398.658
415.937
432.919
449.523
465.668
481.274
496.261
510.554
524.078
536.763
548.541
559.352
569.137
577.846
585.433
591.86
597.093
338.165
355.408
372.59
389.635
406.467
423.007
439.175
454.893
470.083
484.668
498.574
511.727
524.061
535.509
546.012
555.515
563.966
571.323
577.548
582.609
)
;
    }
    coldSide
    {
        type            mixed;
        refValue        uniform 300;
        refGradient     uniform 0;
        valueFraction   uniform 0.991591;
        source          uniform 0;
        value           nonuniform List<scalar> 
400
(
300.02
300.02
300.021
300.022
300.023
300.023
300.024
300.025
300.026
300.027
300.027
300.028
300.028
300.029
300.03
300.03
300.03
300.031
300.031
300.031
300.02
300.021
300.021
300.022
300.023
300.024
300.025
300.026
300.027
300.027
300.028
300.028
300.029
300.03
300.03
300.031
300.031
300.031
300.032
300.032