/*--------------------------------*- C++ -*----------------------------------*\
| =========                 |                                                 |
| \\      /  F ield         | OpenFOAM: The Open Source CFD Toolbox           |
|  \\    /   O peration     | Version:  2212                                  |
|   \\  /    A nd           | Website:  www.openfoam.com                      |
|    \\/     M anipulation  |                                                 |
\*---------------------------------------------------------------------------*/
FoamFile
{
    version     2.0;
    format      ascii;
    arch        "LSB;label=32;scalar=64";
    class       volScalarField;
    location    "0";
    object      T;
}
// * * * * * * * * * * * * * * * * * * * * * * * * * * * * * * * * * * * * * //

dimensions      [0 0 0 1 0 0 0];

internalField   nonuniform List<scalar> 
3200
(
349.497
348.143
347.266
346.858
347.065
347.895
348.73
349.506
350.283
350.852
350.784
350.57
350.199
349.536
348.679
348.012
347.64
347.618
348.603
349.943
342.809
341.693
340.949
340.62
340.759
341.494
342.222
342.878
343.567
344.053
343.987
343.775
343.435
342.848
342.09
341.51
341.164
341.129
341.961
343.079
336.191
335.268
334.634
334.387
334.483
335.098
335.723
336.264
336.852
337.265
337.208
337.016
336.682
336.212
335.547
335.059
334.756
334.71
335.404
336.314
329.595
328.847
328.329
328.141
328.207
328.696
329.217
329.658
330.137
330.484
330.445
330.261
329.983
329.605
329.037
328.641
328.365
328.326
328.935
329.628
322.992
322.445
322.045
321.89
321.958
322.307
322.705
323.056
323.458
323.703
323.688
323.522
323.305
323.002
322.534
322.266
322.016
321.981
322.472
322.988
316.414
316.028
315.763
315.643
315.703
315.939
316.208
316.465
316.768
316.921
316.921
316.792
316.634
316.436
316.065
315.909
315.691
315.675
316.03
316.395
309.854
309.614
309.47
309.389
309.428
309.573
309.726
309.898
310.058
310.155
310.184
310.087
309.981
309.872
309.635
309.556
309.405
309.408
309.605
309.826
303.31
303.218
303.171
303.146
303.142
303.21
303.27
303.313
303.37
303.397
303.416
303.378
303.334
303.306
303.226
303.203
303.158
303.155
303.222
303.281
349.717
348.474
347.545
347.248
347.407
348.31
349.167
350.033
350.881
351.355
351.475
351.305
350.796
350.077
349.233
348.446
347.937
348.015
348.893
350.174
343.025
342.008
341.202
340.935
341.06
341.846
342.575
343.327
344.062
344.433
344.548
344.393
343.938
343.282
342.546
341.857
341.431
341.456
342.201
343.258
336.374
335.546
334.873
334.666
334.728
335.398
335.987
336.636
337.252
337.574
337.679
337.51
337.132
336.581
335.904
335.338
334.977
334.987
335.6
336.436
329.732
329.074
328.539
328.363
328.408
328.959
329.424
329.955
330.446
330.718
330.797
330.652
330.373
329.913
329.314
328.857
328.564
328.548
329.049
329.701
323.105
322.589
322.189
322.08
322.109
322.506
322.884
323.287
323.689
323.854
323.94
323.808
323.62
323.246
322.748
322.421
322.195
322.152
322.557
323.048
316.515
316.142
315.863
315.776
315.805
316.068
316.358
316.637
316.928
317.012
317.11
316.986
316.86
316.608
316.232
315.988
315.833
315.796
316.079
316.449
309.912
309.7
309.535
309.473
309.481
309.649
309.82
309.993
310.163
310.21
310.282
310.191
310.142
309.969
309.745
309.597
309.507
309.479
309.643
309.873
303.321
303.245
303.189
303.171
303.167
303.236
303.291
303.355
303.405
303.414
303.448
303.405
303.407
303.351
303.27
303.212
303.197
303.177
303.223
303.31
350.241
348.832
348.161
347.854
348.171
348.952
349.923
350.94
351.85
352.283
352.57
352.42
351.948
351.016
350.133
349.217
348.69
348.772
349.615
350.838
343.494
342.322
341.763
341.466
341.716
342.409
343.227
344.082
344.887
345.242
345.501
345.353
344.915
344.126
343.346
342.512
342.046
342.12
342.841
343.828
336.779
335.837
335.382
335.097
335.278
335.855
336.541
337.272
337.927
338.218
338.463
338.316
337.945
337.282
336.618
335.877
335.465
335.549
336.137
336.923
330.095
329.334
328.985
328.713
328.863
329.326
329.894
330.488
331.02
331.222
331.432
331.309
330.983
330.482
329.919
329.297
328.934
329.008
329.489
330.112
323.449
322.834
322.58
322.346
322.451
322.781
323.257
323.708
324.108
324.265
324.424
324.319
324.071
323.694
323.227
322.755
322.454
322.528
322.9
323.355
316.771
316.34
316.156
315.958
316.043
316.283
316.615
316.913
317.22
317.318
317.421
317.363
317.185
316.916
316.585
316.248
316.026
316.075
316.343
316.637
310.082
309.811
309.718
309.587
309.648
309.766
309.98
310.15
310.349
310.41
310.452
310.432
310.314
310.148
309.981
309.753
309.619
309.641
309.809
309.977
303.377
303.294
303.245
303.22
303.239
303.274
303.346
303.4
303.47
303.493
303.496
303.5
303.451
303.401
303.344
303.268
303.219
303.237
303.285
303.347
351.095
349.851
348.969
348.779
349.187
350
351.018
352.103
352.946
353.626
353.803
353.734
353.186
352.364
351.324
350.35
349.799
349.92
350.614
351.679
344.211
343.172
342.442
342.262
342.599
343.306
344.2
345.126
345.831
346.428
346.546
346.498
345.992
345.268
344.378
343.525
343.031
343.127
343.718
344.581
337.379
336.5
335.908
335.764
336.046
336.645
337.401
338.182
338.742
339.257
339.343
339.299
338.846
338.209
337.461
336.733
336.334
336.394
336.885
337.552
330.575
329.84
329.384
329.255
329.502
329.96
330.584
331.217
331.673
332.106
332.164
332.123
331.715
331.214
330.588
330.004
329.663
329.706
330.114
330.624
323.776
323.194
322.867
322.755
322.948
323.316
323.782
324.277
324.629
324.979
325.023
324.962
324.638
324.239
323.772
323.315
323.023
323.075
323.408
323.751
316.977
316.575
316.345
316.275
316.397
316.641
316.999
317.336
317.604
317.823
317.882
317.825
317.607
317.299
316.967
316.64
316.437
316.457
316.698
316.934
310.205
309.951
309.829
309.79
309.846
310.001
310.225
310.424
310.58
310.704
310.746
310.726
310.59
310.386
310.192
309.989
309.87
309.868
310.025
310.165
303.423
303.331
303.294
303.283
303.304
303.358
303.427
303.495
303.559
303.585
303.601
303.606
303.555
303.48
303.417
303.343
303.306
303.312
303.363
303.404
352.084
350.964
350.13
350.042
350.438
351.245
352.341
353.452
354.39
355.199
355.426
355.148
354.693
353.87
352.77
351.777
351.212
351.089
351.862
353.058
345.057
344.139
343.455
343.35
343.692
344.393
345.345
346.271
347.072
347.771
347.977
347.735
347.29
346.579
345.625
344.759
344.25
344.154
344.825
345.786
338.06
337.341
336.811
336.666
336.956
337.548
338.349
339.142
339.78
340.381
340.572
340.355
339.927
339.326
338.535
337.81
337.358
337.291
337.855
338.592
331.122
330.554
330.127
329.991
330.223
330.721
331.375
332.021
332.53
333.007
333.178
332.997
332.61
332.117
331.472
330.899
330.497
330.451
330.906
331.476
324.209
323.753
323.457
323.33
323.519
323.913
324.413
324.931
325.3
325.663
325.795
325.643
325.353
324.941
324.456
324.013
323.682
323.654
323.994
324.42
317.31
316.957
316.751
316.676
316.817
317.095
317.453
317.823
318.078
318.32
318.428
318.297
318.101
317.778
317.454
317.144
316.912
316.879
317.115
317.416
310.399
310.192
310.056
310.016
310.104
310.263
310.482
310.72
310.858
311.007
311.063
310.962
310.866
310.667
310.462
310.279
310.155
310.141
310.273
310.442
303.496
303.424
303.366
303.351
303.383
303.449
303.518
303.603
303.649
303.691
303.702
303.67
303.643
303.572
303.493
303.44
303.4
303.392
303.438
303.498
353.443
352.419
351.719
351.45
351.911
352.766
353.917
354.963
355.947
356.736
356.999
356.804
356.202
355.351
354.351
353.331
352.779
352.548
353.282
354.462
346.234
345.409
344.835
344.593
344.976
345.694
346.711
347.616
348.442
349.108
349.331
349.14
348.641
347.875
347.002
346.112
345.62
345.406
346.04
346.988
339.092
338.416
337.938
337.733
338.052
338.645
339.514
340.292
340.963
341.522
341.687
341.546
341.105
340.441
339.719
338.93
338.533
338.338
338.837
339.596
331.985
331.428
331.036
330.882
331.14
331.628
332.328
332.96
333.519
333.983
334.113
333.981
333.607
333.042
332.47
331.811
331.488
331.314
331.697
332.292
324.878
324.45
324.155
324.037
324.233
324.61
325.133
325.655
326.063
326.42
326.535
326.402
326.132
325.681
325.247
324.714
324.463
324.342
324.587
325.067
317.762
317.491
317.267
317.176
317.318
317.575
317.942
318.336
318.611
318.885
318.944
318.857
318.653
318.34
318.025
317.65
317.472
317.4
317.549
317.886
310.661
310.508
310.375
310.321
310.388
310.56
310.777
311.034
311.175
311.347
311.377
311.311
311.209
311.006
310.822
310.601
310.496
310.444
310.529
310.727
303.575
303.532
303.476
303.455
303.484
303.541
303.621
303.704
303.748
303.802
303.82
303.792
303.769
303.694
303.628
303.56
303.521
303.501
303.525
303.593
355.128
354.015
353.286
353.116
353.44
354.307
355.329
356.535
357.554
358.369
358.702
358.507
357.965
357.131
355.941
355.004
354.511
354.354
355.1
355.91
347.702
346.793
346.184
346.023
346.313
347.057
347.935
348.977
349.828
350.53
350.784
350.621
350.122
349.415
348.386
347.562
347.116
346.964
347.632
348.262
340.317
339.581
339.092
338.916
339.193
339.805
340.556
341.421
342.12
342.728
342.929
342.766
342.341
341.731
340.889
340.171
339.758
339.626
340.223
340.728
332.942
332.395
331.99
331.813
332.08
332.572
333.202
333.864
334.424
334.947
335.107
334.961
334.598
334.09
333.426
332.81
332.476
332.36
332.854
333.239
325.574
325.197
324.889
324.75
324.955
325.361
325.836
326.339
326.757
327.176
327.299
327.175
326.885
326.463
325.97
325.49
325.25
325.154
325.506
325.8
318.251
318.011
317.795
317.678
317.843
318.13
318.465
318.825
319.107
319.423
319.489
319.401
319.194
318.871
318.532
318.205
318.036
317.951
318.217
318.404
310.945
310.815
310.684
310.625
310.73
310.894
311.087
311.309
311.471
311.666
311.718
311.647
311.524
311.333
311.124
310.929
310.835
310.757
310.937
311.035
303.663
303.628
303.575
303.561
303.598
303.661
303.711
303.79
303.845
303.911
303.931
303.914
303.862
303.802
303.735
303.666
303.629
303.605
303.667
303.694
356.773
355.747
355.034
354.862
355.22
356.074
356.972
358.074
359.124
360.165
360.441
360.343
359.739
358.889
357.677
356.825
356.258
356.159
356.866
357.706
349.098
348.294
347.686
347.505
347.832
348.576
349.352
350.288
351.159
352.082
352.311
352.21
351.657
350.927
349.868
349.127
348.644
348.555
349.15
349.822
341.484
340.852
340.332
340.177
340.464
341.082
341.738
342.52
343.238
344.013
344.225
344.132
343.64
343.014
342.147
341.484
341.085
341.001
341.515
342.039
333.9
333.417
332.992
332.858
333.113
333.617
334.145
334.775
335.351
335.997
336.17
336.077
335.662
335.145
334.448
333.913
333.575
333.485
333.901
334.3
326.363
325.968
325.674
325.552
325.747
326.152
326.553
327.04
327.478
328.005
328.115
328.037
327.699
327.336
326.767
326.368
326.075
325.992
326.326
326.615
318.835
318.549
318.353
318.25
318.374
318.701
318.974
319.335
319.625
319.996
320.092
320.03
319.769
319.535
319.117
318.826
318.602
318.545
318.805
318.973
311.309
311.136
311.024
310.948
311.036
311.238
311.396
311.625
311.781
312.001
312.04
312.053
311.869
311.722
311.506
311.296
311.156
311.138
311.285
311.389
303.783
303.724
303.683
303.659
303.693
303.758
303.818
303.896
303.961
304.017
304.036
304.047
303.987
303.928
303.858
303.777
303.745
303.741
303.783
303.817
358.487
357.566
356.946
356.632
356.975
357.8
358.671
359.798
360.716
361.808
362.216
362.174
361.561
360.637
359.518
358.699
358.219
358.112
358.621
359.562
350.607
349.86
349.345
349.029
349.342
350.07
350.817
351.775
352.552
353.486
353.822
353.804
353.264
352.45
351.469
350.769
350.351
350.244
350.679
351.419
342.768
342.161
341.754
341.471
341.725
342.346
342.995
343.761
344.443
345.224
345.48
345.483
345.001
344.304
343.463
342.895
342.539
342.45
342.784
343.354
334.94
334.479
334.174
333.92
334.134
334.656
335.179
335.789
336.317
336.975
337.174
337.208
336.782
336.208
335.488
335.054
334.75
334.682
334.939
335.389
327.15
326.828
326.59
326.383
326.55
326.965
327.369
327.853
328.223
328.745
328.882
328.946
328.591
328.145
327.576
327.266
326.987
326.939
327.144
327.482
319.394
319.202
319.002
318.868
318.969
319.277
319.554
319.908
320.14
320.53
320.598
320.68
320.408
320.09
319.677
319.481
319.264
319.213
319.397
319.602
311.656
311.541
311.411
311.322
311.402
311.569
311.762
311.958
312.096
312.318
312.372
312.429
312.251
312.069
311.808
311.696
311.561
311.521
311.622
311.758
303.902
303.867
303.834
303.788
303.831
303.874
303.946
304.018
304.056
304.129
304.154
304.166
304.112
304.046
303.95
303.914
303.867
303.866
303.891
303.938
360.559
359.526
358.95
358.602
358.784
359.577
360.441
361.603
362.478
363.477
363.941
363.867
363.205
362.315
361.267
360.611
360.009
360.132
360.537
361.324
352.412
351.564
351.06
350.784
350.914
351.597
352.316
353.373
354.096
354.944
355.325
355.3
354.67
353.91
352.985
352.427
351.885
351.972
352.315
352.956
344.302
343.635
343.203
342.986
343.093
343.616
344.219
345.146
345.741
346.44
346.762
346.752
346.198
345.539
344.766
344.289
343.809
343.882
344.18
344.672
336.22
335.692
335.34
335.168
335.267
335.661
336.139
336.934
337.425
337.954
338.239
338.267
337.76
337.188
336.597
336.184
335.784
335.848
336.107
336.477
328.163
327.758
327.486
327.374
327.425
327.734
328.094
328.709
329.091
329.5
329.727
329.776
329.345
328.897
328.444
328.136
327.782
327.857
328.074
328.313
320.111
319.837
319.619
319.537
319.604
319.819
320.076
320.486
320.774
321.067
321.222
321.29
320.951
320.617
320.312
320.098
319.823
319.878
320.031
320.188
312.077
311.898
311.781
311.716
311.776
311.912
312.041
312.311
312.468
312.665
312.726
312.78
312.566
312.358
312.191
312.076
311.892
311.922
312.012
312.115
304.056
303.993
303.943
303.924
303.943
303.992
304.036
304.131
304.179
304.247
304.276
304.287
304.194
304.145
304.093
304.045
303.98
303.997
304.029
304.064
362.677
361.527
360.815
360.589
360.877
361.349
362.248
363.317
364.17
365.139
365.514
365.531
364.983
364.191
363.25
362.462
361.949
362.068
362.49
363.279
354.259
353.283
352.686
352.482
352.726
353.111
353.918
354.862
355.543
356.393
356.699
356.722
356.232
355.538
354.722
354.028
353.574
353.687
354.006
354.641
345.88
345.059
344.564
344.393
344.601
344.92
345.624
346.413
346.943
347.678
347.921
347.935
347.528
346.937
346.247
345.639
345.251
345.351
345.607
346.093
337.498
336.843
336.468
336.295
336.483
336.75
337.324
337.951
338.374
338.995
339.178
339.194
338.868
338.369
337.787
337.283
336.976
337.057
337.249
337.625
329.133
328.64
328.359
328.214
328.368
328.577
329.026
329.528
329.829
330.324
330.466
330.47
330.224
329.848
329.35
328.96
328.727
328.786
328.944
329.21
320.773
320.444
320.241
320.152
320.267
320.439
320.746
321.12
321.314
321.664
321.758
321.757
321.594
321.322
320.947
320.69
320.514
320.528
320.681
320.833
312.462
312.28
312.147
312.092
312.179
312.275
312.458
312.687
312.806
313.022
313.078
313.067
312.973
312.796
312.556
312.417
312.323
312.31
312.429
312.477
304.176
304.118
304.065
304.049
304.083
304.12
304.182
304.25
304.288
304.364
304.385
304.38
304.348
304.298
304.199
304.159
304.123
304.124
304.166
304.177
364.645
363.654
362.857
362.533
362.819
363.295
363.986
365.068
365.957
366.724
366.921
366.987
366.541
365.829
365.038
364.428
364.034
364.04
364.536
365.328
355.973
355.105
354.442
354.147
354.409
354.81
355.418
356.355
357.089
357.772
357.922
357.979
357.594
356.954
356.279
355.752
355.415
355.361
355.773
356.463
347.315
346.597
346.047
345.789
346.022
346.352
346.861
347.659
348.251
348.868
348.963
349.012
348.684
348.14
347.569
347.086
346.837
346.754
347.076
347.686
338.682
338.109
337.656
337.474
337.631
337.907
338.318
338.965
339.455
339.964
340.016
340.081
339.821
339.371
338.903
338.481
338.302
338.184
338.444
338.966
330.087
329.65
329.288
329.159
329.259
329.48
329.797
330.302
330.673
331.089
331.096
331.164
330.961
330.609
330.24
329.892
329.78
329.653
329.866
330.281
321.482
321.18
320.929
320.87
320.933
321.085
321.285
321.662
321.92
322.232
322.193
322.245
322.109
321.877
321.59
321.352
321.258
321.165
321.332
321.623
312.914
312.721
312.587
312.556
312.592
312.67
312.785
312.989
313.166
313.35
313.329
313.361
313.279
313.166
312.953
312.832
312.768
312.689
312.812
312.971
304.332
304.266
304.206
304.212
304.208
304.256
304.288
304.348
304.422
304.478
304.469
304.471
304.457
304.412
304.325
304.306
304.279
304.246
304.295
304.336
366.708
365.723
364.902
364.642
364.778
365.177
365.734
366.641
367.535
368.269
368.406
368.448
368.09
367.538
366.629
366.204
365.955
366.126
366.428
367.236
357.718
356.93
356.211
355.983
356.145
356.455
356.946
357.715
358.492
359.115
359.204
359.23
358.929
358.438
357.664
357.269
357.034
357.199
357.427
358.137
348.781
348.134
347.54
347.342
347.532
347.757
348.173
348.796
349.477
349.996
350.053
350.068
349.795
349.375
348.757
348.41
348.199
348.326
348.503
349.117
339.895
339.343
338.885
338.73
338.914
339.058
339.41
339.898
340.477
340.896
340.922
340.931
340.703
340.368
339.869
339.58
339.408
339.483
339.624
340.137
331.029
330.59
330.243
330.117
330.279
330.364
330.64
331.015
331.492
331.778
331.813
331.831
331.641
331.378
330.997
330.786
330.647
330.689
330.784
331.197
322.153
321.863
321.616
321.528
321.654
321.687
321.891
322.135
322.496
322.688
322.728
322.719
322.608
322.423
322.144
321.987
321.897
321.914
321.978
322.259
313.301
313.143
312.986
312.927
313.008
313.036
313.148
313.295
313.49
313.633
313.655
313.643
313.603
313.472
313.278
313.209
313.134
313.16
313.186
313.34
304.452
304.415
304.347
304.341
304.362
304.373
304.399
304.457
304.514
304.569
304.581
304.579
304.555
304.516
304.436
304.44
304.401
304.415
304.418
304.464
368.578
367.785
366.999
366.674
366.793
367.022
367.675
368.345
369.145
369.702
369.93
369.894
369.725
369.128
368.487
368.118
367.847
367.994
368.62
369.29
359.324
358.687
358.025
357.732
357.874
358.037
358.619
359.189
359.86
360.345
360.541
360.511
360.345
359.821
359.262
358.936
358.699
358.806
359.359
359.916
350.108
349.603
349.055
348.805
348.926
349.064
349.571
350.05
350.602
351.029
351.191
351.159
350.997
350.553
350.099
349.805
349.589
349.692
350.148
350.595
340.95
340.554
340.109
339.907
340
340.136
340.538
340.906
341.362
341.747
341.835
341.83
341.664
341.335
340.973
340.716
340.53
340.624
340.969
341.364
331.825
331.543
331.178
331.015
331.081
331.209
331.522
331.8
332.171
332.458
332.523
332.528
332.377
332.148
331.869
331.654
331.476
331.591
331.828
332.159
322.711
322.538
322.283
322.151
322.187
322.289
322.527
322.72
322.978
323.203
323.243
323.229
323.124
322.951
322.781
322.619
322.466
322.576
322.743
322.975
313.646
313.544
313.382
313.31
313.333
313.388
313.528
313.656
313.8
313.936
313.96
313.945
313.885
313.789
313.681
313.582
313.489
313.573
313.673
313.807
304.581
304.544
304.492
304.449
304.463
304.484
304.544
304.58
304.625
304.673
304.686
304.674
304.653
304.625
304.58
304.555
304.514
304.554
304.584
304.626
370.686
369.799
368.95
368.578
368.651
368.944
369.464
370.102
370.679
371.07
371.431
371.446
371.265
370.682
370.24
369.942
369.805
369.889
370.533
371.29
361.167
360.45
359.691
359.372
359.448
359.686
360.168
360.684
361.187
361.523
361.829
361.844
361.702
361.193
360.791
360.531
360.401
360.458
361.024
361.619
351.688
351.117
350.478
350.2
350.247
350.468
350.891
351.31
351.725
352.011
352.272
352.302
352.166
351.75
351.368
351.18
351.035
351.09
351.556
352.038
342.276
341.806
341.29
341.038
341.057
341.298
341.605
341.948
342.289
342.514
342.724
342.775
342.631
342.319
342.006
341.846
341.706
341.771
342.118
342.508
332.885
332.507
332.105
331.915
331.895
332.108
332.337
332.614
332.868
333.071
333.188
333.254
333.155
332.926
332.682
332.525
332.414
332.472
332.718
333.043
323.503
323.245
322.921
322.786
322.786
322.917
323.1
323.293
323.478
323.617
323.703
323.759
323.673
323.535
323.361
323.222
323.146
323.189
323.385
323.595
314.12
313.975
313.749
313.676
313.67
313.77
313.88
313.974
314.097
314.182
314.219
314.275
314.209
314.136
314.042
313.932
313.893
313.917
314.049
314.147
304.734
304.68
304.6
304.582
304.583
304.612
304.658
304.692
304.727
304.751
304.764
304.78
304.763
304.741
304.703
304.668
304.652
304.664
304.706
304.743
372.735
371.856
371.114
370.547
370.476
370.733
371.159
371.751
372.249
372.652
372.829
372.844
372.637
372.314
371.999
371.656
371.668
371.962
372.561
373.225
362.955
362.22
361.573
361.08
361.055
361.245
361.606
362.136
362.568
362.929
363.064
363.057
362.86
362.585
362.303
362.001
362.029
362.263
362.764
363.284
353.209
352.604
352.053
351.655
351.667
351.765
352.076
352.57
352.914
353.224
353.326
353.302
353.151
352.92
352.674
352.407
352.443
352.635
353.026
353.431
343.502
343.022
342.564
342.235
342.275
342.323
342.579
342.999
343.247
343.515
343.634
343.594
343.454
343.259
343.066
342.855
342.876
343.038
343.328
343.635
333.827
333.444
333.108
332.836
332.878
332.916
333.094
333.449
333.612
333.838
333.933
333.915
333.775
333.622
333.497
333.337
333.354
333.463
333.677
333.914
324.168
323.905
323.667
323.463
323.48
323.52
323.625
323.899
324.004
324.186
324.246
324.228
324.126
324.004
323.931
323.813
323.843
323.908
324.051
324.228
314.491
314.366
314.214
314.11
314.106
314.129
314.175
314.335
314.42
314.522
314.569
314.556
314.484
314.411
314.385
314.304
314.325
314.351
314.444
314.556
304.851
304.813
304.759
304.744
304.732
304.732
304.746
304.807
304.833
304.874
304.89
304.871
304.851
304.834
304.828
304.792
304.811
304.811
304.856
304.878
374.91
373.945
373.193
372.679
372.528
372.639
372.895
373.442
373.824
374.183
374.214
374.262
374.118
373.815
373.638
373.484
373.468
373.847
374.391
375.254
364.815
364.049
363.375
362.937
362.831
362.924
363.137
363.599
363.924
364.226
364.257
364.282
364.173
363.895
363.742
363.595
363.582
363.883
364.314
365.067
354.771
354.184
353.572
353.207
353.147
353.211
353.383
353.763
354.04
354.299
354.336
354.35
354.243
353.999
353.884
353.731
353.727
353.974
354.312
354.966
344.768
344.295
343.806
343.495
343.477
343.505
343.648
343.965
344.198
344.388
344.431
344.429
344.348
344.152
344.06
343.908
343.901
344.116
344.386
344.903
334.813
334.434
334.072
333.83
333.795
333.829
333.93
334.201
334.358
334.5
334.55
334.545
334.476
334.322
334.253
334.104
334.117
334.281
334.515
334.9
324.86
324.589
324.33
324.183
324.143
324.17
324.234
324.422
324.537
324.636
324.671
324.677
324.624
324.511
324.466
324.335
324.365
324.485
324.643
324.926
314.931
314.757
314.606
314.523
314.503
314.52
314.56
314.676
314.72
314.811
314.81
314.834
314.781
314.706
314.69
314.594
314.623
314.708
314.793
314.971
305.005
304.933
304.901
304.869
304.856
304.862
304.881
304.921
304.934
304.97
304.96
304.975
304.952
304.929
304.92
304.889
304.902
304.929
304.956
305.015
376.928
375.902
375.153
374.634
374.447
374.464
374.711
375.036
375.265
375.549
375.649
375.729
375.695
375.432
375.414
375.303
375.262
375.7
376.28
377.145
366.581
365.711
365.05
364.598
364.456
364.469
364.688
364.941
365.14
365.398
365.465
365.536
365.508
365.263
365.263
365.146
365.087
365.474
365.955
366.679
356.275
355.555
354.982
354.586
354.493
354.528
354.689
354.89
355.052
355.285
355.346
355.373
355.373
355.158
355.138
355.044
354.987
355.326
355.692
356.321
346.028
345.423
344.96
344.631
344.565
344.599
344.706
344.873
344.996
345.192
345.246
345.273
345.276
345.099
345.071
344.994
344.934
345.208
345.494
346.008
335.769
335.326
334.94
334.703
334.636
334.696
334.74
334.886
334.984
335.14
335.185
335.205
335.184
335.057
335.039
334.974
334.948
335.14
335.348
335.753
325.534
325.225
324.957
324.772
324.736
324.78
324.802
324.901
324.994
325.093
325.129
325.129
325.114
325.043
325.029
324.985
324.952
325.09
325.218
325.524
315.322
315.156
314.977
314.874
314.86
314.873
314.895
314.958
314.997
315.06
315.092
315.103
315.062
315.041
315.049
314.982
314.989
315.078
315.114
315.313
305.131
305.073
305.009
304.975
304.978
304.98
304.989
305.008
305.019
305.053
305.054
305.069
305.039
305.044
305.048
305.013
305.011
305.049
305.059
305.13
378.587
377.763
376.894
376.471
376.222
376.141
376.226
376.427
376.69
376.958
376.989
377.13
377.078
376.954
377.054
376.738
376.976
377.444
378.074
378.958
367.93
367.271
366.545
366.191
365.945
365.939
365.973
366.123
366.346
366.607
366.618
366.734
366.692
366.567
366.653
366.349
366.575
366.951
367.501
368.24
357.349
356.851
356.232
355.972
355.728
355.73
355.765
355.885
356.057
356.332
356.298
356.388
356.339
356.254
356.298
356.04
356.234
356.549
357.001
357.604
346.848
346.464
345.998
345.764
345.534
345.565
345.581
345.666
345.808
346.082
346.015
346.081
346.03
345.982
345.996
345.796
345.944
346.181
346.578
347.039
336.413
336.117
335.779
335.582
335.384
335.413
335.444
335.508
335.609
335.827
335.759
335.794
335.769
335.746
335.735
335.574
335.708
335.886
336.19
336.532
326.004
325.79
325.558
325.399
325.259
325.276
325.316
325.376
325.469
325.592
325.551
325.547
325.557
325.532
325.521
325.402
325.48
325.631
325.85
326.059
315.628
315.479
315.326
315.248
315.149
315.162
315.205
315.256
315.305
315.362
315.351
315.33
315.353
315.329
315.317
315.237
315.285
315.389
315.512
315.641
305.235
305.194
305.132
305.117
305.073
305.08
305.093
305.112
305.13
305.159
305.141
305.138
305.147
305.141
305.13
305.117
305.12
305.145
305.191
305.227
379.9
379.114
378.216
377.902
377.498
377.433
377.392
377.571
377.822
377.997
378.017
378.119
378.04
377.935
378.164
377.999
378.221
378.658
379.442
380.129
369.007
368.344
367.628
367.357
367.008
366.971
366.908
367.067
367.281
367.447
367.434
367.562
367.482
367.364
367.55
367.383
367.588
367.936
368.616
369.162
358.237
357.695
357.119
356.884
356.582
356.56
356.507
356.636
356.84
356.989
356.961
357.085
357.025
356.895
357.039
356.863
357.047
357.318
357.909
358.324
347.547
347.121
346.684
346.464
346.236
346.228
346.195
346.273
346.454
346.572
346.544
346.651
346.579
346.482
346.598
346.414
346.58
346.808
347.272
347.606
336.954
336.599
336.303
336.097
335.905
335.913
335.918
335.953
336.097
336.188
336.171
336.263
336.176
336.129
336.198
336.02
336.173
336.343
336.715
336.949
326.387
326.124
325.931
325.773
325.621
325.637
325.676
325.661
325.779
325.844
325.814
325.889
325.834
325.806
325.88
325.695
325.803
325.925
326.203
326.346
315.847
315.674
315.565
315.467
315.383
315.376
315.426
315.387
315.482
315.516
315.491
315.537
315.488
315.497
315.528
315.412
315.47
315.546
315.742
315.809
305.311
305.253
305.224
305.197
305.151
305.155
305.178
305.161
305.194
305.195
305.192
305.211
305.181
305.201
305.212
305.16
305.179
305.199
305.268
305.288
)
;

boundaryField
{
    hotSide
    {
        type            fixedGradient;
        gradient        nonuniform List<scalar> 
400
(
539.781
541.212
546.301
554.956
566.823
581.387
598.094
616.44
636.006
656.461
677.558
699.115
721.004
743.142
765.479
787.993
810.683
833.559
856.632
879.91
517.339
519.038
524.65
534.064
546.849
562.398
580.077
599.327
619.7
640.851
662.529
684.557
706.815
729.23
751.763
774.407
797.175
820.093
843.187
866.473
504.763
507.062
513.227
523.136
536.363
552.303
570.327
589.874
610.488
631.822
653.621
675.705
697.959
720.313
742.74
765.238
787.831
810.554
833.439
856.512
501.447
504.654
511.419
521.617
534.885
550.706
568.524
587.821
608.16
629.196
650.673
672.409
694.288
716.244
738.254
760.325
782.483
804.767
827.215
849.856
504.954
509.241
516.687
527.166
540.376
555.901
573.275
592.042
611.801
632.222
653.053
674.118
695.304
716.556
737.858
759.226
780.695
802.307
824.104
846.119
512.517
517.945
526.178
537.076
550.375
565.724
582.722
600.964
620.082
639.766
659.779
679.96
700.217
720.515
740.859
761.286
781.842
802.581
823.55
844.788
521.88
528.449
537.566
549.069
562.706
578.146
595.014
612.924
631.519
650.503
669.655
688.845
708.017
727.179
746.378
765.68
785.16
804.884
824.91
845.279
531.343
539.002
549.053
561.32
575.536
591.363
608.408
626.265
644.554
662.969
681.307
699.477
717.486
735.41
753.356
771.439
789.766
808.422
827.473
846.961
539.592
548.206
559.155
572.246
587.197
603.639
621.136
639.218
657.445
675.472
693.102
710.299
727.16
743.852
760.562
777.461
794.688
812.345
830.5
849.194
545.597
554.918
566.583
580.396
596.06
613.176
631.251
649.735
668.097
685.927
703.025
719.421
735.311
750.966
766.652
782.591
798.944
815.822
833.294
851.392
548.637
558.286
570.326
584.556
600.675
618.261
636.782
655.625
674.185
691.996
708.85
724.821
740.179
755.265
770.396
785.821
801.713
818.188
835.309
853.109
548.402
557.921
569.881
584.084
600.22
617.862
636.467
655.416
674.1
692.049
709.049
725.164
740.657
755.863
771.096
786.605
802.569
819.105
836.283
854.134
545.101
554.036
565.478
579.228
594.973
612.286
630.644
649.473
668.22
686.459
703.972
720.766
737.02
752.994
768.949
785.111
801.652
818.694
836.314
854.556
539.493
547.481
558.095
571.138
586.294
603.141
621.181
639.889
658.777
677.462
695.719
713.489
730.849
747.961
765.014
782.192
799.651
817.512
835.86
854.75
532.862
539.672
549.313
561.6
576.209
592.704
610.587
629.355
648.552
667.814
686.904
705.71
724.235
742.557
760.801
779.108
797.611
816.426
835.643
855.323
527.034
532.558
541.219
552.845
567.082
583.446
601.403
620.428
640.064
659.952
679.839
699.586
719.146
738.547
757.867
777.212
796.701
816.442
836.527
857.017
524.453
528.702
536.452
547.54
561.556
577.935
596.072
615.403
635.457
655.869
676.388
696.857
717.207
737.436
757.595
777.769
798.063
818.585
839.425
860.644
528.08
531.217
538.144
548.707
562.443
578.713
596.85
616.263
636.473
657.123
677.962
698.831
719.649
740.397
761.106
781.847
802.712
823.806
845.218
867.001
540.547
542.891
549.067
558.938
572.043
587.747
605.39
624.391
644.286
664.727
685.466
706.344
727.269
748.206
769.17
790.212
811.41
832.852
854.615
876.745
562.642
564.551
570.037
578.99
591.03
605.62
622.187
640.212
659.264
679.012
699.214
719.703
740.377
761.184
782.118
803.206
824.501
846.064
867.951
890.192
)
;
    }
    coldSide
    {
        type            mixed;
        refValue        uniform 300;
        refGradient     uniform 0;
        valueFraction   uniform 0.991591;
        source          uniform 0;
        value           nonuniform List<scalar> 
400
(
300.028
300.028
300.028
300.029
300.029
300.03
300.031
300.032
300.033
300.034
300.035
300.036
300.037
300.039
300.04
300.041
300.042
300.043
300.044
300.045
300.027
300.027
300.028
300.028
300.029
300.03
300.031
300.031
300.033
300.034
300.035
300.036
300.037
300.038
300.039
300.04