/*--------------------------------*- C++ -*----------------------------------*\
| =========                 |                                                 |
| \\      /  F ield         | OpenFOAM: The Open Source CFD Toolbox           |
|  \\    /   O peration     | Version:  2212                                  |
|   \\  /    A nd           | Website:  www.openfoam.com                      |
|    \\/     M anipulation  |                                                 |
\*---------------------------------------------------------------------------*/
FoamFile
{
    version     2.0;
    format      ascii;
    arch        "LSB;label=32;scalar=64";
    class       volScalarField;
    location    "./ITHACAoutput/true/10.4";
    object      error;
}
// * * * * * * * * * * * * * * * * * * * * * * * * * * * * * * * * * * * * * //

dimensions      [0 0 0 1 0 0 0];

internalField   nonuniform List<scalar> 
3200
(
0.644112
0.513621
0.391861
0.388882
0.526434
0.696943
0.769612
1.03599
1.10483
1.09835
1.09954
0.983682
0.722494
0.354246
0.121675
-0.199976
-0.292644
-0.361886
-0.384768
-0.332967
0.61679
0.504023
0.432661
0.401862
0.442399
0.55908
0.715982
0.836132
1.00102
0.9996
1.00508
0.893147
0.595331
0.420164
0.112935
-0.0936044
-0.243205
-0.368472
-0.297247
-0.27126
0.523886
0.431467
0.285775
0.378182
0.390888
0.553643
0.63922
0.766755
0.762984
0.849946
0.804015
0.688485
0.51153
0.269757
0.0999
-0.107877
-0.239978
-0.199258
-0.280194
-0.220415
0.353184
0.337562
0.281082
0.331622
0.365994
0.381535
0.487831
0.578796
0.630042
0.680666
0.682566
0.50668
0.428669
0.236718
0.0798073
-0.0540446
-0.167189
-0.237592
-0.166389
-0.10971
0.332744
0.269053
0.235218
0.274458
0.273911
0.314453
0.412017
0.475015
0.566244
0.490668
0.54147
0.474008
0.354824
0.203674
0.0771364
-0.0393521
-0.0746995
-0.171612
-0.109909
-0.17458
0.233045
0.278087
0.144543
0.157136
0.126526
0.296196
0.352914
0.338038
0.33454
0.33561
0.309474
0.288894
0.170789
0.1148
0.0243032
-0.0238868
-0.0554108
-0.147765
-0.152442
0.00411514
0.188863
0.124669
0.0748803
0.10854
0.0773938
0.156074
0.197604
0.296432
0.213985
0.182478
0.256542
0.166503
0.140007
0.0691045
0.0733137
0.0449147
-0.00024819
-0.0797074
-0.0465776
-0.0692426
0.0335521
0.0564749
0.0611325
0.0488841
0.0351567
0.104217
0.0774887
0.0135667
0.0641609
0.0844842
0.0442914
0.0242514
0.0651497
0.0533378
0.0848039
0.0400609
0.0418159
-0.00213103
-0.0577859
0.0330072
-0.0594137
-0.255239
-0.386838
-0.376416
-0.312359
-0.218066
-0.0875612
0.118823
0.136384
0.181289
0.149803
0.0285978
-0.259359
-0.51829
-0.774467
-1.03439
-1.18804
-1.26759
-1.22843
-1.09845
-0.0277241
-0.220668
-0.263556
-0.288421
-0.245948
-0.155432
-0.00989648
0.0637954
0.183414
0.24111
0.243415
0.0267312
-0.116954
-0.388686
-0.591783
-0.853002
-0.95748
-0.98077
-1.04067
-0.919713
-0.0135132
-0.135891
-0.18585
-0.272312
-0.197708
-0.0967956
-0.0335786
0.0851469
0.25363
0.282191
0.143656
0.032934
-0.117428
-0.327
-0.466558
-0.692682
-0.761441
-0.747769
-0.842391
-0.641977
0.0383279
-0.0384156
-0.13625
-0.199288
-0.133851
-0.0419784
0.0159875
0.131493
0.169555
0.159706
0.138922
0.0286932
-0.0938264
-0.189669
-0.426653
-0.551265
-0.576782
-0.624035
-0.652513
-0.543102
-0.00314504
-0.109003
-0.105411
-0.0890357
-0.0774606
-0.00979999
0.0513947
0.112642
0.0839669
0.143337
0.0542379
0.000186846
-0.0152195
-0.124199
-0.300379
-0.448527
-0.410258
-0.426372
-0.440552
-0.37862
0.0229733
-0.104422
-0.0803637
-0.125629
-0.092964
-0.0761562
0.0634543
0.0946328
0.128051
0.0925052
0.121445
0.0496591
-0.0551809
-0.10019
-0.216473
-0.263451
-0.281373
-0.333657
-0.367939
-0.207416
-0.00417549
-0.0228789
-0.0491797
-0.0435471
-0.0473174
0.0413277
0.0993259
0.045316
0.0545799
0.0427609
-0.00978322
-0.0109298
0.0529604
-0.118449
-0.0639452
-0.134578
-0.210974
-0.193414
-0.182765
-0.150979
-0.0332802
0.0338652
-0.0586391
0.0155464
-0.0198776
0.00738821
0.00551325
0.00660609
0.0547103
0.0711208
0.0351469
-0.010378
-0.000390428
0.0266164
-0.0426643
0.0346657
-0.0923983
-0.0557913
-0.0542069
-0.0552955
-1.05897
-1.26978
-1.39361
-1.47331
-1.40898
-1.42347
-1.29408
-1.16081
-1.09263
-0.932712
-1.03271
-1.26699
-1.48848
-1.80992
-1.92695
-2.21044
-2.33011
-2.31679
-2.2419
-2.11985
-0.951042
-0.995212
-1.25728
-1.18903
-1.21809
-1.15987
-1.03431
-0.936199
-0.868378
-0.846312
-0.871637
-1.03862
-1.18758
-1.3854
-1.65041
-1.85243
-1.93297
-1.99573
-1.93454
-1.77989
-0.691289
-0.86606
-0.948189
-0.920789
-0.937794
-0.935074
-0.836256
-0.729637
-0.610138
-0.669241
-0.712142
-0.82258
-1.06488
-1.13176
-1.29843
-1.45455
-1.59055
-1.58945
-1.45758
-1.44021
-0.493565
-0.636038
-0.761975
-0.779057
-0.759667
-0.69498
-0.722037
-0.597482
-0.466733
-0.461979
-0.529086
-0.486086
-0.728854
-0.874239
-1.05405
-1.12108
-1.23493
-1.24514
-1.20131
-1.13143
-0.323783
-0.489506
-0.560164
-0.566426
-0.588187
-0.550309
-0.458199
-0.418946
-0.327252
-0.393945
-0.48213
-0.516108
-0.525639
-0.690258
-0.800689
-0.857319
-0.911218
-1.00619
-0.885209
-0.84277
-0.293527
-0.313651
-0.383932
-0.42691
-0.40351
-0.440149
-0.296437
-0.257606
-0.274075
-0.282743
-0.35155
-0.345375
-0.400285
-0.506495
-0.622214
-0.52877
-0.557024
-0.639473
-0.690713
-0.520094
-0.154659
-0.215431
-0.307436
-0.262614
-0.139261
-0.20007
-0.193813
-0.15562
-0.143744
-0.11937
-0.181183
-0.173338
-0.230667
-0.267618
-0.299858
-0.357931
-0.408722
-0.42382
-0.423704
-0.336537
0.00730794
0.00905964
-0.0655784
-0.0436595
-0.0438705
-0.0675902
-0.110916
-0.0724061
-0.0465302
-0.0723801
-0.0542402
-0.0704162
-0.0260469
-0.108615
-0.141579
-0.0813184
-0.084623
-0.0497975
-0.144649
-0.186104
-2.01127
-2.23201
-2.47606
-2.54226
-2.65025
-2.65993
-2.45286
-2.3522
-2.30623
-2.35319
-2.40121
-2.60321
-2.72618
-2.9506
-3.22783
-3.34978
-3.46665
-3.42179
-3.33443
-3.06806
-1.63234
-1.90699
-2.05929
-2.21695
-2.16985
-2.18128
-2.12512
-2.00083
-1.95501
-1.95867
-2.00809
-2.18279
-2.28702
-2.49035
-2.70534
-2.85297
-2.90314
-2.86038
-2.7033
-2.58237
-1.33804
-1.51676
-1.69943
-1.7547
-1.7456
-1.7181
-1.71239
-1.64997
-1.61692
-1.50342
-1.69578
-1.72006
-1.82721
-2.0476
-2.25521
-2.2724
-2.33073
-2.41222
-2.26982
-2.11565
-1.05368
-1.26151
-1.35215
-1.39623
-1.49654
-1.41168
-1.32178
-1.31394
-1.25585
-1.24953
-1.25628
-1.38928
-1.46367
-1.58484
-1.7644
-1.85543
-1.81453
-1.91808
-1.78816
-1.68915
-0.814477
-0.859438
-1.00139
-1.07397
-1.07313
-1.04862
-1.02062
-0.93835
-0.931513
-0.968109
-0.985663
-1.08336
-1.18648
-1.21526
-1.33423
-1.46027
-1.46672
-1.4153
-1.30537
-1.40123
-0.57767
-0.675908
-0.691711
-0.742968
-0.80737
-0.768576
-0.75101
-0.651679
-0.66404
-0.668743
-0.666053
-0.713356
-0.855793
-0.88107
-0.953335
-1.01069
-1.00887
-1.02604
-0.954698
-0.942573
-0.377915
-0.387544
-0.353585
-0.438082
-0.497711
-0.389613
-0.468673
-0.396416
-0.45592
-0.376579
-0.440049
-0.452637
-0.409921
-0.48001
-0.583052
-0.650004
-0.648964
-0.623789
-0.52511
-0.573062
-0.114547
-0.18199
-0.160928
-0.198304
-0.165457
-0.106001
-0.245649
-0.139098
-0.0863522
-0.16175
-0.131104
-0.117286
-0.18586
-0.109147
-0.186124
-0.206877
-0.16316
-0.15887
-0.226846
-0.221016
-2.83414
-3.21294
-3.48156
-3.58734
-3.71178
-3.796
-3.67851
-3.55824
-3.59676
-3.66363
-3.66736
-3.75346
-3.92098
-4.18104
-4.37875
-4.42153
-4.50354
-4.45289
-4.2693
-3.96271
-2.41666
-2.73151
-2.89295
-3.10841
-3.13502
-3.15419
-3.06016
-2.97347
-2.9956
-2.99394
-3.08041
-3.16988
-3.325
-3.5219
-3.64392
-3.76838
-3.78056
-3.6874
-3.56478
-3.3304
-2.05245
-2.15988
-2.33705
-2.5758
-2.59119
-2.61135
-2.55668
-2.49894
-2.52011
-2.46434
-2.51523
-2.60847
-2.75302
-2.94442
-3.10977
-3.21714
-3.12767
-3.06595
-2.9964
-2.84097
-1.68107
-1.68956
-1.90482
-2.0001
-2.13742
-2.09056
-2.0999
-2.00115
-2.00392
-1.96112
-2.10609
-2.15702
-2.21898
-2.35872
-2.43317
-2.51657
-2.54544
-2.46024
-2.38118
-2.19979
-1.30452
-1.35502
-1.44141
-1.55467
-1.55987
-1.62263
-1.53721
-1.51079
-1.46638
-1.55115
-1.6108
-1.57614
-1.70195
-1.73249
-1.84267
-1.86556
-1.92789
-1.91099
-1.82608
-1.71928
-0.832805
-0.924696
-1.03285
-1.12914
-1.0627
-1.12743
-1.116
-1.0363
-1.0172
-1.1555
-1.13218
-1.1501
-1.22232
-1.20013
-1.32449
-1.35226
-1.35436
-1.30461
-1.28303
-1.25196
-0.499787
-0.514979
-0.60694
-0.662552
-0.605411
-0.645945
-0.641897
-0.659482
-0.665594
-0.686054
-0.649737
-0.746815
-0.702856
-0.772118
-0.796746
-0.798553
-0.828471
-0.774412
-0.751368
-0.740342
-0.198751
-0.201526
-0.212336
-0.25162
-0.276794
-0.251798
-0.194482
-0.199836
-0.217157
-0.229815
-0.220799
-0.188945
-0.273124
-0.252836
-0.241305
-0.19272
-0.324077
-0.210172
-0.202814
-0.214852
-3.60741
-3.98909
-4.22705
-4.49525
-4.67255
-4.72728
-4.85189
-4.743
-4.73718
-4.70762
-4.79086
-4.95615
-5.03509
-5.22644
-5.34086
-5.4369
-5.39931
-5.29592
-5.05456
-4.83243
-3.08551
-3.36878
-3.68077
-3.86268
-3.97213
-4.02558
-4.05927
-4.04948
-4.0314
-4.06079
-4.08009
-4.23204
-4.37344
-4.42292
-4.53663
-4.56552
-4.64413
-4.51946
-4.26829
-4.04097
-2.62325
-2.74834
-2.9926
-3.19085
-3.28149
-3.37558
-3.33579
-3.27233
-3.35556
-3.25742
-3.40247
-3.4817
-3.56393
-3.71822
-3.7965
-3.83272
-3.77824
-3.71231
-3.51316
-3.37114
-1.9803
-2.25114
-2.50538
-2.51797
-2.70917
-2.65252
-2.71623
-2.6522
-2.67229
-2.64004
-2.72758
-2.80963
-2.85295
-3.03329
-3.02672
-3.09809
-3.17382
-3.00408
-2.82645
-2.6852
-1.54279
-1.68348
-1.8257
-1.98895
-2.06346
-2.05519
-2.06839
-2.01658
-2.05384
-2.10514
-2.07428
-2.06047
-2.24631
-2.31339
-2.33851
-2.42019
-2.33825
-2.31232
-2.21759
-2.09753
-1.05327
-1.20272
-1.28985
-1.31646
-1.41966
-1.4572
-1.46651
-1.43447
-1.4569
-1.48335
-1.42962
-1.51959
-1.54044
-1.54602
-1.70367
-1.61656
-1.62536
-1.66305
-1.59372
-1.48295
-0.664389
-0.639386
-0.755572
-0.834426
-0.8468
-0.910666
-0.890549
-0.76503
-0.836147
-0.883598
-0.862254
-0.906764
-0.871324
-1.04458
-0.985932
-0.983654
-0.985202
-0.986095
-0.9131
-0.875114
-0.282713
-0.233321
-0.27169
-0.308342
-0.249967
-0.266833
-0.266737
-0.263785
-0.320928
-0.33147
-0.237466
-0.323097
-0.340153
-0.28763
-0.282672
-0.34272
-0.3621
-0.361128
-0.278946
-0.396663
-4.19716
-4.67766
-5.02059
-5.3464
-5.5652
-5.63789
-5.65169
-5.71274
-5.76589
-5.81089
-5.90276
-5.97418
-6.13912
-6.19985
-6.26612
-6.26966
-6.23304
-6.06155
-5.7288
-5.52409
-3.5479
-3.93537
-4.27194
-4.53529
-4.67387
-4.77911
-4.79903
-4.84125
-4.92171
-4.87887
-4.97138
-5.07948
-5.16331
-5.34887
-5.32132
-5.33618
-5.3142
-5.17578
-4.89585
-4.60941
-3.02943
-3.25907
-3.53178
-3.77969
-3.9123
-3.96545
-4.05661
-4.08395
-4.07237
-4.08431
-4.13393
-4.22825
-4.28015
-4.41949
-4.51289
-4.37617
-4.45286
-4.28779
-4.04815
-3.84874
-2.41451
-2.63788
-2.86852
-3.02868
-3.17033
-3.24964
-3.17934
-3.22264
-3.28696
-3.35571
-3.3388
-3.4453
-3.47702
-3.52217
-3.5957
-3.62983
-3.56602
-3.45675
-3.3181
-3.09473
-1.86518
-2.05787
-2.23495
-2.32155
-2.42461
-2.45035
-2.58088
-2.52716
-2.55772
-2.52274
-2.51923
-2.62059
-2.66623
-2.76777
-2.76248
-2.81041
-2.739
-2.64161
-2.47869
-2.39667
-1.20898
-1.49557
-1.54856
-1.72174
-1.74313
-1.74847
-1.82384
-1.70129
-1.8285
-1.85249
-1.86483
-1.89853
-1.9925
-1.95486
-1.9606
-2.01674
-1.95798
-1.89703
-1.78136
-1.7379
-0.732708
-0.883972
-0.945084
-1.03184
-1.02721
-1.0206
-1.04844
-1.00465
-1.02276
-1.08874
-1.0468
-1.20645
-1.17908
-1.18687
-1.12779
-1.18291
-1.17718
-1.16266
-1.08971
-0.978925
-0.272037
-0.26596
-0.348277
-0.345679
-0.296183
-0.314613
-0.371005
-0.312445
-0.337718
-0.348555
-0.410004
-0.446334
-0.383045
-0.469675
-0.370355
-0.4328
-0.365456
-0.347952
-0.395069
-0.328727
-4.78484
-5.25986
-5.6099
-5.92235
-6.20907
-6.35723
-6.48451
-6.56713
-6.71234
-6.67237
-6.74764
-6.85971
-6.95149
-7.03446
-7.08331
-7.04857
-6.87972
-6.65862
-6.3649
-5.93538
-4.04908
-4.38877
-4.72889
-5.12369
-5.32315
-5.42835
-5.55898
-5.63877
-5.66015
-5.68946
-5.78917
-5.8743
-5.95785
-6.01935
-6.0867
-5.97561
-5.84217
-5.66022
-5.46567
-5.06785
-3.3935
-3.61446
-3.99098
-4.2098
-4.38125
-4.54098
-4.64809
-4.721
-4.67913
-4.72831
-4.8189
-4.84011
-4.884
-4.93843
-5.04721
-4.99066
-4.9482
-4.73114
-4.5028
-4.21482
-2.6628
-2.9281
-3.17678
-3.43519
-3.61699
-3.70049
-3.68548
-3.77688
-3.84155
-3.89541
-3.88865
-3.91627
-3.99458
-3.99495
-4.07235
-4.04341
-3.93383
-3.82595
-3.54404
-3.3891
-2.015
-2.30319
-2.45863
-2.60853
-2.7781
-2.81194
-2.84931
-2.93647
-2.93285
-2.98422
-2.92718
-3.05988
-3.09958
-3.18397
-3.1566
-3.14788
-3.09713
-2.96201
-2.74132
-2.63805
-1.43812
-1.59937
-1.77984
-1.89359
-1.94744
-2.0175
-2.00983
-2.04728
-2.10478
-2.08794
-2.17377
-2.12965
-2.12372
-2.16911
-2.23471
-2.18955
-2.21668
-2.11548
-1.94274
-1.89496
-0.848354
-0.959075
-1.03731
-1.1812
-1.08001
-1.17252
-1.15669
-1.22893
-1.28962
-1.27754
-1.30612
-1.30017
-1.36533
-1.26722
-1.34515
-1.34965
-1.3025
-1.22908
-1.206
-1.16212
-0.275183
-0.312511
-0.337243
-0.354829
-0.380127
-0.387177
-0.422573
-0.437759
-0.506064
-0.433929
-0.43866
-0.338483
-0.453966
-0.432973
-0.440019
-0.426325
-0.358416
-0.403968
-0.379183
-0.306953
-5.0191
-5.49206
-6.00399
-6.45928
-6.73677
-6.99696
-7.11481
-7.31688
-7.4105
-7.45462
-7.51956
-7.60643
-7.61384
-7.74503
-7.71554
-7.62569
-7.4504
-7.13014
-6.7551
-6.30663
-4.26167
-4.70148
-5.11583
-5.55372
-5.77752
-5.97835
-6.04899
-6.23131
-6.26649
-6.3748
-6.41452
-6.50729
-6.51953
-6.55512
-6.60974
-6.44835
-6.33725
-6.14758
-5.77441
-5.36733
-3.5766
-3.98774
-4.2341
-4.58487
-4.74804
-4.9889
-5.09723
-5.10822
-5.23619
-5.27364
-5.30208
-5.36262
-5.43767
-5.48646
-5.48047
-5.36478
-5.26304
-5.02652
-4.73791
-4.46312
-2.89199
-3.13837
-3.42071
-3.69723
-3.87397
-4.02219
-4.08656
-4.15793
-4.17093
-4.34398
-4.35601
-4.35808
-4.41363
-4.47
-4.39442
-4.31127
-4.1797
-4.04671
-3.83063
-3.62647
-2.15971
-2.40751
-2.62028
-2.84724
-3.03389
-3.0807
-3.1669
-3.25414
-3.28894
-3.3056
-3.32378
-3.33439
-3.41974
-3.46057
-3.3591
-3.34164
-3.26309
-3.12988
-2.85566
-2.75653
-1.57795
-1.7789
-1.86215
-2.00046
-2.15806
-2.25843
-2.28408
-2.28775
-2.32113
-2.36598
-2.35951
-2.4254
-2.38478
-2.43809
-2.4226
-2.36983
-2.33312
-2.24163
-2.10252
-1.95485
-1.01119
-1.0281
-1.13622
-1.23405
-1.26432
-1.35907
-1.32601
-1.4178
-1.38092
-1.31278
-1.39187
-1.41871
-1.46007
-1.47381
-1.38991
-1.41022
-1.42408
-1.34184
-1.24254
-1.15473
-0.314267
-0.35547
-0.380179
-0.359845
-0.460649
-0.452983
-0.423442
-0.432343
-0.468382
-0.475479
-0.479987
-0.507538
-0.470646
-0.517455
-0.459358
-0.506165
-0.427827
-0.456224
-0.334882
-0.406789
-5.14124
-5.67605
-6.22227
-6.7532
-7.13189
-7.44968
-7.65205
-7.85741
-7.88045
-8.01137
-8.08448
-8.16362
-8.14588
-8.27036
-8.15261
-8.06099
-7.75452
-7.43433
-6.94582
-6.47769
-4.40233
-4.84252
-5.35737
-5.75438
-6.12506
-6.32332
-6.49218
-6.62157
-6.77499
-6.91856
-6.89892
-6.90305
-7.05534
-7.09067
-6.95441
-6.76024
-6.61073
-6.27819
-5.96159
-5.57889
-3.76425
-4.03829
-4.42509
-4.77262
-5.07053
-5.27807
-5.4574
-5.54233
-5.71322
-5.71149
-5.72536
-5.81815
-5.82037
-5.75389
-5.79484
-5.72639
-5.48369
-5.26872
-4.92593
-4.67011
-2.97889
-3.25121
-3.64622
-3.89399
-4.11639
-4.19367
-4.37869
-4.4509
-4.58144
-4.60376
-4.6907
-4.68318
-4.74329
-4.7301
-4.68888
-4.61749
-4.39638
-4.28421
-3.9575
-3.71004
-2.2517
-2.48587
-2.71722
-3.00724
-3.09132
-3.33569
-3.42499
-3.46803
-3.5013
-3.64843
-3.5641
-3.63077
-3.66362
-3.61632
-3.57485
-3.55977
-3.42275
-3.27668
-3.04454
-2.7988
-1.59744
-1.74919
-1.96358
-2.08877
-2.22832
-2.32763
-2.40614
-2.37955
-2.51285
-2.51805
-2.56031
-2.60615
-2.58318
-2.60777
-2.56361
-2.54271
-2.4151
-2.381
-2.15386
-1.97467
-0.901418
-1.00166
-1.18171
-1.2988
-1.36194
-1.3356
-1.39811
-1.47832
-1.49278
-1.51233
-1.49906
-1.53891
-1.58987
-1.50237
-1.50136
-1.49239
-1.44419
-1.36915
-1.32885
-1.17527
-0.265227
-0.389906
-0.377654
-0.462585
-0.450271
-0.514481
-0.517248
-0.484606
-0.459046
-0.442376
-0.453495
-0.554995
-0.505046
-0.487699
-0.497842
-0.494572
-0.501726
-0.376358
-0.398147
-0.444391
-5.20228
-5.75561
-6.39067
-6.82913
-7.2887
-7.66996
-7.95032
-8.0761
-8.29841
-8.42889
-8.45414
-8.50195
-8.50623
-8.5338
-8.43534
-8.23168
-7.95523
-7.5236
-6.99541
-6.52965
-4.43914
-4.87668
-5.32906
-5.84079
-6.22067
-6.56976
-6.79763
-6.89662
-7.10337
-7.14752
-7.21206
-7.31377
-7.32327
-7.32328
-7.18549
-7.00408
-6.73529
-6.39332
-5.93873
-5.55596
-3.65802
-4.08637
-4.50076
-4.96152
-5.27113
-5.45084
-5.70057
-5.79288
-5.89069
-5.97783
-6.05639
-6.09869
-6.12238
-6.10084
-6.00622
-5.88741
-5.60902
-5.31983
-4.92641
-4.60473
-2.95776
-3.27426
-3.55491
-3.89882
-4.20227
-4.4185
-4.59522
-4.68781
-4.72361
-4.90267
-4.94023
-4.88798
-4.91326
-4.97627
-4.79802
-4.63061
-4.52101
-4.26518
-3.94339
-3.70192
-2.26656
-2.5491
-2.76285
-3.01872
-3.20902
-3.4008
-3.53368
-3.58193
-3.66506
-3.6834
-3.78502
-3.78884
-3.76843
-3.74263
-3.72535
-3.59131
-3.56525
-3.32259
-3.07564
-2.8375
-1.56329
-1.74933
-2.05369
-2.1792
-2.29659
-2.39482
-2.57825
-2.56341
-2.6153
-2.57984
-2.63767
-2.65604
-2.7078
-2.72824
-2.58663
-2.54904
-2.3781
-2.31507
-2.14995
-2.02869
-0.965508
-1.074
-1.20337
-1.28185
-1.35781
-1.46167
-1.4639
-1.52534
-1.57643
-1.52584
-1.6208
-1.54357
-1.65414
-1.62204
-1.59992
-1.55197
-1.48186
-1.36278
-1.30967
-1.22873
-0.358544
-0.332896
-0.42958
-0.460155
-0.465842
-0.472849
-0.509268
-0.58199
-0.466438
-0.480499
-0.600638
-0.565667
-0.501431
-0.556959
-0.582591
-0.491399
-0.457033
-0.41232
-0.499289
-0.388045
-4.92816
-5.5748
-6.31453
-6.79252
-7.36184
-7.76085
-8.06991
-8.23979
-8.47178
-8.63318
-8.72289
-8.67243
-8.72197
-8.61276
-8.45907
-8.25361
-7.91443
-7.40397
-6.89856
-6.2686
-4.19258
-4.71436
-5.31368
-5.79766
-6.209
-6.55788
-6.88787
-7.02978
-7.16387
-7.32907
-7.37915
-7.4157
-7.43221
-7.35382
-7.25234
-7.02405
-6.69441
-6.31302
-5.82656
-5.38963
-3.54115
-3.87974
-4.36016
-4.86733
-5.18222
-5.46976
-5.76299
-5.88658
-6.06773
-6.11211
-6.10916
-6.17967
-6.18998
-6.12968
-6.02344
-5.87388
-5.48233
-5.20973
-4.87554
-4.37319
-2.77387
-3.15686
-3.55125
-3.91891
-4.19524
-4.41934
-4.58134
-4.79558
-4.82135
-4.84301
-4.98506
-4.95669
-5.05618
-4.99363
-4.88637
-4.62906
-4.48567
-4.22505
-3.94873
-3.66706
-2.2051
-2.47397
-2.70978
-2.96122
-3.17761
-3.42891
-3.60779
-3.69829
-3.80002
-3.8121
-3.85323
-3.91394
-3.93451
-3.77932
-3.69011
-3.70774
-3.43007
-3.22505
-3.00925
-2.76684
-1.55133
-1.69377
-1.85323
-2.08539
-2.28335
-2.37618
-2.48196
-2.63255
-2.62899
-2.66108
-2.7054
-2.73935
-2.69146
-2.71285
-2.65017
-2.59864
-2.55185
-2.25262
-2.11681
-1.97249
-0.964341
-0.99519
-1.12909
-1.29118
-1.40864
-1.50111
-1.52039
-1.58292
-1.60658
-1.61235
-1.63201
-1.61438
-1.64077
-1.63914
-1.53456
-1.52101
-1.4875
-1.36948
-1.24595
-1.19707
-0.322953
-0.301161
-0.438251
-0.399926
-0.455014
-0.46496
-0.508358
-0.520303
-0.540724
-0.536442
-0.518902
-0.574961
-0.518718
-0.5662
-0.53696
-0.525029
-0.46647
-0.463117
-0.430715
-0.45871
-4.57251
-5.18242
-5.96271
-6.61642
-7.12381
-7.62318
-7.99902
-8.24097
-8.43406
-8.53981
-8.6197
-8.74381
-8.65284
-8.54385
-8.40515
-7.95862
-7.66011
-7.11232
-6.61126
-6.0077
-3.83551
-4.35861
-5.04087
-5.58407
-6.10481
-6.39134
-6.78478
-7.01346
-7.20245
-7.26366
-7.29546
-7.36899
-7.37408
-7.3108
-7.13301
-6.87825
-6.56399
-6.06253
-5.55671
-4.98304
-3.17399
-3.59106
-4.18886
-4.66167
-4.94986
-5.39664
-5.5999
-5.82544
-5.9305
-6.13249
-6.15692
-6.10402
-6.12596
-6.07632
-5.88145
-5.65203
-5.39678
-5.07716
-4.61001
-4.15775
-2.53565
-2.9312
-3.2999
-3.81745
-4.03701
-4.31371
-4.48059
-4.73286
-4.81787
-4.85771
-4.87671
-5.00015
-4.9912
-4.9237
-4.75506
-4.59096
-4.34393
-3.9618
-3.70095
-3.37824
-1.94297
-2.25345
-2.61095
-2.80886
-3.10656
-3.3181
-3.5281
-3.67971
-3.74461
-3.80698
-3.81997
-3.87428
-3.82287
-3.70218
-3.69394
-3.51732
-3.29102
-3.1542
-2.90582
-2.57443
-1.38422
-1.609
-1.81533
-2.06508
-2.23043
-2.38847
-2.53638
-2.5458
-2.61571
-2.69687
-2.67974
-2.68925
-2.72545
-2.67353
-2.63607
-2.39811
-2.31365
-2.25767
-2.04909
-1.8265
-0.792791
-0.955151
-1.16663
-1.21996
-1.30135
-1.38579
-1.46363
-1.54339
-1.54038
-1.62061
-1.59474
-1.67003
-1.5603
-1.65303
-1.60262
-1.49533
-1.34259
-1.29939
-1.21861
-1.04696
-0.324361
-0.301185
-0.383332
-0.3996
-0.457155
-0.409798
-0.464208
-0.509865
-0.461355
-0.527842
-0.549171
-0.535345
-0.624736
-0.555668
-0.524204
-0.466938
-0.433795
-0.442896
-0.39423
-0.380999
-3.92991
-4.68905
-5.41665
-6.13878
-6.69102
-7.29887
-7.64232
-7.92552
-8.2192
-8.38919
-8.37423
-8.39197
-8.39889
-8.19283
-7.98527
-7.64529
-7.24908
-6.67555
-5.99928
-5.43667
-3.32536
-3.99583
-4.57047
-5.19565
-5.65334
-6.09408
-6.50004
-6.69988
-6.92066
-7.0813
-7.13962
-7.16209
-7.10844
-7.02529
-6.81048
-6.47605
-6.13371
-5.62504
-5.10787
-4.57664
-2.65062
-3.27085
-3.76538
-4.27645
-4.7584
-5.05391
-5.37577
-5.63347
-5.79868
-5.87606
-5.99495
-5.96548
-5.96205
-5.85394
-5.6964
-5.41849
-4.99434
-4.68393
-4.18187
-3.7609
-2.20833
-2.56319
-3.04421
-3.49106
-3.82649
-4.15055
-4.35924
-4.46996
-4.7188
-4.73111
-4.86771
-4.75533
-4.80502
-4.74201
-4.56277
-4.32313
-4.09458
-3.72725
-3.35691
-3.02712
-1.66453
-2.05025
-2.34258
-2.55501
-2.95896
-3.15256
-3.36316
-3.40608
-3.61988
-3.68831
-3.72145
-3.71608
-3.6978
-3.61545
-3.47027
-3.38449
-3.15648
-2.90379
-2.57106
-2.34279
-1.21775
-1.38143
-1.61327
-1.86165
-2.14571
-2.21924
-2.39397
-2.44372
-2.55724
-2.61262
-2.63359
-2.67727
-2.57642
-2.58653
-2.50044
-2.36664
-2.26325
-2.02581
-1.84267
-1.59802
-0.656501
-0.868622
-0.928877
-1.10558
-1.21946
-1.297
-1.45511
-1.4932
-1.5434
-1.5593
-1.56071
-1.55124
-1.51861
-1.5542
-1.50177
-1.36469
-1.25942
-1.2844
-1.09519
-0.978342
-0.216629
-0.219627
-0.311871
-0.363119
-0.416457
-0.491269
-0.485688
-0.500896
-0.506453
-0.473074
-0.591051
-0.520322
-0.475998
-0.50386
-0.48059
-0.525728
-0.430424
-0.400716
-0.383693
-0.323717
-3.14839
-3.94355
-4.80476
-5.53131
-6.07787
-6.64068
-7.04307
-7.43159
-7.70635
-7.87056
-7.9455
-7.89775
-7.89619
-7.76214
-7.4808
-7.11534
-6.55523
-5.96752
-5.25855
-4.64787
-2.64929
-3.27823
-3.96497
-4.58699
-5.18616
-5.6025
-6.01614
-6.27603
-6.52238
-6.67197
-6.73072
-6.6915
-6.67867
-6.55282
-6.32723
-5.9855
-5.55906
-5.041
-4.4183
-3.88053
-2.17167
-2.6128
-3.35398
-3.85976
-4.327
-4.68828
-4.98343
-5.2238
-5.43847
-5.502
-5.58746
-5.64721
-5.58354
-5.45
-5.22358
-4.95465
-4.61278
-4.08918
-3.64262
-3.22248
-1.72166
-2.14014
-2.67267
-3.04499
-3.47449
-3.77125
-4.03352
-4.25593
-4.38963
-4.45134
-4.4912
-4.50809
-4.46586
-4.36053
-4.20054
-4.03822
-3.58451
-3.31435
-2.95033
-2.49205
-1.29615
-1.63408
-2.038
-2.37538
-2.627
-2.89325
-3.08288
-3.24386
-3.35905
-3.42555
-3.49872
-3.43587
-3.39894
-3.41221
-3.17946
-3.01393
-2.86817
-2.54797
-2.23722
-1.89834
-0.929694
-1.21158
-1.34346
-1.65203
-1.83893
-2.01251
-2.2062
-2.29802
-2.47273
-2.38834
-2.3946
-2.54464
-2.47739
-2.33889
-2.38408
-2.16711
-2.00182
-1.80309
-1.54237
-1.37838
-0.518297
-0.687609
-0.787244
-1.02169
-1.11309
-1.17
-1.31392
-1.38424
-1.42394
-1.56249
-1.44753
-1.39927
-1.4992
-1.42149
-1.36381
-1.35764
-1.20515
-1.04532
-0.954082
-0.801719
-0.157277
-0.297305
-0.293365
-0.322124
-0.335021
-0.415511
-0.435314
-0.473799
-0.430137
-0.465921
-0.510765
-0.538708
-0.46554
-0.429827
-0.411371
-0.448428
-0.391156
-0.3068
-0.289913
-0.232333
-2.18943
-2.98888
-3.87534
-4.58091
-5.31658
-5.88729
-6.36385
-6.84388
-6.98743
-7.18707
-7.27129
-7.31362
-7.17809
-6.93678
-6.6995
-6.28813
-5.72691
-5.15417
-4.41476
-3.63993
-1.81172
-2.39646
-3.13174
-3.90678
-4.47978
-4.96018
-5.38639
-5.56178
-5.97313
-6.09675
-6.15432
-6.17001
-6.04094
-5.88379
-5.58296
-5.30966
-4.84782
-4.28097
-3.67827
-2.98227
-1.51697
-1.94902
-2.54445
-3.18
-3.67673
-4.10719
-4.44579
-4.68857
-4.88592
-5.02276
-5.11394
-5.08085
-5.02824
-4.88702
-4.68641
-4.39741
-3.98774
-3.50789
-2.89516
-2.49683
-1.09131
-1.58582
-2.11295
-2.49975
-2.95328
-3.24894
-3.56453
-3.74217
-3.93642
-4.00087
-4.13813
-4.12124
-4.11387
-3.91175
-3.76539
-3.48644
-3.08223
-2.74617
-2.37929
-1.93276
-0.844544
-1.21029
-1.56823
-2.02568
-2.24652
-2.53348
-2.72668
-2.89229
-3.02191
-3.11813
-3.18221
-3.14552
-3.08199
-3.01783
-2.87912
-2.6892
-2.42919
-2.09396
-1.73395
-1.49653
-0.521595
-0.773067
-1.10139
-1.33137
-1.55689
-1.76488
-1.88849
-1.99846
-2.07809
-2.19662
-2.23606
-2.18459
-2.16588
-2.08214
-2.03362
-1.89302
-1.66528
-1.3987
-1.27897
-1.04259
-0.302264
-0.470493
-0.644523
-0.843256
-0.936808
-1.07789
-1.15841
-1.24333
-1.2686
-1.30965
-1.32818
-1.31673
-1.3395
-1.22462
-1.23418
-1.03383
-1.06172
-0.898738
-0.76827
-0.640874
-0.0572904
-0.139895
-0.198723
-0.289921
-0.315995
-0.361811
-0.355205
-0.360441
-0.453182
-0.335473
-0.368995
-0.463173
-0.422801
-0.352423
-0.402405
-0.354141
-0.343825
-0.314343
-0.246362
-0.242188
-0.988731
-1.88203
-2.7149
-3.57588
-4.28254
-4.84463
-5.42633
-5.71206
-6.09227
-6.27711
-6.34311
-6.34418
-6.27521
-6.09901
-5.77814
-5.30852
-4.6855
-4.024
-3.13662
-2.49487
-0.713297
-1.46908
-2.2124
-2.89717
-3.56897
-4.07547
-4.55434
-4.83572
-5.13988
-5.25046
-5.35931
-5.3487
-5.27958
-5.08744
-4.86058
-4.45049
-3.88989
-3.30808
-2.70186
-2.05431
-0.57115
-1.10112
-1.8083
-2.42926
-2.90758
-3.38139
-3.74421
-3.96031
-4.2359
-4.39789
-4.42339
-4.4324
-4.38416
-4.12719
-3.91123
-3.6276
-3.19273
-2.67109
-2.10816
-1.66009
-0.460709
-0.861959
-1.40377
-1.89553
-2.30431
-2.68978
-2.93649
-3.19599
-3.3819
-3.48499
-3.62587
-3.51959
-3.48045
-3.33156
-3.12493
-2.99539
-2.55024
-2.11429
-1.68523
-1.19044
-0.2337
-0.660783
-1.05699
-1.45058
-1.75045
-2.07824
-2.26472
-2.4485
-2.61774
-2.65913
-2.71589
-2.69005
-2.7038
-2.54396
-2.43218
-2.20375
-2.01385
-1.67744
-1.26952
-0.967392
-0.208268
-0.398241
-0.691005
-1.02438
-1.22875
-1.47841
-1.61805
-1.77402
-1.86447
-1.8504
-1.91843
-1.86522
-1.94817
-1.85953
-1.68506
-1.51251
-1.3546
-1.13484
-0.877922
-0.65839
-0.0655058
-0.243761
-0.393924
-0.601891
-0.807722
-0.871664
-0.953253
-1.01317
-1.05225
-1.08872
-1.16675
-1.14671
-1.16829
-1.12188
-1.00084
-0.927797
-0.757375
-0.676211
-0.483877
-0.37556
-0.0676822
-0.0610333
-0.174092
-0.124769
-0.256576
-0.336027
-0.32279
-0.311897
-0.376286
-0.39107
-0.335456
-0.428749
-0.374684
-0.352356
-0.33463
-0.314076
-0.261763
-0.243592
-0.188235
-0.14747
0.294219
-0.606148
-1.46708
-2.34828
-3.11632
-3.81053
-4.31748
-4.71437
-5.0903
-5.24683
-5.29723
-5.30835
-5.16004
-4.9134
-4.59164
-4.07537
-3.47262
-2.75962
-1.98153
-1.27799
0.419906
-0.364003
-1.08652
-1.88278
-2.59333
-3.10419
-3.55963
-3.9339
-4.2497
-4.40118
-4.38937
-4.44705
-4.32926
-4.12505
-3.82482
-3.4539
-2.89678
-2.17744
-1.52724
-0.939916
0.372257
-0.127983
-0.837334
-1.54962
-2.05696
-2.52804
-2.97337
-3.26439
-3.47599
-3.57123
-3.69595
-3.60514
-3.59097
-3.3869
-3.14818
-2.75881
-2.3606
-1.73058
-1.21079
-0.666665
0.427402
-0.113013
-0.657254
-1.1903
-1.59305
-1.9867
-2.27285
-2.55888
-2.75495
-2.80432
-2.90233
-2.92845
-2.81924
-2.71621
-2.50242
-2.21617
-1.79046
-1.35617
-0.960543
-0.502793
0.227676
-0.0355241
-0.442321
-0.868494
-1.20794
-1.58789
-1.81545
-1.95496
-2.13923
-2.18578
-2.25017
-2.25019
-2.11688
-2.08026
-1.84562
-1.63982
-1.34678
-1.06974
-0.663218
-0.32524
0.28447
0.00622856
-0.303509
-0.589388
-0.839312
-1.0449
-1.22295
-1.34869
-1.39754
-1.53684
-1.57999
-1.58937
-1.4795
-1.44029
-1.34393
-1.19594
-1.00336
-0.710857
-0.460752
-0.21831
0.16256
-0.0220393
-0.0881062
-0.311749
-0.456743
-0.583742
-0.769117
-0.837042
-0.905547
-0.93345
-0.864494
-0.987188
-0.854866
-0.866357
-0.732877
-0.665862
-0.555893
-0.445661
-0.284609
-0.169604
0.0741324
-0.0458511
-0.139376
-0.131174
-0.126346
-0.208991
-0.184764
-0.269391
-0.305946
-0.342144
-0.278736
-0.281367
-0.328506
-0.225582
-0.246563
-0.275652
-0.211121
-0.104462
-0.0818678
-0.0242214
1.60938
0.790132
-0.135782
-1.09038
-1.83049
-2.58654
-3.10789
-3.5193
-3.82169
-4.0154
-4.13613
-4.10598
-3.94709
-3.73136
-3.36423
-2.9165
-2.23503
-1.56044
-0.675838
0.151935
1.46937
0.732208
-0.0747162
-0.805552
-1.5295
-2.14142
-2.56317
-2.8488
-3.14941
-3.34453
-3.42293
-3.41648
-3.37173
-3.13718
-2.83423
-2.39328
-1.78053
-1.14982
-0.43168
0.216654
1.37077
0.75023
0.066522
-0.63319
-1.17048
-1.64576
-2.11191
-2.35852
-2.62659
-2.77097
-2.86006
-2.77913
-2.7032
-2.50908
-2.27618
-1.88309
-1.45296
-0.873374
-0.340016
0.231745
1.13634
0.664611
0.061454
-0.475289
-0.895211
-1.3274
-1.62685
-1.89802
-2.12025
-2.24091
-2.24496
-2.30446
-2.1979
-2.09727
-1.80112
-1.50481
-1.12006
-0.641696
-0.188358
0.22615
0.933857
0.569785
0.104628
-0.281961
-0.721209
-0.927328
-1.27731
-1.40701
-1.51774
-1.68409
-1.74469
-1.67951
-1.62956
-1.51637
-1.41808
-1.16859
-0.814102
-0.475248
-0.122657
0.282054
0.697136
0.393097
0.143728
-0.185272
-0.514982
-0.644363
-0.871239
-1.00992
-1.12906
-1.19933
-1.22788
-1.22384
-1.16483
-1.04598
-0.933732
-0.750693
-0.559038
-0.360003
-0.0604344
0.151636
0.382038
0.240634
0.0166141
-0.090189
-0.229017
-0.418199
-0.559177
-0.638764
-0.635231
-0.595974
-0.780221
-0.781318
-0.687379
-0.626704
-0.557049
-0.463169
-0.37617
-0.247316
0.0161475
0.152966
0.141357
0.0494127
0.0159108
-0.101684
-0.066958
-0.131893
-0.163636
-0.197218
-0.228223
-0.215562
-0.181138
-0.298844
-0.247978
-0.181427
-0.210246
-0.110867
-0.125155
-0.0874199
0.021565
0.0563003
2.78314
1.89151
0.840493
-0.0361074
-0.865777
-1.50669
-2.10545
-2.53359
-2.86611
-3.08325
-3.19468
-3.14624
-3.02565
-2.77958
-2.349
-1.87341
-1.16709
-0.398755
0.381313
1.29441
2.38584
1.72177
0.867432
0.00910744
-0.685026
-1.23036
-1.77203
-2.0829
-2.3884
-2.61787
-2.63946
-2.66946
-2.50373
-2.37338
-2.04015
-1.48592
-0.924297
-0.300101
0.452596
1.15691
2.05055
1.51284
0.731808
0.15288
-0.528799
-1.02131
-1.50957
-1.71559
-1.97897
-2.14503
-2.16327
-2.12696
-2.0628
-1.88893
-1.54504
-1.32968
-0.774098
-0.234473
0.462734
0.985381
1.66008
1.2654
0.640879
0.0993236
-0.375898
-0.755824
-1.11025
-1.34551
-1.60158
-1.74928
-1.7799
-1.78409
-1.7215
-1.56648
-1.27313
-0.965872
-0.550863
-0.175046
0.366549
0.900743
1.34725
0.99111
0.509932
0.105699
-0.284613
-0.655438
-0.818003
-1.10204
-1.22151
-1.26593
-1.38588
-1.29448
-1.31474
-1.13302
-0.994256
-0.75984
-0.462254
-0.0161124
0.337971
0.690252
0.936067
0.739894
0.440642
0.0497932
-0.228566
-0.426944
-0.617284
-0.774419
-0.865681
-0.954165
-0.971562
-0.98318
-0.876414
-0.762675
-0.698412
-0.532844
-0.266824
-0.0634774
0.276428
0.47523
0.6525
0.390024
0.249813
0.0509003
-0.0369976