/*--------------------------------*- C++ -*----------------------------------*\
| =========                 |                                                 |
| \\      /  F ield         | OpenFOAM: The Open Source CFD Toolbox           |
|  \\    /   O peration     | Version:  2212                                  |
|   \\  /    A nd           | Website:  www.openfoam.com                      |
|    \\/     M anipulation  |                                                 |
\*---------------------------------------------------------------------------*/
FoamFile
{
    version     2.0;
    format      ascii;
    arch        "LSB;label=32;scalar=64";
    class       volScalarField;
    location    "0";
    object      relativeErrorField;
}
// * * * * * * * * * * * * * * * * * * * * * * * * * * * * * * * * * * * * * //

dimensions      [0 0 0 1 0 0 0];

internalField   nonuniform List<scalar> 
3200
(
0.00194485
0.00154878
0.00117961
0.00116848
0.00157878
0.00208624
0.00229982
0.00309135
0.00329331
0.00327218
0.00327572
0.00293218
0.00215589
0.00105859
0.000364223
0.000599729
0.000879313
0.00108938
0.00116023
0.00100537
0.00188531
0.00153887
0.00131903
0.00122315
0.00134428
0.00169606
0.00216878
0.00252952
0.00302557
0.00301979
0.00303636
0.00269951
0.00180103
0.00127272
0.000342607
0.000284429
0.000740242
0.00112334
0.000907543
0.000829148
0.0016216
0.00133425
0.000882597
0.00116637
0.00120384
0.00170269
0.00196335
0.00235252
0.0023391
0.00260462
0.00246387
0.00211071
0.00156945
0.000828553
0.000307236
0.000332234
0.000740125
0.000615394
0.000866457
0.000682255
0.00110738
0.00105756
0.000879696
0.00103668
0.00114277
0.00118992
0.00151981
0.00180158
0.00195981
0.00211655
0.00212246
0.00157608
0.00133429
0.000737482
0.0002489
0.000168748
0.000522644
0.000743587
0.000521289
0.000343986
0.0010571
0.000854236
0.000746197
0.000869892
0.00086735
0.000994818
0.00130238
0.00150045
0.0017877
0.00154868
0.00170903
0.0014965
0.0011208
0.000643812
0.000244032
0.00012461
0.000236759
0.000544417
0.000348959
0.000554626
0.000750363
0.000894998
0.000464922
0.000505095
0.00040643
0.000950819
0.0011322
0.00108392
0.0010723
0.00107552
0.000991765
0.000925993
0.000547634
0.000368296
7.80158e-05
7.67299e-05
0.000178112
0.000475287
0.000490621
1.325e-05
0.000616472
0.000406827
0.000244265
0.000353924
0.000252261
0.000508508
0.000643579
0.000965151
0.000696556
0.000593923
0.000834982
0.000541993
0.000455849
0.000225068
0.000238865
0.000146397
8.09293e-07
0.000260012
0.000151995
0.000226016
0.00011105
0.000186903
0.000202293
0.00016174
0.000116305
0.000344719
0.000256279
4.48645e-05
0.000212161
0.000279352
0.000146452
8.0192e-05
0.000215447
0.000176404
0.000280508
0.000132529
0.000138354
7.05176e-06
0.000191242
0.000109247
0.00017934
0.000769421
0.00116416
0.00113073
0.000936537
0.000652618
0.000261605
0.000354497
0.000406467
0.000540002
0.000446217
8.52305e-05
0.000773774
0.00154849
0.00231778
0.00310138
0.0035688
0.00381472
0.00370312
0.00331568
8.47201e-05
0.00067356
0.000803284
0.00087766
0.000747181
0.000471434
2.9972e-05
0.000192966
0.000554279
0.000728289
0.00073525
8.07822e-05
0.000353759
0.00117715
0.00179491
0.00259139
0.00291359
0.00298926
0.00317651
0.00281048
4.18177e-05
0.000420126
0.00057386
0.000839682
0.000608777
0.000297637
0.00010312
0.000261206
0.000777457
0.000864652
0.000440171
0.000100953
0.000360234
0.00100422
0.00143462
0.00213288
0.00234792
0.00230893
0.00260438
0.00198666
0.00012015
0.000120331
0.000426341
0.000622885
0.000417869
0.000130902
4.98015e-05
0.000409242
0.000527359
0.000496557
0.000431937
8.92433e-05
0.000292013
0.000590824
0.00133044
0.00172099
0.00180276
0.00195268
0.00204391
0.00170251
9.99e-06
0.000346032
0.000334354
0.00028216
0.000245252
3.10002e-05
0.000162441
0.000355774
0.000265071
0.00045237
0.000171175
5.89843e-07
4.807e-05
0.000392549
0.000950186
0.0014201
0.00130014
0.00135242
0.00139853
0.00120266
7.39617e-05
0.000336038
0.000258463
0.000403783
0.000298594
0.000244448
0.000203555
0.000303419
0.000410414
0.00029643
0.000389166
0.000159162
0.000176925
0.000321399
0.000694842
0.000846187
0.000904356
0.0010731
0.00118405
0.000667768
1.36284e-05
7.46551e-05
0.000160418
0.000141989
0.00015422
0.000134644
0.000323481
0.000147538
0.000177659
0.000139172
3.18409e-05
3.55768e-05
0.000172426
0.000385761
0.000208331
0.000438625
0.0006879
0.000630891
0.00059637
0.000492782
0.000110148
0.000112074
0.000194038
5.14364e-05
6.57573e-05
2.44377e-05
1.82337e-05
2.18457e-05
0.000180908
0.000235162
0.000116214
3.43164e-05
1.29111e-06
8.8027e-05
0.000141119
0.000114678
0.000305707
0.000184615
0.000179394
0.000183012
0.00319452
0.00382547
0.00419161
0.00442335
0.00422243
0.00425817
0.00386469
0.00346188
0.00325524
0.00277732
0.00307507
0.00377471
0.00443907
0.00540524
0.00576426
0.00662422
0.00699574
0.00696827
0.00675419
0.0063948
0.00290464
0.00303615
0.00383011
0.00361649
0.00369889
0.00351655
0.0031313
0.00283083
0.00262343
0.00255558
0.00263205
0.00313776
0.00359095
0.00419421
0.00500379
0.00562514
0.00587921
0.00607967
0.00590179
0.00543608
0.00213825
0.00267634
0.00292652
0.00283812
0.00288654
0.00287428
0.00256733
0.00223766
0.00186977
0.00205006
0.00218148
0.00252079
0.00326579
0.00347452
0.00399117
0.00447714
0.00490251
0.00490571
0.00450428
0.00445476
0.00154662
0.00199155
0.00238345
0.00243416
0.00237085
0.00216654
0.00224857
0.00185907
0.00145133
0.00143607
0.00164468
0.00151151
0.00226784
0.00272256
0.00328591
0.00349878
0.00385853
0.00389478
0.00376152
0.00354543
0.00102816
0.00155347
0.00177629
0.00179457
0.00186182
0.00174039
0.00144791
0.00132297
0.0010329
0.00124307
0.00152134
0.00162898
0.00165988
0.00218121
0.00253223
0.00271372
0.00288695
0.00319063
0.00280926
0.00267617
0.000944789
0.00100913
0.00123454
0.00137186
0.00129581
0.00141257
0.000950794
0.000825839
0.000878322
0.000905928
0.00112639
0.00110682
0.00128325
0.00162454
0.00199687
0.00169807
0.00178998
0.00205623
0.00222228
0.00167405
0.000504725
0.000702866
0.00100269
0.000856172
0.000453839
0.000651753
0.000631145
0.000506616
0.000467854
0.000388478
0.000589642
0.000564174
0.000750929
0.000871488
0.000976826
0.00116646
0.00133251
0.00138227
0.00138238
0.00109827
2.41861e-05
2.99809e-05
0.000216991
0.000144445
0.000145123
0.000223558
0.000366817
0.000239433
0.000153855
0.00023932
0.000179341
0.000232835
8.61321e-05
0.000359207
0.00046828
0.000269001
0.00027997
0.000164774
0.000478682
0.000615924
0.00606162
0.00671836
0.00744094
0.00762653
0.00793629
0.00795141
0.00732069
0.00701084
0.00686712
0.00700337
0.00714629
0.00775144
0.00812551
0.00880622
0.00964904
0.010031
0.0103996
0.010283
0.0100366
0.00924661
0.00498135
0.00581315
0.00626857
0.00673816
0.00658469
0.00660927
0.00643008
0.00604688
0.00590338
0.00591177
0.00606093
0.00659116
0.0069118
0.00753517
0.00819715
0.00865771
0.00882376
0.00870715
0.00824058
0.00788049
0.00413584
0.00468396
0.00524177
0.00540516
0.0053699
0.0052784
0.00525453
0.00505789
0.00495297
0.00460351
0.00519254
0.0052689
0.0056012
0.00628313
0.00692851
0.00699046
0.00717955
0.00744031
0.00700951
0.00653938
0.00329985
0.00394778
0.00422722
0.00436029
0.00466833
0.00439886
0.00411461
0.00408681
0.00390374
0.00388289
0.00390387
0.0043185
0.00455253
0.00493351
0.00549794
0.00578787
0.0056666
0.00599647
0.00559588
0.00528996
0.00258513
0.00272625
0.00317405
0.00340119
0.00339555
0.00331516
0.00322412
0.00296227
0.00293929
0.003054
0.00310938
0.00341842
0.00374559
0.00383898
0.00421812
0.00462055
0.00464502
0.004486
0.00414081
0.00444747
0.00185875
0.00217394
0.00222351
0.00238679
0.00259204
0.00246596
0.00240823
0.00208872
0.0021276
0.00214227
0.00213366
0.0022856
0.00274293
0.00282529
0.00305876
0.0032448
0.00324101
0.0032982
0.00307062
0.00303288
0.00123306
0.00126415
0.00115299
0.00142798
0.00162171
0.00126902
0.001526
0.00129035
0.00148373
0.00122539
0.00143192
0.00147305
0.00133431
0.00156291
0.00189907
0.00211794
0.00211537
0.00203408
0.00171289
0.00186978
0.000379074
0.000602216
0.000532458
0.000656036
0.000547301
0.000350585
0.000812357
0.00045995
0.000285516
0.000534794
0.000433467
0.000387795
0.000614576
0.000360949
0.000615582
0.00068431
0.00053977
0.000525648
0.000750647
0.000731415
0.00853095
0.00965928
0.0104506
0.01075
0.0111038
0.0113368
0.0109692
0.010597
0.0107018
0.0108954
0.0109065
0.011168
0.0116773
0.0124677
0.0130772
0.013227
0.0134955
0.0133662
0.0128351
0.0119281
0.00736673
0.0083177
0.00879732
0.00943858
0.00950509
0.00954922
0.00925214
0.00897995
0.00903944
0.0090306
0.00929142
0.00956535
0.0100416
0.0106482
0.0110318
0.0114253
0.0114795
0.0112132
0.0108551
0.0101521
0.00633808
0.0066639
0.00720217
0.00792788
0.00796498
0.00801688
0.00784003
0.00765561
0.00771511
0.00754162
0.00769737
0.00798561
0.00843402
0.00902902
0.00954702
0.00988906
0.00962643
0.00944842
0.00924484
0.00877306
0.00526056
0.0052833
0.00595069
0.0062418
0.00666322
0.00651035
0.00653322
0.00622106
0.00622605
0.00609126
0.00654154
0.00670172
0.00689824
0.00733849
0.0075773
0.00784517
0.00794367
0.00768582
0.00744599
0.00688375
0.00413796
0.00429571
0.00456614
0.00492087
0.00493316
0.00512742
0.00485385
0.00476745
0.0046252
0.00489144
0.00507954
0.00497141
0.00537068
0.00547048
0.00582275
0.00589993
0.00610219
0.00605369
0.00578907
0.00545357
0.00267848
0.00297282
0.00331873
0.00362595
0.00341049
0.00361607
0.00357747
0.00332047
0.00325822
0.00370055
0.00362588
0.00368389
0.00391652
0.00384715
0.00424814
0.00433977
0.00434917
0.00419192
0.00412484
0.00402657
0.00163025
0.0016794
0.00197863
0.00215914
0.0019722
0.00210347
0.0020896
0.00214625
0.00216571
0.00223204
0.00211389
0.00242999
0.00228741
0.00251352
0.00259455
0.00260138
0.00269984
0.0025246
0.00245029
0.00241491
0.000657672
0.000666799
0.000702486
0.000832351
0.000915509
0.000832732
0.000643106
0.000660748
0.000717972
0.000759795
0.000729986
0.000624696
0.000903071
0.000836069
0.000798031
0.000637429
0.00107203
0.000695327
0.000671062
0.00071095
0.0108416
0.0119745
0.0126699
0.0134521
0.0139599
0.0141011
0.0144519
0.0141105
0.014081
0.0139867
0.014234
0.0147319
0.0149795
0.0155675
0.0159313
0.0162435
0.0161576
0.0158737
0.0151729
0.0145232
0.00939261
0.0102445
0.0111787
0.0117147
0.0120293
0.0121743
0.0122606
0.0122182
0.0121543
0.012238
0.0122962
0.0127592
0.0131956
0.013359
0.0137198
0.0138264
0.0140846
0.0137259
0.01298
0.0123011
0.0080911
0.00846971
0.00921219
0.00981062
0.0100769
0.0103535
0.0102204
0.0100169
0.0102649
0.0099613
0.0104048
0.0106508
0.0109095
0.0113921
0.0116446
0.0117697
0.0116166
0.0114277
0.0108267
0.0103979
0.00619081
0.00703261
0.00781967
0.0078511
0.00843866
0.00825404
0.00844469
0.00823944
0.00829737
0.00819488
0.00846661
0.00872381
0.00886309
0.00943044
0.00941847
0.00965008
0.00989604
0.00937618
0.00882991
0.00839444
0.00488992
0.00533296
0.00577928
0.0062911
0.00652153
0.00649032
0.00652738
0.00636013
0.00647485
0.0066351
0.00653784
0.00649576
0.00708467
0.00730054
0.00738508
0.00764896
0.00739595
0.00731969
0.00702491
0.00664819
0.00338561
0.00386451
0.0041423
0.00422534
0.00455393
0.00467171
0.00469914
0.0045945
0.00466489
0.00474881
0.0045768
0.00486563
0.00493391
0.00495391
0.00546188
0.00518555
0.0052168
0.00534083
0.00512083
0.00476679
0.00216642
0.00208439
0.00246238
0.00271842
0.00275775
0.00296472
0.00289832
0.00248916
0.00272003
0.00287411
0.00280469
0.00294976
0.002835
0.0033996
0.00320975
0.00320344
0.00320962
0.00321365
0.0029767
0.00285354
0.000935397
0.000771912
0.000898754
0.00101988
0.000826695
0.000882374
0.00088196
0.000872123
0.00106098
0.00109579
0.000785031
0.00106815
0.00112461
0.000951044
0.00093475
0.00113345
0.00119769
0.00119462
0.000922857
0.00131241
0.0125902
0.0140158
0.015022
0.0159724
0.0166005
0.0167923
0.0168107
0.0169732
0.0171172
0.0172435
0.0175161
0.0177356
0.01824
0.0184412
0.0186635
0.0187018
0.0186213
0.0181366
0.0171653
0.0165706
0.0107822
0.0119482
0.012954
0.0137342
0.0141347
0.0144341
0.0144771
0.0145901
0.014822
0.0146875
0.014966
0.0152971
0.0155607
0.0161358
0.0160717
0.0161377
0.016093
0.0156948
0.0148643
0.0140082
0.00933054
0.0100297
0.0108574
0.0116062
0.0119995
0.0121489
0.0124156
0.0124887
0.0124457
0.0124782
0.0126298
0.0129221
0.0130887
0.0135262
0.0138261
0.0134223
0.0136734
0.0131815
0.012458
0.011854
0.00753923
0.00823123
0.00894308
0.00943342
0.00986512
0.0101026
0.00987565
0.0100031
0.0101977
0.0104082
0.0103557
0.0106889
0.0107927
0.0109406
0.0111784
0.011295
0.0111071
0.010777
0.0103538
0.0096632
0.00590616
0.00651296
0.00706854
0.00733691
0.00765682
0.00773244
0.00813894
0.0079651
0.00805821
0.00794636
0.00793532
0.0082563
0.00840342
0.00872829
0.00871741
0.00887517
0.00865623
0.0083547
0.00784483
0.00758917
0.00388347
0.00480227
0.00496996
0.00552275
0.00558829
0.00560243
0.0058411
0.00544644
0.00585201
0.00592788
0.00596736
0.00607612
0.00637872
0.00626072
0.00628215
0.00646547
0.00628054
0.00608834
0.00571997
0.00558247
0.00238819
0.00288058
0.00307878
0.00336029
0.00334408
0.0033215
0.00341111
0.00326783
0.00332615
0.00354039
0.00340402
0.00392351
0.00383519
0.00386149
0.00367033
0.00385097
0.00383362
0.00378759
0.00355101
0.00319072
0.000899945
0.000879772
0.00115195
0.00114323
0.000979423
0.00104025
0.00122659
0.0010329
0.00111638
0.00115217
0.00135529
0.00147543
0.00126629
0.0015528
0.00122456
0.00143119
0.00120863
0.00115087
0.00130685
0.00108748
0.0143213
0.0157262
0.0167504
0.017658
0.0184861
0.018901
0.0192553
0.0194804
0.0198963
0.01977
0.0199931
0.0203331
0.0206205
0.0208883
0.0210598
0.0209856
0.0205125
0.0198817
0.0190302
0.017765
0.0122813
0.0132994
0.0143133
0.0154888
0.0160714
0.0163691
0.0167445
0.0169694
0.0170225
0.0171048
0.0174046
0.0176666
0.0179296
0.0181312
0.0183543
0.0180413
0.0176608
0.0171322
0.0165628
0.0153714
0.0104343
0.0111051
0.0122497
0.0129074
0.0134185
0.0138932
0.0142075
0.0144191
0.0142832
0.014429
0.0147054
0.0147745
0.0149169
0.0150949
0.015442
0.015285
0.0151714
0.0145215
0.0138345
0.0129597
0.00830289
0.00912437
0.00989109
0.0106861
0.0112415
0.0114911
0.0114355
0.0117115
0.0119065
0.0120704
0.0120495
0.0121381
0.0123865
0.0123957
0.0126458
0.0125668
0.0122373
0.0119123
0.0110437
0.0105675
0.00637355
0.00728154
0.00776785
0.00823567
0.00876481
0.00886549
0.00897773
0.00924764
0.00923285
0.00939271
0.0092132
0.00963276
0.00976131
0.0100322
0.00995214
0.00993144
0.00977826
0.00935825
0.00866668
0.00834428
0.00461582
0.00513154
0.00570791
0.00606959
0.00623896
0.00646021
0.00643274
0.0065502
0.00673237
0.00667756
0.00695206
0.00681191
0.00679476
0.00694255
0.00715573
0.00701459
0.00710521
0.00678426
0.00623325
0.00608208
0.00276377
0.00312382
0.00337766
0.003845
0.00351452
0.00381439
0.00376187
0.00399589
0.00419256
0.00415291
0.00424583
0.00422684
0.00443942
0.00412134
0.00437597
0.00439195
0.00423987
0.00400211
0.00392808
0.00378595
0.000910197
0.00103359
0.00111528
0.00117331
0.00125683
0.00128001
0.0013969
0.00144698
0.00167267
0.0014342
0.00144984
0.00111877
0.00150056
0.00143128
0.00145471
0.00140958
0.00118517
0.00133594
0.0012541
0.00101528
0.0149843
0.0163798
0.017884
0.0192145
0.020013
0.0207594
0.0210847
0.0216628
0.021925
0.0220476
0.0222397
0.0225047
0.022542
0.0229523
0.0228913
0.0226538
0.0221628
0.0212385
0.0201467
0.0188281
0.0128972
0.0142158
0.0154517
0.0167546
0.0174092
0.0179941
0.0181883
0.0187207
0.0188151
0.0191344
0.0192536
0.0195381
0.0195866
0.0197101
0.0198945
0.0194306
0.0191183
0.018568
0.0174601
0.0162432
0.0109761
0.0122289
0.0129721
0.0140327
0.0145174
0.0152391
0.0155565
0.0155788
0.0159609
0.0160707
0.0161573
0.0163463
0.0165836
0.0167444
0.0167407
0.0164031
0.0161084
0.0153999
0.0145294
0.0136966
0.00900303
0.00976423
0.0106343
0.0114844
0.0120233
0.0124733
0.0126638
0.0128772
0.012912
0.0134447
0.0134819
0.0134913
0.0136691
0.013852
0.0136276
0.0133805
0.0129831
0.0125805
0.011918
0.0112895
0.00682256
0.00760185
0.00826859
0.00897889
0.00956117
0.00970253
0.00996829
0.0102381
0.0103441
0.0103946
0.0104518
0.010487
0.0107591
0.0108927
0.0105794
0.010531
0.0102903
0.0098767
0.00901691
0.00870792
0.00505994
0.00570242
0.00596662
0.00640671
0.00690814
0.0072261
0.00730514
0.00731438
0.00741927
0.00756167
0.00754099
0.00775256
0.00762462
0.00779772
0.00775139
0.00758602
0.00747211
0.00718253
0.00673979
0.00626851
0.00329242
0.00334678
0.00369776
0.00401496
0.00411223
0.00441916
0.00431058
0.004608
0.00448746
0.00426572
0.00452271
0.00461028
0.00474539
0.00479106
0.00451946
0.00458677
0.00463321
0.00436692
0.00404485
0.00375978
0.00103927
0.00117545
0.00125704
0.00118969
0.00152281
0.00149732
0.00139955
0.00142887
0.0015479
0.00157131
0.00158621
0.0016773
0.00155547
0.00171028
0.00151839
0.00167327
0.00141445
0.00150848
0.00110737
0.00134524
0.0153048
0.0168809
0.0184836
0.0200359
0.0211332
0.0220489
0.0226239
0.0232109
0.0232645
0.0236434
0.0238591
0.0241005
0.0240631
0.024452
0.0241294
0.0238863
0.0230067
0.0220841
0.0206573
0.0192832
0.013289
0.0146059
0.0161422
0.0173195
0.0184152
0.0189915
0.0194806
0.0198536
0.0203026
0.0207269
0.0206681
0.0206863
0.0211542
0.0212764
0.0208869
0.0203248
0.019897
0.0189167
0.0179812
0.0168406
0.0115267
0.0123574
0.0135291
0.014578
0.0154735
0.0160925
0.016626
0.0168737
0.0173858
0.0173763
0.0174185
0.0177051
0.0177202
0.0175293
0.0176681
0.017475
0.01675
0.0161084
0.0150736
0.0143005
0.00925666
0.0100972
0.0113158
0.0120754
0.0127551
0.0129849
0.0135488
0.0137648
0.014163
0.0142291
0.0144978
0.0144775
0.014669
0.0146362
0.0145183
0.0143078
0.0136333
0.0132958
0.0122908
0.0115286
0.00710289
0.00783816
0.00856277
0.00947087
0.00972971
0.0104927
0.010768
0.0108986
0.0109997
0.0114602
0.0111953
0.0114065
0.0115133
0.0113695
0.011245
0.0112041
0.0107795
0.0103258
0.0095997
0.00882871
0.00511704
0.00560142
0.00628534
0.00668308
0.00712642
0.00744083
0.00768891
0.00760156
0.0080256
0.00804128
0.00817624
0.00832358
0.00825208
0.00833323
0.00819522
0.00813185
0.00772718
0.00762147
0.00689726
0.00632544
0.00293311
0.00325866
0.00384345
0.00422312
0.00442722
0.00434049
0.00454259
0.00480228
0.00484859
0.00491172
0.00486861
0.0049984
0.00516463
0.00488134
0.00487917
0.00485128
0.00469586
0.00445309
0.0043231
0.00382418
0.000876909
0.00128905
0.00124843
0.00152906
0.00148821
0.00170029
0.0017093
0.00160132
0.00151679
0.00146168
0.00149841
0.00183383
0.00166886
0.00161165
0.0016453
0.00163463
0.00165844
0.00124415
0.00131629
0.00146927
0.0154367
0.0170636
0.0189257
0.020201
0.0215359
0.022638
0.0234429
0.0237951
0.0244364
0.0248134
0.0248877
0.0250358
0.0250624
0.0251634
0.024897
0.0243221
0.0235321
0.0222808
0.0207392
0.0193754
0.0133621
0.014668
0.0160134
0.0175334
0.0186551
0.0196833
0.0203488
0.0206309
0.0212389
0.0213654
0.0215583
0.021868
0.0219072
0.0219224
0.0215281
0.0210044
0.0202186
0.0192114
0.0178624
0.0167238
0.011174
0.0124745
0.0137283
0.0151206
0.0160504
0.0165841
0.0173313
0.0176015
0.0178911
0.0181518
0.0183903
0.0185229
0.0186027
0.0185483
0.0182739
0.017927
0.0170939
0.0162267
0.0150389
0.0140659
0.00917229
0.0101485
0.0110109
0.0120675
0.0129974
0.013657
0.0141946
0.0144735
0.0145789
0.0151287
0.0152447
0.0150862
0.0151695
0.0153717
0.01483
0.0143223
0.0139932
0.0132109
0.0122225
0.01148
0.00713827
0.00802482
0.00869311
0.00949277
0.0100855
0.0106825
0.0110947
0.0112417
0.0114994
0.0115553
0.0118741
0.0118878
0.0118271
0.0117507
0.011702
0.011287
0.0112114
0.0104543
0.00968242
0.00893636
0.0050018
0.00559539
0.00656639
0.00696481
0.00733698
0.00764783
0.00823079
0.00818108
0.00834497
0.00823096
0.00841548
0.00847497
0.0086419
0.00870961
0.00826038
0.00814349
0.00760052
0.00740211
0.00687684
0.00649085
0.00313939
0.00349154
0.0039112
0.00416524
0.00441095
0.00474722
0.00475345
0.0049521
0.00511733
0.00495282
0.00526105
0.00501066
0.00537026
0.00526698
0.00519624
0.00504171
0.00481514
0.00442933
0.0042577
0.00399527
0.00118515
0.0011003
0.00141976
0.00152068
0.00153934
0.00156236
0.00168257
0.00192273
0.00154092
0.00158733
0.00198421
0.00186872
0.00165659
0.00184014
0.00192497
0.00162379
0.00151036
0.00136271
0.00165028
0.00128266
0.0145714
0.0164699
0.0186365
0.0200261
0.0216821
0.0228348
0.0237236
0.0242058
0.0248748
0.025342
0.0256053
0.0254639
0.0256223
0.0253194
0.0248892
0.0243085
0.0233338
0.0218518
0.0203807
0.0185348
0.0125804
0.0141361
0.0159191
0.017353
0.0185671
0.0195935
0.0205638
0.0209743
0.0213649
0.0218526
0.0220019
0.0221159
0.022175
0.0219548
0.0216685
0.0210044
0.020037
0.018913
0.017471
0.0161723
0.0107878
0.0118122
0.0132649
0.0147961
0.0157409
0.0166021
0.0174806
0.0178459
0.018388
0.0185189
0.0185099
0.0187272
0.0187657
0.0185928
0.0182826
0.0178419
0.0166657
0.0158496
0.014844
0.0133224
0.00858262
0.00976291
0.0109757
0.0121041
0.0129491
0.0136324
0.0141244
0.0147783
0.014853
0.0149173
0.0153548
0.0152699
0.0155814
0.0153955
0.015073
0.0142881
0.0138546
0.0130582
0.0122118
0.0113463
0.00693226
0.00777461
0.00851147
0.00929638
0.00997056
0.0107538
0.0113099
0.0115896
0.0119054
0.0119417
0.0120705
0.0122623
0.0123298
0.0118477
0.011573
0.011634
0.0107683
0.0101299
0.00945679
0.00869823
0.00495706
0.00541073
0.00591803
0.00665688
0.00728605
0.00757959
0.00791452
0.00839258
0.00837971
0.00848117
0.00862243
0.00873146
0.00858039
0.00865077
0.00845359
0.00829214
0.00814587
0.00719341
0.00676214
0.00630282
0.00313311
0.0032328
0.00366696
0.00419244
0.00457276
0.00487187
0.00493352
0.00513561
0.00521178
0.00523022
0.00529399
0.00523708
0.00532331
0.00531883
0.00498043
0.00493754
0.00482986
0.00444771
0.00404738
0.00388924
0.00106721
0.000995145
0.00144803
0.0013213
0.00150318
0.00153593
0.00167918
0.00171854
0.00178592
0.00177174
0.00171382
0.001899
0.00171331
0.00187024
0.00177377
0.00173449
0.00154115
0.0015302
0.00142324
0.00151583
0.0134672
0.0152521
0.0175322
0.0194356
0.0209062
0.0223519
0.0234355
0.024129
0.0246832
0.0249869
0.0252206
0.0255898
0.0253349
0.0250317
0.0246447
0.0233561
0.0225014
0.0209124
0.0194572
0.0176942
0.0114694
0.0130252
0.0150518
0.0166596
0.018198
0.0190372
0.0201952
0.0208642
0.0214179
0.0215955
0.02169
0.0219131
0.021937
0.0217609
0.0212464
0.0205036
0.0195831
0.0181024
0.0166055
0.0149009
0.00964057
0.0109014
0.0127073
0.0141313
0.0149942
0.0163366
0.0169419
0.0176157
0.0179273
0.0185346
0.0186085
0.0184518
0.0185244
0.0183832
0.0178042
0.0171212
0.0163597
0.0154021
0.0139946
0.0126286
0.00782616
0.00904294
0.0101746
0.0117632
0.0124323
0.013277
0.0137838
0.0145541
0.0148113
0.0149316
0.01499
0.0153717
0.0153485
0.015147
0.0146354
0.0141383
0.0133855
0.0122154
0.0114177
0.0104268
0.00609624
0.00706795
0.00818552
0.00880177
0.00973
0.010388
0.0110411
0.0115119
0.0117123
0.011906
0.0119467
0.0121179
0.0119598
0.0115859
0.0115646
0.0110165
0.0103126
0.00988864
0.00911408
0.00807749
0.00441679
0.00513273
0.00578901
0.00658315
0.00710784
0.00760902
0.00807792
0.00810604
0.0083273
0.00858496
0.00853044
0.0085614
0.00867806
0.00851472
0.0083978
0.00764218
0.00737558
0.0071996
0.00653661
0.00582802
0.0025735
0.00310007
0.00378568
0.00395789
0.00422108
0.00449408
0.00474568
0.00500361
0.00499333
0.00525315
0.00516928
0.00541361
0.00505842
0.00535978
0.00519726
0.00485028
0.00435577
0.00421648
0.00395518
0.00339858
0.00107155
0.000994934
0.00126621
0.00131985
0.00150984
0.00135335
0.00153294
0.00168363
0.00152339
0.0017429
0.00181333
0.00176771
0.00206295
0.00183497
0.00173116
0.00154215
0.00143279
0.00146296
0.0013023
0.00125865
0.0115257
0.0137426
0.0158615
0.0179603
0.0195592
0.021319
0.0223065
0.0231199
0.023967
0.0244576
0.024414
0.0244708
0.0245008
0.0239133
0.0233239
0.0223488
0.0212087
0.019548
0.0175826
0.0159448
0.00990671
0.0118971
0.0135979
0.0154459
0.0167938
0.0180903
0.0192834
0.0198663
0.0205138
0.0209861
0.0211589
0.0212294
0.0210778
0.0208417
0.0202169
0.0192378
0.0182346
0.0167354
0.015208
0.0136345
0.00802496
0.00989779
0.011387
0.0129239
0.0143711
0.0152543
0.0162171
0.0169872
0.01748
0.0177105
0.0180688
0.0179828
0.017978
0.0176596
0.0171936
0.0163647
0.0150935
0.0141648
0.0126546
0.0113864
0.00679757
0.00788665
0.00936172
0.01073
0.0117546
0.0127436
0.0133784
0.0137132
0.014473
0.0145089
0.0149278
0.0145851
0.0147412
0.0145531
0.0140093
0.0132802
0.0125849
0.0114623
0.0103288
0.00931795
0.00521149
0.00641708
0.00732898
0.00799006
0.00924935
0.00985057
0.0105049
0.010636
0.0113013
0.0115137
0.0116172
0.0116016
0.0115469
0.0112929
0.0108433
0.0105795
0.00987099
0.00908478
0.00804717
0.00733505
0.00387959
0.00440002
0.0051369
0.0059259
0.00682795
0.0070599
0.00761381
0.00777044
0.0081302
0.00830563
0.00837229
0.00851182
0.00819237
0.00822624
0.00795445
0.00753102
0.00720425
0.0064505
0.00586911
0.00509106
0.00212906
0.00281658
0.0030114
0.00358357
0.00395193
0.00420249
0.00471404
0.00483685
0.00499899
0.00505028
0.00505484
0.00502438
0.00491916
0.00503506
0.00486596
0.00442261
0.00408223
0.00416401
0.00355123
0.00317281
0.000715418
0.000725283
0.00102984
0.00119899
0.00137501
0.00162192
0.00160341
0.00165354
0.00167184
0.00156162
0.00195107
0.00171762
0.00157135
0.0016634
0.00158667
0.00173579
0.00142122
0.00132322
0.00126708
0.00106907
0.00919166
0.0115058
0.0140075
0.0161128
0.0176912
0.0193155
0.020473
0.0215914
0.0223817
0.0228543
0.023072
0.0229376
0.0229412
0.0225633
0.0217591
0.020711
0.0190955
0.0173974
0.0153424
0.0135694
0.00786088
0.00972175
0.0117503
0.0135841
0.015348
0.0165696
0.017783
0.0185429
0.0192647
0.0197033
0.0198769
0.0197642
0.0197325
0.0193694
0.018713
0.0177136
0.0164628
0.0149391
0.0131027
0.0115142
0.00655208
0.00787938
0.0101086
0.0116259
0.0130256
0.0141055
0.0149863
0.0157031
0.016344
0.0165326
0.0167894
0.0169713
0.0167845
0.0163894
0.0157161
0.0149151
0.0138941
0.0123244
0.010985
0.00972247
0.00528418
0.00656613
0.00819599
0.00933306
0.0106443
0.0115481
0.0123463
0.0130229
0.013429
0.0136161
0.0137381
0.0137914
0.0136653
0.0133473
0.0128627
0.0123713
0.0109867
0.0101638
0.00905184
0.00764873
0.0040488
0.00510288
0.0063618
0.00741202
0.00819397
0.00902118
0.0096094
0.0101086
0.0104657
0.0106719
0.0108999
0.0107051
0.0105919
0.0106359
0.00991356
0.00940084
0.00894968
0.00795373
0.00698635
0.00592987
0.00295691
0.00385263
0.0042708
0.00525023
0.00584254
0.00639234
0.00700594
0.00729618
0.00784985
0.00758144
0.0076013
0.00807814
0.00786566
0.00742732
0.00757256
0.00688519
0.00636186
0.00573195
0.0049045
0.00438397
0.00167914
0.00222737
0.00254969
0.00330841
0.00360377
0.0037874
0.00425267
0.00447976
0.00460788
0.00505602
0.00468404
0.00452804
0.00485182
0.00460084
0.00441479
0.00439551
0.0039025
0.00338553
0.00309055
0.00259734
0.000519223
0.00098146
0.000968395
0.00106327
0.00110577
0.00137136
0.00143665
0.0015636
0.00141947
0.00153754
0.00168553
0.00177776
0.00153635
0.00141854
0.0013577
0.00148008
0.00129113
0.00101275
0.000957057
0.000767009
0.006361
0.00867858
0.0112446
0.0132822
0.0154045
0.017047
0.0184165
0.0197967
0.0202056
0.0207794
0.021023
0.0211488
0.0207635
0.0200745
0.0193988
0.0182194
0.016605
0.0149552
0.0128188
0.0105752
0.00535266
0.00707668
0.00924221
0.0115221
0.0132038
0.0146114
0.015859
0.0163689
0.0175746
0.0179357
0.0181051
0.0181539
0.0177791
0.0173235
0.016446
0.0156498
0.0142974
0.0126337
0.0108618
0.00881098
0.00455988
0.00585611
0.0076411
0.00954442
0.0110294
0.0123147
0.0133242
0.014047
0.0146347
0.0150427
0.0153157
0.0152185
0.0150646
0.0146466
0.0140514
0.0131913
0.0119688
0.0105344
0.00869891
0.00750527
0.00333916
0.00485056
0.00646004
0.00763913
0.0090211
0.00992011
0.0108799
0.0114188
0.0120091
0.0122044
0.0126231
0.0125729
0.012553
0.0119397
0.011497
0.0106497
0.00941917
0.00839603
0.00727756
0.00591379
0.00263165
0.0037703
0.00488366
0.00630593
0.00699095
0.00788135
0.00847997
0.00899301
0.00939454
0.00969283
0.00989204
0.00977882
0.00958283
0.00938547
0.00895661
0.00836852
0.00756205
0.00652087
0.00540162
0.00466327
0.00165598
0.00245389
0.00349517
0.00422388
0.00493809
0.00559648
0.00598721
0.00633477
0.00658642
0.00696171
0.0070867
0.00692398
0.00686546
0.00660113
0.00644864
0.00600421
0.00528322
0.00443865
0.00405973
0.00331006
0.000978182
0.00152242
0.00208522
0.00272774
0.00302988
0.00348566
0.00374558
0.00401977
0.00410117
0.0042337
0.00429362
0.00425677
0.00433068
0.00395967
0.00399109
0.00334366
0.00343443
0.00290768
0.00248597
0.00207399
0.000189064
0.000461649
0.000655746
0.000956626
0.00104261
0.00119371
0.00117187
0.0011891
0.00149502
0.00110669
0.00121728
0.00152798
0.00139482
0.00116268
0.00132765
0.00116847
0.00113449
0.00103727
0.000812988
0.000799245
0.00285797
0.00543717
0.00783828
0.0103173
0.0123483
0.0139609
0.0156294
0.0164457
0.0175354
0.0180648
0.0182548
0.0182605
0.0180671
0.0175669
0.0166511
0.0153067
0.0135188
0.0116178
0.00906168
0.00721153
0.00209794
0.00431885
0.0065004
0.00850745
0.0104743
0.0119547
0.0133534
0.0141734
0.0150611
0.0153831
0.015702
0.015673
0.0154743
0.0149165
0.0142577
0.0130614
0.0114225
0.00971971
0.00794301
0.0060421
0.00171018
0.00329579
0.00540983
0.00726391
0.00868997
0.0101016
0.0111812
0.0118229
0.0126429
0.0131249
0.013201
0.0132294
0.0130882
0.0123249
0.0116845
0.0108419
0.0095468
0.007991
0.00631
0.00497078
0.00140512
0.00262805
0.00427826
0.00577459
0.00701707
0.00818789
0.00893605
0.00972323
0.010287
0.0105996
0.0110281
0.0107058
0.0105887
0.0101383
0.00951252
0.00912155
0.00776909
0.00644371
0.00513815
0.00363073
0.00072636
0.00205326
0.00328336
0.00450447
0.00543395
0.00644958
0.00702651
0.0075952
0.00811901
0.00824678
0.0084228
0.00834327
0.00838713
0.0078929
0.007548
0.00684111
0.0062536
0.00521067
0.0039448
0.00300674
0.000659987
0.00126177
0.00218885
0.00324407
0.00389038
0.00467983
0.00512089
0.00561368
0.00589931
0.00585447
0.00606971
0.00590167
0.00616475
0.00588513
0.00533397
0.00478879
0.00428984
0.00359476
0.00278157
0.00208639
0.000211746
0.000787867
0.00127303
0.00194483
0.00260953
0.00281574
0.00307895
0.0032722
0.00339818
0.00351585
0.00376784
0.00370322
0.00377316
0.00362362
0.00323301
0.00299746
0.00244723
0.00218529
0.00156395
0.00121399
0.000223271
0.00020133
0.000574248
0.000411533
0.000846237
0.00110823
0.00106454
0.00102858
0.0012409
0.00128964
0.00110624
0.00141391
0.00123564
0.00116204
0.00110363
0.00103588
0.000863389
0.000803497
0.000620928
0.000486478
0.00084604
0.00174216
0.00421412
0.00674128
0.00894103
0.0109271
0.0123752
0.0135079