/*--------------------------------*- C++ -*----------------------------------*\
| =========                 |                                                 |
| \\      /  F ield         | OpenFOAM: The Open Source CFD Toolbox           |
|  \\    /   O peration     | Version:  2212                                  |
|   \\  /    A nd           | Website:  www.openfoam.com                      |
|    \\/     M anipulation  |                                                 |
\*---------------------------------------------------------------------------*/
FoamFile
{
    version     2.0;
    format      ascii;
    arch        "LSB;label=32;scalar=64";
    class       volScalarField;
    location    "./ITHACAoutput/true/18.7";
    object      error;
}
// * * * * * * * * * * * * * * * * * * * * * * * * * * * * * * * * * * * * * //

dimensions      [0 0 0 1 0 0 0];

internalField   nonuniform List<scalar> 
3200
(
3.26295
3.52211
3.74318
4.0964
4.43307
4.78692
5.11095
5.46455
5.66388
5.9083
6.03089
6.06997
5.96744
5.81039
5.62199
5.44927
5.28622
5.11689
4.92325
4.78967
2.81393
2.92471
3.10337
3.46432
3.77294
4.05739
4.33272
4.5273
4.77552
5.00476
5.02684
5.08283
4.9976
4.89785
4.83677
4.60298
4.43275
4.3136
4.18796
4.0113
2.21334
2.35627
2.50081
2.7414
3.03492
3.34061
3.5587
3.7428
4.00195
4.07229
4.19075
4.16989
4.17385
3.99257
3.88084
3.84959
3.68509
3.53913
3.38388
3.34016
1.69297
1.86574
2.01101
2.22176
2.42
2.55903
2.84554
3.04612
3.17242
3.37783
3.35286
3.33425
3.4037
3.26128
3.1347
3.0929
2.89575
2.88142
2.78921
2.76404
1.29517
1.46566
1.51497
1.70833
1.86561
1.98877
2.19329
2.26119
2.48559
2.56962
2.57016
2.63555
2.57226
2.49874
2.39813
2.30589
2.30576
2.16884
2.14256
2.11824
0.947468
1.04852
1.08553
1.20291
1.3094
1.40752
1.60219
1.65667
1.7424
1.75884
1.85309
1.81972
1.80469
1.74156
1.69352
1.67662
1.60873
1.54254
1.41273
1.45086
0.644697
0.541549
0.653105
0.686651
0.758769
0.774718
0.840775
0.992331
1.0465
1.0374
1.06669
0.988808
1.09087
1.04337
1.02176
1.02143
0.94467
0.986594
0.878452
0.902965
0.220962
0.139892
0.235929
0.215847
0.19094
0.240515
0.350509
0.259598
0.368926
0.412872
0.381309
0.356747
0.350931
0.352044
0.364665
0.30785
0.283536
0.292464
0.293654
0.280896
2.72207
2.87777
3.21131
3.45908
3.79167
4.14167
4.5202
4.74162
5.03901
5.20293
5.33921
5.301
5.19487
5.12678
5.01004
4.81057
4.63207
4.41707
4.29585
4.20212
2.31081
2.38101
2.64568
2.96617
3.12816
3.50167
3.77714
4.00821
4.20203
4.49458
4.49793
4.5388
4.47427
4.34677
4.21436
4.05783
3.89325
3.76851
3.59389
3.60442
1.82071
1.90382
2.08902
2.42039
2.60351
2.83587
3.08436
3.30797
3.4575
3.621
3.7024
3.75575
3.69499
3.6132
3.47594
3.38278
3.23623
3.05515
3.07719
3.01542
1.46032
1.50735
1.75202
1.91705
2.06393
2.26711
2.44227
2.64155
2.78739
2.90217
2.95181
2.99901
2.99175
2.88776
2.74648
2.69713
2.63058
2.48095
2.40145
2.37856
1.10265
1.22925
1.26779
1.42451
1.62354
1.70776
1.95487
2.00327
2.15475
2.23142
2.28319
2.26037
2.27831
2.24782
2.15661
2.04921
1.97739
1.91317
1.9469
1.85061
0.83199
0.865585
0.914908
1.03435
1.07857
1.20715
1.31279
1.42218
1.48858
1.52668
1.5914
1.63432
1.64547
1.56674
1.43465
1.49656
1.3707
1.35896
1.27821
1.36026
0.421805
0.491626
0.511071
0.563105
0.656579
0.743715
0.807891
0.835585
0.918398
0.930238
1.03082
0.884879
0.984977
0.969864
0.947467
0.898232
0.827035
0.818605
0.804281
0.762665
0.111886
0.189797
0.22262
0.167605
0.235415
0.208556
0.212403
0.325886
0.300879
0.307322
0.392166
0.320967
0.267641
0.341567
0.299428
0.257864
0.261779
0.246489
0.304348
0.212982
2.06117
2.10559
2.39147
2.73323
2.87202
3.25013
3.564
3.86042
4.06755
4.28241
4.39155
4.42581
4.29159
4.18389
4.09312
3.86494
3.77569
3.61456
3.48963
3.34718
1.5985
1.75325
2.01385
2.21754
2.3817
2.67753
3.01794
3.35684
3.46779
3.58753
3.71607
3.67033
3.68924
3.60929
3.47075
3.31239
3.13368
3.04317
2.91911
2.86135
1.30551
1.48948
1.56346
1.85127
2.01361
2.21301
2.46279
2.72894
2.80056
3.06568
3.07717
3.06986
3.04582
2.98648
2.89144
2.69917
2.62216
2.58972
2.43414
2.39301
1.09813
1.10223
1.25258
1.38501
1.62903
1.79642
1.9899
2.13672
2.29638
2.398
2.40238
2.43458
2.44893
2.41416
2.28224
2.11677
2.11262
2.07901
1.91245
1.90561
0.733366
0.825863
0.905917
1.03471
1.27818
1.37337
1.53298
1.59709
1.73157
1.79132
1.85162
1.92848
1.88512
1.79228
1.80247
1.67915
1.59304
1.54132
1.47298
1.48625
0.556184
0.628714
0.63383
0.782381
0.850433
0.941083
1.03684
1.1942
1.2308
1.23868
1.36186
1.35312
1.33607
1.32002
1.21852
1.18753
1.21602
1.08765
1.09267
1.09809
0.340328
0.323149
0.384784
0.437129
0.450312
0.510269
0.663047
0.649237
0.716785
0.750286
0.724626
0.735111
0.780578
0.737376
0.770447
0.727035
0.745041
0.594596
0.627185
0.660746
0.13645
0.103075
0.106192
0.087302
0.230692
0.254407
0.188654
0.254594
0.200448
0.262315
0.258797
0.288069
0.165999
0.226763
0.222286
0.236312
0.188124
0.282037
0.211857
0.293842
1.20306
1.39924
1.4386
1.7682
1.96455
2.30982
2.60775
2.87884
3.03731
3.26313
3.34289
3.29759
3.35347
3.24709
3.14026
2.9906
2.84446
2.69245
2.57021
2.44365
0.980066
1.09213
1.26208
1.4099
1.71329
1.89984
2.1872
2.42773
2.65449
2.73476
2.82901
2.83162
2.75007
2.71024
2.60213
2.52853
2.40448
2.2605
2.23295
2.14256
0.75214
0.873567
0.932845
1.14243
1.30776
1.51651
1.79037
1.96455
2.19035
2.23725
2.33048
2.38141
2.36982
2.25917
2.13554
2.09584
1.9336
1.91061
1.76728
1.69265
0.50184
0.616003
0.705264
0.90553
1.06902
1.22583
1.42836
1.54365
1.66752
1.8007
1.85814
1.82406
1.86336
1.81261
1.65987
1.6655
1.52238
1.53611
1.43293
1.40739
0.383587
0.467954
0.538776
0.681571
0.808705
0.881943
1.10703
1.20122
1.31115
1.36884
1.36188
1.46763
1.46243
1.36755
1.35282
1.23451
1.14569
1.12371
1.12324
1.06299
0.271203
0.324354
0.392284
0.487334
0.560322
0.631699
0.724596
0.811669
0.919975
1.00623
1.01275
1.01654
0.952296
1.01247
0.941669
0.865048
0.853226
0.833062
0.777032
0.774901
0.149394
0.20896
0.178165
0.244121
0.289302
0.376673
0.443798
0.536003
0.489567
0.543534
0.518359
0.555136
0.626904
0.586115
0.546469
0.559481
0.449477
0.527092
0.519816
0.41167
0.0581047
0.0444341
0.00520162
0.100383
0.186978
0.0774938
0.160214
0.128449
0.166075
0.179948
0.210363
0.225869
0.257936
0.0985369
0.160965
0.157792
0.218647
0.141527
0.202133
0.159629
0.414488
0.557162
0.652545
0.862577
1.10316
1.37665
1.68785
1.88339
2.10241
2.30344
2.34971
2.34082
2.3162
2.19627
2.13531
2.01654
1.9385
1.83181
1.71367
1.73254
0.316892
0.336705
0.527798
0.707099
0.82752
1.1385
1.32959
1.61044
1.79607
1.82976
1.89482
2.02094
1.99726
1.79088
1.86251
1.66333
1.62234
1.51267
1.40299
1.44544
0.175101
0.2908
0.362526
0.572634
0.630409
0.911697
1.11493
1.29284
1.43473
1.53124
1.56121
1.65064
1.63211
1.54354
1.48636
1.40137
1.28301
1.26579
1.17814
1.17688
0.085431
0.16197
0.228119
0.424502
0.515393
0.634385
0.874123
1.00961
1.07173
1.16105
1.24354
1.2796
1.25729
1.20075
1.14118
1.08797
0.964392
0.986643
0.989048
0.96105
0.0130325
0.157277
0.197294
0.349356
0.340392
0.449668
0.693375
0.710497
0.88929
0.874358
0.90749
1.01608
1.09289
0.962477
0.923436
0.831917
0.78781
0.789459
0.671032
0.676726
-0.00291577
0.0451766
0.16559
0.22271
0.207887
0.261227
0.492697
0.511362
0.548136
0.645327
0.65172
0.682697
0.709602
0.728567
0.605103
0.564442
0.52854
0.5215
0.551749
0.439283
0.0703558
0.00249789
0.0871895
0.0694063
0.130179
0.244533
0.262193
0.307764
0.298361
0.321811
0.414833
0.420866
0.386427
0.382433
0.348409
0.376228
0.302527
0.256908
0.316238
0.28116
0.0493486
0.00559388
0.0215626
-0.00189377
0.0812047
0.0118024
0.0831361
0.107214
0.0698562
0.111372
0.132591
0.228965
0.147557
0.119481
0.154498
0.0716503
0.0706154
0.122117
0.158205
0.105903
-0.284759
-0.19675
-0.0168257
0.0728445
0.154825
0.482836
0.691086
0.996962
1.17857
1.27231
1.35634
1.44617
1.38792
1.35298
1.15474
1.06323
1.09885
0.970048
0.955318
0.927725
-0.344568
-0.227041
-0.183647
-0.0179095
0.24911
0.373109
0.542245
0.793252
0.917367
1.06103
1.0701
1.15237
1.07677
1.04361
1.00144
0.880002
0.872692
0.803147
0.748177
0.726131
-0.351365
-0.341759
-0.21943
-0.0143061
0.128806
0.234575
0.382005
0.570641
0.715138
0.784889
0.856122
0.907315
0.821916
0.859038
0.717406
0.7126
0.703341
0.618577
0.558508
0.597724
-0.370664
-0.316104
-0.178072
-0.0894505
0.0268575
0.129062
0.345595
0.377442
0.523364
0.686821
0.655168
0.690149
0.649484
0.655411
0.638455
0.555901
0.575901
0.545295
0.541199
0.455905
-0.339833
-0.265898
-0.158676
-0.153349
-0.0727433
0.0970348
0.114643
0.317437
0.377762
0.405673
0.509934
0.473397
0.512434
0.493677
0.454929
0.367758
0.397668
0.370291
0.327853
0.35291
-0.270678
-0.146139
-0.175881
-0.120804
-0.0469996
0.00130805
0.147888
0.162818
0.226894
0.295305
0.368366
0.354164
0.343016
0.316054
0.217882
0.324174
0.298407
0.228915
0.256833
0.283496
-0.183314
-0.113988
-0.0906055
-0.0385415
-0.0262495
0.0193138
0.0335611
0.17038
0.152587
0.177899
0.205003
0.181793
0.227696
0.164253
0.19708
0.178341
0.10224
0.133326
0.202201
0.110924
-0.181862
-0.0968287
-0.0392961
-0.0212138
-0.00642214
-0.0363656
0.0333061
0.0509527
0.0608436
0.139396
0.0628555
0.11889
0.0409785
0.0550196
0.0534102
0.107434
0.0904958
0.0274799
0.163458
0.027028
-0.962493
-0.818922
-0.851675
-0.736711
-0.525863
-0.361485
-0.0809488
0.0376562
0.225923
0.350617
0.50977
0.441749
0.468334
0.34479
0.316073
0.260382
0.249567
0.233098
0.183389
0.280701
-0.927713
-0.874224
-0.788834
-0.694263
-0.50148
-0.368766
-0.210547
0.0341884
0.107655
0.235586
0.312345
0.320647
0.261555
0.28573
0.240512
0.148859
0.110362
0.0910088
0.182565
0.13692
-0.825768
-0.807391
-0.767565
-0.690838
-0.551223
-0.394914
-0.197369
-0.100988
0.0187656
0.155653
0.217171
0.248305
0.225628
0.190908
0.0678021
0.0513149
0.0253681
0.0626258
0.0748013
0.120386
-0.764474
-0.711673
-0.665034
-0.582534
-0.47738
-0.396662
-0.245356
-0.15835
-0.0304092
0.0729981
0.107429
0.172661
0.141848
0.119814
0.0946529
0.0603461
0.0193129
0.00472609
0.0793143
0.00192906
-0.693169
-0.588171
-0.45117
-0.406911
-0.403673
-0.311358
-0.195031
-0.124767
-0.0154371
-0.0156895
0.0674244
0.0617377
0.0420267
0.0153984
0.0386988
0.0198906
0.0255157
0.0306706
-0.0629799
0.0411964
-0.371627
-0.453086
-0.394548
-0.393113
-0.223467
-0.179301
-0.167075
-0.158603
-0.0326779
0.000591765
0.00484252
0.117942
-0.00129496
-0.0235609
0.0533884
0.019842
-0.0664356
0.0118312
0.0525078
-0.00711501
-0.229796
-0.277589
-0.19693
-0.185911
-0.25311
-0.0820671
-0.13449
-0.0960822
0.0276146
-0.0534087
0.0429158
0.0134993
0.0333547
0.0258159
-0.0263615
-0.00714455
-0.0279186
0.0248688
-0.0295325
-0.0160458
-0.160518
-0.0873451
-0.165283
-0.139043
-0.0339399
-0.0215414
-0.0258055
-0.0789898
0.0206805
-0.0435584
0.0256876
-0.0265874
0.0278362
0.0169191
-0.02726
-0.0481214
0.0627026
0.0146298
0.0317157
0.0400488
-1.52476
-1.52043
-1.44822
-1.36132
-1.2781
-1.13092
-0.878178
-0.804664
-0.589361
-0.515551
-0.489586
-0.38153
-0.406533
-0.438841
-0.465674
-0.467504
-0.550371
-0.499536
-0.507274
-0.384733
-1.42472
-1.3901
-1.38749
-1.2911
-1.17408
-1.01026
-0.923631
-0.757204
-0.606653
-0.598079
-0.448851
-0.426935
-0.44498
-0.408091
-0.52197
-0.577216
-0.438672
-0.483313
-0.47196
-0.358717
-1.26713
-1.29546
-1.25946
-1.07249
-1.0709
-0.962923
-0.796257
-0.665456
-0.65841
-0.431945
-0.457999
-0.397848
-0.406743
-0.462466
-0.452125
-0.423026
-0.548922
-0.390576
-0.398814
-0.423349
-1.05618
-1.00511
-1.01285
-0.983727
-0.905459
-0.787802
-0.776676
-0.624191
-0.566885
-0.414204
-0.372262
-0.369551
-0.451871
-0.418654
-0.401837
-0.387768
-0.461934
-0.425819
-0.347856
-0.346374
-0.883194
-0.851504
-0.801762
-0.764364
-0.805997
-0.613686
-0.553521
-0.52328
-0.407509
-0.404135
-0.33299
-0.327127
-0.320584
-0.411689
-0.302842
-0.306889
-0.326342
-0.290745
-0.331742
-0.236517
-0.623991
-0.64545
-0.588248
-0.583255
-0.630533
-0.525201
-0.448273
-0.431219
-0.330759
-0.356581
-0.300126
-0.19046
-0.167211
-0.26735
-0.237135
-0.239262
-0.198019
-0.254703
-0.208529
-0.274955
-0.385069
-0.371934
-0.377927
-0.430308
-0.277817
-0.303048
-0.27989
-0.228887
-0.179325
-0.148235
-0.108533
-0.205487
-0.140542
-0.123182
-0.149067
-0.103374
-0.148939
-0.201361
-0.207409
-0.136739
-0.131009
-0.188637
-0.0904063
-0.11542
-0.194242
-0.0235814
-0.103755
-0.0981526
-0.0672212
-0.0984728
-0.10814
-0.0312108
-0.0896003
-0.0720666
-0.0812362
-0.0473159
-0.0556636
-0.0330726
-0.10174
-0.0625445
-1.96666
-2.06341
-1.94437
-2.03074
-1.9345
-1.81505
-1.55075
-1.45468
-1.39161
-1.31738
-1.25483
-1.18085
-1.16112
-1.11759
-1.22951
-1.19864
-1.17953
-1.12323
-1.08415
-0.997936
-1.84996
-1.83485
-1.9096
-1.87532
-1.78787
-1.61162
-1.49774
-1.40111
-1.27028
-1.13882
-1.10966
-1.10052
-1.12831
-1.08496
-1.08282
-1.05615
-1.08779
-1.03464
-1.00593
-0.968591
-1.74129
-1.63441
-1.62428
-1.5571
-1.52046
-1.41663
-1.33388
-1.2027
-1.1446
-1.08104
-0.934557
-0.998665
-0.978266
-0.977975
-1.00594
-0.945037
-0.917795
-0.986097
-0.882616
-0.763954
-1.37482
-1.38
-1.40201
-1.39215
-1.33333
-1.20344
-1.11168
-1.11188
-0.977672
-0.931953
-0.830602
-0.777569
-0.852781
-0.840065
-0.884855
-0.864477
-0.731145
-0.772533
-0.700918
-0.753397
-1.05134
-1.0876
-1.14915
-1.11315
-1.02176
-1.04043
-0.919076
-0.857875
-0.850137
-0.737678
-0.732422
-0.714142
-0.678067
-0.634409
-0.659432
-0.63603
-0.717259
-0.678876
-0.618571
-0.591309
-0.736112
-0.815194
-0.798586
-0.786184
-0.779776
-0.742188
-0.720852
-0.634497
-0.608541
-0.578358
-0.56521
-0.513202
-0.523346
-0.425874
-0.47534
-0.447016
-0.502924
-0.51288
-0.460425
-0.439956
-0.48982
-0.466844
-0.478619
-0.511769
-0.444285
-0.41687
-0.398051
-0.433162
-0.333234
-0.355707
-0.292803
-0.390981
-0.331776
-0.260672
-0.307781
-0.307556
-0.369822
-0.281031
-0.283122
-0.233305
-0.190077
-0.0969678
-0.152052
-0.210741
-0.216039
-0.0916569
-0.127168
-0.154677
-0.138684
-0.104555
-0.176054
-0.134755
-0.0830549
-0.125691
-0.0935717
-0.167263
-0.0908529
-0.0741502
-0.13602
-0.11274
-2.42416
-2.41896
-2.49894
-2.49471
-2.46231
-2.41111
-2.24465
-2.233
-2.05576
-1.98627
-1.92097
-1.86527
-1.84338
-1.85549
-1.78857
-1.74446
-1.69574
-1.69284
-1.55792
-1.49841
-2.26488
-2.14072
-2.24605
-2.25903
-2.2511
-2.15869
-2.10407
-1.95058
-1.90615
-1.74278
-1.69611
-1.80094
-1.71114
-1.62955
-1.66117
-1.50294
-1.55889
-1.48414
-1.42634
-1.28392
-1.95869
-1.96644
-1.99161
-2.00222
-1.98037
-1.89002
-1.79347
-1.77978
-1.66038
-1.62167
-1.50391
-1.49714
-1.4332
-1.47721
-1.44142
-1.38056
-1.43947
-1.33367
-1.1908
-1.15941
-1.62743
-1.6033
-1.69265
-1.63815
-1.60465
-1.59342
-1.55363
-1.49467
-1.39995
-1.40446
-1.35165
-1.35831
-1.21739
-1.23932
-1.1969
-1.22083
-1.19697
-1.15332
-1.08693
-0.965213
-1.20539
-1.31059
-1.37684
-1.33434
-1.32274
-1.2495
-1.1961
-1.07437
-1.09516
-1.07754
-0.920134
-1.00535
-1.00222
-0.904302
-0.989802
-0.979077
-0.906822
-0.93958
-0.858251
-0.7872
-0.920102
-0.932983
-0.991537
-0.985416
-0.932391
-0.917252
-0.815108
-0.86016
-0.863608
-0.788394
-0.730393
-0.777044
-0.742903
-0.667752
-0.723666
-0.711487
-0.645301
-0.624367
-0.58302
-0.516712
-0.526668
-0.574279
-0.560714
-0.589312
-0.586528
-0.547835
-0.505477
-0.545661
-0.553702
-0.49224
-0.455329
-0.444698
-0.497801
-0.392117
-0.455728
-0.435489
-0.382251
-0.377292
-0.322183
-0.332212
-0.215684
-0.210807
-0.140373
-0.165753
-0.228911
-0.166645
-0.193537
-0.174108
-0.167696
-0.2023
-0.109449
-0.206496
-0.156149
-0.139476
-0.15521
-0.155599
-0.0648502
-0.118074
-0.103719
-0.109253
-2.71345
-2.88915
-2.86872
-2.87928
-2.9092
-2.88445
-2.84445
-2.7385
-2.67647
-2.56157
-2.49712
-2.4897
-2.41573
-2.40397
-2.37286
-2.29406
-2.20928
-2.13079
-1.99737
-1.81988
-2.449
-2.56664
-2.59616
-2.67517
-2.5889
-2.58658
-2.58717
-2.42724
-2.3109
-2.33816
-2.27357
-2.24996
-2.16187
-2.18231
-2.12365
-2.08765
-1.95927
-1.86694
-1.69956
-1.68729
-2.12888
-2.14076
-2.35607
-2.31648
-2.31654
-2.29786
-2.16793
-2.18573
-2.09226
-2.07252
-2.01355
-1.9276
-1.89326
-1.86178
-1.78745
-1.87911
-1.70995
-1.6881
-1.55877
-1.4379
-1.74364
-1.89439
-1.89517
-2.0016
-1.88476
-1.92919
-1.8719
-1.79529
-1.7869
-1.74814
-1.65401
-1.67593
-1.64286
-1.62027
-1.571
-1.60246
-1.5096
-1.41517
-1.27777
-1.20561
-1.4448
-1.45791
-1.51887
-1.53326
-1.54624
-1.52276
-1.42595
-1.39717
-1.41483
-1.35104
-1.36627
-1.33747
-1.25297
-1.18994
-1.28279
-1.19047
-1.14768
-1.04385
-1.03474
-0.9451
-1.08242
-1.03731
-1.08832
-1.10206
-1.09558
-1.07601
-1.07723
-1.1051
-1.04919
-0.971088
-0.988738
-0.929552
-0.908791
-0.894979
-0.91903
-0.943423
-0.769553
-0.789131
-0.734389
-0.692349
-0.648854
-0.566518
-0.643629
-0.711734
-0.707868
-0.646641
-0.665597
-0.635262
-0.61516
-0.561421
-0.634397
-0.522871
-0.516663
-0.560412
-0.495106
-0.456014
-0.556855
-0.531633
-0.456332
-0.429931
-0.239665
-0.274231
-0.245673
-0.22206
-0.26685
-0.198886
-0.23768
-0.202455
-0.233783
-0.243457
-0.134454
-0.110681
-0.200623
-0.143077
-0.103394
-0.240943
-0.193187
-0.155835
-0.138014
-0.167271
-2.96376
-3.04446
-3.20615
-3.24313
-3.26391
-3.2387
-3.25299
-3.11778
-3.09878
-3.11919
-3.00373
-2.91768
-2.89026
-2.90647
-2.7919
-2.69497
-2.63125
-2.44377
-2.36402
-2.14583
-2.63631
-2.76855
-2.82521
-2.94524
-3.01645
-2.93461
-2.84504
-2.87533
-2.81464
-2.73425
-2.67839
-2.64704
-2.6276
-2.5745
-2.50351
-2.41917
-2.30665
-2.20653
-2.05428
-1.93301
-2.27461
-2.39037
-2.49564
-2.53112
-2.62656
-2.53547
-2.58674
-2.52492
-2.46849
-2.40425
-2.42794
-2.29018
-2.27635
-2.25133
-2.08404
-2.09492
-2.02712
-1.88772
-1.81807
-1.59
-1.94508
-2.01452
-2.09488
-2.13703
-2.12382
-2.07704
-2.14242
-2.02932
-2.08236
-2.02712
-1.93015
-2.02482
-1.98513
-1.83585
-1.84259
-1.75753
-1.73859
-1.49134
-1.45775
-1.36124
-1.5651
-1.57894
-1.66497
-1.67502
-1.67778
-1.58957
-1.65789
-1.68084
-1.71796
-1.58011
-1.52593
-1.51641
-1.48063
-1.47066
-1.40102
-1.40277
-1.33147
-1.23245
-1.10096
-1.08668
-1.13186
-1.15381
-1.22768
-1.24542
-1.26535
-1.27604
-1.25737
-1.18231
-1.12493
-1.12152
-1.09937
-1.08454
-1.09833
-1.09362
-1.07725
-0.945679
-0.995337
-0.861457
-0.843651
-0.777581
-0.709233
-0.739377
-0.712682
-0.765308
-0.751279
-0.76447
-0.806104
-0.710087
-0.632
-0.68106
-0.652098
-0.699066
-0.685325
-0.643282
-0.615856
-0.686707
-0.603024
-0.552135
-0.493152
-0.470445
-0.257862
-0.252533
-0.291846
-0.247275
-0.223526
-0.296245
-0.187026
-0.210063
-0.213407
-0.265314
-0.269573
-0.254459
-0.176937
-0.240036
-0.247789
-0.265877
-0.169553
-0.206926
-0.102367
-0.17748
-3.0367
-3.19424
-3.4542
-3.51995
-3.56996
-3.62996
-3.61497
-3.52215
-3.40193
-3.43415
-3.39259
-3.39944
-3.30518
-3.18855
-3.19861
-3.04118
-2.91598
-2.72642
-2.46395
-2.26129
-2.69351
-2.88909
-3.01067
-3.21952
-3.21067
-3.20104
-3.20607
-3.20362
-3.17269
-3.07041
-2.96701
-3.00199
-2.94445
-2.83302
-2.80289
-2.77365
-2.61074
-2.4207
-2.19195
-2.05306
-2.32902
-2.41018
-2.59158
-2.60391
-2.76858
-2.73444
-2.73493
-2.78494
-2.73508
-2.60115
-2.66207
-2.53813
-2.51328
-2.46127
-2.41257
-2.35865
-2.15657
-2.02791
-1.87673
-1.73396
-1.9722
-2.12546
-2.16813
-2.20609
-2.30245
-2.23868
-2.28363
-2.31914
-2.26212
-2.16628
-2.20508
-2.12555
-2.11772
-2.1676
-2.09342
-1.92955
-1.83244
-1.72854
-1.60023
-1.48284
-1.66789
-1.68295
-1.72838
-1.83538
-1.82738
-1.8609
-1.84263
-1.77475
-1.81504
-1.79169
-1.73093
-1.65167
-1.70286
-1.64246
-1.5961
-1.55628
-1.40969
-1.3616
-1.27849
-1.20573
-1.1234
-1.22145
-1.20071
-1.28437
-1.32506
-1.32011
-1.28296
-1.32101
-1.33297
-1.30413
-1.27443
-1.23326
-1.18593
-1.22277
-1.18497
-1.09578
-1.12717
-0.995414
-0.928486
-0.880968
-0.660561
-0.74773
-0.722868
-0.790584
-0.771848
-0.81709
-0.825847
-0.775412
-0.780448
-0.81383
-0.766631
-0.751084
-0.673763
-0.639336
-0.711127
-0.585565
-0.686305
-0.626746
-0.56846
-0.547412
-0.297655
-0.285771
-0.269717
-0.329886
-0.218608
-0.343282
-0.266944
-0.301466
-0.215191
-0.344302
-0.245582
-0.196873
-0.223606
-0.201362
-0.232558
-0.21253
-0.241028
-0.184892
-0.239932
-0.181758
-3.0566
-3.23906
-3.35977
-3.59927
-3.71772
-3.82402
-3.79818
-3.80674
-3.74875
-3.71071
-3.69402
-3.6246
-3.59585
-3.38563
-3.3723
-3.25424
-3.10683
-2.83786
-2.63712
-2.33705
-2.77427
-2.94443
-3.07652
-3.18104
-3.27968
-3.31313
-3.39395
-3.40844
-3.33433
-3.29367
-3.27411
-3.20409
-3.13662
-3.10422
-2.94011
-2.9082
-2.6743
-2.54757
-2.38093
-2.1001
-2.37047
-2.5168
-2.73895
-2.84359
-2.87204
-2.87525
-2.88577
-2.95259
-2.91458
-2.85261
-2.81423
-2.83413
-2.77238
-2.68597
-2.59672
-2.49652
-2.29281
-2.17188
-1.99513
-1.81387
-1.9807
-2.0417
-2.15688
-2.28365
-2.33602
-2.46369
-2.46301
-2.45873
-2.40778
-2.36543
-2.29211
-2.29551
-2.33659
-2.24916
-2.16767
-2.09284
-1.98836
-1.76064
-1.65677
-1.5209
-1.56869
-1.67953
-1.75747
-1.84562
-1.92712
-1.91315
-1.92475
-1.92942
-1.94741
-1.90976
-1.91312
-1.82265
-1.81744
-1.76972
-1.66213
-1.62556
-1.53093
-1.46655
-1.32833
-1.18537
-1.12167
-1.23641
-1.26649
-1.321
-1.39427
-1.34767
-1.41517
-1.41329
-1.39412
-1.32088
-1.33553
-1.3884
-1.26586
-1.2891
-1.23073
-1.19886
-1.0834
-0.989429
-1.0044
-0.872238
-0.661749
-0.824677
-0.807997
-0.863653
-0.853439
-0.830703
-0.883655
-0.899054
-0.849977
-0.818524
-0.793625
-0.780646
-0.816266
-0.814102
-0.69732
-0.722323
-0.74202
-0.672666
-0.663454
-0.508183
-0.247992
-0.292216
-0.220448
-0.281615
-0.308888
-0.293048
-0.289403
-0.352123
-0.29726
-0.220203
-0.264694
-0.271582
-0.293154
-0.192247
-0.261364
-0.266094
-0.326326
-0.238467
-0.195251
-0.101628
-2.95067
-3.1458
-3.44499
-3.56932
-3.74844
-3.81098
-3.9246
-3.95306
-3.8584
-3.777
-3.83097
-3.79579
-3.74775
-3.63498
-3.51219
-3.3699
-3.10148
-2.83556
-2.66142
-2.29556
-2.63476
-2.76218
-2.97799
-3.11895
-3.32024
-3.41488
-3.48427
-3.42151
-3.45158
-3.40823
-3.43731
-3.32627
-3.2429
-3.13951
-3.08383
-2.96426
-2.78897
-2.54301
-2.3404
-2.08305
-2.3147
-2.45365
-2.54144
-2.75495
-2.87752
-2.987
-2.94493
-3.01804
-2.96615
-2.96043
-2.8906
-2.91205
-2.88203
-2.79055
-2.68887
-2.55994
-2.35349
-2.26166
-1.99444
-1.79709
-1.84808
-2.00242
-2.08365
-2.30458
-2.41204
-2.441
-2.43485
-2.48861
-2.47235
-2.40966
-2.4984
-2.38096
-2.25132
-2.27674
-2.25492
-2.13724
-1.9551
-1.83484
-1.62128
-1.49414
-1.53442
-1.67002
-1.86077
-1.77172
-1.88756
-1.89947
-2.01138
-1.95654
-2.01193
-1.89312
-1.89248
-1.94431
-1.87412
-1.79198
-1.7614
-1.66021
-1.59683
-1.4168
-1.29424
-1.19311
-1.13904
-1.15392
-1.30636
-1.28541
-1.30499
-1.42256
-1.46484
-1.48651
-1.37486
-1.43164
-1.40486
-1.41063
-1.27688
-1.29026
-1.26261
-1.23677
-1.09141
-1.04026
-0.942098
-0.817028
-0.618658
-0.737413
-0.747222
-0.80263
-0.828991
-0.830694
-0.873664
-0.855818
-0.818069
-0.85854
-0.904173
-0.790536
-0.841068
-0.818429
-0.791497
-0.762504
-0.639912
-0.662667
-0.590325
-0.484047
-0.190699
-0.203199
-0.269127
-0.308649
-0.297571
-0.325431
-0.325332
-0.303208
-0.324528
-0.265483
-0.326303
-0.279618
-0.281894
-0.25083
-0.278891
-0.226879
-0.21879
-0.221268
-0.186908
-0.132328
-2.64819
-2.93707
-3.23586
-3.38713
-3.57474
-3.73521
-3.8008
-3.88913
-3.88468
-3.90132
-3.80275
-3.81134
-3.74076
-3.56423
-3.39774
-3.24963
-3.07497
-2.78293
-2.49316
-2.25451
-2.45429
-2.60171
-2.846
-3.01973
-3.18261
-3.31588
-3.44456
-3.49567
-3.45621
-3.41565
-3.37375
-3.40081
-3.30507
-3.21851
-3.06
-2.9225
-2.64998
-2.47058
-2.23405
-1.87057
-2.12427
-2.29766
-2.45585
-2.65863
-2.75652
-2.9133
-2.98717
-3.04381
-2.94347
-3.06789
-2.90785
-2.89822
-2.8353
-2.80556
-2.65618
-2.52621
-2.36108
-2.07372
-1.91876
-1.67357
-1.7407
-1.87505
-2.08721
-2.26043
-2.39055
-2.39011
-2.4888
-2.43777
-2.54141
-2.44095
-2.38532
-2.37632
-2.36264
-2.30541
-2.1833
-2.12269
-1.92146
-1.74659
-1.56941
-1.42494
-1.39306
-1.56688
-1.67773
-1.77723
-1.79593
-1.87695
-1.97621
-2.09669
-1.96716
-1.96835
-1.91002
-1.8936
-1.85697
-1.81592
-1.73301
-1.6964
-1.49957
-1.36301
-1.23091
-1.07979
-0.96
-1.10937
-1.22986
-1.26512
-1.38551
-1.39147
-1.35927
-1.43082
-1.40173
-1.43875
-1.42931
-1.50386
-1.33304
-1.22396
-1.26455
-1.17556
-1.03789
-0.985946
-0.908983
-0.836285
-0.65501
-0.704092
-0.754092
-0.807783
-0.843947
-0.81984
-0.811529
-0.896003
-0.864652
-0.790419
-0.798919
-0.871386
-0.826709
-0.760905
-0.748386
-0.697057
-0.623803
-0.610183
-0.578658
-0.464156
-0.192643
-0.206113
-0.195876
-0.320664
-0.281037
-0.306573
-0.262784
-0.311753
-0.372157
-0.350872
-0.232808
-0.283757
-0.283401
-0.285927
-0.200112
-0.300704
-0.290229
-0.226345
-0.179351
-0.163091
-2.38837
-2.64217
-2.89909
-3.14832
-3.37472
-3.60807
-3.64768
-3.77827
-3.77019
-3.73452
-3.67521
-3.67831
-3.58264
-3.46591
-3.28802
-3.09144
-2.84791
-2.5468
-2.30083
-1.90316
-2.14373
-2.37689
-2.62343
-2.87805
-3.08788
-3.17777
-3.30593
-3.29698
-3.29098
-3.3656
-3.30647
-3.24751
-3.18617
-3.07038
-2.9774
-2.75576
-2.50329
-2.17684
-1.96982
-1.71584
-1.86835
-1.99767
-2.29861
-2.48676
-2.69883
-2.75673
-2.81012
-2.91051
-2.87991
-2.98229
-2.85919
-2.83051
-2.7922
-2.67642
-2.50293
-2.34094
-2.12677
-1.94637
-1.72266
-1.52425
-1.59089
-1.80299
-1.92987
-2.15307
-2.17021
-2.34221
-2.40924
-2.40986
-2.43174
-2.42195
-2.4451
-2.32616
-2.34706
-2.21443
-2.04788
-1.96748
-1.82711
-1.61951
-1.4247
-1.31239
-1.19141
-1.3024
-1.52533
-1.69866
-1.73117
-1.75589
-1.98971
-1.9406
-1.84491
-1.90601
-1.87507
-1.93289
-1.81972
-1.76834
-1.6791
-1.58117
-1.41019
-1.23772
-1.14445
-0.989532
-0.975518
-0.993605
-1.13567
-1.19263
-1.26231
-1.2976
-1.31676
-1.3998
-1.40486
-1.36813
-1.34382
-1.30991
-1.32093
-1.29103
-1.101
-1.12166
-1.08216
-0.879974
-0.81032
-0.673584
-0.545573
-0.555756
-0.693484
-0.718485
-0.709086
-0.786193
-0.828315
-0.831713
-0.7884
-0.850959
-0.851684
-0.834762
-0.839756
-0.804025
-0.795603
-0.620124
-0.613864
-0.536693
-0.419853
-0.480307
-0.194782
-0.194263
-0.223743
-0.234242
-0.281267
-0.267112
-0.264818
-0.300811
-0.277283
-0.285178
-0.286828
-0.254463
-0.276316
-0.250578
-0.231428
-0.199704
-0.22088
-0.155266
-0.148722
-0.173621
-1.95072
-2.12851
-2.53073
-2.88333
-3.06608
-3.22602
-3.40126
-3.47119
-3.56088
-3.55262
-3.53563
-3.46027
-3.33235
-3.26693
-3.11124
-2.86958
-2.58131
-2.26495
-1.88222
-1.65778
-1.73987
-1.97827
-2.35168
-2.49443
-2.75992
-2.86008
-2.96422
-3.03268
-3.15012
-3.14202
-3.18476
-3.10224
-2.97995
-2.83696
-2.65185
-2.47407
-2.26495
-1.9724
-1.74098
-1.38242
-1.52627
-1.75727
-2.03253
-2.18395
-2.43607
-2.59791
-2.56871
-2.71663
-2.67521
-2.77977
-2.67298
-2.64509
-2.57905
-2.47099
-2.3791
-2.18422
-1.93792
-1.64594
-1.43908
-1.19299
-1.36083
-1.51503
-1.68808
-1.88981
-2.02884
-2.11841
-2.16185
-2.28124
-2.32057
-2.26419
-2.28616
-2.21696
-2.1497
-2.01824
-1.89544
-1.86074
-1.67433
-1.40964
-1.17713
-1.10337
-1.06504
-1.15027
-1.35517
-1.55513
-1.60763
-1.68777
-1.75195
-1.74435
-1.74441
-1.79128
-1.81844
-1.69105
-1.72642
-1.69826
-1.59511
-1.38389
-1.29006
-1.0931
-1.00195
-0.829387
-0.827307
-0.850077
-1.00003
-1.02084
-1.17995
-1.22327
-1.33086
-1.30267
-1.29258
-1.34137
-1.36249
-1.22453
-1.23054
-1.20527
-1.07112
-1.04757
-0.901666
-0.800128
-0.725753
-0.567399
-0.443009
-0.558285
-0.578685
-0.698409
-0.688671
-0.71223
-0.73996
-0.781886
-0.846816
-0.817936
-0.725903
-0.76535
-0.771234
-0.696866
-0.690315
-0.679415
-0.607987
-0.538199
-0.443993
-0.339406
-0.138929
-0.226025
-0.216557
-0.18427
-0.186223
-0.245187
-0.223531
-0.279734
-0.295898
-0.237638
-0.300276
-0.341268
-0.166979
-0.197789
-0.211739
-0.119211
-0.213042
-0.242284
-0.173769
-0.171498
-1.36684
-1.77001
-2.09104
-2.43365
-2.67861
-2.86483
-3.04811
-3.12711
-3.22262
-3.25616
-3.12384
-3.15431
-3.05255
-2.95937
-2.7584
-2.53186
-2.32782
-1.8635
-1.4986
-1.13649
-1.27519
-1.59629
-1.91014
-2.21121
-2.46031
-2.62916
-2.69284
-2.85283
-2.8809
-2.86923
-2.82447
-2.85565
-2.71946
-2.63438
-2.43079
-2.21931
-2.00775
-1.7242
-1.34108
-0.95816
-1.1866
-1.41933
-1.75146
-2.01462
-2.19041
-2.29577
-2.36907
-2.44101
-2.48297
-2.48834
-2.4321
-2.51269
-2.38239
-2.23356
-2.22838
-1.95121
-1.66936
-1.38614
-1.22424
-1.0091
-1.07761
-1.25483
-1.46297
-1.68756
-1.79606
-1.85518
-2.03809
-2.09685
-2.04989
-2.15182
-2.13662
-2.06225
-2.02679
-1.84194
-1.72862
-1.61535
-1.47294
-1.21131
-1.01868
-0.887634
-0.857743
-1.00979
-1.17314
-1.3446
-1.39532
-1.52424
-1.57655
-1.60436
-1.64962
-1.66597
-1.68954
-1.60462
-1.62691
-1.49085
-1.43326
-1.26942
-1.10935
-0.975661
-0.756099
-0.664137
-0.615434
-0.717188
-0.91383
-0.893869
-1.03229
-1.15838
-1.16353
-1.24084
-1.18737
-1.22525
-1.1278
-1.1692
-1.10355
-1.13358
-0.981485
-0.98889
-0.751444
-0.724594
-0.68946
-0.507786
-0.406885
-0.471271
-0.481415
-0.608
-0.64615
-0.674428
-0.671384
-0.728472
-0.781083
-0.754765
-0.831187
-0.684302
-0.693503
-0.685944
-0.624062
-0.633968
-0.49651
-0.45504
-0.399364
-0.299667
-0.154186
-0.180893
-0.152583
-0.227316
-0.219246
-0.155217
-0.271354
-0.238581
-0.300766
-0.252423
-0.228494
-0.296517
-0.25622
-0.164336
-0.191019
-0.156099
-0.215569
-0.126463
-0.0716015
-0.132173
-0.972496
-1.33732
-1.69361
-2.12423
-2.30273
-2.61446
-2.74151
-2.84815
-2.89465
-2.9219
-2.97576
-2.9572
-2.78177
-2.63042
-2.33022
-2.2385
-1.90546
-1.52789
-1.10153
-0.744443
-0.928887
-1.32497
-1.61818
-1.91651
-2.17201
-2.32686
-2.41647
-2.62655
-2.70185
-2.65882
-2.67415
-2.64419
-2.59178
-2.35276
-2.13928
-2.01355
-1.72933
-1.42592
-1.11517
-0.771843
-0.91215
-1.16893
-1.50128
-1.76462
-1.91027
-2.0123
-2.21148
-2.2665
-2.27323
-2.31716
-2.3598
-2.29294
-2.20316
-2.11534
-1.90398
-1.79288
-1.49954
-1.24296
-0.950068
-0.694122
-0.788531
-1.05569
-1.19011
-1.47971
-1.65516
-1.76295
-1.85554
-1.91281
-1.92401
-1.91275
-1.94361
-1.84976
-1.82984
-1.75881
-1.6078
-1.46993
-1.26553
-1.05449
-0.817142
-0.650783
-0.698007
-0.859915
-0.997552
-1.2067
-1.2918
-1.45738
-1.48213
-1.52172
-1.55774
-1.58456
-1.57277
-1.48744
-1.48401
-1.39331
-1.26785
-1.18838
-1.05521
-0.871462
-0.605606
-0.593798
-0.455222
-0.677518
-0.779459
-0.871471
-0.989649
-0.901468
-1.10071
-1.08593
-1.14534
-1.06919
-1.14589
-1.09823
-1.03566
-1.06469
-0.938805
-0.807076
-0.668624
-0.638771
-0.476496
-0.429773
-0.2515
-0.395334
-0.431373
-0.447516
-0.57036
-0.653827
-0.614614
-0.679985
-0.777992
-0.643753
-0.69119
-0.732958
-0.606867
-0.586932
-0.584442
-0.529571
-0.439179
-0.408266
-0.295098
-0.259901
-0.133547
-0.119258
-0.135883
-0.111688
-0.220124
-0.169892
-0.248131
-0.26265
-0.229522
-0.124045
-0.250855
-0.227746
-0.173231
-0.246636
-0.14248
-0.200198
-0.124585
-0.0640379
-0.0716082
-0.089521
)
;

boundaryField
{
    hotSide
    {