/*--------------------------------*- C++ -*----------------------------------*\
| =========                 |                                                 |
| \\      /  F ield         | OpenFOAM: The Open Source CFD Toolbox           |
|  \\    /   O peration     | Version:  2212                                  |
|   \\  /    A nd           | Website:  www.openfoam.com                      |
|    \\/     M anipulation  |                                                 |
\*---------------------------------------------------------------------------*/
FoamFile
{
    version     2.0;
    format      ascii;
    arch        "LSB;label=32;scalar=64";
    class       volScalarField;
    location    "0";
    object      Ttrue;
}
// * * * * * * * * * * * * * * * * * * * * * * * * * * * * * * * * * * * * * //

dimensions      [0 0 0 1 0 0 0];

internalField   nonuniform List<scalar> 
3200
(
348.858
349.431
350.163
350.961
351.783
352.59
353.334
353.963
354.421
354.663
354.663
354.421
353.963
353.334
352.59
351.783
350.961
350.163
349.431
348.858
342.405
342.89
343.521
344.212
344.923
345.621
346.265
346.808
347.203
347.412
347.412
347.203
346.808
346.265
345.621
344.923
344.212
343.521
342.89
342.405
335.926
336.329
336.861
337.445
338.046
338.635
339.179
339.637
339.971
340.147
340.147
339.971
339.637
339.179
338.635
338.046
337.445
336.861
336.329
335.926
329.428
329.752
330.185
330.662
331.153
331.635
332.079
332.453
332.726
332.869
332.869
332.726
332.453
332.079
331.635
331.153
330.662
330.185
329.752
329.428
322.912
323.161
323.497
323.867
324.249
324.624
324.969
325.259
325.471
325.582
325.582
325.471
325.259
324.969
324.624
324.249
323.867
323.497
323.161
322.912
316.383
316.559
316.799
317.063
317.336
317.603
317.849
318.057
318.208
318.287
318.287
318.208
318.057
317.849
317.603
317.336
317.063
316.799
316.559
316.383
309.844
309.95
310.093
310.252
310.416
310.576
310.724
310.849
310.939
310.987
310.987
310.939
310.849
310.724
310.576
310.416
310.252
310.093
309.95
309.844
303.301
303.336
303.384
303.437
303.492
303.546
303.595
303.637
303.667
303.683
303.683
303.667
303.637
303.595
303.546
303.492
303.437
303.384
303.336
303.301
349.03
349.599
350.325
351.116
351.929
352.727
353.463
354.084
354.536
354.774
354.774
354.536
354.084
353.463
352.727
351.929
351.116
350.325
349.599
349.03
342.554
343.036
343.662
344.346
345.05
345.74
346.376
346.913
347.303
347.509
347.509
347.303
346.913
346.376
345.74
345.05
344.346
343.662
343.036
342.554
336.053
336.453
336.98
337.558
338.153
338.736
339.273
339.726
340.055
340.229
340.229
340.055
339.726
339.273
338.736
338.153
337.558
336.98
336.453
336.053
329.531
329.853
330.283
330.755
331.241
331.718
332.157
332.526
332.795
332.937
332.937
332.795
332.526
332.157
331.718
331.241
330.755
330.283
329.853
329.531
322.992
323.239
323.573
323.94
324.318
324.688
325.029
325.316
325.525
325.635
325.635
325.525
325.316
325.029
324.688
324.318
323.94
323.573
323.239
322.992
316.44
316.615
316.853
317.115
317.385
317.649
317.893
318.097
318.246
318.325
318.325
318.246
318.097
317.893
317.649
317.385
317.115
316.853
316.615
316.44
309.879
309.983
310.126
310.283
310.445
310.604
310.75
310.873
310.962
311.01
311.01
310.962
310.873
310.75
310.604
310.445
310.283
310.126
309.983
309.879
303.312
303.347
303.395
303.448
303.502
303.555
303.604
303.645
303.675
303.691
303.691
303.675
303.645
303.604
303.555
303.502
303.448
303.395
303.347
303.312
349.377
349.937
350.65
351.426
352.223
353.004
353.723
354.328
354.769
355.001
355.001
354.769
354.328
353.723
353.004
352.223
351.426
350.65
349.937
349.377
342.854
343.328
343.944
344.615
345.305
345.98
346.602
347.125
347.506
347.706
347.706
347.506
347.125
346.602
345.98
345.305
344.615
343.944
343.328
342.854
336.307
336.7
337.219
337.786
338.369
338.94
339.465
339.906
340.227
340.397
340.397
340.227
339.906
339.465
338.94
338.369
337.786
337.219
336.7
336.307
329.739
330.056
330.478
330.942
331.418
331.885
332.313
332.674
332.936
333.074
333.074
332.936
332.674
332.313
331.885
331.418
330.942
330.478
330.056
329.739
323.154
323.397
323.725
324.085
324.456
324.818
325.151
325.431
325.635
325.742
325.742
325.635
325.431
325.151
324.818
324.456
324.085
323.725
323.397
323.154
316.556
316.728
316.962
317.219
317.483
317.742
317.98
318.18
318.325
318.402
318.402
318.325
318.18
317.98
317.742
317.483
317.219
316.962
316.728
316.556
309.948
310.051
310.191
310.346
310.505
310.66
310.803
310.923
311.01
311.056
311.056
311.01
310.923
310.803
310.66
310.505
310.346
310.191
310.051
309.948
303.335
303.37
303.417
303.468
303.522
303.574
303.622
303.662
303.691
303.706
303.706
303.691
303.662
303.622
303.574
303.522
303.468
303.417
303.37
303.335
349.898
350.444
351.14
351.895
352.668
353.424
354.118
354.702
355.126
355.349
355.349
355.126
354.702
354.118
353.424
352.668
351.895
351.14
350.444
349.898
343.306
343.769
344.369
345.022
345.691
346.345
346.946
347.45
347.816
348.009
348.009
347.816
347.45
346.946
346.345
345.691
345.022
344.369
343.769
343.306
336.689
337.073
337.579
338.13
338.696
339.249
339.756
340.182
340.491
340.654
340.654
340.491
340.182
339.756
339.249
338.696
338.13
337.579
337.073
336.689
330.052
330.361
330.773
331.224
331.686
332.138
332.552
332.9
333.153
333.286
333.286
333.153
332.9
332.552
332.138
331.686
331.224
330.773
330.361
330.052
323.397
323.634
323.954
324.305
324.664
325.015
325.337
325.607
325.803
325.907
325.907
325.803
325.607
325.337
325.015
324.664
324.305
323.954
323.634
323.397
316.73
316.898
317.125
317.376
317.633
317.883
318.113
318.306
318.446
318.519
318.519
318.446
318.306
318.113
317.883
317.633
317.376
317.125
316.898
316.73
310.053
310.153
310.29
310.44
310.594
310.745
310.883
310.998
311.082
311.127
311.127
311.082
310.998
310.883
310.745
310.594
310.44
310.29
310.153
310.053
303.37
303.404
303.45
303.5
303.552
303.602
303.648
303.687
303.715
303.73
303.73
303.715
303.687
303.648
303.602
303.552
303.5
303.45
303.404
303.37
350.595
351.125
351.798
352.525
353.269
353.993
354.657
355.213
355.617
355.829
355.829
355.617
355.213
354.657
353.993
353.269
352.525
351.798
351.125
350.595
343.91
344.359
344.939
345.569
346.213
346.839
347.413
347.894
348.243
348.426
348.426
348.243
347.894
347.413
346.839
346.213
345.569
344.939
344.359
343.91
337.2
337.573
338.062
338.594
339.138
339.668
340.152
340.559
340.853
341.008
341.008
340.853
340.559
340.152
339.668
339.138
338.594
338.062
337.573
337.2
330.47
330.77
331.168
331.603
332.048
332.481
332.877
333.209
333.449
333.576
333.576
333.449
333.209
332.877
332.481
332.048
331.603
331.168
330.77
330.47
323.723
323.953
324.262
324.6
324.946
325.282
325.59
325.848
326.034
326.133
326.133
326.034
325.848
325.59
325.282
324.946
324.6
324.262
323.953
323.723
316.962
317.125
317.345
317.587
317.834
318.074
318.294
318.478
318.611
318.681
318.681
318.611
318.478
318.294
318.074
317.834
317.587
317.345
317.125
316.962
310.192
310.29
310.422
310.567
310.715
310.859
310.991
311.102
311.182
311.224
311.224
311.182
311.102
310.991
310.859
310.715
310.567
310.422
310.29
310.192
303.417
303.45
303.494
303.543
303.592
303.641
303.685
303.722
303.749
303.763
303.763
303.749
303.722
303.685
303.641
303.592
303.543
303.494
303.45
303.417
351.471
351.981
352.626
353.322
354.031
354.719
355.346
355.871
356.251
356.451
356.451
356.251
355.871
355.346
354.719
354.031
353.322
352.626
351.981
351.471
344.669
345.101
345.658
346.26
346.874
347.469
348.012
348.466
348.794
348.967
348.967
348.794
348.466
348.012
347.469
346.874
346.26
345.658
345.101
344.669
337.843
338.201
338.67
339.179
339.698
340.201
340.66
341.043
341.32
341.466
341.466
341.32
341.043
340.66
340.201
339.698
339.179
338.67
338.201
337.843
330.995
331.284
331.666
332.082
332.506
332.918
333.293
333.606
333.832
333.951
333.951
333.832
333.606
333.293
332.918
332.506
332.082
331.666
331.284
330.995
324.131
324.353
324.649
324.973
325.303
325.622
325.914
326.157
326.333
326.425
326.425
326.333
326.157
325.914
325.622
325.303
324.973
324.649
324.353
324.131
317.254
317.411
317.622
317.853
318.089
318.317
318.525
318.699
318.825
318.891
318.891
318.825
318.699
318.525
318.317
318.089
317.853
317.622
317.411
317.254
310.368
310.461
310.588
310.727
310.868
311.005
311.13
311.235
311.31
311.35
311.35
311.31
311.235
311.13
311.005
310.868
310.727
310.588
310.461
310.368
303.476
303.507
303.55
303.596
303.644
303.69
303.732
303.766
303.792
303.805
303.805
303.792
303.766
303.732
303.69
303.644
303.596
303.55
303.507
303.476
352.527
353.015
353.63
354.291
354.96
355.608
356.196
356.687
357.04
357.226
357.226
357.04
356.687
356.196
355.608
354.96
354.291
353.63
353.015
352.527
345.585
345.998
346.528
347.1
347.68
348.24
348.75
349.174
349.48
349.64
349.64
349.48
349.174
348.75
348.24
347.68
347.1
346.528
345.998
345.585
338.617
338.96
339.407
339.89
340.381
340.854
341.285
341.643
341.902
342.037
342.037
341.902
341.643
341.285
340.854
340.381
339.89
339.407
338.96
338.617
331.629
331.905
332.27
332.665
333.066
333.453
333.805
334.098
334.309
334.419
334.419
334.309
334.098
333.805
333.453
333.066
332.665
332.27
331.905
331.629
324.625
324.836
325.119
325.426
325.738
326.039
326.312
326.54
326.704
326.79
326.79
326.704
326.54
326.312
326.039
325.738
325.426
325.119
324.836
324.625
317.607
317.756
317.958
318.177
318.4
318.615
318.81
318.973
319.09
319.151
319.151
319.09
318.973
318.81
318.615
318.4
318.177
317.958
317.756
317.607
310.58
310.669
310.79
310.922
311.055
311.184
311.302
311.399
311.47
311.506
311.506
311.47
311.399
311.302
311.184
311.055
310.922
310.79
310.669
310.58
303.547
303.577
303.617
303.662
303.706
303.75
303.789
303.822
303.845
303.858
303.858
303.845
303.822
303.789
303.75
303.706
303.662
303.617
303.577
303.547
353.767
354.23
354.813
355.435
356.064
356.668
357.215
357.67
357.996
358.167
358.167
357.996
357.67
357.215
356.668
356.064
355.435
354.813
354.23
353.767
346.659
347.052
347.554
348.093
348.637
349.16
349.634
350.027
350.31
350.458
350.458
350.31
350.027
349.634
349.16
348.637
348.093
347.554
347.052
346.659
339.527
339.852
340.275
340.731
341.191
341.634
342.034
342.366
342.605
342.73
342.73
342.605
342.366
342.034
341.634
341.191
340.731
340.275
339.852
339.527
332.373
332.635
332.98
333.353
333.729
334.091
334.418
334.69
334.885
334.987
334.987
334.885
334.69
334.418
334.091
333.729
333.353
332.98
332.635
332.373
325.203
325.404
325.672
325.962
326.254
326.536
326.79
327.001
327.153
327.232
327.232
327.153
327.001
326.79
326.536
326.254
325.962
325.672
325.404
325.203
318.02
318.163
318.354
318.56
318.769
318.97
319.152
319.303
319.411
319.468
319.468
319.411
319.303
319.152
318.97
318.769
318.56
318.354
318.163
318.02
310.828
310.913
311.027
311.152
311.277
311.398
311.507
311.597
311.662
311.697
311.697
311.662
311.597
311.507
311.398
311.277
311.152
311.027
310.913
310.828
303.63
303.659
303.697
303.739
303.781
303.821
303.858
303.888
303.91
303.921
303.921
303.91
303.888
303.858
303.821
303.781
303.739
303.697
303.659
303.63
355.193
355.631
356.179
356.762
357.347
357.907
358.412
358.83
359.13
359.286
359.286
359.13
358.83
358.412
357.907
357.347
356.762
356.179
355.631
355.193
347.895
348.266
348.738
349.243
349.75
350.235
350.673
351.034
351.293
351.429
351.429
351.293
351.034
350.673
350.235
349.75
349.243
348.738
348.266
347.895
340.573
340.88
341.278
341.705
342.134
342.544
342.914
343.22
343.439
343.553
343.553
343.439
343.22
342.914
342.544
342.134
341.705
341.278
340.88
340.573
333.229
333.477
333.801
334.15
334.501
334.837
335.139
335.389
335.568
335.661
335.661
335.568
335.389
335.139
334.837
334.501
334.15
333.801
333.477
333.229
325.869
326.059
326.311
326.582
326.855
327.116
327.351
327.545
327.685
327.757
327.757
327.685
327.545
327.351
327.116
326.855
326.582
326.311
326.059
325.869
318.496
318.631
318.81
319.004
319.199
319.385
319.553
319.692
319.791
319.843
319.843
319.791
319.692
319.553
319.385
319.199
319.004
318.81
318.631
318.496
311.114
311.194
311.302
311.418
311.535
311.647
311.748
311.831
311.891
311.922
311.922
311.891
311.831
311.748
311.647
311.535
311.418
311.302
311.194
311.114
303.726
303.753
303.789
303.828
303.867
303.905
303.939
303.966
303.986
303.997
303.997
303.986
303.966
303.939
303.905
303.867
303.828
303.789
303.753
303.726
356.808
357.219
357.732
358.275
358.817
359.333
359.796
360.178
360.45
360.593
360.593
360.45
360.178
359.796
359.333
358.817
358.275
357.732
357.219
356.808
349.295
349.643
350.085
350.555
351.025
351.472
351.873
352.204
352.44
352.563
352.563
352.44
352.204
351.873
351.472
351.025
350.555
350.085
349.643
349.295
341.757
342.046
342.419
342.816
343.213
343.591
343.931
344.21
344.409
344.514
344.514
344.409
344.21
343.931
343.591
343.213
342.816
342.419
342.046
341.757
334.199
334.431
334.735
335.06
335.385
335.694
335.972
336.2
336.363
336.448
336.448
336.363
336.2
335.972
335.694
335.385
335.06
334.735
334.431
334.199
326.623
326.802
327.037
327.29
327.543
327.783
327.999
328.177
328.304
328.37
328.37
328.304
328.177
327.999
327.783
327.543
327.29
327.037
326.802
326.623
319.035
319.161
319.329
319.51
319.69
319.862
320.016
320.143
320.234
320.281
320.281
320.234
320.143
320.016
319.862
319.69
319.51
319.329
319.161
319.035
311.438
311.513
311.614
311.722
311.831
311.934
312.026
312.103
312.157
312.185
312.185
312.157
312.103
312.026
311.934
311.831
311.722
311.614
311.513
311.438
303.835
303.86
303.894
303.93
303.966
304.001
304.032
304.057
304.076
304.085
304.085
304.076
304.057
304.032
304.001
303.966
303.93
303.894
303.86
303.835
358.614
358.999
359.476
359.979
360.478
360.951
361.374
361.72
361.967
362.096
362.096
361.967
361.72
361.374
360.951
360.478
359.979
359.476
358.999
358.614
350.861
351.186
351.598
352.033
352.466
352.876
353.242
353.542
353.755
353.867
353.867
353.755
353.542
353.242
352.876
352.466
352.033
351.598
351.186
350.861
343.082
343.352
343.699
344.067
344.433
344.78
345.089
345.343
345.524
345.618
345.618
345.524
345.343
345.089
344.78
344.433
344.067
343.699
343.352
343.082
335.283
335.5
335.783
336.084
336.383
336.667
336.92
337.128
337.276
337.353
337.353
337.276
337.128
336.92
336.667
336.383
336.084
335.783
335.5
335.283
327.467
327.634
327.853
328.087
328.32
328.541
328.738
328.899
329.014
329.074
329.074
329.014
328.899
328.738
328.541
328.32
328.087
327.853
327.634
327.467
319.638
319.756
319.912
320.08
320.246
320.404
320.544
320.66
320.742
320.785
320.785
320.742
320.66
320.544
320.404
320.246
320.08
319.912
319.756
319.638
311.8
311.87
311.964
312.064
312.164
312.259
312.344
312.413
312.462
312.488
312.488
312.462
312.413
312.344
312.259
312.164
312.064
311.964
311.87
311.8
303.956
303.98
304.011
304.045
304.078
304.11
304.138
304.161
304.178
304.187
304.187
304.178
304.161
304.138
304.11
304.078
304.045
304.011
303.98
303.956
360.614
360.972
361.415
361.878
362.336
362.768
363.151
363.464
363.687
363.802
363.802
363.687
363.464
363.151
362.768
362.336
361.878
361.415
360.972
360.614
352.594
352.897
353.279
353.68
354.077
354.451
354.783
355.055
355.247
355.347
355.347
355.247
355.055
354.783
354.451
354.077
353.68
353.279
352.897
352.594
344.549
344.8
345.122
345.461
345.797
346.114
346.395
346.624
346.787
346.872
346.872
346.787
346.624
346.395
346.114
345.797
345.461
345.122
344.8
344.549
336.483
336.685
336.948
337.225
337.5
337.759
337.989
338.177
338.31
338.379
338.379
338.31
338.177
337.989
337.759
337.5
337.225
336.948
336.685
336.483
328.401
328.556
328.759
328.975
329.189
329.39
329.569
329.715
329.819
329.873
329.873
329.819
329.715
329.569
329.39
329.189
328.975
328.759
328.556
328.401
320.305
320.415
320.56
320.714
320.867
321.011
321.139
321.243
321.317
321.356
321.356
321.317
321.243
321.139
321.011
320.867
320.714
320.56
320.415
320.305
312.201
312.266
312.353
312.446
312.537
312.624
312.701
312.763
312.808
312.831
312.831
312.808
312.763
312.701
312.624
312.537
312.446
312.353
312.266
312.201
304.09
304.112
304.141
304.172
304.203
304.232
304.258
304.279
304.294
304.302
304.302
304.294
304.279
304.258
304.232
304.203
304.172
304.141
304.112
304.09
362.809
363.141
363.549
363.975
364.394
364.786
365.133
365.415
365.614
365.718
365.718
365.614
365.415
365.133
364.786
364.394
363.975
363.549
363.141
362.809
354.496
354.777
355.13
355.498
355.861
356.201
356.502
356.746
356.919
357.009
357.009
356.919
356.746
356.502
356.201
355.861
355.498
355.13
354.777
354.496
346.159
346.392
346.689
347.001
347.308
347.595
347.85
348.056
348.203
348.279
348.279
348.203
348.056
347.85
347.595
347.308
347.001
346.689
346.392
346.159
337.8
337.988
338.23
338.485
338.736
338.972
339.18
339.349
339.469
339.531
339.531
339.469
339.349
339.18
338.972
338.736
338.485
338.23
337.988
337.8
329.425
329.569
329.757
329.956
330.151
330.334
330.496
330.628
330.721
330.769
330.769
330.721
330.628
330.496
330.334
330.151
329.956
329.757
329.569
329.425
321.038
321.139
321.273
321.415
321.555
321.686
321.801
321.895
321.962
321.996
321.996
321.962
321.895
321.801
321.686
321.555
321.415
321.273
321.139
321.038
312.64
312.701
312.782
312.867
312.951
313.029
313.099
313.155
313.195
313.216
313.216
313.195
313.155
313.099
313.029
312.951
312.867
312.782
312.701
312.64
304.238
304.258
304.285
304.314
304.342
304.368
304.391
304.41
304.424
304.431
304.431
304.424
304.41
304.391
304.368
304.342
304.314
304.285
304.258
304.238
365.198
365.506
365.882
366.271
366.652
367.008
367.32
367.574
367.752
367.845
367.845
367.752
367.574
367.32
367.008
366.652
366.271
365.882
365.506
365.198
356.567
356.827
357.151
357.489
357.819
358.127
358.398
358.618
358.773
358.853
358.853
358.773
358.618
358.398
358.127
357.819
357.489
357.151
356.827
356.567
347.911
348.126
348.4
348.686
348.965
349.226
349.455
349.641
349.772
349.84
349.84
349.772
349.641
349.455
349.226
348.965
348.686
348.4
348.126
347.911
339.234
339.408
339.631
339.864
340.093
340.306
340.494
340.646
340.753
340.809
340.809
340.753
340.646
340.494
340.306
340.093
339.864
339.631
339.408
339.234
330.541
330.674
330.847
331.029
331.207
331.373
331.519
331.637
331.72
331.764
331.764
331.72
331.637
331.519
331.373
331.207
331.029
330.847
330.674
330.541
321.835
321.929
322.052
322.182
322.309
322.428
322.532
322.617
322.676
322.707
322.707
322.676
322.617
322.532
322.428
322.309
322.182
322.052
321.929
321.835
313.119
313.175
313.249
313.327
313.404
313.475
313.538
313.588
313.624
313.643
313.643
313.624
313.588
313.538
313.475
313.404
313.327
313.249
313.175
313.119
304.398
304.417
304.442
304.468
304.494
304.518
304.539
304.556
304.568
304.574
304.574
304.568
304.556
304.539
304.518
304.494
304.468
304.442
304.417
304.398
367.78
368.063
368.408
368.764
369.11
369.431
369.713
369.94
370.099
370.182
370.182
370.099
369.94
369.713
369.431
369.11
368.764
368.408
368.063
367.78
358.803
359.043
359.341
359.649
359.95
360.228
360.472
360.668
360.807
360.878
360.878
360.807
360.668
360.472
360.228
359.95
359.649
359.341
359.043
358.803
349.803
350.002
350.253
350.513
350.767
351.003
351.21
351.376
351.493
351.554
351.554
351.493
351.376
351.21
351.003
350.767
350.513
350.253
350.002
349.803
340.782
340.942
341.146
341.36
341.568
341.761
341.93
342.066
342.162
342.211
342.211
342.162
342.066
341.93
341.761
341.568
341.36
341.146
340.942
340.782
331.744
331.867
332.026
332.192
332.354
332.504
332.635
332.741
332.816
332.855
332.855
332.816
332.741
332.635
332.504
332.354
332.192
332.026
331.867
331.744
322.695
322.781
322.895
323.013
323.129
323.236
323.33
323.406
323.459
323.487
323.487
323.459
323.406
323.33
323.236
323.129
323.013
322.895
322.781
322.695
313.636
313.687
313.755
313.827
313.896
313.961
314.017
314.063
314.095
314.111
314.111
314.095
314.063
314.017
313.961
313.896
313.827
313.755
313.687
313.636
304.571
304.589
304.612
304.635
304.659
304.68
304.699
304.714
304.725
304.731
304.731
304.725
304.714
304.699
304.68
304.659
304.635
304.612
304.589
304.571
370.542
370.803
371.119
371.444
371.757
372.047
372.3
372.503
372.645
372.719
372.719
372.645
372.503
372.3
372.047
371.757
371.444
371.119
370.803
370.542
361.195
361.415
361.688
361.969
362.242
362.493
362.712
362.888
363.012
363.075
363.075
363.012
362.888
362.712
362.493
362.242
361.969
361.688
361.415
361.195
351.824
352.007
352.237
352.475
352.705
352.918
353.104
353.253
353.357
353.411
353.411
353.357
353.253
353.104
352.918
352.705
352.475
352.237
352.007
351.824
342.434
342.582
342.769
342.964
343.152
343.327
343.478
343.601
343.686
343.73
343.73
343.686
343.601
343.478
343.327
343.152
342.964
342.769
342.582
342.434
333.029
333.142
333.288
333.439
333.586
333.721
333.84
333.935
334.001
334.036
334.036
334.001
333.935
333.84
333.721
333.586
333.439
333.288
333.142
333.029
323.612
323.692
323.796
323.904
324.009
324.106
324.19
324.258
324.306
324.33
324.33
324.306
324.258
324.19
324.106
324.009
323.904
323.796
323.692
323.612
314.187
314.234
314.296
314.361
314.424
314.483
314.533
314.574
314.603
314.618
314.618
314.603
314.574
314.533
314.483
314.424
314.361
314.296
314.234
314.187
304.756
304.772
304.793
304.815
304.836
304.855
304.872
304.886
304.896
304.9
304.9
304.896
304.886
304.872
304.855
304.836
304.815
304.793
304.772
304.756
373.455
373.695
373.984
374.28
374.565
374.826
375.053
375.235
375.362
375.427
375.427
375.362
375.235
375.053
374.826
374.565
374.28
373.984
373.695
373.455
363.712
363.915
364.165
364.421
364.668
364.895
365.091
365.249
365.359
365.416
365.416
365.359
365.249
365.091
364.895
364.668
364.421
364.165
363.915
363.712
353.949
354.117
354.327
354.544
354.753
354.945
355.112
355.246
355.339
355.387
355.387
355.339
355.246
355.112
354.945
354.753
354.544
354.327
354.117
353.949
344.169
344.304
344.476
344.653
344.824
344.982
345.118
345.227
345.304
345.343
345.343
345.304
345.227
345.118
344.982
344.824
344.653
344.476
344.304
344.169
334.376
334.48
334.613
334.751
334.884
335.007
335.113
335.198
335.257
335.288
335.288
335.257
335.198
335.113
335.007
334.884
334.751
334.613
334.48
334.376
324.573
324.646
324.741
324.84
324.935
325.023
325.099
325.16
325.202
325.224
325.224
325.202
325.16
325.099
325.023
324.935
324.84
324.741
324.646
324.573
314.763
314.807
314.864
314.923
314.98
315.033
315.079
315.115
315.141
315.154
315.154
315.141
315.115
315.079
315.033
314.98
314.923
314.864
314.807
314.763
304.949
304.964
304.983
305.003
305.022
305.04
305.055
305.067
305.076
305.08
305.08
305.076
305.067
305.055
305.04
305.022
305.003
304.983
304.964
304.949
376.443
376.664
376.929
377.199
377.457
377.694
377.898
378.061
378.175
378.233
378.233
378.175
378.061
377.898
377.694
377.457
377.199
376.929
376.664
376.443
366.282
366.469
366.698
366.932
367.156
367.361
367.539
367.68
367.779
367.83
367.83
367.779
367.68
367.539
367.361
367.156
366.932
366.698
366.469
366.282
356.109
356.264
356.457
356.655
356.845
357.019
357.169
357.289
357.373
357.416
357.416
357.373
357.289
357.169
357.019
356.845
356.655
356.457
356.264
356.109
345.926
346.05
346.208
346.37
346.526
346.668
346.791
346.89
346.958
346.994
346.994
346.958
346.89
346.791
346.668
346.526
346.37
346.208
346.05
345.926
335.736
335.832
335.954
336.08
336.201
336.312
336.408
336.485
336.538
336.565
336.565
336.538
336.485
336.408
336.312
336.201
336.08
335.954
335.832
335.736
325.541
325.609
325.696
325.786
325.873
325.952
326.021
326.076
326.114
326.133
326.133
326.114
326.076
326.021
325.952
325.873
325.786
325.696
325.609
325.541
315.343
315.384
315.436
315.49
315.542
315.59
315.631
315.664
315.687
315.699
315.699
315.687
315.664
315.631
315.59
315.542
315.49
315.436
315.384
315.343
305.143
305.157
305.174
305.193
305.21
305.226
305.24
305.251
305.259
305.263
305.263
305.259
305.251
305.24
305.226
305.21
305.193
305.174
305.157
305.143
379.314
379.518
379.763
380.01
380.247
380.462
380.648
380.795
380.898
380.951
380.951
380.898
380.795
380.648
380.462
380.247
380.01
379.763
379.518
379.314
368.722
368.894
369.106
369.321
369.527
369.714
369.875
370.003
370.093
370.139
370.139
370.093
370.003
369.875
369.714
369.527
369.321
369.106
368.894
368.722
358.137
358.28
358.459
358.641
358.815
358.974
359.111
359.22
359.296
359.335
359.335
359.296
359.22
359.111
358.974
358.815
358.641
358.459
358.28
358.137
347.56
347.676
347.822
347.971
348.114
348.244
348.357
348.446
348.508
348.54
348.54
348.508
348.446
348.357
348.244
348.114
347.971
347.822
347.676
347.56
336.992
337.081
337.194
337.31
337.422
337.523
337.611
337.68
337.729
337.754
337.754
337.729
337.68
337.611
337.523
337.422
337.31
337.194
337.081
336.992
326.43
326.493
326.574
326.657
326.737
326.81
326.872
326.922
326.957
326.974
326.974
326.957
326.922
326.872
326.81
326.737
326.657
326.574
326.493
326.43
315.874
315.911
315.96
316.01
316.058
316.102
316.139
316.169
316.19
316.201
316.201
316.19
316.169
316.139
316.102
316.058
316.01
315.96
315.911
315.874
305.321
305.333
305.35
305.366
305.382
305.397
305.41
305.42
305.427
305.43
305.43
305.427
305.42
305.41
305.397
305.382
305.366
305.35
305.333
305.321
381.561
381.753
381.983
382.216
382.437
382.638
382.81
382.947
383.043
383.091
383.091
383.043
382.947
382.81
382.638
382.437
382.216
381.983
381.753
381.561
370.559
370.722
370.921
371.124
371.317
371.492
371.642
371.762
371.845
371.888
371.888
371.845
371.762
371.642
371.492
371.317
371.124
370.921
370.722
370.559
359.617
359.753
359.922
360.094
360.258
360.407
360.535
360.637
360.708
360.744
360.744
360.708
360.637
360.535
360.407
360.258
360.094
359.922
359.753
359.617
348.725
348.834
348.972
349.113
349.248
349.371
349.476
349.56
349.618
349.647
349.647
349.618
349.56
349.476
349.371
349.248
349.113
348.972
348.834
348.725
337.87
337.954
338.061
338.171
338.277
338.372
338.454
338.52
338.565
338.588
338.588
338.565
338.52
338.454
338.372
338.277
338.171
338.061
337.954
337.87
327.043
327.103
327.18
327.258
327.334
327.402
327.461
327.508
327.54
327.557
327.557
327.54
327.508
327.461
327.402
327.334
327.258
327.18
327.103
327.043
316.236
316.272
316.318
316.366
316.411
316.452
316.488
316.516
316.535
316.545
316.545
316.535
316.516
316.488
316.452
316.411
316.366
316.318
316.272
316.236
305.441
305.453
305.469
305.485
305.5
305.514
305.526
305.535
305.542
305.545
305.545
305.542
305.535
305.526
305.514
305.5
305.485
305.469
305.453
305.441
)
;

boundaryField
{
    hotSide
    {
        type            fixedGradient;
        gradient        nonuniform List<scalar> 
400
(
513.901
515.748
519.446
525.01
532.454
541.802
553.076
566.304
581.513
598.731
617.984
639.298
662.695
688.197
715.821
745.582
777.495
811.569
847.812
886.232
521.447
523.234
526.816
532.208
539.434
548.521
559.503
572.413
587.286
604.159
623.064
644.031
667.09
692.264
719.575
749.039
780.672
814.485
850.485
888.68
529.614
531.329
534.771
539.961
546.928
555.71
566.349
578.889
593.376
609.853
628.362
648.941
671.622
696.434
723.401
752.543
783.874
817.407
853.15
891.108
538.266
539.898
543.177
548.132
554.8
563.232
573.48
585.602
599.654
615.691
633.763
653.915
676.186
700.609
727.21
756.01
787.026
820.268
855.745
893.461
547.161
548.7
551.797
556.488
562.824
570.867
580.685
592.349
605.93
621.494
639.1
658.802
680.644
704.662
730.887
759.339
790.035
822.986
858.198
895.674
555.928
557.367
560.269
564.68
570.663
578.297
587.664
598.853
611.948
627.026
644.16
663.408
684.821
708.44
734.295
762.408
792.795
825.467
860.426
897.676
564.066
565.405
568.113
572.245
577.88
585.11
594.036
604.763
617.388
632.003
648.687
667.508
688.521
711.768
737.282
765.086
795.193
827.612
862.346
899.393
570.973
572.222
574.755
578.637
583.959
590.83
599.366
609.686
621.9
636.112
652.408
670.863
691.534
714.468
739.695
767.24
797.114
829.325
863.873
900.755
576.028
577.208
579.606
583.297
588.382
594.98
603.222
613.236
625.143
639.054
655.064
673.248
693.67
716.374
741.394
768.752
798.459
830.52
864.936
901.701
578.706
579.849
582.174
585.761
590.717
597.168
605.25
615.099
626.842
640.592
656.448
674.49
694.779
717.362
742.273
769.532
799.152
831.135
865.482
902.186
578.706
579.849
582.174
585.761
590.717
597.168
605.25
615.099
626.842
640.592
656.448
674.49
694.779
717.362
742.273
769.532
799.152
831.135
865.482
902.186
576.028
577.208
579.606
583.297
588.382
594.98
603.222
613.236
625.143
639.054
655.064
673.248
693.67
716.374
741.394
768.752
798.459
830.52
864.936
901.701
570.973
572.222
574.755
578.637
583.959
590.83
599.366
609.686
621.9
636.112
652.408
670.863
691.534
714.468
739.695
767.24
797.114
829.325
863.873
900.755
564.066
565.405
568.113
572.245
577.88
585.11
594.036
604.763
617.388
632.003
648.687
667.508
688.521
711.768
737.282
765.086
795.193
827.612
862.346
899.393
555.928
557.367
560.269
564.68
570.663
578.297
587.664
598.853
611.948
627.026
644.16
663.408
684.821
708.44
734.295
762.408
792.795
825.467
860.426
897.676
547.161
548.7
551.797
556.488
562.824
570.867
580.685
592.349
605.93
621.494
639.1
658.802
680.644
704.662
730.887
759.339
790.035
822.986
858.198
895.674
538.266
539.898
543.177
548.132
554.8
563.232
573.48
585.602
599.654
615.691
633.763
653.915
676.186
700.609
727.21
756.01
787.026
820.268
855.745
893.461
529.614
531.329
534.771
539.961
546.928
555.71
566.349
578.889
593.376
609.853
628.362
648.941
671.622
696.434
723.401
752.543
783.874
817.407
853.15
891.108
521.447
523.234
526.816
532.208
539.434
548.521
559.503
572.413
587.286
604.159
623.064
644.031
667.09
692.264
719.575
749.039
780.672
814.485
850.485
888.68
513.901
515.748
519.446
525.01
532.454
541.802
553.076
566.304
581.513
598.731
617.984
639.298
662.695
688.197
715.821
745.582
777.495
811.569
847.812
886.232
)
;
    }
    coldSide
    {
        type            mixed;
        refValue        uniform 300;
        refGradient     uniform 0;
        valueFraction   uniform 0.991591;
        source          uniform 0;
        value           nonuniform List<scalar> 
400
(
300.028
300.028
300.028
300.028
300.029
300.029
300.03
300.031
300.031
300.032
300.033
300.034
300.036
300.037
300.038
300.04
300.042
300.043
300.045
300.046
300.028
300.028
300.028
300.029
300.029
300.029
300.03
300.031
300.032
300.032
300.033
300.035
300.036
300.037
300.039
300.04
300.042
300.043
300.045
300.046
300.028
300.029
300.029
300.029
300.029
300.03