/*--------------------------------*- C++ -*----------------------------------*\
| =========                 |                                                 |
| \\      /  F ield         | OpenFOAM: The Open Source CFD Toolbox           |
|  \\    /   O peration     | Version:  2212                                  |
|   \\  /    A nd           | Website:  www.openfoam.com                      |
|    \\/     M anipulation  |                                                 |
\*---------------------------------------------------------------------------*/
FoamFile
{
    version     2.0;
    format      ascii;
    arch        "LSB;label=32;scalar=64";
    class       volScalarField;
    location    "0";
    object      relativeErrorField;
}
// * * * * * * * * * * * * * * * * * * * * * * * * * * * * * * * * * * * * * //

dimensions      [0 0 0 1 0 0 0];

internalField   nonuniform List<scalar> 
3200
(
0.00219498
0.00506596
0.00505363
0.00805667
0.00958549
0.00869335
0.00659463
0.0074408
0.00384772
0.00549676
0.00256676
0.00450662
0.00316084
0.00787892
0.0070202
0.0070526
0.00147091
0.00392015
0.00355554
0.00325723
0.00463956
0.00478652
0.00616881
0.00285238
0.00701951
0.00720165
0.00630365
0.0059718
0.00361644
0.00405023
0.003748
0.00239167
0.00109157
0.00379911
0.00452606
0.00270799
0.00487175
0.00472532
0.000339783
0.00181401
0.0021151
0.000419493
0.004421
0.00396368
0.00769402
0.00606872
0.00402426
0.00622678
0.00605671
0.00356268
0.00611474
0.00417038
0.00360575
0.00253003
0.00014522
0.00139833
0.00187434
0.00199785
0.000222549
1.09156e-05
0.00140161
0.0033061
0.00449146
0.00515412
0.00285972
0.00232039
0.00656445
0.00346393
0.00231226
0.00392193
0.00412313
0.004458
0.00223093
0.00685151
0.00691147
0.0019994
0.00296935
0.00239957
0.00180785
0.00281431
0.00303361
0.00120195
0.00325858
0.00449023
0.00277498
0.00386762
0.00420695
0.00440406
0.00113174
0.0034472
0.000686398
0.00249622
0.00230196
1.71476e-05
0.00244158
0.00147612
0.00601056
0.000899257
0.00264091
0.00168494
0.00249065
0.00100484
0.000800025
0.00315717
0.0049814
0.0010985
0.00189293
0.00112602
0.00593623
0.00111258
0.000753177
0.0015754
0.00068652
0.00143752
0.00259786
0.00254863
0.00300088
0.00344368
0.000677583
0.000352142
0.00144785
0.000375367
0.00269657
0.00274393
0.00170009
5.44179e-05
0.00223057
0.00295493
0.00290791
0.00148983
0.00276312
0.00139889
0.00178563
0.00123711
0.000503644
0.000778049
0.00106693
0.000267435
0.00106221
0.00122108
0.00171231
0.00298532
0.000295832
0.00365899
2.15806e-05
0.000569732
0.00131024
0.000286844
0.00224301
0.00135885
0.00147404
0.00211441
0.0014388
0.00103629
0.000744982
0.00242891
0.00176301
2.18049e-05
0.000778155
0.000719742
0.00228508
0.00202445
0.00470414
0.00766163
0.00546183
0.0064039
0.00710677
0.00844317
0.00699102
0.00375656
0.00409081
0.00324693
0.000984356
0.00336649
0.00191909
0.00588546
0.00489228
0.00284488
0.00193151
0.00143675
0.00261175
0.000602144
0.00508798
0.000699387
0.00454175
0.000589101
0.00348569
0.00012101
0.00628284
0.000445373
0.000741905
0.00123567
6.94631e-05
0.00205714
0.000273662
0.00293523
0.000130863
0.000650443
1.75303e-05
0.000332771
0.00208416
0.00293304
0.00156222
0.00799151
0.00420532
0.00560516
0.00501608
0.00427966
0.00600744
0.00543053
0.00302739
0.00626267
0.00392088
0.00068716
0.000685053
0.00379307
0.00353946
0.00109682
0.000783621
0.000287221
0.000791253
0.000455818
0.00382224
0.00705353
0.00172146
0.00552205
0.00391244
0.00542572
0.00275375
0.00277785
0.00250615
0.00430411
0.00252867
0.00294879
0.00421767
0.00309604
0.00161624
0.00149941
0.00117173
0.00120731
4.10249e-05
0.00574325
0.00456658
0.000543883
0.00176802
0.00597471
0.000459426
0.00172276
0.00126436
0.00295902
0.00268898
0.00208776
0.00434328
0.00439576
0.00464931
0.002313
0.00202657
0.000387491
0.00272043
0.000232737
0.00345561
0.00424374
0.000224951
0.00442154
0.00223791
0.00407195
0.00277918
0.00408491
0.000186307
0.00150435
0.000503458
0.00199002
8.23154e-05
0.00204612
0.000770132
0.00117122
0.000195119
0.000629932
0.00179974
0.00146665
0.000561622
0.00201155
0.00343485
5.22663e-05
0.00109473
0.00127603
0.00182618
0.00262406
0.00493051
0.000832925
0.00218374
0.00142085
0.001531
0.00487191
0.0010712
0.000940065
0.0047644
0.00278228
0.000636139
0.000483344
0.000391195
0.00257061
0.000932186
0.0013342
0.000847855
0.00498092
0.0022649
0.00188096
0.00032546
0.00225348
0.000591933
0.000315098
0.000241883
0.00264782
0.00129685
0.00024768
0.000454479
0.00067901
0.000256786
0.000198719
0.000990162
0.00464077
0.00216999
0.00704278
0.00618435
0.00511189
0.00843667
0.00169792
0.00359698
0.00302865
0.00498413
0.00309417
0.00379464
0.00596612
0.00617792
0.0020266
0.00110339
0.00138156
0.00362018
0.000177632
0.00523807
0.00218893
0.00413585
0.0036562
0.00426209
0.00741711
0.00418964
0.00583639
0.00529691
0.00162994
0.00248754
0.00138173
0.0032744
0.0010078
0.00139743
0.00536115
0.000121048
0.000371892
0.00178311
0.00784943
4.63464e-05
0.00385142
0.00676792
0.00503723
0.00596955
0.00673948
0.00497953
0.0047241
0.00777073
0.0017103
0.00119452
0.00323147
0.000704359
0.0056504
0.00315003
0.00387288
0.00120836
0.00556098
0.000959213
0.00120137
0.00128276
0.00141583
0.00357296
0.0037567
0.00128637
0.00469333
0.000325022
0.00150482
0.000864014
0.000280501
0.00187401
0.00356402
0.00326916
0.00166596
0.00467178
0.00108746
0.00391274
0.0013992
0.00122377
0.00497703
0.0018213
0.000883937
0.00208946
0.00458198
0.00251027
0.00190445
0.000771075
0.000764064
0.000559381
0.00265872
0.00066211
0.00215007
0.000383771
0.000470812
0.00442503
0.00262046
3.76881e-05
0.000213802
0.00309234
0.000111331
0.00115074
0.00136301
0.00221712
0.00249839
0.00107955
0.00226586
0.000165107
0.00215271
0.00148082
0.000981895
0.000939162
0.00236337
2.98572e-05
0.00148822
0.000719487
0.00375003
0.00280502
0.000520617
0.0014349
0.00359506
0.000538113
0.00212235
0.00341607
0.00225593
0.000245311
0.00107683
0.00366612
0.00197894
0.00245263
0.000409285
0.00251179
0.00160473
0.00385201
0.00256421
0.000421999
0.00150864
0.000273749
7.32376e-05
0.000247409
0.000963628
0.00249656
0.000781941
0.00191675
0.00437694
0.00311762
6.48087e-05
0.000591833
0.000492715
0.00297983
0.000113474
0.00128366
0.0023944
0.000925582
0.00346886
0.00186962
0.00182921
0.00194049
4.97159e-05
0.000921093
0.00258982
0.00155419
0.00427954
0.00727413
0.00380721
0.00458669
0.0066971
0.00276216
0.00233418
0.0026346
0.0015123
0.00180098
0.000949934
6.01226e-05
0.00204324
0.00264992
0.00100651
0.000110247
0.0026081
0.00144289
0.00154113
0.0034116
0.000579172
0.00450312
0.000785655
0.00679222
0.000336068
0.00227171
0.000910852
0.00101418
0.00187775
0.000254032
0.00163042
0.000462496
0.00104625
0.000389655
0.00116766
0.000978343
0.00232623
0.000645133
0.000475875
0.00266234
0.00107904
0.00638991
0.00371212
0.0049624
0.00371035
0.00583226
0.00228078
0.00322636
0.00376027
0.00308444
0.00314519
0.00258686
0.00123201
0.00113019
0.0007421
0.00413046
1.37927e-05
0.00155285
0.00343622
0.00072594
0.00312154
0.00284708
0.00425347
0.00688465
0.002893
0.00516187
0.00210274
0.00029117
0.000587009
0.00144482
0.00539034
0.000248831
0.00037434
0.00366267
0.00223002
0.00121372
0.00106497
0.000780316
0.0036372
0.00205186
0.000483929
0.00226153
0.00475319
0.00161037
0.00432861
0.00238447
0.00141714
0.00282534
0.00110224
0.00142126
0.00140491
0.000148982
0.00126367
0.00111927
0.00131696
0.000241047
0.00287524
0.00131749
0.000413014
0.00104447
0.000206343
0.000555521
0.00727831
0.00321084
0.00278957
0.00358864
0.000534045
0.00181601
0.00185168
0.00102351
0.000906076
0.00274881
0.00100944
0.00269962
0.00360798
7.18633e-05
0.00200821
0.000240646
0.000358401
0.000514337
0.000332943
0.00242344
0.000595407
0.000433767
0.00360746
0.000544226
0.00079677
0.00194331
0.00151134
0.000699927
0.00278297
0.00034015
0.00122998
0.000840866
0.000556266
0.00105805
0.00145561
0.000850757
0.00170174
0.000208478
0.000894467
0.00156413
8.47786e-05
0.00228909
0.0024068
0.00138299
0.00385477
0.00181717
0.000521848
0.00265557
0.000947357
0.00353506
0.0024217
0.00118159
0.00361297
0.0022133
0.000709396
0.000712184
0.00266792
0.00177781
0.00333671
0.00185188
0.00448634
0.00323347
0.00428368
0.000103243
0.00290036
0.00198672
0.00208491
0.000102364
1.99977e-05
0.0021059
0.00248964
0.0017315
0.000852359
0.00277762
0.000563378
0.000510335
0.00234373
0.000504585
0.00471372
0.00509679
0.00228908
0.00335455
0.00268279
0.0024168
0.000311248
0.00297629
0.00169098
7.69971e-05
0.00205322
0.00110645
0.00107648
0.00087877
0.00118365
0.00401334
0.00222008
0.00112604
0.00163233
0.00115105
0.00225655
0.000447377
0.00542397
0.00356715
0.00432848
0.00322474
0.000155105
0.00380987
0.00183616
0.00284018
0.0011315
0.00241409
0.000250286
0.00174248
0.00277875
0.00262457
0.00324901
0.00107719
0.00337383
0.00195169
0.00141753
0.00336786
0.00500795
0.000390099
0.00491961
0.00057978
0.00149869
0.000224412
0.00369113
0.00113276
2.6573e-05
0.00107125
0.00190986
0.00151465
0.00283243
0.00208851
0.000156798
0.000633826
0.00117023
0.0025944
1.35434e-05
0.00147278
0.00316611
0.00084491
0.00109307
0.004673
4.98665e-05
0.00184545
0.00255708
0.000328693
0.00290234
0.000611194
0.000368621
0.000395745
0.000759506
2.92798e-05
0.00100031
0.000601043
0.00034286
0.00109886
0.0014895
0.00281322
0.00162419
0.001176
0.00472999
0.000277746
0.00231523
0.000421142
7.74672e-05
0.000187773
9.54132e-05
0.00172103
0.00210074
0.000990419
0.000146236
0.00185609
0.00153986
0.00094679
0.000752237
0.00163816
0.00148825
0.000566963
0.000497943
0.003043
0.0020644
0.000152445
0.00194807
0.00228847
0.00271328
0.00321675
0.00387772
0.00138564
0.00293458
0.00148695
0.000128674
0.0030873
0.000137089
0.000342706
0.00168189
0.000729452
0.00189129
0.00065747
0.00262822
0.00256276
0.00109868
0.000223451
0.00310692
0.000524512
0.000419018
0.00118603
0.00163174
0.00373206
0.0028771
0.00136841
0.00142344
0.000926803
3.94885e-05
0.00166934
0.00167926
0.000604058
0.00298629
0.00330962
0.00130492
0.002952
0.000532167
0.00108437
0.00048677
3.36788e-05
0.00367666
1.84165e-05
0.00202255
0.000558558
8.63228e-06
0.00428282
0.0011032
0.0034966
0.00187989
0.00456012
0.000304005
0.00388788
0.000262837
0.00140136
0.000742221
0.00317649
0.000500643
0.00303781
0.00042152
0.00101137
0.000323991
0.000178323
0.00184708
0.000467514
0.000178724
0.000624331
0.00312713
0.00124646
5.65705e-05
0.000116208
0.00307754
0.00484746
0.00145532
0.000683112
0.00326988
0.00283097
0.00315935
0.00375748
0.00117961
0.00208443
0.000310374
0.00100926
0.00153729
0.00166984
0.000763855
0.00013939
0.00171846
0.00314398
0.00130112
0.000621897
0.00464637
0.00052716
0.000582403
0.00103385
0.00167438
0.00154404
0.00118315
0.00257977
0.000512869
0.000900025
0.00127217
0.000356493
0.000931933
0.00289123
0.000542801
0.00158042
0.00227006
0.00164009
0.00362794
0.00127999
3.14798e-05
0.000521629
0.00301638
0.00631778
0.00306272
0.00340606
0.00247135
0.00234973
0.000483695
0.00058426
0.000445793
0.00239064
0.00220983
0.00125406
0.00206302
0.000424335
0.00267318
0.0025525
0.000553836
0.00138014
0.000941584
0.00253053
0.000211676
0.000539186
0.00468214
0.00582114
0.00250444
0.00203819
0.000753346
0.000999311
0.00110245
0.00213711
0.00116887
0.00291507
0.00104311
0.00117735
0.00265765
0.000712912
0.00111684
4.20261e-05
0.00319575
0.00156838
0.000344541
0.000238879
0.00146715
0.000692846
0.00393779
0.00133262
0.000235122
0.00184709
0.00269343
0.000152737
0.00241667
0.00204185
0.000922792
0.00194096
0.000435126
0.00349819
0.000291398
0.00254887
0.000148061
0.00280694
0.000242167
0.000782148
3.94392e-05
0.00450297
0.0011392
0.000384551
0.00288765
0.00146085
0.00143642
0.000349991
0.000792825
0.00349889
0.000750553
0.00394302
0.00273919
0.00085597
0.00280844
0.000729736
0.0003913
0.000166804
0.00298837
0.00307846
0.00353594
0.000532008
0.00221673
0.00433743
0.000308456
0.0017
0.00038804
0.00266838
0.00130901
0.0012589
0.000323316
0.000596097
0.000690799
0.00187628
0.00108635
0.00297915
0.0034638
0.000928247
0.000262955
0.000165513
0.00194365
0.00186944
0.00447428
0.000230294
0.00138884
0.00230726
0.000410816
0.00317535
0.00162527
0.00203717
0.00167902
0.00126293
0.00308496
0.00154186
0.0004513
0.000783016
0.00584917
0.000761482
0.00413189
0.000600059
0.000518358
0.00194374
0.0033895
0.00307678
0.000314592
8.8463e-05
0.000864362
0.00170453
0.00194811
0.000547656
0.00241865
0.00225984
0.000104439
0.00148125
0.00158679
0.00298092
0.00110351
0.00145974
0.00179892
0.000467097
0.000292173
0.00227339
0.000205718
0.000913498
0.00329099
0.00149731
0.000807449
6.1335e-05
5.23442e-05
0.00320954
0.00468139
0.0022836
0.00019831
0.00152628
0.00119488
0.000919035
0.0034198
0.00307074
0.00126121
0.00038468
0.00347173
0.00118383
0.00176236
0.00020815
0.000187671
0.002502
0.00150251
0.000434765
0.000400971
0.00224319
0.00398655
0.00167577
0.00226326
0.00248798
0.00325454
0.0045871
0.000895278
0.000934452
0.00483248
0.00025541
0.00125867
0.000293512
0.00337122
0.00117345
0.00029153
0.00175191
0.000268921
0.00189204
0.00220231
0.00116065
0.00153284
0.00328087
0.00269729
0.00344064
0.00233066
0.000652254
0.000719736
0.000861546
0.000699337
0.00426329
0.00111643
0.00159854
0.000590684
0.00130017
0.000592759
5.98881e-05
6.71208e-05
0.000485306
0.00293054
0.000886867
0.00106016
0.000480257
9.5674e-05
0.003387
0.00016391
0.00103156
0.00440084
0.00195134
0.00154935
0.0009851
0.00302292
0.00070384
0.000657496
0.00140846
0.00361063
0.000456359
0.00103042
0.00225899
0.00280173
0.000652862
0.000500979
0.00266517
0.00190117
0.00282428
0.000350111
0.00234894
0.000212429
0.00100884
0.00282221
0.00262922
0.000628078
0.00277922
0.000679464
0.00381895
0.004302
0.00195491
0.00638685
0.00233403
0.000383376
0.00311585
0.000292996
0.00168362
3.09452e-06
0.00182527
0.000897975
0.00176641
0.00428176
0.00356224
0.000155369
1.05328e-05
0.00108912
0.00147836
0.000448847
0.000756908
6.17663e-05
0.00120065
0.000376334
0.00121627
0.0016177
0.000197181
0.00011987
0.0013401
0.00102436
6.43381e-05
0.00125897
0.000474054
0.006348
0.00380348
0.000791024
0.00189786
0.00193521
0.000990345
0.000651948
0.000161085
0.00176201
0.000213039
0.00290778
0.00233677
0.000436449
0.000157294
0.00457171
0.000478679
0.00177943
0.00236822
0.000147138
0.00249399
0.00633245
0.00394816
0.000405072
7.48455e-05
0.00510057
0.000749792
5.12926e-05
0.000152796
0.000824204
0.000381495
0.00104118
0.000831322
0.00073638
0.00194841
0.00162918
0.00149845
0.00283398
0.00265032
0.000637221
0.00181411
0.00435614
0.00181762
0.00360175
0.00236146
0.000360802
0.00117094
0.00240185
0.00296369
0.00180937
0.000991123
0.000996123
0.0016448
0.000981159
0.00159303
0.000262468
6.21247e-05
7.53885e-05
0.00165585
0.00120488
0.00583611
0.00141034
0.00159545
0.00199936
0.00323017
0.000868383
0.0011858
0.00228649
0.00109257
0.00215653
0.000691593
0.00159508
0.00112341
0.00118493
0.000659376
0.00617165
0.000970881
0.00261277
0.00237561
6.46629e-05
0.00205017
0.000853498
0.000304672
0.00311907
0.000274643
0.00159501
0.00287313
0.000816322
0.00068385
0.00174634
0.00175136
0.00419985
0.000863212
0.00305322
0.000936985
0.000809363
0.0028557
0.000367484
0.00187065
0.000350607
0.00193638
0.000539038
0.000607119
0.00216159
0.00265364
0.00142923
0.00253269
0.00361842
0.000171763
0.00101863
0.00433514
1.92228e-05
0.000935701
1.74812e-05
0.00104619
0.00365383
4.97394e-05
3.45046e-05
0.0018787
0.00237649
0.00153432
0.00262311
0.00119287
0.00267482
0.0016669
0.000562411
6.61459e-05
0.00323164
0.00142198
0.000553387
0.00189047
0.00243933
0.004054
0.00318558
0.00510953
0.00415903
0.00150475
0.00155117
0.000839513
0.0017141
0.00325658
0.00609954
0.00485499
2.93539e-05
0.00100085
0.000882121
0.000496775
0.00277402
0.00237301
0.000274503
0.00411713
0.000445808
0.00304004
0.00164735
0.00680443
0.00054521
0.000743406
0.00256565
0.000921353
0.00129896
0.00177874
0.00366027
0.00324406
0.00274592
0.000188018
6.10721e-05
0.000864904
0.000961139
0.000965638
0.00484101
0.00137845
0.00691425
0.00033529
0.00165288
0.000600132
0.00593252
0.000372859
0.00226785
0.00440944
0.000573683
0.000649526
0.0041438
0.00397376
0.000451988
0.00504604
0.000464425
0.00118073
0.0011335
5.0434e-05
0.000715474
0.000471564
0.00271194
0.00201029
0.000628403
0.00134869
0.00143797
0.00156386
0.00135668
0.000287039
0.00178644
0.00179049
0.00325952
0.00137483
0.00136577
0.00278076
0.000127972
0.00114276
0.00114234
0.00145204
0.00144283
0.000684944
0.000944243
0.00299982
0.0014651
0.00306736
0.00515217
0.00197205
0.00289486
0.00325073
0.000707815
0.00157866
0.00151047
0.0016134
0.003839
0.00239253
0.000719287
0.000388135
0.000756085
0.000572712
0.00232519
0.00173429
0.000466331
0.000100846
0.00270858
0.0054942
0.000998113
0.00229211
0.00590439
0.000303382
0.00101674
0.000707125
0.0032288
0.00341644
0.00228718
0.000518265
0.00039795
0.0014038
0.00103671
0.000398857
0.00306976
0.00347443
1.68579e-05
0.000165414
0.000310434
0.000962042
0.00194343
0.00360518
0.000220609
0.00102146
0.00183204
0.00231167
0.000701392
0.000478522
0.00121559
0.00193175
0.00287273
0.000861133
0.000118846
0.000307147
0.000223607
0.00115324
0.00313859
0.00320153
0.00131821
6.11956e-05
0.000543233
0.00124189
0.000989342
0.00334076
0.00226526
0.00283078
0.00393305
0.00553118
0.00587144
0.00322565
0.000508411
0.00215934
0.000202432
0.00259666
0.00399933
0.000201581
0.00207152
0.00463069
0.00276679
0.000570521
0.00239883
0.00173375
0.00213886
0.000259188
0.00376695
0.00201442
0.00421392
0.00567823
0.00111884
0.00203791
0.000438057
0.00252921
0.000231821
0.000437877
0.00115194
0.000843225
0.000388174
0.000429704
0.00296907
0.000168731
0.00477482
0.00110078
0.00183987
0.000443383
0.00462176
0.000298092
0.00271736
0.00372204
0.00479809
0.00112955
0.000771373
0.00283832
0.000241275
0.00193003
0.00401042
0.0011421
0.00648916
0.00351448
0.00205961
0.00416098
0.000424347
0.00086534
0.00132847
0.000182746
0.000135362
0.00326898
0.000866216
0.00362574
0.00241301
0.000208615
0.00170989
2.28838e-05
0.000931018
0.000605268
0.00209526
0.00454148
0.000845058
0.00156056
0.0043208
0.00356709
0.000890585
0.00116613
0.00217309
0.0008805
0.00131916
0.00289885
0.00414411
0.00440527
0.000157856
0.00268071
0.0024672
0.00121286
0.000331882
0.00355493
0.00125661
0.00219797
0.00445136
0.00612848
0.00526671
0.00395507
0.00376156
0.00254982
0.00147451
0.00266393
0.00210568
0.000626539
0.00439524
3.00073e-05
0.0011565
0.00052536
0.000568772
0.00194929
0.0034312
0.00160284
0.00112026
0.000214851
0.002554
0.00145286
0.00297225
0.000142383
0.00113302
0.000427872
0.00201832
0.00134965
0.00311505
0.00362332
0.00261984
0.00580333
0.00103111
0.000857459
0.00173096
0.000466292
0.0027467
0.00254699
0.0014265
0.000895106
0.00148559
0.00380352
1.62115e-05
0.0012408
0.00137427
0.00189991
0.00269677
0.0001208
0.00131266
0.000405791
0.00202777
0.000691426
0.00163003
0.00527107
0.0010817
0.00190063
0.0030855
0.00064986
0.00241464
0.0013669
6.5604e-05
0.00121637
0.00295266
0.00108232
0.0051598
0.00176428
0.000452507
0.00221335
0.00180274
0.000977319
0.00350448
0.00490897
0.000210481
0.000354666
0.00165187
0.00127314
0.00452588
0.000534572
0.000486863
0.00511909
0.00399238
0.0037098
0.00363268
0.00537915
0.00236237
0.000924126
0.00383549
0.000873671
0.00127259
0.00383384
0.00197232
0.00190561
0.00116552
0.00199464
0.00021565
0.000319488
6.02282e-05
0.00162469
0.000234195
0.000555418
0.000813021
1.14624e-05
0.00202953
0.000610682
0.000569235
0.000809038
0.000873864
0.000561326
0.000213846
0.00165072
0.00738484
0.0034782
0.00295918
0.000275596
0.00205264
9.79395e-05
0.00243874
0.00273254
0.00196577
0.000838711
0.00249926
0.00318206
0.00324149
0.00337048
0.00275263
0.000999276
0.00137776
0.000365599
0.00253704
0.00251147
0.00309365
0.0048906
0.000692786
0.000292815
0.00246376
0.00235636
0.00208602
0.00351387
0.00162979
0.00178171
0.00228536
0.00562985
0.000819388
0.00138937
0.00337271
0.00208861
0.00203746
2.28087e-05
0.00265484
0.00267882
0.00389158
0.00332957
0.00280441
0.000942386
0.000331762
0.000571002
0.00200682
0.00207923
0.00354765
0.00260278
0.00249352
0.000121831
0.0030337
0.00327157
0.00300749
0.00192195
0.00318009
0.00103219
0.00388042
0.0033078
0.0050003
0.00109407
0.00345836
0.000343894
0.0028749
0.000458246
0.00145153
0.000282263
0.00166129
0.00248282
8.96146e-05
0.00123426
0.00266542
0.00163888
0.00175264
0.000847854
0.00260272
0.00077742
0.000463174
0.000662724
0.00244615
0.00171781
0.00396348
0.000353961
0.00039707
0.000192047
0.00307319
0.000829805
0.00358004
0.00413061
0.00332666
0.00118011
0.000191406
0.00093145
0.00178783
0.000460195
0.00150699
0.00319576
0.00137982
0.0029399
0.000769729
0.00107895
0.000529041
0.00283305
0.00156208
0.00122658
0.00329228
0.00139738
0.00120263
0.000161934
0.0040702
0.000477797
0.00107121
0.00237269
0.00365203
0.00222118
3.67771e-05
0.00172089
0.00199176
0.00412934
6.22706e-05
0.00195888
0.00320234
0.000313489
0.00123191
0.000526205
0.000149598
0.00178509
0.00288997
0.00273089
0.0047052
0.00420351
0.00514128
0.00207848
0.000971406
0.000467136
0.00207021
0.00382675
0.000268918
0.00151138
0.00064582
0.00663452
0.00641459
0.00202642
0.00216897
5.01822e-05
7.23752e-05
0.00100703
0.00425845
0.000319307
0.00238891
0.00400139
0.00555289
0.000749582
0.00094834
0.00177322
0.00370379
0.00160235
0.0019235
0.00433084
0.00605324
0.00488565
0.00345729
0.00122143
0.00212714
0.00150784
0.00187317
0.00318118
0.00248665
0.00118823
0.00330305
0.00299442
0.00141144
1.31425e-05
0.00213925
0.00061087
0.00351491
0.00188882
0.00361135
0.00234444
0.00480196
0.00675206
0.00212201
0.00529891
0.00148255
0.00191952
0.0035411
0.00153954
0.00403462
0.00490618
0.00111447
0.00212549
0.002203
0.00112716
0.000824697
0.00353566
0.000241877
0.000824418
0.000113133
0.00169208
0.00330316
0.00548565
0.00486865
0.0044187
0.00407146
0.00130655
0.00232757
0.00334702
0.0038615
0.000595297
0.000483619
0.000264056
0.000849226
0.00292791
0.00137073
0.000834321
0.00179574
0.00249531
0.00214864
0.00289591
0.00274124
0.00280101
0.00101459
0.000566842
0.00197546
0.000769516
0.00266165
0.00244876
0.00269779
0.00172601
0.00403602
0.00263386
0.00349816
0.00571971
0.00334116
0.0013586
0.000236245
2.7344e-05
0.000299752
0.00289629
0.00254249
0.000762281
0.00157635
0.00146341
9.28925e-05
0.00312332
0.000207775
0.00058657
0.000268221
0.00173721
0.00180189
0.000631614
0.00166098
0.0010551
0.00136182
0.000135584
0.00016052
0.00118014
0.000484915
0.00273925
0.00138371
0.000327534
0.000424417
0.00304661
0.00179658
0.00146898
0.00170748
0.000941661
0.000245953
0.00590515
0.000369395
0.000435694
0.00199461
0.00172644
0.0026062
0.00148963
0.0013147
0.000575194
0.00127244
0.00190906
0.00087409
0.00560266
0.00471857
0.000758333
0.000894231
0.00451946
0.00273316
0.000912842
0.00327251
0.00435968
0.00488026
0.00544217
0.0036609
0.00530454
0.00199157
0.00136894
0.000969233
0.000959761
0.000726661
0.00386162
0.00417305
0.00649428
0.000645139
0.00410112
0.000195883
0.00303306
0.00106393
0.00118518
0.00027302
0.00273778
0.000724641
0.000324538
0.00254932
8.6126e-05
0.000667562
0.00100239
0.00330097
0.00109312
0.00171095
0.000118655
0.00102592
0.00377921
0.00289288
0.000660114
0.00429747
0.00244524
0.00488996
0.00284733
0.00324722
0.00168607
0.00271681
0.000705171
0.000894269
0.0026307
0.000643692
0.00334991
0.00104035
0.00238118
0.00157557
0.00271314
0.00474993
0.00447499
0.00456006
0.00426546
0.00377248
0.000566108
0.00229423
0.00331521
0.00249582
0.00172418
0.000404127
0.00345172
0.00252112
0.00225922
0.00575838
0.000495591
0.000797635
0.00189494
0.00631241
0.00414253
0.00166264
0.00348453
0.000646288
0.00501065
0.00024729
0.0013747
0.00183811
0.00171849
0.00148007
0.00221408
0.000502174
0.00116893
0.000866214
0.00139177
0.00182124
0.0018407
0.00272432
0.000679167
0.00223166
0.00131417
0.00375932
0.00470979
0.00153886
0.0048747
0.000490667
0.00150706
0.000737096
0.00500185
7.14481e-05
0.000261014
0.00374176
0.000583595
0.00290873
0.00148979
0.00315109
0.00219197
0.00246105
0.00233515
0.00325816
0.00292784
0.00360569
0.0010713
0.000459457
0.000147758
0.000774733
0.000114284
0.00470784
2.78777e-05
4.18725e-06
0.00155806
0.000110596
0.00228502
0.00284621
0.00131694
0.000807426
0.00124336
0.00274817
0.00367557
0.00217144
0.00251728
0.00129442
0.000589015
8.77969e-05
4.75564e-05
0.00254764
0.00129571
0.000816942
0.00101275
0.00173121
0.000128753
0.000722221
0.000886633
0.00108355
0.000496839
0.000585938
2.08188e-06
0.0034065
4.17841e-05
0.00127625
0.00317859
0.00140876
0.00814746
0.00230902
0.00124368
0.00259327
0.000535745
0.0021579
0.0017231
0.00142551
0.00275284
0.000457301
0.00203363
0.000144165
0.000621775
0.00264579
0.000801963
0.00121705
0.00032204
0.00140691
0.00102863
0.00106436
0.00358626
0.00126893
0.00218406
0.0014032
0.0013532
0.00274147
0.000755726
0.00502215
0.00143483
0.00238392
0.00340754
0.000699525
0.00176547
7.75607e-05
0.00414581
0.00102605
0.000481151
0.00362189
0.00404451
0.00539816
0.0024679
0.00181329
0.00276732
0.00118562
0.00133822
0.000861712
0.000215978
0.00123843
0.0012138
0.00320777
0.00199862
0.00222839
0.000846388
0.0001433
9.76527e-05
0.00234051
0.00135025
0.000158338
0.00262381
0.000619996
0.00379548
0.00156876
0.00248981
0.000662648
0.0031091
0.00145307
0.000671036
0.00153419
0.000681975
0.00261964
0.000284472
0.00316638
0.000772895
0.000957004
0.000781002
0.000128214
0.00302804
0.000406163
0.00298713
0.00379055
0.00494297
0.00116618
0.00387075
0.00216672
0.00333568
0.000659672
0.000197779
0.000348817
0.000172744
0.00105038
0.00196729
0.00300178
0.000365961
0.00191089
0.000345588
0.000547536
0.000608258
0.000201031
0.00063789
0.00344964
0.000513857
0.00362481
0.00484601
0.00122341
9.43219e-05
0.00170984
0.00375235
0.00244882
0.0037866
0.000308591
0.00369467
1.57015e-05
0.00210632
4.30546e-05
0.000311462
0.000912513
0.000125865
0.00131707
0.000896047
0.00058357
8.41342e-05
0.000982023
0.00101119
0.00207008
0.000356449
0.001363
0.00149843
0.00156271
0.00313554
0.000261119
0.00235768
0.00189432
0.00273087
0.00136351
0.0014266
0.000398732
0.00105096
0.000184945
0.00070429
0.00011064
0.00038332
0.00160052
0.00144663
0.00386435
0.000375995
0.0018479
0.000646358
0.00154856
1.54974e-05
0.000926298
0.000293661
0.00090184
0.00376433
0.00347711
0.00138411
0.00161095
0.00274783
0.00186635
0.000838245
0.00062062
0.0086301
0.00374434
0.00180847
0.00168571
0.00340972
0.00237518
0.000796422
0.000799733
0.000163859
0.00148695
0.00224342
0.00290478
0.00139248
0.00121295
0.00345325
0.0013121
0.000583331
0.000114394
0.000610801
0.00406268
0.00167128
0.000742249
0.000564186
0.000204315
0.00142725
0.000658159
0.00122401
0.000622752
0.0047127
0.000236694
0.00069594
0.0023432
0.000226464
0.000211011
0.00162267
0.0014253
0.000429862
8.69136e-05
0.000448948
0.00335378
0.0014356
0.0046065
0.00251611
0.000624806
0.000262099
0.000136731
0.000970511
0.00353876
0.00335253
0.00114853
0.00370047
0.00224996
0.00127005
0.00290532
0.00160438
0.00120017
0.000562437
0.00230964
0.00189499
0.00313967
0.00616134
0.00471672
0.00350504
0.000131048
0.0021951
0.00163406
0.00126206
0.000238626
0.000248411
0.00191619
0.00219207
0.00128705
0.00170134
0.00256801
0.00141018
0.00297678
0.000251779
0.00282552
0.000786531
0.00530632
0.00153278
0.000514338
0.00457942
0.000750899
0.00239317
0.000546491
0.00187118
0.00119447
0.000302472
0.000323753
0.000121195
0.000627837
0.000211625
0.000908789
0.00182542
0.00181461
0.000869709
0.00266175
8.56293e-05
0.00210024
0.00227938
0.0026588
0.000346112
0.00109508
0.00232072
0.000733611
0.00194471
0.00037156
0.000718089
0.00444084
0.00261883
0.000928972
0.00227941
0.000138576
0.00139648
0.000752221
0.00195805
0.001666
0.000546456
0.000957746
0.00412089
0.00147357
0.0012798
0.00217647
0.000491165
0.00097186
0.000341981
0.00147616
0.00275527
0.00248504
0.000408094
0.000761215
0.00269433
0.00357072
0.000793549
0.000727076
0.000393148
0.00319829
0.00036193
0.00324425
0.00245156
0.0036951
0.000913951
0.00157631
0.000611364
0.000423987
0.00185423
0.000103663
0.0012477
0.00328448
0.0017655
0.00190625
0.00158516
0.00138231
0.00402166
0.000852461
0.00402153
0.000954143
0.00147174
0.00135764
0.00439008
0.0012497
0.00127952
0.00201882
7.86502e-05
0.000773506
0.00136142
0.00155975
0.0012911
4.25744e-05
3.70755e-05
0.00281074
0.000439905
0.000956474
0.0003169
0.0026417
1.21423e-05
0.00167255
0.0023471
2.92674e-05
0.000882065
0.00418033
0.00123825
0.00150005
0.00151876
0.000631959
0.000267933
0.000646212
0.00416881
0.00143447
0.00374732
0.000664136
0.0018095
0.000158822
0.00275835
0.00386945
0.000244066
0.000725263
0.000212218
0.0049575
0.00367317
0.000217555
0.000595048
0.00317138
0.000889823
0.00339672
0.000727268
0.000828841
0.00183465
0.00151658
0.00155283
0.000329524
0.00197985
0.000464622
0.000798552
0.00251717
0.00125161
0.0010648
0.00091134
0.000182509
0.00332989
0.0018951
0.00212051
0.00175254
0.00174812
0.00142387
0.00376529
0.000208908
0.000109236
0.0016505
0.00123109
0.00168037
0.00299816
0.000777398
0.000348667
0.000795391
0.00161877
0.00131323
0.00236751
0.00195801
0.00423681
2.87744e-05
0.000406948
0.00311244
0.000961436
0.00304901
0.000840999
0.00243255
0.000447954
0.0013447
0.00118944
0.0022181
0.000301214
0.00258511
0.00310207
0.00109881
0.000389718
0.00209311
0.000182708
0.000386494
0.00514309
0.00103137
0.00120193
0.002466
0.00254286
0.000750478
0.00121308
0.000711586
0.00176354
0.00254141
0.000772612
0.000646947
0.000501246
0.000803125
0.00368463
0.00108292
0.000824308
0.0017023
0.00189248
0.000263177
0.00151149
0.00251768
0.000329978
0.0011432
0.000360344
0.000868886
0.00226524
0.0006967
0.00226858
0.000869687
0.000819658
0.00178686
0.0017674
0.00143954
0.000852029
0.00325279
0.000588287
0.000278607
3.52881e-05
0.00080658
0.00270434
0.00232939
0.00273014
0.00135785
0.000365783
0.000836908
0.000604506
0.000823544
0.00097346
0.00226201
0.00131802
0.00181996
0.000631888
0.000508367
0.000167503
0.000384528
0.00180421
0.0023976
0.00098195
0.00262257
0.0074193
0.00220202
0.000826255
0.00103725
0.000524321
0.00257488
0.000792845
0.000979423
0.00311355
0.00217408
0.00278913
0.00127323
0.000486837
0.00114144
0.00223944
0.00482155
0.00310978
0.0017526
0.000865724
0.00323162
0.00468024
0.000789691
0.00259171
0.000577018
0.000191982
0.000320697
0.0051554
0.000195929
0.00155476
0.000212038
0.000574893