/*--------------------------------*- C++ -*----------------------------------*\
| =========                 |                                                 |
| \\      /  F ield         | OpenFOAM: The Open Source CFD Toolbox           |
|  \\    /   O peration     | Version:  2212                                  |
|   \\  /    A nd           | Website:  www.openfoam.com                      |
|    \\/     M anipulation  |                                                 |
\*---------------------------------------------------------------------------*/
FoamFile
{
    version     2.0;
    format      ascii;
    arch        "LSB;label=32;scalar=64";
    class       volScalarField;
    location    "./ITHACAoutput/true/18.6";
    object      trueState;
}
// * * * * * * * * * * * * * * * * * * * * * * * * * * * * * * * * * * * * * //

dimensions      [0 0 0 1 0 0 0];

internalField   nonuniform List<scalar> 
3200
(
317.363
317.558
317.807
318.078
318.357
318.631
318.884
319.097
319.253
319.335
319.335
319.253
319.097
318.884
318.631
318.357
318.078
317.807
317.558
317.363
315.128
315.293
315.508
315.742
315.984
316.221
316.439
316.624
316.758
316.829
316.829
316.758
316.624
316.439
316.221
315.984
315.742
315.508
315.293
315.128
312.86
312.997
313.178
313.376
313.58
313.78
313.965
314.121
314.234
314.294
314.294
314.234
314.121
313.965
313.78
313.58
313.376
313.178
312.997
312.86
310.564
310.674
310.821
310.983
311.15
311.314
311.464
311.591
311.684
311.733
311.733
311.684
311.591
311.464
311.314
311.15
310.983
310.821
310.674
310.564
308.244
308.328
308.442
308.568
308.698
308.825
308.942
309.041
309.113
309.151
309.151
309.113
309.041
308.942
308.825
308.698
308.568
308.442
308.328
308.244
305.905
305.965
306.046
306.136
306.228
306.319
306.403
306.473
306.524
306.552
306.552
306.524
306.473
306.403
306.319
306.228
306.136
306.046
305.965
305.905
303.552
303.588
303.637
303.691
303.746
303.801
303.851
303.893
303.924
303.94
303.94
303.924
303.893
303.851
303.801
303.746
303.691
303.637
303.588
303.552
301.192
301.204
301.22
301.238
301.257
301.275
301.292
301.306
301.316
301.322
301.322
301.316
301.306
301.292
301.275
301.257
301.238
301.22
301.204
301.192
317.426
317.619
317.866
318.134
318.41
318.681
318.931
319.142
319.295
319.376
319.376
319.295
319.142
318.931
318.681
318.41
318.134
317.866
317.619
317.426
315.183
315.346
315.559
315.791
316.03
316.265
316.481
316.663
316.795
316.865
316.865
316.795
316.663
316.481
316.265
316.03
315.791
315.559
315.346
315.183
312.907
313.042
313.221
313.418
313.62
313.818
314
314.154
314.266
314.325
314.325
314.266
314.154
314
313.818
313.62
313.418
313.221
313.042
312.907
310.602
310.711
310.857
311.017
311.183
311.344
311.493
311.619
311.71
311.758
311.758
311.71
311.619
311.493
311.344
311.183
311.017
310.857
310.711
310.602
308.273
308.357
308.47
308.595
308.723
308.849
308.965
309.062
309.133
309.171
309.171
309.133
309.062
308.965
308.849
308.723
308.595
308.47
308.357
308.273
305.926
305.985
306.066
306.155
306.247
306.336
306.419
306.489
306.539
306.566
306.566
306.539
306.489
306.419
306.336
306.247
306.155
306.066
305.985
305.926
303.565
303.6
303.649
303.702
303.757
303.811
303.861
303.903
303.933
303.949
303.949
303.933
303.903
303.861
303.811
303.757
303.702
303.649
303.6
303.565
301.196
301.208
301.224
301.242
301.26
301.278
301.295
301.309
301.319
301.325
301.325
301.319
301.309
301.295
301.278
301.26
301.242
301.224
301.208
301.196
317.551
317.741
317.983
318.247
318.517
318.783
319.027
319.232
319.382
319.461
319.461
319.382
319.232
319.027
318.783
318.517
318.247
317.983
317.741
317.551
315.292
315.453
315.662
315.89
316.124
316.353
316.564
316.742
316.871
316.939
316.939
316.871
316.742
316.564
316.353
316.124
315.89
315.662
315.453
315.292
312.999
313.133
313.309
313.501
313.699
313.893
314.071
314.221
314.33
314.388
314.388
314.33
314.221
314.071
313.893
313.699
313.501
313.309
313.133
312.999
310.678
310.785
310.929
311.086
311.248
311.406
311.552
311.675
311.764
311.811
311.811
311.764
311.675
311.552
311.406
311.248
311.086
310.929
310.785
310.678
308.332
308.415
308.526
308.649
308.775
308.898
309.011
309.106
309.175
309.211
309.211
309.175
309.106
309.011
308.898
308.775
308.649
308.526
308.415
308.332
305.968
306.027
306.106
306.194
306.283
306.371
306.452
306.52
306.569
306.595
306.595
306.569
306.52
306.452
306.371
306.283
306.194
306.106
306.027
305.968
303.591
303.625
303.673
303.725
303.779
303.832
303.881
303.921
303.951
303.967
303.967
303.951
303.921
303.881
303.832
303.779
303.725
303.673
303.625
303.591
301.205
301.216
301.232
301.25
301.268
301.285
301.302
301.315
301.325
301.331
301.331
301.325
301.315
301.302
301.285
301.268
301.25
301.232
301.216
301.205
317.739
317.924
318.161
318.417
318.68
318.936
319.172
319.37
319.514
319.59
319.59
319.514
319.37
319.172
318.936
318.68
318.417
318.161
317.924
317.739
315.455
315.612
315.816
316.038
316.265
316.487
316.691
316.863
316.987
317.053
317.053
316.987
316.863
316.691
316.487
316.265
316.038
315.816
315.612
315.455
313.138
313.269
313.44
313.628
313.82
314.007
314.18
314.324
314.429
314.485
314.485
314.429
314.324
314.18
314.007
313.82
313.628
313.44
313.269
313.138
310.792
310.897
311.037
311.19
311.347
311.501
311.641
311.759
311.845
311.89
311.89
311.845
311.759
311.641
311.501
311.347
311.19
311.037
310.897
310.792
308.422
308.502
308.611
308.73
308.852
308.971
309.08
309.172
309.239
309.274
309.274
309.239
309.172
309.08
308.971
308.852
308.73
308.611
308.502
308.422
306.032
306.089
306.167
306.252
306.339
306.424
306.502
306.568
306.615
306.64
306.64
306.615
306.568
306.502
306.424
306.339
306.252
306.167
306.089
306.032
303.629
303.663
303.709
303.76
303.813
303.864
303.911
303.95
303.979
303.994
303.994
303.979
303.95
303.911
303.864
303.813
303.76
303.709
303.663
303.629
301.217
301.229
301.244
301.261
301.279
301.296
301.312
301.325
301.335
301.34
301.34
301.335
301.325
301.312
301.296
301.279
301.261
301.244
301.229
301.217
317.99
318.17
318.399
318.646
318.898
319.144
319.37
319.559
319.695
319.768
319.768
319.695
319.559
319.37
319.144
318.898
318.646
318.399
318.17
317.99
315.674
315.827
316.024
316.238
316.456
316.669
316.864
317.027
317.146
317.208
317.208
317.146
317.027
316.864
316.669
316.456
316.238
316.024
315.827
315.674
313.324
313.451
313.617
313.797
313.982
314.162
314.327
314.465
314.565
314.617
314.617
314.565
314.465
314.327
314.162
313.982
313.797
313.617
313.451
313.324
310.945
311.047
311.182
311.33
311.481
311.628
311.762
311.875
311.957
312
312
311.957
311.875
311.762
311.628
311.481
311.33
311.182
311.047
310.945
308.541
308.619
308.724
308.839
308.956
309.071
309.175
309.263
309.326
309.359
309.359
309.326
309.263
309.175
309.071
308.956
308.839
308.724
308.619
308.541
306.118
306.173
306.248
306.33
306.414
306.495
306.57
306.632
306.678
306.701
306.701
306.678
306.632
306.57
306.495
306.414
306.33
306.248
306.173
306.118
303.68
303.713
303.758
303.807
303.858
303.907
303.952
303.989
304.016
304.031
304.031
304.016
303.989
303.952
303.907
303.858
303.807
303.758
303.713
303.68
301.235
301.246
301.261
301.277
301.294
301.311
301.326
301.338
301.347
301.352
301.352
301.347
301.338
301.326
301.311
301.294
301.277
301.261
301.246
301.235
318.306
318.479
318.698
318.935
319.175
319.409
319.622
319.8
319.929
319.997
319.997
319.929
319.8
319.622
319.409
319.175
318.935
318.698
318.479
318.306
315.949
316.096
316.285
316.49
316.698
316.9
317.084
317.239
317.35
317.409
317.409
317.35
317.239
317.084
316.9
316.698
316.49
316.285
316.096
315.949
313.558
313.68
313.839
314.012
314.188
314.359
314.515
314.645
314.739
314.789
314.789
314.739
314.645
314.515
314.359
314.188
314.012
313.839
313.68
313.558
311.137
311.235
311.365
311.506
311.65
311.79
311.917
312.023
312.1
312.141
312.141
312.1
312.023
311.917
311.79
311.65
311.506
311.365
311.235
311.137
308.691
308.766
308.867
308.977
309.089
309.197
309.296
309.379
309.438
309.47
309.47
309.438
309.379
309.296
309.197
309.089
308.977
308.867
308.766
308.691
306.225
306.278
306.35
306.428
306.508
306.586
306.657
306.716
306.758
306.781
306.781
306.758
306.716
306.657
306.586
306.508
306.428
306.35
306.278
306.225
303.745
303.777
303.82
303.867
303.915
303.961
304.004
304.039
304.065
304.078
304.078
304.065
304.039
304.004
303.961
303.915
303.867
303.82
303.777
303.745
301.256
301.267
301.281
301.297
301.313
301.329
301.343
301.355
301.364
301.368
301.368
301.364
301.355
301.343
301.329
301.313
301.297
301.281
301.267
301.256
318.686
318.852
319.061
319.285
319.513
319.733
319.932
320.099
320.219
320.282
320.282
320.219
320.099
319.932
319.733
319.513
319.285
319.061
318.852
318.686
316.281
316.421
316.601
316.795
316.992
317.183
317.356
317.5
317.604
317.658
317.658
317.604
317.5
317.356
317.183
316.992
316.795
316.601
316.421
316.281
313.84
313.956
314.108
314.272
314.439
314.6
314.746
314.867
314.955
315.001
315.001
314.955
314.867
314.746
314.6
314.439
314.272
314.108
313.956
313.84
311.368
311.462
311.586
311.72
311.856
311.988
312.107
312.207
312.278
312.316
312.316
312.278
312.207
312.107
311.988
311.856
311.72
311.586
311.462
311.368
308.871
308.943
309.039
309.144
309.249
309.352
309.445
309.522
309.578
309.607
309.607
309.578
309.522
309.445
309.352
309.249
309.144
309.039
308.943
308.871
306.354
306.405
306.474
306.548
306.624
306.697
306.763
306.818
306.858
306.879
306.879
306.858
306.818
306.763
306.697
306.624
306.548
306.474
306.405
306.354
303.823
303.853
303.894
303.939
303.984
304.028
304.068
304.101
304.125
304.138
304.138
304.125
304.101
304.068
304.028
303.984
303.939
303.894
303.853
303.823
301.282
301.293
301.306
301.321
301.337
301.351
301.365
301.376
301.384
301.388
301.388
301.384
301.376
301.365
301.351
301.337
301.321
301.306
301.293
301.282
319.133
319.291
319.488
319.7
319.913
320.118
320.304
320.458
320.569
320.628
320.628
320.569
320.458
320.304
320.118
319.913
319.7
319.488
319.291
319.133
316.67
316.803
316.974
317.157
317.342
317.519
317.68
317.814
317.91
317.96
317.96
317.91
317.814
317.68
317.519
317.342
317.157
316.974
316.803
316.67
314.171
314.281
314.425
314.58
314.736
314.886
315.022
315.135
315.216
315.258
315.258
315.216
315.135
315.022
314.886
314.736
314.58
314.425
314.281
314.171
311.64
311.729
311.846
311.973
312.1
312.223
312.334
312.427
312.493
312.528
312.528
312.493
312.427
312.334
312.223
312.1
311.973
311.846
311.729
311.64
309.083
309.152
309.243
309.341
309.44
309.536
309.622
309.694
309.745
309.772
309.772
309.745
309.694
309.622
309.536
309.44
309.341
309.243
309.152
309.083
306.506
306.554
306.619
306.689
306.76
306.829
306.89
306.942
306.978
306.998
306.998
306.978
306.942
306.89
306.829
306.76
306.689
306.619
306.554
306.506
303.914
303.943
303.982
304.024
304.067
304.108
304.145
304.175
304.197
304.209
304.209
304.197
304.175
304.145
304.108
304.067
304.024
303.982
303.943
303.914
301.313
301.323
301.336
301.35
301.364
301.378
301.39
301.401
301.408
301.412
301.412
301.408
301.401
301.39
301.378
301.364
301.35
301.336
301.323
301.313
319.647
319.795
319.981
320.179
320.378
320.568
320.74
320.882
320.984
321.037
321.037
320.984
320.882
320.74
320.568
320.378
320.179
319.981
319.795
319.647
317.117
317.243
317.404
317.575
317.747
317.912
318.061
318.183
318.271
318.317
318.317
318.271
318.183
318.061
317.912
317.747
317.575
317.404
317.243
317.117
314.551
314.655
314.79
314.935
315.081
315.22
315.346
315.45
315.524
315.563
315.563
315.524
315.45
315.346
315.22
315.081
314.935
314.79
314.655
314.551
311.952
312.036
312.147
312.265
312.384
312.498
312.601
312.686
312.746
312.778
312.778
312.746
312.686
312.601
312.498
312.384
312.265
312.147
312.036
311.952
309.327
309.391
309.477
309.569
309.662
309.75
309.83
309.896
309.943
309.968
309.968
309.943
309.896
309.83
309.75
309.662
309.569
309.477
309.391
309.327
306.681
306.726
306.787
306.853
306.919
306.983
307.04
307.087
307.12
307.138
307.138
307.12
307.087
307.04
306.983
306.919
306.853
306.787
306.726
306.681
304.019
304.046
304.083
304.122
304.162
304.2
304.234
304.263
304.283
304.294
304.294
304.283
304.263
304.234
304.2
304.162
304.122
304.083
304.046
304.019
301.348
301.357
301.37
301.383
301.396
301.409
301.42
301.43
301.437
301.44
301.44
301.437
301.43
301.42
301.409
301.396
301.383
301.37
301.357
301.348
320.228
320.368
320.542
320.726
320.91
321.085
321.243
321.372
321.465
321.513
321.513
321.465
321.372
321.243
321.085
320.91
320.726
320.542
320.368
320.228
317.624
317.742
317.892
318.052
318.211
318.363
318.499
318.611
318.692
318.733
318.733
318.692
318.611
318.499
318.363
318.211
318.052
317.892
317.742
317.624
314.981
315.079
315.206
315.341
315.476
315.604
315.719
315.814
315.882
315.917
315.917
315.882
315.814
315.719
315.604
315.476
315.341
315.206
315.079
314.981
312.306
312.385
312.488
312.598
312.709
312.814
312.908
312.985
313.041
313.07
313.07
313.041
312.985
312.908
312.814
312.709
312.598
312.488
312.385
312.306
309.603
309.663
309.743
309.829
309.915
309.997
310.07
310.13
310.173
310.196
310.196
310.173
310.13
310.07
309.997
309.915
309.829
309.743
309.663
309.603
306.878
306.921
306.978
307.039
307.101
307.159
307.211
307.255
307.285
307.301
307.301
307.285
307.255
307.211
307.159
307.101
307.039
306.978
306.921
306.878
304.138
304.163
304.198
304.234
304.271
304.306
304.338
304.364
304.382
304.392
304.392
304.382
304.364
304.338
304.306
304.271
304.234
304.198
304.163
304.138
301.388
301.397
301.408
301.42
301.433
301.445
301.455
301.464
301.47
301.473
301.473
301.47
301.464
301.455
301.445
301.433
301.42
301.408
301.397
301.388
320.878
321.009
321.171
321.341
321.511
321.672
321.815
321.933
322.017
322.06
322.06
322.017
321.933
321.815
321.672
321.511
321.341
321.171
321.009
320.878
318.19
318.3
318.44
318.588
318.735
318.874
318.998
319.1
319.173
319.211
319.211
319.173
319.1
318.998
318.874
318.735
318.588
318.44
318.3
318.19
315.462
315.554
315.672
315.797
315.921
316.039
316.144
316.23
316.292
316.324
316.324
316.292
316.23
316.144
316.039
315.921
315.797
315.672
315.554
315.462
312.701
312.775
312.871
312.973
313.075
313.171
313.257
313.328
313.378
313.404
313.404
313.378
313.328
313.257
313.171
313.075
312.973
312.871
312.775
312.701
309.911
309.968
310.042
310.122
310.201
310.276
310.343
310.398
310.437
310.457
310.457
310.437
310.398
310.343
310.276
310.201
310.122
310.042
309.968
309.911
307.099
307.139
307.192
307.249
307.306
307.359
307.407
307.446
307.474
307.488
307.488
307.474
307.446
307.407
307.359
307.306
307.249
307.192
307.139
307.099
304.271
304.295
304.327
304.361
304.395
304.427
304.455
304.479
304.496
304.504
304.504
304.496
304.479
304.455
304.427
304.395
304.361
304.327
304.295
304.271
301.433
301.441
301.451
301.463
301.474
301.485
301.495
301.502
301.508
301.511
301.511
301.508
301.502
301.495
301.485
301.474
301.463
301.451
301.441
301.433
321.597
321.719
321.869
322.026
322.182
322.328
322.459
322.565
322.641
322.68
322.68
322.641
322.565
322.459
322.328
322.182
322.026
321.869
321.719
321.597
318.816
318.919
319.049
319.185
319.32
319.447
319.56
319.652
319.717
319.751
319.751
319.717
319.652
319.56
319.447
319.32
319.185
319.049
318.919
318.816
315.995
316.08
316.189
316.305
316.419
316.526
316.622
316.7
316.755
316.784
316.784
316.755
316.7
316.622
316.526
316.419
316.305
316.189
316.08
315.995
313.138
313.207
313.296
313.39
313.484
313.571
313.65
313.713
313.759
313.782
313.782
313.759
313.713
313.65
313.571
313.484
313.39
313.296
313.207
313.138
310.252
310.305
310.374
310.447
310.52
310.588
310.649
310.699
310.734
310.752
310.752
310.734
310.699
310.649
310.588
310.52
310.447
310.374
310.305
310.252
307.343
307.381
307.43
307.482
307.534
307.583
307.626
307.662
307.687
307.7
307.7
307.687
307.662
307.626
307.583
307.534
307.482
307.43
307.381
307.343
304.418
304.44
304.47
304.501
304.532
304.562
304.588
304.609
304.624
304.632
304.632
304.624
304.609
304.588
304.562
304.532
304.501
304.47
304.44
304.418
301.482
301.489
301.499
301.51
301.52
301.53
301.539
301.546
301.551
301.554
301.554
301.551
301.546
301.539
301.53
301.52
301.51
301.499
301.489
301.482
322.386
322.499
322.638
322.782
322.924
323.057
323.175
323.271
323.339
323.374
323.374
323.339
323.271
323.175
323.057
322.924
322.782
322.638
322.499
322.386
319.503
319.599
319.718
319.844
319.967
320.082
320.184
320.267
320.326
320.357
320.357
320.326
320.267
320.184
320.082
319.967
319.844
319.718
319.599
319.503
316.579
316.658
316.759
316.865
316.969
317.067
317.153
317.223
317.273
317.299
317.299
317.273
317.223
317.153
317.067
316.969
316.865
316.759
316.658
316.579
313.618
313.681
313.764
313.85
313.936
314.016
314.086
314.144
314.184
314.205
314.205
314.184
314.144
314.086
314.016
313.936
313.85
313.764
313.681
313.618
310.626
310.675
310.739
310.807
310.873
310.935
310.99
311.035
311.066
311.083
311.083
311.066
311.035
310.99
310.935
310.873
310.807
310.739
310.675
310.626
307.611
307.646
307.691
307.74
307.787
307.831
307.871
307.903
307.925
307.937
307.937
307.925
307.903
307.871
307.831
307.787
307.74
307.691
307.646
307.611
304.579
304.6
304.627
304.656
304.684
304.711
304.735
304.754
304.767
304.774
304.774
304.767
304.754
304.735
304.711
304.684
304.656
304.627
304.6
304.579
301.536
301.543
301.552
301.562
301.571
301.58
301.588
301.595
301.599
301.602
301.602
301.599
301.595
301.588
301.58
301.571
301.562
301.552
301.543
301.536
323.245
323.349
323.477
323.609
323.738
323.859
323.965
324.051
324.112
324.143
324.143
324.112
324.051
323.965
323.859
323.738
323.609
323.477
323.349
323.245
320.251
320.339
320.449
320.564
320.676
320.781
320.873
320.947
321
321.027
321.027
321
320.947
320.873
320.781
320.676
320.564
320.449
320.339
320.251
317.214
317.287
317.38
317.477
317.572
317.66
317.738
317.801
317.846
317.869
317.869
317.846
317.801
317.738
317.66
317.572
317.477
317.38
317.287
317.214
314.139
314.198
314.274
314.353
314.431
314.503
314.567
314.619
314.655
314.674
314.674
314.655
314.619
314.567
314.503
314.431
314.353
314.274
314.198
314.139
311.033
311.079
311.137
311.199
311.259
311.316
311.365
311.406
311.434
311.449
311.449
311.434
311.406
311.365
311.316
311.259
311.199
311.137
311.079
311.033
307.903
307.935
307.977
308.021
308.064
308.104
308.14
308.168
308.189
308.199
308.199
308.189
308.168
308.14
308.104
308.064
308.021
307.977
307.935
307.903
304.754
304.773
304.798
304.825
304.851
304.875
304.896
304.914
304.926
304.932
304.932
304.926
304.914
304.896
304.875
304.851
304.825
304.798
304.773
304.754
301.595
301.601
301.61
301.619
301.627
301.635
301.643
301.648
301.652
301.654
301.654
301.652
301.648
301.643
301.635
301.627
301.619
301.61
301.601
301.595
324.171
324.267
324.385
324.505
324.623
324.732
324.827
324.905
324.959
324.987
324.987
324.959
324.905
324.827
324.732
324.623
324.505
324.385
324.267
324.171
321.057
321.139
321.24
321.345
321.447
321.541
321.624
321.691
321.738
321.762
321.762
321.738
321.691
321.624
321.541
321.447
321.345
321.24
321.139
321.057
317.899
317.966
318.052
318.14
318.227
318.307
318.377
318.433
318.473
318.494
318.494
318.473
318.433
318.377
318.307
318.227
318.14
318.052
317.966
317.899
314.702
314.756
314.825
314.898
314.969
315.034
315.091
315.138
315.17
315.187
315.187
315.17
315.138
315.091
315.034
314.969
314.898
314.825
314.756
314.702
311.472
311.514
311.568
311.624
311.679
311.73
311.775
311.811
311.836
311.849
311.849
311.836
311.811
311.775
311.73
311.679
311.624
311.568
311.514
311.472
308.217
308.246
308.285
308.325
308.364
308.401
308.433
308.458
308.476
308.486
308.486
308.476
308.458
308.433
308.401
308.364
308.325
308.285
308.246
308.217
304.943
304.961
304.984
305.008
305.032
305.053
305.073
305.088
305.099
305.105
305.105
305.099
305.088
305.073
305.053
305.032
305.008
304.984
304.961
304.943
301.658
301.664
301.672
301.68
301.688
301.695
301.702
301.707
301.71
301.712
301.712
301.71
301.707
301.702
301.695
301.688
301.68
301.672
301.664
301.658
325.161
325.25
325.357
325.467
325.574
325.672
325.758
325.827
325.875
325.9
325.9
325.875
325.827
325.758
325.672
325.574
325.467
325.357
325.25
325.161
321.919
321.993
322.086
322.182
322.274
322.359
322.434
322.494
322.536
322.557
322.557
322.536
322.494
322.434
322.359
322.274
322.182
322.086
321.993
321.919
318.63
318.692
318.77
318.851
318.929
319.001
319.064
319.115
319.151
319.169
319.169
319.151
319.115
319.064
319.001
318.929
318.851
318.77
318.692
318.63
315.301
315.351
315.415
315.481
315.545
315.604
315.656
315.697
315.726
315.741
315.741
315.726
315.697
315.656
315.604
315.545
315.481
315.415
315.351
315.301
311.939
311.978
312.027
312.079
312.128
312.174
312.215
312.247
312.269
312.281
312.281
312.269
312.247
312.215
312.174
312.128
312.079
312.027
311.978
311.939
308.551
308.578
308.614
308.65
308.686
308.719
308.748
308.771
308.787
308.795
308.795
308.787
308.771
308.748
308.719
308.686
308.65
308.614
308.578
308.551
305.144
305.16
305.182
305.204
305.225
305.245
305.262
305.276
305.286
305.291
305.291
305.286
305.276
305.262
305.245
305.225
305.204
305.182
305.16
305.144
301.726
301.731
301.738
301.746
301.753
301.759
301.765
301.77
301.773
301.775
301.775
301.773
301.77
301.765
301.759
301.753
301.746
301.738
301.731
301.726
326.203
326.285
326.383
326.483
326.58
326.669
326.746
326.808
326.851
326.873
326.873
326.851
326.808
326.746
326.669
326.58
326.483
326.383
326.285
326.203
322.823
322.892
322.977
323.064
323.148
323.225
323.292
323.345
323.383
323.402
323.402
323.383
323.345
323.292
323.225
323.148
323.064
322.977
322.892
322.823
319.396
319.453
319.525
319.599
319.67
319.735
319.791
319.837
319.868
319.885
319.885
319.868
319.837
319.791
319.735
319.67
319.599
319.525
319.453
319.396
315.929
315.975
316.033
316.094
316.152
316.205
316.251
316.289
316.315
316.328
316.328
316.315
316.289
316.251
316.205
316.152
316.094
316.033
315.975
315.929
312.428
312.463
312.509
312.556
312.601
312.642
312.678
312.707
312.728
312.738
312.738
312.728
312.707
312.678
312.642
312.601
312.556
312.509
312.463
312.428
308.901
308.926
308.958
308.991
309.024
309.053
309.079
309.1
309.114
309.122
309.122
309.114
309.1
309.079
309.053
309.024
308.991
308.958
308.926
308.901
305.354
305.369
305.388
305.409
305.428
305.446
305.461
305.474
305.482
305.487
305.487
305.482
305.474
305.461
305.446
305.428
305.409
305.388
305.369
305.354
301.796
301.801
301.808
301.814
301.821
301.827
301.832
301.836
301.839
301.841
301.841
301.839
301.836
301.832
301.827
301.821
301.814
301.808
301.801
301.796
327.269
327.344
327.434
327.525
327.613
327.693
327.763
327.818
327.857
327.877
327.877
327.857
327.818
327.763
327.693
327.613
327.525
327.434
327.344
327.269
323.744
323.807
323.885
323.964
324.041
324.11
324.17
324.218
324.252
324.269
324.269
324.252
324.218
324.17
324.11
324.041
323.964
323.885
323.807
323.744
320.173
320.225
320.291
320.358
320.423
320.482
320.533
320.574
320.602
320.617
320.617
320.602
320.574
320.533
320.482
320.423
320.358
320.291
320.225
320.173
316.563
316.605
316.659
316.714
316.767
316.815
316.857
316.89
316.913
316.925
316.925
316.913
316.89
316.857
316.815
316.767
316.714
316.659
316.605
316.563
312.92
312.953
312.994
313.037
313.078
313.116
313.148
313.174
313.192
313.202
313.202
313.192
313.174
313.148
313.116
313.078
313.037
312.994
312.953
312.92
309.252
309.275
309.304
309.335
309.364
309.391
309.415
309.433
309.446
309.453
309.453
309.446
309.433
309.415
309.391
309.364
309.335
309.304
309.275
309.252
305.565
305.578
305.596
305.615
305.632
305.648
305.662
305.674
305.681
305.685
305.685
305.681
305.674
305.662
305.648
305.632
305.615
305.596
305.578
305.565
301.867
301.871
301.877
301.883
301.889
301.895
301.899
301.903
301.906
301.907
301.907
301.906
301.903
301.899
301.895
301.889
301.883
301.877
301.871
301.867
328.287
328.357
328.44
328.524
328.604
328.677
328.74
328.79
328.825
328.843
328.843
328.825
328.79
328.74
328.677
328.604
328.524
328.44
328.357
328.287
324.613
324.671
324.743
324.816
324.886
324.95
325.005
325.048
325.078
325.094
325.094
325.078
325.048
325.005
324.95
324.886
324.816
324.743
324.671
324.613
320.898
320.947
321.008
321.069
321.129
321.183
321.229
321.266
321.292
321.305
321.305
321.292
321.266
321.229
321.183
321.129
321.069
321.008
320.947
320.898
317.149
317.188
317.238
317.289
317.337
317.382
317.42
317.45
317.471
317.482
317.482
317.471
317.45
317.42
317.382
317.337
317.289
317.238
317.188
317.149
313.372
313.402
313.44
313.48
313.518
313.552
313.582
313.606
313.622
313.631
313.631
313.622
313.606
313.582
313.552
313.518
313.48
313.44
313.402
313.372
309.572
309.593
309.621
309.649
309.676
309.701
309.722
309.739
309.751
309.757
309.757
309.751
309.739
309.722
309.701
309.676
309.649
309.621
309.593
309.572
305.756
305.769
305.785
305.802
305.819
305.834
305.846
305.857
305.864
305.867
305.867
305.864
305.857
305.846
305.834
305.819
305.802
305.785
305.769
305.756
301.931
301.935
301.94
301.946
301.952
301.957
301.961
301.964
301.967
301.968
301.968
301.967
301.964
301.961
301.957
301.952
301.946
301.94
301.935
301.931
329.079
329.144
329.222
329.301
329.376
329.444
329.503
329.549
329.582
329.598
329.598
329.582
329.549
329.503
329.444
329.376
329.301
329.222
329.144
329.079
325.263
325.318
325.386
325.455
325.52
325.58
325.631
325.671
325.7
325.714
325.714
325.7
325.671
325.631
325.58
325.52
325.455
325.386
325.318
325.263
321.424
321.47
321.527
321.586
321.642
321.692
321.736
321.77
321.794
321.807
321.807
321.794
321.77
321.736
321.692
321.642
321.586
321.527
321.47
321.424
317.564
317.601
317.648
317.696
317.742
317.784
317.819
317.848
317.868
317.878
317.878
317.868
317.848
317.819
317.784
317.742
317.696
317.648
317.601
317.564
313.686
313.714
313.751
313.788
313.824
313.856
313.884
313.906
313.922
313.93
313.93
313.922
313.906
313.884
313.856
313.824
313.788
313.751
313.714
313.686
309.792
309.812
309.838
309.865
309.89
309.914
309.934
309.95
309.961
309.966
309.966
309.961
309.95
309.934
309.914
309.89
309.865
309.838
309.812
309.792
305.886
305.898
305.914
305.93
305.946
305.96
305.972
305.981
305.988
305.991
305.991
305.988
305.981
305.972
305.96
305.946
305.93
305.914
305.898
305.886
301.974
301.978
301.983
301.989
301.994
301.999
302.003
302.006
302.008
302.009
302.009
302.008
302.006
302.003
301.999
301.994
301.989
301.983
301.978
301.974
)
;

boundaryField
{
    hotSide
    {
        type            fixedGradient;
        gradient        nonuniform List<scalar> 
400
(
175.833
176.467
177.735
179.643
182.197
185.403
189.269
193.806
199.021
204.925
211.526
218.834
226.855
235.597
245.066
255.268
266.206
277.885
290.306
303.473
178.396
179.009
180.238
182.088
184.567
187.685
191.452
195.88
200.982
206.768
213.251
220.441
228.347
236.978
246.341
256.442
267.285
278.875
291.214
304.305
181.169
181.758
182.939
184.721
187.112
190.126
193.777
198.079
203.049
208.702
215.051
222.108
229.886
238.394
247.641
257.632
268.373
279.867
292.119
305.129
184.107
184.668
185.794
187.496
189.785
192.68
196.198
200.359
205.181
210.684
216.885
223.798
231.436
239.812
248.934
258.809
269.443
280.839
293
305.928
187.128
187.657
188.721
190.333
192.51
195.273
198.645
202.651
207.313
212.655
218.697
225.457
232.95
241.189
250.183
259.94
270.465
281.762
293.833
306.68
190.105
190.6
191.599
193.115
195.173
197.796
201.015
204.859
209.356
214.534
220.415
227.021
234.369
242.472
251.34
260.982
271.402
282.604
294.59
307.36
192.869
193.33
194.262
195.684
197.623
200.11
203.179
206.866
211.204
216.224
221.953
228.414
235.625
243.602
252.355
261.891
272.216
283.333
295.242
307.943
195.215
195.645
196.518
197.855
199.688
202.052
204.989
208.538
212.736
217.619
223.216
229.553
236.649
244.519
253.174
262.623
272.869
283.915
295.76
308.405
196.931
197.338
198.165
199.438
201.19
203.462
206.299
209.743
213.838
218.619
224.118
230.363
237.374
245.166
253.751
263.136
273.325
284.321
296.122
308.727
197.841
198.235
199.037
200.274
201.983
204.205
206.987
210.376
214.414
219.141
224.589
230.785
237.75
245.502
254.05
263.401
273.561
284.529
296.307
308.891
197.841
198.235
199.037
200.274
201.983
204.205
206.987
210.376
214.414
219.141
224.589
230.785
237.75
245.502
254.05
263.401
273.561
284.529
296.307
308.891
196.931
197.338
198.165
199.438
201.19
203.462
206.299
209.743
213.838
218.619
224.118
230.363
237.374
245.166
253.751
263.136
273.325
284.321
296.122
308.727
195.215
195.645
196.518
197.855
199.688
202.052
204.989
208.538
212.736
217.619
223.216
229.553
236.649
244.519
253.174
262.623
272.869
283.915
295.76
308.405
192.869
193.33
194.262
195.684
197.623
200.11
203.179
206.866
211.204
216.224
221.953
228.414
235.625
243.602
252.355
261.891
272.216
283.333
295.242
307.943
190.105
190.6
191.599
193.115
195.173
197.796
201.015
204.859
209.356
214.534
220.415
227.021
234.369
242.472
251.34
260.982
271.402
282.604
294.59
307.36
187.128
187.657
188.721
190.333
192.51
195.273
198.645
202.651
207.313
212.655
218.697
225.457
232.95
241.189
250.183
259.94
270.465
281.762
293.833
306.68
184.107
184.668
185.794
187.496
189.785
192.68
196.198
200.359
205.181
210.684
216.885
223.798
231.436
239.812
248.934
258.809
269.443
280.839
293
305.928
181.169
181.758
182.939
184.721
187.112
190.126
193.777
198.079
203.049
208.702
215.051
222.108
229.886
238.394
247.641
257.632
268.373
279.867
292.119
305.129
178.396
179.009
180.238
182.088
184.567
187.685
191.452
195.88
200.982
206.768
213.251
220.441
228.347
236.978
246.341
256.442
267.285
278.875
291.214
304.305
175.833
176.467
177.735
179.643
182.197
185.403
189.269
193.806
199.021
204.925
211.526
218.834
226.855
235.597
245.066
255.268
266.206
277.885
290.306
303.473
)
;
    }
    coldSide
    {
        type            mixed;
        refValue        uniform 300;
        refGradient     uniform 0;
        valueFraction   uniform 0.991591;
        source          uniform 0;
        value           nonuniform List<scalar> 
400
(
300.01
300.01
300.01
300.01
300.01
300.011
300.011
300.011
300.011
300.012
300.012
300.012
300.013
300.013
300.014
300.015
300.015
300.016
300.016
300.017
300.01
300.01
300.01
300.01
300.01
300.011
300.011
300.011
300.011
300.012
300.012
300.013
300.013
300.013
300.014
300.015
300.015