/*--------------------------------*- C++ -*----------------------------------*\
| =========                 |                                                 |
| \\      /  F ield         | OpenFOAM: The Open Source CFD Toolbox           |
|  \\    /   O peration     | Version:  2212                                  |
|   \\  /    A nd           | Website:  www.openfoam.com                      |
|    \\/     M anipulation  |                                                 |
\*---------------------------------------------------------------------------*/
FoamFile
{
    version     2.0;
    format      ascii;
    arch        "LSB;label=32;scalar=64";
    class       volScalarField;
    location    "0";
    object      Ttrue;
}
// * * * * * * * * * * * * * * * * * * * * * * * * * * * * * * * * * * * * * //

dimensions      [0 0 0 1 0 0 0];

internalField   nonuniform List<scalar> 
3200
(
329.303
329.737
330.29
330.893
331.515
332.124
332.687
333.162
333.508
333.691
333.691
333.508
333.162
332.687
332.124
331.515
330.893
330.29
329.737
329.303
325.519
325.886
326.363
326.885
327.423
327.95
328.437
328.847
329.146
329.304
329.304
329.146
328.847
328.437
327.95
327.423
326.885
326.363
325.886
325.519
321.683
321.988
322.39
322.831
323.285
323.73
324.141
324.488
324.74
324.873
324.873
324.74
324.488
324.141
323.73
323.285
322.831
322.39
321.988
321.683
317.804
318.049
318.376
318.737
319.108
319.472
319.807
320.09
320.296
320.405
320.405
320.296
320.09
319.807
319.472
319.108
318.737
318.376
318.049
317.804
313.888
314.076
314.33
314.61
314.899
315.182
315.443
315.662
315.822
315.906
315.906
315.822
315.662
315.443
315.182
314.899
314.61
314.33
314.076
313.888
309.945
310.078
310.259
310.459
310.665
310.867
311.053
311.21
311.324
311.384
311.384
311.324
311.21
311.053
310.867
310.665
310.459
310.259
310.078
309.945
305.982
306.061
306.17
306.29
306.413
306.535
306.646
306.74
306.809
306.845
306.845
306.809
306.74
306.646
306.535
306.413
306.29
306.17
306.061
305.982
302.006
302.033
302.069
302.11
302.151
302.192
302.229
302.261
302.284
302.296
302.296
302.284
302.261
302.229
302.192
302.151
302.11
302.069
302.033
302.006
329.398
329.828
330.376
330.974
331.589
332.192
332.748
333.217
333.558
333.739
333.739
333.558
333.217
332.748
332.192
331.589
330.974
330.376
329.828
329.398
325.601
325.965
326.438
326.955
327.487
328.009
328.49
328.895
329.19
329.346
329.346
329.19
328.895
328.49
328.009
327.487
326.955
326.438
325.965
325.601
321.753
322.055
322.454
322.89
323.34
323.781
324.187
324.529
324.778
324.909
324.909
324.778
324.529
324.187
323.781
323.34
322.89
322.454
322.055
321.753
317.861
318.104
318.429
318.786
319.153
319.513
319.845
320.124
320.328
320.435
320.435
320.328
320.124
319.845
319.513
319.153
318.786
318.429
318.104
317.861
313.933
314.119
314.371
314.649
314.934
315.214
315.472
315.689
315.847
315.93
315.93
315.847
315.689
315.472
315.214
314.934
314.649
314.371
314.119
313.933
309.977
310.109
310.288
310.486
310.69
310.89
311.074
311.229
311.342
311.401
311.401
311.342
311.229
311.074
310.89
310.69
310.486
310.288
310.109
309.977
306.001
306.08
306.187
306.306
306.429
306.549
306.659
306.752
306.82
306.855
306.855
306.82
306.752
306.659
306.549
306.429
306.306
306.187
306.08
306.001
302.013
302.039
302.075
302.115
302.156
302.196
302.233
302.265
302.287
302.299
302.299
302.287
302.265
302.233
302.196
302.156
302.115
302.075
302.039
302.013
329.587
330.01
330.549
331.135
331.738
332.328
332.871
333.329
333.662
333.837
333.837
333.662
333.329
332.871
332.328
331.738
331.135
330.549
330.01
329.587
325.766
326.124
326.589
327.096
327.618
328.128
328.598
328.993
329.281
329.433
329.433
329.281
328.993
328.598
328.128
327.618
327.096
326.589
326.124
325.766
321.893
322.19
322.582
323.01
323.451
323.882
324.279
324.613
324.855
324.983
324.983
324.855
324.613
324.279
323.882
323.451
323.01
322.582
322.19
321.893
317.975
318.215
318.534
318.884
319.245
319.597
319.921
320.194
320.392
320.496
320.496
320.392
320.194
319.921
319.597
319.245
318.884
318.534
318.215
317.975
314.022
314.206
314.454
314.726
315.006
315.28
315.531
315.743
315.897
315.978
315.978
315.897
315.743
315.531
315.28
315.006
314.726
314.454
314.206
314.022
310.041
310.171
310.347
310.542
310.742
310.937
311.117
311.268
311.378
311.436
311.436
311.378
311.268
311.117
310.937
310.742
310.542
310.347
310.171
310.041
306.039
306.117
306.223
306.339
306.46
306.577
306.685
306.776
306.841
306.876
306.876
306.841
306.776
306.685
306.577
306.46
306.339
306.223
306.117
306.039
302.026
302.052
302.087
302.126
302.167
302.206
302.242
302.272
302.294
302.306
302.306
302.294
302.272
302.242
302.206
302.167
302.126
302.087
302.052
302.026
329.871
330.284
330.81
331.38
331.965
332.536
333.061
333.502
333.823
333.991
333.991
333.823
333.502
333.061
332.536
331.965
331.38
330.81
330.284
329.871
326.013
326.363
326.817
327.31
327.816
328.31
328.764
329.146
329.422
329.568
329.568
329.422
329.146
328.764
328.31
327.816
327.31
326.817
326.363
326.013
322.103
322.393
322.775
323.192
323.62
324.038
324.421
324.743
324.976
325.1
325.1
324.976
324.743
324.421
324.038
323.62
323.192
322.775
322.393
322.103
318.148
318.382
318.693
319.034
319.384
319.725
320.038
320.301
320.492
320.592
320.592
320.492
320.301
320.038
319.725
319.384
319.034
318.693
318.382
318.148
314.157
314.336
314.578
314.843
315.114
315.38
315.623
315.827
315.975
316.053
316.053
315.975
315.827
315.623
315.38
315.114
314.843
314.578
314.336
314.157
310.137
310.264
310.436
310.625
310.82
311.009
311.183
311.328
311.434
311.49
311.49
311.434
311.328
311.183
311.009
310.82
310.625
310.436
310.264
310.137
306.097
306.173
306.276
306.39
306.506
306.62
306.724
306.812
306.875
306.909
306.909
306.875
306.812
306.724
306.62
306.506
306.39
306.276
306.173
306.097
302.045
302.071
302.105
302.143
302.182
302.22
302.255
302.285
302.306
302.317
302.317
302.306
302.285
302.255
302.22
302.182
302.143
302.105
302.071
302.045
330.252
330.653
331.161
331.711
332.273
332.821
333.322
333.743
334.048
334.208
334.208
334.048
333.743
333.322
332.821
332.273
331.711
331.161
330.653
330.252
326.345
326.684
327.123
327.599
328.085
328.559
328.993
329.357
329.62
329.759
329.759
329.62
329.357
328.993
328.559
328.085
327.599
327.123
326.684
326.345
322.385
322.666
323.036
323.438
323.849
324.25
324.616
324.923
325.145
325.262
325.262
325.145
324.923
324.616
324.25
323.849
323.438
323.036
322.666
322.385
318.38
318.606
318.907
319.236
319.572
319.899
320.199
320.45
320.631
320.727
320.727
320.631
320.45
320.199
319.899
319.572
319.236
318.907
318.606
318.38
314.337
314.511
314.745
315
315.262
315.516
315.749
315.944
316.085
316.159
316.159
316.085
315.944
315.749
315.516
315.262
315
314.745
314.511
314.337
310.266
310.389
310.556
310.738
310.925
311.107
311.273
311.412
311.513
311.566
311.566
311.513
311.412
311.273
311.107
310.925
310.738
310.556
310.389
310.266
306.175
306.248
306.348
306.458
306.57
306.679
306.779
306.862
306.923
306.954
306.954
306.923
306.862
306.779
306.679
306.57
306.458
306.348
306.248
306.175
302.071
302.096
302.129
302.166
302.204
302.24
302.274
302.302
302.322
302.332
302.332
302.322
302.302
302.274
302.24
302.204
302.166
302.129
302.096
302.071
330.732
331.118
331.606
332.132
332.667
333.187
333.661
334.058
334.345
334.496
334.496
334.345
334.058
333.661
333.187
332.667
332.132
331.606
331.118
330.732
326.763
327.089
327.51
327.965
328.429
328.879
329.289
329.633
329.881
330.011
330.011
329.881
329.633
329.289
328.879
328.429
327.965
327.51
327.089
326.763
322.74
323.01
323.365
323.75
324.142
324.522
324.869
325.159
325.368
325.478
325.478
325.368
325.159
324.869
324.522
324.142
323.75
323.365
323.01
322.74
318.671
318.889
319.178
319.492
319.813
320.124
320.407
320.644
320.815
320.905
320.905
320.815
320.644
320.407
320.124
319.813
319.492
319.178
318.889
318.671
314.564
314.732
314.956
315.2
315.45
315.691
315.912
316.096
316.228
316.298
316.298
316.228
316.096
315.912
315.691
315.45
315.2
314.956
314.732
314.564
310.429
310.547
310.707
310.882
311.06
311.232
311.39
311.521
311.616
311.666
311.666
311.616
311.521
311.39
311.232
311.06
310.882
310.707
310.547
310.429
306.273
306.343
306.439
306.544
306.651
306.755
306.849
306.928
306.985
307.015
307.015
306.985
306.928
306.849
306.755
306.651
306.544
306.439
306.343
306.273
302.104
302.128
302.16
302.195
302.231
302.266
302.297
302.324
302.343
302.353
302.353
302.343
302.324
302.297
302.266
302.231
302.195
302.16
302.128
302.104
331.312
331.681
332.146
332.645
333.151
333.64
334.085
334.456
334.723
334.863
334.863
334.723
334.456
334.085
333.64
333.151
332.645
332.146
331.681
331.312
327.268
327.58
327.981
328.413
328.851
329.275
329.66
329.981
330.212
330.333
330.333
330.212
329.981
329.66
329.275
328.851
328.413
327.981
327.58
327.268
323.169
323.427
323.765
324.131
324.501
324.859
325.185
325.456
325.651
325.753
325.753
325.651
325.456
325.185
324.859
324.501
324.131
323.765
323.427
323.169
319.023
319.231
319.507
319.805
320.108
320.401
320.667
320.888
321.048
321.132
321.132
321.048
320.888
320.667
320.401
320.108
319.805
319.507
319.231
319.023
314.839
314.999
315.213
315.445
315.68
315.908
316.115
316.287
316.411
316.476
316.476
316.411
316.287
316.115
315.908
315.68
315.445
315.213
314.999
314.839
310.626
310.739
310.891
311.057
311.225
311.388
311.535
311.658
311.747
311.793
311.793
311.747
311.658
311.535
311.388
311.225
311.057
310.891
310.739
310.626
306.391
306.459
306.55
306.65
306.751
306.848
306.937
307.011
307.064
307.092
307.092
307.064
307.011
306.937
306.848
306.751
306.65
306.55
306.459
306.391
302.144
302.166
302.197
302.23
302.264
302.297
302.327
302.351
302.369
302.378
302.378
302.369
302.351
302.327
302.297
302.264
302.23
302.197
302.166
302.144
331.994
332.345
332.785
333.255
333.73
334.187
334.6
334.944
335.191
335.32
335.32
335.191
334.944
334.6
334.187
333.73
333.255
332.785
332.345
331.994
327.862
328.158
328.538
328.945
329.356
329.752
330.11
330.407
330.621
330.733
330.733
330.621
330.407
330.11
329.752
329.356
328.945
328.538
328.158
327.862
323.673
323.919
324.239
324.583
324.931
325.265
325.568
325.819
326
326.094
326.094
326
325.819
325.568
325.265
324.931
324.583
324.239
323.919
323.673
319.437
319.635
319.896
320.177
320.462
320.735
320.983
321.188
321.335
321.412
321.412
321.335
321.188
320.983
320.735
320.462
320.177
319.896
319.635
319.437
315.162
315.314
315.516
315.735
315.956
316.169
316.361
316.521
316.635
316.695
316.695
316.635
316.521
316.361
316.169
315.956
315.735
315.516
315.314
315.162
310.857
310.964
311.109
311.265
311.423
311.575
311.712
311.826
311.908
311.951
311.951
311.908
311.826
311.712
311.575
311.423
311.265
311.109
310.964
310.857
306.53
306.594
306.681
306.775
306.87
306.961
307.043
307.112
307.161
307.186
307.186
307.161
307.112
307.043
306.961
306.87
306.775
306.681
306.594
306.53
302.19
302.212
302.241
302.272
302.304
302.335
302.362
302.385
302.402
302.41
302.41
302.402
302.385
302.362
302.335
302.304
302.272
302.241
302.212
302.19
332.781
333.112
333.526
333.966
334.409
334.832
335.214
335.53
335.756
335.874
335.874
335.756
335.53
335.214
334.832
334.409
333.966
333.526
333.112
332.781
328.546
328.826
329.184
329.565
329.948
330.315
330.646
330.919
331.115
331.217
331.217
331.115
330.919
330.646
330.315
329.948
329.565
329.184
328.826
328.546
324.255
324.487
324.788
325.11
325.435
325.745
326.024
326.255
326.421
326.507
326.507
326.421
326.255
326.024
325.745
325.435
325.11
324.788
324.487
324.255
319.914
320.101
320.347
320.61
320.876
321.129
321.358
321.547
321.682
321.753
321.753
321.682
321.547
321.358
321.129
320.876
320.61
320.347
320.101
319.914
315.534
315.678
315.868
316.073
316.279
316.477
316.654
316.801
316.906
316.961
316.961
316.906
316.801
316.654
316.477
316.279
316.073
315.868
315.678
315.534
311.124
311.225
311.361
311.507
311.655
311.795
311.922
312.027
312.102
312.142
312.142
312.102
312.027
311.922
311.795
311.655
311.507
311.361
311.225
311.124
306.691
306.751
306.833
306.92
307.009
307.094
307.17
307.233
307.278
307.301
307.301
307.278
307.233
307.17
307.094
307.009
306.92
306.833
306.751
306.691
302.244
302.264
302.292
302.321
302.351
302.379
302.405
302.426
302.441
302.449
302.449
302.441
302.426
302.405
302.379
302.351
302.321
302.292
302.264
302.244
333.674
333.984
334.372
334.782
335.192
335.582
335.932
336.22
336.426
336.534
336.534
336.426
336.22
335.932
335.582
335.192
334.782
334.372
333.984
333.674
329.324
329.587
329.921
330.276
330.631
330.969
331.272
331.522
331.7
331.793
331.793
331.7
331.522
331.272
330.969
330.631
330.276
329.921
329.587
329.324
324.915
325.133
325.415
325.715
326.015
326.301
326.558
326.769
326.92
326.998
326.998
326.92
326.769
326.558
326.301
326.015
325.715
325.415
325.133
324.915
320.456
320.632
320.862
321.107
321.353
321.587
321.796
321.969
322.092
322.157
322.157
322.092
321.969
321.796
321.587
321.353
321.107
320.862
320.632
320.456
315.957
316.092
316.27
316.461
316.652
316.834
316.997
317.131
317.227
317.277
317.277
317.227
317.131
316.997
316.834
316.652
316.461
316.27
316.092
315.957
311.426
311.522
311.649
311.785
311.921
312.051
312.168
312.264
312.332
312.368
312.368
312.332
312.264
312.168
312.051
311.921
311.785
311.649
311.522
311.426
306.873
306.929
307.006
307.088
307.17
307.248
307.318
307.375
307.416
307.438
307.438
307.416
307.375
307.318
307.248
307.17
307.088
307.006
306.929
306.873
302.305
302.324
302.35
302.377
302.405
302.431
302.454
302.474
302.487
302.495
302.495
302.487
302.474
302.454
302.431
302.405
302.377
302.35
302.324
302.305
334.674
334.965
335.326
335.706
336.083
336.441
336.76
337.022
337.208
337.306
337.306
337.208
337.022
336.76
336.441
336.083
335.706
335.326
334.965
334.674
330.195
330.441
330.752
331.081
331.408
331.718
331.995
332.222
332.383
332.467
332.467
332.383
332.222
331.995
331.718
331.408
331.081
330.752
330.441
330.195
325.655
325.859
326.121
326.4
326.676
326.938
327.172
327.364
327.501
327.572
327.572
327.501
327.364
327.172
326.938
326.676
326.4
326.121
325.859
325.655
321.064
321.228
321.442
321.67
321.896
322.11
322.302
322.459
322.57
322.629
322.629
322.57
322.459
322.302
322.11
321.896
321.67
321.442
321.228
321.064
316.431
316.557
316.723
316.9
317.076
317.243
317.392
317.514
317.6
317.646
317.646
317.6
317.514
317.392
317.243
317.076
316.9
316.723
316.557
316.431
311.766
311.855
311.973
312.099
312.225
312.344
312.451
312.538
312.6
312.632
312.632
312.6
312.538
312.451
312.344
312.225
312.099
311.973
311.855
311.766
307.077
307.13
307.201
307.277
307.352
307.424
307.488
307.54
307.577
307.597
307.597
307.577
307.54
307.488
307.424
307.352
307.277
307.201
307.13
307.077
302.374
302.392
302.415
302.441
302.466
302.49
302.511
302.529
302.541
302.548
302.548
302.541
302.529
302.511
302.49
302.466
302.441
302.415
302.392
302.374
335.785
336.056
336.39
336.741
337.087
337.413
337.703
337.939
338.108
338.195
338.195
338.108
337.939
337.703
337.413
337.087
336.741
336.39
336.056
335.785
331.162
331.391
331.68
331.983
332.283
332.566
332.817
333.022
333.167
333.243
333.243
333.167
333.022
332.817
332.566
332.283
331.983
331.68
331.391
331.162
326.477
326.667
326.91
327.166
327.42
327.659
327.872
328.045
328.168
328.232
328.232
328.168
328.045
327.872
327.659
327.42
327.166
326.91
326.667
326.477
321.738
321.891
322.089
322.299
322.507
322.703
322.877
323.018
323.119
323.172
323.172
323.119
323.018
322.877
322.703
322.507
322.299
322.089
321.891
321.738
316.957
317.074
317.228
317.391
317.553
317.705
317.84
317.951
318.029
318.07
318.07
318.029
317.951
317.84
317.705
317.553
317.391
317.228
317.074
316.957
312.142
312.225
312.335
312.451
312.567
312.676
312.772
312.851
312.907
312.936
312.936
312.907
312.851
312.772
312.676
312.567
312.451
312.335
312.225
312.142
307.303
307.353
307.418
307.488
307.558
307.623
307.681
307.728
307.762
307.78
307.78
307.762
307.728
307.681
307.623
307.558
307.488
307.418
307.353
307.303
302.45
302.466
302.488
302.512
302.535
302.557
302.576
302.592
302.603
302.609
302.609
302.603
302.592
302.576
302.557
302.535
302.512
302.488
302.466
302.45
337.007
337.258
337.567
337.889
338.205
338.501
338.763
338.977
339.128
339.206
339.206
339.128
338.977
338.763
338.501
338.205
337.889
337.567
337.258
337.007
332.226
332.438
332.705
332.983
333.257
333.514
333.741
333.926
334.057
334.125
334.125
334.057
333.926
333.741
333.514
333.257
332.983
332.705
332.438
332.226
327.38
327.556
327.781
328.016
328.248
328.466
328.658
328.814
328.925
328.982
328.982
328.925
328.814
328.658
328.466
328.248
328.016
327.781
327.556
327.38
322.48
322.622
322.805
322.998
323.187
323.365
323.523
323.651
323.741
323.788
323.788
323.741
323.651
323.523
323.365
323.187
322.998
322.805
322.622
322.48
317.535
317.644
317.786
317.936
318.084
318.222
318.345
318.444
318.514
318.551
318.551
318.514
318.444
318.345
318.222
318.084
317.936
317.786
317.644
317.535
312.556
312.633
312.734
312.841
312.947
313.046
313.133
313.204
313.255
313.281
313.281
313.255
313.204
313.133
313.046
312.947
312.841
312.734
312.633
312.556
307.552
307.598
307.659
307.723
307.787
307.846
307.898
307.941
307.971
307.987
307.987
307.971
307.941
307.898
307.846
307.787
307.723
307.659
307.598
307.552
302.533
302.549
302.569
302.59
302.612
302.632
302.649
302.664
302.674
302.679
302.679
302.674
302.664
302.649
302.632
302.612
302.59
302.569
302.549
302.533
338.34
338.573
338.857
339.151
339.439
339.708
339.944
340.136
340.271
340.341
340.341
340.271
340.136
339.944
339.708
339.439
339.151
338.857
338.573
338.34
333.386
333.583
333.828
334.083
334.333
334.565
334.77
334.936
335.053
335.114
335.114
335.053
334.936
334.77
334.565
334.333
334.083
333.828
333.583
333.386
328.366
328.529
328.735
328.951
329.162
329.359
329.533
329.673
329.772
329.823
329.823
329.772
329.673
329.533
329.359
329.162
328.951
328.735
328.529
328.366
323.289
323.42
323.588
323.765
323.938
324.099
324.241
324.356
324.437
324.479
324.479
324.437
324.356
324.241
324.099
323.938
323.765
323.588
323.42
323.289
318.166
318.267
318.397
318.535
318.669
318.795
318.905
318.995
319.058
319.09
319.09
319.058
318.995
318.905
318.795
318.669
318.535
318.397
318.267
318.166
313.008
313.079
313.172
313.27
313.366
313.456
313.535
313.599
313.644
313.667
313.667
313.644
313.599
313.535
313.456
313.366
313.27
313.172
313.079
313.008
307.824
307.866
307.922
307.981
308.039
308.093
308.14
308.178
308.205
308.219
308.219
308.205
308.178
308.14
308.093
308.039
307.981
307.922
307.866
307.824
302.624
302.639
302.657
302.677
302.696
302.714
302.73
302.743
302.752
302.757
302.757
302.752
302.743
302.73
302.714
302.696
302.677
302.657
302.639
302.624
339.783
339.997
340.258
340.527
340.789
341.031
341.244
341.416
341.536
341.599
341.599
341.536
341.416
341.244
341.031
340.789
340.527
340.258
339.997
339.783
334.641
334.823
335.048
335.281
335.508
335.718
335.902
336.051
336.156
336.21
336.21
336.156
336.051
335.902
335.718
335.508
335.281
335.048
334.823
334.641
329.431
329.582
329.771
329.968
330.16
330.339
330.495
330.62
330.709
330.755
330.755
330.709
330.62
330.495
330.339
330.16
329.968
329.771
329.582
329.431
324.163
324.284
324.439
324.6
324.757
324.903
325.031
325.134
325.206
325.244
325.244
325.206
325.134
325.031
324.903
324.757
324.6
324.439
324.284
324.163
318.848
318.941
319.061
319.186
319.308
319.422
319.521
319.601
319.658
319.687
319.687
319.658
319.601
319.521
319.422
319.308
319.186
319.061
318.941
318.848
313.496
313.561
313.647
313.736
313.824
313.905
313.976
314.033
314.074
314.094
314.094
314.074
314.033
313.976
313.905
313.824
313.736
313.647
313.561
313.496
308.117
308.156
308.208
308.261
308.314
308.363
308.405
308.44
308.464
308.476
308.476
308.464
308.44
308.405
308.363
308.314
308.261
308.208
308.156
308.117
302.723
302.736
302.753
302.771
302.789
302.805
302.819
302.831
302.839
302.843
302.843
302.839
302.831
302.819
302.805
302.789
302.771
302.753
302.736
302.723
341.329
341.526
341.765
342.01
342.248
342.467
342.658
342.811
342.919
342.974
342.974
342.919
342.811
342.658
342.467
342.248
342.01
341.765
341.526
341.329
335.985
336.152
336.358
336.571
336.777
336.967
337.132
337.265
337.359
337.407
337.407
337.359
337.265
337.132
336.967
336.777
336.571
336.358
336.152
335.985
330.571
330.71
330.884
331.063
331.238
331.398
331.538
331.651
331.73
331.771
331.771
331.73
331.651
331.538
331.398
331.238
331.063
330.884
330.71
330.571
325.098
325.209
325.351
325.498
325.641
325.772
325.887
325.979
326.044
326.078
326.078
326.044
325.979
325.887
325.772
325.641
325.498
325.351
325.209
325.098
319.576
319.662
319.772
319.886
319.997
320.1
320.189
320.261
320.311
320.337
320.337
320.311
320.261
320.189
320.1
319.997
319.886
319.772
319.662
319.576
314.017
314.077
314.156
314.237
314.317
314.39
314.454
314.505
314.541
314.56
314.56
314.541
314.505
314.454
314.39
314.317
314.237
314.156
314.077
314.017
308.43
308.466
308.513
308.563
308.61
308.654
308.693
308.723
308.745
308.756
308.756
308.745
308.723
308.693
308.654
308.61
308.563
308.513
308.466
308.43
302.828
302.84
302.856
302.872
302.888
302.903
302.916
302.926
302.933
302.937
302.937
302.933
302.926
302.916
302.903
302.888
302.872
302.856
302.84
302.828
342.96
343.142
343.36
343.584
343.799
343.996
344.168
344.305
344.401
344.451
344.451
344.401
344.305
344.168
343.996
343.799
343.584
343.36
343.142
342.96
337.401
337.554
337.743
337.937
338.123
338.294
338.443
338.562
338.646
338.689
338.689
338.646
338.562
338.443
338.294
338.123
337.937
337.743
337.554
337.401
331.77
331.897
332.056
332.22
332.378
332.523
332.649
332.75
332.821
332.857
332.857
332.821
332.75
332.649
332.523
332.378
332.22
332.056
331.897
331.77
326.08
326.182
326.312
326.446
326.575
326.694
326.797
326.88
326.938
326.967
326.967
326.938
326.88
326.797
326.694
326.575
326.446
326.312
326.182
326.08
320.34
320.419
320.519
320.624
320.724
320.817
320.897
320.962
321.006
321.03
321.03
321.006
320.962
320.897
320.817
320.724
320.624
320.519
320.419
320.34
314.563
314.618
314.69
314.765
314.837
314.903
314.96
315.006
315.038
315.055
315.055
315.038
315.006
314.96
314.903
314.837
314.765
314.69
314.618
314.563
308.758
308.792
308.835
308.879
308.923
308.962
308.997
309.024
309.044
309.054
309.054
309.044
309.024
308.997
308.962
308.923
308.879
308.835
308.792
308.758
302.938
302.949
302.963
302.978
302.993
303.006
303.018
303.027
303.033
303.037
303.037
303.033
303.027
303.018
303.006
302.993
302.978
302.963
302.949
302.938
344.633
344.799
345
345.204
345.399
345.578
345.732
345.855
345.941
345.985
345.985
345.941
345.855
345.732
345.578
345.399
345.204
345
344.799
344.633
338.845
338.986
339.159
339.336
339.505
339.66
339.795
339.901
339.976
340.015
340.015
339.976
339.901
339.795
339.66
339.505
339.336
339.159
338.986
338.845
332.988
333.105
333.251
333.401
333.544
333.676
333.789
333.88
333.943
333.976
333.976
333.943
333.88
333.789
333.676
333.544
333.401
333.251
333.105
332.988
327.073
327.167
327.286
327.409
327.527
327.634
327.727
327.802
327.853
327.88
327.88
327.853
327.802
327.727
327.634
327.527
327.409
327.286
327.167
327.073
321.111
321.183
321.276
321.371
321.463
321.547
321.619
321.677
321.717
321.738
321.738
321.717
321.677
321.619
321.547
321.463
321.371
321.276
321.183
321.111
315.113
315.164
315.23
315.298
315.363
315.423
315.475
315.516
315.545
315.56
315.56
315.545
315.516
315.475
315.423
315.363
315.298
315.23
315.164
315.113
309.088
309.119
309.158
309.199
309.239
309.275
309.306
309.331
309.348
309.357
309.357
309.348
309.331
309.306
309.275
309.239
309.199
309.158
309.119
309.088
303.048
303.058
303.072
303.085
303.099
303.111
303.121
303.129
303.135
303.138
303.138
303.135
303.129
303.121
303.111
303.099
303.085
303.072
303.058
303.048
346.235
346.389
346.574
346.762
346.94
347.103
347.243
347.355
347.432
347.472
347.472
347.432
347.355
347.243
347.103
346.94
346.762
346.574
346.389
346.235
340.212
340.343
340.503
340.665
340.82
340.962
341.084
341.181
341.248
341.283
341.283
341.248
341.181
341.084
340.962
340.82
340.665
340.503
340.343
340.212
334.129
334.237
334.372
334.51
334.642
334.762
334.865
334.947
335.005
335.034
335.034
335.005
334.947
334.865
334.762
334.642
334.51
334.372
334.237
334.129
327.995
328.082
328.193
328.305
328.413
328.512
328.597
328.664
328.711
328.735
328.735
328.711
328.664
328.597
328.512
328.413
328.305
328.193
328.082
327.995
321.821
321.888
321.974
322.062
322.146
322.223
322.289
322.341
322.378
322.397
322.397
322.378
322.341
322.289
322.223
322.146
322.062
321.974
321.888
321.821
315.616
315.664
315.725
315.788
315.848
315.903
315.95
315.988
316.014
316.027
316.027
316.014
315.988
315.95
315.903
315.848
315.788
315.725
315.664
315.616
309.389
309.417
309.454
309.492
309.528
309.561
309.59
309.612
309.628
309.636
309.636
309.628
309.612
309.59
309.561
309.528
309.492
309.454
309.417
309.389
303.149
303.158
303.171
303.183
303.195
303.206
303.216
303.224
303.229
303.232
303.232
303.229
303.224
303.216
303.206
303.195
303.183
303.171
303.158
303.149
347.484
347.629
347.802
347.978
348.145
348.297
348.427
348.531
348.603
348.64
348.64
348.603
348.531
348.427
348.297
348.145
347.978
347.802
347.629
347.484
341.237
341.36
341.511
341.664
341.81
341.942
342.056
342.146
342.209
342.241
342.241
342.209
342.146
342.056
341.942
341.81
341.664
341.511
341.36
341.237
334.957
335.06
335.188
335.318
335.442
335.554
335.651
335.728
335.781
335.809
335.809
335.781
335.728
335.651
335.554
335.442
335.318
335.188
335.06
334.957
328.649
328.732
328.836
328.943
329.045
329.137
329.217
329.28
329.324
329.346
329.346
329.324
329.28
329.217
329.137
329.045
328.943
328.836
328.732
328.649
322.315
322.379
322.46
322.543
322.623
322.695
322.757
322.807
322.841
322.859
322.859
322.841
322.807
322.757
322.695
322.623
322.543
322.46
322.379
322.315
315.962
316.007
316.065
316.125
316.181
316.233
316.278
316.313
316.338
316.35
316.35
316.338
316.313
316.278
316.233
316.181
316.125
316.065
316.007
315.962
309.594
309.621
309.656
309.691
309.726
309.757
309.784
309.805
309.82
309.827
309.827
309.82
309.805
309.784
309.757
309.726
309.691
309.656
309.621
309.594
303.217
303.226
303.238
303.25
303.261
303.272
303.281
303.288
303.293
303.295
303.295
303.293
303.288
303.281
303.272
303.261
303.25
303.238
303.226
303.217
)
;

boundaryField
{
    hotSide
    {
        type            fixedGradient;
        gradient        nonuniform List<scalar> 
400
(
297.959
298.921
300.849
303.752
307.643
312.538
318.456
325.417
333.441
342.549
352.762
364.098
376.575
390.209
405.013
420.999
438.176
456.553
476.136
496.93
303.663
304.579
306.418
309.192
312.918
317.617
323.314
330.034
337.804
346.652
356.601
367.676
379.897
393.283
407.85
423.611
440.577
458.757
478.156
498.78
309.835
310.697
312.431
315.051
318.582
323.05
328.487
334.928
342.406
350.955
360.605
371.386
383.322
396.434
410.742
426.259
442.998
460.966
480.17
500.615
316.374
317.173
318.784
321.227
324.532
328.735
333.877
340.002
347.151
355.367
364.687
375.146
386.771
399.59
413.621
428.88
445.379
463.128
482.132
502.393
323.096
323.826
325.298
327.542
330.596
334.505
339.323
345.102
351.895
359.753
368.721
378.839
390.141
402.653
416.4
431.396
447.654
465.182
483.985
504.066
329.723
330.376
331.702
333.734
336.521
340.121
344.598
350.017
356.443
363.934
372.545
382.32
393.298
405.509
418.975
433.715
449.74
467.057
485.67
505.579
335.873
336.451
337.63
339.452
341.975
345.27
349.413
354.483
360.555
367.696
375.967
385.419
396.094
408.024
421.233
435.739
451.552
468.678
487.12
506.877
341.094
341.604
342.65
344.282
346.569
349.593
353.442
358.204
363.965
370.801
378.779
387.954
398.371
410.064
423.057
437.367
453.004
469.973
488.274
507.906
344.914
345.372
346.317
347.805
349.912
352.73
356.356
360.887
366.416
373.025
380.786
389.758
399.986
411.505
424.341
438.51
454.02
470.877
489.078
508.621
346.938
347.367
348.257
349.667
351.677
354.383
357.888
362.295
367.699
374.187
381.833
390.696
400.824
412.252
425.005
439.1
454.544
471.341
489.491
508.988
346.938
347.367
348.257
349.667
351.677
354.383
357.888
362.295
367.699
374.187
381.833
390.696
400.824
412.252
425.005
439.1
454.544
471.341
489.491
508.988
344.914
345.372
346.317
347.805
349.912
352.73
356.356
360.887
366.416
373.025
380.786
389.758
399.986
411.505
424.341
438.51
454.02
470.877
489.078
508.621
341.094
341.604
342.65
344.282
346.569
349.593
353.442
358.204
363.965
370.801
378.779
387.954
398.371
410.064
423.057
437.367
453.004
469.973
488.274
507.906
335.873
336.451
337.63
339.452
341.975
345.27
349.413
354.483
360.555
367.696
375.967
385.419
396.094
408.024
421.233
435.739
451.552
468.678
487.12
506.877
329.723
330.376
331.702
333.734
336.521
340.121
344.598
350.017
356.443
363.934
372.545
382.32
393.298
405.509
418.975
433.715
449.74
467.057
485.67
505.579
323.096
323.826
325.298
327.542
330.596
334.505
339.323
345.102
351.895
359.753
368.721
378.839
390.141
402.653
416.4
431.396
447.654
465.182
483.985
504.066
316.374
317.173
318.784
321.227
324.532
328.735
333.877
340.002
347.151
355.367
364.687
375.146
386.771
399.59
413.621
428.88
445.379
463.128
482.132
502.393
309.835
310.697
312.431
315.051
318.582
323.05
328.487
334.928
342.406
350.955
360.605
371.386
383.322
396.434
410.742
426.259
442.998
460.966
480.17
500.615
303.663
304.579
306.418
309.192
312.918
317.617
323.314
330.034
337.804
346.652
356.601
367.676
379.897
393.283
407.85
423.611
440.577
458.757
478.156
498.78
297.959
298.921
300.849
303.752
307.643
312.538
318.456
325.417
333.441
342.549
352.762
364.098
376.575
390.209
405.013
420.999
438.176
456.553
476.136
496.93
)
;
    }
    coldSide
    {
        type            mixed;
        refValue        uniform 300;
        refGradient     uniform 0;
        valueFraction   uniform 0.991591;
        source          uniform 0;
        value           nonuniform List<scalar> 
400
(
300.017
300.017
300.017
300.017
300.017
300.018
300.018
300.018
300.019
300.019
300.02
300.021
300.021
300.022
300.023
300.024
300.025
300.026
300.026
300.027
300.017
300.017
300.017
300.017
300.018
300.018
300.018
300.019
300.019
300.02
300.02
300.021
300.021
300.022
300.023
300.024
300.025