/*--------------------------------*- C++ -*----------------------------------*\
| =========                 |                                                 |
| \\      /  F ield         | OpenFOAM: The Open Source CFD Toolbox           |
|  \\    /   O peration     | Version:  2212                                  |
|   \\  /    A nd           | Website:  www.openfoam.com                      |
|    \\/     M anipulation  |                                                 |
\*---------------------------------------------------------------------------*/
FoamFile
{
    version     2.0;
    format      ascii;
    arch        "LSB;label=32;scalar=64";
    class       volScalarField;
    location    "0";
    object      stateMean;
}
// * * * * * * * * * * * * * * * * * * * * * * * * * * * * * * * * * * * * * //

dimensions      [0 0 0 1 0 0 0];

internalField   nonuniform List<scalar> 
3200
(
345.274
350.106
346.803
348.769
354.76
352.114
349.458
355.873
354.169
355.077
353.27
353.309
350.787
354.121
348.402
348.938
345.527
348.127
346.073
344.059
342.345
348.022
345.123
343.496
343.45
344.958
345.243
348.366
351.586
348.166
344.964
341.374
348.609
341.912
344.824
340.224
339.052
342.812
339.873
337.086
337.973
331.811
335.98
335.52
337.035
335.52
338.198
335.092
340.031
341.246
337.199
338.565
342.32
335.451
338.193
336.557
333.385
332.051
332.07
334.806
326.25
326.837
330.922
333.145
335.608
329.991
331.893
328.29
335.606
333.451
330.338
332.516
328.839
329.874
328.668
327.456
328.277
330.7
329.326
326.295
319.345
325.443
318.582
322.988
322.517
323.979
322.652
320.597
327.353
321.716
322.889
327.549
326.983
323.843
327.271
325.04
322.86
327.005
322.788
324.072
317.809
318.89
318.02
316.501
315.51
314.496
317.168
319.28
317.631
314.884
318.639
315.785
317.429
316.173
319.996
316.815
315.353
317.514
315.425
317.65
310.395
310.103
311.826
311.565
307.532
311.566
313.4
313.285
312.096
312.641
309.363
310.197
311.383
313.449
310.609
309.025
309.524
307.509
308.383
307.48
301.532
301.798
304.412
302.093
301.271
306.703
307.525
304.529
304.737
305.422
306.024
304.129
297.492
303.517
303.31
305.602
298.368
303.127
300.838
304.509
348.677
346.642
352.887
350.361
352.909
350.344
352.096
353.496
351.926
350.151
358.009
355.041
352.426
351.666
347.8
351.953
351.024
348.693
346.648
342.648
339.833
341.621
338.722
345.255
348.685
344.736
343.98
347.069
346.886
348.522
346.67
344.325
347.095
342.023
346.068
346.335
344.161
339.382
341.343
340.322
335.867
336.082
336.687
340.821
340.215
336.733
336.126
339.791
339.59
334.595
339.295
336.843
344.124
337.655
338.951
337.088
338.735
336.248
339.168
333.57
327.921
328.401
330.911
330.723
330.594
329.074
331.287
332.082
330.822
330.016
329.642
335.137
332.45
333.253
327.88
336.397
326.902
325.092
330.687
326.306
326.034
324.878
328.503
327.817
325.416
321.071
331.565
324.284
325.093
321.876
320.955
324.618
325.638
323.451
322.243
320.292
322.304
319.897
321.27
321.766
317.765
319.309
313.634
316.203
313.76
316.942
317.323
314.897
313.021
319.153
316.821
318.828
314.916
323.531
316.284
316.707
317.87
315.003
311.071
314.21
309.621
311.935
312.153
308.977
308.581
311.513
310.361
311.956
309.45
312.005
308.672
312.545
307.203
311.004
310.196
311.36
307.802
308.234
309.582
306.972
303.421
304.277
302.07
303.962
303.586
303.066
301.98
306.499
307.208
304.536
302.871
307.98
300.64
303.803
304.28
302.225
300.821
301.365
300.157
303.149
348.591
350.299
349.08
353.618
352.374
354.394
355.965
352.233
355.6
353.212
351.589
352.496
353.179
357.731
353.851
349.469
351.145
352.598
349.7
347.666
345.446
342.596
342.419
346.085
342.673
346.733
345.842
346.013
346.32
349.757
349.098
346.785
351.023
351.347
350.28
344.09
349.17
344.675
341.025
343.844
336.37
338.468
339.654
340.715
339.129
341.372
338.46
339.411
341.519
340.666
341.474
339.111
343.361
339.673
339.673
340.164
334.001
335.936
334.692
335.454
330.818
331.477
333.977
333.9
331.25
332.415
330.007
330.455
335.151
336.938
334.328
335.802
327.37
335.028
329.987
334.103
332.749
333.138
330.278
329.251
326.313
324.66
327.519
323.348
324.49
324.131
328.814
326.692
325.79
324.229
327.622
324.186
323.328
324.27
324.525
321.94
325.462
329.254
321.362
322.812
318.871
314.327
313.363
317.972
320.792
317.373
315.122
320.651
315.985
321.812
316.745
321.848
322.477
318.645
314.266
319.376
315.313
316.617
315.062
316.323
309.974
306.698
311.292
310.94
305.008
307.302
314.415
314.221
309.548
310.696
310.678
311.012
314.186
312.594
312.771
310.905
310.428
311.15
309.556
308.06
308.291
305.279
308.47
299.434
306.541
304.011
307.622
302.438
303.019
306.481
304.79
305.887
303.747
306.783
303.62
304.379
303.931
306.488
304.508
300.273
345.805
351.627
354.126
352.095
353.945
357.416
357.766
355.907
355.966
358.155
358.207
356.291
355.833
351.063
350.964
355.934
354.607
350.014
350.166
349.433
340.973
343.98
344.363
347.955
347.019
345.535
349.121
347.992
344.6
348.734
347.288
353.836
347.437
347.105
346.172
351.398
345.187
344.475
343.189
343.589
335.85
330.265
343.477
342.711
341.628
339.967
341.65
342.402
343.815
338.633
343.487
344.766
339.985
344.606
338.723
338.749
341.601
335.394
339.1
333.334
330.446
335.574
334.106
331.11
336.605
334.576
333.215
333.633
330.96
331.257
334.133
332.589
335.416
333.507
334.082
332.305
330.256
333.36
330.45
327.18
322.541
324.231
324.369
330.237
321.185
328.68
325.46
327.696
325.78
331.295
329.28
325.812
325.125
322.173
321.852
326.696
322.093
320.895
322.634
321.414
322.141
314.784
318.384
318.974
314.493
321.365
321.142
316.224
320.036
317.461
316.881
317.989
321.65
320.533
321.569
316.502
316.192
314.121
317.268
316.881
310.832
309.862
308.403
311.215
313.496
312.229
309.422
313.198
313.998
308.879
312.498
307.781
305.231
311.692
312.59
308.414
314.042
310.801
311.723
309.522
302.401
302.784
302.337
306.193
300.652
304.356
305.321
301.012
299.85
303.992
305.027
304.606
305.058
302.761
304.398
307.729
303.948
301.94
306.47
304.342
353.016
351.828
351.953
356.361
352.536
355.125
359.648
358.878
358.633
356.732
355.859
357.818
356.124
357.68
357.424
357.783
355.367
353.673
347.596
349.998
342.627
346.897
346.07
348.428
352.484
350.941
351.804
350.715
351.734
352.71
348.369
348.352
346.94
348.067
345.041
346.911
345.444
345.178
346.908
342.947
335.574
339.616
338.705
338.585
340.786
341.583
339.629
339.11
343.134
341.474
339.489
342.461
341.866
340.982
338.697
343.17
342.198
340.483
340.441
337.505
332.851
333.513
332.376
335.626
334.119
335.74
335.587
338.716
330.977
331.126
337.288
335.602
332.782
333.501
331.734
334.564
334.758
330.423
330.522
331.287
325.738
323.638
327.595
326.578
327.558
326.644
330.826
328.398
326.895
326.325
326.26
328.023
326.187
329.987
322.893
325.82
324.92
325.601
328.95
318.179
314.816
318.733
317.248
317.568
320.147
320.238
319.882
320.281
318.392
317.304
319.745
319.728
321.526
316.937
317.169
321.709
324.754
323.718
316.966
315.013
312.981
311.465
312.989
311.517
311.228
316.214
312.369
309.402
308.831
316.976
315.159
314.996
314.881
312.209
311.728
312.033
313.861
315.509
311.766
308.87
305.422
301.46
301.94
302.014
306.109
302.287
304.523
305.039
302.218
306.807
307.107
300.985
306.451
301.454
303.107
301.99
302.95
306.22
306.109
302.902
352.513
352.426
357.22
356.771
357.718
358.65
357.242
362.696
357.267
355.948
359.142
361.815
353.015
356.832
353.815
353.481
356.377
352.714
349.205
347.799
342.127
345.23
347.999
346.89
349.713
348.148
352.863
348.316
348.685
349.386
349.934
348.64
348.397
350.834
345.82
347.254
345.51
341.921
343.797
340.901
338.095
338.43
343.155
343.886
343.831
343.783
344.607
348.085
345.233
345.23
341.608
342.987
339.93
341.202
342.918
337.984
338.926
335.652
334.709
336.65
332.731
336.095
333.611
334.919
334.559
340.1
336.683
332.844
333.869
333.017
337.059
333.079
337.178
334.965
329.19
332.045
334.485
329.345
331.666
330.585
325.741
324.462
328.572
324.848
329.748
323.802
330.189
328.095
325.956
330.697
329.072
325.651
325.795
325.788
327.481
324.324
323.426
326.105
324.321
325.545
321.054
321.465
315.648
319.238
321.32
320.263
321.278
320.536
322.6
321.039
320.856
319.518
317.79
318.485
317.891
321.115
319.518
316.004
316.488
316.273
311.054
311.598
312.773
308.91
307.542
314.402
314.903
309.845
310.876
313.061
312.021
309.192
311.114
314.178
314.344
314.566
307.375
309.962
315.536
310.122
306.63
307.189
299.482
305.009
308.831
308.293
308.845
307.722
302.327
305.548
302.569
308.624
304.402
303.886
296.693
301.375
305.372
307.78
304.314
305.295
350.811
356.283
355.277
354.374
358.059
363.26
362.054
362
362.879
359.898
358.675
356.966
358.833
359.698
362.124
359.446
353.852
352.655
355.051
360.036
348.473
341.241
353.986
349.628
352.716
349.771
353.98
352.512
354.16
351.196
348.387
357.686
350.855
350.627
346.607
350.325
344.343
345.188
346.832
345.502
340.837
343.056
340.731
341.55
341.548
344.564
340.51
341.721
341.113
343.359
344.035
344.144
346.154
341.075
342.565
341.051
344.098
339.41
340.057
339.03
329.555
334.277
335.026
335.234
336.279
335.671
336.248
333.6
334.244
333.545
336.433
336.348
337.113
334.379
338.808
332.464
333.232
334.626
327.704
333.101
325.932
320.691
330.757
326.554
326.86
325.689
328.636
325.363
330.291
331.06
324.1
330.454
328.314
327.17
327.572
324.454
326.828
326.487
324.107
325.956
320.512
318.65
317.759
322.24
319.009
321.054
318.291
316.051
324.777
323.148
320.641
319.209
320.116
320.482
318.823
317.634
319.073
315.705
319.133
317.613
312.534
310.89
313.513
312.807
311.396
313.426
308.597
313.502
313.424
310.177
314.157
311.732
310.11
314.822
312.599
311.739
310.487
311.896
318.102
309.776
305.812
299.8
306.138
303.852
301.852
303.577
303.322
303.363
305.647
303.755
306.097
305.494
305.264
302.163
308.677
303.497
303.955
306.93
303.376
306.56
352.909
357.366
358.595
358.828
360.795
360.993
360.855
366.044
360.36
358.218
364.524
361.883
358.122
365.276
357.789
357.491
362.547
355.37
356.538
356.455
343.969
346.284
347.412
351.191
354.423
348.333
355.286
350.21
350.931
349.492
350.516
355.245
349.15
348.815
348.296
356.335
347.413
345.043
345.222
344.307
342.497
344.477
335.584
340.807
345.05
340.709
345.089
347.558
345.338
346.005
347.393
347.976
344.892
343.952
345.061
346.155
341.8
340.402
340.736
338.224
334.023
332.888
333.731
338.892
335.49
336.196
340.01
335.417
340.073
339.035
335.335
337.906
335.689
335.794
340.199
337.553
333.011
332.344
331.651
334.1
324.222
324.396
325.991
325.815
330.33
330.447
330.828
326.886
330.133
329.808
327.325
329.919
331.301
324.735
327.369
326.769
330.355
322.577
325.305
325.914
319.938
318.582
320.353
321.253
320.285
322.192
323.081
319.597
316.489
320.461
318.134
323.503
322.029
320.492
319.208
320.13
319.559
318.526
319.723
314.513
315.461
315.042
309.578
308.009
312.902
311.526
312.833
312.801
318.609
309.804
315.069
316.658
311.471
309.295
310.602
315.303
311.277
314.27
309.146
312.974
305.419
303.71
302.079
302.945
302.954
301.93
306.668
303.767
304.926
301.906
301.469
302.232
304.339
299.301
306.611
306.58
306.043
297.091
300.876
302.814
358.432
356.815
360.297
363.021
358.508
360.994
365.391
363.755
363.464
366.838
363.049
359.12
360.676
365.719
361.225
358.439
360.772
358.69
354.993
356.276
352.32
354.49
347.189
355.438
349.267
356.617
356.126
353.346
357.232
358.199
352.154
352.318
355.74
351.939
352.15
354.216
348.723
351.979
347.391
348.672
336.375
342.363
338.601
347.124
345.572
345.32
348.044
348.698
347.234
346.981
347.195
349.244
342.107
349.28
349.293
344.273
348.039
342.309
341.545
341.629
330.276
331.981
336.351
331.856
336.451
339.889
336.392
334.961
337.306
337.474
336.298
338.706
333.25
338.151
334.902
337.853
336.093
331.063
335.081
332.334
327.103
330.604
330.432
326.534
327.606
331.372
329.854
328.425
325.223
331.753
327.802
329.021
328.487
335.974
328.451
326.787
328.991
326.259
325.832
325.029
316.9
320.334
322.502
321.388
318.647
319.072
320.734
316.799
321.631
321.517
322.059
324.29
317.299
322.147
322.173
320.734
320.942
321.398
316.715
321.114
309.731
309.061
311.103
311.55
311.499
309.524
312.776
310.843
308.551
309.214
315.393
313.715
312.179
312.569
309.51
313.189
309.22
311.427
311.334
312.84
303.806
304.666
301.253
306.133
300.217
302.853
300.585
304.532
304.723
303.907
304.332
296.245
300.772
303.253
300.582
304.557
303.965
307.086
303.594
307.406
359.339
363.792
356.579
360.761
360.353
366.258
366.448
369.395
363.197
361.649
367.066
365.862
361.043
362.681
363.515
359.89
362.05
362.821
355.109
357.187
351.242
348.169
352.623
352.028
356.35
350.296
351.306
351.663
355.619
352.708
352.254
355.97
351.419
355.047
350.593
348.19
349.292
351.988
348.331
349.403
343.613
343.773
346.244
347.301
345.097
346.24
347.438
349.134
348.35
345.86
349.185
343.031
346.543
347.006
351.192
346.607
346.086
346.735
341.021
343.07
336.327
334.088
338.033
334.547
336.6
341.064
335.97
338.931
339.002
335.635
339.241
339.138
341.265
343.004
336.611
335.629
331.914
340.011
334.79
336.111
324.762
328.343
323.394
335.772
333.646
324.69
327.675
328.418
331.666
332.191
326.763
327.445
330.896
327.991
328.785
328.673
328.337
324.741
328.096
327.993
319.743
317.235
318.344
323.189
321.314
321.633
320.61
323.432
323.177
321.595
321.267
322.642
316.535
328.23
323.348
315.812
323.441
315.94
318.073
316.094
307.121
313.7
312.82
310.133
311.839
312.883
309.437
315.728
315.443
312.254
312.47
310.55
308.627
317.617
308.582
316.143
313.801
313.283
310.37
311.556
299.786
305.124
304.821
308.644
307.353
302.898
308.868
302.866
304.09
305.424
304.26
304.288
307.945
304.898
309.934
303.736
303.19
302.295
303.081
298.128
363
360.445
361.574
361.18
364.843
361.623
365.785
364.295
367.702
360.959
360.041
365.929
367.962
361.354
365.777
358.373
359.653
358.833
357.543
354.499
349.58
353.256
356.977
354.394
356.072
351.586
357.789
351.998
356.808
353.089
352.954
355.439
352.893
350.694
351.035
359.024
350.434
351.796
349.653
350.735
339.265
343.432
344.119
347.361
346.42
348.538
348.58
350.16
347.81
349.824
346.987
343.119
347.651
345.396
350.318
343.099
341.481
343.038
338.519
340.842
335.939
338.551
337.22
337.865
340.137
343.557
337.964
342.052
341.276
339.898
339.526
341.005
345.984
336.117
334.545
333.881
335.234
334.57
340.161
333.842
324.841
326.078
329.908
325.178
331.105
330.476
329.978
335.265
333.204
331.603
327.538
326.771
329.616
328.85
329.196
330.695
331.792
328.287
325.944
323.986
318.992
321.501
319.384
320.245
322.825
320.65
317.997
320.49
320.984
322.625
317.281
322.067
322.205
321.708
321.444
321.628
318.613
316.629
323.273
321.042
314.346
314.883
313.551
312.918
309.326
313.534
312.569
316.793
315.541
319.09
312.175
313.817
316.103
310.903
312.412
312.446
314.194
311.33
310.043
315.807
305.22
307.627
302.195
302.834
301.49
305.121
306.883
303.861
306.867
305.833
305.779
302.855
304.682
306.448
303.764
303.352
305.086
308.307
307.854
303.993
359.857
364.211
361.169
360.844
365.346
365.475
369.856
369.839
367.091
363.722
364.949
370.718
364.798
367.299
366.339
363.434
362.307
362.679
360.502
357.644
353.616
349.091
352.639
357.054
356.102
358.011
358.758
359.713
357.745
359.949
357.779
357.185
355.495
358.765
355.43
353.824
355.523
350.725
352.491
353.151
341.647
349.403
347.965
344.729
348.916
348.655
345.925
349.932
349.312
349.343
346.995
346.467
345.69
346.304
349.309
351.185
342.378
344.461
342.237
339.743
335.6
336.395
337.924
338.427
335.49
340.037
338.276
338.781
340.243
344.876
343.574
342.78
339.273
339.144
337.865
337.857
336.653
339.479
332.598
338.237
327.022
328.547
329.587
330.494
330.584
330.599
330.096
333.598
331.603
335.722
327.209
333.322
332.248
331.033
330.428
330.652
328.104
330.373
328.632
330.171
319.556
319.92
324.4
320.642
321.673
320.537
324.026
319.852
324.079
326.351
317.758
323.05
319.854
319.76
323.902
323.088
321.121
323.667
317.867
317.557
309.946
310.913
313.466
311.7
313.211
313.378
314.389
311.633
307.64
313.843
311.772
311.735
316.779
315.99
311.481
316.424
317.141
312.79
309.113
310.615
305.323
298.566
300.605
307.183
304.832
304.374
309.088
300.567
300.184
301.262
304.778
308.03
304.566
301.344
307.319
308.835
302.347
304.124
305.861
302.446
364.041
363.353
367.274
366.564
366
364.264
364.195
364.63
368.531
366.263
367.574
365.724
362.277
366.062
366.46
364.728
360.767
362.341
360.754
353.734
354.409
353.299
353.426
351.155
356.506
354.26
361.836
355.214
357.092
355.934
357.072
358.363
356.42
356.17
354.685
353.847
353.87
353.301
351.718
347.723
341.272
347.816
348.443
349.289
348.987
346.336
346.664
348.894
351.723
348.203
347.371
351.511
346.779
347.99
346.206
347.13
346.478
343.38
341.895
344.124
335.678
337.289
335.621
336.765
339.554
336.407
340.345
342.25
341.054
337.703
338.301
338.917
342.142
337.598
340.512
336.821
335.614
332.195
331.656
331.894
334.769
324.728
331.36
326.94
331.337
331.038
330.456
331.664
339.856
333.245
326.759
330.313
333.664
329.07
330.656
327.885
334.702
327.655
328.021
327.097
319.547
322.091
323.574
321.033
323.134
319.171
316.599
319.325
323.156
324.5
323.651
320.578
322.285
323.354
323.839
315.67
320.987
321.631
320.092
321.159
312.519
309.016
310.954
314.775
314.824
314.653
313.109
313.561
311.171
315.268
312.566
314.311
313.711
313.483
311.478
311.779
313.421
313.293
314.179
311.167
307.594
306.784
302.469
303.624
303.724
304.777
302.178
303.298
301.027
308.388
308.052
303.366
305.503
302.498
304.251
305.959
302.749
302.634
304.344
300.761
363.46
362.02
363.201
366.905
366.773
364.649
369.844
369.455
366.707
364.894
371.4
365.307
365.167
365.767
366.39
362.348
364.264
363.246
359.626
355.071
353.885
360
360.509
359.016
359.328
357.606
357.751
354.348
357.247
360.152
352.987
357.509
357.862
355.399
355.399
354.291
352.947
350.971
351.242
348.016
345.826
343.943
349.702
346.068
346.588
349.662
349.82
348.164
350.49
349.576
351.088
348.702
348.317
352.218
348.703
340.321
347.292
342.99
346.295
343.396
337.266
338.722
341.387
341.002
335.758
338.635
336.548
342.294
338.693
340.673
342.246
340.446
339.625
340.762
339.695
341.441
340.933
341.818
336.133
335.843
322.952
328.953
329.545
327.132
332.775
332.662
331.509
334.237
332.94
327.991
330.216
323.068
331.871
330.535
335.102
335.203
328.327
330.779
332.805
327.013
316.092
321.835
317.714
321.732
322.69
324.929
322.298
323.342
323.981
324.888
320.66
323.352
323.525
320.833
324.917
320.817
322.175
322.545
319.883
318.361
313.142
310.394
313.484
313.962
311.293
309.125
307.754
315.596
313.037
313.128
311.239
313.85
312.544
314.456
311.705
312.822
311.442
311.303
312.475
308.464
301.651
307.978
305.48
307.768
304.19
307.703
306.366
304.28
305.391
306.416
305.67
303.585
303.573
304.169
304.367
303.937
302.251
301.862
307.518
305.745
363.721
364.067
361.907
367.196
365.503
371.555
365.14
372.117
370.299
372.904
368.512
367.519
367.806
365.99
365.763
364.61
364.352
362.18
356.901
359.203
352.056
356.479
352.945
359.486
355.436
358.114
355.748
357.626
357.352
358.939
359.387
363.807
357.977
361.06
358.843
355.425
357.724
353.252
356.095
354.582
345.479
343.686
349.376
349.826
347.856
354.276
353.412
349.993
354.498
352.392
351.517
352.136
353.695
350.028
351.983
346.213
351.101
345.355
340.286
341.594
339.273
337.977
336.873
339.103
336.616
336.722
337.673
343.024
341.354
341.961
337.94
342.786
337.928
341.831
339.178
337.423
337.216
334.515
335.793
334.311
327.653
326.122
327.945
331.686
334.564
328.541
332.507
332.508
336.706
327.162
330.743
331.793
333.383
331.41
330.905
330.729
335.043
332.406
327.605
333.038
323.117
320.506
320.635
324.577
327.064
321.095
322.178
327.482
320.964
327.933
325.342
322.389
320.92
321.274
322.618
322.022
319.992
321.543
318.108
318.14
315.954
314.194
313.987
312.477
315.05
312.831
313.143
311.415
314.975
314.687
314.737
314.694
313.101
311.722
311.8
313.732
314.65
311.804
314.781
313.849
303.905
305.067
306.005
303.163
304.026
308.485
307.001
302.573
303.798
302.634
305.759
303.02
304.086
305.804
304.638
304.581
307.556
302.873
303.886
299.021
361.246
365.123
366.886
366.914
363.45
370.341
367.977
364.228
370.514
368.925
371.318
366.175
370.976
368.781
372.061
363.112
362.698
357.794
360.696
359.41
356.395
352.635
355.512
356.906
359.819
360.346
361.649
358.5
359.53
355.886
357.167
362.946
361.539
358.278
359.511
362.531
361.211
354.712
352.237
351.147
350.766
346.091
352.567
349.119
347.705
349.594
351.42
352.28
350.148
348.464
349.501
350.56
350.778
349.053
352.505
348.364
348.35
350.311
341.31
340.151
334.517
335.115
335.558
341.293
336.721
342.225
341.896
340.225
342.597
346.221
345.577
345.22
341.334
341.436
340.49
338.788
340.376
337.814
339.202
337.262
330.646
328.105
330.755
332.816
330.619
329.801
333.725
332.012
331.316
328.129
333.083
333.16
334.902
329.442
333.755
329.219
332.893
330.367
329.258
326.499
321.816
321.443
321.962
320.69
321.27
323.183
324.047
326.224
325.898
324.82
322.453
318.981
326.97
322.856
323.058
324.641
325.214
320.051
321.184
318.598
313.292
313.816
315.103
317.005
312.872
312.755
312.247
312.852
316.751
311.326
312.901
309.569
312.343
308.021
311.854
312.239
314.192
309.72
316.262
310.36
305.165
304.709
303.021
303.972
304.128
306.897
305.257
298.201
301.408
305.704
302.772
310.584
301.636
299.46
304.369
298.822
304.403
305.251
303.662
302.775
362.511
368.424
365.387
365.141
365.148
371.577
368.195
371.256
373.045
373.755
367.913
370.614
371.008
364.98
365.922
360.067
366.35
363.182
363.079
361.601
350.924
364.221
357
361.846
362.633
361.954
364.452
361.983
358.479
362.519
363.456
357.482
362.446
362.629
361.729
362.063
360.203
355.793
361.04
354.803
348.218
348.1
349.809
344.94
346.554
349.509
352.574
347.71
349.568
352.072
347.681
351.081
350.305
350.156
348.532
347.535
346.851
344.675
342.743
342.411
338.9
336.533
338.917
340.257
341.075
340.999
346.535
340.216
342.617
341.795
345.65
344.51
343.386
337.003
342.036
335.483
339.611
332.964
338.985
335.238
330.218
327.897
330.029
332.292
328.551
332.717
333.463
333.698
332.665
334.7
334.819
334.154
330.029
335.296
330.664
329.084
328.766
331.237
330.031
331.012
319.47
319.48
323.798
319.188
325.918
323.116
323.249
324.969
324.157
320.066
323.157
327.404
322.652
325.454
319.438
320.622
320.283
320.645
322.006
322.595
311.599
311.554
312.707
316.918
313.656
309.251
316.305
315.314
312.233
316.145
311.022
313.971
310.683
319.886
313.771
313.433
309.964
315.233
306.094
312.041
301.474
305.342
298.613
305.018
305.462
302.539
304.157
308.901
304.561
303.979
305.095
300.638
304.216
306.6
300.366
306.935
302.726
303.763
304.204
303.234
362.497
366.943
367.631
365.707
366.679
370.064
369.302
371.398
369.608
369.519
369.322
370.619
369.551
369.579
369.502
363.894
363.587
363.337
365.099
361.711
352.944
354.572
355.595
358.824
359.551
359.364
358.558
354.647
364.518
361.351
356.664
358.169
360.931
359.449
359.757
355.435
358.325
351.41
354.428
352.656
344.341
346.801
345.843
345.826
349.639
351.083
349.856
348.863
350.278
346.776
347.414
351.532
349.992
351.06
345.396
351.316
349.14
352.716
346.487
346.813
335.492
336.734
340.764
339.838
339.258
338.922
344.143
343.073
343.293
342.138
339.725
341.485
340.834
340.715
341.422
336.271
342.359
335.113
337.393
336.2
329.789
330.155
327.383
331.455
329.393
329.125
338.03
330.396
335.895
338.179
333.015
329.544
331.392
334.071
334.187
330.098
330.998
332.663
330.214
323.929
323.696
319.912
323.116
325.139
321.524
321.286
318.993
324.022
322.274
322.119
324.131
322.27
317.841
323.041
324.617
323.989
320.099
320.769
325.497
322.053
314.386
316.813
312.689
313.982
316.263
313.061
319.243
315.544
311.877
316.548
312.758
313.183
317.773
314.407
316.241
310.011
314.639
313.361
313.073
313.976
306.439
302.741
304.827
302.582
305.988
299.239
302.98
305.056
307.385
304.23
301.077
302.953
309.161
302.299
304.469
303.843
303.235
307.943
302.007
308.164
358.241
361.064
365.873
365.777
369.878
367.266
365.63
370.815
370.555
367.341
369.789
367.244
365.669
369.481
363.877
368.796
366.325
364.32
361.167
360.076
353.474
370.211
356.585
365.393
361.084
366.775
357.977
366.72
360.138
367.11
365.462
363.704
366.458
356.397
366.285
353.323
365.326
357.814
365.417
348.258
343.699
347.456
350.487
351.278
348.653
350.287
354.007
353.54
351.356
354.185
350.139
349.352
355.3
349.465
350.034
347.741
345.077
346.208
346.796
346.666
336.654
339.597
342.142
341.654
343.537
341.807
342.157
341.331
345.588
339.708
344.722
344.671
341.003
344.583
345.179
338.638
340.025
340.287
339.851
333.086
331.717
324.493
330.681
329.96
331.647
329.245
331.565
334.662
332.943
331.291
332.141
329.993
333.514
330.236
330.536
333.686
326.054
324.209
328.289
327.305
323.987
322.52
321.675
325.459
319.21
323.386
321.861
327.996
322.384
320.811
326.065
325.044
316.712
322.983
323.512
323.774
322.464
322.504
321.822
320.196
310.025
311.045
315.25
315.335
312.526
316.247
314.488
312.644
312.617
312.883
310.352
312.387
310.883
311.268
314.43
314.163
313.34
313.663
310.964
311.787
303.231
305.445
303.077
302.838
302.26
304.988
304.925
306.656
306.12
304.033
307.662
303.585
303.289
308.632
310.119
306.122
302.532
300.966
304.227
306.417
362.473
364.563
365.503
363.956
371.742
367.252
366.627
371.802
366.966
366.884
369.433
370.998
367.313
368.157
365.245
369.461
366.053
363.236
363.479
358.124
354.124
357.254
357.267
357.945
355.718
360.727
362.173
362.14
361.994
358.099
356.307
361.527
357.435
354.493
355.676
360.759
359.581
358.533
353.549
355.832
348.022
344.973
347.308
351.021
350.85
348.922
351.746
351.269
352.202
353.104
348.45
351.288
348.439
348.433
345.994
349.314
346.58
346.616
346.182
343.152
335.127
336.71
339.498
341.747
336.142
343.326
340.5
338.783
339.296
343.654
343.103
342.323
341.293
343.091
340.101
339.902
339.062
339.053
339.3
335.268
326.581
330.136
332.34
331.79
334.266
330.464
330.6
330.567
333.309
332.851
330.736
330.663
332.679
332.259
330.52
329.828
331.584
332.465
325.115
332.015
321.568
319.157
323.212
320.361
325.254
323.669
325.801
323.624
325.249
318.979
324.224
325.115
321.899
322.145
322.941
319.092
321.877
320.314
322.837
318.933
314.072
312.501
317.332
317.654
311.944
310.894
314.954
309.892
313.114
313.553
314.39
309.358
313.604
313.945
315.204
311.437
315.054
313.132
310.625
313.872
303.469
306.21
305.225
307.448
308.683
304.249
301.806
306.131
307.336
305.735
302.974
303.087
306.068
308.37
303.681
306.257
300.114
305.948
303.338
303.885
)
;

boundaryField
{
    hotSide
    {
        type            fixedGradient;
        gradient        nonuniform List<scalar> 
400
(
321.511
322.87
325.591
329.677
335.133
341.965
350.181
359.788
370.794
383.208
397.037
412.289
428.971
447.088
466.647
487.651
510.105
534.011
559.372
586.191
323.738
325.08
327.767
331.802
337.194
343.949
352.078
361.591
372.498
384.81
398.537
413.687
430.268
448.289
467.755
488.672
511.043
534.872
560.161
586.913
326.149
327.47
330.116
334.091
339.406
346.071
354.099
363.503
374.296
386.491
400.101
415.136
431.606
449.52
468.885
489.706
511.988
535.735
560.948
587.63
328.704
330
332.597
336.503
341.73
348.292
356.205
365.485
376.15
388.215
401.695
416.604
432.954
450.753
470.009
490.73
512.919
536.579
561.714
588.325
331.33
332.599
335.142
338.97
344.099
350.546
358.332
367.477
378.003
389.928
403.271
418.047
434.27
451.949
471.095
491.712
513.807
537.382
562.439
588.978
333.918
335.158
337.643
341.389
346.414
352.74
360.392
369.397
379.779
391.562
404.765
419.407
435.503
453.065
472.101
492.618
514.622
538.114
563.096
589.569
336.321
337.531
339.959
343.622
348.544
354.751
362.274
371.142
381.385
393.031
406.101
420.618
436.595
454.047
472.983
493.409
515.33
538.747
563.663
590.076
338.36
339.543
341.92
345.509
350.339
356.44
363.847
372.595
382.718
394.244
407.2
421.608
437.485
454.844
473.695
494.045
515.897
539.253
564.114
590.478
339.852
341.015
343.352
346.885
351.645
357.665
364.985
373.643
383.675
395.113
407.984
422.312
438.116
455.407
474.197
494.491
516.294
539.606
564.428
590.758
340.643
341.795
344.11
347.613
352.334
358.311
365.584
374.193
384.176
395.567
408.393
422.679
438.443
455.699
474.456
494.722
516.498
539.788
564.589
590.901
340.643
341.795
344.11
347.613
352.334
358.311
365.584
374.193
384.176
395.567
408.393
422.679
438.443
455.699
474.456
494.722
516.498
539.788
564.589
590.901
339.852
341.015
343.352
346.885
351.645
357.665
364.985
373.643
383.675
395.113
407.984
422.312
438.116
455.407
474.197
494.491
516.294
539.606
564.428
590.758
338.36
339.543
341.92
345.509
350.339
356.44
363.847
372.595
382.718
394.244
407.2
421.608
437.485
454.844
473.695
494.045
515.897
539.253
564.114
590.478
336.321
337.531
339.959
343.622
348.544
354.751
362.274
371.142
381.385
393.031
406.101
420.618
436.595
454.047
472.983
493.409
515.33
538.747
563.663
590.076
333.918
335.158
337.643
341.389
346.414
352.74
360.392
369.397
379.779
391.562
404.765
419.407
435.503
453.065
472.101
492.618
514.622
538.114
563.096
589.569
331.33
332.599
335.142
338.97
344.099
350.546
358.332
367.477
378.003
389.928
403.271
418.047
434.27
451.949
471.095
491.712
513.807
537.382
562.439
588.978
328.704
330
332.597
336.503
341.73
348.292
356.205
365.485
376.15
388.215
401.695
416.604
432.954
450.753
470.009
490.73
512.919
536.579
561.714
588.325
326.149
327.47
330.116
334.091
339.406
346.071
354.099
363.503
374.296
386.491
400.101
415.136
431.606
449.52
468.885
489.706
511.988
535.735
560.948
587.63
323.738
325.08
327.767
331.802
337.194
343.949
352.078
361.591
372.498
384.81
398.537
413.687
430.268
448.289
467.755
488.672
511.043
534.872
560.161
586.913
321.511
322.87
325.591
329.677
335.133
341.965
350.181
359.788
370.794
383.208
397.037
412.289
428.971
447.088
466.647
487.651
510.105
534.011
559.372
586.191
)
;
    }
    coldSide
    {
        type            mixed;
        refValue        uniform 300;
        refGradient     uniform 0;
        valueFraction   uniform 0.991591;
        source          uniform 0;
        value           nonuniform List<scalar> 
400
(
300.013
300.029
300.07
300.02
300.046
300.056
300.049
300.046
300.032
299.998
300.044
300.045
300.064
300.014
300.033
300.043
300.012
300.054
300.027
300.029
300.015
300.036
300.044
300.023
300.012
300.06
299.998
300.031
300.039
300.043
300.064
299.988
300.057
300.067
300.043
300.04
300.045
300.023
300.046
300.052
300.037
300.017