/*--------------------------------*- C++ -*----------------------------------*\
| =========                 |                                                 |
| \\      /  F ield         | OpenFOAM: The Open Source CFD Toolbox           |
|  \\    /   O peration     | Version:  2212                                  |
|   \\  /    A nd           | Website:  www.openfoam.com                      |
|    \\/     M anipulation  |                                                 |
\*---------------------------------------------------------------------------*/
FoamFile
{
    version     2.0;
    format      ascii;
    arch        "LSB;label=32;scalar=64";
    class       volScalarField;
    location    "./ITHACAoutput/true/9";
    object      error;
}
// * * * * * * * * * * * * * * * * * * * * * * * * * * * * * * * * * * * * * //

dimensions      [0 0 0 1 0 0 0];

internalField   nonuniform List<scalar> 
3200
(
1.96948
1.69759
1.50891
1.46161
1.51213
1.75789
1.95898
2.25221
2.42608
2.62465
2.7658
2.74651
2.69385
2.54575
2.47353
2.39613
2.42406
2.70078
2.94911
3.2318
1.73349
1.46051
1.28765
1.2688
1.35625
1.48283
1.60759
1.92422
2.13832
2.29039
2.33389
2.35686
2.32371
2.2582
2.17367
2.0311
2.22201
2.33802
2.61646
2.87485
1.46433
1.23903
1.10145
1.01762
1.10097
1.26449
1.44085
1.66751
1.89362
2.05432
2.08557
2.00481
1.94696
1.95752
1.8662
1.8261
1.88513
2.00593
2.24755
2.3904
1.14722
1.01469
0.957302
0.874582
0.909171
1.01566
1.19222
1.31012
1.47969
1.58408
1.59447
1.6917
1.6391
1.55856
1.55122
1.52467
1.5674
1.6591
1.891
2.08353
0.901859
0.739888
0.642496
0.608847
0.736665
0.848736
0.858395
1.04061
1.17945
1.27454
1.28126
1.34283
1.26164
1.28328
1.16671
1.1921
1.21593
1.30442
1.46342
1.63488
0.592258
0.54548
0.496433
0.416555
0.513097
0.564082
0.638716
0.706242
0.789838
0.873338
0.967111
0.857018
0.957668
0.822229
0.920314
0.864186
0.850791
0.977032
1.03427
1.12596
0.376032
0.300828
0.34335
0.276314
0.355104
0.354897
0.361318
0.416774
0.456967
0.54008
0.592286
0.560496
0.503352
0.538794
0.538277
0.481359
0.528191
0.576317
0.582328
0.638231
0.106193
0.0887572
0.0763338
0.115531
0.120977
0.118883
0.110308
0.230433
0.153231
0.114357
0.167396
0.204996
0.22539
0.1643
0.161275
0.127545
0.181927
0.215227
0.213893
0.17882
1.0961
0.849994
0.56316
0.482165
0.565873
0.677365
0.892874
1.13891
1.46787
1.60035
1.60063
1.67922
1.64657
1.53281
1.47347
1.40465
1.59446
1.74128
2.07635
2.45756
1.01589
0.686994
0.518465
0.42924
0.569865
0.623839
0.900369
1.14434
1.26607
1.41817
1.47007
1.51138
1.45098
1.41878
1.31132
1.33072
1.30529
1.59691
1.85544
2.16711
0.872411
0.575169
0.492082
0.371841
0.470695
0.491257
0.734467
1.03914
1.10071
1.25457
1.30332
1.35871
1.23104
1.14891
1.20477
1.2181
1.20445
1.44144
1.65928
1.88115
0.732232
0.593384
0.427077
0.35435
0.392329
0.494197
0.680149
0.850773
0.876752
1.05033
1.08982
1.11024
1.10374
1.06358
1.03513
1.03321
1.09639
1.21327
1.38645
1.58418
0.544929
0.428793
0.383198
0.321718
0.341119
0.404006
0.511255
0.607246
0.748542
0.835326
0.850638
0.879891
0.843618
0.873169
0.770751
0.809557
0.867242
0.934568
1.14273
1.2558
0.381682
0.359597
0.198357
0.224555
0.197062
0.296085
0.397975
0.459203
0.555074
0.567315
0.667385
0.656613
0.628059
0.577203
0.579238
0.621505
0.674046
0.748319
0.787791
0.869029
0.207245
0.183808
0.172596
0.128573
0.166658
0.203869
0.228855
0.325328
0.360689
0.333525
0.416295
0.395783
0.349598
0.41629
0.331621
0.380309
0.38151
0.414104
0.549825
0.525485
0.114764
0.0757227
0.0799999
0.0833603
0.0872637
0.0802967
0.116157
0.114709
0.108067
0.0763516
0.109262
0.14702
0.143112
0.171879
0.171541
0.0596111
0.120732
0.170072
0.114063
0.199911
-0.00848772
-0.405183
-0.531944
-0.762604
-0.69085
-0.584031
-0.387538
-0.238292
0.0833661
0.233106
0.245456
0.384261
0.286938
0.207853
0.214481
0.191574
0.381942
0.594729
1.01551
1.36046
0.0800814
-0.233409
-0.421023
-0.505599
-0.574512
-0.465987
-0.21469
-0.0857156
0.076743
0.267502
0.339038
0.357521
0.354441
0.328837
0.294863
0.341187
0.465468
0.650162
1.01625
1.34539
0.0916391
-0.189968
-0.32037
-0.402287
-0.313446
-0.349948
-0.170124
0.0355249
0.174143
0.271273
0.344476
0.347266
0.327555
0.333135
0.315223
0.296042
0.471718
0.596481
0.882119
1.18036
0.107194
-0.0805366
-0.184253
-0.259588
-0.32009
-0.23477
-0.0811287
0.023099
0.14832
0.269372
0.372914
0.373432
0.414512
0.316512
0.363347
0.314095
0.427575
0.579713
0.792967
1.0518
0.104645
-0.0823462
-0.198578
-0.198638
-0.195911
-0.142239
-0.0351454
0.0749061
0.176925
0.323976
0.299024
0.287151
0.187366
0.303477
0.264623
0.334542
0.284709
0.492267
0.628841
0.88841
0.0910856
0.0695072
-0.091539
-0.166443
-0.0529709
-0.112944
-0.00440782
-0.0117337
0.161012
0.192733
0.261696
0.216783
0.15269
0.217129
0.182851
0.20962
0.263119
0.3398
0.499681
0.6239
0.0865821
-0.0655967
-0.00133298
-0.0501021
-0.106969
-0.00987918
-0.0928836
0.0316973
0.102735
0.107887
0.132234
0.157791
0.143303
0.18047
0.0925629
0.163692
0.198721
0.208608
0.292478
0.316899
0.0435045
0.0209247
-0.0389105
-0.0100714
-0.0515956
-0.0270102
-0.0663121
-0.0213711
0.0558362
0.0390143
0.0429929
0.077417
0.0446932
0.0627457
0.0176256
0.0585755
0.0723328
0.0614592
0.064361
0.122995
-0.982447
-1.34325
-1.72795
-1.89825
-1.977
-1.82148
-1.65968
-1.55597
-1.30074
-1.10708
-1.08545
-0.967731
-1.06578
-1.03827
-1.0548
-0.952798
-0.841369
-0.495878
-0.115024
0.393929
-0.808641
-1.05789
-1.38693
-1.59946
-1.59404
-1.45251
-1.38802
-1.24398
-0.997893
-0.896893
-0.736137
-0.729335
-0.810418
-0.76073
-0.785387
-0.69788
-0.576189
-0.359696
0.0770466
0.455999
-0.65339
-0.817503
-1.11055
-1.20386
-1.27877
-1.18695
-1.05222
-0.99951
-0.732733
-0.697436
-0.600402
-0.554434
-0.588256
-0.570075
-0.602592
-0.542818
-0.428953
-0.167541
0.117046
0.49134
-0.50286
-0.689389
-0.921083
-1.00366
-1.0099
-0.960813
-0.872116
-0.735554
-0.591783
-0.474526
-0.492175
-0.453558
-0.423253
-0.43549
-0.397058
-0.365371
-0.214319
-0.107474
0.160696
0.380598
-0.294641
-0.514828
-0.657979
-0.708855
-0.711745
-0.700732
-0.690347
-0.552134
-0.443485
-0.360762
-0.316454
-0.219279
-0.32375
-0.295207
-0.331034
-0.229164
-0.175875
-0.048841
0.191891
0.392658
-0.219602
-0.383292
-0.485014
-0.499575
-0.579272
-0.541353
-0.465639
-0.320935
-0.283191
-0.176095
-0.251931
-0.191231
-0.28668
-0.230083
-0.223709
-0.167823
-0.112119
-0.0256898
0.158501
0.236993
-0.080213
-0.282693
-0.317885
-0.377597
-0.346238
-0.2367
-0.245096
-0.230209
-0.136807
-0.14609
-0.0849449
-0.112436
-0.0980243
-0.0868914
-0.139728
-0.0596513
-0.0535852
-0.00337288
0.102777
0.194306
-0.0392446
-0.133868
-0.0489161
-0.145737
-0.123058
-0.0573129
-0.0477372
-0.0493363
-0.0102083
-0.0499674
-0.0781705
-0.0827456
-0.0669762
-0.0603767
-0.0188866
0.0356268
0.0240179
0.0255311
0.0022586
-0.00287876
-1.84132
-2.34777
-2.67609
-2.94416
-2.98743
-3.03479
-2.8599
-2.7095
-2.55109
-2.43122
-2.29659
-2.31392
-2.26059
-2.2176
-2.20697
-2.12234
-1.80689
-1.44681
-1.00589
-0.463334
-1.5698
-1.95663
-2.29737
-2.48377
-2.47495
-2.52409
-2.36818
-2.28549
-2.15694
-1.99012
-1.95378
-1.86227
-1.87163
-1.8084
-1.75801
-1.57187
-1.48574
-1.0731
-0.724416
-0.285845
-1.2671
-1.55951
-1.84135
-1.98542
-2.02031
-2.05956
-2.00456
-1.82066
-1.71024
-1.62239
-1.55117
-1.53762
-1.44267
-1.40983
-1.39009
-1.30745
-1.0757
-0.867307
-0.52343
-0.136077
-1.00959
-1.21878
-1.41113
-1.57024
-1.61729
-1.66473
-1.57697
-1.46184
-1.36822
-1.25573
-1.21252
-1.20288
-1.17552
-1.05556
-1.10708
-1.02558
-0.768947
-0.675946
-0.3498
-0.0431466
-0.715318
-0.937606
-1.11235
-1.1917
-1.27774
-1.285
-1.18895
-1.05815
-1.02678
-0.9058
-0.898581
-0.922122
-0.826885
-0.836695
-0.780583
-0.718042
-0.570829
-0.424528
-0.234066
-0.0127631
-0.537033
-0.65288
-0.86041
-0.880221
-0.941641
-0.89305
-0.854243
-0.818928
-0.653398
-0.67746
-0.633944
-0.609188
-0.586128
-0.539115
-0.584804
-0.548553
-0.373313
-0.282815
-0.0830803
0.0084005
-0.291029
-0.356462
-0.471305
-0.527102
-0.510433
-0.498738
-0.460874
-0.465534
-0.39025
-0.407386
-0.391054
-0.40735
-0.328015
-0.317854
-0.377641
-0.225133
-0.298456
-0.19667
-0.0565375
0.023016
0.00154015
-0.139668
-0.19906
-0.189111
-0.13748
-0.156296
-0.131948
-0.0762387
-0.104552
-0.141307
-0.128551
-0.126484
-0.144621
-0.157914
-0.0359099
-0.122631
-0.155775
-0.0379575
-0.0631607
0.0123921
-2.59868
-2.9855
-3.4682
-3.80474
-3.92087
-3.92933
-3.93934
-3.76841
-3.62008
-3.52417
-3.41726
-3.3699
-3.33445
-3.24717
-3.17387
-2.91543
-2.60576
-2.20112
-1.7122
-1.14103
-2.16619
-2.564
-2.94896
-3.19299
-3.35042
-3.3421
-3.28289
-3.17905
-3.04751
-2.96611
-2.86764
-2.79379
-2.78671
-2.62993
-2.56104
-2.37277
-2.15226
-1.81571
-1.26725
-0.797888
-1.87546
-2.1667
-2.48329
-2.65269
-2.71897
-2.79196
-2.77422
-2.6687
-2.46407
-2.41327
-2.35502
-2.32715
-2.22265
-2.18361
-2.11243
-1.93164
-1.67417
-1.42193
-1.05589
-0.56614
-1.45504
-1.67271
-1.95403
-2.17728
-2.21817
-2.24358
-2.14061
-2.1196
-1.98911
-1.93736
-1.80049
-1.8414
-1.7184
-1.76532
-1.69282
-1.5229
-1.32699
-1.09999
-0.741947
-0.46689
-1.12733
-1.27486
-1.51935
-1.61741
-1.72132
-1.70815
-1.64718
-1.59992
-1.47595
-1.46144
-1.45022
-1.31598
-1.32536
-1.3988
-1.25976
-1.10985
-1.0473
-0.823493
-0.538631
-0.266792
-0.752267
-0.825994
-1.05225
-1.16239
-1.23912
-1.16066
-1.13551
-1.11857
-1.08503
-1.06401
-1.00913
-0.936622
-0.889641
-0.942321
-0.907081
-0.808058
-0.691461
-0.609521
-0.366739
-0.207164
-0.42198
-0.551341
-0.605701
-0.628533
-0.705568
-0.671037
-0.694443
-0.726093
-0.619746
-0.659809
-0.589914
-0.60068
-0.57832
-0.51207
-0.462124
-0.477758
-0.415434
-0.328226
-0.247122
-0.162063
-0.0887791
-0.18596
-0.164574
-0.221912
-0.213867
-0.178357
-0.204258
-0.180065
-0.244856
-0.207896
-0.203182
-0.150897
-0.200528
-0.149972
-0.19197
-0.146092
-0.171632
-0.192316
-0.0378102
-0.0307327
-3.09794
-3.58896
-4.06446
-4.5102
-4.68833
-4.78487
-4.78699
-4.66717
-4.65833
-4.53454
-4.38556
-4.30579
-4.16772
-4.06518
-3.87604
-3.69559
-3.35714
-2.83586
-2.19836
-1.53549
-2.63349
-3.04396
-3.45594
-3.74087
-3.9947
-4.0796
-4.05975
-4.00189
-3.87556
-3.72608
-3.70602
-3.69356
-3.51138
-3.49074
-3.25277
-3.05753
-2.69844
-2.28378
-1.725
-1.21148
-2.19555
-2.55359
-2.82502
-3.12039
-3.19224
-3.3719
-3.30454
-3.24597
-3.1304
-3.07907
-2.9709
-3.03052
-2.83558
-2.81111
-2.67317
-2.48281
-2.12295
-1.83193
-1.36135
-0.846373
-1.69802
-2.04533
-2.28051
-2.48943
-2.63915
-2.73644
-2.63423
-2.68068
-2.5312
-2.45254
-2.44095
-2.33174
-2.29146
-2.19579
-2.11248
-1.89069
-1.75073
-1.38447
-1.11967
-0.750874
-1.31492
-1.51824
-1.78673
-1.98005
-2.04448
-2.02029
-2.02499
-2.02119
-1.944
-1.89728
-1.83688
-1.81647
-1.76439
-1.7039
-1.56114
-1.4502
-1.30845
-1.04803
-0.739559
-0.540142
-0.89129
-1.06397
-1.23059
-1.35499
-1.40503
-1.51107
-1.49758
-1.42518
-1.32934
-1.28165
-1.39165
-1.31096
-1.26669
-1.23203
-1.14224
-1.02604
-0.9631
-0.706811
-0.569118
-0.38827
-0.622042
-0.660093
-0.834473
-0.830406
-0.849843
-0.822111
-0.891411
-0.862241
-0.860551
-0.821955
-0.737511
-0.755345
-0.718264
-0.681809
-0.658696
-0.592655
-0.55591
-0.470097
-0.338603
-0.199961
-0.150965
-0.206207
-0.198421
-0.300298
-0.247879
-0.330986
-0.238891
-0.286651
-0.251772
-0.329345
-0.24335
-0.195254
-0.235986
-0.253049
-0.200228
-0.199304
-0.210533
-0.130339
-0.147755
-0.114015
-3.33615
-3.91795
-4.51031
-4.89875
-5.15281
-5.402
-5.40324
-5.48292
-5.31742
-5.24121
-5.19212
-5.01227
-4.8953
-4.73266
-4.51847
-4.17649
-3.7519
-3.07942
-2.5064
-1.82655
-2.88633
-3.36901
-3.76592
-4.20973
-4.41787
-4.49869
-4.58378
-4.54221
-4.52366
-4.4195
-4.30822
-4.2221
-4.15132
-3.95824
-3.73803
-3.53586
-3.13156
-2.59517
-2.00643
-1.52469
-2.37411
-2.77993
-3.11508
-3.41774
-3.60052
-3.70693
-3.81402
-3.75786
-3.72129
-3.7268
-3.59268
-3.46093
-3.36836
-3.28678
-3.1655
-2.76986
-2.47782
-2.0588
-1.55729
-1.11109
-1.86194
-2.20035
-2.56363
-2.82067
-2.98911
-2.98985
-3.07858
-3.03822
-2.98606
-2.90086
-2.86897
-2.74246
-2.68472
-2.55551
-2.40938
-2.23962
-1.96917
-1.64774
-1.28291
-0.84893
-1.45332
-1.71921
-1.97048
-2.16704
-2.2162
-2.38129
-2.41043
-2.34236
-2.26086
-2.26102
-2.18842
-2.08053
-2.00782
-1.98868
-1.81429
-1.68635
-1.44065
-1.2546
-0.954353
-0.675076
-0.993951
-1.17834
-1.34773
-1.52711
-1.58307
-1.62293
-1.68634
-1.58977
-1.59078
-1.60175
-1.5082
-1.56376
-1.44586
-1.38271
-1.31276
-1.16862
-1.03848
-0.848859
-0.688063
-0.440529
-0.660835
-0.734736
-0.799309
-0.910805
-0.998969
-0.949082
-0.992155
-1.01741
-0.883039
-0.901913
-0.900454
-0.906939
-0.888872
-0.810303
-0.689413
-0.732584
-0.597828
-0.508298
-0.329439
-0.302618
-0.234929
-0.190216
-0.270189
-0.291969
-0.346562
-0.299368
-0.37794
-0.2254
-0.289949
-0.312046
-0.295749
-0.341349
-0.356953
-0.352265
-0.262122
-0.216402
-0.21636
-0.148429
-0.121926
-0.140266
-3.42774
-4.06573
-4.69048
-5.199
-5.50754
-5.74922
-5.83028
-5.87839
-5.8512
-5.67752
-5.64425
-5.48084
-5.30527
-5.12227
-4.8359
-4.43422
-3.95645
-3.33913
-2.60323
-1.89151
-2.84984
-3.41449
-3.96225
-4.35661
-4.6573
-4.87798
-4.87203
-4.96472
-4.93782
-4.85778
-4.7714
-4.6066
-4.4972
-4.2618
-4.07841
-3.69762
-3.26664
-2.64039
-2.10819
-1.42487
-2.3699
-2.78962
-3.30257
-3.57144
-3.87093
-3.99483
-4.08916
-4.04459
-4.05126
-4.0101
-3.88379
-3.84501
-3.68258
-3.54566
-3.32135
-3.02736
-2.64512
-2.16288
-1.60332
-1.09161
-1.84586
-2.28363
-2.58113
-2.94327
-3.16872
-3.17356
-3.30509
-3.30627
-3.22663
-3.2098
-3.16158
-3.05379
-2.97883
-2.78408
-2.63252
-2.36516
-2.0576
-1.69497
-1.22629
-0.822742
-1.50942
-1.75153
-2.00225
-2.22413
-2.42432
-2.48494
-2.52717
-2.48534
-2.59456
-2.40443
-2.41558
-2.29021
-2.26283
-2.12786
-2.00895
-1.80041
-1.56397
-1.28239
-0.950175
-0.629841
-1.07077
-1.23605
-1.42982
-1.59004
-1.67046
-1.76263
-1.75878
-1.79404
-1.72971
-1.72397
-1.72172
-1.6534
-1.55845
-1.52603
-1.4342
-1.25586
-1.07481
-0.85702
-0.614899
-0.376569
-0.632497
-0.724432
-0.856203
-0.980455
-1.02314
-1.02663
-1.00514
-1.06841
-1.01698
-0.992456
-0.987263
-0.950775
-0.951543
-0.90957
-0.881252
-0.765472
-0.675097
-0.568623
-0.40085
-0.222106
-0.249857
-0.215613
-0.272784
-0.309953
-0.307468
-0.349563
-0.326259
-0.341743
-0.308164
-0.323077
-0.321916
-0.331263
-0.30861
-0.235034
-0.32443
-0.221671
-0.234711
-0.158627
-0.10739
-0.103924
-3.26177
-3.9328
-4.59807
-5.08365
-5.55414
-5.86022
-6.00087
-6.06838
-6.05736
-5.97715
-5.8754
-5.71884
-5.56202
-5.31221
-4.93081
-4.51177
-3.92063
-3.2134
-2.43148
-1.69968
-2.69523
-3.24858
-3.87072
-4.34434
-4.7076
-4.9668
-5.09804
-5.15778
-5.12702
-5.07277
-4.95662
-4.89149
-4.69768
-4.43434
-4.1437
-3.73211
-3.24638
-2.57549
-1.99776
-1.30419
-2.26303
-2.69476
-3.23783
-3.59335
-3.92534
-4.08753
-4.24114
-4.23463
-4.19341
-4.2508
-4.08632
-3.99592
-3.8095
-3.63627
-3.41806
-3.1209
-2.59877
-2.09849
-1.57473
-0.972326
-1.8742
-2.15599
-2.55471
-2.92165
-3.11507
-3.30397
-3.45758
-3.4269
-3.45677
-3.39143
-3.27548
-3.22156
-3.07495
-2.88563
-2.67329
-2.41688
-2.0398
-1.6405
-1.20762
-0.759194
-1.40331
-1.65773
-1.97369
-2.20479
-2.46012
-2.57982
-2.59566
-2.64592
-2.62629
-2.66554
-2.54471
-2.39883
-2.36715
-2.21699
-2.01765
-1.79899
-1.56766
-1.25776
-0.893012
-0.561225
-1.04888
-1.17154
-1.36605
-1.58648
-1.72231
-1.8534
-1.81924
-1.84037
-1.80933
-1.84195
-1.7448
-1.70878
-1.63989
-1.5925
-1.44608
-1.31667
-1.13052
-0.865576
-0.549064
-0.336215
-0.53438
-0.590529
-0.824051
-0.939629
-0.962161
-1.06574
-1.18845
-1.10054
-1.01284
-1.10107
-1.04604
-1.00022
-0.961645
-0.962611
-0.776688
-0.757229
-0.576533
-0.551507
-0.311826
-0.172597
-0.241894
-0.271296
-0.270254
-0.378613
-0.359262
-0.376272
-0.363883
-0.32785
-0.425258
-0.392279
-0.341774
-0.325555
-0.323483
-0.291204
-0.294853
-0.228197
-0.249168
-0.187341
-0.132844
-0.117706
-2.73337
-3.52307
-4.26054
-4.8912
-5.37667
-5.65414
-5.91783
-6.09048
-6.0311
-5.91833
-5.90167
-5.73124
-5.45676
-5.19274
-4.8356
-4.27697
-3.67301
-2.87112
-2.02867
-1.21793
-2.34748
-2.91035
-3.57443
-4.13976
-4.52798
-4.86574
-5.01012
-5.10568
-5.12045
-5.11085
-4.92286
-4.81361
-4.62222
-4.29117
-4.0162
-3.50607
-3.05827
-2.27612
-1.56089
-0.92029
-1.90956
-2.45258
-2.95723
-3.41095
-3.78893
-4.00022
-4.1934
-4.18709
-4.18813
-4.15776
-4.0529
-3.95279
-3.77025
-3.48659
-3.18474
-2.93338
-2.41432
-1.80831
-1.25974
-0.657818
-1.53749
-1.99488
-2.32226
-2.74905
-3.0348
-3.19589
-3.36056
-3.4602
-3.45813
-3.30464
-3.2668
-3.18137
-2.98626
-2.88161
-2.59141
-2.22539
-1.97499
-1.40751
-0.899568
-0.393332
-1.15694
-1.50025
-1.82981
-2.06422
-2.30242
-2.52591
-2.59122
-2.57614
-2.55281
-2.58636
-2.47898
-2.44085
-2.25614
-2.15842
-1.94882
-1.69143
-1.41674
-1.02792
-0.728548
-0.285127
-0.863322
-1.06106
-1.28434
-1.51819
-1.68072
-1.70664
-1.78699
-1.79065
-1.8472
-1.83666
-1.77678
-1.71934
-1.58864
-1.54286
-1.3243
-1.25622
-1.01236
-0.669932
-0.4508
-0.216526
-0.450049
-0.650699
-0.688598
-0.868541
-0.9405
-1.02616
-1.07693
-1.08176
-1.06997
-1.12888
-1.08934
-0.963854
-0.955074
-0.888805
-0.874731
-0.686284
-0.582239
-0.426262
-0.256044
-0.162111
-0.105424
-0.162223
-0.239402
-0.244788
-0.299382
-0.371197
-0.374933
-0.390083
-0.369582
-0.336415
-0.320978
-0.359474
-0.334919
-0.305216
-0.287793
-0.209708
-0.147126
-0.138112
-0.0394446
-0.0343278
-2.09883
-2.88508
-3.64619
-4.35927
-4.92929
-5.28994
-5.6013
-5.68644
-5.78804
-5.74009
-5.6553
-5.46607
-5.16317
-4.84161
-4.35078
-3.82884
-3.12792
-2.3263
-1.38174
-0.526082
-1.72965
-2.37029
-3.02373
-3.60045
-4.15361
-4.43749
-4.68282
-4.77831
-4.90818
-4.77258
-4.76157
-4.53778
-4.36816
-4.04226
-3.64822
-3.11944
-2.47995
-1.82391
-1.0274
-0.290866
-1.41889
-2.0046
-2.48349
-3.0139
-3.38732
-3.7149
-3.90236
-3.9744
-3.9801
-3.94367
-3.92158
-3.80068
-3.552
-3.36104
-2.87504
-2.55685
-2.03868
-1.34104
-0.690098
-0.0713151
-1.07923
-1.5696
-2.0191
-2.43233
-2.73169
-2.94194
-3.1156
-3.2012
-3.15444
-3.18436
-3.06405
-3.04626
-2.82182
-2.69066
-2.29366
-2.06923
-1.59376
-1.01446
-0.444489
-0.0676863
-0.829021
-1.13231
-1.50441
-1.90302
-2.08735
-2.28105
-2.35178
-2.4266
-2.39882
-2.36437
-2.3988
-2.20547
-2.13252
-2.01289
-1.73423
-1.48169
-1.16293
-0.806074
-0.330471
-0.0238777
-0.547092
-0.834935
-1.0048
-1.32562
-1.45706
-1.62284
-1.68306
-1.69868
-1.7468
-1.65249
-1.63484
-1.6045
-1.57213
-1.3046
-1.191
-1.09279
-0.754856
-0.510666
-0.125678
0.0471938
-0.352811
-0.460373
-0.616478
-0.809257
-0.860695
-0.977788
-1.00793
-1.08383
-0.930582
-0.983403
-0.932978
-0.932867
-0.930518
-0.836759
-0.765573
-0.605154
-0.453275
-0.366618
-0.117468
-0.0073752
-0.0996673
-0.154511
-0.230962
-0.292058
-0.273497
-0.337399
-0.331759
-0.358361
-0.368397
-0.318505
-0.352711
-0.350581
-0.344195
-0.282761
-0.2639
-0.191693
-0.175268
-0.119023
0.00844188
0.0498386
-1.19311
-1.94492
-2.79358
-3.5922
-4.17332
-4.61739
-4.90603
-5.11023
-5.16663
-5.13033
-5.07853
-4.91051
-4.65933
-4.21401
-3.66103
-3.10052
-2.31567
-1.43342
-0.396421
0.433336
-0.926636
-1.59487
-2.35863
-2.91899
-3.4585
-3.87061
-4.17587
-4.28842
-4.37373
-4.2794
-4.28751
-4.06035
-3.77172
-3.41573
-3.05882
-2.42775
-1.88865
-1.04458
-0.199641
0.601759
-0.707536
-1.18877
-1.89547
-2.48935
-2.84357
-3.21636
-3.40838
-3.55601
-3.57916
-3.54933
-3.43039
-3.307
-3.09786
-2.76442
-2.41319
-1.94106
-1.39106
-0.745327
-0.0604962
0.553952
-0.523008
-1.03641
-1.49906
-1.85938
-2.34725
-2.51506
-2.69609
-2.87719
-2.83656
-2.87177
-2.79917
-2.63445
-2.53763
-2.21963
-1.89393
-1.53545
-0.970218
-0.511317
0.0634005
0.595237
-0.429482
-0.752381
-1.15459
-1.39915
-1.78947
-1.96921
-2.05549
-2.17267
-2.15176
-2.13808
-2.11525
-2.0021
-1.84637
-1.6674
-1.46869
-1.08603
-0.746739
-0.345429
0.0162451
0.44262
-0.274678
-0.54463
-0.737783
-0.994391
-1.25944
-1.37824
-1.44768
-1.50471
-1.50525
-1.51727
-1.45025
-1.36919
-1.30186
-1.14245
-0.993382
-0.808276
-0.496866
-0.222175
0.116164
0.369641
-0.185092
-0.28845
-0.469297
-0.629126
-0.741874
-0.880154
-0.835166
-0.908191
-0.94494
-0.922285
-0.897886
-0.802804
-0.797426
-0.709158
-0.577055
-0.471004
-0.296863
-0.177407
0.0022717
0.235313
-0.0603935
-0.178703
-0.183507
-0.161311
-0.229289
-0.29487
-0.276203
-0.289935
-0.311894
-0.345824
-0.280547
-0.248874
-0.265917
-0.229518
-0.217322
-0.141108
-0.0636952
-0.0420596
0.0689985
0.0940453
0.0510104
-0.706126
-1.74966
-2.55958
-3.14692
-3.60545
-4.08168
-4.16409
-4.41002
-4.33117
-4.25371
-4.00517
-3.69164
-3.28821
-2.74484
-2.00688
-1.26935
-0.268874
0.7321
1.6919
0.183018
-0.581166
-1.29311
-2.03808
-2.58749
-3.02422
-3.29706
-3.4654
-3.55537
-3.58169
-3.48545
-3.32989
-2.96916
-2.66371
-2.19525
-1.6124
-0.94844
-0.0346346
0.773087
1.59788
0.200283
-0.444982
-1.10099
-1.6325
-2.122
-2.49185
-2.72889
-2.90512
-3.04989
-2.94224
-2.83075
-2.63862
-2.43617
-2.0951
-1.74257
-1.22724
-0.599717
0.106096
0.842262
1.49709
0.18847
-0.259679
-0.843158
-1.24732
-1.62998
-1.93941
-2.17538
-2.25489
-2.34848
-2.33998
-2.24861
-2.11302
-1.9235
-1.64387
-1.27814
-0.892525
-0.390795
0.148045
0.764168
1.28313
0.132624
-0.170252
-0.583921
-1.03687
-1.248
-1.45769
-1.67007
-1.73568
-1.73968
-1.74585
-1.7278
-1.63415
-1.43918
-1.26798
-1.00065
-0.627718
-0.285273
0.183627
0.625597
1.02647
0.140203
-0.141647
-0.412914
-0.701062
-0.838795
-1.05272
-1.15881
-1.18256
-1.25421
-1.26821
-1.2111
-1.10647
-0.941442
-0.871918
-0.652905
-0.514866
-0.19334
0.156216
0.493568
0.788406
0.0644276
-0.0705382
-0.192687
-0.422717
-0.545746
-0.600978
-0.722708
-0.672483
-0.761162
-0.681564
-0.734103
-0.658423
-0.480447
-0.51798
-0.458094
-0.230709
-0.0476776
0.152175
0.3473
0.466375
0.0494976
-0.0713718
-0.0473402
-0.186142
-0.150113
-0.221566
-0.220535
-0.304582
-0.326054
-0.219922
-0.254936
-0.271123
-0.175973
-0.153474
-0.152707
-0.0888567
-0.054763
0.0186078
0.0192481
0.246664
1.59951
0.612417
-0.297298
-1.16786
-1.89352
-2.35583
-2.80462
-3.09456
-3.13558
-3.15924
-3.04563
-2.78165
-2.52742
-2.06878
-1.46831
-0.708702
0.166365
1.04497
2.18801
3.16489
1.41495
0.678295
-0.138729
-0.939695
-1.41857
-1.95137
-2.28812
-2.47104
-2.58861
-2.60339
-2.45006
-2.26299
-1.96345
-1.61956
-1.10446
-0.39911
0.299236
1.18605
2.07466
2.97749
1.32579
0.652857
-0.0192558
-0.651177
-1.18737
-1.53803
-1.84571
-1.98492
-2.06153
-2.10035
-2.02284
-1.81958
-1.62111
-1.21491
-0.772105
-0.210317
0.412708
1.12332
1.9064
2.53414
1.07051
0.594801
0.0715631
-0.499152
-0.921945
-1.22017
-1.32907
-1.60679
-1.62786
-1.58735
-1.53652
-1.40475
-1.18638
-0.87161
-0.483943
-0.126966
0.499704
1.00858
1.64808
2.20594
0.881178
0.537217
0.0627729
-0.349295
-0.624338
-0.821823
-1.05315
-1.19684
-1.22329
-1.2148
-1.14335
-1.05604
-0.833941
-0.658468
-0.372639
-0.0117666
0.372787
0.859576
1.34203
1.79207
0.609646
0.340266
0.0903367
-0.193946
-0.447935
-0.506754
-0.749444
-0.796672
-0.844708
-0.830428
-0.840351
-0.685951
-0.55401
-0.444651
-0.279557
-0.0261044
0.292516
0.585951
0.976993
1.38218
0.286191
0.234876
0.0553736
-0.0871382
-0.18582
-0.395933
-0.414706
-0.455704
-0.501928
-0.527397
-0.434625
-0.388353
-0.367745
-0.323387
-0.141474
0.00310651
0.185454
0.469387
0.527678
0.823099
0.199042
0.0732557
0.0288757
-0.025624
-0.0808877
-0.135162
-0.158916
-0.152976
-0.191168
-0.148024
-0.102765
-0.0577389
-0.152873
-0.0872261
-0.0715454
0.0174785
0.0512886
0.104713
0.227599
0.242584
3.31323
2.41211
1.42115
0.443545
-0.320762
-0.825666
-1.28774
-1.58349
-1.74976
-1.71291
-1.67004
-1.41301
-0.996853
-0.588169
0.0267741
0.832219
1.73653
2.73789
3.82214
4.93849
3.00922
2.1912
1.26937
0.582902
-0.141542
-0.562331
-0.976093
-1.2083
-1.30003
-1.34162
-1.26502
-1.1065
-0.732697
-0.262679
0.239902
0.91975
1.73812
2.61906
3.58113
4.47835
2.56924
1.9391
1.27012
0.546544
0.00664032
-0.386907
-0.738503
-0.87618
-1.04092
-0.986775
-0.955368
-0.762803
-0.460431
-0.111584
0.355488
0.935937
1.51457
2.34504
3.13429
3.85576
2.14283
1.66207
1.04333
0.562478
0.105871
-0.342187
-0.512047
-0.713834
-0.709853
-0.769935
-0.698609
-0.551078
-0.301246
0.0442164
0.422081
0.872674
1.43195
1.9898
2.63941
3.23805
1.67594
1.28783
0.83222
0.474339
0.0994028
-0.25291
-0.420092
-0.451798
-0.550123
-0.584298
-0.425195
-0.345086
-0.156118
0.00912194
0.327118
0.791828
1.15164
1.62055
2.19821
2.58026
1.24666
0.966977
0.632414
0.328425
0.170303
-0.120785
-0.194505
-0.358422
-0.400315
-0.346769
-0.331188
-0.232111
-0.0913401
0.0618242
0.281113
0.575471
0.833474
1.16912
1.57536
1.8641
0.729136
0.561391
0.357012
0.187301
0.0486077
-0.031277
-0.106932
-0.204911
-0.215249
-0.202414
-0.219099
-0.0540488
-0.0347466
0.046773
0.195324
0.294215
0.521481
0.746832
0.968271
1.12556
0.306152
0.22232
0.137135
0.100693
0.055337
0.0187401
-0.00791449
0.0105351
-0.0296837
-0.108826
-0.0883996
-0.0237282
-0.027732
0.0157811
0.0312798
0.105018
0.191126
0.217935
0.410785
0.405232
5.37395
4.34242
3.30502
2.30942
1.57948
0.940839
0.451456
0.188246
-0.0406514
-0.0294273
0.0773244
0.320115
0.706394
1.16129
1.81594
2.68641
3.59694
4.67046
5.91353
6.96856
4.7315
3.88839
2.99279
2.15991
1.42163
1.0195
0.564603
0.267364
0.143112
0.168885
0.250195
0.463007
0.771948
1.23726
1.79674
2.55119
3.37243
4.29151
5.24272
6.17919
4.07214
3.36475
2.56771
1.99077
1.33364
0.857551
0.587668
0.351256
0.204146
0.223109
0.313612
0.568872
0.795129
1.1397
1.6719
2.28706
3.04214
3.75709
4.56189
5.38143
3.38234
2.71799
2.2094
1.61034
1.24376
0.818604
0.501897
0.319123
0.219823
0.301456
0.374218
0.506876
0.732987
0.999042
1.49503
1.93543
2.44522
3.15
3.85218
4.39966
2.5845
2.21758
1.78028
1.30389
0.96293
0.736809
0.451347
0.331086
0.253211
0.263609
0.353979
0.448838
0.550979
0.900987
1.25063
1.52745
2.0237
2.49968
3.02248
3.53712
1.91266
1.6024
1.25156
0.897585
0.771563
0.49878
0.352926
0.217762
0.237059
0.203073
0.258246
0.371498
0.440023
0.688332
0.910183
1.15681
1.46459
1.83596
2.1921
2.54072
1.16742
0.975773
0.786045
0.602528
0.386439
0.32314
0.223901
0.11831
0.0790821
0.0662476
0.205195
0.172685
0.267384
0.36743
0.536967
0.69674
0.858377
1.12088
1.29146
1.52594
0.37176
0.31773
0.233246
0.229195
0.197689
0.0740233
0.0381112
0.00541517
0.0227523
0.0882687
-0.0233193
0.07935
0.168969
0.119906
0.216821
0.184182
0.333238
0.402914
0.418296
0.51039
7.42755
6.452
5.42278
4.36192
3.54948
2.93958
2.43965
2.14198
1.92403
1.90355
2.02651
2.27945
2.6553
3.19074
3.81257
4.78492
5.6838
6.75842
7.9797
9.09184
6.56176
5.74426
4.75315
4.00829
3.19492
2.62908
2.20751
2.0041
1.8716
1.75873
1.87204
2.16268
2.39895
2.97739
3.58636
4.24897
5.0289
6.11858
7.0671
7.99802
5.55212
4.8385
4.12931
3.39562
2.77066
2.36842
2.03248
1.73131
1.68016
1.68628
1.77177
1.99773
2.22697
2.63369
3.11459
3.75861
4.49158
5.34168
6.11802
6.91588
4.66717
4.1253
3.37218
2.80942
2.37659
2.03316
1.71118
1.4871
1.46382
1.39797
1.48648
1.60273
1.87983
2.19013
2.60679
3.1097
3.66925
4.44553
5.16336
5.73287
3.61222
3.18919
2.72192
2.24118
1.89378
1.57966
1.36961
1.22798
1.10962
1.19354
1.237
1.32105
1.5537
1.75816
2.10385
2.4324
3.02401
3.46008
4.06721
4.47879
2.56079
2.18188
2.00378
1.59715
1.35337
1.15882
0.96282
0.914638
0.849291
0.797712
0.889011
1.00651
1.07802
1.34567
1.58543
1.82221
2.14732
2.55318
2.93583
3.23574
1.56203
1.30925
1.12828
0.95664
0.877113
0.728504
0.60433
0.575366
0.502198
0.424973
0.535374
0.585666
0.688918
0.776351
0.922547
1.10658
1.2678
1.54294
1.76517
1.93554
0.559494
0.469483
0.393215
0.3066
0.309094
0.285589
0.270331
0.133687
0.153591
0.160133
0.154671
0.190729
0.222616
0.261206
0.395057
0.373424
0.416085
0.585749
0.619195
0.727816
9.70679
8.65326
7.53089
6.49565
5.63527
4.99973
4.45926
4.16283
3.89983
3.89339
3.97718
4.27798
4.69904
5.18006
5.91301
6.72546
7.7447
8.90243
10.1343
11.2902
8.47702
7.57441
6.59265
5.67596
5.01938
4.39021
4.03716
3.66755
3.45116
3.51475
3.5514
3.84993
4.13785
4.69714
5.27986
6.01024
6.85413
7.87701
8.96694
10.0173
7.11441
6.4348
5.65277
4.93959
4.31065
3.8058
3.38319
3.26073
3.02022
3.03823
3.13141
3.28151
3.65126
4.05786
4.59228
5.19866
5.92661
6.79542
7.75912
8.45032
5.857
5.25535
4.70111
4.13319
3.56366
3.21617
2.87169
2.62988
2.49796
2.52181
2.60629
2.72737
3.03353
3.33262
3.8804
4.33744
4.89792
5.59542
6.34409
6.97763
4.55255
4.16
3.57435
3.23694
2.82855
2.47551
2.33631
2.06908
1.97797
1.95874
2.05451
2.20091
2.40967
2.74424
3.06097
3.39745
3.8683
4.4559
5.05353
5.46749
3.31205
2.98499
2.60055
2.27057
1.94021
1.8051
1.59585
1.50741
1.42306
1.45013
1.56164
1.56059
1.70691
1.93926
2.21143
2.45429
2.76635
3.1691
3.62212
3.94241
1.93199
1.78921
1.54336
1.36998
1.20965
1.02086
1.00888
0.963606
0.886107
0.875104
0.871751
0.944021
0.919477
1.14961
1.29697
1.53451
1.71662
1.90146
2.19364
2.36151
0.694724
0.642232
0.499107
0.558235
0.424631
0.369443
0.393036
0.277579
0.313323
0.338541
0.35416
0.304167
0.305871
0.374387
0.474762
0.446858
0.53859
0.63854
0.72784
0.78719
11.452
10.3981
9.28615
8.21522
7.33733
6.71739
6.13871
5.78062
5.53047
5.5184
5.6026
5.92936
6.30738
6.87875
7.63099
8.50844
9.51817
10.6636
11.9809
13.1093
9.91062
8.96416
7.96759
7.1211
6.37021
5.84496
5.33667
5.03168
4.79161
4.77744
4.90106
5.13511
5.52561
5.99681
6.64863
7.41313
8.32314
9.26771
10.3652
11.3891
8.27355
7.63398
6.69085
5.97917
5.42006
4.92952
4.56971
4.21185
4.14412
4.10045
4.16371
4.45631
4.74441
5.03429
5.62374
6.33898
7.04286
7.94236
8.79229
9.663
6.794
6.20953
5.49126
4.94705
4.46212
3.98945
3.71551
3.53718
3.34046
3.33032
3.4883
3.56904
3.86451
4.2109
4.69848
5.20664
5.76042
6.48509
7.3363
7.8734
5.24555
4.81059
4.32723
3.87864
3.46785
3.16783
2.86404
2.66777
2.65212
2.63841
2.66555
2.85192
2.97401
3.25566
3.68954
4.09144
4.56338
5.07807
5.59332
6.1547
3.78879
3.44786
3.05759
2.7737
2.45861
2.2664
2.06321
2.00265
1.92166
1.95129
1.89643
2.02983
2.20007
2.42452
2.63439
2.9515
3.25573
3.61961
4.04366
4.34494
2.29948
2.08789
1.86588
1.65661
1.45334
1.36239
1.21485
1.19274
1.15962
0.998192
1.12543
1.17817
1.22847
1.42302
1.55934
1.72043
1.94151
2.20773
2.46813
2.68466
0.760055
0.734293
0.57383
0.447435
0.401345
0.545602
0.34348
0.424777
0.425033
0.409333
0.429192
0.393497
0.455673
0.502698
0.506081
0.611184
0.730368
0.797973
0.817794
0.867797
)
;

boundaryField
{
    hotSide
    {
        type            calculated;
        value           nonuniform List<scalar> 
400
(
2.76394
1.89209
0.790561
-0.178741
-1.03131
-1.78063
-2.27002
-2.49646
-2.57425
-2.39236
-1.84581
-1.19081
-0.262237
1.00722
2.58359
4.32779
6.42164
8.51105
10.8288
12.6153
2.51996
1.67366
0.421119
-0.512931