/*--------------------------------*- C++ -*----------------------------------*\
| =========                 |                                                 |
| \\      /  F ield         | OpenFOAM: The Open Source CFD Toolbox           |
|  \\    /   O peration     | Version:  2212                                  |
|   \\  /    A nd           | Website:  www.openfoam.com                      |
|    \\/     M anipulation  |                                                 |
\*---------------------------------------------------------------------------*/
FoamFile
{
    version     2.0;
    format      ascii;
    arch        "LSB;label=32;scalar=64";
    class       volScalarField;
    location    "0";
    object      Tdirect;
}
// * * * * * * * * * * * * * * * * * * * * * * * * * * * * * * * * * * * * * //

dimensions      [0 0 0 1 0 0 0];

internalField   nonuniform List<scalar> 
3200
(
346.173
346.707
347.39
348.134
348.901
349.653
350.347
350.933
351.36
351.586
351.586
351.36
350.933
350.347
349.653
348.901
348.134
347.39
346.707
346.173
340.101
340.554
341.143
341.787
342.45
343.1
343.701
344.207
344.576
344.77
344.77
344.576
344.207
343.701
343.1
342.45
341.787
341.143
340.554
340.101
333.995
334.37
334.866
335.41
335.971
336.52
337.027
337.454
337.765
337.93
337.93
337.765
337.454
337.027
336.52
335.971
335.41
334.866
334.37
333.995
327.859
328.161
328.565
329.01
329.468
329.917
330.331
330.68
330.934
331.068
331.068
330.934
330.68
330.331
329.917
329.468
329.01
328.565
328.161
327.859
321.698
321.93
322.244
322.589
322.945
323.294
323.616
323.887
324.084
324.188
324.188
324.084
323.887
323.616
323.294
322.945
322.589
322.244
321.93
321.698
315.52
315.684
315.907
316.154
316.408
316.657
316.887
317.08
317.221
317.295
317.295
317.221
317.08
316.887
316.657
316.408
316.154
315.907
315.684
315.52
309.328
309.426
309.56
309.708
309.86
310.01
310.148
310.264
310.348
310.393
310.393
310.348
310.264
310.148
310.01
309.86
309.708
309.56
309.426
309.328
303.128
303.16
303.205
303.255
303.306
303.356
303.402
303.441
303.47
303.484
303.484
303.47
303.441
303.402
303.356
303.306
303.255
303.205
303.16
303.128
346.337
346.867
347.544
348.281
349.04
349.784
350.47
351.049
351.47
351.693
351.693
351.47
351.049
350.47
349.784
349.04
348.281
347.544
346.867
346.337
340.244
340.693
341.277
341.914
342.571
343.214
343.807
344.307
344.671
344.864
344.864
344.671
344.307
343.807
343.214
342.571
341.914
341.277
340.693
340.244
334.115
334.488
334.98
335.518
336.073
336.617
337.118
337.54
337.847
338.009
338.009
337.847
337.54
337.118
336.617
336.073
335.518
334.98
334.488
334.115
327.957
328.257
328.658
329.098
329.552
329.996
330.405
330.75
331
331.133
331.133
331
330.75
330.405
329.996
329.552
329.098
328.658
328.257
327.957
321.775
322.005
322.316
322.658
323.011
323.356
323.674
323.942
324.136
324.239
324.239
324.136
323.942
323.674
323.356
323.011
322.658
322.316
322.005
321.775
315.574
315.737
315.959
316.203
316.455
316.702
316.929
317.12
317.258
317.332
317.332
317.258
317.12
316.929
316.702
316.455
316.203
315.959
315.737
315.574
309.361
309.458
309.591
309.737
309.889
310.036
310.173
310.287
310.371
310.415
310.415
310.371
310.287
310.173
310.036
309.889
309.737
309.591
309.458
309.361
303.139
303.171
303.216
303.265
303.315
303.365
303.411
303.449
303.477
303.492
303.492
303.477
303.449
303.411
303.365
303.315
303.265
303.216
303.171
303.139
346.666
347.188
347.853
348.577
349.32
350.048
350.718
351.282
351.693
351.91
351.91
351.693
351.282
350.718
350.048
349.32
348.577
347.853
347.188
346.666
340.529
340.971
341.545
342.171
342.814
343.444
344.023
344.511
344.866
345.053
345.053
344.866
344.511
344.023
343.444
342.814
342.171
341.545
340.971
340.529
334.357
334.723
335.207
335.736
336.279
336.811
337.301
337.713
338.012
338.17
338.17
338.012
337.713
337.301
336.811
336.279
335.736
335.207
334.723
334.357
328.155
328.45
328.844
329.276
329.721
330.156
330.555
330.892
331.136
331.265
331.265
331.136
330.892
330.555
330.156
329.721
329.276
328.844
328.45
328.155
321.929
322.156
322.461
322.797
323.143
323.481
323.791
324.052
324.242
324.342
324.342
324.242
324.052
323.791
323.481
323.143
322.797
322.461
322.156
321.929
315.684
315.845
316.063
316.303
316.549
316.791
317.012
317.199
317.334
317.405
317.405
317.334
317.199
317.012
316.791
316.549
316.303
316.063
315.845
315.684
309.427
309.522
309.653
309.797
309.945
310.09
310.223
310.335
310.416
310.459
310.459
310.416
310.335
310.223
310.09
309.945
309.797
309.653
309.522
309.427
303.161
303.193
303.237
303.285
303.334
303.383
303.428
303.465
303.492
303.507
303.507
303.492
303.465
303.428
303.383
303.334
303.285
303.237
303.193
303.161
347.16
347.67
348.319
349.022
349.744
350.448
351.096
351.64
352.035
352.244
352.244
352.035
351.64
351.096
350.448
349.744
349.022
348.319
347.67
347.16
340.958
341.39
341.949
342.558
343.182
343.792
344.352
344.822
345.163
345.343
345.343
345.163
344.822
344.352
343.792
343.182
342.558
341.949
341.39
340.958
334.72
335.078
335.549
336.064
336.592
337.107
337.579
337.977
338.265
338.417
338.417
338.265
337.977
337.579
337.107
336.592
336.064
335.549
335.078
334.72
328.452
328.741
329.125
329.545
329.977
330.398
330.784
331.108
331.344
331.468
331.468
331.344
331.108
330.784
330.398
329.977
329.545
329.125
328.741
328.452
322.161
322.382
322.68
323.007
323.342
323.669
323.969
324.221
324.404
324.5
324.5
324.404
324.221
323.969
323.669
323.342
323.007
322.68
322.382
322.161
315.85
316.007
316.219
316.452
316.692
316.925
317.14
317.32
317.45
317.519
317.519
317.45
317.32
317.14
316.925
316.692
316.452
316.219
316.007
315.85
309.526
309.619
309.747
309.887
310.031
310.171
310.3
310.408
310.486
310.527
310.527
310.486
310.408
310.3
310.171
310.031
309.887
309.747
309.619
309.526
303.194
303.225
303.268
303.315
303.363
303.41
303.453
303.489
303.516
303.53
303.53
303.516
303.489
303.453
303.41
303.363
303.315
303.268
303.225
303.194
347.822
348.316
348.944
349.622
350.316
350.991
351.61
352.128
352.504
352.702
352.702
352.504
352.128
351.61
350.991
350.316
349.622
348.944
348.316
347.822
341.532
341.95
342.491
343.079
343.679
344.263
344.798
345.247
345.572
345.743
345.743
345.572
345.247
344.798
344.263
343.679
343.079
342.491
341.95
341.532
335.206
335.553
336.009
336.505
337.013
337.507
337.959
338.337
338.612
338.756
338.756
338.612
338.337
337.959
337.507
337.013
336.505
336.009
335.553
335.206
328.85
329.13
329.501
329.907
330.322
330.725
331.095
331.404
331.628
331.746
331.746
331.628
331.404
331.095
330.725
330.322
329.907
329.501
329.13
328.85
322.47
322.685
322.973
323.288
323.611
323.925
324.212
324.452
324.626
324.717
324.717
324.626
324.452
324.212
323.925
323.611
323.288
322.973
322.685
322.47
316.071
316.223
316.429
316.654
316.884
317.108
317.313
317.485
317.609
317.674
317.674
317.609
317.485
317.313
317.108
316.884
316.654
316.429
316.223
316.071
309.659
309.75
309.873
310.008
310.146
310.281
310.404
310.507
310.581
310.621
310.621
310.581
310.507
310.404
310.281
310.146
310.008
309.873
309.75
309.659
303.239
303.269
303.31
303.356
303.402
303.447
303.488
303.523
303.548
303.561
303.561
303.548
303.523
303.488
303.447
303.402
303.356
303.31
303.269
303.239
348.653
349.129
349.731
350.38
351.041
351.682
352.267
352.757
353.111
353.297
353.297
353.111
352.757
352.267
351.682
351.041
350.38
349.731
349.129
348.653
342.253
342.656
343.175
343.737
344.309
344.864
345.37
345.793
346.099
346.26
346.26
346.099
345.793
345.37
344.864
344.309
343.737
343.175
342.656
342.253
335.817
336.151
336.588
337.063
337.547
338.016
338.444
338.801
339.059
339.195
339.195
339.059
338.801
338.444
338.016
337.547
337.063
336.588
336.151
335.817
329.35
329.619
329.976
330.364
330.759
331.143
331.492
331.785
331.996
332.106
332.106
331.996
331.785
331.492
331.143
330.759
330.364
329.976
329.619
329.35
322.859
323.066
323.343
323.644
323.952
324.25
324.521
324.748
324.912
324.998
324.998
324.912
324.748
324.521
324.25
323.952
323.644
323.343
323.066
322.859
316.35
316.496
316.693
316.908
317.128
317.341
317.535
317.697
317.814
317.875
317.875
317.814
317.697
317.535
317.341
317.128
316.908
316.693
316.496
316.35
309.826
309.913
310.032
310.161
310.293
310.421
310.537
310.634
310.705
310.742
310.742
310.705
310.634
310.537
310.421
310.293
310.161
310.032
309.913
309.826
303.295
303.324
303.364
303.407
303.451
303.494
303.533
303.566
303.589
303.601
303.601
303.589
303.566
303.533
303.494
303.451
303.407
303.364
303.324
303.295
349.656
350.111
350.685
351.3
351.925
352.528
353.077
353.535
353.864
354.037
354.037
353.864
353.535
353.077
352.528
351.925
351.3
350.685
350.111
349.656
343.123
343.508
344.003
344.536
345.076
345.599
346.074
346.469
346.755
346.904
346.904
346.755
346.469
346.074
345.599
345.076
344.536
344.003
343.508
343.123
336.553
336.873
337.29
337.74
338.197
338.639
339.04
339.375
339.615
339.742
339.742
339.615
339.375
339.04
338.639
338.197
337.74
337.29
336.873
336.553
329.953
330.21
330.55
330.919
331.293
331.654
331.982
332.255
332.452
332.555
332.555
332.452
332.255
331.982
331.654
331.293
330.919
330.55
330.21
329.953
323.329
323.526
323.79
324.076
324.367
324.648
324.903
325.115
325.268
325.348
325.348
325.268
325.115
324.903
324.648
324.367
324.076
323.79
323.526
323.329
316.685
316.825
317.013
317.217
317.425
317.625
317.808
317.959
318.068
318.126
318.126
318.068
317.959
317.808
317.625
317.425
317.217
317.013
316.825
316.685
310.028
310.111
310.224
310.347
310.471
310.592
310.701
310.792
310.858
310.892
310.892
310.858
310.792
310.701
310.592
310.471
310.347
310.224
310.111
310.028
303.362
303.39
303.428
303.469
303.511
303.551
303.588
303.618
303.64
303.652
303.652
303.64
303.618
303.588
303.551
303.511
303.469
303.428
303.39
303.362
350.833
351.265
351.808
352.388
352.974
353.538
354.048
354.472
354.776
354.936
354.936
354.776
354.472
354.048
353.538
352.974
352.388
351.808
351.265
350.833
344.144
344.509
344.978
345.48
345.987
346.475
346.917
347.284
347.547
347.685
347.685
347.547
347.284
346.917
346.475
345.987
345.48
344.978
344.509
344.144
337.418
337.721
338.116
338.541
338.97
339.382
339.755
340.065
340.288
340.405
340.405
340.288
340.065
339.755
339.382
338.97
338.541
338.116
337.721
337.418
330.661
330.905
331.227
331.574
331.925
332.263
332.568
332.821
333.003
333.098
333.098
333.003
332.821
332.568
332.263
331.925
331.574
331.227
330.905
330.661
323.88
324.067
324.317
324.587
324.86
325.122
325.359
325.556
325.697
325.771
325.771
325.697
325.556
325.359
325.122
324.86
324.587
324.317
324.067
323.88
317.079
317.212
317.39
317.582
317.777
317.965
318.134
318.275
318.376
318.429
318.429
318.376
318.275
318.134
317.965
317.777
317.582
317.39
317.212
317.079
310.264
310.344
310.45
310.566
310.683
310.796
310.897
310.982
311.042
311.074
311.074
311.042
310.982
310.897
310.796
310.683
310.566
310.45
310.344
310.264
303.442
303.468
303.504
303.543
303.582
303.62
303.654
303.682
303.702
303.713
303.713
303.702
303.682
303.654
303.62
303.582
303.543
303.504
303.468
303.442
352.186
352.594
353.105
353.649
354.194
354.717
355.188
355.577
355.856
356.002
356.002
355.856
355.577
355.188
354.717
354.194
353.649
353.105
352.594
352.186
345.318
345.663
346.104
346.574
347.047
347.499
347.907
348.244
348.486
348.612
348.612
348.486
348.244
347.907
347.499
347.047
346.574
346.104
345.663
345.318
338.412
338.698
339.07
339.468
339.867
340.25
340.595
340.88
341.084
341.191
341.191
341.084
340.88
340.595
340.25
339.867
339.468
339.07
338.698
338.412
331.475
331.706
332.009
332.334
332.661
332.974
333.256
333.489
333.656
333.743
333.743
333.656
333.489
333.256
332.974
332.661
332.334
332.009
331.706
331.475
324.513
324.69
324.925
325.178
325.432
325.676
325.895
326.076
326.206
326.274
326.274
326.206
326.076
325.895
325.676
325.432
325.178
324.925
324.69
324.513
317.532
317.657
317.825
318.005
318.187
318.361
318.517
318.647
318.739
318.788
318.788
318.739
318.647
318.517
318.361
318.187
318.005
317.825
317.657
317.532
310.537
310.611
310.712
310.82
310.929
311.034
311.128
311.205
311.261
311.29
311.29
311.261
311.205
311.128
311.034
310.929
310.82
310.712
310.611
310.537
303.533
303.558
303.592
303.628
303.664
303.699
303.731
303.757
303.776
303.785
303.785
303.776
303.757
303.731
303.699
303.664
303.628
303.592
303.558
303.533
353.718
354.102
354.58
355.086
355.591
356.073
356.504
356.86
357.114
357.247
357.247
357.114
356.86
356.504
356.073
355.591
355.086
354.58
354.102
353.718
346.647
346.971
347.384
347.822
348.26
348.677
349.051
349.359
349.579
349.694
349.694
349.579
349.359
349.051
348.677
348.26
347.822
347.384
346.971
346.647
339.538
339.807
340.154
340.525
340.895
341.248
341.564
341.825
342.011
342.108
342.108
342.011
341.825
341.564
341.248
340.895
340.525
340.154
339.807
339.538
332.397
332.614
332.897
333.2
333.503
333.791
334.05
334.263
334.415
334.494
334.494
334.415
334.263
334.05
333.791
333.503
333.2
332.897
332.614
332.397
325.231
325.397
325.617
325.852
326.088
326.313
326.514
326.679
326.797
326.859
326.859
326.797
326.679
326.514
326.313
326.088
325.852
325.617
325.397
325.231
318.045
318.163
318.319
318.487
318.656
318.816
318.96
319.078
319.163
319.207
319.207
319.163
319.078
318.96
318.816
318.656
318.487
318.319
318.163
318.045
310.845
310.915
311.009
311.11
311.211
311.307
311.394
311.465
311.515
311.542
311.542
311.515
311.465
311.394
311.307
311.211
311.11
311.009
310.915
310.845
303.636
303.66
303.691
303.725
303.759
303.791
303.82
303.844
303.861
303.87
303.87
303.861
303.844
303.82
303.791
303.759
303.725
303.691
303.66
303.636
355.432
355.791
356.235
356.704
357.17
357.611
358.005
358.328
358.558
358.678
358.678
358.558
358.328
358.005
357.611
357.17
356.704
356.235
355.791
355.432
348.133
348.437
348.821
349.226
349.63
350.012
350.353
350.633
350.832
350.936
350.936
350.832
350.633
350.353
350.012
349.63
349.226
348.821
348.437
348.133
340.797
341.048
341.372
341.715
342.056
342.38
342.668
342.905
343.073
343.161
343.161
343.073
342.905
342.668
342.38
342.056
341.715
341.372
341.048
340.797
333.428
333.63
333.894
334.175
334.454
334.719
334.955
335.148
335.286
335.358
335.358
335.286
335.148
334.955
334.719
334.454
334.175
333.894
333.63
333.428
326.033
326.189
326.393
326.612
326.829
327.035
327.218
327.369
327.476
327.532
327.532
327.476
327.369
327.218
327.035
326.829
326.612
326.393
326.189
326.033
318.618
318.729
318.874
319.03
319.186
319.333
319.464
319.571
319.648
319.688
319.688
319.648
319.571
319.464
319.333
319.186
319.03
318.874
318.729
318.618
311.189
311.255
311.343
311.436
311.529
311.618
311.697
311.761
311.807
311.831
311.831
311.807
311.761
311.697
311.618
311.529
311.436
311.343
311.255
311.189
303.752
303.774
303.803
303.834
303.866
303.895
303.922
303.943
303.959
303.967
303.967
303.959
303.943
303.922
303.895
303.866
303.834
303.803
303.774
303.752
357.329
357.663
358.075
358.507
358.934
359.337
359.694
359.986
360.194
360.301
360.301
360.194
359.986
359.694
359.337
358.934
358.507
358.075
357.663
357.329
349.779
350.061
350.417
350.791
351.162
351.51
351.82
352.073
352.253
352.346
352.346
352.253
352.073
351.82
351.51
351.162
350.791
350.417
350.061
349.779
342.19
342.424
342.724
343.041
343.354
343.649
343.911
344.125
344.277
344.356
344.356
344.277
344.125
343.911
343.649
343.354
343.041
342.724
342.424
342.19
334.569
334.758
335.002
335.261
335.517
335.759
335.973
336.148
336.272
336.337
336.337
336.272
336.148
335.973
335.759
335.517
335.261
335.002
334.758
334.569
326.921
327.066
327.256
327.457
327.657
327.844
328.011
328.147
328.244
328.294
328.294
328.244
328.147
328.011
327.844
327.657
327.457
327.256
327.066
326.921
319.253
319.356
319.491
319.635
319.777
319.912
320.031
320.128
320.197
320.233
320.233
320.197
320.128
320.031
319.912
319.777
319.635
319.491
319.356
319.253
311.571
311.632
311.713
311.8
311.885
311.966
312.037
312.096
312.137
312.159
312.159
312.137
312.096
312.037
311.966
311.885
311.8
311.713
311.632
311.571
303.88
303.9
303.927
303.956
303.985
304.012
304.036
304.056
304.069
304.077
304.077
304.069
304.056
304.036
304.012
303.985
303.956
303.927
303.9
303.88
359.41
359.72
360.101
360.498
360.888
361.254
361.577
361.84
362.026
362.123
362.123
362.026
361.84
361.577
361.254
360.888
360.498
360.101
359.72
359.41
351.584
351.847
352.175
352.519
352.857
353.174
353.454
353.682
353.844
353.927
353.927
353.844
353.682
353.454
353.174
352.857
352.519
352.175
351.847
351.584
343.719
343.937
344.214
344.504
344.791
345.059
345.296
345.489
345.625
345.696
345.696
345.625
345.489
345.296
345.059
344.791
344.504
344.214
343.937
343.719
335.821
335.996
336.222
336.46
336.694
336.913
337.107
337.265
337.377
337.435
337.435
337.377
337.265
337.107
336.913
336.694
336.46
336.222
335.996
335.821
327.896
328.03
328.206
328.39
328.573
328.743
328.894
329.017
329.104
329.149
329.149
329.104
329.017
328.894
328.743
328.573
328.39
328.206
328.03
327.896
319.95
320.045
320.17
320.302
320.432
320.554
320.662
320.75
320.812
320.844
320.844
320.812
320.75
320.662
320.554
320.432
320.302
320.17
320.045
319.95
311.99
312.046
312.121
312.201
312.279
312.352
312.417
312.469
312.507
312.526
312.526
312.507
312.469
312.417
312.352
312.279
312.201
312.121
312.046
311.99
304.02
304.039
304.064
304.091
304.117
304.141
304.163
304.181
304.193
304.2
304.2
304.193
304.181
304.163
304.141
304.117
304.091
304.064
304.039
304.02
361.676
361.963
362.314
362.677
363.032
363.363
363.655
363.891
364.058
364.144
364.144
364.058
363.891
363.655
363.363
363.032
362.677
362.314
361.963
361.676
353.55
353.793
354.095
354.41
354.718
355.005
355.258
355.462
355.607
355.681
355.681
355.607
355.462
355.258
355.005
354.718
354.41
354.095
353.793
353.55
345.384
345.585
345.84
346.106
346.367
346.61
346.824
346.997
347.119
347.182
347.182
347.119
346.997
346.824
346.61
346.367
346.106
345.84
345.585
345.384
337.184
337.346
337.553
337.771
337.985
338.184
338.359
338.5
338.6
338.652
338.652
338.6
338.5
338.359
338.184
337.985
337.771
337.553
337.346
337.184
328.957
329.081
329.242
329.411
329.577
329.732
329.868
329.979
330.056
330.097
330.097
330.056
329.979
329.868
329.732
329.577
329.411
329.242
329.081
328.957
320.708
320.796
320.911
321.032
321.151
321.261
321.359
321.438
321.493
321.522
321.522
321.493
321.438
321.359
321.261
321.151
321.032
320.911
320.796
320.708
312.445
312.497
312.566
312.639
312.71
312.777
312.835
312.883
312.916
312.933
312.933
312.916
312.883
312.835
312.777
312.71
312.639
312.566
312.497
312.445
304.173
304.19
304.213
304.238
304.262
304.284
304.303
304.319
304.331
304.336
304.336
304.331
304.319
304.303
304.284
304.262
304.238
304.213
304.19
304.173
364.124
364.388
364.71
365.042
365.365
365.664
365.926
366.138
366.287
366.364
366.364
366.287
366.138
365.926
365.664
365.365
365.042
364.71
364.388
364.124
355.672
355.896
356.174
356.461
356.741
357.001
357.228
357.411
357.54
357.607
357.607
357.54
357.411
357.228
357.001
356.741
356.461
356.174
355.896
355.672
347.18
347.366
347.6
347.843
348.08
348.3
348.492
348.647
348.756
348.813
348.813
348.756
348.647
348.492
348.3
348.08
347.843
347.6
347.366
347.18
338.654
338.803
338.994
339.193
339.387
339.567
339.725
339.852
339.941
339.987
339.987
339.941
339.852
339.725
339.567
339.387
339.193
338.994
338.803
338.654
330.101
330.215
330.363
330.518
330.669
330.809
330.932
331.03
331.1
331.136
331.136
331.1
331.03
330.932
330.809
330.669
330.518
330.363
330.215
330.101
321.526
321.607
321.713
321.823
321.931
322.031
322.119
322.189
322.239
322.265
322.265
322.239
322.189
322.119
322.031
321.931
321.823
321.713
321.607
321.526
312.936
312.985
313.048
313.114
313.179
313.239
313.292
313.334
313.364
313.38
313.38
313.364
313.334
313.292
313.239
313.179
313.114
313.048
312.985
312.936
304.337
304.354
304.375
304.397
304.419
304.439
304.457
304.471
304.481
304.486
304.486
304.481
304.471
304.457
304.439
304.419
304.397
304.375
304.354
304.337
366.742
366.986
367.281
367.583
367.876
368.146
368.381
368.571
368.704
368.772
368.772
368.704
368.571
368.381
368.146
367.876
367.583
367.281
366.986
366.742
357.941
358.147
358.401
358.663
358.917
359.152
359.356
359.52
359.635
359.695
359.695
359.635
359.52
359.356
359.152
358.917
358.663
358.401
358.147
357.941
349.099
349.27
349.485
349.706
349.921
350.12
350.293
350.432
350.529
350.579
350.579
350.529
350.432
350.293
350.12
349.921
349.706
349.485
349.27
349.099
340.224
340.362
340.536
340.718
340.894
341.056
341.198
341.312
341.391
341.433
341.433
341.391
341.312
341.198
341.056
340.894
340.718
340.536
340.362
340.224
331.322
331.427
331.563
331.704
331.841
331.967
332.078
332.166
332.228
332.26
332.26
332.228
332.166
332.078
331.967
331.841
331.704
331.563
331.427
331.322
322.399
322.473
322.57
322.671
322.768
322.859
322.938
323.001
323.045
323.068
323.068
323.045
323.001
322.938
322.859
322.768
322.671
322.57
322.473
322.399
313.46
313.505
313.563
313.623
313.682
313.736
313.784
313.822
313.848
313.862
313.862
313.848
313.822
313.784
313.736
313.682
313.623
313.563
313.505
313.46
304.513
304.528
304.547
304.568
304.587
304.606
304.621
304.634
304.643
304.648
304.648
304.643
304.634
304.621
304.606
304.587
304.568
304.547
304.528
304.513
369.503
369.727
369.997
370.272
370.538
370.781
370.993
371.162
371.281
371.342
371.342
371.281
371.162
370.993
370.781
370.538
370.272
369.997
369.727
369.503
360.329
360.518
360.751
360.99
361.22
361.431
361.615
361.762
361.864
361.917
361.917
361.864
361.762
361.615
361.431
361.22
360.99
360.751
360.518
360.329
351.116
351.273
351.469
351.671
351.866
352.045
352.201
352.325
352.412
352.457
352.457
352.412
352.325
352.201
352.045
351.866
351.671
351.469
351.273
351.116
341.871
341.997
342.158
342.323
342.483
342.629
342.757
342.858
342.93
342.966
342.966
342.93
342.858
342.757
342.629
342.483
342.323
342.158
341.997
341.871
332.601
332.698
332.822
332.951
333.075
333.189
333.288
333.368
333.423
333.452
333.452
333.423
333.368
333.288
333.189
333.075
332.951
332.822
332.698
332.601
323.312
323.38
323.469
323.561
323.65
323.731
323.802
323.859
323.898
323.919
323.919
323.898
323.859
323.802
323.731
323.65
323.561
323.469
323.38
323.312
314.008
314.049
314.102
314.158
314.211
314.26
314.303
314.337
314.36
314.373
314.373
314.36
314.337
314.303
314.26
314.211
314.158
314.102
314.049
314.008
304.697
304.71
304.728
304.747
304.765
304.781
304.795
304.807
304.815
304.819
304.819
304.815
304.807
304.795
304.781
304.765
304.747
304.728
304.71
304.697
372.334
372.539
372.787
373.038
373.279
373.499
373.69
373.842
373.948
374.002
374.002
373.948
373.842
373.69
373.499
373.279
373.038
372.787
372.539
372.334
362.765
362.939
363.153
363.371
363.58
363.771
363.937
364.069
364.161
364.208
364.208
364.161
364.069
363.937
363.771
363.58
363.371
363.153
362.939
362.765
353.165
353.309
353.489
353.674
353.851
354.013
354.153
354.265
354.343
354.383
354.383
354.343
354.265
354.153
354.013
353.851
353.674
353.489
353.309
353.165
343.539
343.655
343.802
343.953
344.099
344.231
344.346
344.438
344.502
344.535
344.535
344.502
344.438
344.346
344.231
344.099
343.953
343.802
343.655
343.539
333.893
333.982
334.096
334.214
334.327
334.43
334.52
334.591
334.641
334.666
334.666
334.641
334.591
334.52
334.43
334.327
334.214
334.096
333.982
333.893
324.232
324.295
324.376
324.46
324.541
324.615
324.679
324.73
324.765
324.784
324.784
324.765
324.73
324.679
324.615
324.541
324.46
324.376
324.295
324.232
314.56
314.597
314.646
314.697
314.745
314.79
314.828
314.859
314.88
314.891
314.891
314.88
314.859
314.828
314.79
314.745
314.697
314.646
314.597
314.56
304.881
304.894
304.91
304.927
304.943
304.958
304.971
304.981
304.989
304.992
304.992
304.989
304.981
304.971
304.958
304.943
304.927
304.91
304.894
304.881
375.05
375.24
375.469
375.7
375.92
376.121
376.294
376.431
376.527
376.576
376.576
376.527
376.431
376.294
376.121
375.92
375.7
375.469
375.24
375.05
365.076
365.237
365.434
365.634
365.826
366
366.151
366.271
366.354
366.397
366.397
366.354
366.271
366.151
366
365.826
365.634
365.434
365.237
365.076
355.087
355.221
355.387
355.557
355.72
355.868
355.996
356.097
356.168
356.204
356.204
356.168
356.097
355.996
355.868
355.72
355.557
355.387
355.221
355.087
345.089
345.197
345.333
345.472
345.605
345.727
345.832
345.915
345.973
346.003
346.003
345.973
345.915
345.832
345.727
345.605
345.472
345.333
345.197
345.089
335.085
335.167
335.273
335.381
335.485
335.58
335.662
335.726
335.772
335.795
335.795
335.772
335.726
335.662
335.58
335.485
335.381
335.273
335.167
335.085
325.075
325.134
325.209
325.287
325.361
325.429
325.487
325.534
325.566
325.583
325.583
325.566
325.534
325.487
325.429
325.361
325.287
325.209
325.134
325.075
315.063
315.098
315.144
315.19
315.235
315.276
315.311
315.339
315.358
315.368
315.368
315.358
315.339
315.311
315.276
315.235
315.19
315.144
315.098
315.063
305.05
305.061
305.076
305.092
305.107
305.121
305.132
305.142
305.148
305.152
305.152
305.148
305.142
305.132
305.121
305.107
305.092
305.076
305.061
305.05
377.175
377.353
377.568
377.785
377.991
378.178
378.339
378.467
378.555
378.601
378.601
378.555
378.467
378.339
378.178
377.991
377.785
377.568
377.353
377.175
366.814
366.965
367.151
367.34
367.52
367.683
367.824
367.935
368.013
368.053
368.053
368.013
367.935
367.824
367.683
367.52
367.34
367.151
366.965
366.814
356.489
356.615
356.773
356.933
357.086
357.225
357.344
357.439
357.505
357.539
357.539
357.505
357.439
357.344
357.225
357.086
356.933
356.773
356.615
356.489
346.192
346.294
346.423
346.555
346.68
346.794
346.893
346.971
347.025
347.053
347.053
347.025
346.971
346.893
346.794
346.68
346.555
346.423
346.294
346.192
335.917
335.995
336.095
336.198
336.296
336.385
336.462
336.523
336.565
336.587
336.587
336.565
336.523
336.462
336.385
336.296
336.198
336.095
335.995
335.917
325.657
325.712
325.784
325.857
325.928
325.991
326.046
326.09
326.12
326.136
326.136
326.12
326.09
326.046
325.991
325.928
325.857
325.784
325.712
325.657
315.407
315.44
315.483
315.528
315.57
315.608
315.641
315.668
315.686
315.695
315.695
315.686
315.668
315.641
315.608
315.57
315.528
315.483
315.44
315.407
305.164
305.175
305.19
305.204
305.219
305.231
305.243
305.251
305.257
305.261
305.261
305.257
305.251
305.243
305.231
305.219
305.204
305.19
305.175
305.164
)
;

boundaryField
{
    hotSide
    {
        type            fixedGradient;
        gradient        nonuniform List<scalar> 
400
(
482.437
484.175
487.655
492.889
499.893
508.687
519.294
531.738
546.045
562.24
580.349
600.395
622.399
646.381
672.357
700.343
730.35
762.387
796.464
832.585
489.473
491.155
494.526
499.601
506.401
514.953
525.286
537.434
551.428
567.301
585.085
604.808
626.497
650.173
675.858
703.566
733.312
765.106
798.956
834.867
497.088
498.703
501.944
506.829
513.388
521.655
531.669
543.472
557.105
572.61
590.025
609.385
630.722
654.061
679.425
706.833
736.298
767.831
801.441
837.131
505.155
506.692
509.781
514.448
520.729
528.669
538.319
549.731
562.959
578.053
595.061
614.023
634.978
657.954
682.977
710.066
739.237
770.499
803.86
839.325
513.448
514.899
517.818
522.239
528.21
535.788
545.037
556.023
568.811
583.464
600.037
618.58
639.134
661.733
686.405
713.17
742.042
773.033
806.147
841.388
521.623
522.981
525.718
529.878
535.52
542.715
551.544
562.086
574.422
588.623
604.755
622.875
643.029
665.256
689.583
716.031
744.616
775.346
808.225
843.255
529.211
530.475
533.031
536.931
542.248
549.068
557.485
567.597
579.494
593.263
608.976
626.698
646.479
668.359
692.368
718.528
746.851
777.346
810.015
844.856
535.651
536.831
539.224
542.891
547.916
554.401
562.455
572.187
583.701
597.094
612.446
629.826
649.288
670.876
694.618
720.536
748.643
778.943
811.439
846.126
540.364
541.48
543.748
547.236
552.04
558.271
566.05
575.497
586.725
599.837
614.922
632.05
651.28
672.654
696.202
721.946
749.896
780.058
812.43
847.008
542.861
543.942
546.142
549.534
554.217
560.311
567.941
577.234
588.309
601.271
616.213
633.207
652.313
673.575
697.022
722.674
750.542
780.631
812.939
847.461
542.861
543.942
546.142
549.534
554.217
560.311
567.941
577.234
588.309
601.271
616.213
633.207
652.313
673.575
697.022
722.674
750.542
780.631
812.939
847.461
540.364
541.48
543.748
547.236
552.04
558.271
566.05
575.497
586.725
599.837
614.922
632.05
651.28
672.654
696.202
721.946
749.896
780.058
812.43
847.008
535.651
536.831
539.224
542.891
547.916
554.401
562.455
572.187
583.701
597.094
612.446
629.826
649.288
670.876
694.618
720.536
748.643
778.943
811.439
846.126
529.211
530.475
533.031
536.931
542.248
549.068
557.485
567.597
579.494
593.263
608.976
626.698
646.479
668.359
692.368
718.528
746.851
777.346
810.015
844.856
521.623
522.981
525.718
529.878
535.52
542.715
551.544
562.086
574.422
588.623
604.755
622.875
643.029
665.256
689.583
716.031
744.616
775.346
808.225
843.255
513.448
514.899
517.818
522.239
528.21
535.788
545.037
556.023
568.811
583.464
600.037
618.58
639.134
661.733
686.405
713.17
742.042
773.033
806.147
841.388
505.155
506.692
509.781
514.448
520.729
528.669
538.319
549.731
562.959
578.053
595.061
614.023
634.978
657.954
682.977
710.066
739.237
770.499
803.86
839.325
497.088
498.703
501.944
506.829
513.388
521.655
531.669
543.472
557.105
572.61
590.025
609.385
630.722
654.061
679.425
706.833
736.298
767.831
801.441
837.131
489.473
491.155
494.526
499.601
506.401
514.953
525.286
537.434
551.428
567.301
585.085
604.808
626.497
650.173
675.858
703.566
733.312
765.106
798.956
834.867
482.437
484.175
487.655
492.889
499.893
508.687
519.294
531.738
546.045
562.24
580.349
600.395
622.399
646.381
672.357
700.343
730.35
762.387
796.464
832.585
)
;
    }
    coldSide
    {
        type            mixed;
        refValue        uniform 300;
        refGradient     uniform 0;
        valueFraction   uniform 0.991591;
        source          uniform 0;
        value           nonuniform List<scalar> 
400
(
300.026
300.026
300.027
300.027
300.027
300.028
300.028
300.029
300.03
300.031
300.032
300.033
300.034
300.035
300.036
300.038
300.039
300.041
300.042
300.043
300.027
300.027
300.027
300.027
300.027
300.028
300.029
300.029
300.03
300.031
300.032
300.033
300.034
300.035
300.037
300.038
300.04
300.041
300.043