/*--------------------------------*- C++ -*----------------------------------*\
| =========                 |                                                 |
| \\      /  F ield         | OpenFOAM: The Open Source CFD Toolbox           |
|  \\    /   O peration     | Version:  2212                                  |
|   \\  /    A nd           | Website:  www.openfoam.com                      |
|    \\/     M anipulation  |                                                 |
\*---------------------------------------------------------------------------*/
FoamFile
{
    version     2.0;
    format      ascii;
    arch        "LSB;label=32;scalar=64";
    class       volScalarField;
    location    "0";
    object      T;
}
// * * * * * * * * * * * * * * * * * * * * * * * * * * * * * * * * * * * * * //

dimensions      [0 0 0 1 0 0 0];

internalField   nonuniform List<scalar> 
3200
(
348.791
347.808
346.823
346.72
346.868
347.584
348.285
348.905
349.352
349.685
349.656
349.121
348.405
347.334
346.256
345.163
344.27
343.947
344.278
345.291
342.295
341.489
340.647
340.545
340.67
341.314
341.921
342.452
342.857
343.126
343.12
342.64
342.031
341.092
340.174
339.22
338.46
338.189
338.459
339.267
335.809
335.158
334.431
334.347
334.453
335.011
335.527
335.967
336.314
336.559
336.532
336.124
335.593
334.813
334.046
333.24
332.622
332.398
332.595
333.217
329.319
328.813
328.201
328.11
328.22
328.703
329.096
329.462
329.737
329.966
329.927
329.608
329.136
328.511
327.91
327.248
326.747
326.573
326.705
327.185
322.824
322.442
321.944
321.859
321.978
322.371
322.653
322.935
323.168
323.347
323.316
323.059
322.666
322.191
321.741
321.242
320.872
320.73
320.809
321.139
316.31
316.028
315.671
315.594
315.701
316.015
316.193
316.417
316.574
316.699
316.689
316.506
316.207
315.869
315.538
315.209
314.939
314.868
314.89
315.113
309.815
309.629
309.412
309.363
309.435
309.634
309.728
309.862
309.969
310.029
310.027
309.938
309.721
309.525
309.332
309.134
308.98
308.95
308.953
309.092
303.293
303.232
303.158
303.144
303.163
303.235
303.255
303.301
303.34
303.361
303.367
303.339
303.272
303.201
303.123
303.071
303.014
303.004
303.005
303.048
348.843
347.813
347.006
346.869
347.168
347.899
348.658
349.348
349.806
350.209
350.31
349.819
348.923
347.876
346.794
345.543
344.673
344.253
344.519
345.485
342.36
341.517
340.805
340.68
340.917
341.571
342.222
342.816
343.199
343.568
343.637
343.197
342.449
341.526
340.634
339.529
338.803
338.439
338.642
339.436
335.86
335.162
334.579
334.439
334.646
335.206
335.75
336.279
336.59
336.926
336.946
336.566
335.95
335.173
334.44
333.489
332.878
332.581
332.722
333.394
329.355
328.791
328.316
328.191
328.372
328.84
329.304
329.692
329.958
330.224
330.221
329.92
329.447
328.801
328.235
327.418
326.947
326.679
326.797
327.354
322.86
322.41
322.033
321.942
322.094
322.452
322.823
323.103
323.347
323.525
323.518
323.276
322.934
322.419
321.992
321.337
321.011
320.753
320.878
321.292
316.338
316.04
315.755
315.686
315.802
316.056
316.334
316.527
316.697
316.806
316.794
316.657
316.408
316.035
315.726
315.227
315.044
314.854
314.942
315.21
309.827
309.645
309.472
309.432
309.498
309.66
309.821
309.939
310.022
310.097
310.086
310.011
309.857
309.631
309.436
309.142
309.049
308.932
308.992
309.149
303.296
303.236
303.172
303.164
303.192
303.233
303.296
303.328
303.363
303.383
303.383
303.358
303.288
303.228
303.159
303.063
303.026
302.991
303.005
303.07
349.126
347.985
347.326
347.316
347.769
348.462
349.204
350.174
350.768
351.155
351.157
350.858
349.809
348.757
347.573
346.284
345.35
344.875
345.147
346.021
342.614
341.64
341.071
341.076
341.478
342.056
342.675
343.516
344.011
344.38
344.361
344.107
343.198
342.306
341.301
340.177
339.377
338.973
339.203
339.911
336.09
335.28
334.798
334.789
335.154
335.626
336.145
336.871
337.257
337.615
337.576
337.339
336.584
335.833
334.992
334.059
333.378
333.057
333.219
333.801
329.544
328.927
328.516
328.483
328.795
329.173
329.61
330.193
330.499
330.802
330.772
330.554
329.991
329.351
328.656
327.905
327.344
327.079
327.231
327.701
323.025
322.538
322.212
322.159
322.425
322.72
323.074
323.506
323.742
324
323.988
323.778
323.37
322.873
322.284
321.736
321.285
321.079
321.223
321.582
316.496
316.12
315.903
315.841
316.038
316.246
316.502
316.808
316.966
317.161
317.149
317
316.718
316.36
315.933
315.55
315.228
315.081
315.192
315.455
309.914
309.689
309.561
309.517
309.633
309.747
309.938
310.106
310.186
310.319
310.3
310.22
310.042
309.821
309.565
309.35
309.14
309.057
309.135
309.306
303.323
303.242
303.215
303.197
303.229
303.28
303.342
303.393
303.414
303.464
303.45
303.429
303.382
303.301
303.206
303.136
303.073
303.036
303.058
303.129
349.679
348.618
348.061
347.975
348.447
349.268
350.183
351.084
351.909
352.375
352.319
351.94
351.075
349.917
348.461
347.312
346.313
345.818
346.004
346.781
343.105
342.203
341.72
341.627
342.034
342.761
343.519
344.295
345.01
345.425
345.359
345.042
344.302
343.303
342.045
341.081
340.218
339.775
339.928
340.546
336.514
335.756
335.367
335.284
335.615
336.237
336.825
337.486
338.096
338.448
338.43
338.137
337.502
336.689
335.597
334.83
334.1
333.712
333.838
334.325
329.924
329.285
328.989
328.934
329.187
329.685
330.125
330.671
331.17
331.476
331.461
331.211
330.686
330.047
329.155
328.547
327.957
327.633
327.706
328.113
323.305
322.81
322.556
322.535
322.727
323.088
323.427
323.861
324.264
324.481
324.488
324.264
323.883
323.376
322.692
322.238
321.759
321.549
321.568
321.892
316.67
316.304
316.126
316.096
316.249
316.503
316.746
317.05
317.374
317.491
317.491
317.34
317.062
316.699
316.233
315.917
315.556
315.413
315.426
315.654
310.017
309.802
309.697
309.656
309.761
309.906
310.06
310.232
310.442
310.501
310.504
310.427
310.234
310.017
309.768
309.565
309.349
309.274
309.281
309.415
303.365
303.275
303.253
303.23
303.27
303.32
303.37
303.427
303.502
303.522
303.527
303.501
303.436
303.358
303.282
303.212
303.142
303.115
303.107
303.155
350.403
349.389
348.734
348.804
349.355
350.202
351.299
352.185
352.963
353.573
353.719
353.364
352.3
351.12
349.679
348.394
347.473
346.91
347.045
347.743
343.715
342.884
342.305
342.343
342.831
343.564
344.494
345.256
345.926
346.468
346.552
346.238
345.361
344.331
343.097
342.018
341.209
340.709
340.832
341.428
337.049
336.347
335.825
335.869
336.298
336.9
337.661
338.324
338.905
339.332
339.375
339.144
338.417
337.546
336.49
335.612
334.905
334.507
334.578
335.068
330.334
329.78
329.364
329.395
329.75
330.225
330.821
331.373
331.863
332.207
332.202
332.019
331.462
330.753
329.868
329.189
328.589
328.28
328.323
328.684
323.616
323.182
322.873
322.915
323.151
323.544
323.98
324.447
324.799
325.08
325.058
324.905
324.496
323.951
323.25
322.727
322.269
322.041
322.065
322.329
316.856
316.559
316.335
316.398
316.565
316.831
317.139
317.508
317.739
317.956
317.901
317.793
317.494
317.139
316.619
316.242
315.942
315.762
315.791
315.963
310.111
309.944
309.8
309.85
309.952
310.108
310.295
310.54
310.674
310.808
310.75
310.681
310.497
310.303
309.977
309.756
309.584
309.46
309.478
309.599
303.39
303.335
303.289
303.307
303.336
303.386
303.459
303.524
303.577
303.63
303.603
303.578
303.51
303.458
303.346
303.276
303.218
303.17
303.18
303.219
351.419
350.226
349.787
349.901
350.376
351.382
352.233
353.362
354.267
354.944
355.194
354.77
353.778
352.595
351.057
349.775
348.873
348.254
348.394
348.948
344.59
343.57
343.226
343.293
343.73
344.588
345.307
346.268
347.054
347.644
347.849
347.461
346.617
345.614
344.268
343.2
342.434
341.866
341.998
342.463
337.759
336.916
336.618
336.667
337.021
337.759
338.375
339.173
339.85
340.333
340.489
340.166
339.456
338.626
337.476
336.587
335.946
335.506
335.582
335.963
330.919
330.257
329.969
330.005
330.313
330.902
331.418
332.077
332.621
333.02
333.123
332.853
332.301
331.636
330.68
329.985
329.453
329.114
329.14
329.444
324.059
323.559
323.32
323.344
323.601
324.049
324.435
324.979
325.382
325.712
325.759
325.566
325.148
324.601
323.873
323.355
322.934
322.688
322.692
322.923
317.201
316.859
316.684
316.696
316.886
317.19
317.477
317.866
318.154
318.384
318.414
318.263
317.965
317.589
317.067
316.712
316.385
316.26
316.218
316.39
310.351
310.133
310.046
310.038
310.156
310.341
310.512
310.735
310.913
311.055
311.072
310.964
310.798
310.559
310.257
310.049
309.835
309.789
309.762
309.846
303.468
303.4
303.374
303.368
303.396
303.468
303.522
303.597
303.657
303.711
303.706
303.673
303.622
303.55
303.44
303.369
303.302
303.285
303.287
303.307
352.364
351.386
351.053
351.102
351.567
352.363
353.274
354.606
355.587
356.368
356.735
356.191
355.248
354.01
352.596
351.215
350.288
349.747
349.753
350.354
345.412
344.565
344.289
344.364
344.759
345.414
346.201
347.359
348.191
348.849
349.174
348.711
347.889
346.856
345.617
344.452
343.631
343.176
343.202
343.682
338.455
337.734
337.527
337.581
337.932
338.457
339.14
340.097
340.808
341.322
341.616
341.222
340.521
339.683
338.62
337.666
336.961
336.559
336.61
336.976
331.46
330.889
330.703
330.772
331.065
331.502
332.062
332.827
333.408
333.806
334.038
333.735
333.152
332.518
331.612
330.848
330.287
329.96
329.987
330.266
324.49
324.031
323.883
323.955
324.197
324.533
324.979
325.534
325.988
326.308
326.482
326.245
325.788
325.316
324.61
324.009
323.573
323.326
323.349
323.551
317.496
317.173
317.073
317.135
317.296
317.54
317.874
318.246
318.568
318.797
318.926
318.761
318.435
318.1
317.614
317.167
316.854
316.709
316.693
316.849
310.514
310.308
310.261
310.295
310.378
310.53
310.73
310.951
311.146
311.299
311.371
311.259
311.078
310.879
310.593
310.297
310.122
310.045
310.051
310.124
303.519
303.468
303.449
303.453
303.476
303.522
303.595
303.678
303.73
303.786
303.822
303.779
303.71
303.646
303.557
303.447
303.394
303.373
303.379
303.398
353.582
352.63
352.236
352.285
352.796
353.523
354.636
355.899
356.906
357.692
358.019
357.605
356.849
355.56
354.205
352.802
351.873
351.325
351.362
351.912
346.469
345.652
345.318
345.381
345.81
346.427
347.359
348.444
349.347
350.007
350.287
349.894
349.273
348.17
346.992
345.813
345.019
344.508
344.572
345.017
339.357
338.654
338.378
338.438
338.793
339.301
340.113
341.011
341.79
342.315
342.548
342.199
341.707
340.78
339.795
338.805
338.148
337.692
337.768
338.124
332.232
331.647
331.409
331.462
331.756
332.166
332.856
333.577
334.204
334.601
334.822
334.533
334.129
333.372
332.583
331.777
331.25
330.882
330.951
331.211
325.079
324.623
324.453
324.465
324.711
325.018
325.576
326.145
326.625
326.902
327.087
326.857
326.549
325.977
325.358
324.729
324.318
324.04
324.097
324.291
317.918
317.601
317.502
317.487
317.665
317.877
318.286
318.713
319.027
319.197
319.351
319.191
318.987
318.576
318.141
317.678
317.351
317.193
317.236
317.371
310.782
310.583
310.525
310.507
310.622
310.741
311.01
311.246
311.443
311.528
311.634
311.534
311.413
311.175
310.905
310.619
310.414
310.33
310.344
310.443
303.621
303.546
303.524
303.534
303.57
303.602
303.697
303.769
303.839
303.87
303.908
303.864
303.825
303.75
303.664
303.566
303.497
303.469
303.476
303.503
354.655
353.918
353.43
353.59
354.012
354.887
355.998
357.131
358.245
359.061
359.332
359.088
358.372
357.023
355.584
354.357
353.447
352.891
352.916
353.455
347.374
346.759
346.362
346.481
346.846
347.594
348.566
349.515
350.488
351.19
351.401
351.184
350.591
349.448
348.187
347.157
346.386
345.91
345.912
346.367
340.102
339.593
339.295
339.369
339.675
340.289
341.121
341.916
342.715
343.319
343.494
343.262
342.792
341.863
340.777
339.916
339.297
338.871
338.925
339.256
332.827
332.414
332.178
332.245
332.468
332.971
333.66
334.308
334.954
335.451
335.587
335.365
335.034
334.28
333.349
332.658
332.182
331.807
331.884
332.12
325.54
325.238
325.061
325.107
325.284
325.656
326.175
326.702
327.197
327.585
327.678
327.507
327.235
326.674
325.94
325.417
325.054
324.759
324.808
324.969
318.256
318.066
317.916
317.951
318.07
318.329
318.722
319.077
319.443
319.721
319.765
319.674
319.447
319.063
318.543
318.171
317.939
317.709
317.729
317.828
310.979
310.857
310.773
310.785
310.855
311.002
311.253
311.469
311.665
311.852
311.861
311.829
311.671
311.437
311.131
310.912
310.789
310.645
310.664
310.709
303.677
303.635
303.61
303.624
303.634
303.681
303.767
303.85
303.912
303.968
303.97
303.969
303.906
303.834
303.725
303.647
303.618
303.572
303.579
303.595
356.058
355.285
354.752
354.834
355.224
356.177
357.171
358.376
359.491
360.433
360.703
360.476
359.72
358.553
357.146
355.987
355.011
354.528
354.628
354.989
348.599
347.954
347.495
347.556
347.911
348.716
349.599
350.592
351.567
352.379
352.596
352.4
351.775
350.766
349.559
348.572
347.734
347.308
347.379
347.701
341.136
340.613
340.242
340.27
340.586
341.254
342.017
342.809
343.646
344.315
344.493
344.337
343.851
342.982
341.946
341.144
340.458
340.043
340.131
340.39
333.658
333.25
332.953
332.95
333.248
333.782
334.411
335.025
335.697
336.251
336.406
336.252
335.885
335.208
334.321
333.709
333.161
332.79
332.853
333.058
326.199
325.873
325.656
325.624
325.88
326.287
326.775
327.24
327.747
328.201
328.321
328.179
327.895
327.406
326.696
326.234
325.841
325.528
325.604
325.728
318.731
318.48
318.327
318.314
318.484
318.786
319.14
319.441
319.823
320.152
320.234
320.136
319.936
319.597
319.068
318.753
318.487
318.272
318.317
318.397
311.259
311.071
311.015
311.011
311.101
311.298
311.492
311.667
311.894
312.116
312.159
312.094
311.971
311.779
311.459
311.259
311.121
310.989
311.003
311.073
303.77
303.706
303.692
303.698
303.722
303.788
303.854
303.912
303.996
304.062
304.088
304.06
304.009
303.95
303.842
303.782
303.73
303.685
303.689
303.717
357.306
356.765
356.188
356.163
356.561
357.556
358.431
359.637
360.674
361.622
361.955
361.711
360.954
359.963
358.687
357.554
356.574
356.184
356.236
356.681
349.65
349.268
348.748
348.711
349.036
349.935
350.676
351.704
352.568
353.411
353.706
353.48
352.822
351.987
350.892
349.923
349.066
348.725
348.776
349.153
342.019
341.73
341.309
341.249
341.526
342.277
342.909
343.77
344.483
345.208
345.448
345.236
344.699
343.99
343.088
342.286
341.554
341.254
341.293
341.639
334.386
334.184
333.833
333.78
333.993
334.606
335.11
335.844
336.417
336.987
337.178
336.982
336.587
336.016
335.276
334.614
334.052
333.771
333.809
334.103
326.747
326.6
326.336
326.301
326.452
326.921
327.329
327.919
328.34
328.792
328.93
328.746
328.442
328.025
327.467
326.924
326.547
326.289
326.313
326.545
319.096
319.009
318.822
318.81
318.897
319.238
319.556
319.975
320.264
320.586
320.694
320.538
320.302
320.022
319.624
319.263
318.991
318.79
318.815
318.975
311.464
311.426
311.308
311.321
311.345
311.568
311.759
311.997
312.189
312.362
312.427
312.328
312.185
312.004
311.763
311.569
311.415
311.277
311.302
311.388
303.844
303.828
303.79
303.804
303.796
303.881
303.944
304.034
304.09
304.143
304.17
304.13
304.085
304.021
303.934
303.875
303.829
303.773
303.793
303.818
358.615
358.118
357.573
357.469
357.956
358.86
359.79
360.825
361.905
362.611
362.991
362.764
362.033
361.186
360.135
358.985
358.235
357.913
357.902
358.357
350.807
350.426
349.932
349.82
350.259
351.047
351.857
352.727
353.645
354.276
354.602
354.379
353.755
353.062
352.136
351.158
350.516
350.244
350.235
350.622
342.984
342.699
342.291
342.16
342.52
343.207
343.925
344.64
345.385
345.936
346.225
346.011
345.484
344.903
344.134
343.314
342.789
342.531
342.546
342.877
335.175
334.963
334.65
334.521
334.781
335.371
335.965
336.55
337.13
337.588
337.867
337.643
337.198
336.762
336.123
335.443
335.045
334.845
334.815
335.118
327.383
327.212
326.965
326.881
327.051
327.54
328.005
328.454
328.884
329.255
329.492
329.288
328.925
328.61
328.099
327.568
327.278
327.132
327.103
327.33
319.576
319.464
319.262
319.222
319.338
319.705
320.019
320.349
320.641
320.916
321.091
320.951
320.659
320.445
320.09
319.698
319.504
319.406
319.37
319.55
311.757
311.688
311.563
311.552
311.616
311.832
312.034
312.235
312.405
312.547
312.678
312.599
312.414
312.269
312.051
311.816
311.74
311.65
311.648
311.753
303.935
303.927
303.867
303.871
303.9
303.965
304.035
304.093
304.16
304.199
304.253
304.216
304.172
304.114
304.052
303.945
303.942
303.894
303.909
303.955
360.007
359.49
358.917
358.821
359.233
360.108
361.078
361.964
362.901
363.565
364.087
363.934
363.245
362.422
361.468
360.395
359.741
359.449
359.504
360.081
352.028
351.598
351.093
351.003
351.344
352.141
352.973
353.71
354.541
355.118
355.553
355.438
354.821
354.125
353.283
352.366
351.788
351.575
351.612
352.108
344.016
343.681
343.254
343.206
343.44
344.155
344.862
345.474
346.165
346.626
347.029
346.933
346.394
345.809
345.086
344.349
343.85
343.694
343.691
344.132
336.02
335.753
335.396
335.381
335.547
336.153
336.746
337.235
337.762
338.137
338.498
338.415
337.943
337.49
336.906
336.325
335.911
335.807
335.789
336.133
328.03
327.813
327.539
327.55
327.661
328.132
328.62
328.976
329.381
329.669
329.942
329.875
329.499
329.166
328.72
328.272
327.95
327.894
327.876
328.134
320.04
319.852
319.652
319.697
319.78
320.115
320.464
320.721
320.984
321.193
321.404
321.344
321.074
320.848
320.541
320.204
319.986
319.945
319.945
320.132
312.045
311.912
311.784
311.839
311.864
312.082
312.295
312.457
312.613
312.73
312.858
312.805
312.658
312.532
312.338
312.134
312.016
311.967
311.988
312.092
304.043
303.987
303.948
303.972
303.974
304.052
304.119
304.17
304.222
304.273
304.302
304.289
304.228
304.211
304.141
304.068
304.028
304.013
304.024
304.048
361.461
360.834
360.387
360.279
360.573
361.306
362.193
363.201
363.935
364.672
365.026
364.822
364.381
363.516
362.758
361.93
361.391
361.08
361.239
361.762
353.281
352.78
352.383
352.276
352.497
353.177
353.928
354.794
355.411
356.052
356.386
356.199
355.813
355.075
354.425
353.724
353.248
352.997
353.139
353.58
345.101
344.706
344.367
344.253
344.431
345.025
345.669
346.359
346.891
347.434
347.747
347.591
347.229
346.596
346.071
345.488
345.085
344.908
345.01
345.397
336.917
336.614
336.309
336.232
336.372
336.881
337.367
337.938
338.375
338.832
339.094
338.952
338.64
338.13
337.699
337.241
336.907
336.777
336.86
337.173
328.735
328.491
328.234
328.194
328.293
328.706
329.049
329.53
329.867
330.212
330.428
330.307
330.064
329.664
329.336
328.982
328.726
328.626
328.688
328.946
320.547
320.373
320.163
320.149
320.235
320.52
320.759
321.092
321.36
321.594
321.768
321.662
321.49
321.191
320.953
320.721
320.531
320.479
320.519
320.705
312.363
312.234
312.101
312.104
312.145
312.329
312.475
312.669
312.84
312.975
313.064
313.018
312.912
312.735
312.576
312.447
312.337
312.295
312.327
312.448
304.159
304.113
304.055
304.049
304.064
304.133
304.177
304.235
304.298
304.348
304.369
304.376
304.325
304.259
304.218
304.173
304.142
304.121
304.133
304.174
362.86
362.193
361.774
361.723
362.012
362.686
363.392
364.229
364.893
365.694
366.037
365.88
365.439
364.655
363.961
363.196
362.885
362.705
362.88
363.468
354.507
353.946
353.59
353.533
353.767
354.365
354.987
355.697
356.258
356.965
357.255
357.121
356.73
356.048
355.429
354.809
354.55
354.386
354.556
355.047
346.137
345.649
345.373
345.352
345.521
346.019
346.566
347.141
347.617
348.23
348.462
348.356
348.027
347.441
346.897
346.407
346.206
346.054
346.201
346.617
337.766
337.373
337.158
337.141
337.257
337.667
338.111
338.576
338.981
339.468
339.661
339.591
339.292
338.829
338.379
338.002
337.851
337.705
337.803
338.168
329.406
329.087
328.904
328.914
329.01
329.303
329.637
330.008
330.341
330.714
330.866
330.817
330.567
330.223
329.851
329.584
329.483
329.342
329.432
329.689
321.03
320.784
320.65
320.69
320.75
320.944
321.184
321.431
321.681
321.957
322.05
322.021
321.825
321.599
321.344
321.152
321.077
320.985
321.033
321.223
312.645
312.476
312.4
312.444
312.464
312.579
312.733
312.867
313.017
313.187
313.24
313.225
313.094
312.987
312.824
312.71
312.674
312.618
312.639
312.764
304.248
304.192
304.149
304.175
304.187
304.227
304.271
304.312
304.355
304.419
304.448
304.426
304.381
304.364
304.303
304.262
304.257
304.229
304.238
304.279
364.332
363.677
363.339
363.094
363.296
363.878
364.545
365.288
365.968
366.687
366.919
366.872
366.505
365.773
365.319
364.768
364.513
364.209
364.484
365.031
355.761
355.228
354.915
354.719
354.896
355.4
355.972
356.609
357.186
357.822
358.026
357.969
357.651
357.037
356.641
356.155
355.969
355.689
355.93
356.387
347.179
346.746
346.497
346.323
346.487
346.91
347.375
347.9
348.407
348.952
349.107
349.062
348.796
348.286
347.923
347.527
347.392
347.151
347.369
347.736
338.607
338.244
338.052
337.923
338.07
338.394
338.762
339.18
339.644
340.074
340.186
340.17
339.919
339.535
339.218
338.887
338.789
338.602
338.778
339.082
330.045
329.757
329.624
329.525
329.629
329.879
330.154
330.486
330.844
331.194
331.272
331.265
331.054
330.767
330.509
330.256
330.174
330.049
330.172
330.423
321.488
321.277
321.188
321.108
321.198
321.359
321.54
321.785
322.052
322.265
322.368
322.345
322.177
321.984
321.809
321.648
321.558
321.496
321.562
321.764
312.924
312.797
312.735
312.69
312.738
312.835
312.924
313.088
313.259
313.36
313.448
313.43
313.31
313.219
313.101
313.011
312.949
312.924
312.971
313.076
304.345
304.289
304.264
304.257
304.276
304.299
304.327
304.394
304.441
304.478
304.509
304.49
304.459
304.432
304.396
304.354
304.335
304.337
304.354
304.379
365.869
365.127
364.666
364.45
364.727
365.186
365.709
366.346
367.041
367.606
367.768
367.814
367.624
366.957
366.669
366.088
366.049
365.844
366.143
366.609
357.098
356.49
356.083
355.883
356.136
356.523
356.973
357.529
358.108
358.612
358.741
358.802
358.655
358.045
357.82
357.321
357.292
357.141
357.374
357.753
348.315
347.83
347.505
347.293
347.527
347.858
348.205
348.688
349.168
349.598
349.736
349.777
349.657
349.142
348.957
348.532
348.531
348.403
348.596
348.893
339.552
339.161
338.895
338.681
338.901
339.156
339.445
339.847
340.23
340.589
340.708
340.716
340.645
340.252
340.087
339.75
339.748
339.659
339.795
340.045
330.772
330.465
330.257
330.104
330.262
330.466
330.688
331.013
331.295
331.589
331.666
331.682
331.6
331.352
331.208
330.952
330.953
330.883
330.971
331.164
321.996
321.782
321.627
321.543
321.634
321.784
321.931
322.179
322.37
322.573
322.622
322.637
322.548
322.418
322.307
322.131
322.128
322.097
322.134
322.281
313.227
313.086
313.003
312.949
313.012
313.085
313.175
313.326
313.43
313.544
313.59
313.596
313.529
313.473
313.395
313.299
313.298
313.29
313.292
313.395
304.428
304.378
304.361
304.34
304.363
304.387
304.412
304.475
304.501
304.541
304.552
304.55
304.522
304.517
304.492
304.464
304.458
304.462
304.457
304.494
367.277
366.625
366.075
365.948
366.027
366.398
366.812
367.574
368.109
368.494
368.752
368.774
368.528
368.239
367.838
367.464
367.49
367.445
367.817
368.253
358.319
357.777
357.288
357.193
357.268
357.565
357.912
358.589
359.046
359.371
359.612
359.62
359.435
359.186
358.837
358.504
358.536
358.511
358.838
359.183
349.359
348.902
348.532
348.42
348.488
348.741
349.006
349.612
349.974
350.235
350.47
350.467
350.324
350.117
349.813
349.538
349.56
349.531
349.839
350.116
340.396
340.026
339.764
339.634
339.682
339.904
340.116
340.618
340.896
341.111
341.322
341.305
341.205
341.043
340.758
340.552
340.566
340.542
340.802
341.065
331.426
331.139
330.962
330.837
330.87
331.067
331.202
331.612
331.808
331.983
332.155
332.129
332.082
331.945
331.719
331.551
331.555
331.553
331.772
331.992
322.455
322.248
322.137
322.04
322.057
322.22
322.295
322.612
322.725
322.847
322.998
322.971
322.945
322.844
322.659
322.554
322.554
322.543
322.707
322.892
313.481
313.383
313.299
313.228
313.259
313.354
313.386
313.594
313.642
313.72
313.809
313.798
313.795
313.714
313.6
313.551
313.543
313.526
313.643
313.778
304.513
304.493
304.454
304.428
304.448
304.478
304.488
304.567
304.569
304.601
304.623
304.628
304.622
304.596
304.555
304.539
304.538
304.518
304.574
304.632
368.674
367.947
367.44
367.26
367.299
367.45
368.022
368.626
369.161
369.502
369.81
369.721
369.591
369.26
369.057
368.95
368.849
368.881
369.253
369.769
359.503
358.885
358.461
358.297
358.34
358.474
358.963
359.485
359.937
360.253
360.521
360.438
360.322
360.018
359.866
359.794
359.698
359.741
360.045
360.468
350.345
349.827
349.496
349.325
349.366
349.517
349.905
350.345
350.718
350.984
351.222
351.167
351.055
350.796
350.645
350.604
350.537
350.566
350.838
351.169
341.182
340.766
340.52
340.351
340.407
340.552
340.855
341.2
341.519
341.702
341.915
341.87
341.76
341.575
341.427
341.412
341.382
341.387
341.637
341.886
332.045
331.733
331.529
331.386
331.431
331.57
331.796
332.065
332.311
332.441
332.603
332.569
332.483
332.341
332.225
332.212
332.197
332.19
332.421
332.593
322.9
322.701
322.548
322.434
322.46
322.563
322.718
322.911
323.094
323.185
323.292
323.262
323.22
323.131
323.014
322.988
323.013
322.998
323.184
323.307
313.75
313.635
313.547
313.491
313.497
313.562
313.638
313.763
313.879
313.921
313.995
313.964
313.945
313.898
313.803
313.791
313.822
313.799
313.919
314
304.601
304.58
304.54
304.525
304.522
304.551
304.57
304.624
304.658
304.67
304.69
304.677
304.671
304.647
304.616
304.624
304.638
304.628
304.668
304.688
369.723
369.128
368.602
368.24
368.225
368.271
368.902
369.456
369.843
370.217
370.44
370.42
370.341
369.99
369.885
369.915
369.827
369.973
370.209
370.855
360.355
359.866
359.448
359.129
359.053
359.13
359.659
360.159
360.506
360.819
361.04
361.003
360.921
360.602
360.563
360.587
360.513
360.615
360.822
361.363
351.04
350.618
350.303
350.011
349.928
350.003
350.446
350.845
351.186
351.419
351.633
351.586
351.523
351.282
351.245
351.259
351.201
351.29
351.444
351.912
341.751
341.384
341.171
340.898
340.815
340.906
341.262
341.573
341.87
342.061
342.23
342.169
342.14
341.953
341.939
341.923
341.881
341.967
342.106
342.479
332.453
332.184
332.015
331.789
331.722
331.829
332.085
332.341
332.577
332.694
332.841
332.777
332.781
332.646
332.65
332.601
332.587
332.648
332.757
333.025
323.171
322.984
322.874
322.688
322.674
322.735
322.919
323.114
323.266
323.341
323.461
323.401
323.429
323.329
323.322
323.295
323.289
323.319
323.409
323.589
313.903
313.809
313.717
313.601
313.639
313.653
313.771
313.887
313.955
314.016
314.092
314.036
314.077
314.01
314.001
313.989
313.991
313.996
314.068
314.158
304.666
304.626
304.594
304.56
304.58
304.581
304.617
304.67
304.673
304.701
304.725
304.692
304.725
304.702
304.696
304.69
304.682
304.686
304.725
304.748
)
;

boundaryField
{
    hotSide
    {
        type            fixedGradient;
        gradient        nonuniform List<scalar> 
400
(
518.486
518.583
521.42
526.914
534.779
544.608
555.968
568.465
581.78
595.666
609.949
624.515
639.305
654.305
669.545
685.09
701.029
717.46
734.459
752.058
501.276
501.748
505.15
511.38
520.09
530.796
542.998
556.259
570.231
584.655
599.352
614.213
629.185
644.264
659.496
674.966
690.79
707.091
723.972
741.479
491.947
493.103
497.15
503.975
513.225
524.416
537.046
550.67
564.934
579.573
594.405
609.321
624.271
639.26
654.342
669.613
685.196
701.224
717.807
735
489.959
492.091
496.881
504.205
513.756
525.109
537.813
551.452
565.681
580.237
594.935
609.666
624.384
639.1
653.872
668.798
683.997
699.596
715.697
732.359
493.316
496.613
502.27
510.154
520
531.452
544.119
557.627
571.652
585.938
600.306
614.649
628.931
643.171
657.435
671.824
686.453
701.438
716.876
732.83
499.733
504.29
510.952
519.57
529.896
541.612
554.366
567.812
581.641
595.606
609.537
623.342
637.004
650.563
664.105
677.744
691.6
705.79
720.41
735.529
507.278
513.131
520.92
530.472
541.534
553.791
566.891
580.483
594.253
607.951
621.417
634.586
647.476
660.172
672.799
685.499
698.414
711.67
725.37
739.587
514.407
521.528
530.51
541.156
553.193
566.277
580.021
594.03
607.945
621.494
634.521
647.001
659.014
670.715
682.293
693.939
705.826
718.095
730.857
744.187
519.847
528.109
538.241
550.031
563.178
577.297
591.936
606.615
620.893
634.44
647.099
658.897
670.008
680.687
691.207
701.817
712.722
724.08
736.002
748.562
522.54
531.675
542.75
555.544
569.738
584.906
600.522
616.006
630.803
644.501
656.929
668.182
678.542
688.377
698.044
707.844
718.006
728.694
740.017
752.04
521.715
531.306
542.926
556.355
571.262
587.194
603.576
619.75
635.07
649.053
661.514
672.591
682.648
692.126
701.435
710.903
720.77
731.201
742.3
754.128
517.031
526.561
538.202
551.733
566.817
582.989
599.665
616.174
631.865
646.247
659.124
670.619
681.082
690.944
700.607
710.396
720.553
731.243
742.573
754.606
508.703
517.659
528.811
541.935
556.69
572.616
589.151
605.676
621.606
636.5
650.154
662.626
674.165
685.109
695.8
706.532
717.534
728.975
740.97
753.59
497.538
505.513
515.811
528.214
542.379
557.855
574.114
590.599
606.801
622.331
636.977
650.718
663.685
676.102
688.223
700.289
712.509
725.048
738.026
751.527
484.899
491.634
500.906
512.507
526.093
541.205
557.324
573.927
590.546
606.818
622.519
637.566
651.999
665.947
679.583
693.097
706.668
720.452
734.571
749.113
472.695
478.073
486.3
497.187
510.363
525.329
541.535
558.447
575.604
592.648
609.341
625.564
641.302
656.618
671.629
686.483
701.335
716.331
731.59
747.202
463.445
467.479
474.734
485.033
497.955
512.926
529.332
546.604
564.27
581.972
599.468
616.622
633.386
649.787
665.907
681.864
697.797
713.843
730.121
746.715
460.168
463.026
469.406
479.142
491.763
506.625
523.058
540.469
558.383
576.447
594.42
612.158
629.601
646.749
663.662
680.435
697.192
714.062
731.16
748.562
465.539
467.55
473.136
482.153
494.136
508.446
524.422
541.485
559.174
577.146
595.166
613.083
630.823
648.369
665.757
683.061
700.383
717.836
735.518
753.492
480.383
481.914
486.78
494.866
505.788
519.008
533.955
550.11
567.048
584.443
602.062
619.749
637.415
655.023
672.585
690.148
707.784
725.575
743.595
761.888
)
;
    }
    coldSide
    {
        type            mixed;
        refValue        uniform 300;
        refGradient     uniform 0;
        valueFraction   uniform 0.991591;
        source          uniform 0;
        value           nonuniform List<scalar> 
400
(
300.028
300.028
300.028
300.028
300.029
300.029
300.03
300.03
300.031
300.032
300.032
300.033
300.034
300.035
300.036
300.037
300.037
300.038
300.039
300.039
300.027
300.027
300.027
300.028
300.028
300.029
300.029
300.03
300.031
300.031
300.032
300.033
300.034
300.035
300.035
300.036
300.037
300.038
300.039