/*--------------------------------*- C++ -*----------------------------------*\
| =========                 |                                                 |
| \\      /  F ield         | OpenFOAM: The Open Source CFD Toolbox           |
|  \\    /   O peration     | Version:  2212                                  |
|   \\  /    A nd           | Website:  www.openfoam.com                      |
|    \\/     M anipulation  |                                                 |
\*---------------------------------------------------------------------------*/
FoamFile
{
    version     2.0;
    format      ascii;
    arch        "LSB;label=32;scalar=64";
    class       volScalarField;
    location    "./ITHACAoutput/true/0.2";
    object      error;
}
// * * * * * * * * * * * * * * * * * * * * * * * * * * * * * * * * * * * * * //

dimensions      [0 0 0 1 0 0 0];

internalField   nonuniform List<scalar> 
3200
(
-2.93155
-1.50048
-1.7173
-0.409059
1.81969
3.10157
2.7513
1.55877
2.71468
3.45641
3.37745
2.44572
3.97236
1.12828
1.81441
2.00296
1.66091
-0.997929
-0.123008
-1.66071
-2.60278
-1.47332
-0.875022
-1.75879
3.5433
2.55352
2.19086
2.38139
3.10191
1.88553
2.16566
1.85473
3.08239
2.04616
0.635562
1.95122
0.898316
-0.0660615
1.31045
-0.544841
-2.11669
-1.15992
-0.667168
-1.93099
2.41261
2.30773
2.78064
2.50077
2.71196
0.545806
1.17278
2.34663
0.573098
0.501467
1.53778
0.359753
1.28801
-0.368497
0.8746
-0.548231
-2.66601
-0.835573
0.250905
0.272887
0.789043
1.70994
0.21844
2.7978
1.6023
1.11246
1.27639
0.734879
2.03011
1.95504
2.14341
1.74765
1.61401
-0.26344
0.544536
0.240833
0.0323576
-1.05334
-0.413264
-0.0628001
0.280387
1.79476
0.738835
0.956708
2.44857
0.813989
1.45268
0.297729
2.25723
1.91723
1.10034
0.49698
0.486485
-0.355834
-0.0816882
0.88579
0.187992
0.441307
1.00135
-0.960276
0.772521
1.17344
0.659387
1.05156
2.10655
0.615233
0.558569
0.530629
2.54736
0.32684
0.777992
0.317087
-0.3018
1.4013
1.0823
-0.89922
-0.0661541
0.137869
0.881861
-0.132993
0.61894
1.26684
1.15078
-0.232494
0.829892
0.822171
-0.124245
1.26936
1.36325
0.430192
0.287503
-0.0173709
-0.108221
1.96775
0.990233
-0.487527
-0.103313
-0.0784594
-1.87822
0.0270344
-0.591215
-0.659727
0.572279
-0.010234
1.36312
-1.25503
-0.313547
1.22292
0.667994
-0.237507
0.673125
0.505995
0.657167
-0.532558
0.957167
-0.237424
-3.73565
-1.53296
-0.648742
0.717416
2.14084
1.93976
2.30412
3.41161
2.35053
2.93958
2.6551
1.9494
1.48185
2.25498
2.48509
2.90287
1.01588
1.00867
1.41793
-1.88011
-2.59355
-0.274764
-0.393327
-0.461248
1.48638
0.117795
3.45728
-0.0345105
1.63005
0.0598605
0.0907067
1.5432
-0.131525
1.98981
0.776551
2.14338
0.394729
0.886875
-0.0914507
-0.02414
-1.94739
-0.400032
0.325364
0.173933
-0.740634
0.550067
2.68448
2.60575
1.92804
0.132023
0.615966
2.23413
2.01156
2.17594
2.65224
1.67129
1.26806
-0.22857
0.392509
-0.491207
-2.04824
-1.09687
-0.457648
0.0871284
0.413766
0.933631
2.43844
1.93351
0.748239
1.0847
1.64945
0.555054
1.25872
1.73726
0.282361
1.92632
-0.160443
-0.684553
0.844255
-0.306202
-0.325447
1.08178
0.701872
-1.09502
0.631947
1.65837
0.324504
1.02843
1.45754
-0.238429
0.340864
0.000601687
0.817108
2.38939
0.933354
1.63879
0.0168419
-0.0529126
-0.330854
0.657922
0.123714
-0.205134
1.15038
0.355962
0.322811
0.0893822
0.990859
0.0222738
-0.76965
0.578284
0.760862
1.78638
-1.08584
0.971068
-0.932211
0.904351
2.26416
-0.90811
-1.58452
0.982868
-0.706691
0.354054
0.913824
-1.34696
-0.359719
-0.740661
1.41163
-0.0240247
0.689743
-0.387961
1.65548
0.300923
0.836061
-0.133377
-0.378818
-0.440144
-0.980456
-1.38225
-0.851094
1.37968
-0.26994
-1.07524
1.0713
-0.475514
0.195488
0.602372
-0.26603
-1.8416
1.60042
0.327918
-0.817704
0.523803
-0.340055
1.43877
-0.0882255
0.713539
0.450504
-1.13934
0.362138
-0.408306
-3.09957
-1.83679
0.823804
0.15144
1.67078
3.20421
0.860614
0.629447
2.20687
1.1143
2.18912
1.50384
1.47961
0.997056
1.10442
1.4873
1.04218
1.68062
-1.92971
-1.22668
-2.31802
-0.972696
-0.389755
0.108221
0.574556
1.24809
1.01664
2.12487
1.53556
1.65535
0.921043
0.621881
0.909016
2.48047
1.69796
1.22119
1.08848
1.3898
-0.42267
-1.968
-1.76471
-1.55228
0.498565
0.742098
1.54611
0.999644
1.62639
0.828558
-0.946308
1.52122
2.06397
1.04347
0.344902
0.367875
2.11905
-0.599041
1.60783
0.775093
0.0971696
-2.63765
-1.76854
-0.0705912
0.96394
0.490772
0.161652
1.00809
1.1762
-0.459572
0.601907
1.48022
1.83921
0.455214
1.06177
0.162206
1.76174
0.39332
0.172041
0.0573134
-0.210306
-0.0192809
-0.588574
-0.817833
-0.109557
1.45317
0.279645
0.744006
-0.522954
0.965716
0.602058
0.881095
1.18523
-0.10294
-0.507337
0.560911
1.46846
1.23368
-0.262683
-0.0938367
-1.79709
-0.14841
-0.753874
0.895282
-0.531069
0.972397
-0.0342558
0.922926
0.58988
1.3166
1.43226
0.0859217
-0.92812
0.322246
1.34178
0.59657
0.129379
-1.26411
-0.27254
-0.598953
-0.00252654
0.502456
-1.36442
-0.270585
0.331349
1.50195
1.4893
0.398838
0.260584
0.771093
1.21083
-0.193483
-0.172689
0.754922
1.93205
0.820441
0.778692
0.124878
-0.0474433
0.644245
-1.13844
0.595992
0.43932
0.522981
0.806148
-0.324603
0.750174
-0.927228
0.370353
-0.683655
-0.116805
0.260767
0.611974
0.0976945
-0.173638
0.306448
-1.56925
-0.780656
0.316341
1.26222
0.677001
0.152761
-2.47486
-0.781133
0.03162
0.315839
0.287033
1.54819
1.63117
1.92126
1.74715
0.833583
2.3346
0.661985
0.572106
1.28899
-0.35264
1.12011
1.29579
0.0461763
-2.27445
-1.6185
-2.03559
-0.544852
0.823269
0.344429
0.740766
-0.0179877
1.77503
0.0567533
0.484442
-0.217628
-0.240557
0.41146
0.379575
1.37509
-0.010366
1.00646
0.0421954
1.0028
-0.10912
-1.12819
-0.533489
0.0670559
0.513013
-0.833039
0.66953
1.72696
1.71745
1.79977
0.790198
0.575509
2.12738
-0.0400574
0.604648
-0.0234338
0.650629
0.935688
-0.50274
1.97514
-0.886209
-0.774833
-2.00258
-0.916601
-0.736504
0.166673
-0.647806
0.508115
0.948475
1.54741
0.702849
0.971407
1.27281
0.531398
1.03526
1.51119
0.357243
0.0835221
2.10594
1.09449
0.407256
0.400146
-1.12761
0.370391
0.261281
0.129061
0.569514
1.34724
-0.0204637
0.73146
-1.01101
1.05718
1.60703
-0.39209
-0.792001
-0.430676
-1.40942
-0.25159
0.595939
-0.135769
-0.0210073
-0.453592
-0.316537
-1.4692
-0.51545
0.376266
-0.072617
1.63487
0.795242
-0.933623
1.34413
1.19823
1.15105
1.16636
0.366923
0.0307432
0.624784
-0.435738
-0.251745
0.259327
-1.14746
-0.158968
0.221191
-0.191363
-0.131198
-0.067009
-0.147358
0.857558
-1.86525
-0.248406
-1.03886
-1.75829
1.19504
-0.55673
0.26454
-0.53814
0.471175
-0.207687
-0.283658
0.583439
0.0976287
-0.0778369
-0.649341
-0.918325
0.809551
0.209593
0.515074
-0.494308
0.40926
-0.742234
0.588977
0.93007
-0.876671
-0.187045
1.49368
-0.0774233
0.647307
0.556442
1.49235
0.680365
-0.336587
2.83127
-2.67499
-2.37051
-1.8919
0.179298
0.836536
1.10702
3.08495
1.51351
0.768809
-0.323366
0.131732
0.822704
0.359277
0.186119
-0.171222
1.04697
0.558007
-0.160723
-1.57139
-2.35647
-2.32168
-0.950017
-0.113608
1.08952
-0.00254089
1.37269
1.87643
0.173469
1.00866
0.410788
0.114966
0.186145
0.599443
-0.00350433
-0.20566
2.0985
1.0665
-2.441
-0.846124
-1.71429
-1.70752
-0.32277
-1.07088
-0.367773
-0.0585699
2.61425
2.05677
1.69009
-0.305123
-0.262223
0.953708
0.584557
0.167725
1.01451
0.244513
0.358871
-0.421608
-0.549399
-1.97674
-2.3357
-1.39179
-0.179528
-0.805294
1.5782
1.36051
0.0524082
0.0734705
0.363908
1.4565
-0.332414
0.688447
-0.517508
1.9743
0.843788
0.209763
1.1797
1.11397
-1.44277
-0.45155
-2.24579
-1.84382
1.11641
0.296433
-0.563514
-0.615018
1.17274
1.09568
-0.0412303
1.12421
2.41182
1.01479
-1.62809
0.169854
0.715326
1.53763
0.648283
-1.16794
-1.4916
-1.31869
-1.94135
-0.51489
-0.77848
0.90309
-0.917822
-0.416898
-0.340429
1.05494
1.0812
1.19251
-0.626031
-0.234227
0.450606
0.529513
0.584309
0.649758
-0.639834
0.882971
-0.234415
0.452908
0.637297
-0.953943
-0.302716
-0.315545
0.329373
0.165694
0.201867
-0.0542976
0.736256
-0.875598
0.0823831
-0.487909
-0.25181
1.13803
0.295984
0.0161143
-1.26451
-0.97701
-1.27485
-0.163019
0.994907
-0.813502
-0.958922
0.159488
0.80015
-1.26431
-0.384034
0.66976
0.14081
0.882172
0.997321
1.37837
-0.431878
-0.376285
-1.25283
-0.210972
-0.674308
1.40041
-1.99904
0.0252964
0.0308903
-3.99381
-2.15512
0.325412
0.839297
-0.275604
0.718682
0.582394
-0.464674
-1.02434
-1.58538
-0.390848
1.36477
1.05822
0.215749
-0.69036
1.20176
-0.805751
-1.39082
-1.02955
-3.48785
-1.57892
-0.493304
-1.3468
0.265892
0.490375
-0.540409
0.888359
-0.00503136
-0.776357
0.343782
-0.184635
-1.34937
0.176743
0.289971
0.0615868
-0.169156
-0.159937
-1.21082
-0.241942
-2.20406
-2.82917
0.36314
-0.368968
0.831528
0.225024
1.42043
-0.283724
-0.15958
1.13041
0.605206
0.0212364
1.92463
0.539041
-1.88163
0.392386
1.38218
0.657601
-1.35286
-0.278404
-1.50512
-2.00819
0.326775
-0.32377
0.736801
0.0675076
0.321721
-0.685031
0.91802
0.532158
-0.578205
-0.0906637
-0.901673
-0.625454
-1.12032
0.456071
0.647521
0.534184
-0.646631
0.201689
-0.7076
-0.292708
-0.151113
-0.789313
0.754591
-0.50062
0.75768
0.625527
-0.278847
-1.20062
0.277519
-0.231272
-0.451189
-1.08954
-0.965541
-0.038703
-0.298776
-2.08815
0.0152728
-0.352395
-0.866104
0.0606542
0.858067
0.519
-0.495547
-0.670042
0.131567
0.455639
0.407005
0.278643
0.115772
1.45553
0.110768
-0.239082
0.384264
1.34889
1.31513
-0.0510639
-0.477118
0.219897
-0.225036
0.330502
-0.802032
-1.19039
-0.90078
-1.06066
1.68644
0.0999094
-0.744128
0.184361
-1.87355
0.296104
-0.237345
-1.59135
0.52602
0.06054
0.903271
-1.51304
0.756432
-0.807498
0.813963
0.992464
0.0288856
0.290323
0.354494
-0.232601
0.237893
0.100044
0.350125
-0.634599
0.376357
-1.12463
0.269292
0.0733489
-0.222457
-0.868335
0.418079
-0.141493
-0.829297
0.256608
-0.615759
-3.11833
-1.37064
0.148455
1.136
-0.287216
-0.286321
0.877119
0.0338471
-0.208186
-0.771933
-0.100451
0.541135
-0.917527
-0.250246
-0.293889
-0.238472
-0.0828096
-1.13401
0.301856
-0.895569
-2.38685
0.0600974
-0.696358
-0.965552
0.551759
0.808332
0.717277
0.379031
-2.05891
-0.667142
0.463403
-1.82469
-1.20722
-0.461117
1.11478
0.0755028
-0.829752
0.800459
-1.17528
-2.17548
-2.85102
-0.729524
-1.10615
-0.179641
-0.114907
0.946445
0.159344
0.27155
-1.49121
-0.452616
0.712693
-1.36815
0.200061
-0.0770463
-0.970716
-0.859007
-0.584128
0.262153
0.198606
-0.754637
-2.05837
-1.11601
0.254301
0.210981
0.229431
-0.254039
1.36696
-0.727667
-1.06156
-0.204308
0.677145
-0.723319
0.393299
-0.781858
-0.304009
0.834651
-0.837166
-0.597368
1.02881
-0.649487
-2.00126
-0.489807
-0.598575
0.207632
-0.041863
0.306166
0.724387
0.134563
-0.219986
0.193076
0.445631
-0.722586
0.63264
-0.0826631
0.640727
0.27499
0.0473949
0.742528
0.432148
-1.20242
-0.389396
-0.175098
-0.192466
-1.26065
1.14811
-0.841016
-0.211313
-0.952163
1.16107
0.584872
-0.157464
0.394098
0.905909
0.0450154
-0.352872
-0.163369
-0.379164
0.596166
-0.896991
0.0806647
0.0932834
-1.28066
0.46526
-0.343954
-0.32031
-0.58773
0.362017
0.524301
-0.220261
-1.30108
-0.363149
0.30686
-0.0715849
-0.9412
-2.11299
0.944717
-0.0554337
0.479245
0.680146
1.24712
-0.467633
-0.0653378
-0.866409
0.296592
-0.0705047
0.380014
-1.02356
-1.53654
2.08643
0.299581
0.696724
0.101992
-1.16734
0.519416
0.12128
-0.204452
0.969525
0.630593
-0.789362
0.959864
-2.54715
-1.7027
0.385023
0.515976
0.547852
-1.25845
-0.680066
-0.210247
0.932972
-0.323205
-1.24463
0.461342
-1.92474
0.0279896
-0.569888
0.209906
-2.09361
-0.508809
-1.9037
-2.72888
-2.89432
-0.210162
-0.851889
-0.047922
-1.47702
0.129273
-1.03251
-0.0823417
-0.480371
0.302733
-0.49398
1.14703
-0.118675
-0.0514183
-0.0630472
0.183606
0.043351
0.342245
0.127619
-0.385228
-1.76292
-1.21739
0.0330694
-1.46889
0.791261
0.459015
1.35239
0.706406
-0.91147
0.214206
-0.646826
-0.0507754
-0.834925
-0.68816
-0.316103
-0.432107
0.112876
0.829972
-0.72866
-2.14725
-0.665733
0.388505
0.00072081
0.170434
-0.24915
-0.210342
0.798785
-1.15421
-0.328728
0.629975
0.329873
-1.2189
-0.974629
-0.421733
-0.49164
0.305591
-0.0337089
1.2028
-0.0391148
-1.27588
-1.68027
-0.0724932
-0.601272
0.153006
-0.432181
0.075059
0.117363
-0.296466
0.0364205
-0.971682
-1.99186
-0.442866
-1.40358
0.744312
-0.388803
-0.49879
-0.204422
-0.96206
-1.78731
-0.71178
-0.357615
-0.730023
-1.02011
-0.356377
-0.375444
-0.337328
0.408479
-0.848659
1.42705
-1.26785
-0.558159
-0.296958
-0.556152
0.815043
-0.0729874
0.0936584
-0.537291
-0.742648
-1.47193
-0.799271
-0.31007
-0.517665
0.129254
-0.792994
-1.31396
-0.417432
0.271797
0.355024
1.2347
-0.285638
-1.18674
0.838552
-0.754286
-0.510412
0.994072
-0.19949
-0.4873
1.25188
-0.662218
-0.598559
-0.48405
-0.439967
1.1814
0.348373
-0.34667
-0.427412
0.542294
-0.49771
-0.466586
0.342783
-0.999485
-0.662565
-0.015799
0.909584
1.28355
-0.124186
-0.123257
0.798476
-0.0487804
-0.299285
-2.27696
-0.1763
-1.66137
-0.0756162
1.43215
-1.55078
-0.198022
-0.997774
-0.275713
-0.529001
-1.41295
-1.65963
-3.40335
-1.53411
-2.41913
-0.385673
-1.79683
-0.564131
-1.56324
-3.15853
-2.66378
0.235627
0.100831
-0.352057
-1.51415
-2.08142
-0.482577
-0.999278
0.489261
-0.567225
-1.8981
-0.873755
-3.09614
-0.177497
-0.658152
0.547144
0.311761
-2.35994
0.733354
-3.16064
-1.18111
0.0409885
0.0305541
-0.627965
-0.505113
-0.423735
-0.376096
-0.200938
0.51472
-1.31978
-1.90236
-1.05752
-1.73811
-1.19286
-1.6501
-0.394429
-0.201936
-0.263657
-1.24411
-2.46363
0.368655
-1.40536
0.132285
-1.64003
0.167904
-1.90286
-0.139274
-0.911848
-0.530796
0.665132
-0.625718
-1.52458
-0.417861
-0.641367
-0.0344406
-1.76475
-0.482486
-0.482404
-0.132353
-2.12576
-1.18678
-0.667297
-1.18727
-1.4709
0.790145
0.817572
0.258178
-0.667033
0.537221
0.0805465
-0.21145
-1.45496
0.0865702
-0.212009
0.346283
-0.80758
1.25794
0.0323887
0.240291
-1.17394
-0.230285
-0.274491
-0.421639
-0.491839
-0.742563
0.128716
-1.27901
0.461049
1.25887
0.289128
-0.120319
-0.913714
0.325508
-0.427725
1.10489
-0.391854
-0.655381
1.45403
-1.02646
-1.90586
-0.943241
-0.268253
0.299075
0.949586
0.639843
0.831627
0.380761
0.346398
1.46876
0.899802
-0.238428
0.830341
-0.0637528
-0.919725
-1.81739
0.529391
-0.556548
-0.428031
0.324389
-1.69727
-1.02763
0.471126
0.104807
0.106662
-0.726014
-1.23626
0.653759
-0.278242
1.4878
0.192857
1.06011
0.95191
0.762167
-1.24086
0.584142
-0.0930323
-0.616685
0.68581
0.94537
0.123608
-2.23861
-0.985008
-1.88282
-1.95976
-1.06859
-0.114033
0.86557
-1.3741
-1.04631
-0.141037
-1.58556
-2.97115
-1.41746
-0.90578
-0.975871
-1.05279
-1.06017
-0.906976
-1.65392
-2.23973
-1.97253
-0.269045
-2.47819
-0.132898
-1.99702
-0.336614
-0.177584
0.0173964
-1.40957
-0.531325
-0.175653
-1.726
0.203864
-1.72303
0.0546213
-0.345375
-0.166446
-1.5657
-0.161783
-2.73144
-1.87805
0.34091
-1.20363
-0.825064
-0.855961
-0.525738
1.51414
0.151951
-1.31368
-1.27424
-1.26419
-2.59887
-1.31219
-1.18214
-1.1512
-0.286249
0.0369946
-0.232746
-0.383088
-1.04029
-0.755462
-1.51793
-0.845794
0.1384
0.57244
-0.391511
-0.195635
0.12785
0.692747
-0.491505
-2.25902
-1.84836
-0.341013
-1.09378
0.751447
-0.517144
-0.46285
0.00505572
-0.888486
-1.32547
-0.769955
0.319082
0.540139
-0.944203
-0.927792
0.718198
-0.442644
-0.404675
0.743453
-0.436678
-0.434103
-0.80047
-1.00695
0.331491
-0.709715
-0.156906
0.449331
-1.90917
0.576745
-1.48957
-0.944042
-0.629489
-1.03412
0.120339
0.0939814
0.303008
0.647897
-0.932539
-0.738281
-0.679851
0.19547
0.126328
-0.410054
0.0568641
-0.260041
-1.7423
-0.25946
-0.497479
-0.929892
-0.530133
-0.317858
-0.0794311
-1.49663
-0.214585
1.0266
0.390373
0.264013
0.121198
0.739944
0.163457
0.601974
-0.110926
-1.24991
-0.0899589
-0.739571
-0.604677
0.360812
-0.917135
0.448404
-0.761903
-0.509644
0.196029
-0.0851021
1.10292
-0.231222
0.291075
-0.0258231
0.581379
-1.12157
0.143282
-1.64143
0.984903
1.15965
1.23076
-1.55236
0.513571
0.40946
-0.456395
-0.15807
-0.592122
-2.63519
-1.56579
-1.52002
-1.99778
-1.0106
-0.702241
0.356898
-1.17113
0.324997
-2.32105
-1.10394
-1.88266
-1.8872
-3.16263
0.564599
-2.65864
-1.34737
-0.598038
-3.55955
-2.02836
-2.0326
-0.141414
-1.78611
-0.249595
-0.670272
0.0899216
-0.0395636
0.21051
-1.00538
0.399812
-0.234992
-0.783715
0.442475
-1.96808
0.0937337
-0.565663
0.207552
-0.432202
0.0962651
-2.34878
-1.99114
-0.714057
-0.196932
-0.599881
0.880737
0.0179874
-0.733944
-1.08159
0.226243
-0.211409
-1.132
-0.361547
0.0268657
-1.19654
-0.472736
-0.443182
0.405828
0.189346
-1.71528
-0.732298
-0.849288
-0.903582
-1.33084
-0.31778
-1.25572
0.989835
-0.633926
-0.0836687
-0.24765
-0.408435
-2.79764
-0.441092
-0.420411
-1.00363
-0.88836
0.165972
0.588577
-0.840908
-0.756491
-1.67633
-0.552243
-0.828846
-1.03879
-0.00404902
-1.34827
-2.02245
1.16891
-1.30223
-1.97851
-1.03066
-0.661275
-1.45231
-1.0299
1.11976
-1.19247
-0.798579
0.859052
0.331059
0.0211296
-0.0111493
-0.665215
0.211605
-0.900446
0.15574
-0.16042
-0.278456
0.669699
0.877461
-0.309418
-0.396003
0.200418
-1.81722
-0.617362
-1.29446
-0.857292
-0.239155
1.0372
-1.16448
0.882295
-1.26382
-0.523587
-0.843884
-0.515629
0.0255165
-0.523851
0.851002
-0.167643
-0.169569
-0.640357
-0.54771
0.251345
0.20296
1.0597
-0.701215
-0.179656
-0.237729
-0.163932
-0.449585
-0.818123
0.34749
-0.310582
0.724943
-0.389265
-1.2617
1.20615
0.352286
0.16578
0.717672
1.1864
1.6641
-0.360643
-1.56079
-0.579725
0.364236
-1.10571
0.478744
-1.05976
0.814831
0.24568
1.32861
-4.58033
-1.87787
-0.798602
-0.556172
-1.07844
-0.282575
-0.889122
-1.36856
-1.71795
-0.766991
-1.12707
-0.903633
-1.96696
-1.54863
-1.08638
-0.694714
1.3777
-0.667375
-1.21456
-3.03901
-3.07393
-1.18015
-2.28802
-1.90392
1.03853
-2.07151
-0.695162
-0.0847907
-1.46607
-1.09602
-1.82625
-1.52238
-2.14732
-1.20328
-0.40636
-0.459086
-0.126294
-0.774288
-0.495708
-1.10018
-3.53593
0.215371
-1.03602
-0.196758
1.09635
0.325349
-1.3732
-0.866108
-0.26501
0.915992
-2.50006
-1.77614
-1.32107
-0.253046
-1.68793
0.149325
0.134381
-0.895236
-2.1399
-1.29674
-2.70765
-0.225072
-0.388859
1.1355
-0.698469
-0.380639
-1.66219
-1.94429
-0.787417
1.11163
-0.660389
-2.22492
-0.0728504
0.842638
0.275501
-0.0537266
-1.85832
0.273672
-0.818176
-1.43465
-0.906763
0.0266185
-0.981935
0.822945
-0.600826
-1.02944
-1.23899
-1.40646
-0.196482
0.581825
0.380452
-1.59597
-1.59119
-0.999331
-1.20359
-1.09073
0.152315
-0.461985
-0.273302
-0.264413
-0.138538
-0.3308
1.1101
0.514432
0.692029
1.46065
1.66362
0.512759
-0.610455
-0.58844
-0.957844
-0.854663
-0.859832
0.622091
1.36843
0.0111134
-0.717732
-0.378466
-0.391102
-0.282833
-0.760155
0.772153
-0.676246
-0.14868
0.278517
0.376757
0.329033
0.933001
-0.528867
-0.924981
0.0696469
0.0218506
0.326785
0.271108
0.333281
0.186647
1.0704
-0.11724
-0.230198
-0.736651
-0.84429
-0.33841
0.700745
0.588959
-0.596247
-1.6234
-0.196796
1.05882
-0.803742
0.658088
-0.506088
-0.821951
0.295734
-0.0692288
0.496455
1.48119
-0.557382
-0.909002
-0.12237
-0.500088
-2.69319
-0.926984
-1.87305
-0.7056
0.82299
-0.714697
0.342816
-0.569366
-1.80105
-0.0820968
-1.72352
-1.734
-1.35516
-1.09592
-0.723901
0.0121943
-0.98151
-0.350286
-1.49443
-2.04723
-1.92709
-0.085056
-0.833378
0.287739
-0.0481173
-0.169107
-0.242531
-0.228519
-0.74918
-0.299866
-0.120362
-1.01867
-0.294123
-0.939267
-0.0202944
-0.603704
0.158741
-1.00565
0.264681
-1.76303
-1.87427
-0.239056
-2.26291
-1.08586
0.128283
-0.242028
1.18237
-0.460226
-1.58032
-0.597983
-1.41299
-1.39619
-2.64977
-1.26754
-1.09037
-0.461143
-0.989198
0.523633
-0.458257
-1.18936
-0.740105
-0.532129
-0.821304
0.991282
0.478593
-0.139227
0.262347
-1.03943
-1.81944
0.192695
-1.20618
-1.84567
-0.511597
-0.522206
0.115393
-0.0746306
0.435968
0.0733178
1.07053
-3.21455
-1.81094
-0.702902
-0.598947
-0.294392
-0.358243
-0.821273
-0.522556
0.554202
-0.308856
-0.25713
-1.79931
-0.302559
0.737378
-1.3387
1.04077
-0.907243
2.12125
0.657743
-0.476701
-0.85522
0.0875577
-0.359669
-0.292275
-1.06515
-0.267654
0.215183
0.0287189
0.392498
0.365448
-1.28616
-1.30417
-1.18434
0.390478
-0.406124
0.908744
-0.021464
-0.335939
0.363223
-0.764836
-0.737027
-0.58816
-0.429111
-0.329583
0.264556
-0.000598289
-0.45027
0.580555
-1.20265
-0.0809021
0.932968
-0.533299
0.0170353
-0.5039
-0.487922
0.0980071
-1.27834
-0.72204
1.39019
-0.538153
1.08764
-0.761307
1.13672
-0.964823
0.738125
0.539953
-0.443581
0.0208558
-0.569227
0.193612
-1.2029
0.569713
0.164166
0.227043
0.653633
1.1981
-0.608114
-1.6321
0.0144932
0.837813
-0.0253588
-1.96902
-0.612778
-0.874531
-0.16247
0.086088
1.06899
-0.465855
-1.2077
-1.75767
-2.32529
-1.70721
-2.1778
-2.88411
-1.64201
-0.302688
-0.240351
-0.799858
-0.939192
0.292159
-0.952291
-1.39722
-1.22805
-0.1165
0.0806351
-0.435631
1.03873
-1.03475
-1.81047
-1.71468
-0.687571
-1.69545
-0.021322
-0.926083
-2.0994
-0.0536028
0.530487
0.417892
1.24901
-1.18412
-2.40203
-1.06583
-0.969216
0.0801711
0.0797606
-0.147688
0.743732
-0.100749
-0.494319
-0.788326
0.00225382
-0.692637
-1.82763
-2.38081
-1.30291
-0.627915
-0.132997
-0.104873
-0.323268
-0.752205
0.198101
-0.767147
-0.0279963
-1.20864
0.05063
-1.52663
-0.572374
0.513363
0.000868837
-0.671854
-0.494316
-0.918419
-2.30999
-1.10978
0.136175
-0.665849
-0.287423
0.937467
0.262123
0.424946
0.296032
-0.220306
-0.199993
-0.666964
0.94507
0.613521
0.036332
-0.192482
-0.833141
-1.43185
-1.69713
-0.664888
-1.55779
-1.28954
-0.274112
0.860476
-0.32401
0.0895341
-1.40083
-0.783116
-1.20127
-0.889022
-0.270251
-0.805129
-0.409965
0.0706082
0.521366
-0.88922
1.23371
-1.49124
-0.970615
-0.819244
-0.111286
-1.32536
0.10761
1.51698
0.343029
0.175133
0.265659
-0.117069
-0.438233
-1.78811
-0.887864
-0.505681
0.175503
0.105296
0.850951
-0.192925
0.489895
0.417854
1.21962
-1.0893
-0.372778
-0.607686
-1.63743
-0.345578
-0.690106
0.192246
-0.345177
0.225829
-0.70926
-0.590489
-0.242112
-0.612254
0.306576
0.164896
0.42222
-0.967136
-0.396533
0.553016
0.944978
-0.200416
0.464466
-0.265703
-2.03101
0.0456509
0.547003
-0.32757
0.904844
-1.87176
0.363093
-2.54085
0.743947
-1.32936
0.965931
0.507511
0.0202251
-1.28009
-0.463005
0.632198
-0.944786
-0.732956
-2.38533
-1.081
-0.960486
-0.401088
-0.825885
-0.125771
0.175061
-1.40401
-0.593887
-1.69187
0.152909
1.91874
-0.0711629
0.897131
-0.164651
0.0109149
0.577894
-0.999907
0.162801
-0.133971
-1.47608
-0.170943
-0.218984
-0.115837
-0.572403
-0.11719
0.551368
0.0437245
-1.47556
0.332658
0.0713877
-0.349102
-0.15283
-0.22027
0.492223
0.465654
0.299434
0.205508
0.127793
-1.67569
-0.606103
-1.28245
-0.545602
0.0369123
0.754447
-0.788828
-1.16964
-0.182922
-1.57834
-0.561105
1.24253
-0.336766
-0.565664
0.596345
0.845931
-0.597596
1.6402
-0.408773
0.0214704
-0.614689
-0.967064
-0.604129
0.347668
-0.316437
0.610864
-0.954812
1.54122
1.28253
0.0881971
-1.21376
0.360541
-0.691526
0.18018
-0.460215
0.688913
0.990845
-0.378512
0.139579
-0.217882
-0.18765
-0.430218
-0.771769
-0.386528
0.759907
-0.597869
0.791256
0.340422
-0.0510134
-1.10127
-0.508817
0.572034
0.289154
-0.209085
1.07788
-0.495861
0.249218
-1.67807
-0.0311411
-0.167827
-0.344588
-1.02062
-1.05253
-0.553347
0.363655
0.587032
1.60823
-0.635371
-1.12271
-1.54352
-0.558101
1.49112
0.403777
0.0579112
-2.16915
0.407992
0.789336
-0.370829
1.10054
-0.0486316
-1.10754
0.036743
1.17541
-1.25733
0.775701
-0.0697498
0.137263
-0.519011
-0.591835
-0.0375321
0.911933
0.168093
-0.616429
0.0648657
-0.583172
-0.459869
-0.886706
0.25351
-1.34221
-0.0254184
0.70673
-1.48743
0.800476
0.434358
1.13445
-0.691803
0.597901
-0.0909011
-0.474828
-1.49572
-1.71884
0.994497
0.359486
-0.859098
0.786566
0.0708534
0.416404
-0.131341
-0.0884738
-0.741164
0.0258511
-1.51671
-2.00578
0.50503
0.0635061
1.5774
0.67604
0.484172
0.485394
-0.453072
-1.42903
-0.18064
0.055154
0.268533
0.116197
0.79963
0.126269
0.555962
0.521212
-1.55035
1.06968
0.0850516
-0.442913
1.43407
0.423752
0.50307
0.765046
-0.111826
-1.11457
-0.911782
-0.246956
-1.20275
1.68142
-0.180245
0.54589
-0.556359
-0.112853
-0.012093
0.0749519
-0.177674
-0.339936
-0.631451
-0.323255
0.961348
0.293655
0.0825007
0.681392
-0.219676
0.729125
-1.41245
-0.251492
-0.794068
-0.755216
0.0569824
0.584901
0.809662
0.0144825
1.27456
-0.139168
-1.11102
-0.0046062
0.322007
-0.429713
-0.721307
0.229789
2.0975
-0.789205
0.442006
-1.4279
0.209985
0.035858
-0.513369
0.738904
-1.38124
-0.062639
0.621172
-0.602717
0.0573891
0.526909
0.508743
-0.630153
-0.15372
-0.671189
-0.0109726
0.406889
-0.273096
1.2001
-0.384337
-0.8906
-0.766738
-0.33382
-1.00615
-0.243264
-0.902484
-1.26256
0.151829
0.711194
0.13305
0.386633
-1.22053
-0.591241
-0.0360735
-0.249895
1.03494
1.29852
1.33004
0.550084
0.848127
0.314346
0.00387264
0.393105
0.324083
0.276624
0.509031
-0.606053
-0.294721
0.894479
-0.0377206
0.841452
0.900119
-1.63161
1.40558
0.422577
0.40299
0.386769
0.323927
0.694833
0.592236
0.189664
0.652882
0.63784
-1.1164
-0.00439775
0.701563
-1.21292
-1.06698
-1.02705
0.063572
1.7436
-1.18512
0.135763
1.22739
-0.742428
-0.310536
-0.0100329
0.342855
0.277419
-0.328968
-0.333071
-2.16986
-1.16623
1.09416
1.54043
-0.875033
0.840304
1.31249
1.60198
1.74136
-0.318956
-0.955947
0.705605
-0.217155
0.4007
-0.427458
1.30928
0.776076
1.34296
0.63772
1.07687
-1.57808
-0.978226
0.0734201
-0.563713
-0.119511
-0.00706956
-0.044289
0.948628
-0.226175
0.361751
0.0419382
-0.483856
0.0535241
-0.0847516
-0.393747
-0.0780082
1.08459
0.248299
0.214995
0.281433
-0.546877
-0.920338
-0.422525
-0.349456
0.385335
2.62961
0.137951
1.0674
-0.589803
0.504245
0.736706
-0.0626503
-0.629043
-0.94518
-0.754953
0.979542
0.537045
1.24391
-0.760036
1.47319
-0.142042
-0.78672
-1.2743
-0.587555
1.7016
0.281592
0.265281
0.342586
0.571861
1.31496
0.362512
-0.0677513
0.219153
-1.40622
-0.13637
-0.490502
1.6193
0.918235
0.805266
1.86749
-1.28001
-1.15671
0.719372
0.114156
0.610163
1.09387
-0.410684
0.0441769
0.376986
0.0754769
1.00207
0.452284
0.513089
-0.0141767
0.716155
-0.722876
0.863204
0.525449
-1.04072
-0.147696
-0.935287
-0.649625
-0.957148
0.503725
-0.401716
-0.573004
0.716495
0.136079
0.987498
0.436619
-1.65825
-0.565906
-1.00785
0.906487
-1.04276
-1.36039
0.776293
1.18784
0.276221
-0.0241887
-0.984128
-0.192452
-1.13549
1.67766
-0.616489
-0.478409
0.245435
0.532227
0.301423
0.254052
-1.06288
-0.253577
0.731493
-0.174661
-0.16317
0.773466
-0.0544471
1.01561
-0.592039
-0.0793972
0.806024
-0.553127
-0.595136
0.943463
1.30957
0.658836
0.610768
1.64951
0.344227
0.78736
0.285143
-0.131986
0.315663
0.502877
0.782494
-0.170359
0.291552
-0.0573871
-0.161476
0.295947
0.21092
-0.750849
-1.03021
2.15492
1.96216
1.55019
2.39674
1.73959
0.76822
0.385248
-0.0951602
1.02466
1.80305
0.709152
2.90695
1.15224
2.31824
0.913703
2.25037
1.02283
0.722042
-1.02111
1.37397
2.15968
-0.329141
-0.297975
1.95941
1.3464
0.0431844
0.52291
0.561047
-0.791047
0.822948
-0.726019
1.18541
1.3323
1.69957
0.736431
1.5217
1.81637
-0.106934
-1.63791
-0.339114
1.66025
0.649451
1.61294
0.334687
1.41645
-0.629303
0.997312
-1.13808
1.48086
1.35092
0.172582
1.324
1.07572
1.60032
0.8738
0.97216
0.758101
-0.247405
-0.97807
-0.538402
2.00355
0.232767
0.218558
-1.42953
0.51583
-0.419574
0.363819
0.812904
1.18666
1.26623
0.882858
1.0882
1.06912
1.05118
0.591725
1.44924
-0.347661
1.05927
-0.0826073
0.201064
-0.38939
0.52531
0.272665
1.21878
0.559527
0.429328
0.374066
0.0202999
-1.20129
0.483542
-0.152099
1.43995
0.222389
1.3042
0.388532
0.734631
-1.07422
1.35982
-0.0338776
0.692078
-0.0272075
0.977143
1.69689
0.958439
2.00922
1.20404
-0.282947
1.16981
1.1344
-0.190231
1.52642
-0.00134992
1.62219
-0.225162
1.00878
1.66999
0.933828
0.160482
0.538672
-0.305302
-0.0203384
0.790287
-0.307592
1.36861
1.00298
0.0285948
0.660605
0.426864
0.645854
0.116809
-1.66611
-0.674838
0.500207
-0.917006
0.892362
0.178773
0.0279965
-0.302308
-0.759108
-0.131018
0.119016
0.47164
0.393585
-0.0857341
0.73493
-0.379506
1.44539
0.770319
1.33288
1.59465
0.61732
0.0201701
-0.156659
-0.0635605
-0.388197
0.169996
0.930814
-0.458832
1.20097
0.367877
1.72414
3.49179
1.64244
1.42102
1.49012
1.43713
1.41142
1.61536
-0.114415
2.70672
1.78329
2.07807
1.60373
2.65293
1.94995
1.93224
1.07614
0.94
0.167444
0.0842922
1.96358
0.0142172
2.21924
0.18849
0.632247
-0.175392
-0.0939135
0.285608
0.425334
0.999296
0.27501
2.04215
-0.344482
1.86777
0.370895
1.83689
0.0610786
1.15897
-0.249829
0.708862
2.20616
2.35845
1.671
-0.169685
0.91374
0.446536
0.906635
-0.011958
2.29752
0.307389
0.422843
0.126132
0.159885
1.17368
1.62021
0.447448
-0.0226885
1.37071
-0.186361
0.456988
2.14884
0.524208
0.359404
0.768014
1.59959
1.60105
0.757429
0.405086
0.187419
0.656753
-0.630572
1.96727
-0.169249
0.421504
1.65783
-0.0472845
1.88734
0.763895
-1.04648
-1.04184
-0.0406135
1.50178
1.38026
-0.264629
-1.14795
-0.0678154
1.07412
-0.0382304
0.533899
0.604236
0.801841
1.01933
0.0931493
0.0786984
0.308083
0.273425
1.14609
1.22241
0.568712
-0.0289924
0.104312
0.953739
1.23724
0.0956981
0.624001
-0.603933
0.858017
1.56512
-1.36292
-0.284895
-0.941394
0.611283
-0.236688
0.00401973
0.428895
0.64977
0.77088
1.16585
-0.447481
0.150404
0.238314
-0.382193
-0.89372
0.380074
-1.24083
-0.592564
0.734953
-1.25899
-0.261163
-0.00677463
-0.231039
0.0104473
-0.524145
0.0648827
-0.491977
0.603659
0.0160733
0.91421
-0.430995
0.125291
-0.394364
0.435386
0.454124
-0.217874
-0.976687
0.457922
0.168736
0.20054
-0.198434
-0.0132915
0.221762
1.29355
0.0605641
0.529223
-1.01505
0.601389
-0.26317
-0.00487164
-0.488743
1.378
3.0511
1.18155
2.98134
1.49045
1.89668
1.22653
1.54333
1.66692
1.71805
0.978803
1.03703
1.01456
3.50975
3.26682
3.71866
2.13847
1.79628
2.28954
-0.159174
2.32409
2.82048
-0.441731
2.15419
1.00547
1.85247
1.3115
0.463448
1.11769
1.2031
0.976022
0.986504
0.474096
2.30691
2.5905
3.10805
1.80845
0.508835
1.31458
0.141935
1.02029
1.5314
0.334636
2.5596
0.550091
2.83284
-0.151771
1.27382
1.25456
1.40117
1.10702
0.233643
1.74231
2.16995
2.21078
2.48681
0.874728
1.36635
1.58645
-0.379624
1.08402
0.113832
-0.690399
1.69612
0.410785
1.03754
0.118303
1.52722
1.18586
0.524095
1.08003
2.09543
1.13325
1.01302
1.37801
0.862016
1.56052
0.691695
0.672036
0.902245
-0.046574
2.14806
-1.32999
2.07026
-0.175732
0.8328
0.0562407
0.243731
0.0494275
-0.0741772
0.55508
0.338082
1.89175
0.312427
0.231478
0.876641
1.20803
-0.0554413
1.07317
-1.00244
0.827712
0.283382
-0.451425
0.126435
0.789836
0.229218
0.336649
-1.41705
0.595902
2.33318
-0.363327
-0.426746
1.01489
-1.72416
0.858797
1.13767
0.7421
0.674179
0.0786729
-2.60401
0.562728
1.22297
0.821322
0.930337
1.01263
1.39768
0.674324
0.387441
1.0557
0.69004
0.816207
1.05902
0.690966
-0.162189
1.42282
0.287917