/*--------------------------------*- C++ -*----------------------------------*\
| =========                 |                                                 |
| \\      /  F ield         | OpenFOAM: The Open Source CFD Toolbox           |
|  \\    /   O peration     | Version:  2212                                  |
|   \\  /    A nd           | Website:  www.openfoam.com                      |
|    \\/     M anipulation  |                                                 |
\*---------------------------------------------------------------------------*/
FoamFile
{
    version     2.0;
    format      ascii;
    arch        "LSB;label=32;scalar=64";
    class       volScalarField;
    location    "0";
    object      relativeErrorField;
}
// * * * * * * * * * * * * * * * * * * * * * * * * * * * * * * * * * * * * * //

dimensions      [0 0 0 1 0 0 0];

internalField   nonuniform List<scalar> 
3200
(
0.00778517
0.00397578
0.00453793
0.00107778
0.00478023
0.00812383
0.00718697
0.00406256
0.00706347
0.00898554
0.00878027
0.00636364
0.010353
0.00294731
0.00475241
0.00526164
0.00437614
0.002637
0.000325931
0.00441026
0.0070299
0.00397202
0.00235372
0.00471948
0.00948439
0.00681839
0.00583689
0.0063325
0.00823707
0.00500333
0.00574667
0.0049252
0.00819657
0.00545139
0.00169708
0.00522285
0.00241052
0.000177698
0.00353295
0.00147157
0.00582876
0.00318937
0.00183109
0.00528921
0.00659496
0.00629567
0.0075718
0.00679913
0.00736492
0.00148137
0.00318304
0.00637279
0.00155814
0.00136552
0.00419517
0.000983398
0.003528
0.00101137
0.00240485
0.00150967
0.00750826
0.00235048
0.000704754
0.000765277
0.00220914
0.0047798
0.000609701
0.00779934
0.00446262
0.00309687
0.00355322
0.00204674
0.00565927
0.00545682
0.00599146
0.00489304
0.00452628
0.000739965
0.00153179
0.000678256
9.35647e-05
0.00304313
0.00119257
0.000181001
0.000807105
0.00515987
0.00212171
0.00274472
0.00701983
0.00233276
0.00416313
0.000853561
0.0064758
0.0055057
0.00316345
0.00143057
0.00140214
0.00102684
0.000235999
0.00256134
0.000560887
0.00131584
0.00298329
0.00285838
0.00229741
0.00348661
0.00195761
0.00311973
0.00624651
0.00182385
0.00165587
0.00157346
0.00755743
0.000970332
0.00231162
0.000942989
0.000898344
0.00417483
0.0032271
0.00268288
0.00020493
0.000426922
0.00272938
0.000411392
0.00191353
0.00391445
0.00355404
0.000717722
0.00256113
0.00253689
0.000383369
0.00391737
0.00420845
0.00132859
0.000888365
5.37044e-05
0.000334765
0.00609025
0.00306633
0.00151024
0.000334947
0.000254335
0.00608739
8.76035e-05
0.00191542
0.00213698
0.0018534
3.31393e-05
0.00441349
0.00406331
0.00101515
0.00395956
0.00216307
0.000769195
0.00218038
0.00163933
0.00212951
0.00172605
0.00310277
0.000769739
0.00991921
0.00406137
0.00171413
0.00189012
0.00562366
0.00508074
0.006019
0.00889208
0.00611646
0.00764265
0.00690301
0.00507264
0.00386232
0.00589065
0.00650909
0.00762538
0.00267646
0.00266514
0.00375662
0.00499221
0.00700419
0.000740684
0.00105792
0.00123763
0.0039785
0.000314535
0.0092111
9.17733e-05
0.00432887
0.000158855
0.000240713
0.00409821
0.000349762
0.00530137
0.00207354
0.00573704
0.00105915
0.00238541
0.000246524
6.51928e-05
0.00536205
0.00109986
0.000892929
0.000476402
0.0020245
0.00150062
0.0073101
0.00708482
0.00523632
0.000358347
0.0016719
0.0060676
0.00546925
0.00592529
0.00723549
0.0045684
0.00347321
0.000627288
0.00107918
0.00135252
0.005768
0.00308531
0.0012854
0.000244331
0.00115843
0.00260977
0.00680618
0.00539017
0.00208404
0.00301974
0.00459197
0.00154597
0.003509
0.00484905
0.00078928
0.00539317
0.000449925
0.00192271
0.00237475
0.00086229
0.000941003
0.00312512
0.00202534
0.00315597
0.00181906
0.00476775
0.000931885
0.00295055
0.00417877
0.000683324
0.000976898
1.72504e-06
0.00234427
0.00686166
0.00268336
0.00471724
4.85399e-05
0.000152686
0.000955798
0.00190233
0.000369094
0.000611625
0.00342718
0.00105954
0.000960002
0.000265578
0.00294171
6.60823e-05
0.00228228
0.00171436
0.00225562
0.00529722
0.00322148
0.00288295
0.00276985
0.00268943
0.00673942
0.00270541
0.00472437
0.00293234
0.0021891
0.00109633
0.00282826
0.00416655
0.00111211
0.00228859
0.00435966
7.41665e-05
0.00212865
0.00119711
0.00510823
0.000928692
0.002581
0.000411922
0.00117052
0.00136075
0.00303285
0.00427803
0.00263541
0.0042738
0.00087515
0.00348551
0.00347211
0.00154087
0.000633341
0.0019512
0.000861574
0.00596339
0.00518186
0.00106168
0.00264742
0.00169598
0.00110115
0.00465966
0.000285779
0.00231172
0.00145983
0.00369264
0.0011739
0.00132374
0.00822797
0.00486517
0.00217627
0.000398932
0.00438855
0.00839255
0.00224828
0.00164078
0.00574347
0.00289757
0.0056925
0.00391382
0.0038569
0.00260473
0.00289274
0.00390661
0.00274538
0.00443975
0.00511131
0.00325629
0.00625863
0.00262158
0.00104815
0.000290347
0.00153778
0.0033326
0.0027087
0.00565111
0.00407842
0.0043935
0.00244456
0.00165171
0.00241754
0.0066089
0.00453383
0.00326845
0.00292031
0.00373752
0.00113917
0.00531359
0.00485817
0.0042672
0.00136808
0.00203241
0.00422602
0.00272706
0.00442896
0.00225294
0.00257031
0.00412947
0.00560282
0.00283422
0.000937825
0.00100179
0.00578084
0.00163737
0.00440342
0.00212689
0.000267118
0.00726131
0.00497962
0.000198535
0.00270714
0.00137615
0.000452561
0.00281788
0.00328308
0.00128125
0.0016766
0.00412122
0.00512071
0.00126799
0.00296013
0.000452762
0.00492452
0.00110114
0.000482412
0.00016096
0.000591478
5.42885e-05
0.00170162
0.00236238
0.000316114
0.00418794
0.000804928
0.00213897
0.00150181
0.00277075
0.0017262
0.00252535
0.00339704
0.000295147
0.00145561
0.00161081
0.00422174
0.00355102
0.000757033
0.000270754
0.00519107
0.000429067
0.00224896
0.00266917
0.00158205
0.00289427
0.00010187
0.00274224
0.00175129
0.00390623
0.00424732
0.000254733
0.00275161
0.000955611
0.00398095
0.00177115
0.000384417
0.00375922
0.000811196
0.00178428
7.53256e-06
0.00149893
0.00422634
0.000837831
0.00102548
0.00464587
0.00460426
0.00123238
0.000804791
0.00238048
0.00373688
0.000597038
0.000532875
0.00232986
0.00596452
0.00253386
0.0024061
0.000386066
0.000146753
0.00199384
0.00352503
0.0018461
0.00142426
0.00169527
0.00261272
0.00105184
0.00243041
0.00300347
0.00119944
0.0022138
0.000378197
0.000844277
0.00198137
0.00031632
0.000562271
0.000992476
0.00508311
0.00252916
0.00102507
0.00409084
0.00219453
0.000495247
0.00656694
0.00206826
8.35067e-05
0.00083182
0.000753837
0.00405491
0.00426151
0.00500881
0.00454791
0.0021681
0.00607217
0.00172318
0.00149151
0.00336756
0.000923609
0.00294176
0.00341269
0.000121949
0.00602223
0.00429462
0.00549419
0.00146802
0.00221343
0.000923907
0.00198241
4.80285e-05
0.00472954
0.000150953
0.00128688
0.000577719
0.000638588
0.00109301
0.00100959
0.00366389
2.7678e-05
0.00269346
0.000113186
0.0026961
0.000294007
0.00304507
0.00146825
0.00018429
0.00140744
0.00228113
0.00182987
0.00471107
0.00467708
0.00489418
0.00214656
0.0015625
0.0057758
0.000108816
0.00164424
6.38165e-05
0.00177489
0.0025573
0.00137666
0.00541877
0.00243557
0.00213247
0.0056373
0.00257739
0.00206807
0.000467305
0.00181347
0.00142028
0.00264751
0.00431435
0.00195797
0.00270491
0.00354417
0.00148035
0.00288643
0.00421824
0.000998563
0.000233812
0.00590447
0.00307329
0.00114517
0.00112642
0.00325944
0.00106974
0.000753801
0.000371908
0.00163919
0.00387318
5.87682e-05
0.00209875
0.00289895
0.00303032
0.0046064
0.00112427
0.00227246
0.00123683
0.00405193
0.000724132
0.00171729
0.000391697
6.0672e-05
0.00131114
0.000944175
0.00437972
0.00153539
0.00111986
0.00021594
0.00485754
0.00236102
0.00277008
0.00398619
0.00355264
0.00341275
0.00345901
0.00108867
9.12746e-05
0.00185636
0.00129575
0.000749252
0.000772465
0.00342062
0.000474174
0.000685091
0.00059249
0.000406015
0.000207265
0.000455553
0.00264976
0.00576072
0.000766884
0.00320628
0.00542586
0.00368772
0.00171825
0.000816694
0.00166201
0.00145588
0.000642058
0.00087738
0.00180556
0.000302274
0.000241083
0.00210509
0.00297672
0.0026237
0.000679154
0.00166871
0.00160115
0.00132545
0.00240351
0.00190704
0.0030113
0.00283841
0.000605629
0.00483685
0.000250748
0.00209674
0.00180274
0.00483572
0.00220502
0.00109104
0.00917864
0.00709397
0.00627348
0.00499436
0.000472069
0.00219656
0.00289918
0.00805983
0.0039463
0.00200166
0.000841264
0.000342711
0.00214198
0.000936774
0.000486261
0.000448415
0.0027491
0.00146916
0.000424286
0.00415862
0.00624929
0.00626343
0.00255862
0.000305339
0.00292181
6.7987e-06
0.00366491
0.00499984
0.000461442
0.00267987
0.00109071
0.000305252
0.000494559
0.00159457
9.33745e-06
0.000549088
0.00561499
0.00286006
0.00656059
0.00227882
0.00462482
0.00469758
0.000886768
0.00293712
0.00100687
0.000160053
0.00713113
0.00560123
0.00459632
0.000828975
0.00071205
0.00258973
0.00158816
0.000456141
0.00276283
0.00066698
0.000980684
0.00115425
0.00150684
0.00543082
0.00642577
0.00391672
0.000504676
0.00226072
0.00442405
0.00380818
0.000146484
0.000205084
0.00101468
0.0040579
0.000925736
0.00191725
0.00144181
0.00550492
0.00235533
0.000586299
0.00330208
0.00312271
0.00405031
0.00126936
0.00632001
0.00532846
0.00322367
0.000855065
0.00162364
0.00177001
0.00337138
0.00314664
0.000118307
0.00322383
0.00691396
0.0029091
0.00466877
0.000487381
0.00205431
0.00442036
0.00186575
0.00336514
0.00430254
0.00380774
0.0056103
0.00153557
0.00232032
0.00268971
0.00273138
0.00123965
0.00101146
0.00313207
0.00320807
0.00353677
0.00185625
0.00069451
0.00133641
0.00157113
0.00173478
0.00193051
0.00190255
0.00262767
0.000698167
0.00134993
0.00190063
0.00295432
0.000937168
0.000976437
0.00101872
0.000512219
0.000623737
0.000167696
0.00227303
0.00270249
0.000254234
0.00150569
0.000777199
0.00351342
0.000914131
4.97906e-05
0.00390905
0.0030218
0.00394494
0.000504686
0.00308119
0.00263717
0.00310822
0.000516875
0.00259271
0.00409601
0.00124395
0.00216912
0.000455976
0.00285641
0.00322909
0.00446283
0.00139839
0.00121849
0.00405749
0.000683371
0.00218457
0.00453772
0.00647857
8.19948e-05
0.000100139
0.0105838
0.00569979
0.000858582
0.00220883
0.000723466
0.00188187
0.00152154
0.00121169
0.00266743
0.00412544
0.00101706
0.00355394
0.00275944
0.00056366
0.00180771
0.00315466
0.00212055
0.00366959
0.00272293
0.00924302
0.00425705
0.00132788
0.00361814
0.0007128
0.00131178
0.00144264
0.00236702
1.33848e-05
0.00206297
0.000912963
0.000490325
0.0035856
0.000470188
0.000772624
0.000164408
0.000452504
0.000428758
0.00325282
0.00065126
0.00594255
0.00777954
0.000997241
0.0010116
0.00227584
0.000614799
0.00387421
0.000772656
0.000434016
0.00307154
0.00164364
5.76746e-05
0.00522958
0.00146605
0.00512418
0.00107023
0.0037763
0.00179982
0.00370914
0.000764542
0.00413872
0.00564914
0.000918285
0.000908655
0.00206494
0.000188929
0.000899149
0.00191214
0.00255982
0.00148276
0.00161043
0.000252518
0.00251235
0.00174403
0.00312718
0.00127463
0.00181217
0.00149709
0.00181476
0.000566775
0.00199052
0.000845641
0.000436224
0.00227626
0.00217379
0.00144059
0.00217801
0.0017964
0.000800154
0.00344318
0.000795636
0.000663048
0.00129394
0.00312644
0.00277285
0.000111255
0.000859764
0.00601545
4.40445e-05
0.00101727
0.00250219
0.000180851
0.00255704
0.00154551
0.00147453
0.00199219
0.000390883
0.00135275
0.00120767
0.000826443
0.0003433
0.00431608
0.000328532
0.000709404
0.00114085
0.0040075
0.00391019
0.000151944
0.00142079
0.000655294
0.000670983
0.00102342
0.00248269
0.00368322
0.00278581
0.00327868
0.00521067
0.000308563
0.00229737
0.000569037
0.00578201
0.000913812
0.000732575
0.00491302
0.00162458
0.000187053
0.00279217
0.00467932
0.0023405
0.00249961
0.00252048
0.00321718
9.36249e-05
0.000940856
0.00114863
0.000753548
0.000770566
0.000324006
0.00113379
0.0020548
0.00121857
0.00364133
0.000871957
0.000237522
0.000720458
0.00281265
0.00135443
0.000458465
0.00268752
0.000831726
0.00199605
0.00825648
0.00362216
0.000391425
0.00298807
0.000753645
0.000749542
0.00229129
8.82621e-05
0.000542187
0.00200903
0.000261434
0.0014093
0.00239261
0.000653715
0.000769356
0.000625741
0.000217817
0.00298999
0.000797707
0.00237122
0.00643067
0.000161663
0.00186968
0.00258727
0.00147549
0.0021574
0.001911
0.00100834
0.00547152
0.00177193
0.0012308
0.00484909
0.00321159
0.00122852
0.00297529
0.000201907
0.00222338
0.00214918
0.00316154
0.00586121
0.00783493
0.0020023
0.00303131
0.000491484
0.000313854
0.00258097
0.000433901
0.000738548
0.00405219
0.00122936
0.00193577
0.00371778
0.000544116
0.0002098
0.00264715
0.00234628
0.00159813
0.000718409
0.000545108
0.00207383
0.00578751
0.00313479
0.000713424
0.000591111
0.000641947
0.000709888
0.00381538
0.00202905
0.00295799
0.000569089
0.00188615
0.00201551
0.00109669
0.00218228
0.000849525
0.00233536
0.00234552
0.00167588
0.00288985
0.00182616
0.00577953
0.00141347
0.0017257
0.000597995
0.000120444
0.000879999
0.0020802
0.000386129
0.000630908
0.000553575
0.00127769
0.00207234
0.00181536
0.000237381
0.00184161
0.000791176
0.000136501
0.00214072
0.00124708
0.00347253
0.00116074
0.000521665
0.000573017
0.0037505
0.00341316
0.00249844
0.000627347
0.00282526
0.0034438
0.0017344
0.00046695
0.00116891
0.00268801
0.000133642
0.00104829
0.000485674
0.00112804
0.00177493
0.00267238
0.000240451
0.000288809
0.0039637
0.00143939
0.00106363
0.000990059
0.00181584
0.00111804
0.00161869
0.000679857
0.0040154
0.00112075
0.00094715
0.000221007
0.00290676
0.00652827
0.00292007
0.00017142
0.00148266
0.00210508
0.00386115
0.0015158
0.000211764
0.00280768
0.00096098
0.000228405
0.00123089
0.00331493
0.00497569
0.0067558
0.000969995
0.00225588
0.000330248
0.00378015
0.00168219
0.000392836
0.000662336
0.00314133
0.00204349
0.00255837
0.00311133
0.00673704
0.00449539
0.00101433
0.00135625
0.00143677
0.00329317
0.00177612
0.000548203
0.00242979
0.000841222
0.00323946
0.0012015
0.00501861
7.31001e-05
0.00149131
0.00055049
0.00550308
0.00134044
0.00502606
0.00721771
0.00779108
0.000564891
0.00228568
0.000128336
0.003948
0.000344913
0.00275033
0.000219036
0.00127658
0.000804092
0.00131207
0.00304821
0.000315685
0.000136964
0.000168217
0.000490771
0.000116095
0.000918269
0.000343026
0.00103698
0.00484122
0.00333913
9.05722e-05
0.00401685
0.00216043
0.00125141
0.00368202
0.00192111
0.00247679
0.000581829
0.00175692
0.000137975
0.00227062
0.00187359
0.000861788
0.00117981
0.000308672
0.00227317
0.00199862
0.00589665
0.00187076
0.0010907
2.02125e-06
0.000477327
0.000696914
0.000587655
0.00222923
0.00321825
0.000915984
0.00175481
0.000918865
0.0033964
0.00271752
0.00117696
0.00137354
0.000854788
9.44072e-05
0.00337282
0.000109812
0.0035853
0.00485038
0.000209113
0.00173286
0.000440539
0.00124315
0.000215703
0.000336994
0.000850672
0.000104452
0.00278599
0.00571102
0.00127011
0.00402739
0.00213719
0.00111733
0.00143474
0.000588576
0.00277264
0.00515568
0.00205467
0.00106567
0.00217431
0.00303632
0.00106002
0.00111595
0.00100199
0.0012126
0.00251805
0.00423267
0.00375975
0.0016552
0.000880787
0.00165016
0.00241952
0.0002168
0.000278386
0.00159813
0.00221047
0.00438401
0.00238177
0.000959802
0.00160191
0.000399816
0.00245189
0.00406097
0.0012896
0.000839368
0.00109605
0.00381099
0.000881546
0.00366256
0.00258826
0.00232868
0.00157626
0.00307104
0.00061655
0.0015067
0.00387238
0.00204922
0.0018528
0.0015689
0.00142587
0.00382823
0.0011287
0.00112302
0.00138438
0.00175626
0.0016117
0.0015108
0.00110988
0.00323617
0.00214537
5.11609e-05
0.00294575
0.00415741
0.000402295
0.000399343
0.00258739
0.00015809
0.000970043
0.00601498
0.00046493
0.00437244
0.000198588
0.00375328
0.00405599
0.000516975
0.00260097
0.000717949
0.00137673
0.00367721
0.00432162
0.00887177
0.00400509
0.00632712
0.00101074
0.00471894
0.0014847
0.00412251
0.0083438
0.00716312
0.000632739
0.000270312
0.000942143
0.0040449
0.00555095
0.00128504
0.00265761
0.00130004
0.00150649
0.00504115
0.00232169
0.00823427
0.00047265
0.00175523
0.00146164
0.000834307
0.0063266
0.00196931
0.00849921
0.00324074
0.000112339
8.36255e-05
0.00171623
0.00137848
0.0011548
0.00102369
0.000546365
0.00139853
0.00358455
0.00516685
0.00287336
0.00472605
0.00324682
0.00449699
0.00107642
0.000551891
0.000721621
0.00340979
0.00675974
0.00103524
0.00394298
0.000370742
0.00459098
0.000469474
0.00531463
0.000388597
0.00254211
0.00147891
0.00185263
0.00174285
0.00424781
0.00116494
0.00178952
9.61914e-05
0.00493438
0.00135064
0.00135198
0.00037134
0.00596948
0.00342406
0.00192395
0.00342022
0.0042335
0.00227212
0.00234897
0.000741201
0.00191375
0.00154061
0.000230931
0.000606237
0.00417243
0.000248375
0.000608654
0.000994909
0.00232226
0.00362057
9.33038e-05
0.000692805
0.00338701
0.000685974
0.000817262
0.00125461
0.00146255
0.00220668
0.000382271
0.00379638
0.00136787
0.00373367
0.000857371
0.000356789
0.00270997
0.000965737
0.00126958
0.0032814
0.00116448
0.00194886
0.00432654
0.00305614
0.00567719
0.00291907
0.000829928
0.000924939
0.00293559
0.00197725
0.00256893
0.00117578
0.00106937
0.00453332
0.00277694
0.000735828
0.00256284
0.000196812
0.00284009
0.00561399
0.00163593
0.00172053
0.00132376
0.0010036
0.00525256
0.0033305
0.00152674
0.000339595
0.000345557
0.00235177
0.00400409
0.00211719
0.000900994
0.0048174
0.000624435
0.00343244
0.00308222
0.00246802
0.00401852
0.00189196
0.000301359
0.0019979
0.00222215
0.00306357
0.000400606
0.00590524
0.00259419
0.00494938
0.0051415
0.00279801
0.000298032
0.00225846
0.00358044
0.00272365
0.000366946
0.00412526
0.00773421
0.0036934
0.00236338
0.0025505
0.00275665
0.00278141
0.00238417
0.00435589
0.00590821
0.00529802
0.000721682
0.00663703
0.00035534
0.00533091
0.000897178
0.00047266
4.62493e-05
0.00374438
0.00141081
0.000466405
0.00458495
0.000541986
0.00458602
0.000145582
0.000921956
0.000445039
0.00419322
0.000433965
0.00733637
0.005148
0.0009335
0.00329159
0.00225329
0.00233455
0.00143207
0.0041197
0.000413043
0.00356854
0.00346017
0.0034329
0.00705968
0.00356688
0.00321639
0.00313578
0.000780714
0.000101034
0.000636496
0.00104899
0.00285158
0.0021198
0.00425572
0.00236885
0.000387206
0.0015998
0.00109304
0.000545683
0.000356341
0.00192978
0.00136879
0.00629113
0.00514896
0.000950466
0.00305087
0.00209793
0.00144527
0.00129493
1.41598e-05
0.002491
0.00371924
0.00222009
0.00091946
0.00155522
0.00271636
0.00266693
0.00206282
0.00127047
0.00116082
0.00213171
0.00125182
0.00124444
0.00229519
0.00288846
0.000951439
0.00203846
0.000451025
0.00129268
0.00549706
0.00166194
0.00429503
0.0028109
0.00187346
0.00307595
0.000357729
0.00027921
0.000899693
0.00192276
0.00276633
0.00218942
0.00201582
0.000579588
0.000374633
0.00121641
0.000168755
0.000772118
0.00517621
0.000771291
0.00147973
0.00276751
0.00157848
0.000983419
0.000245684
0.00462753
0.000663245
0.00317188
0.00120571
0.000815179
0.000374119
0.00228367
0.000504425
0.00185768
0.000342348
0.00385829
0.000277761
0.00228425
0.00186827
0.00111521
0.00283575
0.00138693
0.00235725
0.00165157
0.000635198
0.000275725
0.00357293
0.000748953
0.00094271
8.36246e-05
0.00188255
0.00363149
0.000463913
0.00531455
0.00318898
0.00375504
0.00398565
0.00502765
0.00166351
0.00132646
0.00147869
0.000512198
0.00191886
0.0069401
0.00411754
0.00399014
0.00523478
0.00264333
0.00183367
0.000930509
0.00304959
0.000845538
0.00603584
0.00287078
0.00489808
0.00491423
0.00824565
0.00147426
0.00695393
0.00353051
0.00156989
0.00936048
0.00534195
0.00545198
0.000378847
0.00477797
0.000666676
0.00178763
0.000239484
0.000105235
0.000559352
0.00266945
0.00106116
0.000623704
0.00208089
0.00117571
0.00523486
0.000249636
0.00150864
0.000554377
0.00115617
0.000257893
0.00630005
0.00545193
0.00195323
0.000538042
0.00163691
0.00240033
4.89652e-05
0.00199586
0.00293873
0.000614339
0.000573878
0.00307286
0.000981743
7.29953e-05
0.00325383
0.00128688
0.00120783
0.00110739
0.000517318
0.00469197
0.0020051
0.00238095
0.0025312
0.00372449
0.000888451
0.00350727
0.00276205
0.00176744
0.000233116
0.000689659
0.00113713
0.00778895
0.00122836
0.00117134
0.00279821
0.0024789
0.000463565
0.00164554
0.00235337
0.00211915
0.00469953
0.00159124
0.00238684
0.00298921
1.16424e-05
0.00387379
0.00580662
0.00335387
0.00373441
0.00567163
0.00295393
0.00189525
0.00416322
0.00295343
0.00321285
0.00342368
0.00229445
0.00247008
0.000952648
6.08471e-05
3.21258e-05
0.0019797
0.00062948
0.00267721
0.000462788
0.000476433
0.000826557
0.00198698
0.00260241
0.000917439
0.001174
0.000594162
0.00538814
0.001831
0.00384064
0.00254476
0.000710267
0.00308208
0.00346222
0.00262464
0.00376116
0.00161943
0.00260943
0.00159389
7.88487e-05
0.00161821
0.00262795
0.000517547
0.000523368
0.00197611
0.00169006
0.000775571
0.000626326
0.00327073
0.00216478
0.000554791
0.00073436
0.000506567
0.00138974
0.00252977
0.00107477
0.00100638
0.00234882
0.00126108
0.00408696
0.00390656
0.00114089
0.000536829
0.00232377
0.00384126
0.00538774
0.00116763
0.00505345
0.00187711
0.00117947
0.00358086
0.00155059
0.00343282
0.00263976
0.000796007
0.0043051
0.0120408
0.00492971
0.00209305
0.00145523
0.00281713
0.000737007
0.00231581
0.00356056
0.00446602
0.00199307
0.00292876
0.0023491
0.00511743
0.00403357
0.00283348
0.00181474
0.00360476
0.00174911
0.00318841
0.00798899
0.00823253
0.00315706
0.00611248
0.00507925
0.00276678
0.00551167
0.0018475
0.000225134
0.00389007
0.00290719
0.00484411
0.0040395
0.0057015
0.00319789
0.0010812
0.00122307
0.000336927
0.00206852
0.00132608
0.00294648
0.00966958
0.00058843
0.00282744
0.000536364
0.00298528
0.000884963
0.00373164
0.00235182
0.000719211
0.00248521
0.00678301
0.00482027
0.00358722
0.000687649
0.00459124
0.000406602
0.000366323
0.00244322
0.00584656
0.00354616
0.00758317
0.000629892
0.0010873
0.0031721
0.00194945
0.00106147
0.00463175
0.00541449
0.00219184
0.0030936
0.00183783
0.00619326
0.000202874
0.00234804
0.000768274
0.000149952
0.00519132
0.000765226
0.00228976
0.00401794
0.00261073
7.6597e-05
0.00282367
0.00236479
0.00172531
0.00295415
0.00355341
0.00403178
0.000563046
0.001667
0.00109004
0.00457346
0.00456132
0.00286607
0.00345389
0.00313209
0.000437689
0.00132849
0.000786451
0.000761294
0.000412063
0.000983534
0.00329894
0.00152797
0.00205444
0.00433419
0.00493438
0.00152035
0.00180958
0.0017441
0.00283898
0.00253348
0.00254943
0.00184516
0.00406056
3.29926e-05
0.00213182
0.0011247
0.00116282
0.00084125
0.00235032
0.00238685
0.00208975
0.00045931
0.000860145
0.0011632
0.00101559
0.00287919
0.00163181
0.00285379
0.000214877
6.74195e-05
0.00100844
0.000836798
0.00102897
0.000576421
0.00330674
0.000362297
0.000711581
0.00227765
0.00273543
0.00109633
0.00226993
0.00190761
0.001931
0.00525702
0.00063722
0.00342819
0.00260217
0.00213055
0.00163845
0.00266112
0.000957509
0.000224161
0.00160765
0.00479696
0.00180533
0.00294454
0.000396434
0.00162024
0.00706544
0.00242876
0.00490015
0.00184312
0.00214654
0.00186148
0.000891785
0.00147963
0.00467711
0.000213117
0.00447414
0.00450301
0.0035217
0.00285087
0.00188545
3.18055e-05
0.00256383
0.000916396
0.00391549
0.00537079
0.00515228
0.000227167
0.00222301
0.000766554
0.000128027
0.000449421
0.00064389
0.000606178
0.00198613
0.000794721
0.000318988
0.00270057
0.000780202
0.00249363
5.39346e-05
0.00160629
0.000422895
0.00268253
0.000706909
0.00471365
0.00511833
0.000652269
0.00616808
0.00295666
0.000348937
0.000657696
0.0032103
0.00124871
0.00428571
0.00162128
0.00383096
0.00378637
0.00718949
0.00344154
0.00296301
0.00125434
0.00269345
0.00142728
0.00125036
0.00324795
0.00207044
0.00148763
0.00229417
0.00276663
0.00133463
0.000387957
0.00073053
0.00289278
0.00506158
0.000535959
0.00335483
0.00513456
0.0014238
0.00145413
0.000321542
0.00020812
0.00121677
0.000204801
0.0029928
0.00899271
0.0052095
0.00202099
0.00172101
0.000845348
0.00102804
0.00235537
0.00149787
0.0015879
0.000884666
0.000736388
0.00515301
0.000866629
0.00211273
0.00383729
0.00298489
0.00260349
0.00609118
0.00188995
0.00137061
0.00246019
0.000260266
0.00106873
0.00086808
0.00316209
0.000794213
0.000638238
8.51488e-05
0.00116336
0.00108294
0.0038109
0.00386426
0.00350958
0.00115737
0.00120412
0.00269536
6.36904e-05
0.000997296
0.0010788
0.00227265
0.00219082
0.00181783
0.00132597
0.00101814
0.000817021
1.84716e-06
0.00138979
0.00179151
0.00371049
0.000249571
0.00287787
0.00164503
5.25516e-05
0.00155467
0.00150566
0.000302507
0.00394676
0.00222985
0.00429454
0.00166291
0.00336157
0.00246624
0.00368209
0.00312498
0.00239049
0.00174851
0.00143631
6.7525e-05
0.00184287
0.000626787
0.00389409
0.00184431
0.000531459
0.000735049
0.00211627
0.00387941
0.00196924
0.0052857
4.69422e-05
0.00271387
8.21491e-05
0.00515395
0.00160205
0.00228323
0.000423584
0.00022414
0.0027797
0.00121002
0.00313408
0.0045584
0.00602851
0.00442607
0.00564797
0.00748452
0.004265
0.000787083
0.000625781
0.00208535
0.00245204
0.000763819
0.00249264
0.00372859
0.00327395
0.000310232
0.000214474
0.00115738
0.00275677
0.00274365
0.00479688
0.00454067
0.00182027
0.0044885
5.64631e-05
0.00245368
0.00556658
0.000142261
0.00140939
0.00111152
0.00332601
0.00315685
0.00640998
0.00290611
0.0026406
0.000218218
0.000216892
0.00040123
0.00201877
0.000273261
0.00133991
0.00213592
6.10519e-06
0.00187623
0.00495184
0.00645348
0.00353387
0.0017044
0.00036132
0.000285179
0.000879903
0.00204936
0.000540144
0.00214341
7.81737e-05
0.00337233
0.000141157
0.00425308
0.00159347
0.00142831
2.41612e-06
0.00186768
0.00137389
0.00255263
0.0064215
0.00308615
0.000378873
0.0018537
0.000800738
0.00261367
0.000731369
0.00118657
0.000827114
0.000633138
0.000574489
0.00191477
0.00271156
0.00175927
0.000104125
0.000551378
0.00238567
0.00409892
0.00485766
0.00190309
0.00445944
0.00369255
0.000785211
0.00246607
0.000929096
0.000256888
0.00402159
0.00224954
0.00345233
0.00264079
0.000802495
0.00238979
0.00121634
0.000209402
0.0015456
0.00263521
0.0036551
0.00441719
0.00287477
0.00242644
0.000329642
0.00392663
0.000318904
0.00449714
0.00101732
0.000519607
0.000788532
0.000347631
0.00130175
0.00552416
0.0027424
0.00156153
0.000541803
0.000324981
0.00262571
0.000595167
0.00151105
0.00128869
0.00376116
0.00335928
0.00114967
0.00187437
0.00505142
0.00106632
0.00212992
0.000593493
0.0010659
0.000697534
0.00219118
0.00191259
0.000784147
0.00198277
0.000992749
0.000533914
0.00136699
0.00313098
0.00128365
0.00179014
0.00305888
0.000648744
0.0015035
0.000860129
0.00657515
0.0001478
0.00177114
0.00106073
0.00293032
0.00606222
0.00117606
0.00663422
0.00194033
0.00346283
0.00251293
0.00131869
5.24921e-05
0.00331903
0.00119951
0.00163692
0.00244557
0.00189725
0.0061762
0.00280056
0.00249035
0.00104098
0.00214594
0.000327201
0.000456013
0.00366188
0.00155065
0.00450552
0.00040684
0.00509977
0.00018894
0.00237946
0.00043629
2.88979e-05
0.00152898
0.00264428
0.000430428
0.000354204
0.00390355
0.000452277
0.000579775
0.000306943
0.00151818
0.000311145
0.00146546
0.000116336
0.00392948
0.00090548
0.000194174
0.000948737
0.000414974
0.000597585
0.00133434
0.00126144
0.000810707
0.00055619
0.000345791
0.00453418
0.00164036
0.0034722
0.00147802
0.000100063
0.00204679
0.00214188
0.00317868
0.000497546
0.00429616
0.00156558
0.00346491
0.000938454
0.00157521
0.00165951
0.00235257
0.00166102
0.00455689
0.00113532
5.96221e-05
0.00170695
0.00268591
0.00167843
0.000966344
0.000880022
0.00169991
0.00265887
0.00429487
0.00357644
0.000246086
0.00348453
0.00103461
0.00198335
0.000516488
0.00131852
0.00197277
0.00283616
0.00108307
0.00039929
0.000623214
0.00053674
0.00123072
0.00220832
0.00110639
0.00217607
0.0017129
0.00226815
0.000976357
0.000146389
0.00316158
0.00151026
0.00169738
0.000857667
0.000619927
0.00319465
0.00146913
0.000738154
0.00496899
9.21968e-05
0.000496827
0.0010201
0.00302166
0.0031167
0.00163894
0.00107743
0.00173986
0.00476834
0.00188459
0.00333137
0.00458144
0.00172339
0.00460364
0.00124632
0.000178708
0.00669222
0.00125845
0.00243425
0.00114343
0.00339309
0.000149929
0.00341448
0.000113283
0.00362432
0.00387749
0.00239266
0.00021519
0.00042358
0.001602
0.00182721
0.000115897
0.00295326
0.000544328
0.00199599
0.000210017
0.001888
0.00148869
0.00287027
0.000820566
0.00434434
8.22704e-05
0.00228743
0.00481437
0.002591
0.00140602
0.00367247
0.00223968
0.00193584
0.000294337
0.00153761
0.00484383
0.00447582
0.00258703
0.000934073
0.00222966
0.00203913
0.000183496
0.00107744
0.000339599
0.000228645
0.00191491
6.67903e-05
0.00391967
0.0051862
0.00130676
0.000164468
0.00408934
0.00175456
0.00125805
0.00126268
0.00117979
0.00379697
0.000479573
0.000146285
0.000711541
0.000307604
0.00211502
0.000333732
0.00146854
0.00137617
0.00409253
0.00282369
0.000224563
0.00116993
0.00379027
0.00112082
0.00133176
0.00202717
0.000296597
0.00295902
0.00242263
0.000670955
0.00326559
0.00456162
0.000488609
0.00147866
0.00150596
0.000305283
3.26971e-05
0.000202584
0.000480142
0.000918635
0.00170672
0.000874017
0.00260058
0.000794868
0.000223471
0.00184712
0.000595973
0.00197965
0.00383749
0.000700663
0.00221112
0.00210161
0.000158468
0.00162561
0.00224901
4.02083e-05
0.0035372
0.000386113
0.00308203
1.27778e-05
0.000893392
0.00119255
0.00200258
0.000638288
0.00582956
0.00219479
0.00123001
0.00397607
0.000585024
0.000102825
0.00147152
0.00211696
0.00395527
0.000179286
0.00177714
0.00172368
0.000164073
0.00150609
0.001454
0.00180099
0.000439385
0.0019189
3.13798e-05
0.00116409
0.000781656
0.00343658
0.00110113
0.00255281
0.00219866
0.000990013
0.00298309
0.000720995
0.00267385
0.00373939
0.000449537
0.00210513
0.000393739
0.001144
0.00361109
0.00174926
0.000106737
0.000739519
0.00306342
0.00384467
0.00393924
0.00162977
0.00251371
0.000931994
1.14852e-05
0.00121327
0.00100007
0.000853434
0.0015701
0.00186897
0.000908696
0.00275742
0.000116266
0.00259335
0.00277403
0.00502837
0.00433199
0.0013025
0.0012423
0.0011925
0.000998939
0.00214321
0.00182715
0.000585274
0.00201504
0.00206526
0.00361457
1.42376e-05
0.00227111
0.00392617
0.00345355
0.00332411
0.000205745
0.00564278
0.00383533
0.000439361
0.0039722
0.0024028
0.00100507
3.2474e-05
0.00110981
0.000898065
0.00106502
0.00107839
0.00702577
0.00302798
0.00283824
0.00399167
0.00226506
0.00217298
0.0033909
0.0041355
0.00449244
0.000822489
0.00246453
0.00181912
0.000559975
0.00103375
0.00110348
0.00338261
0.00200689
0.00347633
0.00165251
0.00279339
0.00409732
0.00259286
0.000194459
0.00149174
0.00031598
1.86758e-05
0.000116909
0.0025024
0.00059631
0.000953399
0.000110507
0.00127496
0.000141063
0.000223447
0.00103867
0.000205917
0.00286517
0.000656489
0.000568935
0.000745401
0.00144954
0.00249547