/*--------------------------------*- C++ -*----------------------------------*\
| =========                 |                                                 |
| \\      /  F ield         | OpenFOAM: The Open Source CFD Toolbox           |
|  \\    /   O peration     | Version:  2212                                  |
|   \\  /    A nd           | Website:  www.openfoam.com                      |
|    \\/     M anipulation  |                                                 |
\*---------------------------------------------------------------------------*/
FoamFile
{
    version     2.0;
    format      ascii;
    arch        "LSB;label=32;scalar=64";
    class       volScalarField;
    location    "0";
    object      stateMean;
}
// * * * * * * * * * * * * * * * * * * * * * * * * * * * * * * * * * * * * * //

dimensions      [0 0 0 1 0 0 0];

internalField   nonuniform List<scalar> 
3200
(
379.488
378.904
380.15
379.946
378.851
378.685
380.067
382.132
381.612
381.208
381.287
381.881
379.719
381.69
379.973
378.668
377.876
379.431
377.527
378.217
372.848
372.397
372.637
374.424
370.05
371.95
373.156
373.678
373.477
374.968
374.688
374.724
372.977
373.301
373.868
371.642
371.767
371.828
369.614
370.79
365.263
364.842
365.022
367.012
363.414
364.251
364.455
365.307
365.514
367.9
367.273
365.879
367.235
366.735
365.021
365.467
363.793
364.723
362.807
363.694
357.743
356.327
355.766
356.313
356.382
356.034
358.056
355.924
357.447
358.109
357.945
358.314
356.692
356.319
355.601
355.423
354.972
356.28
354.946
354.836
345.799
347.191
346.945
347.023
347.119
346.035
347.488
347.606
346.359
348.124
347.485
348.51
346.306
346.31
346.73
346.902
346.474
346.888
346.22
344.945
334.981
334.939
334.653
336.911
335.484
335.384
336.174
336.015
335.13
336.712
336.768
336.706
334.52
336.506
335.779
335.94
336.253
334.253
334.298
336.068
322.88
322.8
322.217
323.408
322.836
322.365
322.644
324.165
323.203
323.264
324.21
322.764
322.57
323.365
323.344
323.472
323.383
321.131
321.948
323.302
308.55
308.566
310.42
308.573
309.251
309.379
308.201
308.828
307.489
310.124
309.183
307.629
308.15
309.011
308.046
308.154
307.943
309.075
307.531
308.684
380.344
378.982
379.117
378.845
378.544
379.847
380.503
380.256
381.945
381.689
381.974
382.347
382.186
380.552
379.302
377.782
378.546
377.459
376.031
378.488
372.88
371.235
372.185
373.147
372.118
374.387
371.881
376.076
374.924
376.765
376.734
375.011
376.173
373.348
373.728
371.461
372.291
370.905
371.051
370.31
365.126
364.111
364.053
364.924
366.577
366.01
364.545
365.188
366.278
368.291
367.807
365.972
365.782
365.053
363.908
364.165
363.83
364.607
363.318
363.67
357.151
356.611
356.493
356.512
356.764
356.811
355.831
356.777
358.285
358.119
357.555
358.478
357.452
356.532
357.463
355.252
356.759
356.72
354.67
355.409
346.176
345.073
345.844
348.064
346.772
346.172
347.898
347.527
347.339
349.163
348.584
348.796
347.738
345.834
346.897
345.765
346.952
346.599
346.486
345.193
335.058
335.597
334.514
335.602
335.938
336.468
335.84
337.039
337.999
336.74
336.557
335.443
338.147
335.86
337.489
335.357
333.694
336.572
336.977
334.199
323.529
322.591
322.191
324.626
323.817
324.373
322.381
323.953
323.339
324.469
322.426
323.728
323.093
323.926
324.011
323.897
324.259
324.487
323.796
321.442
308.72
309.565
307.473
309.077
308.466
308.117
309.038
310.659
307.25
308.54
309.686
308.326
309.157
307.333
308.807
307.947
308.15
309.683
308.128
308.858
379.811
379.375
377.716
379.463
379.043
378.588
381.926
382.998
382.032
383.449
382.374
382.735
382.147
381.79
380.688
379.227
378.572
376.859
379.468
377.938
372.689
372.007
372.241
372.621
373.053
373.262
374.306
373.884
374.972
375.117
375.851
375.886
375.1
372.843
372.812
372.407
371.641
370.461
371.457
372.339
365.012
365.322
363.927
364.39
364.31
365.564
365.591
366.939
369.115
366.86
366.317
367.126
367.423
366.849
364.445
366.455
363.524
363.651
363.673
365.885
356.925
355.631
355.109
356.135
357.031
356.74
357.084
359.151
358.403
357.691
357.332
358.55
357.629
358.098
355.986
356.8
356.454
356.016
355.77
355.175
346.48
347.008
346.685
345.537
347.136
347.089
348.74
347.574
348.174
348.019
347.715
348.879
349.047
347.656
346.365
346.182
347.253
346.669
347.987
346.039
335.964
334.521
336.215
335.001
336.303
335.636
336.236
335.734
335.783
337.215
338.229
336.893
335.709
336.229
336.43
337.533
336.246
336.283
335.419
334.708
324.202
323.23
322.786
321.785
321.973
323.234
323.53
323.152
322.809
324.264
324.244
323.265
321.991
322.971
322.854
323.337
323.334
322.473
324.097
322.242
308.016
307.972
307.741
308.929
307.912
309.646
308.401
309.499
308.964
308.603
308.252
308.749
308.989
308.465
310.288
309.443
308.288
307.285
307.818
308.302
379.342
378.457
378.62
379.38
380.476
380.259
381.136
381.655
382.418
383.642
382.141
383.503
383.004
381.478
382.16
379.643
378.4
378.606
379.95
378.485
372.535
371.691
371.12
372.452
372.928
374.54
373.532
375.911
375.964
376.92
376.943
376.037
375.588
373.932
374.532
372.663
372.754
370.94
371.255
371.627
363.883
363.794
363.987
366.02
365.219
364.847
365.488
365.936
367.332
367.75
366.199
368.162
367.131
367.228
365.923
364.953
365.69
362.525
364.747
364.125
357.24
356.548
356.868
356.502
357.867
357.249
357.303
357.119
358.265
358.157
357.855
358.437
357.631
356.74
357.4
357.135
354.563
355.037
355.224
354.837
347.079
345.874
346.357
346.894
346.866
346.492
348.23
347.791
349.76
347.811
347.261
349.141
349.314
348.641
349.248
347.688
346.427
346.754
346.265
346.405
335.569
336.923
336.229
335.619
336.356
334.929
336.026
337.972
335.852
336.081
336.128
336.03
336.671
336.79
335.939
336.719
336.247
335.455
336.601
335.411
322.642
323.172
323.266
323.368
323.617
322.778
325.653
324.164
325.048
325.816
322.863
324.566
323.651
324.326
323.165
323.678
323.585
322.552
322.883
322.941
309.112
309.42
307.743
308.399
308.15
309.214
308.361
309.555
308.255
307.93
309.737
309.031
307.319
308.847
308.073
308.109
307.117
307.873
308.839
305.632
379.754
380.234
380.7
379.635
380.002
380.731
379.671
382.012
383.317
384.704
384.249
383.263
383.167
382.57
382.009
379.792
379.256
378.969
379.434
379.435
372.994
372.25
372.184
371.803
373.735
373.176
373.422
375.755
375.376
376.215
376.511
376.199
375.329
375.302
374.755
371.633
371.827
374.511
372.146
372.386
365.197
364.308
365.674
365.633
365.999
363.983
365.142
366.015
368.377
368.527
367.311
367.487
367.537
366.184
366.352
365.581
365.687
365.152
365.962
365.825
356.738
355.909
357.017
355.153
355.899
357.722
358.173
358.278
357.473
359.413
358.393
359.448
356.668
357.402
357.564
356.08
355.617
357.655
356.181
357.592
347.877
345.201
346.383
347.633
348.081
346.68
347.111
348.545
347.596
346.421
347.818
350.348
348.334
347.492
346.315
346.818
348.237
348.171
347.636
347.974
335.824
336.283
334.854
336.946
336.721
336.913
335.765
335.945
335.983
337.881
337.489
336.725
336.496
336.236
335.923
336.944
335.145
335.991
335.052
334.672
323.851
323.314
323.476
322.991
323.317
323.44
323.841
323.173
324.873
323.962
324.532
324.249
322.771
323.491
323.626
324.748
324.297
324.435
323.174
321.902
309.289
309.471
308.403
307.815
309.933
309.106
308.1
308.67
307.958
307.858
307.477
309.272
309.187
310.023
308.933
309.343
307.215
310.561
308.487
308.444
381.344
380.26
378.686
379.134
381.225
381.178
382.183
383.956
385.041
385.878
384.684
382.652
382.433
382.549
382.587
379.747
380.779
380.402
379.135
380.838
372.473
371.991
373.584
372.758
373.333
375.138
374.419
375.905
377.106
376.212
376.741
377.679
375.723
375.017
374.536
373.992
373.184
373.448
371.74
373.098
366.497
363.782
365.107
364.539
365.788
365.217
367.49
367.843
366.898
367.605
368.189
366.103
367.144
369.088
366.245
364.631
364.713
366.091
364.423
365.173
357.494
355.527
356.642
356.077
357.25
357.484
358.938
357.708
358.364
359.616
359.129
359.798
359.251
359.373
357.35
356.67
356.28
356.965
355.652
356.194
346.431
346.562
347.548
346.376
348.011
347.119
347.586
348.771
349.896
348.524
349.033
349.146
349.582
349.178
347.916
347.809
349.219
346.744
346.763
347.004
335.321
334.712
335.293
336.567
337.005
336.458
336.367
336.611
336.88
337.117
335.777
337.048
337.257
336.439
335.241
335.02
336.122
336.289
335.35
335.607
322.609
323.852
324.383
324.247
324.562
321.966
323.689
324.648
323.804
325.905
323.735
324.225
325.495
323.263
323.591
322.598
324.859
322.437
323.857
322.126
307.497
308.496
308.283
308.269
308.908
308.487
308.671
308.459
309.472
308.475
309.976
308.568
308.736
308.993
309.593
308.257
308.764
309.402
308.268
309.105
380.801
379.776
379.12
379.044
381.39
382.28
381.929
383.45
384.182
385.003
384.331
383.433
384.402
383.056
382.288
381.341
380.263
380.402
378.103
378.579
373.553
371.684
373.144
374.16
373.397
373.87
374.625
375.517
378.355
377.173
376.043
378.121
377.103
375.803
373.563
373.873
374.024
371.648
372.919
373.341
366.737
365.073
366.014
365.688
366.23
365.756
367.077
367.409
369.493
368.624
367.458
369.37
367.481
367.313
367.673
366.974
366.092
364.646
364.144
364.641
357.716
357.125
356.197
356.711
357.169
358.112
356.909
359.353
359.939
359.213
358.332
359.6
358.232
359.058
358.162
356.563
357.759
357.048
354.98
356.307
348.268
347.018
347.458
347.005
347.613
347.61
347.506
348.357
348.901
348.587
348.334
349.404
347.859
348.313
347.275
347.296
347.166
346.116
346.096
347.469
335.861
335.827
336.074
337.389
335.229
337.458
337.047
337.97
335.988
336.633
337.375
336.755
336.112
336.791
336.97
336.54
336.507
335.286
336.549
335.391
322.9
324.379
322.769
323.723
323.846
324.256
323.435
323.38
324.202
325.324
324.386
323.675
323.976
324.738
325.781
322.581
323.434
322.755
322.418
321.746
308.974
308.606
309.452
308.338
308.754
308.351
309.797
310.346
306.749
308.548
308.151
308.733
309.976
308.254
308.61
308.887
307.665
307.955
309.33
307.546
380.628
380.47
379.199
379.927
380.76
383.398
383.574
383.731
383.04
384.532
385.454
383.512
385.446
382.866
382.71
381.098
382.537
380.093
380.671
380.81
374.385
372.25
373.559
373.458
375.595
374.669
376.448
376.01
376.776
376.187
376.984
375.149
376.047
375.466
374.861
373.934
373.367
372.365
371.912
371.876
365.911
365.799
365.084
367.151
365.461
366.34
365.943
367.001
368.915
367.945
368.806
368.055
368.542
367.983
367.115
366.684
365.569
364.287
365.311
366.295
356.529
355.808
356.615
356.889
357.754
358.145
357.524
359.8
359.208
358.37
358.67
360.098
359.621
358.745
358.427
357.199
357.093
355.413
356.236
357.139
348.101
346.741
347.584
347.163
348.083
347.899
348.149
348.804
348.647
349.746
350.766
349.126
349.912
347.522
348.363
348.15
347.52
347.945
348.456
347.133
335.937
336.48
336.988
336.556
336.808
336.995
336.453
337.879
335.724
338.483
337.773
337.448
337.586
336.046
336.731
336.339
336.737
336.711
337.222
336.378
323.366
323.674
323.156
324.215
324.873
324.109
323.54
323.556
322.748
324.306
325.207
323.144
324.665
324.322
322.698
323.758
323.909
322.033
323.818
323.655
309.012
309.001
307.422
308.301
309.042
309.165
308.236
309.309
309.302
308.505
309.847
309.498
308.827
307.868
307.454
308.819
308.772
307.805
308.61
308.827
380.825
379.372
381.625
380.845
380.142
383.895
383.238
384.614
384.305
384.774
385.658
385.689
387.019
384.574
384.763
381.96
382.566
380.528
380.759
381.707
374.538
372.156
372.918
374.029
375.85
377.048
376.018
377.005
375.855
377.088
378.419
377.218
379.102
375.712
375.625
373.789
373.365
375.379
371.659
375.035
365.637
364.824
365.337
366.526
366.933
367.359
367.769
367.973
367.528
369.505
370.087
369.101
369.51
368.586
368.585
366.822
366.1
365.632
366.109
366.92
355.735
357.825
356.681
358.869
357.476
359.945
358.54
359.609
359.441
358.356
359.647
360.435
359.115
359.042
358.076
359.409
357.711
357.295
356.552
358.23
347.789
347.504
348.319
348.915
346.966
347.237
348.066
349.214
348.17
348.71
349.002
350.162
348.46
348.536
347.709
348.564
346.186
347.1
346.597
347.776
335.935
336.141
336.494
336.781
337.249
336.585
338.181
336.596
335.909
336.937
337.346
338.082
336.731
337.33
335.609
336.898
336.944
334.618
336.893
337.611
324.074
323.493
323.047
322.524
322.963
322.893
323.455
323.581
322.524
323.127
324.265
323.163
323.991
324.756
325.542
323.074
324.031
323.774
322.901
324.828
309.58
308.113
308.519
308.559
309.435
309.986
308.132
309.095
307.351
308.657
307.79
307.887
308.055
310.027
308.166
308.802
309.283
307.938
307.639
308.428
381.327
380.682
382.299
383.124
382.978
382.733
382.39
385.155
385.203
384.494
385.939
387.128
385.198
384.162
383.595
382.962
382.224
381.323
381.351
381.328
374.288
373.072
375.867
374.135
376.608
375.529
375.891
376.126
377.86
377.141
376.786
378.176
375.939
377.436
375.137
374.956
374.168
374.955
372.965
375.046
366.689
364.855
366.871
366.985
367.506
367.644
366.023
367.73
369.443
369.532
369.522
370.728
369.194
368.719
368.269
366.936
366.123
365.9
365.579
365.851
357.138
358.197
357.894
357.296
357.247
358.577
358.71
358.657
358.285
359.572
361.339
360.826
359.126
359.608
357.434
358.336
357.897
357.043
357.567
357.708
347.582
346.713
346.768
348.542
348.816
347.445
348.853
349.018
348.016
349.272
349.269
349.559
349.62
348.079
348.873
348.045
347.149
349.217
346.455
348.302
336.795
336.632
337.229
336.277
336.504
336.487
336.314
338.036
337.942
337.937
337.062
337.078
337.513
336.905
337.05
338.34
336.656
336.692
336.933
336.381
323.535
323.385
324.916
323.753
322.63
323.38
323.607
323.834
323.275
323.883
323.444
324.126
325.205
323.961
324.51
324.262
323.177
324.336
322.858
323.979
309.091
308.414
308.733
307.584
308.958
308.473
308.824
308.245
309.968
308.713
310.497
307.861
307.666
307.567
310.316
308.213
308.278
309.104
308.768
309.173
382.339
381.84
382.463
383.634
383.332
383.673
383.194
385.199
384.042
386.865
385.648
386.25
385.915
386.714
382.406
384.98
382.983
381.541
383.834
381.732
374.852
373.416
375.607
374.638
375.62
375.391
375.996
376.135
377.629
376.369
377.004
377.408
375.904
377.924
375.387
375.516
374.18
374.253
373.179
375.168
367.208
366.291
366.212
367.071
366.042
367.333
368.467
369.129
368.044
368.598
369.519
368.632
368.02
368.93
367.824
367.366
366.065
365.826
367.292
365.949
357.55
357.882
358.652
357.997
359.289
357.379
359.303
358.999
359.338
359.589
361.979
359.531
359.335
359.673
359.257
357.867
357.09
358.162
357.734
358.377
347.603
348.086
348.553
347.787
349.397
350.323
347.357
350.013
350.822
349.942
349.572
350.295
349.741
347.406
349.493
348.848
346.924
347.183
347.236
347.062
336.683
335.947
337.238
336.369
336.871
337.164
336.373
336.295
337.572
337.707
337.111
339.08
337.789
338.337
337.743
336.95
335.488
337.502
335.277
337.282
323.839
324.242
324.019
323.588
324.247
322.976
324.087
324.165
324.689
324.625
323.826
323.846
322.935
324.62
324.007
323.961
323.778
323.953
324.216
322.968
308.924
307.916
309.065
309.975
307.543
308.431
308.648
308.121
307.671
307.203
309.228
310.418
309.419
308.45
309.889
308.27
309.773
307.861
308.395
307.284
384.98
382.808
382.349
382.745
383.895
383.692
384.825
385.735
386.39
385.597
385.957
385.576
386.333
385.485
384.495
383.512
380.811
382.217
382.145
383.439
376.463
374.993
376.607
376.746
374.318
377.913
376.967
376.709
378.34
378.1
378.83
378.396
378.771
377.475
376.247
375.816
374.968
375.093
374.309
374.489
369.211
365.795
367.452
367.034
366.155
367.317
369.361
369.138
368.738
367.661
371.077
370.249
369.593
368.241
369.33
367.102
366.703
367.311
368.15
366.972
359.768
357.544
358.025
356.83
358.989
358.978
360.531
361.035
360.036
358.219
359.991
361.474
359.164
358.026
358.321
358.345
359.824
357.362
358.137
358.495
348.228
347.486
348.733
347.176
348.844
349.502
349.916
350.25
349.159
348.443
348.645
350.559
350.435
349.676
349.677
349.334
347.847
348.213
347.786
347.585
336.345
336.669
335.393
336.162
336.154
335.545
335.484
336.751
337.957
337.978
338.348
338.202
338.124
336.526
335.638
336.835
337.394
336.881
336.729
336.489
324.186
322.731
324.277
323.852
323.524
323.521
323.653
323.117
324.628
325.049
324.054
324.077
323.723
323.711
323.565
323.616
322.633
323.718
323.733
324.163
309.494
309.014
308.007
308.153
309.372
310.43
309.032
307.799
309.678
308.224
309.388
309.696
308.562
308.904
308.311
307.295
309.299
309.617
308.798
309.15
383.871
382.597
384.116
383.535
382.58
384.655
384.073
385.372
386.878
385.301
386.943
386.811
386.158
385.512
384.664
383.391
383.811
382.593
383.164
383.225
375.953
374.505
375.72
375.079
375.885
376.446
376.909
377.212
377.956
377.623
377.443
378.226
377.277
377.605
376.297
376.441
375.208
375.893
374.155
375.789
368.062
366.738
369.137
368.346
367.511
368.235
367.124
369.021
370.322
369.433
370.248
370.138
371.211
369.574
369.083
368.1
368.249
366.35
366.957
367.377
358.202
358.234
358.817
357.308
358.116
359.012
358.857
360.358
361.279
359.341
360.74
361.306
359.831
359.641
358.758
358.67
357.863
357.923
356.631
360.677
349.434
348.504
348.62
348.543
348.83
349.502
349.389
348.462
349.431
349.434
350.976
349.425
348.279
350.205
347.64
349.379
346.128
347.363
348.278
348.478
336.328
336.899
336.983
337.915
337.273
336.936
337.25
336.992
337.093
338.782
338.8
338.642
336.994
337.685
336.242
337.026
337.186
336.328
337.304
337.153
324.138
324.051
324.042
323.541
323.898
324.433
323.478
325.324
324.245
323.254
324.72
324.147
324.625
324.547
323.885
325.175
324.528
322.322
324.16
322.462
309.453
307.578
309.71
308.038
308.267
309.279
308.84
309.45
308.702
310.106
308.333
308.732
308.654
308.207
307.637
309.415
310.408
308.731
307.877
308.717
384.01
383.11
383.899
383.722
383.996
383.5
385.463
386.552
387.347
388.041
387.423
387.767
388.228
386.639
384.872
384.322
384.36
383.963
382.205
382.993
376.129
376.325
375.644
375.885
376.83
375.753
378.178
379.237
379.343
378.419
379.426
377.649
378.353
379.242
376.846
375.864
375.548
374.278
376.281
377.134
367.823
368.013
367.31
367.663
368.236
367.664
368.792
369.413
369.869
369.162
369.857
370.909
371.3
369.994
369.036
368.221
367.848
367.713
367.796
366.559
358.676
358.158
359.609
358.627
360.475
359.772
358.908
359.599
360.399
360.287
360.711
362.037
360.71
359.285
359.866
359.235
357.741
358.138
357.705
357.613
348.179
348.323
348.993
347.589
348.123
348.89
349.285
350.061
350.755
351.069
350.037
350.881
350.518
349.367
348.066
349.061
348.444
349.727
348.906
349.16
337.539
337.033
337.709
337.459
337.119
336.801
338.327
336.298
339.089
338.603
338.451
337.709
338.857
337.33
335.805
336.847
336.874
336.638
336.88
337.088
325.476
324.642
324.343
323.747
323.901
323.233
324.346
323.718
323.829
323.047
325.356
324.62
324.816
325.79
324.43
324.696
323.731
324.182
323.528
324.397
309.327
309.001
309.399
308.508
308.678
308.447
309.859
309.307
308.37
307.985
309.13
308.459
309.176
310.923
308.823
308.296
309.143
307.882
310.631
308.374
385.533
382.668
385.224
383.419
384.351
385.279
386.963
386.457
385.581
387.271
387.059
388.598
387.075
386.643
385.7
385.685
384.511
383.72
384.816
383.586
377.202
375.693
374.322
376.713
376.134
377.555
377.694
377.382
379.139
378.068
378.365
379.615
378.131
377.924
377.506
377.603
376.759
375.69
375.802
376.986
367.05
367.577
368.314
368.441
368.821
368.398
368.678
369.05
369.287
369.44
371.244
370.099
370.631
369.69
368.853
367.847
369.077
369.135
367.831
368.961
358.961
357.361
359.189
359.671
358.755
358.732
360.375
358.298
360.46
360.088
360.724
361.018
360.542
359.429
359.894
358.74
360.06
357.311
357.321
358.312
349.542
348.118
349.357
348.676
349.5
348.522
348.37
349.861
349.427
349.828
349.798
349.997
350.254
349.748
348.451
349.638
348.065
348.325
348.53
349.429
337.416
336.439
336.851
337.482
336.323
338.016
337.375
339.386
337.799
337.966
338.143
338.789
338.761
338.177
337.156
336.814
335.665
337.775
338.134
338.451
324.398
322.41
323.573
323.997
326.3
323.793
323.474
324.683
323.246
324.414
325.473
324.31
323.137
325.52
323.425
324.201
323.918
324.496
324.493
323.878
307.876
308.64
309.449
308.794
309.467
309.368
309.815
308.691
310.298
308.987
308.255
310.443
308.145
308.494
307.774
309.576
308.261
308.924
309.283
310.284
385.748
383.422
384.5
386.164
384.948
386.06
386.06
386.884
387.036
387.79
387.023
388.465
388.759
385.971
386.067
384.158
384.629
384.375
383.931
384.482
377.789
376.85
376.975
377.127
377.632
377.272
378.229
378.026
378.221
380.374
377.754
378.657
379.025
376.921
377.648
377.245
376.631
377.142
377.784
377.272
368.313
369.513
366.92
369.075
368.632
369.995
369.78
369.862
369.904
370.223
370.385
370.61
370.173
368.706
369.145
369.095
368.214
368.821
367.581
369.478
359.186
359.918
360.106
359.525
359.219
359.199
360.174
359.056
360.571
361.595
360.489
360.11
360.761
360.909
359.779
357.706
360.371
358.909
360.552
358.725
348.694
349.383
348.301
350.595
349.444
348.914
350.272
349.72
349.326
349.383
350.522
350.007
350.448
349.68
349.128
349.654
348.014
349.424
349.761
349.497
337.521
338.289
337.644
338.424
338.901
337.594
337.128
337.782
337.58
339.216
338.586
338.003
338.165
336.804
336.447
336.308
336.972
336.553
336.969
337.183
323.612
323.737
323.854
323.693
324.877
324.629
323.496
324.472
323.624
323.581
326.113
323.059
324.011
323.987
323.947
323.947
323.507
323.539
323.871
323.352
308.205
309.977
308.888
308.206
310.144
310.019
309.997
308.921
307.252
310.186
308.865
307.769
309.727
309.281
308.962
308.588
308.631
309.213
309.194
311.013
386.316
384.412
384.371
387.192
385.866
385.75
385.77
385.879
388.112
388.838
387.176
388.01
387.219
387.799
385.753
385.93
384.974
385.273
384.429
386.728
378.254
377.487
378.455
378.343
378.549
378.878
378.139
379.517
379.071
379.464
379.99
379.379
379.376
379.482
378.912
377.457
377.975
377.676
377.279
377.823
369.723
369.45
369.642
369.176
367.187
369.914
369.19
371.01
370.031
369.857
370.657
371.164
371.365
371.012
369.072
369.28
368.317
370.053
367.554
368.945
360.299
360.959
360.481
358.401
360.023
360.224
360.307
360.206
359.553
360.551
360.982
360.649
362.184
360.786
360.98
358.686
359.185
359.088
357.818
360.792
350.321
348.573
349.334
348.996
348.663
350.307
349.972
349.736
350.106
349.213
349.763
349.668
350.127
349.3
350.619
348.894
349.081
350.489
349.44
350.099
338.138
338.533
337.181
338.197
338.473
337.281
337.945
337.161
337.758
339.877
338.785
339.203
337.242
339.124
339.357
337.124
336.607
337.409
337.6
338.472
324.375
325.369
322.62
324.979
324.903
324.238
324
324.271
324.346
325.677
324.868
323.869
324.747
324.695
323.71
324.479
323.347
324.89
324.313
323.377
309.455
309.514
307.997
307.652
308.323
308.39
307.368
308.687
308.253
308.76
309.177
308.724
308.528
308.236
309.171
308.69
309.019
309.101
308.623
308.691
387.09
387.695
384.88
385.443
386.207
385.681
386.616
387.81
388.347
388.907
387.787
386.929
387.869
385.449
386.926
385.439
386.491
384.785
385.642
385.617
379.265
377.131
376.647
379.439
379.697
377.703
378.544
380.028
379.675
379.702
381.054
379.375
380.797
378.705
378.33
377.699
378.374
377.285
376.689
378.351
371.216
370.123
368.367
369.622
368.891
370.381
369.483
371.675
370.151
372.339
369.72
369.797
370.873
369.575
369.64
368.904
369.397
369.055
369.026
369.825
361.096
360.815
358.463
360.425
360.622
362.437
360.635
361.686
360.983
360.575
360.201
360.081
360.383
360.063
359.938
359.79
360.066
359.018
360.625
359.059
349.7
349.534
350.266
349.496
349.886
349.065
349.832
350.05
350.165
350.55
351.771
350.055
350.631
348.952
350.062
348.855
349.632
349.142
350.809
348.257
337.837
337.192
338.01
337.106
336.482
337.308
336.333
337.198
338.727
337.296
337.332
338.634
336.876
338.343
336.644
338.404
337.074
336.313
336.95
337.643
323.829
324.72
324.494
323.743
324.898
323.272
323.683
324.692
324.085
324.332
324.113
324.629
326.387
325.361
324.141
325.507
323.641
324.295
324.387
324.67
309.722
309.11
308.879
308.546
308.643
309.14
308.334
309.461
307.644
308.323
307.76
307.494
308.464
309.049
309.211
309.101
309.406
308.828
308.048
309.422
386.337
387.47
386.454
385.024
387.194
387.706
387.887
388.14
388.305
388.172
389.901
387.009
387.794
387.299
387.523
386.183
386.566
386.246
386.762
386.598
379.042
379.366
377.764
379.991
378.048
380.318
380.08
381.051
381.084
380.762
380.623
379.991
380.601
378.67
380.85
378.399
379.634
377.891
379.389
378.05
370.594
369.825
368.551
368.622
369.521
371.555
370.637
371.236
370.868
371.834
369.524
371.468
371.26
371.425
371.225
370.018
369.36
370.31
370.557
368.973
360.896
360.399
358.883
360.683
361.014
360.757
360.055
360.158
361.074
361.464
361.682
361.174
362.39
359.688
361.694
360.951
359.549
361.079
358.969
359.946
351.103
351.207
350.338
348.927
349.174
350.933
351.915
350.913
349.825
350.965
350.393
350.295
350.043
349.748
350.575
350.475
350.121
350.024
349.019
348.835
337.537
338.21
338.168
337.41
337.215
338.435
337.976
339.258
337.834
337.147
340.075
338.977
339.595
337.989
338.768
338.448
337.935
337.622
337.41
336.94
324.993
324.44
324.406
325.08
325.644
324.417
326.078
325.462
324.157
326.162
325.164
324.899
325.1
324.827
325.321
324.685
325.19
324.04
324.574
323.632
309.453
308.912
309.449
308.638
308.636
309.323
310.096
308.672
308.968
308.94
309.339
309.15
308.908
307.825
309.044
308.561
310.088
308.454
309.3
309.027
389.041
387.455
386.099
388.282
386.78
388.539
388.363
389.216
389.027
388.969
388.918
389.591
389.406
389.245
386.519
386.494
385.745
387.012
387.037
386.262
380.152
377.895
377.659
381.18
378.828
380.198
379.541
380.232
381.186
380.585
380.5
380.673
380.557
380.919
378.896
378.391
377.63
378.671
379.71
378.678
370.802
370.103
369.801
371.206
369.179
371.368
369.239
372.346
371.005
371.068
370.922
371.172
371.96
370.33
369.748
369.528
369.054
370.457
369.757
369.358
361.541
360.216
361.35
362.319
360.088
361.515
361.009
362.025
360.683
361.059
361.721
361.13
360.048
360.914
360.913
360.406
360.767
359.903
360.608
360.489
349.483
350.534
348.463
352.065
348.783
351.135
350.218
351.067
350.93
351.151
351.274
350.619
350.785
349.159
350.647
350.622
349.858
349.403
350.542
349.312
339.33
337.571
338.203
339.023
338.528
337.939
338.563
338.506
340.295
338.301
336.564
339.241
339.27
337.777
340.453
337.795
337.434
337.744
337.725
338.249
327.279
324.153
323.544
323.998
323.937
323.898
323.551
324.305
324.613
323.954
324.32
324.184
323.92
324.258
325.073
323.444
324.531
323.953
325.12
323.312
309.01
308.504
309.467
309.254
310.327
308.956
309.212
309.162
309.285
310.483
309.858
309.89
308.822
308.557
308.51
309.525
309.537
308.947
309.797
308.805
)
;

boundaryField
{
    hotSide
    {
        type            fixedGradient;
        gradient        nonuniform List<scalar> 
400
(
321.511
322.87
325.591
329.677
335.133
341.965
350.181
359.788
370.794
383.208
397.037
412.289
428.971
447.088
466.647
487.651
510.105
534.011
559.372
586.191
323.738
325.08
327.767
331.802
337.194
343.949
352.078
361.591
372.498
384.81
398.537
413.687
430.268
448.289
467.755
488.672
511.043
534.872
560.161
586.913
326.149
327.47
330.116
334.091
339.406
346.071
354.099
363.503
374.296
386.491
400.101
415.136
431.606
449.52
468.885
489.706
511.988
535.735
560.948
587.63
328.704
330
332.597
336.503
341.73
348.292
356.205
365.485
376.15
388.215
401.695
416.604
432.954
450.753
470.009
490.73
512.919
536.579
561.714
588.325
331.33
332.599
335.142
338.97
344.099
350.546
358.332
367.477
378.003
389.928
403.271
418.047
434.27
451.949
471.095
491.712
513.807
537.382
562.439
588.978
333.918
335.158
337.643
341.389
346.414
352.74
360.392
369.397
379.779
391.562
404.765
419.407
435.503
453.065
472.101
492.618
514.622
538.114
563.096
589.569
336.321
337.531
339.959
343.622
348.544
354.751
362.274
371.142
381.385
393.031
406.101
420.618
436.595
454.047
472.983
493.409
515.33
538.747
563.663
590.076
338.36
339.543
341.92
345.509
350.339
356.44
363.847
372.595
382.718
394.244
407.2
421.608
437.485
454.844
473.695
494.045
515.897
539.253
564.114
590.478
339.852
341.015
343.352
346.885
351.645
357.665
364.985
373.643
383.675
395.113
407.984
422.312
438.116
455.407
474.197
494.491
516.294
539.606
564.428
590.758
340.643
341.795
344.11
347.613
352.334
358.311
365.584
374.193
384.176
395.567
408.393
422.679
438.443
455.699
474.456
494.722
516.498
539.788
564.589
590.901
340.643
341.795
344.11
347.613
352.334
358.311
365.584
374.193
384.176
395.567
408.393
422.679
438.443
455.699
474.456
494.722
516.498
539.788
564.589
590.901
339.852
341.015
343.352
346.885
351.645
357.665
364.985
373.643
383.675
395.113
407.984
422.312
438.116
455.407
474.197
494.491
516.294
539.606
564.428
590.758
338.36
339.543
341.92
345.509
350.339
356.44
363.847
372.595
382.718
394.244
407.2
421.608
437.485
454.844
473.695
494.045
515.897
539.253
564.114
590.478
336.321
337.531
339.959
343.622
348.544
354.751
362.274
371.142
381.385
393.031
406.101
420.618
436.595
454.047
472.983
493.409
515.33
538.747
563.663
590.076
333.918
335.158
337.643
341.389
346.414
352.74
360.392
369.397
379.779
391.562
404.765
419.407
435.503
453.065
472.101
492.618
514.622
538.114
563.096
589.569
331.33
332.599
335.142
338.97
344.099
350.546
358.332
367.477
378.003
389.928
403.271
418.047
434.27
451.949
471.095
491.712
513.807
537.382
562.439
588.978
328.704
330
332.597
336.503
341.73
348.292
356.205
365.485
376.15
388.215
401.695
416.604
432.954
450.753
470.009
490.73
512.919
536.579
561.714
588.325
326.149
327.47
330.116
334.091
339.406
346.071
354.099
363.503
374.296
386.491
400.101
415.136
431.606
449.52
468.885
489.706
511.988
535.735
560.948
587.63
323.738
325.08
327.767
331.802
337.194
343.949
352.078
361.591
372.498
384.81
398.537
413.687
430.268
448.289
467.755
488.672
511.043
534.872
560.161
586.913
321.511
322.87
325.591
329.677
335.133
341.965
350.181
359.788
370.794
383.208
397.037
412.289
428.971
447.088
466.647
487.651
510.105
534.011
559.372
586.191
)
;
    }
    coldSide
    {
        type            mixed;
        refValue        uniform 300;
        refGradient     uniform 0;
        valueFraction   uniform 0.991591;
        source          uniform 0;
        value           nonuniform List<scalar> 
400
(
300.072
300.073
300.067
300.077
300.078
300.063
300.075
300.076
300.081
300.076
300.075
300.08
300.079
300.078
300.066
300.069
300.08
300.082
300.079
300.076
300.072
300.08
300.067
300.079
300.08
300.071
300.072
300.076
300.068
300.071
300.067
300.076
300.064
300.076
300.073
300.084
300.08