/*--------------------------------*- C++ -*----------------------------------*\
| =========                 |                                                 |
| \\      /  F ield         | OpenFOAM: The Open Source CFD Toolbox           |
|  \\    /   O peration     | Version:  2212                                  |
|   \\  /    A nd           | Website:  www.openfoam.com                      |
|    \\/     M anipulation  |                                                 |
\*---------------------------------------------------------------------------*/
FoamFile
{
    version     2.0;
    format      ascii;
    arch        "LSB;label=32;scalar=64";
    class       volScalarField;
    location    "0";
    object      relativeErrorField;
}
// * * * * * * * * * * * * * * * * * * * * * * * * * * * * * * * * * * * * * //

dimensions      [0 0 0 1 0 0 0];

internalField   nonuniform List<scalar> 
3200
(
0.0155262
0.0157601
0.0161757
0.0170308
0.0180406
0.0188164
0.0196672
0.0202916
0.0205714
0.0208195
0.020616
0.019979
0.0190876
0.0178825
0.0166012
0.01504
0.0136998
0.0127868
0.0118487
0.0112058
0.0134953
0.0138887
0.0142656
0.0152561
0.0158371
0.0165662
0.0172135
0.0179354
0.0182029
0.0183767
0.0181662
0.0175811
0.0168921
0.0154979
0.0144138
0.0134185
0.0121849
0.0112874
0.0104603
0.00986577
0.0115749
0.011852
0.0122272
0.012866
0.013554
0.0141038
0.014988
0.0153715
0.015688
0.0155081
0.0157698
0.0151461
0.0142449
0.013373
0.0125866
0.0112857
0.0105178
0.00972977
0.00900862
0.00868729
0.00983594
0.00983446
0.0102347
0.0106482
0.0111517
0.0119258
0.0123216
0.0127317
0.0127685
0.0131937
0.0128329
0.0125653
0.0117489
0.0112716
0.0104777
0.00960553
0.00885439
0.00800137
0.00737404
0.0070633
0.00743063
0.00772126
0.00780843
0.00841657
0.00890419
0.00945005
0.00981443
0.010245
0.0101771
0.0102719
0.0101952
0.00973643
0.00921975
0.0089409
0.008528
0.00776059
0.0071054
0.00633735
0.00590653
0.00565581
0.00539014
0.00530689
0.00552916
0.00584767
0.00633112
0.00684643
0.00710979
0.00728861
0.00749311
0.00762319
0.00747998
0.00729303
0.0069138
0.00640382
0.00581547
0.00556673
0.00481936
0.00466612
0.00432359
0.004238
0.00310542
0.00323834
0.00360309
0.00370368
0.00392611
0.00389854
0.0041454
0.00454752
0.0045525
0.0044914
0.00462112
0.00446462
0.00415691
0.00395056
0.00368294
0.00315986
0.00280956
0.00275365
0.00244843
0.00244646
0.00106683
0.00104096
0.00107069
0.00141434
0.00129019
0.00108208
0.00157538
0.00140935
0.00154538
0.00151241
0.00154454
0.00155102
0.00129811
0.00147243
0.00124871
0.00106108
0.00135085
0.00108482
0.000969274
0.000889987
0.0138697
0.0142642
0.0149043
0.0154999
0.0160832
0.0169844
0.0179822
0.0185697
0.0188921
0.0187912
0.0185015
0.0180197
0.016824
0.0156738
0.0142809
0.0131141
0.0119516
0.0109542
0.0101761
0.00931862
0.0122518
0.0127156
0.0130473
0.0137588
0.0142242
0.0149228
0.0154514
0.0162755
0.0166733
0.0168237
0.016651
0.0160425
0.015006
0.0143063
0.0131298
0.0117652
0.0108105
0.00995511
0.00910961
0.0084967
0.0107558
0.010833
0.0112562
0.0117862
0.0125499
0.0131211
0.0136045
0.0140976
0.0145855
0.0143254
0.0143067
0.0138548
0.0129648
0.0121952
0.0113775
0.0100261
0.00930181
0.00849191
0.00792828
0.00751791
0.0089164
0.00901518
0.0096174
0.00994916
0.0102636
0.010807
0.0113828
0.0117817
0.0121502
0.0118323
0.01168
0.0114869
0.0107909
0.010302
0.00944659
0.00872545
0.0077246
0.00721362
0.00677155
0.00614262
0.00693956
0.00743327
0.0073023
0.00762189
0.00807035
0.00854978
0.00886136
0.00932478
0.00954602
0.00941606
0.00929366
0.00925593
0.0086596
0.0080884
0.00725975
0.00674766
0.00615494
0.00546691
0.00530363
0.00502694
0.00514383
0.0053795
0.00543102
0.00567287
0.005819
0.0060932
0.00625799
0.00675702
0.00686245
0.00685126
0.00692374
0.00643155
0.00640738
0.00588752
0.0053488
0.00488535
0.00445896
0.00413796
0.00393906
0.00368816
0.00323234
0.00311493
0.00331775
0.00348476
0.00338785
0.00374079
0.00392567
0.00418239
0.00438519
0.00420648
0.00420479
0.00391812
0.00374374
0.00354832
0.00328363
0.00337744
0.00273301
0.00237635
0.002589
0.00216041
0.000956324
0.00121823
0.00109508
0.00116329
0.0013428
0.00105717
0.00139646
0.00133368
0.00145493
0.00132551
0.00152818
0.0012053
0.0013876
0.00135118
0.00107763
0.000792465
0.000931707
0.000869576
0.000622775
0.000863437
0.0121671
0.0122958
0.0128453
0.0134567
0.0139456
0.0147471
0.015447
0.0160591
0.0163911
0.0165112
0.0158702
0.0152791
0.0143786
0.0134598
0.0121447
0.0107966
0.00961254
0.00865976
0.00771252
0.00723343
0.0109502
0.0109823
0.0111646
0.0117584
0.0123747
0.0131854
0.0136482
0.0141673
0.0146906
0.0148416
0.0144939
0.0138423
0.0129662
0.0120674
0.0107177
0.00986243
0.00886309
0.00793105
0.0072213
0.00663097
0.00941522
0.0093819
0.00964503
0.0101215
0.0106298
0.0113036
0.0118872
0.0124645
0.0128442
0.0127721
0.0126371
0.0123096
0.01116
0.0106011
0.00949863
0.00865024
0.00773382
0.00703495
0.00621603
0.00604256
0.00788039
0.00795341
0.0082489
0.00862085
0.009009
0.00949969
0.0101185
0.0102889
0.0105041
0.0105441
0.0105018
0.0100786
0.00947024
0.00898076
0.00794045
0.00730773
0.00652858
0.00596877
0.00533936
0.00498342
0.0061632
0.00627537
0.00641815
0.00671463
0.00736695
0.00752458
0.00802879
0.0081619
0.00837629
0.00856755
0.00836936
0.00802117
0.00745241
0.00692682
0.00640479
0.00543981
0.00514827
0.00485041
0.00408625
0.00399742
0.00449743
0.00448151
0.00474934
0.00492543
0.00521403
0.005571
0.00564581
0.00580122
0.00605362
0.00623336
0.00601452
0.00602586
0.00560433
0.00512066
0.00454002
0.00410236
0.003908
0.00343824
0.0031835
0.00286413
0.00246093
0.00302276
0.00278319
0.00301831
0.00321788
0.00337175
0.00357797
0.00358005
0.00350086
0.00370287
0.00347248
0.00338612
0.00341642
0.00298797
0.00275899
0.0026232
0.0021806
0.00214468
0.00197287
0.0017473
0.000825819
0.000938754
0.000998421
0.000884237
0.00106564
0.00109572
0.00107297
0.00137496
0.00104199
0.00118755
0.0014978
0.00107495
0.00118279
0.000850026
0.000943599
0.000842286
0.000875739
0.000492016
0.000564686
0.000575945
0.0100716
0.0105071
0.0105261
0.0111169
0.0115703
0.012336
0.0129298
0.013423
0.0137057
0.0134567
0.0133226
0.0130501
0.0118337
0.0107238
0.00966485
0.00869798
0.00728158
0.00653411
0.00551499
0.00546348
0.00917719
0.00931164
0.00955619
0.00998872
0.0105648
0.0109675
0.011756
0.0118948
0.0124086
0.012449
0.012257
0.0115759
0.010672
0.00976831
0.00878174
0.00777037
0.00643032
0.00586512
0.00524133
0.00480065
0.00804132
0.00810777
0.00839603
0.00870074
0.00915745
0.00949151
0.0101537
0.0103366
0.0108878
0.0108384
0.0105529
0.0101059
0.00949733
0.00838759
0.00778749
0.00693013
0.00592146
0.00533111
0.00469791
0.00450871
0.00674507
0.00671303
0.00699835
0.00715141
0.00761673
0.00806786
0.00860313
0.00880447
0.0090444
0.00909481
0.00875012
0.00836125
0.00806936
0.00728791
0.00651866
0.00551428
0.0050469
0.00453174
0.00412112
0.00357339
0.00522052
0.00567879
0.00565152
0.0056563
0.00601301
0.00646113
0.0066024
0.00699563
0.00714459
0.00709332
0.00711927
0.00684162
0.0063368
0.00594416
0.00514821
0.00469331
0.00405593
0.00376757
0.00346646
0.00323189
0.00381333
0.00385399
0.00397472
0.00420526
0.00437557
0.00461558
0.00504795
0.00524812
0.00525442
0.00515525
0.00520903
0.00510113
0.00452137
0.00437125
0.00382961
0.003516
0.00284043
0.00276534
0.00248918
0.00206101
0.00235588
0.00237052
0.00237116
0.00261775
0.00294698
0.00298587
0.00314919
0.00296752
0.00334501
0.0034363
0.00299932
0.00270569
0.00299934
0.0027003
0.0024807
0.00206428
0.0019034
0.00163031
0.00160984
0.00154104
0.000470388
0.000957555
0.000966489
0.000900865
0.000830194
0.000845214
0.00089778
0.000879021
0.00123737
0.00114196
0.000890411
0.00108402
0.000825278
0.000920472
0.000888304
0.000743535
0.000470368
0.000515836
0.000372487
0.00060266
0.00832359
0.00843862
0.00878221
0.00902332
0.00937224
0.0101847
0.0104817
0.0109801
0.0111186
0.0109713
0.0107552
0.0104447
0.00916271
0.00825528
0.00727783
0.0060871
0.00514379
0.00439644
0.00345554
0.00349412
0.00755034
0.00768452
0.00780879
0.00804056
0.00866403
0.00899997
0.00963873
0.0100816
0.0100618
0.00984892
0.00987912
0.00920173
0.00838673
0.00766525
0.00653654
0.0057489
0.00452311
0.00410294
0.00354647
0.0034234
0.0065371
0.00654609
0.00694074
0.00708574
0.007665
0.00799935
0.00825792
0.0085689
0.00879943
0.00888127
0.00850176
0.0083417
0.00746419
0.0068444
0.00600933
0.00498053
0.00426125
0.00371906
0.0033876
0.00315394
0.00548429
0.00566982
0.00584635
0.00606411
0.00628061
0.00680757
0.00704344
0.00721936
0.00745729
0.0076286
0.00717756
0.0068115
0.00635278
0.00559075
0.0048771
0.00447529
0.00383391
0.00327882
0.00273747
0.00269994
0.00420073
0.0042745
0.0046083
0.00481209
0.00509882
0.00537514
0.0055955
0.0059607
0.00584701
0.00585127
0.0059264
0.00561419
0.00501068
0.0045499
0.00408195
0.00334558
0.00293669
0.00240361
0.00225611
0.00217858
0.0031971
0.00302724
0.00332959
0.00329385
0.00356353
0.00398156
0.00405717
0.00434802
0.00452097
0.00420192
0.00415809
0.00412812
0.00377107
0.00346409
0.00297522
0.00260839
0.00226506
0.00192207
0.00159477
0.00151452
0.00205125
0.00184033
0.00205825
0.0022058
0.00215757
0.00253499
0.00262457
0.0027929
0.00282002
0.00266121
0.00263547
0.00248193
0.00238435
0.00211025
0.00170159
0.0014231
0.00124957
0.0011941
0.00105294
0.00108569
0.00049059
0.000665183
0.000535931
0.000675006
0.000607501
0.00084259
0.000938287
0.00105568
0.000822578
0.000850244
0.00105292
0.000986905
0.00104098
0.000675146
0.000569747
0.000597137
0.000614971
0.000441607
0.000386681
0.000219533
0.00676743
0.00683542
0.00696227
0.00707594
0.00745562
0.0077769
0.00822504
0.00862316
0.00882849
0.00849598
0.00809891
0.00771059
0.00687438
0.0057513
0.00478848
0.0036869
0.0029103
0.00217716
0.00169817
0.00138129
0.00622377
0.00617532
0.00639117
0.00662512
0.00696673
0.00736137
0.0075461
0.00788383
0.00781853
0.00775437
0.00753473
0.00720646
0.00634143
0.00553608
0.00470682
0.00379474
0.00282411
0.0022645
0.00185251
0.0018718
0.00548204
0.00535104
0.00556895
0.00590437
0.00582228
0.00627048
0.00673905
0.00700495
0.00701997
0.00704478
0.00653451
0.00608763
0.00571271
0.00507895
0.00412205
0.0033998
0.00280441
0.00207833
0.00171301
0.00157405
0.00456744
0.00450853
0.00484024
0.00462126
0.00499858
0.00504856
0.00562469
0.00601591
0.00584356
0.00581786
0.00584356
0.00528158
0.00467214
0.00404055
0.00379552
0.00295246
0.00263014
0.00190172
0.00159295
0.00169723
0.00372113
0.00364234
0.00379345
0.0037808
0.00386169
0.00419161
0.0043858
0.00464761
0.00490259
0.00484811
0.00462436
0.00425513
0.00387532
0.00330137
0.00310818
0.00258721
0.00226432
0.00176068
0.00128585
0.00126226
0.00259833
0.00252102
0.00291901
0.00260768
0.00294541
0.0031431
0.00333581
0.00346813
0.003413
0.00359078
0.00331849
0.00309819
0.00259835
0.00251232
0.00221089
0.0018222
0.00152466
0.00129571
0.000904672
0.0010505
0.00151685
0.00167175
0.00165841
0.00195354
0.00179935
0.00191574
0.00205251
0.00208597
0.00209812
0.00199171
0.00213204
0.00172156
0.00166861
0.00137452
0.00143037
0.0012301
0.000857953
0.000846587
0.000761848
0.000727044
0.000353444
0.000573918
0.00061254
0.000523563
0.000586419
0.000700001
0.000654643
0.00101437
0.000759513
0.000590598
0.000625866
0.000724779
0.000655259
0.00073525
0.000259638
0.000284116
0.000194139
7.20866e-05
0.000349107
0.000244311
0.00536148
0.00524826
0.00543072
0.00527038
0.00550924
0.00570632
0.0063379
0.00637843
0.00643063
0.00632596
0.00598761
0.00529469
0.00488277
0.00346795
0.00267845
0.00183837
0.000954162
0.000318978
0.000226184
0.00022501
0.00497677
0.00500317
0.00499364
0.00494509
0.00507211
0.00523833
0.00554692
0.00592798
0.00581932
0.00566941
0.00532365
0.0050376
0.00418843
0.00347385
0.00282936
0.00192372
0.00150871
0.000880016
0.000173782
0.000345735
0.00442844
0.00405743
0.00460798
0.00417116
0.00453172
0.00484847
0.00476363
0.00524803
0.00532684
0.00521328
0.00508223
0.00465954
0.00407956
0.0033594
0.0024472
0.00190681
0.00111991
0.000632801
0.000665866
0.000450918
0.00389228
0.00363973
0.00371765
0.0041308
0.00395547
0.00422445
0.00451434
0.00454633
0.004768
0.00461043
0.00423908
0.00396533
0.00345298
0.00281274
0.00238604
0.00155904
0.0013117
0.00104625
0.000512259
0.000610608
0.00303582
0.00291791
0.00306777
0.00323409
0.00285204
0.00321431
0.00317399
0.00347012
0.00351806
0.00366395
0.00353816
0.00317796
0.00275951
0.0023114
0.00173044
0.00130648
0.00110128
0.000632938
0.000777134
0.000548263
0.00227268
0.00213713
0.00201643
0.00227573
0.00241036
0.0023171
0.00246299
0.00252232
0.00261158
0.002742
0.00274389
0.00220562
0.00209159
0.00176753
0.00156012
0.00112973
0.000944919
0.000443147
0.000425428
0.000331967
0.00131366
0.00132533
0.000997943
0.00119068
0.0013876
0.00133575
0.0016163
0.00156343
0.00181268
0.00165856
0.00158165
0.00117989
0.00129072
0.00105725
0.00096544
0.000633201
0.00055304
0.000524816
0.000490981
0.000231767
0.000529358
0.000489249
0.000395499
0.000400896
0.000245593
0.000475401
0.000534694
0.000458555
0.000478972
0.000629653
0.000435782
0.0006151
0.000740103
0.000443564
0.000223495
0.000285682
0.000150777
5.44985e-05
0.000194122
8.40221e-05
0.00430587
0.00414481
0.0038515
0.00398928
0.00387725
0.00424279
0.00414498
0.00427594
0.00432922
0.00417616
0.0038832
0.0032799
0.00260938
0.00167285
0.00105308
0.000109651
0.00064487
0.00115525
0.00114023
0.00144544
0.00406538
0.00371452
0.00360559
0.00383756
0.00350334
0.00390495
0.00415157
0.00396264
0.00418654
0.00420723
0.00374716
0.00315209
0.00264101
0.00175217
0.00128967
0.000375701
2.8172e-05
0.000736121
0.000671629
0.000935153
0.00356977
0.00333301
0.00328977
0.00328632
0.00359259
0.00355507
0.00363317
0.00376531
0.00403265
0.00371055
0.00334099
0.00304658
0.00274013
0.00217906
0.00140432
0.000570386
0.000382979
0.000148319
0.000394219
0.000548725
0.00309455
0.00290779
0.00293064
0.0028177
0.00295048
0.00304185
0.00325792
0.00328582
0.00329847
0.00319214
0.0029179
0.00283765
0.00227699
0.00157565
0.00125057
0.00081043
0.000128225
7.69777e-06
0.000262519
0.000512205
0.002355
0.00240959
0.0023917
0.00243302
0.00220902
0.0026723
0.00273994
0.00273153
0.00271635
0.0027316
0.00245664
0.00206493
0.00204603
0.00135095
0.000901191
0.000680407
0.000174405
0.000119997
3.92544e-05
3.34873e-05
0.00186239
0.00166151
0.00167492
0.00151327
0.00177314
0.00197172
0.00189976
0.00187165
0.0018971
0.00184977
0.00164682
0.00151718
0.00145074
0.00103854
0.000865385
0.000437754
0.000389826
0.000142065
6.60392e-05
4.88161e-06
0.00132514
0.00113982
0.00094414
0.00125445
0.00117889
0.00109708
0.00114342
0.00105605
0.00132269
0.00109331
0.00113012
0.00104926
0.000800395
0.000718436
0.000482328
0.000357777
0.000205559
8.22468e-05
0.000123067
4.02182e-05
0.000260089
0.000297957
0.000253755
0.000130599
0.000462014
0.000176732
0.000471792
0.000337077
0.000416333
0.000193204
0.000337759
0.000291939
0.000308448
0.00018334
0.000303759
0.000133744
0.000134525
7.31214e-05
0.0001101
0.000177773
0.00332525
0.00311808
0.00282345
0.00253422
0.00258648
0.00235521
0.00263919
0.00253641
0.0023966
0.00242499
0.0019948
0.00122695
0.000895721
0.000127001
0.00057991
0.00103001
0.00204445
0.00234244
0.00243598
0.00238747
0.00312849
0.00304983
0.0027542
0.00259194
0.00267296
0.00271167
0.00258073
0.00277186
0.00243959
0.00250893
0.00207822
0.00161341
0.00108134
0.000299497
0.000167118
0.00083872
0.0011564
0.00166369
0.00160472
0.00187761
0.00289944
0.00252855
0.00261206
0.00236033
0.00249886
0.00224488
0.00256343
0.00263335
0.00260079
0.00222716
0.00191828
0.00166884
0.00119518
0.000596316
0.000188299
0.00027274
0.000676666
0.00131716
0.00114434
0.00129619
0.00253065
0.00229867
0.00208998
0.00211548
0.00233788
0.00209563
0.00216672
0.00232117
0.00225677
0.00195713
0.00183468
0.00161172
0.0009918
0.000623455
0.000442165
2.5979e-05
0.000535217
0.00102876
0.000732115
0.000675559
0.0017882
0.00175247
0.0016823
0.00154773
0.00164904
0.00174501
0.0016676
0.00184179
0.00191112
0.00172083
0.00136714
0.00134199
0.00104825
0.000758529
0.000146094
0.000164949
0.000345487
0.000617051
0.000844208
0.00065434
0.00133058
0.0014455
0.00125671
0.00143846
0.00121114
0.00136173
0.00126845
0.00143133
0.00127038
0.00138189
0.00118731
0.000975137
0.000918735
0.00017243
0.000344473
0.000196658
0.000191629
0.000217006
0.000528356
0.000487755
0.000821009
0.000609133
0.000814369
0.000882349
0.000792915
0.000921617
0.000611747
0.000813958
0.000890671
0.000819054
0.000786694
0.000507281
0.000418918
0.000386813
3.7836e-05
8.94249e-05
9.47274e-05
8.70683e-05
7.1881e-05
0.00019411
0.00019509
0.000489554
0.00023435
0.000283794
0.000288085
0.000404586
0.000465668
0.000158851
0.000357249
0.000164457
0.00025646
0.000259926
0.000304665
0.000327985
0.000175305
5.43174e-05
0.000128637
6.78659e-05
5.89638e-06
0.00011456
0.00312515
0.00244495
0.00193725
0.00188339
0.00152082
0.00148616
0.0014215
0.00126097
0.0011609
0.000898181
0.000188458
1.99295e-05
0.000838138
0.0013478
0.00188983
0.0026937
0.00298144
0.00318179
0.00331863
0.00303229
0.00294289
0.00251572
0.00218246
0.00180245
0.00163707
0.00146679
0.00124977
0.00142863
0.00138933
0.00115699
0.000815754
0.000388811
0.000175488
0.0008428
0.00148322
0.00214722
0.00224217
0.00243502
0.00261158
0.00231942
0.00253333
0.00210059
0.00189524
0.00160672
0.00167513
0.0014951
0.00161343
0.00150028
0.00150445
0.00132436
0.000889109
0.000378642
0.000177005
0.000310269
0.000930993
0.00112844
0.00165421
0.00178786
0.00192625
0.00190733
0.00217965
0.00187806
0.00172272
0.00153338
0.00131374
0.00147596
0.0014102
0.00119376
0.00115536
0.00117928
0.000892973
0.000485712
0.000239916
3.30434e-05
0.000580281
0.000939695
0.0010458
0.00123475
0.00121366
0.00143784
0.00191461
0.00159927
0.00139453
0.00153247
0.00134185
0.00113731
0.00121162
0.00129738
0.00114127
0.00100766
0.000747265
0.000578553
0.000389986
1.99968e-05
0.000190346
0.000668113
0.000841902
0.00103864
0.00107346
0.000915153
0.00135162
0.00116239
0.000970722
0.00108915
0.000787017
0.000783257
0.000847901
0.00070694
0.000790422
0.000832098
0.000755191
0.000483824
0.000267171
6.91346e-05
0.00013826
0.000446905
0.000400105
0.00063753
0.000692657
0.000519689
0.000763573
0.000698793
0.000407575
0.000442189
0.000570387
0.000496654
0.000403527
0.000415947
0.00040206
0.000589407
0.000316166
0.000180565
0.000237712
2.50266e-05
0.00022536
8.26109e-05
0.00028823
0.00012558
0.000334193
0.000396587
0.00027832
0.000128653
0.000252574
6.18118e-05
5.04355e-05
0.000237805
0.000346647
0.000218566
0.000328054
0.000174858
0.000137369
5.99585e-05
0.000151304
6.55667e-05
9.22991e-06
6.1813e-05
0.000141665
0.000110606
9.50387e-05
0.000200701
0.00254412
0.00217749
0.00149981
0.00106782
0.000987373
0.000513349
0.000225523
9.33646e-05
5.67867e-05
0.000446619
0.00060705
0.00127394
0.0016326
0.00220652
0.00305537
0.00328715
0.00359352
0.00374545
0.00381938
0.00359721
0.00266175
0.00221343
0.00156919
0.001306
0.00107405
0.000722535
0.000849773
0.000556085
0.000285516
8.60524e-05
0.00023128
0.000718565
0.00146409
0.0017825
0.00222135
0.00261187
0.00275612
0.00276834
0.00309216
0.00283132
0.00230552
0.00218589
0.00173817
0.00114363
0.000805639
0.000831659
0.000838855
0.000689007
0.00064386
0.000311347
1.0103e-05
0.000386953
0.000837081
0.00122833
0.00166046
0.00204478
0.00203462
0.00207006
0.00222883
0.00225221
0.00204625
0.00169189
0.00118127
0.00120285
0.000890079
0.000639139
0.000753895
0.000649011
0.000579566
0.000440415
0.000192346
0.000187062
0.000357634
0.00075062
0.00102225
0.00143005
0.00154852
0.00156066
0.00155489
0.00143939
0.00161063
0.00151826
0.0013675
0.000998334
0.000838971
0.00104432
0.000788079
0.000558691
0.000379025
0.000412989
7.46042e-05
4.52307e-05
5.40709e-05
0.000683199
0.000771999
0.00105569
0.00124829
0.00118827
0.00112526
0.00117787
0.00100613
0.000935611
0.00113708
0.000850321
0.000707443
0.000679773
0.000637629
0.000530707
0.000286275
0.000486591
0.000266814
0.000173813
0.000220174
0.000171103
0.000595474
0.000717278
0.00104724
0.000923766
0.000723576
0.000656615
0.000793283
0.000503542
0.000419585
0.000245238
0.000175946
0.000534579
9.74892e-05
0.000295182
2.26786e-05
9.2781e-05
0.000138701
7.96281e-06
0.000105263
0.000105422
0.000122662
0.000283758
0.000386912
0.000376161
0.000247562
0.000500511
0.000343108
3.68512e-05
6.72947e-05
0.000267068
0.000125528
0.000119463
0.000257461
0.00012039
0.000181291
0.000347696
5.90795e-05
0.000112137
8.71319e-05
6.29959e-07
5.17484e-05
0.000115841
0.000103137
0.000439973
0.000169981
0.000110342
0.0027248
0.0022302
0.00135795
0.00102881
0.000386967
0.000210208
0.00023724
0.000508261
0.000823946
0.00130398
0.00181178
0.00220743
0.00253925
0.0029039
0.00334809
0.00409908
0.00410231
0.00403299
0.00402294
0.00354551
0.0026344
0.0022858
0.00142711
0.00103741
0.000747598
0.000432422
4.60353e-05
0.000240749
0.000408733
0.000704394
0.000895376
0.00154528
0.00197615
0.00216846
0.00278829
0.00276233
0.00306836
0.00320527
0.003203
0.00271742
0.00285627
0.00189462
0.0013304
0.00107929
0.000750309
0.000367178
0.000384686
0.000231
0.000142033
0.000392845
0.000648666
0.00102869
0.00120323
0.00168784
0.00213361
0.00230009
0.00226976
0.00249002
0.00240199
0.00202677
0.0020739
0.00182619
0.00150799
0.00119333
0.000863544
0.000473705
0.000368165
5.9377e-05
8.0341e-05
3.17326e-05
0.000227603
0.000631368
0.00104669
0.00142538
0.00170089
0.00184861
0.00171216
0.00196665
0.00152139
0.00164674
0.00181435
0.00138464
0.00114838
0.000895181
0.000634164
0.000458363
0.000375699
0.000299596
0.000215739
1.94893e-06
0.000342994
0.00057965
0.000531025
0.000846755
0.00108112
0.00121612
0.00145003
0.00148674
0.00132922
0.00111191
0.00117676
0.00112337
0.000787481
0.000922149
0.000753731
0.000403105
0.000495868
0.000284357
0.000208114
0.000136291
0.000183955
0.000303168
0.000335732
0.000470772
0.000594034
0.000709407
0.000766093
0.000934788
0.000860827
0.000834051
0.000672096
0.000568196
0.00045903
0.000387765
0.000325904
0.000108304
5.68267e-05
0.000316333
0.000118247
4.88715e-05
4.74348e-05
0.000216439
0.000153384
0.000406975
0.000454347
0.000664422
0.000839722
0.000394361
0.000625131
0.000538928
0.000122586
0.000266549
2.1117e-05
7.18166e-05
0.00025956
1.50422e-05
0.000137636
0.000273971
1.66033e-05
0.000110968
0.000153949
5.45485e-05
5.16007e-05
5.66087e-05
4.22452e-05
0.000150253
0.000314529
0.000310139
0.000291404
5.49725e-05
0.00333273
0.00248468
0.00165514
0.000888914
0.000396092
0.000174804
0.000330779
0.000888327
0.00141202
0.00171124
0.00221511
0.00268506
0.0029466
0.00349699
0.00369559
0.00402695
0.00408235
0.00405735
0.0035132
0.00326557
0.00310626
0.0023295
0.00178078
0.00128026
0.000720293
0.000188046
9.34118e-05
0.000492576
0.000868531
0.0011391
0.00147687
0.00191536
0.00232502
0.0023852
0.0028459
0.00313078
0.00312073
0.00313238
0.00289966
0.00263402
0.00300766
0.00207647
0.00153084
0.0010836
0.000736396
0.00067532
5.30893e-06
0.000207094
0.000400396
0.000785758
0.000805128
0.00126727
0.00165047
0.00197433
0.00224102
0.00226315
0.00236925
0.00231402
0.00215252
0.00196669
0.00250521
0.00205135
0.00144324
0.00106926
0.000531747
0.000577804
0.000316486
8.03842e-06
0.000175909
0.000466836
0.000617433
0.000954266
0.00130818
0.00130528
0.00179947
0.00160886
0.00162609
0.00188918
0.00193657
0.00140773
0.00183152
0.00162574
0.00100069
0.000930085
0.00086822
0.000278778
0.000328517
5.93767e-05
1.63309e-05
0.000204604
0.000296462
0.000618372
0.000649052
0.00124715
0.00130983
0.00127794
0.00145564
0.00143739
0.0012339
0.00102827
0.00131905
0.00125477
0.000961273
0.000631207
0.000584573
0.000570529
0.000239504
5.07453e-05
1.24426e-05
0.000184571
0.000212975
0.00035741
0.00030558
0.00060806
0.000710558
0.00089315
0.00111
0.00106609
0.000908119
0.000703152
0.000839257
0.000777675
0.000495043
0.000500567
0.000551306
1.83125e-05
0.000191854
7.0768e-06
1.81892e-05
0.000148678
0.000217979
0.000147724
0.000157328
0.000405921
0.000531046
0.000494597
0.000650998
0.000488166
0.000438924
0.000601063
0.000392848
0.000475435
1.53763e-05
0.000185148
0.000197397
8.41418e-05
0.000133989
0.000125032
0.000166082
0.000120935
0.000239734
2.00167e-05
5.2109e-05
9.10868e-05
3.22834e-05
0.000583164
6.14594e-05
0.000143581
0.000112531
4.03357e-05
0.0040892
0.00326719
0.00221715
0.00140898
0.000693775
8.14693e-05
0.000512928
0.000748986
0.00119121
0.00158101
0.00220978
0.00260201
0.00301381
0.00322634
0.00369272
0.00386925
0.0036594
0.00366233
0.00309481
0.00242921
0.00386096
0.0029404
0.00233179
0.00153206
0.00103754
0.000508429
0.00012108
0.00037112
0.000766643
0.00120852
0.0016584
0.00191699
0.00249187
0.00255899
0.00305291
0.00312434
0.00274849
0.00246462
0.00250271
0.00197498
0.00346299
0.00273267
0.00223756
0.00154
0.000832743
0.000657263
5.26844e-05
7.10865e-06
0.000438556
0.00057917
0.000858271
0.0014415
0.00156657
0.00183112
0.00220153
0.00202558
0.00231521
0.00219414
0.00189059
0.00144031
0.00261488
0.00249681
0.00186275
0.0014343
0.000932508
0.000565332
0.000387721
4.33644e-05
0.000156777
0.000359029
0.000709716
0.000986616
0.00116786
0.00149311
0.00177107
0.00162059
0.00158501
0.0013202
0.00140229
0.000959165
0.00239802
0.00186652
0.00156296
0.0011884
0.000899844
0.000576145
0.000339035
0.000293999
8.03933e-05
0.000439834
0.000604991
0.00069476
0.000615347
0.000951341
0.00113175
0.00103601
0.00119355
0.00137185
0.000893717
0.000768407
0.00182987
0.00153848
0.000994841
0.000699526
0.000578005
0.000567888
0.000182752
0.000324806
8.64339e-05
6.88567e-05
0.000374057
0.000366507
0.000503005
0.000503773
0.000693745
0.000680288
0.000662116
0.000777428
0.000976513
0.000451753
0.00102686
0.000952361
0.000726907
0.000602109
0.000421333
0.000322732
0.00027395
0.000103483
3.7596e-05
0.00020311
0.000111035
0.000192837
0.000311682
0.000320971
0.000521655
0.000460652
0.00053098
0.000543683
0.000255947
0.000197775
0.00021954
0.000275983
0.000374759
0.000399849
0.000208885
1.5712e-05
0.000131044
0.000102418
2.11681e-05
5.93763e-05
6.04178e-05
4.81344e-06
5.99312e-05
0.000122775
0.000206747
0.000234812
3.69638e-05
6.71659e-05
9.30181e-06
0.000213597
0.00523009
0.00411067
0.00321176
0.0024425
0.00149452
0.00073704
0.000126087
0.000375914
0.00081151
0.00154548
0.00184858
0.0021402
0.00253349
0.00275368
0.00285271
0.00311457
0.00293473
0.00278376
0.00213106
0.00149824
0.00468701
0.00392413
0.00316346
0.00230848
0.00158415
0.000864198
0.000259061
1.72551e-05
0.000389616
0.00086437
0.00137986
0.00142776
0.00198221
0.00216769
0.00202971
0.00241964
0.00216895
0.00182328
0.00157437
0.00114323
0.00400507
0.00346775
0.00273456
0.00218323
0.00160334
0.00117429
0.000588808
0.000189279
7.91151e-05
0.000489211
0.000694426
0.00105378
0.00145945
0.00150406
0.00205148
0.00163897
0.00168978
0.0014548
0.00113506
0.000825409
0.00342407
0.00303148
0.00226396
0.00182299
0.00143321
0.000968803
0.000516547
0.000196681
0.000209952
0.000238307
0.000560378
0.000846934
0.000834045
0.00118981
0.00119107
0.00152066
0.00119138
0.00105301
0.000735658
0.000326312
0.0028756
0.00253729
0.00195573
0.00159161
0.00131698
0.000812234
0.000611112
0.000170577
0.000108794
4.30518e-05
0.000440551
0.000587648
0.00069954
0.000812196
0.000830226
0.00101721
0.00092895
0.000670265
0.000303868
0.00026339
0.00196849
0.0016965
0.00153101
0.00114506
0.000829284
0.000600104
0.000396124
0.000218077
7.5756e-05
8.41966e-06
0.000211665
0.000342804
0.000581019
0.000515862
0.000614287
0.00070383
0.000658031
0.000364659
0.000498219
0.000134725
0.00134995
0.00117141
0.000807398
0.000420846
0.000581596
0.00030101
0.000303252
0.000417678
5.22363e-05
0.000162359
4.6028e-05
0.000187885
0.000498044
0.000355126
0.000541401
0.00030752
0.000379465
0.000307564
0.000186416
1.10561e-05
0.000491064
0.000499112
0.000109281
0.000244129
0.000220552
0.000105196
1.03194e-05
0.000125426
0.000153014
2.34125e-05
4.93476e-05
0.000169092
0.000183112
0.000149701
0.000240831
0.000135854
1.38251e-05
0.000204498
0.000312202
3.27743e-05
0.00682398
0.00573187
0.00465707
0.00366164
0.00268814
0.00180844
0.000843903
0.000476457
0.000236826
0.000412867
0.00115516
0.00150637
0.00177564
0.00198835
0.00202392
0.00196535
0.0018331
0.00135733
0.000887613
0.000146065
0.0061916
0.0051521
0.00431083
0.00324797
0.00250113
0.00196169
0.00141359
0.00067412
8.74097e-05
0.000220701
0.00040827
0.00115462
0.0012903
0.00139658
0.00135292
0.00140845
0.000980406
0.000894039
0.000370645
0.000111512
0.00539324
0.00470762
0.00379138
0.00296465
0.00241493
0.0017653
0.00117291
0.000637275
0.000222942
6.70573e-05
0.000170754
0.000639128
0.000779332
0.00106281
0.000958035
0.000867595
0.000682387
0.000667616
0.000191688
0.00026635
0.00464954
0.00393262
0.00337104
0.00269856
0.00207562
0.00158433
0.00120116
0.0007414
0.000249917
0.000143398
0.000130488
0.000309825
0.000565382
0.00049976
0.000720175
0.00049396
0.000592143
0.000296803
6.1943e-05
0.000529174
0.00370947
0.00323621
0.00256399
0.00199409
0.00157187
0.00128846
0.000969261
0.000679717
0.000528846
7.09579e-05
3.46047e-05
7.8475e-05
0.000137523
0.000622016
0.000395221
0.000435725
0.000632166
0.00020535
0.000195484
0.000324911
0.00259412
0.00262356
0.00180238
0.00148719
0.00125916
0.00102689
0.000728534
0.000599861
0.000289335
7.76303e-05
4.8531e-05
4.22299e-05
0.000181207
0.000330108
0.000225838
2.8516e-05
0.000116503
8.24207e-05
9.42961e-05
0.000360598
0.00151031
0.00144299
0.00129733
0.00108597
0.000716526
0.00071745
0.000598739
0.00021327
4.33465e-05
0.00019319
9.70282e-05
3.93368e-05
0.00022691
1.83851e-05
0.000242116
0.000300119
8.31879e-05
0.000305071
0.000152359
1.55372e-05
0.000700581
0.000381813
0.000583162
0.000218897
7.87073e-05
0.000351901
0.000151455
0.000161595
0.000108677
0.000209241
3.72631e-05
0.000114066
0.000137062
3.77881e-05
0.000293722
0.000119602
6.37054e-05
6.45091e-05
0.000183771
9.18054e-05
0.00872814
0.00744248
0.00619489
0.00502275
0.00419731
0.00345526
0.00239201
0.00162163
0.0011174
0.000831615
0.000121185
0.000173579
0.000481962
0.000655571
0.000785842
0.000639904
0.000357423
0.000132351
0.000934397
0.0016101
0.00781643
0.00677646
0.00558334
0.00467501
0.00375219
0.00305562
0.0024751
0.00162931
0.00119865
0.000692423
0.000525854
2.55451e-05
0.000268903
0.000302779
0.000314617
3.35925e-05
0.000254338
0.000454243
0.00112473
0.00164814
0.00652867
0.00588245
0.00504284
0.00414915
0.00354202
0.00286605
0.00222236
0.00157485