/*--------------------------------*- C++ -*----------------------------------*\
| =========                 |                                                 |
| \\      /  F ield         | OpenFOAM: The Open Source CFD Toolbox           |
|  \\    /   O peration     | Version:  2212                                  |
|   \\  /    A nd           | Website:  www.openfoam.com                      |
|    \\/     M anipulation  |                                                 |
\*---------------------------------------------------------------------------*/
FoamFile
{
    version     2.0;
    format      ascii;
    arch        "LSB;label=32;scalar=64";
    class       volScalarField;
    location    "0";
    object      stateMean;
}
// * * * * * * * * * * * * * * * * * * * * * * * * * * * * * * * * * * * * * //

dimensions      [0 0 0 1 0 0 0];

internalField   nonuniform List<scalar> 
3200
(
315.217
315.477
315.772
315.964
316.119
316.339
316.499
316.664
316.84
316.901
316.967
317.032
317.053
317.076
317.054
317.085
317.034
316.86
316.731
316.6
313.182
313.342
313.592
313.681
313.913
314.088
314.257
314.343
314.488
314.554
314.622
314.687
314.677
314.805
314.776
314.684
314.66
314.539
314.431
314.334
311.116
311.265
311.459
311.6
311.736
311.907
311.945
312.093
312.187
312.348
312.265
312.359
312.45
312.457
312.387
312.453
312.341
312.246
312.16
312.025
308.993
309.184
309.315
309.465
309.597
309.638
309.774
309.865
310.013
309.965
310.078
310.077
310.173
310.104
310.092
310.081
310.026
310.012
309.952
309.858
307.076
307.133
307.305
307.334
307.408
307.46
307.55
307.587
307.732
307.769
307.793
307.869
307.906
307.821
307.746
307.763
307.741
307.76
307.695
307.625
305.042
305.172
305.245
305.303
305.317
305.315
305.38
305.447
305.474
305.48
305.524
305.535
305.563
305.597
305.632
305.552
305.619
305.51
305.474
305.395
303.076
303.097
303.072
303.135
303.164
303.268
303.281
303.232
303.283
303.33
303.291
303.31
303.351
303.34
303.334
303.397
303.407
303.33
303.337
303.276
301.026
301.054
301.074
301.002
301.072
301.167
301.047
301.122
301.099
301.119
301.109
301.097
301.156
301.078
301.117
301.141
301.021
301.07
301.076
301.079
315.806
316.013
316.233
316.505
316.794
316.969
317.077
317.249
317.409
317.581
317.675
317.691
317.814
317.822
317.841
317.75
317.646
317.502
317.324
317.264
313.628
313.764
314.026
314.201
314.464
314.645
314.85
314.9
315.001
315.073
315.128
315.203
315.306
315.216
315.218
315.249
315.14
315.01
314.91
314.82
311.417
311.627
311.804
311.976
312.085
312.247
312.408
312.517
312.556
312.74
312.746
312.788
312.876
312.855
312.798
312.882
312.76
312.676
312.542
312.436
309.315
309.474
309.539
309.714
309.901
310.011
310.089
310.181
310.223
310.406
310.454
310.432
310.492
310.428
310.437
310.383
310.41
310.29
310.174
310.181
307.256
307.249
307.486
307.603
307.688
307.757
307.862
307.886
307.94
308.046
308.084
308.03
308.093
308.102
308.157
308.098
308.058
308.055
307.908
307.848
305.137
305.168
305.293
305.374
305.488
305.56
305.653
305.621
305.676
305.726
305.704
305.808
305.728
305.767
305.789
305.775
305.747
305.69
305.61
305.584
303.048
303.146
303.169
303.212
303.337
303.323
303.353
303.348
303.339
303.421
303.422
303.481
303.482
303.468
303.462
303.34
303.44
303.455
303.306
303.374
301.063
301.005
301.07
301.08
301.059
301.176
301.104
301.147
301.128
301.176
301.115
301.204
301.131
301.118
301.17
301.225
301.15
301.138
301.184
301.091
316.471
316.759
317.002
317.261
317.571
317.77
317.964
318.121
318.271
318.368
318.576
318.631
318.664
318.606
318.609
318.585
318.497
318.346
318.229
318.052
314.145
314.414
314.718
314.923
315.131
315.269
315.486
315.626
315.681
315.751
315.863
315.953
316.011
315.991
316.057
315.933
315.846
315.747
315.609
315.517
311.926
312.168
312.391
312.574
312.757
312.879
313.003
313.078
313.147
313.269
313.312
313.316
313.492
313.41
313.45
313.383
313.328
313.214
313.165
312.988
309.71
309.874
310.03
310.188
310.347
310.468
310.526
310.685
310.772
310.841
310.854
310.906
310.942
310.883
310.957
310.879
310.842
310.743
310.69
310.614
307.552
307.66
307.81
307.93
307.947
308.112
308.152
308.275
308.329
308.333
308.394
308.439
308.496
308.494
308.46
308.544
308.416
308.295
308.338
308.222
305.374
305.482
305.538
305.635
305.704
305.747
305.864
305.935
305.943
305.933
306
305.951
305.995
306.026
306.064
306.045
305.948
305.94
305.88
305.875
303.307
303.197
303.352
303.373
303.407
303.451
303.473
303.543
303.619
303.585
303.655
303.654
303.593
303.653
303.638
303.588
303.627
303.547
303.516
303.524
301.11
301.096
301.106
301.171
301.149
301.171
301.205
301.138
301.256
301.222
301.128
301.246
301.196
301.273
301.217
301.216
301.174
301.259
301.209
301.185
317.324
317.506
317.909
318.163
318.472
318.669
318.885
319.068
319.225
319.437
319.48
319.437
319.582
319.598
319.531
319.398
319.397
319.192
319.107
318.801
314.865
315.094
315.369
315.617
315.827
316.082
316.183
316.435
316.486
316.586
316.648
316.752
316.826
316.819
316.78
316.719
316.751
316.544
316.389
316.255
312.49
312.696
312.903
313.132
313.321
313.541
313.63
313.822
313.829
313.94
314.031
314.078
314.088
314.189
314.08
314.026
314.01
313.87
313.771
313.603
310.172
310.364
310.519
310.737
310.864
310.989
311.066
311.208
311.281
311.343
311.452
311.496
311.438
311.478
311.474
311.523
311.395
311.29
311.174
311.162
307.926
307.924
308.122
308.328
308.43
308.498
308.645
308.681
308.751
308.828
308.82
308.845
308.886
308.849
308.905
308.84
308.824
308.706
308.609
308.542
305.644
305.731
305.829
305.906
306.006
306.081
306.084
306.136
306.217
306.291
306.274
306.264
306.36
306.292
306.322
306.27
306.325
306.2
306.15
306.182
303.375
303.43
303.511
303.524
303.516
303.593
303.625
303.749
303.684
303.682
303.815
303.879
303.739
303.762
303.747
303.785
303.742
303.736
303.661
303.622
301.229
301.102
301.127
301.176
301.229
301.254
301.265
301.294
301.203
301.241
301.316
301.249
301.31
301.258
301.241
301.255
301.306
301.263
301.279
301.189
318.128
318.403
318.689
319.04
319.367
319.53
319.825
319.99
320.183
320.355
320.425
320.401
320.578
320.545
320.469
320.426
320.289
320.099
320.003
319.677
315.591
315.813
316.116
316.413
316.594
316.855
316.99
317.131
317.343
317.519
317.509
317.618
317.674
317.622
317.643
317.525
317.535
317.297
317.13
316.903
313.141
313.358
313.522
313.791
313.928
314.135
314.339
314.48
314.58
314.646
314.766
314.726
314.83
314.787
314.765
314.777
314.683
314.539
314.354
314.207
310.71
310.829
311.009
311.198
311.393
311.484
311.643
311.785
311.851
311.873
312.014
312.054
312.057
312.099
312.089
311.959
311.897
311.812
311.745
311.579
308.354
308.468
308.547
308.683
308.799
308.913
309.026
309.065
309.21
309.268
309.244
309.283
309.36
309.351
309.314
309.344
309.265
309.23
309.093
308.98
305.913
306.062
306.099
306.254
306.318
306.33
306.438
306.457
306.483
306.622
306.636
306.604
306.634
306.62
306.64
306.611
306.57
306.532
306.501
306.429
303.515
303.637
303.649
303.691
303.793
303.764
303.815
303.829
303.868
303.941
303.949
303.971
303.954
303.971
304.018
304.017
303.982
303.912
303.877
303.809
301.239
301.206
301.271
301.259
301.308
301.266
301.263
301.25
301.336
301.337
301.275
301.286
301.254
301.342
301.348
301.311
301.277
301.3
301.289
301.321
318.934
319.213
319.554
319.928
320.224
320.526
320.751
320.931
321.089
321.315
321.443
321.451
321.498
321.551
321.491
321.439
321.27
321.093
320.864
320.663
316.277
316.548
316.808
317.089
317.343
317.568
317.829
317.989
318.204
318.325
318.396
318.4
318.483
318.473
318.417
318.356
318.303
318.124
317.925
317.662
313.697
313.95
314.159
314.353
314.686
314.841
314.964
315.106
315.264
315.343
315.505
315.56
315.516
315.49
315.522
315.453
315.333
315.261
315.098
314.93
311.178
311.367
311.49
311.804
311.937
312.165
312.206
312.268
312.456
312.534
312.526
312.633
312.69
312.703
312.558
312.578
312.428
312.41
312.279
312.075
308.644
308.799
308.929
309.124
309.294
309.381
309.493
309.556
309.581
309.652
309.722
309.782
309.796
309.83
309.717
309.69
309.594
309.559
309.529
309.406
306.197
306.315
306.317
306.551
306.586
306.66
306.724
306.786
306.878
306.862
306.946
306.975
307.054
306.978
306.947
306.932
306.883
306.816
306.811
306.673
303.739
303.746
303.826
303.818
303.949
303.996
304.028
304.079
304.121
304.176
304.133
304.235
304.207
304.234
304.143
304.122
304.152
304.073
304.023
303.979
301.3
301.253
301.266
301.321
301.33
301.323
301.362
301.274
301.366
301.425
301.414
301.376
301.382
301.337
301.456
301.421
301.42
301.429
301.321
301.333
319.757
320.082
320.388
320.83
321.149
321.468
321.612
321.888
322.08
322.224
322.333
322.449
322.372
322.541
322.447
322.334
322.222
322.034
321.698
321.553
316.995
317.232
317.548
317.902
318.205
318.483
318.685
318.814
319.03
319.172
319.283
319.28
319.372
319.35
319.254
319.212
319
318.861
318.772
318.471
314.3
314.619
314.71
315.134
315.311
315.49
315.772
315.83
315.958
316.075
316.116
316.17
316.201
316.217
316.251
316.142
316.1
315.967
315.691
315.556
311.61
311.852
312.044
312.148
312.44
312.586
312.703
312.866
312.921
313.036
313.153
313.173
313.21
313.237
313.163
313.192
313.032
312.88
312.831
312.637
309.028
309.189
309.31
309.441
309.744
309.81
309.985
310.027
310.11
310.116
310.155
310.216
310.248
310.253
310.271
310.224
310.103
310.066
309.853
309.799
306.42
306.55
306.707
306.757
306.849
307.004
307.076
307.153
307.196
307.191
307.191
307.321
307.286
307.29
307.237
307.243
307.166
307.191
307.076
307.016
303.873
303.923
304.094
304.113
304.133
304.226
304.211
304.285
304.249
304.318
304.342
304.442
304.368
304.381
304.339
304.363
304.308
304.238
304.177
304.202
301.272
301.303
301.355
301.379
301.453
301.409
301.415
301.457
301.465
301.427
301.486
301.423
301.372
301.442
301.485
301.441
301.455
301.458
301.391
301.457
320.537
320.863
321.302
321.626
322.035
322.274
322.63
322.857
323.032
323.184
323.279
323.373
323.397
323.431
323.306
323.253
323.122
322.917
322.565
322.388
317.664
318.009
318.341
318.587
319.015
319.197
319.398
319.692
319.788
319.869
320.016
320.12
320.116
320.168
320.035
320.017
319.805
319.728
319.409
319.259
314.89
315.157
315.422
315.693
315.868
316.142
316.354
316.51
316.566
316.742
316.86
316.88
316.835
316.816
316.824
316.826
316.613
316.51
316.336
316.191
312.12
312.333
312.531
312.787
312.969
313.155
313.28
313.433
313.544
313.639
313.725
313.689
313.75
313.809
313.717
313.641
313.631
313.448
313.326
313.249
309.441
309.543
309.707
309.866
310.109
310.132
310.262
310.39
310.484
310.526
310.612
310.687
310.603
310.694
310.683
310.585
310.568
310.413
310.303
310.161
306.69
306.836
306.945
307.118
307.162
307.22
307.35
307.448
307.505
307.553
307.616
307.622
307.578
307.615
307.561
307.573
307.463
307.416
307.367
307.261
303.957
304.063
304.191
304.17
304.268
304.365
304.415
304.495
304.453
304.543
304.531
304.536
304.573
304.544
304.552
304.518
304.489
304.503
304.373
304.348
301.383
301.388
301.424
301.486
301.411
301.521
301.454
301.512
301.501
301.576
301.532
301.539
301.521
301.541
301.482
301.51
301.484
301.523
301.511
301.515
321.36
321.686
322.106
322.546
322.876
323.283
323.49
323.771
323.994
324.078
324.218
324.374
324.303
324.305
324.234
324.046
324.026
323.775
323.478
323.202
318.402
318.646
319.021
319.372
319.647
319.922
320.223
320.376
320.637
320.695
320.834
320.902
320.92
320.956
320.846
320.773
320.572
320.434
320.134
320.001
315.471
315.771
315.979
316.313
316.523
316.847
316.965
317.125
317.265
317.451
317.55
317.561
317.582
317.591
317.5
317.403
317.276
317.224
316.933
316.798
312.597
312.816
313.074
313.274
313.412
313.687
313.845
313.944
314.071
314.22
314.258
314.274
314.362
314.33
314.207
314.138
314.106
314.053
313.767
313.602
309.85
309.974
310.145
310.348
310.478
310.603
310.767
310.828
310.889
310.991
311.101
311.066
311.076
311.05
311.101
311.042
310.936
310.86
310.78
310.608
307.02
307.064
307.229
307.288
307.474
307.539
307.666
307.699
307.807
307.804
307.864
307.898
307.857
308.004
307.852
307.786
307.79
307.683
307.671
307.579
304.21
304.323
304.324
304.372
304.468
304.496
304.651
304.638
304.65
304.69
304.7
304.767
304.758
304.719
304.765
304.737
304.612
304.599
304.53
304.519
301.436
301.362
301.461
301.469
301.491
301.479
301.481
301.589
301.541
301.606
301.579
301.571
301.545
301.522
301.548
301.562
301.516
301.512
301.508
301.53
322.003
322.466
322.934
323.274
323.713
324.031
324.326
324.605
324.8
324.97
325.201
325.171
325.287
325.226
325.126
325.079
324.85
324.591
324.329
323.991
318.959
319.302
319.671
320.072
320.404
320.724
321.031
321.171
321.323
321.471
321.58
321.645
321.686
321.704
321.671
321.618
321.369
321.15
320.943
320.642
316.006
316.315
316.601
316.928
317.142
317.424
317.588
317.79
317.907
318.026
318.165
318.265
318.211
318.2
318.195
318.032
317.963
317.769
317.592
317.413
313.05
313.283
313.511
313.763
314.026
314.159
314.344
314.547
314.656
314.699
314.79
314.867
314.847
314.778
314.806
314.734
314.574
314.44
314.253
314.185
310.076
310.28
310.483
310.591
310.8
311.007
311.112
311.191
311.314
311.395
311.476
311.49
311.473
311.483
311.42
311.426
311.33
311.24
311.111
310.955
307.203
307.336
307.495
307.566
307.767
307.87
307.941
308.06
308.088
308.103
308.127
308.183
308.196
308.223
308.154
308.147
308.024
307.99
307.907
307.779
304.341
304.405
304.554
304.608
304.633
304.718
304.801
304.842
304.878
304.838
304.922
304.946
304.897
304.916
304.938
304.832
304.831
304.716
304.72
304.695
301.449
301.509
301.492
301.57
301.596
301.56
301.545
301.599
301.577
301.629
301.641
301.694
301.619
301.63
301.629
301.63
301.632
301.601
301.577
301.594
322.84
323.187
323.689
324.128
324.45
324.885
325.23
325.479
325.674
325.878
325.931
326.071
326.04
326.021
326.045
325.839
325.64
325.389
325.129
324.827
319.609
319.945
320.396
320.74
321.071
321.428
321.604
321.877
322.091
322.277
322.324
322.415
322.528
322.452
322.375
322.255
322.044
321.788
321.647
321.369
316.55
316.748
317.097
317.503
317.829
318.026
318.208
318.406
318.529
318.691
318.787
318.857
318.893
318.866
318.82
318.735
318.514
318.307
318.15
317.997
313.476
313.716
314.046
314.217
314.494
314.741
314.855
315.011
315.121
315.211
315.289
315.363
315.329
315.33
315.264
315.224
315.082
314.908
314.737
314.571
310.469
310.598
310.774
311.028
311.217
311.284
311.48
311.648
311.772
311.797
311.903
311.904
311.839
311.939
311.85
311.807
311.728
311.57
311.42
311.336
307.522
307.614
307.645
307.833
307.976
308.078
308.174
308.276
308.401
308.364
308.432
308.435
308.508
308.424
308.472
308.415
308.418
308.28
308.125
308.034
304.46
304.591
304.671
304.784
304.864
304.812
304.995
304.976
305.088
305.083
305.069
305.097
305.098
305.057
305.012
305.005
304.977
304.914
304.819
304.855
301.473
301.579
301.588
301.547
301.61
301.631
301.606
301.734
301.652
301.608
301.695
301.741
301.672
301.684
301.651
301.683
301.659
301.741
301.641
301.609
323.503
323.876
324.422
324.803
325.285
325.735
325.972
326.247
326.483
326.707
326.873
326.934
326.909
326.841
326.757
326.745
326.472
326.173
325.906
325.537
320.24
320.532
321.034
321.398
321.727
322.051
322.403
322.627
322.796
322.95
323.012
323.163
323.186
323.087
323.088
322.857
322.719
322.523
322.295
321.959
316.9
317.355
317.726
318.006
318.311
318.621
318.782
318.968
319.184
319.314
319.396
319.467
319.426
319.443
319.418
319.283
319.073
318.941
318.721
318.452
313.896
314.093
314.349
314.613
314.881
315.158
315.327
315.574
315.609
315.685
315.747
315.833
315.885
315.893
315.843
315.736
315.528
315.443
315.147
315.066
310.738
310.964
311.158
311.366
311.574
311.749
311.881
311.992
312.079
312.177
312.285
312.327
312.251
312.262
312.229
312.151
312.097
311.979
311.809
311.649
307.707
307.789
307.978
308.029
308.172
308.365
308.412
308.539
308.607
308.736
308.751
308.765
308.731
308.71
308.672
308.623
308.549
308.509
308.4
308.327
304.639
304.71
304.795
304.872
304.945
305.063
305.158
305.082
305.169
305.204
305.233
305.271
305.226
305.265
305.235
305.247
305.246
305.055
305.074
305.008
301.586
301.556
301.648
301.65
301.612
301.703
301.765
301.652
301.749
301.716
301.795
301.76
301.751
301.74
301.695
301.735
301.767
301.748
301.724
301.64
324.101
324.574
325.086
325.588
325.998
326.417
326.674
327.024
327.315
327.473
327.638
327.731
327.697
327.708
327.566
327.44
327.208
326.946
326.525
326.247
320.774
321.192
321.577
321.957
322.354
322.727
322.997
323.271
323.496
323.636
323.745
323.834
323.863
323.737
323.707
323.596
323.376
323.16
322.876
322.622
317.43
317.865
318.215
318.542
318.836
319.026
319.391
319.582
319.731
319.899
319.905
320.008
320.043
320.024
319.957
319.793
319.644
319.44
319.212
319.014
314.232
314.486
314.821
315.091
315.409
315.535
315.741
315.945
316.069
316.198
316.245
316.315
316.355
316.253
316.285
316.085
315.941
315.872
315.742
315.464
311.099
311.249
311.555
311.695
311.83
312.123
312.203
312.366
312.445
312.533
312.562
312.633
312.588
312.695
312.619
312.5
312.439
312.315
312.141
311.99
307.924
308.005
308.174
308.361
308.459
308.54
308.711
308.825
308.885
308.958
308.967
308.991
308.935
308.973
308.935
308.915
308.898
308.8
308.672
308.548
304.745
304.8
304.934
304.982
305.017
305.238
305.214
305.309
305.325
305.298
305.41
305.376
305.355
305.397
305.394
305.336
305.334
305.234
305.171
305.184
301.557
301.545
301.699
301.665
301.678
301.728
301.727
301.816
301.836
301.826
301.862
301.78
301.794
301.794
301.763
301.914
301.74
301.747
301.722
301.688
324.724
325.174
325.74
326.235
326.695
327.106
327.487
327.714
327.966
328.149
328.355
328.428
328.456
328.375
328.341
328.187
327.891
327.66
327.25
326.849
321.282
321.732
322.121
322.58
322.936
323.29
323.577
323.866
324.086
324.277
324.423
324.459
324.553
324.444
324.441
324.281
323.963
323.67
323.489
323.164
317.917
318.278
318.598
318.99
319.382
319.593
319.923
320.052
320.268
320.353
320.443
320.589
320.551
320.526
320.507
320.295
320.222
320.013
319.753
319.481
314.713
314.853
315.186
315.459
315.753
315.996
316.164
316.363
316.491
316.588
316.699
316.753
316.746
316.759
316.735
316.56
316.413
316.191
316.084
315.841
311.323
311.567
311.765
311.99
312.186
312.385
312.546
312.631
312.797
312.936
312.987
312.989
312.915
312.949
312.919
312.791
312.734
312.681
312.429
312.311
308.052
308.198
308.439
308.608
308.72
308.795
308.976
308.982
309.144
309.157
309.252
309.23
309.237
309.188
309.184
309.109
309.028
308.986
308.974
308.756
304.859
304.915
305.028
305.112
305.213
305.285
305.337
305.419
305.462
305.422
305.518
305.532
305.546
305.519
305.543
305.483
305.458
305.416
305.284
305.232
301.667
301.661
301.646
301.654
301.727
301.799
301.777
301.796
301.84
301.82
301.82
301.833
301.845
301.854
301.866
301.861
301.764
301.779
301.747
301.797
325.294
325.827
326.326
326.789
327.305
327.744
328.112
328.411
328.649
328.94
329.039
329.086
329.12
329.057
328.922
328.816
328.55
328.288
327.869
327.494
321.827
322.216
322.638
323.098
323.511
323.91
324.251
324.445
324.66
324.857
325.024
324.997
325.094
325.038
324.848
324.808
324.548
324.252
323.994
323.713
318.429
318.718
319.101
319.433
319.769
320.047
320.356
320.583
320.739
320.907
320.973
321.052
321.112
321.027
321.08
320.808
320.673
320.441
320.19
319.973
315.016
315.234
315.599
315.865
316.111
316.373
316.617
316.8
316.986
317.024
317.126
317.187
317.126
317.158
317.057
317.046
316.819
316.648
316.426
316.201
311.606
311.785
312.061
312.274
312.456
312.703
312.844
313.045
313.109
313.178
313.303
313.327
313.317
313.289
313.217
313.186
313.063
312.883
312.673
312.587
308.319
308.455
308.573
308.762
308.929
309.063
309.182
309.283
309.359
309.395
309.463
309.488
309.53
309.465
309.439
309.403
309.319
309.159
309.133
308.969
304.946
305.031
305.182
305.343
305.335
305.459
305.492
305.484
305.615
305.691
305.627
305.688
305.764
305.694
305.716
305.607
305.588
305.523
305.446
305.355
301.647
301.655
301.786
301.759
301.78
301.828
301.868
301.919
301.841
301.883
301.875
301.938
301.936
301.916
301.933
301.888
301.829
301.881
301.9
301.785
325.782
326.294
326.834
327.353
327.859
328.32
328.787
329.029
329.349
329.451
329.695
329.767
329.771
329.719
329.581
329.389
329.158
328.809
328.466
328.068
322.212
322.679
323.113
323.624
324.029
324.352
324.661
325.006
325.271
325.409
325.47
325.675
325.645
325.575
325.43
325.299
324.997
324.802
324.47
324.183
318.718
319.046
319.476
319.882
320.195
320.53
320.83
321.091
321.286
321.368
321.445
321.563
321.546
321.548
321.405
321.248
321.052
320.906
320.616
320.361
315.226
315.54
315.83
316.159
316.468
316.726
316.939
317.157
317.364
317.423
317.51
317.541
317.571
317.479
317.457
317.283
317.202
316.992
316.766
316.531
311.81
312.025
312.322
312.59
312.81
312.979
313.149
313.297
313.383
313.548
313.581
313.574
313.553
313.648
313.507
313.439
313.413
313.189
312.977
312.869
308.457
308.495
308.81
308.972
309.105
309.234
309.377
309.457
309.581
309.662
309.671
309.658
309.699
309.705
309.622
309.504
309.468
309.343
309.277
309.147
305.096
305.145
305.227
305.329
305.48
305.514
305.581
305.723
305.792
305.755
305.784
305.817
305.857
305.77
305.807
305.791
305.686
305.53
305.539
305.562
301.651
301.757
301.708
301.831
301.886
301.815
301.885
301.89
301.912
301.885
301.959
301.911
301.898
301.942
302.01
301.946
301.916
301.903
301.817
301.89
326.225
326.79
327.371
327.933
328.373
328.772
329.258
329.62
329.862
329.995
330.23
330.288
330.314
330.263
330.171
329.968
329.706
329.368
328.932
328.567
322.604
323.061
323.597
324.044
324.491
324.852
325.158
325.528
325.733
325.932
325.986
326.116
326.147
326.064
325.951
325.702
325.483
325.266
324.899
324.609
319.128
319.435
319.829
320.245
320.564
320.896
321.202
321.489
321.643
321.744
321.833
321.934
321.993
321.931
321.872
321.695
321.515
321.132
320.868
320.707
315.54
315.821
316.271
316.554
316.758
316.997
317.249
317.505
317.676
317.766
317.878
317.886
317.875
317.878
317.832
317.602
317.483
317.304
317.086
316.85
312.073
312.277
312.564
312.778
312.955
313.199
313.438
313.573
313.682
313.721
313.861
313.847
313.831
313.886
313.797
313.733
313.55
313.396
313.204
313.082
308.698
308.697
308.928
309.172
309.263
309.457
309.589
309.617
309.746
309.868
309.889
309.835
309.914
309.807
309.849
309.733
309.71
309.506
309.394
309.312
305.11
305.304
305.35
305.457
305.561
305.644
305.773
305.838
305.784
305.817
305.905
305.938
305.879
305.892
305.911
305.835
305.835
305.697
305.653
305.566
301.76
301.756
301.823
301.881
301.891
301.873
301.926
301.922
301.954
301.998
301.978
302.01
301.932
302.01
301.949
301.913
301.927
301.91
301.964
301.842
326.618
327.177
327.755
328.358
328.901
329.328
329.733
330.075
330.374
330.586
330.754
330.778
330.794
330.728
330.658
330.379
330.176
329.85
329.325
329.074
323.001
323.392
323.928
324.528
324.863
325.243
325.654
325.959
326.165
326.328
326.459
326.498
326.536
326.49
326.384
326.229
325.984
325.651
325.279
324.96
319.336
319.73
320.179
320.491
320.993
321.278
321.554
321.776
322.034
322.165
322.273
322.325
322.3
322.287
322.196
322.035
321.763
321.593
321.278
320.967
315.785
316.116
316.393
316.757
317.106
317.322
317.501
317.82
317.942
318.103
318.043
318.14
318.187
318.087
318.078
317.93
317.742
317.531
317.34
317.05
312.25
312.504
312.713
313.04
313.17
313.374
313.585
313.801
313.863
314.007
314.093
314.092
314.098
314.035
314.041
313.87
313.768
313.621
313.383
313.241
308.632
308.956
309.122
309.277
309.455
309.515
309.729
309.857
309.905
309.991
310.078
310.02
310.106
310.044
309.943
309.959
309.808
309.704
309.55
309.451
305.276
305.372
305.481
305.492
305.693
305.789
305.883
305.921
305.965
306.033
305.975
306.024
306.011
306.006
305.96
305.908
305.923
305.818
305.755
305.714
301.795
301.836
301.818
301.854
301.897
301.94
302.01
301.978
301.935
301.992
301.976
302.059
302.005
301.986
302
302.007
301.932
302.007
301.881
301.923
326.933
327.525
328.142
328.77
329.23
329.694
330.202
330.543
330.797
331.016
331.177
331.267
331.258
331.172
331.053
330.824
330.575
330.12
329.755
329.38
323.208
323.685
324.304
324.712
325.269
325.565
325.932
326.245
326.473
326.685
326.821
326.863
326.916
326.823
326.675
326.588
326.231
326
325.664
325.252
319.643
319.949
320.442
320.88
321.244
321.638
321.849
322.093
322.304
322.449
322.534
322.619
322.649
322.525
322.438
322.287
322.086
321.869
321.538
321.264
315.906
316.254
316.59
316.972
317.246
317.569
317.809
318.015
318.132
318.377
318.331
318.464
318.413
318.374
318.31
318.164
317.968
317.738
317.581
317.284
312.374
312.646
312.89
313.147
313.454
313.653
313.754
313.946
314.114
314.192
314.306
314.269
314.304
314.234
314.147
314.054
313.948
313.798
313.576
313.486
308.846
309.043
309.216
309.389
309.557
309.713
309.837
309.922
309.996
310.088
310.113
310.132
310.188
310.162
310.04
310.091
309.958
309.782
309.684
309.597
305.31
305.458
305.5
305.642
305.727
305.743
305.956
305.984
306.032
306.108
306.151
306.077
306.076
306.093
306.036
305.997
306.001
305.877
305.873
305.804
301.74
301.763
301.884
301.811
301.917
301.976
301.924
301.987
302.01
302.021
302.061
302.044
302.028
302.011
302.106
302.115
302.033
301.958
301.907
301.967
327.144
327.767
328.35
328.997
329.578
330.008
330.441
330.784
331.011
331.292
331.445
331.505
331.512
331.454
331.258
331.031
330.828
330.439
330.009
329.605
323.459
323.87
324.514
324.994
325.39
325.831
326.197
326.39
326.714
326.876
327.061
327.114
327.152
327.078
326.956
326.75
326.55
326.189
325.884
325.503
319.728
320.161
320.587
321.023
321.424
321.739
322.004
322.189
322.443
322.631
322.817
322.789
322.835
322.785
322.689
322.531
322.25
321.945
321.67
321.452
316.108
316.454
316.701
317.024
317.406
317.758
317.941
318.26
318.306
318.507
318.533
318.636
318.549
318.573
318.457
318.36
318.182
317.967
317.674
317.399
312.43
312.728
312.992
313.271
313.505
313.708
313.94
314.035
314.164
314.312
314.367
314.326
314.326
314.387
314.342
314.259
314.113
313.947
313.679
313.462
308.991
309.099
309.298
309.463
309.633
309.808
309.941
309.987
310.159
310.158
310.298
310.259
310.259
310.275
310.239
310.119
309.994
309.925
309.8
309.593
305.424
305.474
305.604
305.728
305.715
305.789
305.947
306.027
306.036
306.156
306.209
306.117
306.108
306.15
306.106
306.056
306.042
306.002
305.86
305.85
301.807
301.757
301.83
301.898
301.962
301.977
301.951
302.024
302.023
302.035
302.086
302.096
301.989
302.158
302.034
301.982
302.036
302.024
301.922
301.937
)
;

boundaryField
{
    hotSide
    {
        type            fixedGradient;
        gradient        nonuniform List<scalar> 
400
(
321.511
322.87
325.591
329.677
335.133
341.965
350.181
359.788
370.794
383.208
397.037
412.289
428.971
447.088
466.647
487.651
510.105
534.011
559.372
586.191
323.738
325.08
327.767
331.802
337.194
343.949
352.078
361.591
372.498
384.81
398.537
413.687
430.268
448.289
467.755
488.672
511.043
534.872
560.161
586.913
326.149
327.47
330.116
334.091
339.406
346.071
354.099
363.503
374.296
386.491
400.101
415.136
431.606
449.52
468.885
489.706
511.988
535.735
560.948
587.63
328.704
330
332.597
336.503
341.73
348.292
356.205
365.485
376.15
388.215
401.695
416.604
432.954
450.753
470.009
490.73
512.919
536.579
561.714
588.325
331.33
332.599
335.142
338.97
344.099
350.546
358.332
367.477
378.003
389.928
403.271
418.047
434.27
451.949
471.095
491.712
513.807
537.382
562.439
588.978
333.918
335.158
337.643
341.389
346.414
352.74
360.392
369.397
379.779
391.562
404.765
419.407
435.503
453.065
472.101
492.618
514.622
538.114
563.096
589.569
336.321
337.531
339.959
343.622
348.544
354.751
362.274
371.142
381.385
393.031
406.101
420.618
436.595
454.047
472.983
493.409
515.33
538.747
563.663
590.076
338.36
339.543
341.92
345.509
350.339
356.44
363.847
372.595
382.718
394.244
407.2
421.608
437.485
454.844
473.695
494.045
515.897
539.253
564.114
590.478
339.852
341.015
343.352
346.885
351.645
357.665
364.985
373.643
383.675
395.113
407.984
422.312
438.116
455.407
474.197
494.491
516.294
539.606
564.428
590.758
340.643
341.795
344.11
347.613
352.334
358.311
365.584
374.193
384.176
395.567
408.393
422.679
438.443
455.699
474.456
494.722
516.498
539.788
564.589
590.901
340.643
341.795
344.11
347.613
352.334
358.311
365.584
374.193
384.176
395.567
408.393
422.679
438.443
455.699
474.456
494.722
516.498
539.788
564.589
590.901
339.852
341.015
343.352
346.885
351.645
357.665
364.985
373.643
383.675
395.113
407.984
422.312
438.116
455.407
474.197
494.491
516.294
539.606
564.428
590.758
338.36
339.543
341.92
345.509
350.339
356.44
363.847
372.595
382.718
394.244
407.2
421.608
437.485
454.844
473.695
494.045
515.897
539.253
564.114
590.478
336.321
337.531
339.959
343.622
348.544
354.751
362.274
371.142
381.385
393.031
406.101
420.618
436.595
454.047
472.983
493.409
515.33
538.747
563.663
590.076
333.918
335.158
337.643
341.389
346.414
352.74
360.392
369.397
379.779
391.562
404.765
419.407
435.503
453.065
472.101
492.618
514.622
538.114
563.096
589.569
331.33
332.599
335.142
338.97
344.099
350.546
358.332
367.477
378.003
389.928
403.271
418.047
434.27
451.949
471.095
491.712
513.807
537.382
562.439
588.978
328.704
330
332.597
336.503
341.73
348.292
356.205
365.485
376.15
388.215
401.695
416.604
432.954
450.753
470.009
490.73
512.919
536.579
561.714
588.325
326.149
327.47
330.116
334.091
339.406
346.071
354.099
363.503
374.296
386.491
400.101
415.136
431.606
449.52
468.885
489.706
511.988
535.735
560.948
587.63
323.738
325.08
327.767
331.802
337.194
343.949
352.078
361.591
372.498
384.81
398.537
413.687
430.268
448.289
467.755
488.672
511.043
534.872
560.161
586.913
321.511
322.87
325.591
329.677
335.133
341.965
350.181
359.788
370.794
383.208
397.037
412.289
428.971
447.088
466.647
487.651
510.105
534.011
559.372
586.191
)
;
    }
    coldSide
    {
        type            mixed;
        refValue        uniform 300;
        refGradient     uniform 0;
        valueFraction   uniform 0.991591;
        source          uniform 0;
        value           nonuniform List<scalar> 
400
(
300.009
300.009
300.009
300.01
300.01
300.011
300.011
300.012
300.012
300.012
300.012
300.013
300.013
300.014
300.014
300.014
300.015
300.015
300.015
300.015
300.009
300.008
300.009
300.009
300.01
300.011
300.011
300.012
300.011
300.013
300.013
300.013
300.013
300.014
300.014
300.015
300.015
300.015
300.015
300.015