/*--------------------------------*- C++ -*----------------------------------*\
| =========                 |                                                 |
| \\      /  F ield         | OpenFOAM: The Open Source CFD Toolbox           |
|  \\    /   O peration     | Version:  2212                                  |
|   \\  /    A nd           | Website:  www.openfoam.com                      |
|    \\/     M anipulation  |                                                 |
\*---------------------------------------------------------------------------*/
FoamFile
{
    version     2.0;
    format      ascii;
    arch        "LSB;label=32;scalar=64";
    class       volScalarField;
    location    "./ITHACAoutput/true/13";
    object      trueState;
}
// * * * * * * * * * * * * * * * * * * * * * * * * * * * * * * * * * * * * * //

dimensions      [0 0 0 1 0 0 0];

internalField   nonuniform List<scalar> 
3200
(
320.188
320.529
320.964
321.438
321.927
322.406
322.849
323.223
323.495
323.639
323.639
323.495
323.223
322.849
322.406
321.927
321.438
320.964
320.529
320.188
317.466
317.755
318.13
318.541
318.964
319.379
319.761
320.084
320.319
320.443
320.443
320.319
320.084
319.761
319.379
318.964
318.541
318.13
317.755
317.466
314.759
314.998
315.314
315.661
316.019
316.369
316.692
316.965
317.163
317.268
317.268
317.163
316.965
316.692
316.369
316.019
315.661
315.314
314.998
314.759
312.062
312.255
312.513
312.796
313.088
313.375
313.639
313.861
314.023
314.109
314.109
314.023
313.861
313.639
313.375
313.088
312.796
312.513
312.255
312.062
309.375
309.523
309.723
309.943
310.17
310.393
310.598
310.771
310.896
310.963
310.963
310.896
310.771
310.598
310.393
310.17
309.943
309.723
309.523
309.375
306.695
306.8
306.942
307.099
307.262
307.42
307.567
307.69
307.78
307.827
307.827
307.78
307.69
307.567
307.42
307.262
307.099
306.942
306.8
306.695
304.02
304.082
304.168
304.262
304.359
304.455
304.543
304.617
304.67
304.699
304.699
304.67
304.617
304.543
304.455
304.359
304.262
304.168
304.082
304.02
301.347
301.368
301.397
301.428
301.461
301.493
301.522
301.547
301.565
301.575
301.575
301.565
301.547
301.522
301.493
301.461
301.428
301.397
301.368
301.347
320.248
320.586
321.018
321.488
321.972
322.446
322.883
323.252
323.521
323.663
323.663
323.521
323.252
322.883
322.446
321.972
321.488
321.018
320.586
320.248
317.518
317.805
318.177
318.584
319.002
319.412
319.791
320.11
320.342
320.464
320.464
320.342
320.11
319.791
319.412
319.002
318.584
318.177
317.805
317.518
314.803
315.04
315.354
315.697
316.051
316.398
316.717
316.986
317.182
317.285
317.285
317.182
316.986
316.717
316.398
316.051
315.697
315.354
315.04
314.803
312.098
312.289
312.545
312.826
313.115
313.398
313.659
313.879
314.039
314.123
314.123
314.039
313.879
313.659
313.398
313.115
312.826
312.545
312.289
312.098
309.403
309.55
309.748
309.966
310.191
310.411
310.614
310.784
310.908
310.974
310.974
310.908
310.784
310.614
310.411
310.191
309.966
309.748
309.55
309.403
306.715
306.819
306.96
307.116
307.276
307.433
307.578
307.7
307.788
307.835
307.835
307.788
307.7
307.578
307.433
307.276
307.116
306.96
306.819
306.715
304.031
304.093
304.178
304.272
304.368
304.462
304.549
304.622
304.675
304.703
304.703
304.675
304.622
304.549
304.462
304.368
304.272
304.178
304.093
304.031
301.351
301.372
301.4
301.431
301.464
301.495
301.525
301.549
301.567
301.576
301.576
301.567
301.549
301.525
301.495
301.464
301.431
301.4
301.372
301.351
320.369
320.702
321.127
321.588
322.062
322.526
322.953
323.313
323.575
323.713
323.713
323.575
323.313
322.953
322.526
322.062
321.588
321.127
320.702
320.369
317.623
317.905
318.271
318.67
319.08
319.481
319.851
320.162
320.388
320.508
320.508
320.388
320.162
319.851
319.481
319.08
318.67
318.271
317.905
317.623
314.891
315.124
315.433
315.77
316.117
316.456
316.768
317.03
317.221
317.322
317.322
317.221
317.03
316.768
316.456
316.117
315.77
315.433
315.124
314.891
312.17
312.358
312.609
312.885
313.168
313.446
313.7
313.915
314.071
314.153
314.153
314.071
313.915
313.7
313.446
313.168
312.885
312.609
312.358
312.17
309.459
309.603
309.798
310.012
310.232
310.448
310.646
310.812
310.933
310.997
310.997
310.933
310.812
310.646
310.448
310.232
310.012
309.798
309.603
309.459
306.754
306.857
306.996
307.148
307.306
307.46
307.601
307.72
307.806
307.852
307.852
307.806
307.72
307.601
307.46
307.306
307.148
306.996
306.857
306.754
304.055
304.116
304.199
304.291
304.386
304.478
304.563
304.634
304.686
304.713
304.713
304.686
304.634
304.563
304.478
304.386
304.291
304.199
304.116
304.055
301.359
301.379
301.407
301.438
301.47
301.501
301.529
301.553
301.57
301.58
301.58
301.57
301.553
301.529
301.501
301.47
301.438
301.407
301.379
301.359
320.552
320.877
321.291
321.74
322.2
322.649
323.062
323.409
323.661
323.794
323.794
323.661
323.409
323.062
322.649
322.2
321.74
321.291
320.877
320.552
317.781
318.056
318.412
318.801
319.199
319.587
319.944
320.244
320.462
320.577
320.577
320.462
320.244
319.944
319.587
319.199
318.801
318.412
318.056
317.781
315.023
315.252
315.552
315.88
316.217
316.545
316.847
317.1
317.284
317.38
317.38
317.284
317.1
316.847
316.545
316.217
315.88
315.552
315.252
315.023
312.278
312.462
312.707
312.975
313.25
313.518
313.765
313.972
314.122
314.201
314.201
314.122
313.972
313.765
313.518
313.25
312.975
312.707
312.462
312.278
309.542
309.683
309.873
310.082
310.296
310.504
310.696
310.856
310.973
311.034
311.034
310.973
310.856
310.696
310.504
310.296
310.082
309.873
309.683
309.542
306.814
306.914
307.049
307.198
307.351
307.5
307.637
307.751
307.834
307.878
307.878
307.834
307.751
307.637
307.5
307.351
307.198
307.049
306.914
306.814
304.091
304.151
304.232
304.321
304.413
304.502
304.584
304.653
304.703
304.729
304.729
304.703
304.653
304.584
304.502
304.413
304.321
304.232
304.151
304.091
301.371
301.391
301.418
301.448
301.479
301.509
301.536
301.559
301.576
301.585
301.585
301.576
301.559
301.536
301.509
301.479
301.448
301.418
301.391
301.371
320.798
321.113
321.513
321.945
322.388
322.818
323.213
323.543
323.783
323.909
323.909
323.783
323.543
323.213
322.818
322.388
321.945
321.513
321.113
320.798
317.992
318.259
318.604
318.978
319.361
319.733
320.075
320.361
320.568
320.677
320.677
320.568
320.361
320.075
319.733
319.361
318.978
318.604
318.259
317.992
315.201
315.423
315.713
316.03
316.353
316.668
316.956
317.198
317.373
317.465
317.465
317.373
317.198
316.956
316.668
316.353
316.03
315.713
315.423
315.201
312.423
312.601
312.838
313.097
313.361
313.619
313.854
314.052
314.194
314.27
314.27
314.194
314.052
313.854
313.619
313.361
313.097
312.838
312.601
312.423
309.655
309.792
309.975
310.176
310.382
310.582
310.765
310.918
311.029
311.088
311.088
311.029
310.918
310.765
310.582
310.382
310.176
309.975
309.792
309.655
306.894
306.991
307.122
307.266
307.413
307.555
307.686
307.795
307.875
307.916
307.916
307.875
307.795
307.686
307.555
307.413
307.266
307.122
306.991
306.894
304.139
304.197
304.275
304.362
304.45
304.536
304.614
304.68
304.727
304.752
304.752
304.727
304.68
304.614
304.536
304.45
304.362
304.275
304.197
304.139
301.387
301.406
301.433
301.462
301.491
301.52
301.546
301.568
301.584
301.593
301.593
301.584
301.568
301.546
301.52
301.491
301.462
301.433
301.406
301.387
321.107
321.41
321.794
322.208
322.629
323.038
323.411
323.723
323.949
324.068
324.068
323.949
323.723
323.411
323.038
322.629
322.208
321.794
321.41
321.107
318.258
318.515
318.846
319.204
319.569
319.923
320.246
320.516
320.711
320.813
320.813
320.711
320.516
320.246
319.923
319.569
319.204
318.846
318.515
318.258
315.426
315.639
315.918
316.22
316.529
316.828
317.101
317.329
317.493
317.58
317.58
317.493
317.329
317.101
316.828
316.529
316.22
315.918
315.639
315.426
312.606
312.777
313.005
313.252
313.504
313.749
313.972
314.158
314.293
314.363
314.363
314.293
314.158
313.972
313.749
313.504
313.252
313.005
312.777
312.606
309.797
309.928
310.105
310.297
310.493
310.683
310.856
311.001
311.106
311.161
311.161
311.106
311.001
310.856
310.683
310.493
310.297
310.105
309.928
309.797
306.995
307.089
307.214
307.352
307.492
307.627
307.751
307.854
307.929
307.968
307.968
307.929
307.854
307.751
307.627
307.492
307.352
307.214
307.089
306.995
304.2
304.255
304.331
304.413
304.497
304.579
304.653
304.715
304.76
304.783
304.783
304.76
304.715
304.653
304.579
304.497
304.413
304.331
304.255
304.2
301.407
301.426
301.451
301.479
301.507
301.534
301.559
301.58
301.595
301.603
301.603
301.595
301.58
301.559
301.534
301.507
301.479
301.451
301.426
301.407
321.481
321.771
322.137
322.53
322.928
323.313
323.663
323.954
324.165
324.275
324.275
324.165
323.954
323.663
323.313
322.928
322.53
322.137
321.771
321.481
318.581
318.827
319.142
319.482
319.827
320.16
320.463
320.715
320.897
320.992
320.992
320.897
320.715
320.463
320.16
319.827
319.482
319.142
318.827
318.581
315.698
315.901
316.167
316.454
316.746
317.027
317.283
317.496
317.65
317.731
317.731
317.65
317.496
317.283
317.027
316.746
316.454
316.167
315.901
315.698
312.828
312.991
313.208
313.443
313.681
313.912
314.121
314.295
314.42
314.486
314.486
314.42
314.295
314.121
313.912
313.681
313.443
313.208
312.991
312.828
309.969
310.094
310.262
310.445
310.63
310.809
310.972
311.107
311.205
311.256
311.256
311.205
311.107
310.972
310.809
310.63
310.445
310.262
310.094
309.969
307.118
307.207
307.327
307.457
307.59
307.717
307.834
307.93
308
308.036
308.036
308
307.93
307.834
307.717
307.59
307.457
307.327
307.207
307.118
304.273
304.326
304.398
304.476
304.556
304.633
304.703
304.761
304.802
304.824
304.824
304.802
304.761
304.703
304.633
304.556
304.476
304.398
304.326
304.273
301.432
301.45
301.474
301.5
301.527
301.552
301.576
301.595
301.609
301.617
301.617
301.609
301.595
301.576
301.552
301.527
301.5
301.474
301.45
301.432
321.923
322.198
322.544
322.914
323.288
323.647
323.973
324.243
324.437
324.539
324.539
324.437
324.243
323.973
323.647
323.288
322.914
322.544
322.198
321.923
318.961
319.195
319.493
319.814
320.137
320.448
320.73
320.964
321.132
321.22
321.22
321.132
320.964
320.73
320.448
320.137
319.814
319.493
319.195
318.961
316.018
316.211
316.463
316.734
317.007
317.27
317.508
317.706
317.848
317.922
317.922
317.848
317.706
317.508
317.27
317.007
316.734
316.463
316.211
316.018
313.089
313.244
313.45
313.671
313.895
314.11
314.304
314.466
314.582
314.643
314.643
314.582
314.466
314.304
314.11
313.895
313.671
313.45
313.244
313.089
310.171
310.291
310.45
310.622
310.796
310.963
311.114
311.24
311.33
311.377
311.377
311.33
311.24
311.114
310.963
310.796
310.622
310.45
310.291
310.171
307.262
307.347
307.46
307.583
307.708
307.827
307.935
308.025
308.089
308.123
308.123
308.089
308.025
307.935
307.827
307.708
307.583
307.46
307.347
307.262
304.36
304.41
304.478
304.552
304.627
304.699
304.763
304.817
304.856
304.876
304.876
304.856
304.817
304.763
304.699
304.627
304.552
304.478
304.41
304.36
301.461
301.478
301.501
301.525
301.55
301.574
301.596
301.614
301.627
301.634
301.634
301.627
301.614
301.596
301.574
301.55
301.525
301.501
301.478
301.461
322.432
322.692
323.018
323.365
323.713
324.046
324.346
324.594
324.772
324.866
324.866
324.772
324.594
324.346
324.046
323.713
323.365
323.018
322.692
322.432
319.401
319.621
319.902
320.202
320.504
320.792
321.052
321.267
321.421
321.502
321.502
321.421
321.267
321.052
320.792
320.504
320.202
319.902
319.621
319.401
316.388
316.571
316.807
317.061
317.316
317.56
317.78
317.962
318.092
318.16
318.16
318.092
317.962
317.78
317.56
317.316
317.061
316.807
316.571
316.388
313.39
313.537
313.73
313.938
314.146
314.346
314.526
314.674
314.781
314.836
314.836
314.781
314.674
314.526
314.346
314.146
313.938
313.73
313.537
313.39
310.405
310.518
310.668
310.829
310.991
311.146
311.286
311.402
311.484
311.527
311.527
311.484
311.402
311.286
311.146
310.991
310.829
310.668
310.518
310.405
307.429
307.509
307.616
307.731
307.847
307.958
308.057
308.14
308.199
308.23
308.23
308.199
308.14
308.057
307.958
307.847
307.731
307.616
307.509
307.429
304.46
304.508
304.572
304.641
304.71
304.777
304.837
304.886
304.922
304.94
304.94
304.922
304.886
304.837
304.777
304.71
304.641
304.572
304.508
304.46
301.495
301.51
301.532
301.555
301.578
301.601
301.621
301.637
301.649
301.656
301.656
301.649
301.637
301.621
301.601
301.578
301.555
301.532
301.51
301.495
323.012
323.256
323.561
323.884
324.206
324.513
324.788
325.015
325.177
325.262
325.262
325.177
325.015
324.788
324.513
324.206
323.884
323.561
323.256
323.012
319.9
320.107
320.37
320.65
320.929
321.195
321.433
321.63
321.77
321.843
321.843
321.77
321.63
321.433
321.195
320.929
320.65
320.37
320.107
319.9
316.809
316.981
317.202
317.438
317.674
317.899
318.101
318.267
318.386
318.448
318.448
318.386
318.267
318.101
317.899
317.674
317.438
317.202
316.981
316.809
313.734
313.872
314.052
314.245
314.439
314.623
314.788
314.923
315.02
315.071
315.071
315.02
314.923
314.788
314.623
314.439
314.245
314.052
313.872
313.734
310.671
310.777
310.917
311.068
311.218
311.361
311.489
311.595
311.67
311.709
311.709
311.67
311.595
311.489
311.361
311.218
311.068
310.917
310.777
310.671
307.619
307.694
307.794
307.901
308.009
308.111
308.202
308.278
308.332
308.36
308.36
308.332
308.278
308.202
308.111
308.009
307.901
307.794
307.694
307.619
304.574
304.618
304.678
304.743
304.807
304.869
304.924
304.969
305.001
305.018
305.018
305.001
304.969
304.924
304.869
304.807
304.743
304.678
304.618
304.574
301.533
301.548
301.568
301.589
301.611
301.632
301.65
301.665
301.676
301.682
301.682
301.676
301.665
301.65
301.632
301.611
301.589
301.568
301.548
301.533
323.663
323.892
324.175
324.474
324.771
325.052
325.303
325.509
325.656
325.733
325.733
325.656
325.509
325.303
325.052
324.771
324.474
324.175
323.892
323.663
320.462
320.655
320.9
321.159
321.416
321.66
321.878
322.056
322.183
322.249
322.249
322.183
322.056
321.878
321.66
321.416
321.159
320.9
320.655
320.462
317.282
317.442
317.649
317.867
318.085
318.291
318.475
318.626
318.734
318.79
318.79
318.734
318.626
318.475
318.291
318.085
317.867
317.649
317.442
317.282
314.119
314.248
314.417
314.595
314.774
314.942
315.093
315.216
315.304
315.35
315.35
315.304
315.216
315.093
314.942
314.774
314.595
314.417
314.248
314.119
310.97
311.07
311.2
311.339
311.478
311.609
311.726
311.822
311.89
311.926
311.926
311.89
311.822
311.726
311.609
311.478
311.339
311.2
311.07
310.97
307.832
307.902
307.995
308.095
308.194
308.288
308.371
308.44
308.489
308.514
308.514
308.489
308.44
308.371
308.288
308.194
308.095
307.995
307.902
307.832
304.702
304.744
304.799
304.859
304.918
304.975
305.025
305.066
305.095
305.111
305.111
305.095
305.066
305.025
304.975
304.918
304.859
304.799
304.744
304.702
301.576
301.59
301.608
301.628
301.648
301.667
301.684
301.698
301.707
301.713
301.713
301.707
301.698
301.684
301.667
301.648
301.628
301.608
301.59
301.576
324.387
324.6
324.863
325.138
325.411
325.667
325.895
326.081
326.214
326.282
326.282
326.214
326.081
325.895
325.667
325.411
325.138
324.863
324.6
324.387
321.086
321.266
321.493
321.732
321.968
322.19
322.388
322.549
322.664
322.723
322.723
322.664
322.549
322.388
322.19
321.968
321.732
321.493
321.266
321.086
317.808
317.957
318.149
318.35
318.55
318.738
318.905
319.042
319.139
319.189
319.189
319.139
319.042
318.905
318.738
318.55
318.35
318.149
317.957
317.808
314.548
314.668
314.824
314.989
315.153
315.307
315.443
315.555
315.634
315.675
315.675
315.634
315.555
315.443
315.307
315.153
314.989
314.824
314.668
314.548
311.303
311.395
311.516
311.645
311.772
311.892
311.998
312.085
312.146
312.178
312.178
312.146
312.085
311.998
311.892
311.772
311.645
311.516
311.395
311.303
308.07
308.135
308.221
308.313
308.404
308.489
308.565
308.627
308.671
308.694
308.694
308.671
308.627
308.565
308.489
308.404
308.313
308.221
308.135
308.07
304.844
304.883
304.935
304.99
305.044
305.096
305.141
305.179
305.205
305.219
305.219
305.205
305.179
305.141
305.096
305.044
304.99
304.935
304.883
304.844
301.623
301.636
301.654
301.672
301.69
301.708
301.723
301.735
301.744
301.749
301.749
301.744
301.735
301.723
301.708
301.69
301.672
301.654
301.636
301.623
325.185
325.382
325.625
325.878
326.127
326.36
326.566
326.734
326.853
326.914
326.914
326.853
326.734
326.566
326.36
326.127
325.878
325.625
325.382
325.185
321.774
321.942
322.151
322.37
322.586
322.788
322.967
323.112
323.215
323.268
323.268
323.215
323.112
322.967
322.788
322.586
322.37
322.151
321.942
321.774
318.388
318.526
318.703
318.888
319.071
319.242
319.393
319.516
319.603
319.648
319.648
319.603
319.516
319.393
319.242
319.071
318.888
318.703
318.526
318.388
315.021
315.132
315.276
315.428
315.577
315.717
315.841
315.942
316.013
316.05
316.05
316.013
315.942
315.841
315.717
315.577
315.428
315.276
315.132
315.021
311.67
311.756
311.867
311.985
312.101
312.21
312.306
312.385
312.44
312.469
312.469
312.44
312.385
312.306
312.21
312.101
311.985
311.867
311.756
311.67
308.331
308.392
308.471
308.556
308.639
308.716
308.785
308.841
308.881
308.901
308.901
308.881
308.841
308.785
308.716
308.639
308.556
308.471
308.392
308.331
305.001
305.037
305.085
305.135
305.185
305.232
305.273
305.307
305.331
305.343
305.343
305.331
305.307
305.273
305.232
305.185
305.135
305.085
305.037
305.001
301.676
301.688
301.704
301.721
301.738
301.753
301.767
301.778
301.786
301.79
301.79
301.786
301.778
301.767
301.753
301.738
301.721
301.704
301.688
301.676
326.057
326.24
326.464
326.695
326.922
327.133
327.319
327.469
327.576
327.631
327.631
327.576
327.469
327.319
327.133
326.922
326.695
326.464
326.24
326.057
322.527
322.681
322.874
323.075
323.271
323.454
323.616
323.746
323.838
323.886
323.886
323.838
323.746
323.616
323.454
323.271
323.075
322.874
322.681
322.527
319.022
319.15
319.312
319.482
319.648
319.803
319.94
320.05
320.128
320.168
320.168
320.128
320.05
319.94
319.803
319.648
319.482
319.312
319.15
319.022
315.538
315.641
315.774
315.912
316.048
316.175
316.287
316.377
316.441
316.474
316.474
316.441
316.377
316.287
316.175
316.048
315.912
315.774
315.641
315.538
312.071
312.15
312.253
312.361
312.467
312.565
312.652
312.723
312.772
312.798
312.798
312.772
312.723
312.652
312.565
312.467
312.361
312.253
312.15
312.071
308.617
308.673
308.746
308.824
308.899
308.97
309.032
309.082
309.117
309.136
309.136
309.117
309.082
309.032
308.97
308.899
308.824
308.746
308.673
308.617
305.172
305.206
305.25
305.296
305.342
305.384
305.421
305.451
305.473
305.484
305.484
305.473
305.451
305.421
305.384
305.342
305.296
305.25
305.206
305.172
301.733
301.744
301.759
301.775
301.79
301.804
301.817
301.827
301.834
301.838
301.838
301.834
301.827
301.817
301.804
301.79
301.775
301.759
301.744
301.733
327.004
327.172
327.377
327.589
327.795
327.986
328.153
328.288
328.383
328.432
328.432
328.383
328.288
328.153
327.986
327.795
327.589
327.377
327.172
327.004
323.343
323.485
323.662
323.846
324.024
324.19
324.335
324.451
324.534
324.576
324.576
324.534
324.451
324.335
324.19
324.024
323.846
323.662
323.485
323.343
319.709
319.827
319.976
320.132
320.283
320.423
320.545
320.644
320.714
320.75
320.75
320.714
320.644
320.545
320.423
320.283
320.132
319.976
319.827
319.709
316.098
316.193
316.315
316.442
316.565
316.68
316.781
316.862
316.919
316.948
316.948
316.919
316.862
316.781
316.68
316.565
316.442
316.315
316.193
316.098
312.505
312.578
312.673
312.772
312.868
312.957
313.035
313.098
313.143
313.165
313.165
313.143
313.098
313.035
312.957
312.868
312.772
312.673
312.578
312.505
308.927
308.979
309.046
309.116
309.185
309.249
309.305
309.35
309.382
309.398
309.398
309.382
309.35
309.305
309.249
309.185
309.116
309.046
308.979
308.927
305.358
305.389
305.429
305.472
305.513
305.551
305.585
305.612
305.631
305.641
305.641
305.631
305.612
305.585
305.551
305.513
305.472
305.429
305.389
305.358
301.795
301.806
301.819
301.833
301.847
301.86
301.871
301.881
301.887
301.89
301.89
301.887
301.881
301.871
301.86
301.847
301.833
301.819
301.806
301.795
328.02
328.175
328.363
328.556
328.743
328.915
329.065
329.186
329.271
329.315
329.315
329.271
329.186
329.065
328.915
328.743
328.556
328.363
328.175
328.02
324.219
324.35
324.512
324.679
324.841
324.99
325.121
325.225
325.299
325.337
325.337
325.299
325.225
325.121
324.99
324.841
324.679
324.512
324.35
324.219
320.446
320.555
320.692
320.833
320.97
321.097
321.207
321.296
321.358
321.39
321.39
321.358
321.296
321.207
321.097
320.97
320.833
320.692
320.555
320.446
316.699
316.786
316.898
317.014
317.126
317.229
317.32
317.392
317.443
317.469
317.469
317.443
317.392
317.32
317.229
317.126
317.014
316.898
316.786
316.699
312.971
313.038
313.125
313.215
313.302
313.383
313.453
313.51
313.549
313.57
313.57
313.549
313.51
313.453
313.383
313.302
313.215
313.125
313.038
312.971
309.259
309.306
309.368
309.432
309.495
309.552
309.603
309.643
309.671
309.686
309.686
309.671
309.643
309.603
309.552
309.495
309.432
309.368
309.306
309.259
305.557
305.586
305.623
305.661
305.699
305.733
305.764
305.788
305.805
305.814
305.814
305.805
305.788
305.764
305.733
305.699
305.661
305.623
305.586
305.557
301.862
301.872
301.884
301.897
301.91
301.921
301.931
301.939
301.945
301.948
301.948
301.945
301.939
301.931
301.921
301.91
301.897
301.884
301.872
301.862
329.097
329.24
329.412
329.588
329.757
329.912
330.047
330.155
330.231
330.27
330.27
330.231
330.155
330.047
329.912
329.757
329.588
329.412
329.24
329.097
325.145
325.265
325.414
325.566
325.713
325.848
325.965
326.059
326.124
326.158
326.158
326.124
326.059
325.965
325.848
325.713
325.566
325.414
325.265
325.145
321.225
321.325
321.45
321.579
321.703
321.818
321.917
321.996
322.052
322.08
322.08
322.052
321.996
321.917
321.818
321.703
321.579
321.45
321.325
321.225
317.332
317.413
317.515
317.62
317.722
317.816
317.897
317.962
318.007
318.031
318.031
318.007
317.962
317.897
317.816
317.722
317.62
317.515
317.413
317.332
313.462
313.524
313.603
313.685
313.764
313.837
313.9
313.951
313.986
314.004
314.004
313.986
313.951
313.9
313.837
313.764
313.685
313.603
313.524
313.462
309.608
309.652
309.708
309.767
309.824
309.876
309.921
309.957
309.982
309.995
309.995
309.982
309.957
309.921
309.876
309.824
309.767
309.708
309.652
309.608
305.767
305.793
305.827
305.862
305.896
305.927
305.954
305.976
305.991
305.999
305.999
305.991
305.976
305.954
305.927
305.896
305.862
305.827
305.793
305.767
301.932
301.941
301.952
301.964
301.976
301.986
301.995
302.002
302.007
302.01
302.01
302.007
302.002
301.995
301.986
301.976
301.964
301.952
301.941
301.932
330.208
330.339
330.496
330.657
330.81
330.951
331.072
331.169
331.237
331.272
331.272
331.237
331.169
331.072
330.951
330.81
330.657
330.496
330.339
330.208
326.095
326.206
326.343
326.482
326.615
326.737
326.842
326.926
326.985
327.015
327.015
326.985
326.926
326.842
326.737
326.615
326.482
326.343
326.206
326.095
322.021
322.113
322.228
322.345
322.458
322.562
322.651
322.722
322.772
322.798
322.798
322.772
322.722
322.651
322.562
322.458
322.345
322.228
322.113
322.021
317.977
318.052
318.145
318.242
318.334
318.419
318.492
318.55
318.591
318.612
318.612
318.591
318.55
318.492
318.419
318.334
318.242
318.145
318.052
317.977
313.96
314.017
314.089
314.164
314.236
314.302
314.359
314.405
314.437
314.453
314.453
314.437
314.405
314.359
314.302
314.236
314.164
314.089
314.017
313.96
309.962
310.002
310.054
310.108
310.159
310.206
310.247
310.28
310.302
310.314
310.314
310.302
310.28
310.247
310.206
310.159
310.108
310.054
310.002
309.962
305.978
306.002
306.033
306.066
306.097
306.125
306.149
306.169
306.183
306.19
306.19
306.183
306.169
306.149
306.125
306.097
306.066
306.033
306.002
305.978
302.003
302.011
302.022
302.032
302.043
302.052
302.06
302.067
302.072
302.074
302.074
302.072
302.067
302.06
302.052
302.043
302.032
302.022
302.011
302.003
331.281
331.402
331.547
331.695
331.835
331.963
332.074
332.161
332.222
332.254
332.254
332.222
332.161
332.074
331.963
331.835
331.695
331.547
331.402
331.281
327.003
327.106
327.232
327.359
327.482
327.593
327.689
327.765
327.818
327.845
327.845
327.818
327.765
327.689
327.593
327.482
327.359
327.232
327.106
327.003
322.772
322.858
322.964
323.072
323.176
323.27
323.352
323.416
323.461
323.484
323.484
323.461
323.416
323.352
323.27
323.176
323.072
322.964
322.858
322.772
318.581
318.65
318.737
318.825
318.91
318.988
319.055
319.108
319.145
319.164
319.164
319.145
319.108
319.055
318.988
318.91
318.825
318.737
318.65
318.581
314.422
314.475
314.543
314.612
314.678
314.738
314.79
314.832
314.86
314.875
314.875
314.86
314.832
314.79
314.738
314.678
314.612
314.543
314.475
314.422
310.289
310.326
310.374
310.424
310.471
310.514
310.551
310.581
310.602
310.612
310.612
310.602
310.581
310.551
310.514
310.471
310.424
310.374
310.326
310.289
306.173
306.195
306.224
306.254
306.282
306.308
306.331
306.349
306.361
306.367
306.367
306.361
306.349
306.331
306.308
306.282
306.254
306.224
306.195
306.173
302.068
302.076
302.085
302.095
302.105
302.113
302.121
302.127
302.131
302.133
302.133
302.131
302.127
302.121
302.113
302.105
302.095
302.085
302.076
302.068
332.128
332.242
332.379
332.517
332.649
332.768
332.871
332.952
333.009
333.038
333.038
333.009
332.952
332.871
332.768
332.649
332.517
332.379
332.242
332.128
327.692
327.789
327.908
328.028
328.143
328.247
328.337
328.408
328.457
328.482
328.482
328.457
328.408
328.337
328.247
328.143
328.028
327.908
327.789
327.692
323.325
323.406
323.506
323.609
323.706
323.795
323.871
323.931
323.973
323.995
323.995
323.973
323.931
323.871
323.795
323.706
323.609
323.506
323.406
323.325
319.014
319.079
319.161
319.245
319.326
319.398
319.461
319.511
319.545
319.563
319.563
319.545
319.511
319.461
319.398
319.326
319.245
319.161
319.079
319.014
314.748
314.798
314.862
314.927
314.99
315.047
315.096
315.134
315.161
315.175
315.175
315.161
315.134
315.096
315.047
314.99
314.927
314.862
314.798
314.748
310.516
310.551
310.597
310.644
310.688
310.729
310.764
310.792
310.811
310.821
310.821
310.811
310.792
310.764
310.729
310.688
310.644
310.597
310.551
310.516
306.307
306.328
306.356
306.384
306.411
306.435
306.456
306.473
306.485
306.491
306.491
306.485
306.473
306.456
306.435
306.411
306.384
306.356
306.328
306.307
302.113
302.12
302.129
302.138
302.147
302.156
302.163
302.168
302.172
302.174
302.174
302.172
302.168
302.163
302.156
302.147
302.138
302.129
302.12
302.113
)
;

boundaryField
{
    hotSide
    {
        type            fixedGradient;
        gradient        nonuniform List<scalar> 
400
(
218.998
219.681
221.049
223.112
225.877
229.359
233.571
238.53
244.252
250.752
258.048
266.154
275.083
284.848
295.46
306.928
319.259
332.46
346.536
361.491
223.484
224.131
225.431
227.391
230.027
233.354
237.392
242.162
247.684
253.979
261.068
268.968
277.696
287.266
297.692
308.983
321.148
334.194
348.125
362.946
228.339
228.944
230.16
232
234.482
237.628
241.462
246.012
251.304
257.365
264.218
271.886
280.39
289.745
299.966
311.066
323.052
335.931
349.71
364.39
233.483
234.039
235.158
236.858
239.163
242.1
245.702
250.003
255.037
260.835
267.429
274.844
283.103
292.227
302.231
313.127
324.925
337.632
351.253
365.789
238.771
239.271
240.282
241.826
243.933
246.639
249.986
254.015
258.768
264.285
270.602
277.749
285.754
294.637
304.417
315.106
326.714
339.248
352.711
367.104
243.984
244.424
245.319
246.697
248.594
251.056
254.135
257.881
262.346
267.575
273.61
280.488
288.237
296.883
306.443
316.931
328.355
340.723
354.036
368.295
248.822
249.203
249.983
251.194
252.884
255.107
257.923
261.395
265.58
270.533
276.301
282.925
290.437
298.862
308.219
318.523
329.781
341.998
355.177
369.316
252.929
253.256
253.931
254.994
256.498
258.507
261.092
264.322
268.263
272.976
278.514
284.92
292.228
300.466
309.654
319.803
330.923
343.017
356.085
370.125
255.934
256.22
256.816
257.765
259.127
260.975
263.384
266.432
270.191
274.726
280.093
286.338
293.498
301.6
310.664
320.702
331.722
343.727
356.717
370.688
257.526
257.79
258.342
259.23
260.516
262.275
264.59
267.54
271.2
275.64
280.916
287.076
294.157
302.187
311.186
321.166
332.134
344.093
357.041
370.976
257.526
257.79
258.342
259.23
260.516
262.275
264.59
267.54
271.2
275.64
280.916
287.076
294.157
302.187
311.186
321.166
332.134
344.093
357.041
370.976
255.934
256.22
256.816
257.765
259.127
260.975
263.384
266.432
270.191
274.726
280.093
286.338
293.498
301.6
310.664
320.702
331.722
343.727
356.717
370.688
252.929
253.256
253.931
254.994
256.498
258.507
261.092
264.322
268.263
272.976
278.514
284.92
292.228
300.466
309.654
319.803
330.923
343.017
356.085
370.125
248.822
249.203
249.983
251.194
252.884
255.107
257.923
261.395
265.58
270.533
276.301
282.925
290.437
298.862
308.219
318.523
329.781
341.998
355.177
369.316
243.984
244.424
245.319
246.697
248.594
251.056
254.135
257.881
262.346
267.575
273.61
280.488
288.237
296.883
306.443
316.931
328.355
340.723
354.036
368.295
238.771
239.271
240.282
241.826
243.933
246.639
249.986
254.015
258.768
264.285
270.602
277.749
285.754
294.637
304.417
315.106
326.714
339.248
352.711
367.104
233.483
234.039
235.158
236.858
239.163
242.1
245.702
250.003
255.037
260.835
267.429
274.844
283.103
292.227
302.231
313.127
324.925
337.632
351.253
365.789
228.339
228.944
230.16
232
234.482
237.628
241.462
246.012
251.304
257.365
264.218
271.886
280.39
289.745
299.966
311.066
323.052
335.931
349.71
364.39
223.484
224.131
225.431
227.391
230.027
233.354
237.392
242.162
247.684
253.979
261.068
268.968
277.696
287.266
297.692
308.983
321.148
334.194
348.125
362.946
218.998
219.681
221.049
223.112
225.877
229.359
233.571
238.53
244.252
250.752
258.048
266.154
275.083
284.848
295.46
306.928
319.259
332.46
346.536
361.491
)
;
    }
    coldSide
    {
        type            mixed;
        refValue        uniform 300;
        refGradient     uniform 0;
        valueFraction   uniform 0.991591;
        source          uniform 0;
        value           nonuniform List<scalar> 
400
(
300.011
300.011
300.011
300.012
300.012
300.012
300.012
300.012
300.013
300.013
300.013
300.014
300.014
300.015
300.015
300.016
300.016
300.017
300.017
300.018
300.012
300.012
300.012
300.012
300.012
300.012
300.012
300.012
300.013
300.013
300.013
300.014
300.014