/*--------------------------------*- C++ -*----------------------------------*\
| =========                 |                                                 |
| \\      /  F ield         | OpenFOAM: The Open Source CFD Toolbox           |
|  \\    /   O peration     | Version:  2212                                  |
|   \\  /    A nd           | Website:  www.openfoam.com                      |
|    \\/     M anipulation  |                                                 |
\*---------------------------------------------------------------------------*/
FoamFile
{
    version     2.0;
    format      ascii;
    arch        "LSB;label=32;scalar=64";
    class       volScalarField;
    location    "0";
    object      Tdirect;
}
// * * * * * * * * * * * * * * * * * * * * * * * * * * * * * * * * * * * * * //

dimensions      [0 0 0 1 0 0 0];

internalField   nonuniform List<scalar> 
3200
(
332.477
332.777
333.159
333.576
334.005
334.426
334.814
335.143
335.382
335.508
335.508
335.382
335.143
334.814
334.426
334.005
333.576
333.159
332.777
332.477
328.043
328.296
328.626
328.986
329.357
329.722
330.058
330.341
330.548
330.657
330.657
330.548
330.341
330.058
329.722
329.357
328.986
328.626
328.296
328.043
323.654
323.864
324.142
324.446
324.76
325.068
325.351
325.591
325.765
325.857
325.857
325.765
325.591
325.351
325.068
324.76
324.446
324.142
323.864
323.654
319.303
319.473
319.699
319.948
320.204
320.456
320.688
320.883
321.025
321.1
321.1
321.025
320.883
320.688
320.456
320.204
319.948
319.699
319.473
319.303
314.985
315.115
315.29
315.484
315.683
315.878
316.058
316.21
316.321
316.379
316.379
316.321
316.21
316.058
315.878
315.683
315.484
315.29
315.115
314.985
310.691
310.783
310.908
311.046
311.188
311.328
311.457
311.565
311.644
311.685
311.685
311.644
311.565
311.457
311.328
311.188
311.046
310.908
310.783
310.691
306.415
306.47
306.545
306.628
306.713
306.797
306.874
306.939
306.986
307.011
307.011
306.986
306.939
306.874
306.797
306.713
306.628
306.545
306.47
306.415
302.149
302.167
302.193
302.22
302.249
302.277
302.303
302.325
302.341
302.349
302.349
302.341
302.325
302.303
302.277
302.249
302.22
302.193
302.167
302.149
332.601
332.898
333.277
333.69
334.114
334.531
334.915
335.239
335.475
335.599
335.599
335.475
335.239
334.915
334.531
334.114
333.69
333.277
332.898
332.601
328.149
328.4
328.727
329.084
329.452
329.812
330.144
330.424
330.628
330.736
330.736
330.628
330.424
330.144
329.812
329.452
329.084
328.727
328.4
328.149
323.743
323.952
324.227
324.529
324.839
325.144
325.424
325.661
325.832
325.923
325.923
325.832
325.661
325.424
325.144
324.839
324.529
324.227
323.952
323.743
319.376
319.544
319.769
320.015
320.269
320.518
320.747
320.94
321.08
321.154
321.154
321.08
320.94
320.747
320.518
320.269
320.015
319.769
319.544
319.376
315.041
315.17
315.344
315.536
315.733
315.927
316.104
316.254
316.363
316.421
316.421
316.363
316.254
316.104
315.927
315.733
315.536
315.344
315.17
315.041
310.731
310.822
310.947
311.083
311.224
311.362
311.489
311.596
311.674
311.715
311.715
311.674
311.596
311.489
311.362
311.224
311.083
310.947
310.822
310.731
306.439
306.493
306.568
306.65
306.734
306.817
306.894
306.958
307.004
307.029
307.029
307.004
306.958
306.894
306.817
306.734
306.65
306.568
306.493
306.439
302.157
302.175
302.2
302.228
302.256
302.284
302.31
302.331
302.347
302.355
302.355
302.347
302.331
302.31
302.284
302.256
302.228
302.2
302.175
302.157
332.848
333.141
333.513
333.918
334.334
334.742
335.117
335.433
335.663
335.785
335.785
335.663
335.433
335.117
334.742
334.334
333.918
333.513
333.141
332.848
328.362
328.61
328.931
329.281
329.641
329.994
330.318
330.592
330.79
330.895
330.895
330.79
330.592
330.318
329.994
329.641
329.281
328.931
328.61
328.362
323.922
324.128
324.398
324.695
324.999
325.297
325.571
325.801
325.969
326.057
326.057
325.969
325.801
325.571
325.297
324.999
324.695
324.398
324.128
323.922
319.522
319.688
319.908
320.15
320.399
320.642
320.866
321.055
321.191
321.264
321.264
321.191
321.055
320.866
320.642
320.399
320.15
319.908
319.688
319.522
315.155
315.281
315.453
315.641
315.834
316.023
316.197
316.343
316.45
316.506
316.506
316.45
316.343
316.197
316.023
315.834
315.641
315.453
315.281
315.155
310.812
310.902
311.024
311.158
311.296
311.431
311.555
311.66
311.736
311.775
311.775
311.736
311.66
311.555
311.431
311.296
311.158
311.024
310.902
310.812
306.487
306.541
306.614
306.695
306.778
306.859
306.933
306.996
307.041
307.065
307.065
307.041
306.996
306.933
306.859
306.778
306.695
306.614
306.541
306.487
302.173
302.191
302.216
302.243
302.271
302.298
302.323
302.344
302.359
302.367
302.367
302.359
302.344
302.323
302.298
302.271
302.243
302.216
302.191
302.173
333.22
333.506
333.869
334.263
334.667
335.061
335.424
335.728
335.95
336.066
336.066
335.95
335.728
335.424
335.061
334.667
334.263
333.869
333.506
333.22
328.682
328.924
329.237
329.578
329.928
330.269
330.583
330.846
331.037
331.138
331.138
331.037
330.846
330.583
330.269
329.928
329.578
329.237
328.924
328.682
324.192
324.393
324.656
324.945
325.24
325.528
325.793
326.015
326.177
326.262
326.262
326.177
326.015
325.793
325.528
325.24
324.945
324.656
324.393
324.192
319.742
319.903
320.118
320.354
320.595
320.831
321.047
321.229
321.361
321.43
321.43
321.361
321.229
321.047
320.831
320.595
320.354
320.118
319.903
319.742
315.325
315.449
315.616
315.798
315.986
316.169
316.338
316.479
316.581
316.635
316.635
316.581
316.479
316.338
316.169
315.986
315.798
315.616
315.449
315.325
310.933
311.021
311.14
311.271
311.405
311.535
311.655
311.756
311.829
311.868
311.868
311.829
311.756
311.655
311.535
311.405
311.271
311.14
311.021
310.933
306.56
306.612
306.684
306.762
306.843
306.921
306.993
307.054
307.097
307.121
307.121
307.097
307.054
306.993
306.921
306.843
306.762
306.684
306.612
306.56
302.198
302.215
302.239
302.265
302.292
302.319
302.343
302.363
302.378
302.386
302.386
302.378
302.363
302.343
302.319
302.292
302.265
302.239
302.215
302.198
333.718
333.994
334.346
334.725
335.114
335.492
335.838
336.129
336.339
336.45
336.45
336.339
336.129
335.838
335.492
335.114
334.725
334.346
333.994
333.718
329.111
329.345
329.648
329.977
330.313
330.64
330.94
331.191
331.373
331.468
331.468
331.373
331.191
330.94
330.64
330.313
329.977
329.648
329.345
329.111
324.553
324.747
325.002
325.28
325.564
325.841
326.094
326.306
326.459
326.54
326.54
326.459
326.306
326.094
325.841
325.564
325.28
325.002
324.747
324.553
320.036
320.192
320.4
320.627
320.859
321.085
321.292
321.466
321.591
321.657
321.657
321.591
321.466
321.292
321.085
320.859
320.627
320.4
320.192
320.036
315.552
315.673
315.834
316.01
316.191
316.367
316.527
316.662
316.759
316.811
316.811
316.759
316.662
316.527
316.367
316.191
316.01
315.834
315.673
315.552
311.095
311.18
311.295
311.422
311.55
311.676
311.791
311.887
311.956
311.993
311.993
311.956
311.887
311.791
311.676
311.55
311.422
311.295
311.18
311.095
306.657
306.708
306.777
306.853
306.93
307.005
307.074
307.132
307.174
307.196
307.196
307.174
307.132
307.074
307.005
306.93
306.853
306.777
306.708
306.657
302.23
302.247
302.27
302.296
302.322
302.347
302.37
302.389
302.403
302.411
302.411
302.403
302.389
302.37
302.347
302.322
302.296
302.27
302.247
302.23
334.341
334.608
334.945
335.308
335.678
336.037
336.365
336.639
336.837
336.941
336.941
336.837
336.639
336.365
336.037
335.678
335.308
334.945
334.608
334.341
329.648
329.874
330.164
330.479
330.799
331.11
331.393
331.63
331.802
331.892
331.892
331.802
331.63
331.393
331.11
330.799
330.479
330.164
329.874
329.648
325.005
325.192
325.437
325.703
325.973
326.236
326.476
326.676
326.82
326.896
326.896
326.82
326.676
326.476
326.236
325.973
325.703
325.437
325.192
325.005
320.404
320.555
320.754
320.971
321.193
321.408
321.603
321.767
321.885
321.947
321.947
321.885
321.767
321.603
321.408
321.193
320.971
320.754
320.555
320.404
315.838
315.954
316.108
316.277
316.449
316.616
316.769
316.896
316.987
317.036
317.036
316.987
316.896
316.769
316.616
316.449
316.277
316.108
315.954
315.838
311.299
311.381
311.491
311.612
311.735
311.854
311.963
312.053
312.119
312.153
312.153
312.119
312.053
311.963
311.854
311.735
311.612
311.491
311.381
311.299
306.779
306.828
306.894
306.967
307.041
307.112
307.177
307.232
307.271
307.292
307.292
307.271
307.232
307.177
307.112
307.041
306.967
306.894
306.828
306.779
302.271
302.288
302.31
302.334
302.359
302.383
302.405
302.423
302.436
302.443
302.443
302.436
302.423
302.405
302.383
302.359
302.334
302.31
302.288
302.271
335.093
335.348
335.669
336.014
336.363
336.701
337.008
337.264
337.449
337.546
337.546
337.449
337.264
337.008
336.701
336.363
336.014
335.669
335.348
335.093
330.295
330.511
330.788
331.086
331.389
331.682
331.948
332.169
332.329
332.413
332.413
332.329
332.169
331.948
331.682
331.389
331.086
330.788
330.511
330.295
325.55
325.728
325.962
326.214
326.47
326.717
326.942
327.129
327.264
327.335
327.335
327.264
327.129
326.942
326.717
326.47
326.214
325.962
325.728
325.55
320.848
320.992
321.182
321.388
321.598
321.8
321.984
322.136
322.247
322.304
322.304
322.247
322.136
321.984
321.8
321.598
321.388
321.182
320.992
320.848
316.182
316.293
316.44
316.6
316.763
316.92
317.063
317.182
317.268
317.313
317.313
317.268
317.182
317.063
316.92
316.763
316.6
316.44
316.293
316.182
311.544
311.622
311.728
311.842
311.958
312.071
312.173
312.257
312.319
312.351
312.351
312.319
312.257
312.173
312.071
311.958
311.842
311.728
311.622
311.544
306.926
306.973
307.036
307.105
307.175
307.242
307.303
307.354
307.391
307.41
307.41
307.391
307.354
307.303
307.242
307.175
307.105
307.036
306.973
306.926
302.32
302.336
302.357
302.38
302.404
302.426
302.447
302.464
302.476
302.483
302.483
302.476
302.464
302.447
302.426
302.404
302.38
302.357
302.336
302.32
335.974
336.215
336.519
336.844
337.172
337.488
337.774
338.011
338.181
338.271
338.271
338.181
338.011
337.774
337.488
337.172
336.844
336.519
336.215
335.974
331.054
331.259
331.521
331.802
332.086
332.36
332.607
332.812
332.96
333.037
333.037
332.96
332.812
332.607
332.36
332.086
331.802
331.521
331.259
331.054
326.188
326.358
326.579
326.817
327.057
327.288
327.497
327.671
327.795
327.86
327.86
327.795
327.671
327.497
327.288
327.057
326.817
326.579
326.358
326.188
321.368
321.505
321.685
321.879
322.076
322.265
322.436
322.577
322.679
322.733
322.733
322.679
322.577
322.436
322.265
322.076
321.879
321.685
321.505
321.368
316.585
316.69
316.83
316.981
317.134
317.281
317.414
317.524
317.603
317.644
317.644
317.603
317.524
317.414
317.281
317.134
316.981
316.83
316.69
316.585
311.832
311.906
312.006
312.113
312.223
312.328
312.422
312.501
312.558
312.587
312.587
312.558
312.501
312.422
312.328
312.223
312.113
312.006
311.906
311.832
307.099
307.143
307.203
307.268
307.333
307.396
307.453
307.5
307.534
307.552
307.552
307.534
307.5
307.453
307.396
307.333
307.268
307.203
307.143
307.099
302.378
302.393
302.413
302.435
302.457
302.478
302.497
302.513
302.524
302.53
302.53
302.524
302.513
302.497
302.478
302.457
302.435
302.413
302.393
302.378
336.985
337.213
337.499
337.803
338.109
338.402
338.665
338.883
339.04
339.121
339.121
339.04
338.883
338.665
338.402
338.109
337.803
337.499
337.213
336.985
331.925
332.118
332.365
332.629
332.893
333.147
333.375
333.564
333.699
333.77
333.77
333.699
333.564
333.375
333.147
332.893
332.629
332.365
332.118
331.925
326.921
327.082
327.29
327.512
327.736
327.951
328.144
328.303
328.418
328.477
328.477
328.418
328.303
328.144
327.951
327.736
327.512
327.29
327.082
326.921
321.965
322.095
322.264
322.446
322.629
322.805
322.962
323.093
323.186
323.235
323.235
323.186
323.093
322.962
322.805
322.629
322.446
322.264
322.095
321.965
317.048
317.148
317.279
317.421
317.563
317.699
317.822
317.923
317.996
318.034
318.034
317.996
317.923
317.822
317.699
317.563
317.421
317.279
317.148
317.048
312.162
312.232
312.326
312.427
312.528
312.626
312.713
312.786
312.838
312.865
312.865
312.838
312.786
312.713
312.626
312.528
312.427
312.326
312.232
312.162
307.297
307.338
307.395
307.455
307.516
307.575
307.628
307.671
307.702
307.718
307.718
307.702
307.671
307.628
307.575
307.516
307.455
307.395
307.338
307.297
302.444
302.458
302.477
302.498
302.518
302.538
302.555
302.57
302.58
302.586
302.586
302.58
302.57
302.555
302.538
302.518
302.498
302.477
302.458
302.444
338.128
338.342
338.61
338.893
339.176
339.446
339.688
339.887
340.029
340.103
340.103
340.029
339.887
339.688
339.446
339.176
338.893
338.61
338.342
338.128
332.91
333.091
333.322
333.567
333.813
334.046
334.256
334.428
334.551
334.616
334.616
334.551
334.428
334.256
334.046
333.813
333.567
333.322
333.091
332.91
327.75
327.901
328.096
328.303
328.51
328.708
328.885
329.031
329.135
329.189
329.189
329.135
329.031
328.885
328.708
328.51
328.303
328.096
327.901
327.75
322.641
322.762
322.921
323.09
323.26
323.422
323.566
323.686
323.771
323.815
323.815
323.771
323.686
323.566
323.422
323.26
323.09
322.921
322.762
322.641
317.572
317.665
317.788
317.92
318.052
318.178
318.29
318.383
318.449
318.484
318.484
318.449
318.383
318.29
318.178
318.052
317.92
317.788
317.665
317.572
312.535
312.601
312.688
312.783
312.877
312.967
313.047
313.113
313.161
313.185
313.185
313.161
313.113
313.047
312.967
312.877
312.783
312.688
312.601
312.535
307.52
307.56
307.612
307.669
307.725
307.779
307.828
307.867
307.896
307.911
307.911
307.896
307.867
307.828
307.779
307.725
307.669
307.612
307.56
307.52
302.519
302.533
302.55
302.569
302.588
302.606
302.622
302.636
302.645
302.65
302.65
302.645
302.636
302.622
302.606
302.588
302.569
302.55
302.533
302.519
339.404
339.605
339.854
340.116
340.377
340.624
340.844
341.025
341.154
341.221
341.221
341.154
341.025
340.844
340.624
340.377
340.116
339.854
339.605
339.404
334.009
334.179
334.394
334.621
334.847
335.061
335.252
335.409
335.52
335.579
335.579
335.52
335.409
335.252
335.061
334.847
334.621
334.394
334.179
334.009
328.676
328.817
328.998
329.19
329.381
329.562
329.724
329.856
329.951
330
330
329.951
329.856
329.724
329.562
329.381
329.19
328.998
328.817
328.676
323.395
323.508
323.656
323.813
323.97
324.118
324.25
324.358
324.435
324.476
324.476
324.435
324.358
324.25
324.118
323.97
323.813
323.656
323.508
323.395
318.157
318.244
318.358
318.481
318.602
318.717
318.82
318.904
318.964
318.996
318.996
318.964
318.904
318.82
318.717
318.602
318.481
318.358
318.244
318.157
312.952
313.013
313.095
313.182
313.269
313.351
313.425
313.485
313.528
313.55
313.55
313.528
313.485
313.425
313.351
313.269
313.182
313.095
313.013
312.952
307.77
307.807
307.856
307.908
307.961
308.01
308.054
308.09
308.116
308.129
308.129
308.116
308.09
308.054
308.01
307.961
307.908
307.856
307.807
307.77
302.603
302.615
302.632
302.649
302.667
302.683
302.698
302.71
302.719
302.723
302.723
302.719
302.71
302.698
302.683
302.667
302.649
302.632
302.615
302.603
340.814
341.001
341.232
341.474
341.713
341.939
342.139
342.302
342.419
342.479
342.479
342.419
342.302
342.139
341.939
341.713
341.474
341.232
341.001
340.814
335.224
335.383
335.582
335.791
335.999
336.194
336.367
336.509
336.61
336.662
336.662
336.61
336.509
336.367
336.194
335.999
335.791
335.582
335.383
335.224
329.699
329.83
329.998
330.175
330.351
330.516
330.663
330.783
330.868
330.912
330.912
330.868
330.783
330.663
330.516
330.351
330.175
329.998
329.83
329.699
324.229
324.334
324.471
324.616
324.76
324.895
325.015
325.113
325.182
325.219
325.219
325.182
325.113
325.015
324.895
324.76
324.616
324.471
324.334
324.229
318.803
318.884
318.99
319.103
319.215
319.32
319.413
319.489
319.543
319.572
319.572
319.543
319.489
319.413
319.32
319.215
319.103
318.99
318.884
318.803
313.412
313.47
313.545
313.626
313.706
313.781
313.847
313.902
313.941
313.961
313.961
313.941
313.902
313.847
313.781
313.706
313.626
313.545
313.47
313.412
308.046
308.081
308.126
308.174
308.222
308.267
308.308
308.34
308.363
308.376
308.376
308.363
308.34
308.308
308.267
308.222
308.174
308.126
308.081
308.046
302.696
302.707
302.722
302.738
302.754
302.77
302.783
302.794
302.802
302.806
302.806
302.802
302.794
302.783
302.77
302.754
302.738
302.722
302.707
302.696
342.36
342.534
342.747
342.969
343.187
343.392
343.573
343.72
343.825
343.879
343.879
343.825
343.72
343.573
343.392
343.187
342.969
342.747
342.534
342.36
336.556
336.703
336.887
337.079
337.269
337.446
337.603
337.731
337.821
337.868
337.868
337.821
337.731
337.603
337.446
337.269
337.079
336.887
336.703
336.556
330.82
330.942
331.097
331.26
331.42
331.57
331.703
331.811
331.887
331.927
331.927
331.887
331.811
331.703
331.57
331.42
331.26
331.097
330.942
330.82
325.142
325.24
325.366
325.5
325.631
325.754
325.862
325.951
326.013
326.046
326.046
326.013
325.951
325.862
325.754
325.631
325.5
325.366
325.24
325.142
319.511
319.586
319.684
319.788
319.89
319.986
320.07
320.139
320.187
320.213
320.213
320.187
320.139
320.07
319.986
319.89
319.788
319.684
319.586
319.511
313.917
313.97
314.04
314.114
314.187
314.255
314.316
314.365
314.4
314.418
314.418
314.4
314.365
314.316
314.255
314.187
314.114
314.04
313.97
313.917
308.349
308.381
308.423
308.467
308.511
308.552
308.588
308.618
308.639
308.65
308.65
308.639
308.618
308.588
308.552
308.511
308.467
308.423
308.381
308.349
302.797
302.808
302.822
302.836
302.851
302.865
302.877
302.887
302.894
302.898
302.898
302.894
302.887
302.877
302.865
302.851
302.836
302.822
302.808
302.797
344.041
344.201
344.397
344.601
344.8
344.985
345.148
345.281
345.374
345.422
345.422
345.374
345.281
345.148
344.985
344.8
344.601
344.397
344.201
344.041
338.004
338.14
338.309
338.485
338.658
338.818
338.96
339.074
339.155
339.197
339.197
339.155
339.074
338.96
338.818
338.658
338.485
338.309
338.14
338.004
332.039
332.151
332.294
332.443
332.589
332.725
332.845
332.942
333.01
333.046
333.046
333.01
332.942
332.845
332.725
332.589
332.443
332.294
332.151
332.039
326.135
326.226
326.342
326.464
326.583
326.695
326.793
326.872
326.928
326.957
326.957
326.928
326.872
326.793
326.695
326.583
326.464
326.342
326.226
326.135
320.281
320.35
320.441
320.536
320.629
320.715
320.791
320.853
320.897
320.919
320.919
320.897
320.853
320.791
320.715
320.629
320.536
320.441
320.35
320.281
314.466
314.515
314.579
314.647
314.713
314.775
314.83
314.874
314.905
314.921
314.921
314.905
314.874
314.83
314.775
314.713
314.647
314.579
314.515
314.466
308.678
308.707
308.746
308.787
308.827
308.864
308.897
308.923
308.942
308.951
308.951
308.942
308.923
308.897
308.864
308.827
308.787
308.746
308.707
308.678
302.907
302.917
302.93
302.944
302.957
302.969
302.98
302.989
302.995
302.999
302.999
302.995
302.989
302.98
302.969
302.957
302.944
302.93
302.917
302.907
345.854
346.002
346.182
346.368
346.549
346.716
346.863
346.981
347.065
347.108
347.108
347.065
346.981
346.863
346.716
346.549
346.368
346.182
346.002
345.854
339.566
339.691
339.846
340.007
340.164
340.309
340.436
340.539
340.611
340.649
340.649
340.611
340.539
340.436
340.309
340.164
340.007
339.846
339.691
339.566
333.353
333.457
333.588
333.724
333.857
333.98
334.088
334.175
334.236
334.267
334.267
334.236
334.175
334.088
333.98
333.857
333.724
333.588
333.457
333.353
327.206
327.289
327.396
327.508
327.616
327.717
327.805
327.876
327.926
327.952
327.952
327.926
327.876
327.805
327.717
327.616
327.508
327.396
327.289
327.206
321.111
321.175
321.258
321.345
321.429
321.507
321.576
321.631
321.67
321.69
321.69
321.67
321.631
321.576
321.507
321.429
321.345
321.258
321.175
321.111
315.057
315.102
315.162
315.223
315.284
315.34
315.389
315.428
315.456
315.471
315.471
315.456
315.428
315.389
315.34
315.284
315.223
315.162
315.102
315.057
309.033
309.06
309.095
309.132
309.169
309.202
309.232
309.256
309.272
309.281
309.281
309.272
309.256
309.232
309.202
309.169
309.132
309.095
309.06
309.033
303.026
303.035
303.047
303.059
303.071
303.083
303.093
303.101
303.106
303.109
303.109
303.106
303.101
303.093
303.083
303.071
303.059
303.047
303.035
303.026
347.793
347.929
348.094
348.264
348.428
348.579
348.711
348.817
348.891
348.929
348.929
348.891
348.817
348.711
348.579
348.428
348.264
348.094
347.929
347.793
341.235
341.35
341.492
341.639
341.781
341.912
342.027
342.119
342.183
342.216
342.216
342.183
342.119
342.027
341.912
341.781
341.639
341.492
341.35
341.235
334.757
334.853
334.973
335.097
335.217
335.328
335.425
335.503
335.558
335.586
335.586
335.558
335.503
335.425
335.328
335.217
335.097
334.973
334.853
334.757
328.349
328.425
328.523
328.625
328.723
328.814
328.894
328.957
329.002
329.025
329.025
329.002
328.957
328.894
328.814
328.723
328.625
328.523
328.425
328.349
321.996
322.055
322.131
322.21
322.287
322.358
322.419
322.469
322.504
322.522
322.522
322.504
322.469
322.419
322.358
322.287
322.21
322.131
322.055
321.996
315.688
315.73
315.784
315.84
315.895
315.946
315.99
316.025
316.05
316.063
316.063
316.05
316.025
315.99
315.946
315.895
315.84
315.784
315.73
315.688
309.411
309.436
309.468
309.502
309.535
309.565
309.592
309.613
309.628
309.636
309.636
309.628
309.613
309.592
309.565
309.535
309.502
309.468
309.436
309.411
303.152
303.161
303.172
303.183
303.194
303.204
303.213
303.22
303.225
303.228
303.228
303.225
303.22
303.213
303.204
303.194
303.183
303.172
303.161
303.152
349.839
349.964
350.115
350.27
350.418
350.555
350.673
350.768
350.834
350.868
350.868
350.834
350.768
350.673
350.555
350.418
350.27
350.115
349.964
349.839
342.992
343.098
343.229
343.362
343.491
343.61
343.712
343.795
343.852
343.882
343.882
343.852
343.795
343.712
343.61
343.491
343.362
343.229
343.098
342.992
336.233
336.321
336.431
336.544
336.653
336.754
336.841
336.91
336.959
336.984
336.984
336.959
336.91
336.841
336.754
336.653
336.544
336.431
336.321
336.233
329.549
329.619
329.709
329.802
329.891
329.973
330.044
330.101
330.141
330.162
330.162
330.141
330.101
330.044
329.973
329.891
329.802
329.709
329.619
329.549
322.925
322.979
323.049
323.121
323.19
323.254
323.31
323.354
323.385
323.401
323.401
323.385
323.354
323.31
323.254
323.19
323.121
323.049
322.979
322.925
316.349
316.387
316.437
316.488
316.538
316.584
316.623
316.655
316.677
316.689
316.689
316.677
316.655
316.623
316.584
316.538
316.488
316.437
316.387
316.349
309.807
309.83
309.859
309.89
309.92
309.948
309.971
309.991
310.004
310.011
310.011
310.004
309.991
309.971
309.948
309.92
309.89
309.859
309.83
309.807
303.285
303.293
303.303
303.313
303.323
303.332
303.34
303.347
303.351
303.353
303.353
303.351
303.347
303.34
303.332
303.323
303.313
303.303
303.293
303.285
351.941
352.056
352.195
352.335
352.47
352.594
352.7
352.785
352.845
352.875
352.875
352.845
352.785
352.7
352.594
352.47
352.335
352.195
352.056
351.941
344.79
344.888
345.007
345.13
345.247
345.354
345.446
345.52
345.572
345.598
345.598
345.572
345.52
345.446
345.354
345.247
345.13
345.007
344.888
344.79
337.737
337.818
337.919
338.022
338.121
338.212
338.291
338.353
338.397
338.419
338.419
338.397
338.353
338.291
338.212
338.121
338.022
337.919
337.818
337.737
330.767
330.832
330.914
330.999
331.08
331.155
331.219
331.27
331.306
331.324
331.324
331.306
331.27
331.219
331.155
331.08
330.999
330.914
330.832
330.767
323.865
323.915
323.979
324.045
324.108
324.166
324.216
324.256
324.284
324.298
324.298
324.284
324.256
324.216
324.166
324.108
324.045
323.979
323.915
323.865
317.016
317.052
317.097
317.144
317.19
317.231
317.267
317.295
317.315
317.326
317.326
317.315
317.295
317.267
317.231
317.19
317.144
317.097
317.052
317.016
310.206
310.227
310.254
310.283
310.31
310.335
310.356
310.373
310.385
310.392
310.392
310.385
310.373
310.356
310.335
310.31
310.283
310.254
310.227
310.206
303.419
303.426
303.435
303.444
303.453
303.462
303.469
303.475
303.479
303.481
303.481
303.479
303.475
303.469
303.462
303.453
303.444
303.435
303.426
303.419
353.969
354.075
354.203
354.332
354.456
354.568
354.665
354.742
354.796
354.823
354.823
354.796
354.742
354.665
354.568
354.456
354.332
354.203
354.075
353.969
346.504
346.594
346.704
346.817
346.924
347.022
347.106
347.173
347.22
347.244
347.244
347.22
347.173
347.106
347.022
346.924
346.817
346.704
346.594
346.504
339.155
339.23
339.323
339.418
339.509
339.592
339.664
339.72
339.76
339.78
339.78
339.76
339.72
339.664
339.592
339.509
339.418
339.323
339.23
339.155
331.905
331.965
332.041
332.119
332.194
332.262
332.321
332.367
332.4
332.416
332.416
332.4
332.367
332.321
332.262
332.194
332.119
332.041
331.965
331.905
324.737
324.783
324.842
324.903
324.961
325.014
325.06
325.096
325.121
325.134
325.134
325.121
325.096
325.06
325.014
324.961
324.903
324.842
324.783
324.737
317.632
317.665
317.707
317.75
317.792
317.83
317.862
317.888
317.907
317.916
317.916
317.907
317.888
317.862
317.83
317.792
317.75
317.707
317.665
317.632
310.573
310.592
310.618
310.644
310.669
310.691
310.711
310.727
310.738
310.743
310.743
310.738
310.727
310.711
310.691
310.669
310.644
310.618
310.592
310.573
303.541
303.548
303.556
303.565
303.573
303.581
303.587
303.593
303.596
303.598
303.598
303.596
303.593
303.587
303.581
303.573
303.565
303.556
303.548
303.541
355.568
355.668
355.788
355.91
356.025
356.13
356.22
356.292
356.341
356.367
356.367
356.341
356.292
356.22
356.13
356.025
355.91
355.788
355.668
355.568
347.804
347.889
347.993
348.099
348.199
348.291
348.37
348.432
348.475
348.498
348.498
348.475
348.432
348.37
348.291
348.199
348.099
347.993
347.889
347.804
340.197
340.268
340.356
340.446
340.531
340.609
340.676
340.729
340.766
340.785
340.785
340.766
340.729
340.676
340.609
340.531
340.446
340.356
340.268
340.197
332.721
332.778
332.85
332.924
332.994
333.058
333.113
333.157
333.187
333.203
333.203
333.187
333.157
333.113
333.058
332.994
332.924
332.85
332.778
332.721
325.349
325.393
325.449
325.507
325.562
325.612
325.655
325.689
325.712
325.725
325.725
325.712
325.689
325.655
325.612
325.562
325.507
325.449
325.393
325.349
318.058
318.09
318.13
318.171
318.21
318.246
318.277
318.301
318.318
318.327
318.327
318.318
318.301
318.277
318.246
318.21
318.171
318.13
318.09
318.058
310.825
310.843
310.867
310.892
310.916
310.937
310.956
310.97
310.981
310.986
310.986
310.981
310.97
310.956
310.937
310.916
310.892
310.867
310.843
310.825
303.625
303.631
303.639
303.647
303.655
303.662
303.669
303.674
303.677
303.679
303.679
303.677
303.674
303.669
303.662
303.655
303.647
303.639
303.631
303.625
)
;

boundaryField
{
    hotSide
    {
        type            fixedGradient;
        gradient        nonuniform List<scalar> 
400
(
358.999
360.398
363.2
367.41
373.037
380.092
388.589
398.541
409.963
422.868
437.271
453.185
470.622
489.592
510.106
532.17
555.793
580.98
607.734
636.059
362.939
364.307
367.047
371.167
376.68
383.601
391.945
401.73
412.977
425.702
439.923
455.656
472.916
491.715
512.065
533.975
557.452
582.502
609.129
637.337
367.202
368.533
371.2
375.215
380.593
387.353
395.518
405.111
416.156
428.674
442.689
458.219
475.282
493.892
514.063
535.804
559.124
584.028
610.52
638.605
371.719
373.006
375.588
379.48
384.702
391.28
399.241
408.616
419.433
431.722
445.508
460.816
477.664
496.072
516.051
537.614
560.769
585.521
611.875
639.833
376.362
377.601
380.088
383.843
388.891
395.266
403.003
412.138
422.71
434.751
448.294
463.367
479.991
498.188
517.971
539.352
562.34
586.94
613.156
640.988
380.939
382.126
384.511
388.119
392.984
399.145
406.646
415.533
425.851
437.639
450.936
465.771
482.172
500.16
519.75
540.954
563.781
588.235
614.319
642.034
385.188
386.322
388.606
392.069
396.751
402.701
409.973
418.619
428.691
440.237
453.299
467.912
484.104
501.897
521.31
542.352
565.032
589.355
615.321
642.93
388.794
389.881
392.073
395.405
399.925
405.687
412.755
421.189
431.047
442.383
455.242
469.663
485.677
503.307
522.569
543.477
566.035
590.249
616.118
643.641
391.432
392.483
394.606
397.838
402.234
407.854
414.768
423.042
432.74
443.919
456.628
470.909
486.792
504.302
523.456
544.266
566.738
590.873
616.673
644.135
392.831
393.862
395.946
399.125
403.452
408.996
415.827
424.014
433.626
444.721
457.351
471.557
487.371
504.818
523.915
544.673
567.099
591.194
616.958
644.388
392.831
393.862
395.946
399.125
403.452
408.996
415.827
424.014
433.626
444.721
457.351
471.557
487.371
504.818
523.915
544.673
567.099
591.194
616.958
644.388
391.432
392.483
394.606
397.838
402.234
407.854
414.768
423.042
432.74
443.919
456.628
470.909
486.792
504.302
523.456
544.266
566.738
590.873
616.673
644.135
388.794
389.881
392.073
395.405
399.925
405.687
412.755
421.189
431.047
442.383
455.242
469.663
485.677
503.307
522.569
543.477
566.035
590.249
616.118
643.641
385.188
386.322
388.606
392.069
396.751
402.701
409.973
418.619
428.691
440.237
453.299
467.912
484.104
501.897
521.31
542.352
565.032
589.355
615.321
642.93
380.939
382.126
384.511
388.119
392.984
399.145
406.646
415.533
425.851
437.639
450.936
465.771
482.172
500.16
519.75
540.954
563.781
588.235
614.319
642.034
376.362
377.601
380.088
383.843
388.891
395.266
403.003
412.138
422.71
434.751
448.294
463.367
479.991
498.188
517.971
539.352
562.34
586.94
613.156
640.988
371.719
373.006
375.588
379.48
384.702
391.28
399.241
408.616
419.433
431.722
445.508
460.816
477.664
496.072
516.051
537.614
560.769
585.521
611.875
639.833
367.202
368.533
371.2
375.215
380.593
387.353
395.518
405.111
416.156
428.674
442.689
458.219
475.282
493.892
514.063
535.804
559.124
584.028
610.52
638.605
362.939
364.307
367.047
371.167
376.68
383.601
391.945
401.73
412.977
425.702
439.923
455.656
472.916
491.715
512.065
533.975
557.452
582.502
609.129
637.337
358.999
360.398
363.2
367.41
373.037
380.092
388.589
398.541
409.963
422.868
437.271
453.185
470.622
489.592
510.106
532.17
555.793
580.98
607.734
636.059
)
;
    }
    coldSide
    {
        type            mixed;
        refValue        uniform 300;
        refGradient     uniform 0;
        valueFraction   uniform 0.991591;
        source          uniform 0;
        value           nonuniform List<scalar> 
400
(
300.018
300.018
300.018
300.018
300.019
300.019
300.02
300.02
300.021
300.021
300.022
300.023
300.024
300.024
300.025
300.027
300.028
300.029
300.03
300.03
300.018
300.018
300.018
300.019
300.019
300.019
300.02
300.02
300.021
300.021
300.022
300.023
300.024
300.025
300.026
300.027
300.028
300.029