/*--------------------------------*- C++ -*----------------------------------*\
| =========                 |                                                 |
| \\      /  F ield         | OpenFOAM: The Open Source CFD Toolbox           |
|  \\    /   O peration     | Version:  2212                                  |
|   \\  /    A nd           | Website:  www.openfoam.com                      |
|    \\/     M anipulation  |                                                 |
\*---------------------------------------------------------------------------*/
FoamFile
{
    version     2.0;
    format      ascii;
    arch        "LSB;label=32;scalar=64";
    class       volScalarField;
    location    "0";
    object      relativeErrorField;
}
// * * * * * * * * * * * * * * * * * * * * * * * * * * * * * * * * * * * * * //

dimensions      [0 0 0 1 0 0 0];

internalField   nonuniform List<scalar> 
3200
(
0.0069699
0.00237371
0.0155265
0.00698584
0.00953448
0.0198935
0.0109532
0.0173301
0.00573048
0.0124526
0.01118
0.0140021
0.0129358
0.0118872
0.0152001
0.00528818
0.0143804
0.0133387
0.0159006
0.0207695
0.0146268
0.0195198
0.0162465
0.00858815
0.0164248
0.0137887
0.00319605
0.00632837
0.00542866
0.00474422
0.0126735
0.0112902
0.0140052
0.0123845
0.0102254
0.010456
0.00904339
0.0116951
0.0178704
0.00523337
0.00696071
0.00320532
0.0137904
0.0109565
0.0129931
0.00236468
0.00235404
0.0108761
0.00535505
0.00971126
0.0152657
0.00967635
0.0100147
0.012454
3.38295e-05
0.00482303
0.0163236
0.0130107
0.0155044
0.0065987
0.00514104
0.0026196
0.00669228
0.00484427
0.00858524
0.0117109
0.00232898
0.00661913
0.0104937
0.0186944
0.00384121
0.00165336
0.01533
0.0155254
0.00514114
0.00713502
0.0055106
0.01917
0.0012939
0.016565
6.9239e-05
0.000363107
0.00570193
0.00538837
0.00588008
0.00176454
0.00220524
0.00338654
0.00482031
0.00621225
0.0060429
0.00138104
0.0121648
0.0042703
0.00471463
0.00200744
0.00556172
0.0233075
0.00113403
0.00264223
0.0132115
0.0109726
0.00185482
0.000382967
0.00354546
0.00142193
0.00715317
0.000649588
0.0139616
0.00675116
0.00399419
0.00327944
0.00550241
0.00902963
0.00994445
0.00186264
0.010007
0.00237534
0.00201785
0.012682
0.00932307
0.0013422
0.00695688
0.00680853
0.00865169
0.00624696
0.0143553
0.0138389
0.0109007
0.0121417
0.0131538
0.000578827
0.00654674
0.00400998
0.000933378
0.00242426
0.00093672
0.00381668
0.00582762
0.00546452
0.0073004
0.00300388
0.0108918
0.00380415
0.00663916
0.00166375
0.00255353
1.90708e-05
0.00245161
0.00110797
0.00124482
0.0103478
0.00187837
0.00841172
0.00583312
0.00600841
0.00149997
0.000390107
0.00356491
0.00804701
0.00288482
0.00685231
0.00485039
0.00368378
0.011624
0.00897454
0.0106968
0.00856798
0.013528
0.0143849
0.0126453
0.0102636
0.0199134
0.018549
0.0100874
0.00813542
0.00993884
0.0147155
0.0180372
0.00903693
0.0103611
0.00079892
0.007056
0.00226245
0.00842131
0.00155295
0.0102105
0.00127139
0.00965657
0.000664871
0.000474067
0.0096995
0.00181773
0.00813501
1.19147e-05
0.00575304
0.00126354
0.00843102
0.00152764
0.00569665
0.00888621
0.00769048
0.00857398
0.00234099
0.00274216
0.00714476
0.00233811
0.00675753
0.00751232
0.00560694
0.0013702
0.00889564
0.00462545
0.00438046
0.00716151
0.0129621
0.0106401
0.00420334
0.0113615
0.00316637
0.00125801
0.00220313
0.00205135
0.00236209
0.00213707
0.011513
0.000339612
0.007297
0.00623046
0.00928945
0.00265174
0.00104565
0.0011198
0.0149142
0.00907568
0.0033818
0.014034
0.00888042
0.0124271
0.0146664
0.0132201
0.0024993
0.00797053
0.0139906
0.0029494
0.00692284
0.00717267
0.00242621
0.0129118
0.0056959
0.00942321
0.00438966
0.00857405
0.00184736
0.0116626
0.00946552
0.00209548
0.0162554
0.00427945
0.00805502
0.00571289
0.0035074
0.00879152
0.000162961
0.0060458
0.000418377
0.000378822
0.00256013
0.00170641
0.00727321
0.00894166
0.00580424
0.00267099
0.000156717
0.00212201
0.00152671
0.00203078
0.00727879
0.00510792
0.00292757
0.0053733
0.00470253
0.000605305
0.00299326
0.0118888
0.00576279
0.00406369
0.0045897
0.00510243
2.68007e-05
0.00763399
0.00573794
0.00505979
0.00125614
0.00699455
0.00131376
0.00558198
0.00720778
0.00195169
0.000970977
0.00253317
0.012057
0.00288614
0.00490744
0.00609747
0.00221626
0.00854642
0.00641711
0.00665349
0.00663901
0.00746148
0.00523022
0.00596114
0.000788739
0.00295464
0.00443449
0.00167043
0.0116344
0.00834517
0.00470412
0.00522645
0.000380392
0.00722808
0.00776498
0.00189251
0.000295016
0.0110003
0.0146714
0.00414582
0.0123889
0.00937793
0.0150277
0.00458763
0.00810839
0.0071361
0.00907233
0.0113841
0.007581
0.0108684
0.000988215
0.00529888
0.00500198
0.00650823
0.00598024
0.00443556
0.013369
0.00137251
2.45354e-06
0.00943568
0.00636091
0.011258
0.00888358
0.0076711
0.000968736
0.00581335
0.00907262
0.0059541
0.00550281
0.00347177
0.0084981
0.00305334
0.00340431
0.00324769
0.00345203
0.00242815
0.00478995
0.00128357
0.0114554
0.00191445
0.00114052
0.00660171
0.0116351
0.00424685
0.00769546
0.00116077
0.00631097
0.00398283
0.0010702
0.00824243
0.00300992
0.0072391
0.00524502
0.00758419
0.00620649
0.00114241
0.0112727
0.00863107
0.00989567
0.000349117
0.00832771
0.00508111
0.00184997
0.0112095
0.00651466
0.00628772
0.00129623
0.00873294
0.00454413
0.00403301
0.00599973
0.00790028
0.0050554
0.00472504
0.00761534
0.000515618
0.00606915
0.00288036
0.0111471
0.00584402
0.00297596
0.00373045
0.00655867
0.00667963
0.000485356
0.0033981
0.000198571
0.00458714
0.00160065
0.00243351
0.00356167
0.00568528
0.00287783
0.00428528
0.0109092
0.00781566
0.00876199
0.00564488
0.00414519
0.00383823
0.00168213
0.00216233
0.00535688
0.00339588
0.00686031
0.00783612
0.00548758
0.00846944
0.00477503
0.00144561
0.00511226
0.000298518
0.00402467
0.00654649
0.00312601
0.0190907
0.0110454
0.000743064
0.00198555
0.00811844
0.00512077
0.00154902
0.00679556
0.00329952
0.000356048
0.00763247
0.00510013
0.00484688
0.00129825
0.00947181
0.00639007
0.00460075
0.00719934
0.00337496
0.00493248
0.004269
0.0102878
0.00517511
0.00423903
0.00444661
0.00854542
0.00263227
0.000344343
0.00616294
0.00245062
0.00402654
0.00539356
0.00419446
0.00240365
0.00336424
0.00567878
0.000574906
0.0022719
0.00274854
0.00074042
0.00170046
0.000247234
0.00387768
0.00115716
0.00532793
0.00369403
0.000209536
0.00524242
0.00775777
0.000217945
0.00598111
0.00308788
0.0106425
0.010241
0.00301443
0.0117228
0.00939289
0.010504
0.000713
0.000378206
0.00133531
0.000805931
0.0122346
0.000221046
0.000798646
0.000794441
0.00123819
0.000150479
0.000320808
0.00557309
0.000956161
0.0090741
0.000193943
0.0116134
0.00227921
0.00203634
0.00129117
0.00385505
0.0017328
0.00352522
0.00581287
0.00523814
0.00697838
0.00124631
0.00194404
0.00628854
0.00717494
0.00177063
0.00670465
0.0052725
0.00589808
0.00804155
0.000776995
0.00645892
0.0077696
0.00417803
0.00305578
0.00630553
0.0052421
0.00667166
0.00409825
0.00591484
0.00603172
0.00276553
0.00294076
0.00132759
0.0018392
0.00585286
0.00352161
0.00749172
0.00120133
0.00039702
0.00383073
0.00321247
0.00184803
0.00600227
0.000351457
0.00153071
0.0108466
0.00157897
0.00624419
0.00271327
0.00627865
0.00380653
0.00102982
0.00437349
0.00031575
0.00947689
0.00761933
0.000990033
0.00548551
0.0119952
0.00985542
0.00754113
0.00125906
0.00612947
0.00761504
0.0016453
0.00281659
0.00251454
0.00436681
0.00391249
0.0021075
0.000799057
0.0038445
0.00138162
0.00639066
0.00452181
0.000868758
0.00374029
0.00209544
0.00282348
0.00680721
0.00893128
0.000694383
0.000784721
0.00513438
0.00761625
0.00316205
0.00568525
0.00378321
0.0042053
0.000928672
0.00398282
0.00507238
0.000450209
0.00158484
0.00109061
0.0034021
0.00685113
0.000970447
0.00150918
0.00490878
0.00457275
0.00173031
0.000440562
0.00672533
0.002657
0.00134466
0.00544551
0.00859762
0.00506707
0.00834358
0.00379361
0.00986736
0.00570229
0.00126561
0.0005859
0.00695115
0.00562109
0.0025526
0.00259312
0.00669833
0.00344291
0.000341291
0.00591946
0.00824883
0.000434078
0.00431556
0.00258222
0.005142
0.00616419
0.00720258
0.0108676
0.0121798
0.0049607
0.00417208
0.00356132
0.00409572
0.0091011
0.00299999
0.00789388
0.00470962
0.00121152
0.00203216
0.00475861
0.00327587
0.00927456
0.00675028
0.00836976
0.00133723
0.00478349
0.0088971
0.000331764
0.000787739
2.67138e-05
0.000249067
0.00224267
0.00395506
0.0010984
0.0136696
0.000441798
0.00565649
0.00115083
0.00392622
0.0114839
0.00147422
0.000736002
5.83958e-06
0.00855643
0.00290426
0.0038936
0.00827703
0.00192233
0.0080189
0.00791428
0.0113867
0.000907454
0.00772217
0.00465786
0.00500883
0.00451244
0.00987989
0.00633172
0.00256962
0.00335201
0.00501881
0.00401639
0.00406279
0.00476641
0.000620111
0.00269938
0.00283442
0.00570541
0.0045674
0.00595665
0.00721531
0.0059377
0.00178948
0.00779754
0.000972263
0.00634558
0.00449456
0.0126644
0.00803606
0.00219932
0.00504358
0.00437429
0.00160193
0.00431384
0.00470291
0.0048553
0.00176857
0.000552655
0.00247732
0.000793387
0.00298907
0.000171302
0.00629887
0.000454311
0.00162077
0.000579944
0.000775836
0.000191547
0.00655114
0.00441348
0.00371156
0.00293066
0.00100264
0.0050111
0.00557372
0.000490098
0.00412081
0.00204078
0.0032062
0.00572586
0.00546438
0.000136628
0.000911164
0.000703928
0.00358867
0.00363343
0.00405251
0.00308544
0.00492353
0.00868902
0.00107346
0.00634251
0.000832314
0.00327157
0.00168711
0.00566582
9.89126e-06
0.00515965
0.00295453
0.000447821
0.00773365
0.00246632
0.00620594
0.00288103
0.00580569
0.00658538
0.0050208
0.00239031
0.00631582
0.00740093
2.18072e-05
0.0127692
0.00233058
0.00431804
0.00058829
0.00103753
0.00458516
0.00249189
0.00183072
0.00362729
0.000258521
0.000384983
0.00072967
0.000528236
0.00369813
0.00179013
0.00480077
0.00248021
0.00142082
0.00993265
0.00241244
0.00555529
0.00753529
0.0120706
0.00938731
0.00325356
0.00682448
0.000405735
0.00115667
0.0119868
0.00223262
0.00110171
0.00293525
0.00442907
0.0109552
0.00237548
0.00026479
0.0122812
0.00802064
2.81773e-05
0.00393336
0.0038467
0.00108788
0.00521622
0.00450523
0.000458414
0.0065387
0.00245631
0.000382333
0.00258289
0.000286099
0.00674524
0.000386585
0.0070777
0.000395076
0.00280794
0.000625939
0.00288349
0.000869946
0.0040356
0.00429269
0.000623748
0.00220336
0.00797132
0.0101078
0.00039594
0.00123968
0.000878275
0.010153
0.00232022
0.00396611
0.000895526
5.93305e-05
0.00503812
0.00240503
0.0028174
0.00530227
0.0055339
0.00383676
0.00459365
0.0105337
0.00287006
0.00131154
0.00316519
9.96989e-05
0.00230334
0.00163344
0.00367333
0.000528995
0.000260948
0.00565756
0.00358462
0.00319778
0.000309446
0.00328725
0.000605429
0.00314261
0.00551913
0.00443099
0.00456239
0.0110606
0.00271906
0.000812655
0.000506483
0.00619219
0.000558385
0.00667083
0.00239224
0.00187417
0.00423519
0.00288785
0.00103519
0.00440772
0.00340398
0.00140074
0.00461939
0.00373501
0.00397536
0.00434166
0.00943756
0.000458247
0.00689647
0.00829639
0.000164699
0.000850885
0.00606932
0.00217246
0.000509864
0.00221564
0.00266982
0.00907534
0.0016149
0.00432104
0.00244843
0.00175229
0.00559532
0.00528585
0.00603989
0.000680314
9.85889e-05
0.00516443
0.00345521
0.00615454
0.0132417
0.000602387
0.0020852
0.0114362
0.00292344
0.00434518
0.00698247
0.003016
0.00356114
0.00655577
0.00304797
0.0066591
0.00236477
8.43729e-06
0.0100051
0.00374905
0.000207612
0.00543345
0.00410032
0.00695497
0.00164252
0.00126717
0.00386608
0.000234838
0.00695144
0.0077245
0.00484282
0.00573469
0.00910238
0.00406313
0.00388934
0.00248882
0.00135706
0.00992937
0.00527668
0.00577767
0.00155488
0.0055916
0.0120208
0.00548642
0.00597452
0.00429656
0.0112919
0.00774892
0.00940719
0.00203273
0.00258164
0.00104193
0.0074994
0.00628567
0.00235195
0.00288691
0.00918716
8.21462e-05
0.00355476
0.0024649
0.00238114
0.00671583
0.00608635
0.0200663
0.00783768
0.0114003
0.00920277
0.00652996
0.0109143
0.00562103
0.00537429
0.00874444
0.000435189
0.00171638
0.0114083
0.00685187
0.0100354
0.00728521
0.00294468
0.00773302
0.00380098
0.00740673
0.00611132
0.00696765
0.0188396
0.00045129
0.0156116
0.00459571
0.0140118
0.00705541
0.00705533
0.00513131
0.00207262
0.0139287
0.000915071
0.00388018
0.000580725
0.00333614
0.00178196
0.00828547
0.00274458
0.00667336
0.00931266
0.00186145
0.00376861
0.00290345
0.003465
0.0146708
0.0072789
0.00727132
0.0011458
0.000601579
0.000501064
0.00451614
0.00500042
0.0026429
0.0123524
0.00750709
0.00355095
0.00314917
0.00182602
0.00251767
0.01017
0.00637344
0.00307641
0.00825155
0.00497583
0.0023486
0.00458745
0.000407823
0.0101324
0.00116443
0.00342278
0.00396427
0.000240334
0.00224909
0.0116015
0.00553235
0.00118521
0.000729908
0.00465735
0.0039334
0.00351508
0.000579413
0.000217402
0.00968343
0.0109595
0.00405757
0.00541817
0.000968777
0.00576449
0.00263794
0.00122392
0.00784375
0.00633601
0.00284546
0.00543482
0.000588288
0.00069336
0.0145975
0.00602064
0.00532607
0.00241928
0.00517357
0.0052005
0.00447274
0.00291149
0.00770821
0.00630434
0.00403458
0.00637997
0.00154575
0.000135347
0.00826902
0.0004952
0.000588725
0.00181345
0.000783394
0.00573684
0.00225742
0.00297644
0.00467522
0.000495736
0.012714
0.00345515
0.00177257
0.00310455
0.000806902
0.00770045
0.00104124
0.00905958
0.000190401
0.00381395
0.00486213
0.00250008
0.00727572
0.00142819
0.00870326
0.000451207
0.00650714
0.0130984
0.00751186
0.00877399
0.0119678
0.00820907
0.00910588
0.0134023
0.00722886
0.00336191
0.0141494
0.0141139
0.00683971
0.00487598
0.019102
0.0066289
0.0102065
0.00141644
0.0113567
0.00896268
0.00412435
0.00124305
0.00762835
0.00127635
0.0057314
0.0076572
0.0112583
0.00250337
0.000990686
0.00157481
0.0149932
0.000870998
0.00287003
0.0134491
0.00195279
0.00782592
0.000978846
0.000827885
0.0012985
0.00270493
0.000479925
0.00866695
0.00361459
0.00193452
0.00753884
0.0021744
0.00563583
0.00704147
0.0109931
0.0112448
0.00701741
0.0125801
0.00697743
0.011377
0.00548471
0.0160807
0.000985983
0.00384831
0.00448594
0.0101908
0.00157458
0.00694505
0.00405014
0.00482526
0.00455938
0.0103696
0.0107582
0.00301121
0.00193881
0.0045873
0.00275158
0.00131735
0.0116592
0.00909893
0.00199163
0.00380323
0.00137189
0.0153264
0.00284702
0.00686362
1.31768e-05
0.00558287
0.0065028
0.00624089
0.00570218
0.00562996
0.00106647
0.00416245
0.00427852
0.0057011
0.00379415
0.00449972
0.00208093
0.0102335
0.00735655
0.00573452
0.00583229
0.004766
0.00541347
0.00356851
0.00454893
0.00207968
0.00246173
0.000134518
0.00346005
0.00407928
0.00450293
0.00116213
0.00282376
0.000193312
0.00114034
0.0102598
0.00372522
0.00186614
0.00217628
0.00625025
0.00587796
0.000691563
0.00846875
0.00687498
0.00168902
0.0034832
0.00174687
0.000361882
0.00592941
0.00779924
0.000102966
0.00707854
0.00338553
0.00801388
0.00464429
0.00762005
0.0099128
0.00752779
0.00376806
0.0061385
0.000314295
0.00386599
0.00037318
0.00339577
0.0141739
0.00184553
0.00397489
0.00327705
0.00542232
0.00109309
0.000706252
0.00416777
0.00933835
0.00316633
0.00374167
0.0107753
0.00246775
0.00253263
0.0066624
0.00100567
0.00229919
0.00165765
0.00140409
0.00148087
0.001565
0.00810024
0.00430615
0.00651007
0.00716814
0.00795026
0.0131639
0.00651002
0.0108841
0.0127563
0.0114638
0.0102319
9.92634e-05
0.00310797
0.0107724
0.0127495
0.00346756
0.00127805
0.0043008
0.00722023
0.000267512
0.00115504
0.000865532
0.00601686
0.00832932
0.00884539
0.00793503
0.0120039
0.00211703
0.0110518
0.00681572
0.00332689
0.00432167
0.0106351
0.0124998
0.00735229
0.00545864
0.00478177
0.00560334
0.00183907
0.00150155
0.00147758
0.00437577
0.00321684
0.00682374
0.0032942
0.0101349
0.00829537
0.0082557
0.011295
0.00681563
0.00957987
0.00240594
0.0167336
0.0104058
0.0100836
7.04677e-05
0.00791467
0.00144148
0.00618976
0.0025433
0.00324764
0.000843893
0.00174311
0.0130067
0.0161197
0.0147729
0.00270972
0.00169546
0.00418303
0.00842662
0.00402649
0.00909691
0.0126438
0.0117728
0.00614799
0.00780155
0.00687084
0.000303528
0.00896299
0.000542892
0.00327962
0.00835892
0.00419675
0.00128726
0.0112945
0.00163767
0.0113264
0.00207651
0.00585123
0.0172264
0.00872374
0.0133645
0.00526333
0.00774826
0.0069317
0.00398355
0.00462533
0.000331931
0.00644183
0.00247229
0.00767936
0.00719135
0.0104521
0.00493897
0.00562936
0.0189285
0.00443036
0.00683452
0.0164724
0.00579898
0.00302944
0.0112807
0.0095202
0.0026508
0.0079581
0.00579579
0.00606881
0.0120705
0.00146417
0.000527726
0.00571279
0.000744024
0.00355303
0.00676374
0.00369876
0.00147122
0.00150858
0.00905921
0.00521367
0.00570617
0.000195162
0.00331599
0.00328434
0.00342776
0.0071409
0.00103737
0.00660383
0.00622101
0.000526061
0.00889523
0.000378612
0.00776367
0.00630283
0.00418652
0.0066953
0.00466412
0.00177199
0.00720856
0.00101182
0.00904091
0.000927609
0.00548995
0.002905
0.00686029
0.00347886
0.000914494
0.0061045
0.00201061
0.00166904
0.0033234
0.0043665
0.00191159
0.00750471
0.00802941
0.01564
0.00726566
0.00888859
0.00630113
0.0125942
0.0127783
0.0123819
0.0122523
0.0137596
0.00971765
0.000572277
0.00231699
0.00486942
0.0069476
0.00921944
0.000985879
0.00768745
0.0220075
0.00190945
0.0170983
0.00331207
0.00649591
0.00257969
0.0149469
0.000303074
0.00841324
0.000396952
0.0011376
0.00331587
0.00192663
0.0150833
0.00223022
0.000224363
0.00220788
0.00783728
0.00155785
0.000205345
0.0003337
0.00614881
0.00355305
0.012606
0.00959562
0.00692805
0.00980471
0.0084082
0.00664825
0.0205958
0.00980203
0.0159035
0.0092934
0.00489579
0.0110436
0.0135179
0.00722358
0.00588457
9.30049e-05
0.00261306
0.00660908
0.00678119
0.0120181
0.0163609
0.0028808
0.00968219
0.000768656
0.0148332
0.00323523
0.00840145
0.00176733
0.00460095
9.57532e-05
0.00447012
0.00601572
0.000294034
0.00297588
0.00464871
0.00590931
0.00826943
0.00511366
0.00436925
0.0116761
0.00605268
0.00292768
0.00989809
0.00512188
0.00234437
0.0060598
0.016076
0.00313986
0.00483528
0.00770829
0.0090567
0.00666574
0.00475978
0.00334727
0.00241353
0.00393071
0.00189892
0.0129875
0.00264637
0.00127263
0.00172201
0.0014852
0.00968476
0.00888464
0.00109773
0.00653237
0.00529016
0.0132225
0.00157395
0.00529941
0.000920353
0.000479242
0.00918662
0.0077713
0.000427089
0.00179809
0.00868403
0.00812013
0.000170768
0.00302686
0.00133224
0.00928876
0.00566734
0.00696664
0.0031468
0.00285124
0.00494899
0.0030128
0.00367957
0.00097584
0.00209743
0.00926079
0.0107265
0.00402806
0.0020186
0.00131576
0.00121166
0.000224708
0.00090906
0.00157947
0.000889218
0.00251656
0.00113646
0.00409297
0.00740802
0.00577675
0.00330626
0.00496554
0.00304018
0.00483046
0.00544924
0.0019014
0.00301453
0.0033534
0.00509687
0.00255395
0.000367728
0.00359856
0.00732023
0.010978
0.011782
0.0102389
0.00604026
0.0120337
0.00889418
0.00400642
0.00667984
0.0138489
0.0135851
0.013727
0.0139728
0.00277681
0.0033255
0.00360827
0.00627521
0.00412695
0.00342846
0.00239735
0.00104898
0.0112855
0.00720069
0.00253921
0.00148289
0.0137629
0.000291257
0.00789119
0.00102649
0.000618581
0.00111404
0.00145346
0.00405224
0.000244921
0.00625104
0.000199327
0.000437962
0.000496307
0.00403191
0.00152118
0.00817095
0.00735331
0.00513415
0.010537
4.47523e-05
0.0105785
0.00964472
0.00620674
0.00401972
0.00682425
0.00912136
0.00959449
0.0128543
0.00866061
0.0178675
0.00921419
0.00264799
0.00237938
0.000589798
0.00439547
0.0011915
0.00478464
0.00966827
0.00925789
0.00339443
0.0149345
0.0116331
0.00711478
0.00163329
0.0100962
0.00133086
0.00367792
0.00475105
0.0132688
0.000284832
0.00895584
0.00763723
0.0029717
0.00126675
0.00708967
0.00234908
0.00893084
0.0180551
0.00156117
0.00563507
0.011005
0.00631532
0.00505317
0.00730762
0.0114416
0.0133352
0.00406266
0.00196841
0.00592334
0.00284777
0.000583647
0.00175009
0.000609959
0.0056115
0.00585555
0.0136989
0.00492769
0.00496047
0.00198312
0.00801616
0.0103253
0.00073653
0.006642
0.00339489
0.0037152
0.00467861
0.00528221
0.00386012
0.00825591
0.00494817
0.000810459
0.00456862
0.000307295
0.00334774
0.00728904
0.000225239
0.0046839
0.00636746
0.00258984
0.00440458
0.00379238
0.00036711
0.00309005
0.00220286
0.000204178
0.0068748
0.00178591
0.00580182
0.000511148
0.0056781
0.00765223
0.000532055
0.000726742
0.00733696
0.00317081
0.00917047
0.0154837
0.00325077
0.00444901
0.00549428
0.0065652
0.00180058
0.00130953
0.00741148
0.00509588
0.0116154
0.000763034
0.00496797
0.0138351
0.0060268
0.00728239
0.00335003
0.00232759
0.00951899
0.0045176
0.0112948
0.00130179
0.00595665
0.0126599
0.0120657
0.00790955
0.00819885
0.013284
0.00661499
0.00646308
0.0162118
0.0144367
0.00923878
0.0167073
0.00401807
0.00233145
0.00494392
0.00620034
0.00537609
0.000206
0.00610953
0.00165623
0.00725624
0.0112573
0.00812712
0.00125679
0.0118071
0.0124135
0.00446213
0.00409449
0.0100607
0.000886442
0.00198502
0.00972747
0.00425665
0.00621677
0.00238524
0.00100423
0.00472175
0.00194695
9.64e-05
0.00744143
0.00847948
0.0023694
0.000501852
0.00878515
0.00942676
0.006223
0.00476318
0.00848524
0.00678421
0.00206663
0.0126227
0.00192182
0.00200039
0.012203
0.00233708
0.00391374
0.00139912
0.000789959
0.00860311
0.00613893
0.000986127
0.0118283
0.00084684
0.00691743
0.00871353
0.00966523
0.00411689
0.000942728
0.00233052
0.0147208
0.00961735
0.00621929
0.00459359
0.00427698
0.00900229
0.000918455
0.00826967
0.00408211
0.00711034
0.0163155
0.000697448
0.00672822
0.00492613
0.00263474
0.0163718
0.0014212
0.00761105
0.0173876
0.0104332
0.0047656
0.00718446
0.000679468
0.00606225
0.00320689
0.00220989
0.00143719
0.0016976
0.00240688
0.000182011
0.00346244
0.00155005
0.0094666
0.00186168
0.000751658
0.00189893
0.00611989
0.000556185
0.00272817
0.00122461
0.00499602
1.02512e-05
0.00438083
0.00285779
0.00070201
0.00630073
0.0104891
0.00162
0.000677952
0.0108711
0.00931485
0.00403403
0.00232414
0.0106218
0.00545756
0.00014416
0.00756886
0.00575144
0.00704596
0.00399898
0.0081723
0.0039847
0.00502283
0.00470732
0.00366787
0.00608988
0.00773742
0.00519964
0.0032918
0.00172295
0.00703383
0.00435532
0.00218604
0.0030088
0.00555416
0.00570938
0.00452433
0.00413338
0.00457949
0.00500702
0.00284072
0.00567033
0.00673868
0.00191253
0.0100079
0.00414382
0.00164904
0.00531635
0.000695134
0.00278326
0.000449813
0.00653871
0.0062008
0.000859267
0.0112444
0.00707447
0.0168786
0.0154755
0.00821008
0.00803224
0.00830705
0.00772043
0.00603221
0.0061217
0.000215744
0.00712965
0.00705834
0.000686481
0.00518485
0.00378052
0.0030609
0.0024929
0.0046224
0.000482031
0.00697689
0.000981341
0.0121161
0.000745212
0.00015836
0.00547721
0.00178875
0.00717838
0.000469338
0.00466986
0.00141762
0.00244282
0.000137085
7.23691e-05
0.00169395
0.00903059
0.0120201
0.000892822
0.0061802
0.00891676
0.0134507
0.0049229
0.00491771
0.00304796
0.00605069
0.00574851
0.00081982
0.00230572
0.00429034
0.00887601
0.00672442
0.00136875
0.00538575
0.000986524
0.00624887
0.00418042
0.00878937
0.00123768
0.00474208
0.00425027
0.00110713
0.00474272
0.016084
0.00136845
0.00602872
0.00772512
0.00565165
0.00545038
0.000520754
8.85128e-05
0.000537105
0.0037978
0.000700306
0.00120891
2.73443e-05
0.0032084
0.00955446
0.00732167
0.01033
0.00770317
0.00784584
0.00461662
0.0092803
0.00407371
0.00855187
0.00623409
0.00128661
0.00410946
0.000490101
0.014099
0.00257755
0.00310765
0.000435789
0.00383279
0.00240909
0.00462744
0.00356342
0.00554155
0.00069547
0.00977761
0.00488676
0.00905615
0.00175437
0.000485764
0.00720101
0.00320956
0.00172748
0.0042841
0.0116471
0.00467146
0.00162681
0.00174352
0.00336997
0.00323322
0.00193063
0.00139387
0.00641104
0.00612152
0.00247717
0.00387762
0.00120433
0.00601421
0.00693733
0.00302461
0.00549746
0.00216003
0.00505587
0.0101888
0.00320737
0.000794754
0.00108203
0.0103137
0.006613
0.00121184
0.00306634
0.00201001
0.0118276
0.00255583
0.0010598
0.000175859
0.0110623
0.00172396
9.48442e-05
0.00899886
0.000598208
0.00450768
0.00301271
0.00979706
0.00016216
0.00789696
0.00406211
0.00616157
0.00373597
0.00505268
0.00766919
0.00334036
0.00543738
0.000651155
0.000464451
0.0102736
0.00779114
0.0144103
0.010952
0.00660071
0.00415636
0.00343897
0.00727493
0.00675874
0.000247009
0.00574104
0.00162362
0.00652047
0.00250146
0.00469145
0.00552842
0.00426958
0.00381125
0.00473431
0.000783361
0.0147341
0.0109234
0.00300303
0.00969668
0.00585431
0.00558124
0.0054394
0.00711991
0.00393348
0.00683946
0.00218431
0.010715
0.00896578
0.000472431
0.0116092
0.00095368
0.00676068
0.00451357
0.00513232
0.00461823
0.000916777
0.0105527
0.00258685
0.000584815
0.00652563
0.00489126
0.00633596
0.00310879
0.00639824
0.00547794
0.00122112
0.00855638
0.00537906
0.00302688
0.00269528
0.00372052
0.00317478
0.0090443
0.00329782
0.00383195
0.00267099
0.00441632
0.00456873
0.00466438
0.00516639
0.00517888
0.00935623
0.00132533
0.00773064
0.00359247
0.0102275
0.00206975
0.00492521
0.000755172
0.00295662
0.00148252
0.00146275
0.00379266
0.00497057
0.0122426
0.000645446
0.00404665
0.00674909
0.0144479
0.00227595
0.00461881
0.00882496
0.00202797
0.00554112
0.00135016
0.0103052
0.00236327
0.00703053
0.00113388
0.00294641
0.00176741
0.00328285
0.00168607
0.00231189
0.00839487
0.00839832
0.003623
0.00371542
0.00101924
0.00122516
0.0109182
0.00614408
0.00329707
0.00672347
0.000506237
0.00427409
0.00491681
0.00373617
0.00151476
0.00476637
0.00324513
0.0102192
0.0133921
0.00384364
0.000544468
6.44422e-05
0.00398595
0.000873866
0.00699811
0.00202287
0.00726989
0.00423589
0.00439538
0.0031647
0.00730125
0.00300156
0.00495331
0.00457534
0.00165139
0.00411795
0.00440845
0.00432058
0.00132437
0.000641761
0.00589956
0.00723912
0.010872
0.00157759
0.00721408
0.00510712
0.00344948
0.0101676
0.00135712
0.00241707
0.000906508
0.00694059
0.00524157
0.00337734
0.00215644
0.00221753
0.00621503
0.0019584
0.0077257
0.00458099
0.00462953
0.00740851
0.0127874
0.00535852
0.0101627
0.00739858
0.00537382
0.00882274
0.000478003
0.00819531
0.00611964
0.00580534
0.00826964
0.00880441
0.00776121
0.0121272
0.00939374
0.000793112
0.00542373
0.00580881
0.000360261
0.00102205
0.000926444
0.000898219
0.00727519
0.00147001
0.00087786
0.00492639
0.000398938
0.00103925
0.000414841
0.00269257
0.00178199
0.00370874
0.000379976
0.00962941
0.00150769
0.00667156
0.000492772
0.00753977
0.000555162
0.00816474
0.0107631
0.000548086
0.0056763
0.00114287
0.000346373
0.00048661
0.000926147
0.00483389
0.00205953
0.0054644
7.97896e-05
0.00380543
0.00782597
0.0076924
0.00677998
0.000580379
0.00680663
0.00759649
0.0043366
0.000741031
0.006678
0.00224967
0.000629908
0.0016134
0.00724025
0.0111961
0.00209659
0.00953282
0.000952554
0.0011092
0.000761179
0.00918928
0.00300714
0.007744
0.00391288
0.000174634
0.00766422
0.00637956
0.000955091
0.00114369
0.00508629
0.00779841
0.00794959
0.00274034
0.00688321
0.00488626
0.00359032
0.00162428
0.00241939
0.00713659
0.0124338
0.0010212
0.000202411
0.00943272
0.000619407
0.00355974
0.00214978
0.00350139
0.00798083
0.00348159
0.000614213
0.00285159
0.00237431
0.00139129
0.00651256
0.00298575
0.00572532
0.000428786
0.00289508
0.00307126
0.00647944
0.00613944
0.00362091
0.0115226
0.00660327
0.00786233
0.0124818
0.00482316
0.00180292
0.00378252
0.00363272
0.00546238
0.00436063
0.00353974
0.00499389
0.000176207
0.00115378
0.00299453
0.000832255
0.00704826
0.00348171
0.00962249
7.04464e-05
0.00508059
0.00552261
0.00342696
0.0104994
0.000814186
0.00268369
0.00373541
0.00260439
0.0023825
0.0135801
0.0037369
0.000854688
0.00283347
0.00351
0.00276479
0.00241149
0.000165769
0.00451928
0.00247647
0.00896247
0.00032476
0.00930882
0.00794417
0.00641242
0.00203787
0.00252032
0.00275444
0.00502953
0.00431225
0.00085793
0.00127689
0.00246892
0.00551841
0.00687362
0.00168219
0.00413374
0.0100664
0.00465262
0.0117237
0.0131742
0.0172045
0.00612439
0.00130676
0.0109276
0.000578546
0.00357963
0.00214516
0.00196239
0.00025212
0.00109351
0.00586784
0.00505566
0.00222632
0.00211878
0.000467677
0.00159552
0.00990436
0.0112731
0.0136512
0.00578471
0.0127289
0.0102077
0.00813261
0.00517442
0.00384152
0.000420238
0.00321756
0.00386026
0.000441143
0.00310331
0.00112073
0.00616797
0.00101477
0.0023256
0.000133726
0.000542828
0.00763041
0.00939219
0.0154089
0.00327694
0.0130274
0.00850229
0.012403
0.00294325
0.00543193
0.00339659
0.00390826
0.00427354
0.00330188
0.00310571
0.00182914
0.00665616
0.00338061
0.00865796
0.00811283
0.00138891
0.00787434
0.0014241
0.0113437
0.00964098
0.00901936
0.00830683
0.00909554
0.00339891
0.002393
0.00613106
0.000599429
0.00271983
0.00140703
0.00528199
0.0101332
0.00101529
0.00263312
0.00488413
0.00636706
0.00184712
0.000408651
0.00400163
0.000286049
0.00321348
0.00606384
0.00715814
0.00577151
0.00706433
0.00504409
0.00906583
0.000146913
0.00505679
0.00764459
0.00313747
0.000558308
0.00749342
0.00536083
0.00946088
0.00292154
0.00321485
0.00359321
0.00121845
0.00798592
0.0152888
0.00617259
0.0123746
0.00256188
0.00581482
0.00532556
0.00215813
0.000431857
0.00475969
0.00340106
4.23885e-05
0.0093113
0.00819752
0.00610287
0.00776027
0.00158984
0.00115299
0.00894489
0.00213012
0.00170328
0.00405754
0.00280237
0.0151169
0.0100509
0.0111311
0.00862944
0.0123836
0.00324266
0.00171896
0.000290594
0.00112263
0.0103027
0.00573423
0.000862402
0.00807242
0.00772166
0.0019472
0.00298668
0.00478456
0.00295021
0.00684731
0.00767394
0.0248821
0.0134565
0.00376657
0.00587144
0.0104281
0.000561343
0.0031057
0.0077854
0.000272897
0.00448243
0.00215751
0.00076055
0.00585092
0.0102909
0.00217312
0.0081597
0.00627637
0.0147654
0.00686337
0.0136798
0.0102104
0.00920403
0.00937346
0.00137826
0.00590159
0.000950136
0.00315317
0.000826082
0.00128245
0.00160163
0.000394376
0.00517156
0.000719448
0.00170332
0.00090444
0.0116717
0.000925121
0.0128535
0.000374266
0.0161558
0.00546231
0.0123239
0.0129358
0.00797845
0.00274706
0.00131446
0.0033286
0.00575168
0.00163072
0.00103009
0.00817481
0.00269783
0.00352536
0.0041948
0.00135695
0.0147799
0.00387225
0.000544373
0.010088
0.006468
0.00752903
0.00536717
0.0133598
0.00170936
0.00695708
0.00226849
0.00806404
0.0049047
0.00676132
0.00140597
0.00743596
0.00289346
0.00337449
0.00116513
0.00128209
0.0054704
0.00738334
0.009092
0.0123591
0.00360525
0.00216434
0.0083074
0.00678319
0.0126038
0.00456612
0.0055785
0.00352284
0.00145119
0.00311144
0.0044145
0.00636133
0.00184696
0.00208933
0.00175467
0.00656016
0.00758793
0.00493765
0.0101636
0.0119767
0.0117478
0.00292292
0.00021869
0.0112045
0.00505776
0.00167892
0.00485519
0.00660929
0.00896257
0.00273861
0.00132543
0.00274947
0.00152601
0.000356215