/*--------------------------------*- C++ -*----------------------------------*\
| =========                 |                                                 |
| \\      /  F ield         | OpenFOAM: The Open Source CFD Toolbox           |
|  \\    /   O peration     | Version:  2212                                  |
|   \\  /    A nd           | Website:  www.openfoam.com                      |
|    \\/     M anipulation  |                                                 |
\*---------------------------------------------------------------------------*/
FoamFile
{
    version     2.0;
    format      ascii;
    arch        "LSB;label=32;scalar=64";
    class       volScalarField;
    location    "0";
    object      relativeErrorField;
}
// * * * * * * * * * * * * * * * * * * * * * * * * * * * * * * * * * * * * * //

dimensions      [0 0 0 1 0 0 0];

internalField   nonuniform List<scalar> 
3200
(
0.00397283
0.00397299
0.00466395
0.00571059
0.00737486
0.00929629
0.0113095
0.0133006
0.0144755
0.0155998
0.0157374
0.0151529
0.0139489
0.0123045
0.0106438
0.0089332
0.00739589
0.00642923
0.00599537
0.0061871
0.00303479
0.00314038
0.0039447
0.00496776
0.00643335
0.00800013
0.00993569
0.0114906
0.0126901
0.0137242
0.0136209
0.013223
0.0120386
0.010723
0.00942714
0.00777022
0.00656174
0.00557402
0.00512818
0.00509886
0.00240209
0.00256071
0.00321179
0.00428057
0.00526855
0.00685621
0.00826126
0.00974739
0.0109865
0.0114439
0.0116451
0.0112555
0.0104107
0.00927584
0.00787401
0.00663328
0.00548607
0.004589
0.00434548
0.00405779
0.00200633
0.00209041
0.00255508
0.00343395
0.00430538
0.00529327
0.00687687
0.00786732
0.00878364
0.00937825
0.0094966
0.00919882
0.00867482
0.00750333
0.00645745
0.00546604
0.00458591
0.00384544
0.00357688
0.00346885
0.00136525
0.0015766
0.00181504
0.00261461
0.00331393
0.00431534
0.00526349
0.00662932
0.00688864
0.00739816
0.00750368
0.00726255
0.00654073
0.00587449
0.00512597
0.00421239
0.00357417
0.00315262
0.00286761
0.00268066
0.00109926
0.00123415
0.00126465
0.00196303
0.00233646
0.00318988
0.00377825
0.00462547
0.00510529
0.00538508
0.00553857
0.00527189
0.0046519
0.00435801
0.00382057
0.00315334
0.00266485
0.00222171
0.00208851
0.00171032
0.000720594
0.000522102
0.000690337
0.00095317
0.00136678
0.00179227
0.00223152
0.00294175
0.00304681
0.00318688
0.00332683
0.00336847
0.00286358
0.00255824
0.00218159
0.00175828
0.00161846
0.00145788
0.00105682
0.00123987
0.000124953
0.000330101
0.000188255
0.00049624
0.000508749
0.000521388
0.000738015
0.000859068
0.00101211
0.00102777
0.00109168
0.00114811
0.00086698
0.000859505
0.000692843
0.000760781
0.000675396
0.000634366
0.000371737
0.000426202
0.00188305
0.00186138
0.00248693
0.0037396
0.00505756
0.00726836
0.0090638
0.0106799
0.0120341
0.0130991
0.013238
0.0124048
0.0115111
0.0100139
0.00847149
0.00666971
0.00533059
0.00428799
0.00390886
0.00412357
0.00150883
0.00161918
0.00204764
0.00322584
0.00450664
0.00595157
0.0077872
0.00943496
0.0107104
0.0114476
0.0116289
0.0109714
0.0101306
0.00884386
0.00732248
0.00576751
0.00464283
0.00394487
0.00356509
0.00337121
0.00123353
0.00123111
0.00164915
0.00250502
0.00374124
0.00527951
0.00673063
0.00810666
0.00910145
0.00952554
0.00994283
0.00966666
0.0083353
0.0073681
0.00615915
0.00526819
0.00405954
0.00338541
0.00289348
0.00294
0.000980249
0.000948149
0.00125151
0.00215693
0.00294118
0.00431461
0.00533616
0.00672407
0.00751362
0.00810108
0.00827363
0.00800374
0.00695023
0.00611026
0.00523043
0.00395184
0.00324973
0.00302174
0.00261579
0.00256295
0.00053412
0.000728495
0.00115052
0.00168253
0.00250215
0.00347854
0.00428791
0.00520456
0.00596248
0.00665678
0.00644919
0.00619528
0.00574847
0.00506952
0.0042264
0.0030506
0.00283253
0.00225388
0.00191138
0.00179372
0.000525992
0.000538685
0.000742502
0.00114967
0.0016463
0.00243053
0.00308273
0.00396578
0.00413503
0.00469217
0.00483844
0.00449769
0.00410489
0.00345622
0.00299071
0.00223326
0.00197552
0.00160876
0.00124636
0.00131804
0.000225293
0.00027236
0.000357946
0.000687923
0.00101375
0.001714
0.00202739
0.00236014
0.00264484
0.00269221
0.0029809
0.00260383
0.00275447
0.00217138
0.00193578
0.00153298
0.000981095
0.000797779
0.000931706
0.000850895
0.000159323
0.000139862
5.47124e-05
0.000128408
0.00022161
0.000826542
0.000658751
0.000845632
0.000870761
0.0010003
0.001039
0.000929367
0.000847294
0.000698912
0.000466145
0.000414265
0.000399642
0.000276027
0.000225799
0.000256755
0.000796519
0.000440761
7.53041e-06
0.000953239
0.00237021
0.00397468
0.00579432
0.00746879
0.00888264
0.00985074
0.00990569
0.00951244
0.00863639
0.00711648
0.0054778
0.00386051
0.00279054
0.00193633
0.00149442
0.00189234
0.000649764
0.000567107
1.45588e-05
0.00080353
0.00199518
0.00351068
0.00547178
0.00670707
0.00771846
0.00882684
0.00868672
0.00823574
0.00735859
0.00617413
0.0048225
0.00322102
0.00248458
0.00165326
0.00145354
0.00162621
0.000410698
0.000296501
0.000249188
0.0006758
0.00183622
0.00317366
0.0045401
0.00591455
0.00663402
0.00746295
0.00775304
0.00706962
0.00626508
0.00528426
0.00403698
0.00304714
0.00198731
0.00162099
0.00115438
0.00152568
0.000410995
0.000280424
0.000271627
0.000321588
0.00155143
0.00244151
0.00375379
0.00491211
0.00569192
0.00617544
0.00621046
0.00598488
0.00531239
0.00428595
0.00335641
0.0024975
0.00165541
0.00149169
0.00103441
0.000975361
0.000464456
0.000538928
0.000222908
0.000288206
0.00149225
0.00204913
0.00281297
0.00381805
0.00440859
0.00483402
0.00501948
0.00474162
0.00427111
0.0034188
0.00289019
0.00218029
0.00151895
0.00107551
0.000899802
0.000804504
0.000371755
0.00025054
5.92596e-05
0.000309431
0.0007248
0.00158265
0.00215593
0.00261673
0.0030639
0.00360517
0.00373077
0.00337998
0.00287387
0.00273836
0.00186664
0.00169152
0.00101865
0.000937704
0.00058055
0.000632656
0.000218498
0.000194089
0.000222635
0.000172732
0.000512848
0.000790606
0.00126912
0.00172258
0.00201129
0.00204492
0.00233305
0.00194737
0.00159189
0.00154964
0.000988633
0.00086293
0.000521902
0.000505388
0.000352202
0.000126965
6.40698e-05
0.000319465
0.000230414
0.000145522
0.000178237
0.000418104
0.000472696
0.000692504
0.000747515
0.000759146
0.000937002
0.000537205
0.000539191
0.000732676
0.000236923
0.000369895
0.000137258
2.61997e-05
0.000192208
0.000330115
0.00281129
0.00282616
0.00259197
0.00177087
0.00053865
0.00109138
0.00273513
0.00431298
0.00563774
0.00644239
0.0066137
0.00597814
0.00529204
0.00385722
0.00253051
0.00116588
6.20911e-05
0.000529737
0.000561806
0.000177898
0.00231656
0.00269138
0.0022812
0.0013482
0.000477112
0.000865473
0.00252297
0.00393479
0.0050058
0.00579521
0.0057209
0.00532211
0.00448887
0.00358493
0.00222879
0.00114988
2.03836e-05
0.000473355
0.000500121
0.000240607
0.00220743
0.00221918
0.00191806
0.00120862
0.00032417
0.000769326
0.00200614
0.00328401
0.00422262
0.00485055
0.00508275
0.00459097
0.00396153
0.00304886
0.00181836
0.000959118
7.43192e-05
0.000375405
0.000437789
0.000177716
0.00165509
0.00173448
0.00154603
0.00124573
0.000502565
0.000748805
0.00166314
0.00263248
0.00370973
0.00408804
0.00424549
0.00364197
0.0033879
0.00229317
0.00155361
0.000918013
0.000151749
0.000219336
0.000471213
0.000137233
0.00155677
0.00154047
0.00135617
0.000804607
0.000180429
0.000398927
0.00159994
0.00224981
0.00264023
0.00298444
0.00329435
0.00296689
0.00253501
0.00180341
0.00117809
0.000713842
9.92313e-05
0.00025698
0.000367609
0.000154211
0.00118915
0.00102547
0.00103986
0.000631179
4.61832e-05
0.000315983
0.00127183
0.00168444
0.0018573
0.00243173
0.00246251
0.00216343
0.00217653
0.00125014
0.000885017
0.000632149
6.26222e-05
1.97418e-05
0.000185536
0.000186803
0.000688624
0.000839657
0.000622197
0.000513131
0.000128904
0.000283819
0.000667204
0.000789342
0.00113625
0.00145942
0.00118414
0.00140392
0.00103571
0.000755889
0.000635937
0.000280835
2.14003e-05
0.000194759
0.000208879
5.23009e-05
0.000311686
0.000407691
0.000255043
0.000448704
2.4317e-05
0.00014967
0.000190705
0.000379351
0.00025539
0.000327935
0.000300234
0.000419612
0.000268808
0.000237586
0.0002601
9.36116e-05
0.000159916
0.000181351
0.000197303
0.000211673
0.0044691
0.00492704
0.00497519
0.00401018
0.00304346
0.00158198
2.15715e-05
0.00130511
0.00255185
0.0030908
0.00337652
0.00270406
0.00222454
0.00103208
0.000160037
0.00151576
0.00238505
0.00266425
0.00260859
0.00226465
0.00426932
0.00449622
0.00433914
0.00351856
0.00265326
0.00168838
6.23787e-05
0.00121141
0.00203835
0.00281828
0.00310626
0.00246645
0.00196974
0.000859041
0.00020317
0.00133057
0.0019104
0.00216004
0.00224632
0.00186564
0.0036267
0.00368329
0.00368558
0.00297232
0.00206405
0.00134802
0.000177651
0.000858824
0.00187068
0.00253466
0.00261509
0.00232114
0.00147209
0.000774878
6.39885e-05
0.00106699
0.00156076
0.00211157
0.00215613
0.00180739
0.00301031
0.0030649
0.00308925
0.0027147
0.00197556
0.00112679
0.000128299
0.000751664
0.00152497
0.00195424
0.0019836
0.00191347
0.00133883
0.000490297
1.54575e-05
0.000797021
0.00117944
0.00150025
0.001717
0.00131094
0.00248973
0.00269265
0.00244372
0.00196768
0.00172628
0.000955827
0.000149358
0.000642646
0.00116744
0.00177683
0.00160423
0.00152487
0.00122849
0.000505618
4.95668e-06
0.000649851
0.00098919
0.00130646
0.00127485
0.00109158
0.00161786
0.00169884
0.00194856
0.00155198
0.00119401
0.000511838
7.19619e-05
0.000631423
0.000816461
0.00138543
0.00130807
0.00112387
0.000799461
0.000383393
0.000209736
0.000227251
0.000803992
0.00088762
0.000871418
0.000710838
0.00121587
0.00125541
0.000863638
0.0010179
0.000685468
0.000574102
0.000118418
0.000120449
0.000495131
0.00072609
0.000640508
0.000836719
0.000621036
0.000217782
0.000117789
0.000248273
0.00040956
0.000402548
0.000589916
0.00047923
0.000378261
0.00047792
0.000457318
0.000332184
0.000119354
0.000294263
5.39734e-05
8.16996e-05
0.000145988
0.000243262
9.5158e-05
0.00011558
1.22514e-05
0.000186605
9.01622e-05
0.00012924
0.000354153
0.000323068
0.000432488
0.00043077
0.00615704
0.00632695
0.00657894
0.00610975
0.00529593
0.00406152
0.00276745
0.00141608
0.000265645
0.000276656
0.000426616
8.72947e-05
0.000690819
0.00144112
0.00258355
0.00348884
0.00418591
0.00404601
0.00397289
0.00366751
0.00552453
0.00546988
0.00573982
0.00541492
0.00464478
0.00364661
0.00255024
0.00131466
0.0004334
0.000214111
0.000564703
1.58214e-05
0.000445705
0.00150656
0.0021426
0.00295894
0.00369899
0.00374896
0.00339153
0.00316968
0.00469069
0.00491953
0.00513889
0.00460774
0.00394725
0.00304202
0.00202832
0.00118622
0.000200955
0.000260183
0.000158911
0.000273099
0.000475225
0.00102287
0.00197825
0.00255862
0.00325768
0.00320155
0.00291804
0.00256897
0.00382017
0.00426747
0.00401363
0.00352398
0.00342849
0.00277
0.00172239
0.000667074
0.000269377
0.000365865
0.000336963
0.000163664
0.000426811
0.00104457
0.00155832
0.00215462
0.00263079
0.00278449
0.00234803
0.00216901
0.00299224
0.00336382
0.00322388
0.00313288
0.00224507
0.00228334
0.00127994
0.00095221
0.000189314
0.00026674
0.00037527
6.5206e-05
0.00021727
0.000816022
0.00134286
0.00165202
0.00224979
0.00196789
0.00205063
0.00172047
0.00224366
0.00255284
0.00240525
0.00213159
0.00195117
0.00148831
0.00107897
0.000655071
0.000143279
0.000215833
0.00018575
1.53477e-05
0.00038854
0.000503569
0.00104966
0.00125759
0.00155699
0.00136074
0.0014206
0.001143
0.00163245
0.00134536
0.00156143
0.00122255
0.00124608
0.00106137
0.000493474
0.000488692
0.000255817
8.85772e-05
0.000199216
0.000189898
0.000140675
0.000308429
0.000648716
0.000756214
0.00111738
0.000916707
0.000835402
0.00085607
0.0004511
0.000524695
0.000520012
0.000355857
0.000645752
0.000264666
9.7313e-05
8.82757e-06
7.47257e-05
8.48708e-05
0.000172127
0.000116674
6.35337e-05
0.000153477
0.000238422
0.000488478
0.000110805
0.000243777
0.000227379
0.000282277
0.00720476
0.00767262
0.00799604
0.00768986
0.00709924
0.00599839
0.00487316
0.00378203
0.00307315
0.00223464
0.002326
0.00239547
0.00288605
0.0037246
0.00465995
0.00517106
0.0057004
0.00558112
0.00502726
0.0042423
0.00627148
0.00659633
0.0069259
0.00690364
0.00618774
0.0054687
0.00417291
0.00357626
0.00250897
0.00200914
0.00217236
0.00211411
0.00251861
0.00335046
0.00398788
0.00461873
0.00485814
0.00483827
0.0044115
0.00392607
0.00544856
0.00579378
0.00613097
0.00589081
0.00515079
0.00447232
0.00380969
0.00301786
0.00246474
0.00172651
0.0015377
0.0020355
0.00208779
0.00299141
0.00360874
0.00413686
0.00417348
0.00428012
0.0038506
0.00335095
0.00458923
0.00475079
0.00505312
0.00498739
0.00447784
0.00397394
0.00321819
0.00270036
0.00192993
0.00148855
0.00164042
0.00160356
0.00192885
0.00228524
0.00292219
0.00319319
0.00341557
0.00345315
0.00323507
0.002513
0.00374592
0.00387729
0.00385229
0.00382046
0.00368054
0.00298318
0.00254695
0.00211695
0.0014194
0.00135787
0.00112609
0.00129374
0.00148709
0.00177548
0.0022824
0.00258639
0.00274528
0.00267513
0.0026127
0.00223875
0.00269684
0.00288253
0.0029105
0.00291143
0.00266862
0.00236629
0.00190442
0.00141386
0.00106632
0.000735449
0.000697607
0.000858778
0.00102028
0.00139971
0.00149033
0.00178266
0.00197002
0.00199961
0.00176301
0.00156534
0.00149733
0.00182137
0.00172751
0.00174156
0.00174195
0.00142558
0.00112737
0.00063777
0.000587241
0.000436965
0.000326881
0.000593915
0.000576163
0.000782764
0.000893652
0.0011237
0.00109395
0.00138342
0.00133422
0.000892787
0.000590405
0.000611718
0.000585287
0.00059317
0.000456276
0.000238951
0.000380731
0.000334622
9.37963e-05
0.000217254
0.000299803
0.000227193
0.000272468
0.000320565
0.000431965
0.000316526
0.000412006
0.000665299
0.000338189
0.000304228
0.00760317
0.00802418
0.00867164
0.00853275
0.00845769
0.00774963
0.00670582
0.00596806
0.00508317
0.00470961
0.0042951
0.00465136
0.00508506
0.00528753
0.00614428
0.006456
0.00660013
0.00619643
0.00562428
0.00446968
0.00649632
0.00730664
0.00740998
0.00752627
0.00709905
0.00676772
0.00599673
0.00511401
0.0044792
0.00415259
0.00379335
0.00384338
0.00438918
0.00465786
0.00544896
0.0056803
0.00570431
0.00568729
0.00492011
0.00407515
0.00567851
0.0061307
0.00631564
0.00657262
0.00648297
0.00558777
0.00502601
0.00447504
0.00400209
0.00339299
0.00317311
0.00327789
0.003645
0.0041589
0.00458485
0.00510701
0.00519459
0.0046069
0.00421683
0.00353624
0.00488104
0.00499445
0.00557154
0.00560117
0.00536945
0.00489753
0.00430941
0.00363865
0.00333173
0.0029177
0.00264435
0.00275199
0.00296442
0.00354977
0.00385889
0.00399932
0.00416619
0.00363912
0.00358278
0.00282988
0.00385123
0.00401352
0.00446345
0.00428094
0.00430831
0.00382605
0.00337475
0.00297889
0.00270331
0.00229035
0.00225092
0.00227098
0.00262041
0.00267488
0.00296306
0.00330945
0.00321566
0.00305525
0.0027243
0.00214373
0.00247073
0.00284844
0.0032587
0.0032753
0.0030663
0.0026955
0.00264425
0.00209775
0.00185092
0.00168697
0.00178495
0.00154447
0.00194717
0.00180626
0.00222483
0.00209943
0.0021329
0.00233951
0.00199547
0.00160465
0.0018259
0.00194635
0.0021589
0.00181267
0.00177804
0.00185567
0.00139727
0.00110728
0.00097089
0.00101364
0.00109079
0.000867464
0.0011886
0.00114061
0.00125136
0.00135273
0.00136635
0.00110433
0.00121021
0.000933587
0.000760148
0.000779699
0.000770679
0.000874261
0.000833012
0.000457789
0.000710184
0.000354197
0.000479293
0.000334667
0.000336738
0.000306788
0.000309206
0.000529
0.000619113
0.000558899
0.000406949
0.000617404
0.000421661
0.000289864
0.00726748
0.00843637
0.0088697
0.00912638
0.00899346
0.00853308
0.00784784
0.00724265
0.0065911
0.00606102
0.00593298
0.00603814
0.00644383
0.0067613
0.00701012
0.00723176
0.00683416
0.00634912
0.00540279
0.00447306
0.00652769
0.00723961
0.00771486
0.00806362
0.0077979
0.00745656
0.00684698
0.00633186
0.00587816
0.00539565
0.00525995
0.00547967
0.00556051
0.00575629
0.00606025
0.00615722
0.0059771
0.0055952
0.00480171
0.00374365
0.00557264
0.00606889
0.00647004
0.00692191
0.00689875
0.00676875
0.00587585
0.00537189
0.00490426
0.00469871
0.00435747
0.00436442
0.0048071
0.0051006
0.00538514
0.00538671
0.00527985
0.0050658
0.00413456
0.00322702
0.00461498
0.00502262
0.00548614
0.00569676
0.00555009
0.00535952
0.00483728
0.00458073
0.0042261
0.00386231
0.00403629
0.00402683
0.00414061
0.00440407
0.00412902
0.00455207
0.00425816
0.00403922
0.00346116
0.00276439
0.00380861
0.00437838
0.00455078
0.00456219
0.00462927
0.00428152
0.00412731
0.00349826
0.00341665
0.00312993
0.00292803
0.00300242
0.00313211
0.00320093
0.00332884
0.00352372
0.00352875
0.00336098
0.00271531
0.00205957
0.00290429
0.00289309
0.003301
0.00333671
0.00317062
0.00310558
0.00272663
0.00254754
0.00230653
0.00224181
0.00224484
0.00214847
0.00229
0.00250121
0.00244557
0.00241083
0.00263417
0.00233672
0.00190235
0.00163688
0.00170811
0.00183598
0.00207931
0.00222523
0.00209389
0.00212116
0.00192435
0.0016748
0.00166026
0.00155774
0.00128822
0.0011703
0.00116849
0.00137468
0.00147107
0.00154479
0.00162518
0.00149317
0.00130535
0.000856255
0.000464582
0.000864021
0.000989338
0.000759007
0.000599119
0.000778275
0.000573501
0.00062983
0.000566071
0.000260668
0.000495356
0.000702301
0.000456107
0.000503708
0.000636844
0.000574292
0.000413298
0.000502185
0.000542559
0.000340256
0.00660738
0.00757809
0.0083873
0.00903233
0.00923005
0.00917283
0.00848162
0.00800857
0.00757308
0.00717891
0.00694672
0.0067734
0.00704108
0.00718542
0.00737095
0.00711369
0.00681907
0.0061518
0.0049544
0.00368924
0.00578457
0.0067331
0.00745062
0.00789502
0.00809128
0.0078816
0.00749376
0.00701822
0.00656241
0.00630666
0.00624431
0.00603385
0.00610461
0.00637868
0.00669193
0.00639334
0.00603999
0.00524117
0.00423858
0.00337612
0.00496354
0.00588453
0.00641169
0.00684806
0.00705873
0.00677633
0.00647699
0.00610055
0.00551617
0.00534083
0.00524651
0.00539652
0.00535447
0.00546252
0.00569776
0.00565547
0.0051791
0.00448545
0.00369884
0.00281771
0.00410451
0.00497317
0.00532062
0.00562034
0.00581333
0.00566382
0.00537267
0.0049793
0.00487627
0.00454792
0.00421036
0.00442586
0.00467756
0.00453548
0.00473783
0.00448919
0.004273
0.00363784
0.00297483
0.00225834
0.00331719
0.00374267
0.00423521
0.00454653
0.00458648
0.00461624
0.00439894
0.00413056
0.00382171
0.00364283
0.00339509
0.00357289
0.00379284
0.00361712
0.00376967
0.00331474
0.00351043
0.00320775
0.0023578
0.00197767
0.00256099
0.00280915
0.00317152
0.00345969
0.00317
0.00316789
0.00314392
0.00299863
0.00274077
0.00261129
0.00250593
0.00266962
0.00254862
0.00257767
0.0025926
0.00247292
0.00258842
0.00219503
0.00152596
0.00121616
0.00148949
0.00168294
0.00205177
0.00240556
0.00196319
0.00207409
0.00193453
0.00179523
0.00157594
0.00149064
0.00151062
0.00171203
0.00134563
0.00159021
0.0019186
0.00153244
0.00135379
0.00139761
0.00106752
0.000737767
0.000475399
0.000564724
0.000782929
0.000582295
0.000985772
0.00060118
0.00055161
0.000547483
0.000429584
0.000558
0.000484821
0.000401585
0.000625507
0.000603835
0.000406052
0.000852467
0.000481056
0.000408834
0.000499853
0.00043418
0.00505032
0.00662432
0.00750992
0.0080227
0.00855135
0.00858938
0.00854073
0.00802946
0.00759366
0.00753255
0.00730931
0.00728755
0.00712217
0.00713453
0.00715139
0.00673963
0.0061701
0.00500147
0.00365039
0.00221188
0.004498
0.00560528
0.00661508
0.00720597
0.00751499
0.00760129
0.00736476
0.00710642
0.00678546
0.00662823
0.00647182
0.00631536
0.00637008
0.00628586
0.00635993
0.00599415
0.00526422
0.0043363
0.00313532
0.00195723
0.0039623
0.00499384
0.00578112
0.00642113
0.00665018
0.00652664
0.00640395
0.00611628
0.00605644
0.00567492
0.00554551
0.00563148
0.00540832
0.00557304
0.00533495
0.00516318
0.004572
0.00372043
0.00284565
0.00177154
0.00333189
0.00406266
0.00486233
0.00519187
0.00547458
0.00583579
0.00539645
0.0053066
0.00499396
0.00477593
0.0044434
0.0045557
0.0045212
0.00452154
0.00460384
0.00418101
0.00369957
0.00318643
0.00225909
0.001296
0.00269305
0.00337423
0.00367957
0.00426212
0.00440389
0.00442444
0.0042888
0.00418036
0.00393333
0.00377107
0.0035822
0.00361173
0.00354496
0.00343502
0.00359704
0.00356592
0.00290633
0.00247102
0.00185135
0.00112374
0.00202726
0.00243421
0.00265763
0.0031316
0.0032763
0.00317303
0.00304382
0.00310943
0.0028892
0.00283226
0.00263773
0.00262802
0.00260052
0.00263946
0.00264297
0.00242888
0.00213882
0.0016418
0.00121631
0.000921152
0.00123038
0.00149318
0.00167418
0.00195118
0.00203137
0.00184571
0.00184352
0.00181188
0.00169691
0.00177233
0.0015047
0.00157122
0.00166442
0.00164992
0.0016603
0.00151356
0.00129672
0.00138114
0.000750158
0.00059831
0.000521142
0.000495831
0.00052787
0.000522818
0.000662685
0.00061257
0.000484265
0.000685766
0.000647206
0.000471321
0.000524109
0.000659229
0.000623189
0.000579865
0.000615054
0.000496677
0.00061375
9.84628e-05
0.000293406
3.86873e-05
0.00319222
0.0044697
0.0058593
0.00676534
0.00764151
0.00791436
0.00776658
0.00774905
0.00757834
0.00716201
0.00701267
0.00700155
0.00679242
0.00638161
0.00596945
0.00550393
0.00462421
0.00349617
0.00177421
0.000412875
0.00287122
0.00405905
0.00514385
0.006118
0.00627961
0.00677796
0.00672216
0.00672782
0.00642037
0.00628101
0.00611409
0.00607031
0.00594377
0.00579212
0.00541022
0.0048305
0.0040129
0.00289675
0.00178793
9.78844e-06
0.0025301
0.00346869
0.0044241
0.00528142
0.00578275
0.005856
0.00590891
0.00581126
0.00555909
0.00520636
0.00530827
0.00513514
0.00510056
0.00481065
0.00469845
0.00424392
0.00329026
0.00251036
0.00137201
0.000194571
0.0023227
0.0027215
0.00360513
0.00440141
0.00477099
0.00489672
0.00504052
0.00500574
0.00464458
0.00462881
0.00442507
0.00423546
0.00425385
0.003941
0.00378739
0.00315329
0.00291015
0.00219805
0.000907517
0.00020977
0.00166226
0.0023891
0.00297757
0.00357499
0.00391974
0.00388928
0.0038615
0.00373586
0.00371579
0.00355101
0.00350936
0.00359619
0.00339137
0.00323209
0.00305466
0.00257986
0.00221453
0.00176338
0.000927757
0.000257172
0.0012475
0.00154957
0.00211372
0.0023742
0.00266881
0.00281379
0.00309387
0.00275413
0.00288695
0.00239453
0.00257234
0.00248685
0.00228705
0.00237114
0.00196342
0.0019017
0.00163107
0.00111688
0.000658581
0.000180357
0.000794625
0.000886461
0.00142279
0.00158779
0.00173427
0.00150306
0.00192196
0.00162337
0.00138602
0.0017268
0.00174934
0.0015665
0.00158195
0.00132518
0.00158563
0.00125531
0.000967148
0.00072398
0.000650427
4.73074e-05
9.31443e-05
0.000319371
0.000478143
0.000409188
0.000596288
0.000549525
0.000569391
0.000440264
0.000503423
0.000555186
0.000400221
0.000601846
0.000345922
0.000601057
0.000469235
0.000342116
0.000399041
0.000338975
6.54813e-05
7.23767e-05
0.000328815
0.00184069
0.00366283
0.00480617
0.00559791
0.00624335
0.00641694
0.00630767
0.00651832
0.00599725
0.00586903
0.00565078
0.00548945
0.00487088
0.0044744
0.0035808
0.00236133
0.00104412
0.000822581
0.00247369
0.000275092
0.00178768
0.00316735
0.00417886
0.00514741
0.0053631
0.00556768
0.00572821
0.00561248
0.00534167
0.00519371
0.00480947
0.00459109
0.00439069
0.00394154
0.0031194
0.00204285
0.000763945
0.000568187
0.00204427
0.000654918
0.00161077
0.00272915
0.00374084
0.00434115
0.00467582
0.00482704
0.00493936
0.00471812
0.00468938
0.00430904
0.00439239
0.00404841
0.00388803
0.00329188
0.00262662
0.00194642
0.000877396
0.00055302
0.00189685
0.000290984
0.0013999
0.00215672
0.00290676
0.00368742
0.00371589
0.00396989
0.00374397
0.00393771
0.00378433
0.00389102
0.00342414
0.00326504
0.00309643
0.00272596
0.00243125
0.00150428
0.000826461
0.000546448
0.0017371
0.000192003
0.00101864
0.00168204
0.00221997
0.00280962
0.00323563
0.00332292
0.00314864
0.00319065
0.00310767
0.00304546
0.00283163
0.00265234
0.0023438
0.0022015
0.00173091
0.00108209
0.000551042
0.000432797
0.00113187
0.000234903
0.000931495
0.00120004
0.00164454
0.00213915
0.0023048
0.00224446
0.00224455
0.00211899
0.00227048
0.00205586
0.00209984
0.00199121
0.00167715
0.00174925
0.00130664
0.00100486
0.000420328
0.000374123
0.000911821
0.000193753
0.000397061
0.000713121
0.00114893
0.00124782
0.00173538
0.00142158
0.00151067
0.00121547
0.00125087
0.00139562
0.00118326
0.00109671
0.00114801
0.00114249
0.000968999
0.000459169
0.000159789
4.01702e-06
0.000358325
0.000120381
6.97495e-05
0.000341015
0.000159894
0.000514168
0.000527675
0.000453164
0.000386115
0.000631975
0.000275192
0.000407157
0.000417616
0.00038478
0.000267672
0.000163059
0.000300153
1.81103e-05
0.000125316
1.13321e-05
0.000366272
0.00301542
0.00109598
0.000653499
0.00189888
0.00299038
0.00375272
0.0040904
0.00443699
0.0043712
0.00422313
0.00398673
0.00373715
0.00329692
0.00298799
0.00222101
0.000976969
0.000312966
0.00180442
0.00383125
0.00573034
0.00236153
0.000865808
0.000580968
0.00164593
0.00279927
0.00335869
0.0037152
0.0037612
0.00400144
0.00383478
0.00342855
0.00332213
0.00292444
0.00234327
0.00189875
0.000988019
0.000224906
0.00173881
0.00329841
0.00498978
0.00211391
0.000898186
0.000416768
0.00156664
0.00228376
0.00290576
0.00302761
0.00333044
0.0032114
0.00307817
0.00307472
0.00283103
0.00265271
0.00199323
0.00156608
0.000880667
0.000326787
0.00159716
0.00307074
0.00460308
0.0014412
0.000615224
0.000377862
0.00117445
0.0018423
0.00232322
0.00263066
0.00272048
0.00289866
0.00246882
0.00264378
0.00253368
0.00210684
0.00186664
0.00139599
0.00054935
0.000251939
0.00136058
0.00256248
0.00359056
0.00124969
0.000418221
0.000268972
0.000907381
0.00149693
0.0018635
0.00216754
0.00191596
0.0020143
0.00196946
0.00205693
0.00194307
0.00163096
0.00138366
0.00111955
0.00061755
0.000234443
0.00101926
0.00204084
0.00272237
0.000900954
0.000292983
0.000281213
0.000820768
0.00113859
0.00134876
0.00146415
0.00164556
0.00160455
0.00143065
0.00135467
0.00115822
0.00118694
0.00099122
0.000679876
0.000393846
0.000237503
0.000762327
0.00152299
0.00217666
0.000637256
7.08457e-05
3.25503e-05
0.000489365
0.000718717
0.000804227
0.000709906
0.000947857
0.000890158
0.00108459
0.00086033
0.000809354
0.000848134
0.000564105
0.000476405
0.000316695
6.63197e-05
0.000369586
0.000902455
0.00122975
0.00020199
2.26299e-05
0.000314902
0.000251794
0.000268135
0.000173391
0.000199022
0.000325852
0.000257339
0.000263306
0.000182392
0.000273993
0.000166562
0.000218441
0.000257146
0.000284294
0.000159637
0.000152371
0.000297788
0.000426182
0.00681845
0.00487445
0.00293735
0.00125478
5.63762e-05
0.000500347
0.00143544
0.00152143
0.00154667
0.0018103
0.00152886
0.00107108
0.000537734
1.57385e-05
0.00103027
0.00215851
0.003689
0.00540529
0.00781054
0.00942453
0.00603548
0.0042272
0.00248978
0.00105923
7.15379e-05
0.000500991
0.000994655
0.00152408
0.00159071
0.00140675
0.00120166
0.00089818
0.00065334
2.35514e-05
0.000919795
0.00191001
0.00330812
0.00491184
0.00670575
0.00845306
0.00505748
0.00382414
0.00232644
0.00095614
4.20751e-05
0.000684985
0.000931712
0.00123505
0.00121919
0.00129679
0.000933059
0.000717894
0.000474142
0.000107031
0.000589683
0.00147011
0.00287628
0.00430809
0.00579005
0.00714477
0.00438181
0.00304417
0.00193542
0.00095942
8.77182e-05
0.000561118
0.000715652
0.000938606
0.00107403
0.00105159
0.000854453
0.000524112
0.0002428
4.96541e-05
0.000874546
0.00135205
0.00240098
0.00337347
0.00508349
0.00618509
0.00334329
0.00255269
0.00161942
0.000487245
0.000187867
0.0003326
0.000542695
0.000735325
0.000732614
0.000801626
0.000619982
0.000457346
0.000306907
5.95739e-05
0.000342677
0.000969227
0.00209425
0.00291139
0.0039342
0.00462118
0.0023495
0.00160774
0.00127984
0.000591683
0.000109815
0.000368818
0.000504491
0.000665922
0.000456283
0.000364751
0.00050659
0.000295425
0.000258071
4.05398e-05
0.000546844
0.000731758
0.00147624
0.00199019
0.00292834
0.00350673
0.00136664
0.00101234
0.000804717
0.000156065
0.000233899
0.00024854
0.000329616
0.000377548
0.000125679
0.000358083
5.81601e-05
0.000298326
0.000129332
9.61366e-05
0.000190504
0.000664802
0.000792011
0.00118383
0.00166804
0.00201301
0.000284998
0.00022766
8.56889e-05
0.000221278
5.56599e-05
0.000328731
4.4527e-05
9.91296e-05
0.000155831
7.38205e-05
0.000187716
8.63184e-05
0.000112538
0.000108795
0.000189096
0.000143268
0.000146342
0.000341964
0.000609442
0.000945487
0.0111931
0.00907133
0.00724552
0.00538419
0.0039272
0.00302542
0.00227979
0.00186105
0.00172861
0.00175876
0.00186363
0.00235381
0.00278389
0.00352572
0.00467727
0.00599279
0.00766919
0.00973912
0.0118793
0.0139902
0.00968972
0.00804691
0.00636481
0.00484422
0.00357899
0.00259189
0.00205862
0.00172055
0.00136822
0.00149396
0.00177206
0.00213578
0.0023997
0.00323799
0.00411751
0.0053064
0.00666646
0.00859129
0.0105451
0.0125549
0.00827076
0.00704706
0.00565334
0.00414421
0.00303526
0.00243832
0.00172081
0.00150864
0.00112663
0.00132802
0.00163427
0.00150923
0.00230304
0.00265638
0.00347707
0.00435021
0.00577659
0.00757285
0.00900754
0.010681
0.00714605
0.00579104
0.00466246
0.00335901
0.00252098
0.00194522
0.00153012
0.00109447
0.000992983
0.00105786
0.00127039
0.00140945
0.00196223
0.00234524
0.00289574
0.00380005
0.00485015
0.00613627
0.0077794
0.00889966
0.00567493
0.00453745
0.00350311
0.00265537
0.00198266
0.00153144
0.00132596
0.00102607
0.000776583
0.000657681
0.000935172
0.0011437
0.00147028
0.0018576
0.00234279
0.00315538
0.00399442
0.00495008
0.00618259
0.00706856
0.00396802
0.00338784
0.00261779
0.00199584
0.00138771
0.00110083
0.000972399
0.000800985
0.000381329
0.000765654
0.000772726
0.000903957
0.00118229
0.00117622
0.001857
0.00251341
0.00299638
0.0036697
0.00441229
0.00507692
0.00234586
0.00181946
0.00148827
0.00111211
0.000888973
0.000561999
0.000498951
0.000499142
0.000347316
0.000331804
0.00048091
0.000320115
0.000482718
0.000931771
0.00121917
0.0014434
0.00184752
0.00216373
0.00283928
0.00311853
0.000779433
0.000509157
0.000551927
0.000595614
0.000336529
0.000176541
0.000194139
6.06404e-05
8.10136e-05
0.000125344
0.000252113
9.93335e-05
0.000264152
0.000344293
0.000461143
0.000463637
0.000646942
0.00077171
0.00105854
0.00116412
0.0163365
0.0139959
0.011908
0.010133
0.0085301
0.00730917
0.00648575
0.00592563
0.00576013
0.00563574
0.00573221
0.00636849
0.0068872
0.00768789
0.00897352
0.0106134
0.0123992
0.0144122
0.0167771
0.0192478
0.0142233
0.0121901
0.0105333
0.0087363
0.00746404
0.00657361
0.00579131
0.00527522
0.00509679
0.0048687
0.00533486
0.00557787
0.00615245
0.00700548
0.00793281
0.00921398
0.0107369
0.0127951
0.0148139
0.0168624
0.0123573
0.0105904
0.00922406
0.00757676
0.00671205
0.00569334
0.0048104
0.00464049
0.0043389
0.00426519