/*--------------------------------*- C++ -*----------------------------------*\
| =========                 |                                                 |
| \\      /  F ield         | OpenFOAM: The Open Source CFD Toolbox           |
|  \\    /   O peration     | Version:  2212                                  |
|   \\  /    A nd           | Website:  www.openfoam.com                      |
|    \\/     M anipulation  |                                                 |
\*---------------------------------------------------------------------------*/
FoamFile
{
    version     2.0;
    format      ascii;
    arch        "LSB;label=32;scalar=64";
    class       volScalarField;
    location    "0";
    object      stateMean;
}
// * * * * * * * * * * * * * * * * * * * * * * * * * * * * * * * * * * * * * //

dimensions      [0 0 0 1 0 0 0];

internalField   nonuniform List<scalar> 
3200
(
341.701
342.642
343.606
344.553
345.321
345.971
346.482
346.806
347.137
347.134
347.085
346.899
346.578
346.133
345.5
344.779
343.969
342.997
341.947
340.941
336.327
337.09
337.855
338.64
339.307
339.913
340.301
340.651
340.882
340.864
340.9
340.698
340.462
340.03
339.424
338.85
338.098
337.302
336.418
335.631
330.831
331.441
332.099
332.701
333.356
333.789
334.206
334.453
334.578
334.711
334.643
334.487
334.229
333.864
333.447
332.899
332.298
331.64
330.848
330.282
325.24
325.747
326.308
326.804
327.325
327.79
327.995
328.28
328.422
328.459
328.42
328.284
328.013
327.788
327.406
326.943
326.426
325.886
325.261
324.764
319.716
320.059
320.535
320.888
321.291
321.582
321.842
321.876
322.138
322.155
322.121
322.016
321.905
321.644
321.32
321.001
320.579
320.106
319.645
319.295
314.06
314.309
314.694
314.909
315.24
315.41
315.628
315.7
315.795
315.836
315.787
315.742
315.692
315.444
315.21
314.982
314.687
314.392
314.04
313.868
308.433
308.668
308.853
309.033
309.174
309.307
309.414
309.398
309.514
309.549
309.506
309.414
309.422
309.313
309.186
309.053
308.827
308.615
308.503
308.272
302.864
302.86
302.982
302.977
303.063
303.148
303.163
303.195
303.199
303.221
303.202
303.158
303.193
303.126
303.096
302.986
302.922
302.847
302.847
302.773
342.524
343.467
344.445
345.312
346.189
346.725
347.301
347.747
348.007
348.021
347.972
347.876
347.455
346.968
346.305
345.628
344.76
343.823
342.763
341.755
336.934
337.689
338.574
339.299
340.019
340.655
341.067
341.377
341.574
341.656
341.593
341.484
341.138
340.704
340.186
339.588
338.817
337.931
337.031
336.305
331.296
331.955
332.683
333.349
333.913
334.353
334.746
335.022
335.224
335.365
335.223
335.033
334.945
334.531
334.058
333.401
332.829
332.105
331.402
330.73
325.637
326.178
326.788
327.268
327.81
328.141
328.524
328.671
328.849
328.887
328.83
328.687
328.596
328.268
327.839
327.478
326.909
326.208
325.634
325.122
320.031
320.376
320.79
321.223
321.581
321.874
322.173
322.348
322.444
322.398
322.466
322.368
322.171
321.92
321.633
321.405
320.853
320.435
319.997
319.628
314.276
314.56
314.888
315.191
315.479
315.666
315.859
315.916
316.106
316.059
316.013
315.991
315.872
315.741
315.489
315.293
314.931
314.615
314.338
314.027
308.606
308.764
308.972
309.13
309.296
309.341
309.483
309.583
309.642
309.704
309.614
309.655
309.46
309.439
309.272
309.135
309.04
308.836
308.56
308.413
302.861
303.008
303.028
303.093
303.154
303.058
303.19
303.201
303.243
303.229
303.218
303.225
303.201
303.178
303.168
303.095
303.011
302.961
302.898
302.831
343.657
344.458
345.479
346.43
347.251
347.974
348.517
348.92
349.143
349.182
349.163
348.921
348.51
348.053
347.449
346.732
345.793
344.813
343.791
342.733
337.846
338.601
339.418
340.256
340.985
341.578
341.925
342.356
342.631
342.576
342.625
342.452
342.132
341.683
341.128
340.566
339.684
338.862
337.917
337.078
331.996
332.608
333.446
334.073
334.644
335.134
335.536
335.796
336.08
336.076
335.978
335.932
335.678
335.285
334.844
334.238
333.635
332.823
332.125
331.354
326.218
326.698
327.392
327.961
328.343
328.817
329.089
329.298
329.47
329.535
329.524
329.373
329.166
328.913
328.516
328.032
327.524
326.815
326.268
325.766
320.45
320.875
321.314
321.743
321.966
322.382
322.684
322.818
322.961
322.999
322.939
322.853
322.671
322.488
322.11
321.744
321.347
320.897
320.413
320.043
314.629
314.874
315.2
315.507
315.812
315.967
316.177
316.359
316.456
316.41
316.37
316.356
316.277
315.992
315.877
315.506
315.284
314.885
314.612
314.313
308.785
308.948
309.188
309.32
309.476
309.646
309.733
309.79
309.844
309.909
309.819
309.863
309.831
309.646
309.585
309.368
309.212
308.963
308.779
308.679
302.942
303.076
302.987
303.098
303.176
303.189
303.252
303.251
303.282
303.304
303.25
303.346
303.297
303.173
303.244
303.118
303.1
303.049
302.921
302.823
344.671
345.58
346.649
347.611
348.461
349.138
349.704
350.109
350.339
350.421
350.36
350.219
349.765
349.31
348.635
347.867
346.975
345.936
344.8
343.766
338.688
339.579
340.433
341.193
342.001
342.619
343.038
343.382
343.613
343.657
343.683
343.504
343.191
342.673
342.152
341.445
340.727
339.819
338.837
337.986
332.828
333.466
334.202
334.875
335.513
336.056
336.475
336.744
336.934
336.989
336.911
336.81
336.516
336.123
335.703
335.082
334.446
333.687
332.874
332.154
326.816
327.353
327.971
328.618
329.136
329.469
329.85
330.102
330.16
330.252
330.2
330.182
329.852
329.641
329.204
328.669
328.159
327.537
326.94
326.321
320.949
321.335
321.804
322.205
322.597
322.988
323.13
323.365
323.56
323.618
323.518
323.454
323.272
323.064
322.736
322.309
321.914
321.451
320.959
320.499
314.992
315.218
315.599
315.882
316.122
316.42
316.496
316.683
316.857
316.797
316.787
316.76
316.527
316.503
316.24
315.907
315.663
315.277
314.953
314.677
308.995
309.206
309.365
309.58
309.715
309.835
309.943
310.096
310.127
310.099
310.184
310.044
310.02
309.916
309.726
309.588
309.428
309.233
309.012
308.798
303.038
303.123
303.152
303.294
303.236
303.281
303.344
303.351
303.435
303.437
303.446
303.386
303.384
303.33
303.247
303.271
303.206
303.02
303.059
303.008
345.676
346.712
347.843
348.714
349.608
350.294
350.843
351.294
351.519
351.678
351.577
351.465
350.971
350.473
349.797
349.075
348.149
347.043
345.912
344.917
339.724
340.544
341.451
342.215
342.984
343.688
344.077
344.431
344.719
344.752
344.652
344.571
344.17
343.76
343.179
342.531
341.666
340.71
339.782
338.911
333.617
334.252
335.061
335.703
336.299
336.933
337.338
337.658
337.8
337.83
337.802
337.647
337.451
337.017
336.501
335.964
335.23
334.536
333.743
333.012
327.517
328.03
328.697
329.294
329.786
330.222
330.461
330.801
330.941
331.007
330.997
330.812
330.607
330.341
329.855
329.398
328.789
328.177
327.59
326.962
321.448
321.894
322.325
322.731
323.224
323.531
323.777
323.946
324.083
324.047
324.103
323.967
323.756
323.565
323.22
322.877
322.416
321.959
321.439
321
315.27
315.565
316.008
316.281
316.576
316.756
316.98
317.06
317.221
317.155
317.18
317.123
317.006
316.835
316.66
316.27
316.045
315.673
315.305
314.985
309.244
309.416
309.513
309.8
309.942
310.146
310.222
310.33
310.345
310.342
310.369
310.239
310.174
310.117
310.005
309.807
309.612
309.37
309.21
309.016
303.088
303.171
303.238
303.281
303.298
303.43
303.43
303.45
303.475
303.469
303.514
303.484
303.479
303.357
303.314
303.301
303.287
303.197
303.157
303.104
346.809
347.714
348.873
349.865
350.757
351.464
352.049
352.441
352.663
352.8
352.747
352.6
352.186
351.583
350.946
350.126
349.196
347.995
346.901
345.951
340.625
341.323
342.338
343.227
343.979
344.622
345.144
345.468
345.705
345.766
345.645
345.56
345.168
344.785
344.106
343.402
342.641
341.66
340.617
339.828
334.373
335.042
335.893
336.559
337.196
337.724
338.141
338.49
338.613
338.698
338.732
338.453
338.25
337.802
337.366
336.729
336.106
335.246
334.375
333.667
328.11
328.734
329.283
329.811
330.482
330.945
331.219
331.386
331.628
331.614
331.623
331.593
331.306
330.994
330.545
330.063
329.518
328.88
328.106
327.57
321.864
322.35
322.795
323.302
323.56
324.1
324.258
324.553
324.595
324.599
324.564
324.555
324.314
324.107
323.796
323.368
323.017
322.391
321.928
321.456
315.649
316.006
316.308
316.603
316.936
317.166
317.38
317.533
317.577
317.571
317.581
317.527
317.448
317.198
317.027
316.717
316.422
315.978
315.649
315.302
309.481
309.547
309.823
309.947
310.188
310.357
310.387
310.558
310.609
310.567
310.533
310.589
310.45
310.33
310.229
310.036
309.915
309.624
309.389
309.242
303.146
303.22
303.289
303.316
303.482
303.441
303.401
303.491
303.553
303.526
303.5
303.565
303.469
303.384
303.433
303.434
303.242
303.205
303.13
303.095
347.843
348.815
349.95
350.941
351.847
352.536
353.117
353.545
353.88
353.892
353.924
353.641
353.23
352.714
352.067
351.174
350.248
349.112
347.899
346.82
341.46
342.255
343.248
344.19
344.907
345.59
345.988
346.484
346.621
346.713
346.77
346.485
346.119
345.704
345.081
344.369
343.491
342.536
341.512
340.664
335.115
335.798
336.652
337.374
337.938
338.494
338.984
339.309
339.549
339.522
339.458
339.403
338.994
338.707
338.203
337.597
336.798
336.033
335.15
334.416
328.761
329.271
329.974
330.607
331.103
331.578
331.911
332.224
332.317
332.353
332.403
332.209
331.968
331.602
331.231
330.68
330.09
329.449
328.774
328.081
322.416
322.809
323.27
323.767
324.238
324.51
324.821
325.059
325.103
325.225
325.15
325.062
324.854
324.571
324.283
323.885
323.42
322.89
322.402
321.932
316.013
316.319
316.661
317.024
317.316
317.576
317.752
317.865
317.948
317.944
317.932
317.882
317.74
317.592
317.298
317.035
316.727
316.373
315.966
315.656
309.572
309.82
309.991
310.212
310.434
310.549
310.65
310.659
310.759
310.773
310.739
310.761
310.64
310.543
310.384
310.242
310.012
309.884
309.67
309.385
303.233
303.288
303.347
303.423
303.454
303.46
303.569
303.609
303.573
303.632
303.657
303.614
303.59
303.55
303.519
303.412
303.368
303.372
303.206
303.146
348.779
349.695
350.888
351.874
352.893
353.649
354.191
354.685
354.915
355.066
354.92
354.762
354.374
353.692
353.085
352.192
351.2
350.027
348.862
347.694
342.225
343.151
344.021
344.956
345.713
346.468
346.988
347.335
347.584
347.716
347.592
347.364
347.085
346.527
346.014
345.226
344.332
343.433
342.338
341.402
335.773
336.463
337.227
338.069
338.803
339.235
339.709
340.073
340.309
340.309
340.234
340.063
339.792
339.416
338.897
338.34
337.607
336.655
335.823
335.058
329.331
329.802
330.564
331.191
331.738
332.182
332.529
332.756
332.978
333.009
332.918
332.785
332.533
332.277
331.839
331.286
330.718
329.928
329.339
328.658
322.818
323.203
323.792
324.212
324.705
325.015
325.29
325.511
325.672
325.669
325.656
325.532
325.394
325.063
324.735
324.382
323.868
323.338
322.788
322.269
316.204
316.558
317.004
317.351
317.63
317.845
318.129
318.205
318.305
318.347
318.378
318.208
318.157
317.863
317.696
317.324
316.99
316.713
316.289
315.931
309.831
310.008
310.263
310.362
310.558
310.782
310.82
310.879
310.944
311.013
311.037
310.911
310.904
310.74
310.594
310.426
310.223
309.937
309.78
309.555
303.336
303.389
303.45
303.55
303.607
303.56
303.697
303.639
303.712
303.688
303.688
303.66
303.625
303.642
303.609
303.524
303.408
303.403
303.281
303.194
349.588
350.722
351.784
352.843
353.77
354.541
355.139
355.62
355.886
355.959
355.914
355.691
355.338
354.757
354.005
353.153
352.042
350.905
349.667
348.618
343.036
343.893
344.841
345.799
346.55
347.239
347.755
348.177
348.449
348.507
348.46
348.311
347.91
347.378
346.758
345.986
345.083
344.116
343.06
342.087
336.412
337.087
337.883
338.743
339.448
340.084
340.396
340.733
340.937
341.057
340.941
340.754
340.541
340.134
339.617
338.938
338.19
337.412
336.439
335.628
329.794
330.338
331.028
331.676
332.21
332.703
333.031
333.36
333.539
333.572
333.63
333.472
333.214
332.888
332.295
331.88
331.201
330.552
329.825
329.186
323.232
323.73
324.203
324.655
325.129
325.448
325.788
325.905
326.108
326.136
326.07
325.974
325.786
325.488
325.14
324.771
324.321
323.819
323.194
322.669
316.645
316.864
317.29
317.621
317.892
318.179
318.337
318.509
318.597
318.662
318.663
318.547
318.428
318.265
317.97
317.651
317.399
316.985
316.551
316.245
309.978
310.149
310.403
310.64
310.792
310.986
311.091
311.152
311.246
311.265
311.181
311.094
310.995
310.921
310.785
310.622
310.454
310.222
309.985
309.714
303.309
303.474
303.571
303.565
303.582
303.698
303.692
303.755
303.769
303.693
303.764
303.81
303.702
303.671
303.655
303.574
303.46
303.423
303.377
303.271
350.418
351.439
352.574
353.702
354.674
355.512
356.039
356.506
356.805
356.902
356.82
356.522
356.164
355.582
354.878
353.93
352.926
351.792
350.524
349.402
343.697
344.599
345.579
346.512
347.36
348.031
348.564
348.947
349.182
349.297
349.275
348.998
348.63
348.178
347.62
346.775
345.875
344.821
343.745
342.874
336.98
337.768
338.563
339.369
340.1
340.633
341.094
341.43
341.563
341.675
341.643
341.522
341.177
340.75
340.268
339.626
338.807
337.915
337.034
336.261
330.256
330.927
331.545
332.183
332.785
333.249
333.613
333.86
334.096
334.128
334.015
333.946
333.76
333.335
332.942
332.347
331.737
330.99
330.269
329.649
323.563
323.995
324.545
325.063
325.495
325.904
326.19
326.397
326.506
326.557
326.477
326.425
326.287
325.936
325.629
325.083
324.728
324.213
323.548
323.131
316.885
317.173
317.566
317.955
318.162
318.446
318.693
318.857
318.925
318.962
318.928
318.902
318.714
318.513
318.263
317.941
317.679
317.257
316.768
316.46
310.119
310.303
310.584
310.873
310.914
311.12
311.229
311.312
311.334
311.353
311.36
311.376
311.172
311.122
311.072
310.781
310.547
310.381
310.113
309.886
303.382
303.45
303.572
303.572
303.753
303.694
303.73
303.771
303.765
303.82
303.798
303.757
303.795
303.746
303.635
303.713
303.541
303.459
303.431
303.37
351.071
352.259
353.362
354.376
355.393
356.193
356.878
357.274
357.528
357.72
357.641
357.42
356.952
356.381
355.686
354.755
353.725
352.482
351.218
350.08
344.29
345.208
346.238
347.165
347.99
348.701
349.227
349.635
349.879
350.009
349.954
349.716
349.379
348.853
348.271
347.464
346.495
345.455
344.36
343.419
337.516
338.31
339.15
339.977
340.661
341.195
341.667
341.991
342.27
342.297
342.252
342.126
341.75
341.385
340.791
340.158
339.352
338.456
337.587
336.78
330.713
331.315
332.047
332.654
333.244
333.835
334.108
334.423
334.563
334.619
334.508
334.418
334.162
333.818
333.426
332.816
332.16
331.493
330.719
330.042
323.914
324.41
324.872
325.447
325.88
326.252
326.533
326.765
326.876
326.921
326.86
326.771
326.559
326.256
325.983
325.608
325.008
324.481
323.918
323.407
317.112
317.435
317.764
318.191
318.512
318.74
318.932
319.143
319.21
319.262
319.2
319.126
318.981
318.803
318.572
318.243
317.876
317.442
317.049
316.762
310.275
310.473
310.684
310.936
311.126
311.224
311.363
311.468
311.514
311.579
311.496
311.475
311.422
311.303
311.167
310.965
310.732
310.593
310.243
310.079
303.475
303.505
303.567
303.622
303.719
303.756
303.764
303.863
303.88
303.84
303.856
303.883
303.844
303.793
303.757
303.669
303.649
303.437
303.444
303.329
351.755
352.796
354.018
355.106
356.176
356.989
357.575
358.089
358.398
358.441
358.388
358.192
357.749
357.083
356.3
355.421
354.351
353.186
351.849
350.781
344.884
345.795
346.801
347.803
348.517
349.311
349.843
350.295
350.508
350.626
350.567
350.386
350.022
349.52
348.836
348.015
347.075
346.025
345.013
343.894
338.007
338.74
339.595
340.448
341.175
341.723
342.208
342.555
342.74
342.759
342.794
342.595
342.313
341.835
341.33
340.653
339.773
338.948
338.032
337.22
331.176
331.642
332.368
333.092
333.669
334.14
334.569
334.869
334.97
335.079
335.011
334.833
334.618
334.203
333.771
333.132
332.597
331.902
331.042
330.478
324.198
324.69
325.217
325.767
326.234
326.557
326.844
327.045
327.21
327.245
327.231
327.171
326.933
326.639
326.286
325.798
325.326
324.824
324.217
323.743
317.305
317.582
318.001
318.338
318.684
318.968
319.269
319.333
319.498
319.405
319.462
319.37
319.184
319.039
318.698
318.44
318.102
317.684
317.3
316.967
310.404
310.541
310.851
311.055
311.252
311.323
311.58
311.591
311.59
311.734
311.741
311.646
311.578
311.394
311.349
311.103
310.862
310.634
310.468
310.173
303.433
303.538
303.634
303.664
303.772
303.806
303.854
303.85
303.894
303.922
303.875
303.924
303.821
303.864
303.781
303.695
303.661
303.592
303.461
303.383
352.225
353.306
354.624
355.734
356.708
357.587
358.224
358.653
359.059
359.045
359
358.75
358.361
357.674
356.958
355.992
354.868
353.699
352.367
351.238
345.266
346.253
347.313
348.272
349.209
349.848
350.417
350.878
351.126
351.179
351.127
350.845
350.482
350.007
349.354
348.505
347.532
346.48
345.439
344.465
338.452
339.16
340.029
340.889
341.602
342.192
342.664
343.045
343.212
343.328
343.199
343.1
342.741
342.344
341.72
341.018
340.28
339.402
338.428
337.588
331.384
332.061
332.712
333.383
334.058
334.457
334.886
335.091
335.353
335.405
335.441
335.182
334.931
334.595
334.127
333.64
332.917
332.27
331.416
330.713
324.405
324.912
325.436
325.939
326.454
326.895
327.192
327.352
327.521
327.574
327.554
327.403
327.191
326.872
326.558
326.102
325.569
325.069
324.441
323.976
317.472
317.861
318.167
318.543
318.931
319.2
319.372
319.528
319.597
319.702
319.634
319.591
319.447
319.191
319.023
318.666
318.34
317.92
317.446
317.108
310.511
310.674
310.905
311.181
311.35
311.631
311.648
311.769
311.743
311.789
311.834
311.733
311.64
311.563
311.446
311.263
310.967
310.733
310.55
310.34
303.54
303.558
303.685
303.677
303.83
303.878
303.894
303.905
304.002
303.905
303.945
303.937
303.905
303.837
303.768
303.765
303.633
303.619
303.534
303.392
352.66
353.846
355.086
356.172
357.19
358.05
358.687
359.231
359.503
359.603
359.519
359.276
358.823
358.293
357.503
356.473
355.386
354.214
352.877
351.7
345.753
346.699
347.736
348.664
349.612
350.316
350.889
351.268
351.608
351.683
351.541
351.37
350.975
350.409
349.806
348.98
348.013
346.93
345.854
344.842
338.696
339.463
340.361
341.224
341.93
342.573
342.994
343.405
343.581
343.648
343.646
343.451
343.173
342.641
342.115
341.451
340.579
339.676
338.725
337.851
331.774
332.334
333.033
333.683
334.284
334.797
335.211
335.491
335.728
335.677
335.735
335.606
335.286
334.955
334.487
333.852
333.208
332.454
331.687
331.06
324.688
325.177
325.686
326.194
326.679
327.073
327.414
327.527
327.697
327.754
327.783
327.673
327.434
327.158
326.83
326.392
325.822
325.266
324.649
324.209
317.647
317.995
318.382
318.767
319.078
319.341
319.55
319.748
319.833
319.829
319.805
319.691
319.602
319.399
319.128
318.841
318.43
318.049
317.604
317.241
310.574
310.843
310.977
311.267
311.465
311.609
311.683
311.841
311.882
311.973
311.903
311.857
311.81
311.638
311.507
311.34
311.094
310.872
310.584
310.39
303.55
303.649
303.779
303.802
303.849
303.861
303.902
303.969
303.968
303.98
303.955
303.973
303.921
303.908
303.886
303.854
303.774
303.637
303.552
303.482
353.067
354.224
355.481
356.667
357.665
358.394
359.193
359.598
359.872
360.103
360.002
359.701
359.245
358.672
357.846
356.913
355.798
354.601
353.179
352.141
345.995
347.018
348.113
349.121
349.96
350.62
351.195
351.706
351.958
352.011
351.939
351.715
351.4
350.838
350.122
349.317
348.335
347.268
346.154
345.154
338.977
339.724
340.648
341.545
342.277
342.915
343.34
343.718
343.907
344.033
343.908
343.735
343.457
343.057
342.478
341.788
340.889
339.971
339.053
338.266
331.845
332.554
333.261
333.937
334.63
335.107
335.438
335.738
335.941
336.015
335.949
335.757
335.504
335.215
334.626
334.149
333.455
332.781
331.873
331.243
324.821
325.281
325.846
326.49
326.854
327.272
327.558
327.795
327.917
328.004
327.944
327.827
327.655
327.36
327.051
326.598
325.965
325.425
324.83
324.405
317.768
318.148
318.438
318.853
319.197
319.527
319.725
319.902
319.923
319.94
319.985
319.871
319.772
319.577
319.234
318.998
318.571
318.211
317.727
317.399
310.697
310.893
311.069
311.388
311.625
311.735
311.854
311.944
311.918
312.018
311.924
311.972
311.866
311.721
311.599
311.345
311.19
310.951
310.689
310.496
303.641
303.688
303.768
303.767
303.889
304.008
303.953
303.994
304.029
304.013
304.048
304.008
303.998
303.906
303.851
303.828
303.79
303.69
303.572
303.441
353.395
354.579
355.75
356.949
357.988
358.787
359.472
359.957
360.238
360.349
360.311
360.013
359.624
359.023
358.193
357.245
356.129
354.856
353.574
352.395
346.351
347.287
348.323
349.317
350.208
350.968
351.517
351.925
352.253
352.314
352.216
351.983
351.686
351.101
350.431
349.601
348.677
347.542
346.412
345.349
339.259
339.977
340.831
341.739
342.498
343.053
343.606
343.923
344.228
344.247
344.142
344.096
343.65
343.284
342.696
342.047
341.179
340.173
339.306
338.434
332.048
332.743
333.428
334.185
334.776
335.256
335.646
335.993
336.168
336.219
336.147
336.028
335.701
335.372
334.936
334.347
333.685
332.934
332.077
331.462
324.935
325.493
326.071
326.596
327.058
327.43
327.691
327.946
328.138
328.234
328.143
328.017
327.8
327.516
327.164
326.674
326.158
325.597
324.955
324.48
317.878
318.194
318.611
318.987
319.354
319.606
319.786
319.953
320.166
320.083
320.08
319.998
319.83
319.72
319.364
318.994
318.667
318.275
317.867
317.524
310.768
311.011
311.216
311.44
311.614
311.812
311.915
311.982
312.077
312.106
312.06
312.085
311.987
311.78
311.607
311.441
311.211
311.006
310.693
310.528
303.617
303.726
303.747
303.77
303.884
303.964
303.987
304.051
304.109
304.055
304.016
304.054
303.989
303.941
303.878
303.845
303.754
303.68
303.559
303.5
353.545
354.777
356
357.122
358.166
359.034
359.704
360.204
360.473
360.625
360.59
360.252
359.855
359.269
358.432
357.413
356.305
355.097
353.776
352.499
346.486
347.53
348.521
349.572
350.425
351.111
351.71
352.151
352.395
352.569
352.404
352.224
351.841
351.281
350.63
349.807
348.867
347.724
346.607
345.558
339.313
340.194
341.007
341.93
342.569
343.236
343.814
344.092
344.349
344.454
344.363
344.193
343.837
343.422
342.786
342.182
341.347
340.352
339.467
338.587
332.183
332.78
333.61
334.296
334.898
335.494
335.852
336.068
336.298
336.323
336.331
336.179
335.928
335.519
335.018
334.437
333.73
333.004
332.227
331.597
325.085
325.576
326.06
326.696
327.165
327.545
327.899
328.023
328.232
328.25
328.184
328.082
327.931
327.578
327.264
326.781
326.273
325.651
325.106
324.502
317.973
318.241
318.68
319.087
319.382
319.684
319.904
320.086
320.149
320.19
320.181
320.131
319.945
319.789
319.515
319.121
318.793
318.309
317.836
317.544
310.745
310.931
311.249
311.432
311.655
311.857
311.942
312.029
312.133
312.118
312.165
311.989
312.017
311.853
311.711
311.504
311.25
311.041
310.75
310.584
303.654
303.658
303.758
303.793
303.918
303.927
304.004
304.037
304.065
304.124
304.058
304.077
304.05
303.966
303.907
303.811
303.797
303.738
303.558
303.462
353.694
354.822
356.122
357.232
358.288
359.125
359.835
360.397
360.622
360.771
360.652
360.394
359.936
359.377
358.602
357.658
356.51
355.219
353.865
352.627
346.567
347.538
348.645
349.691
350.537
351.283
351.849
352.26
352.511
352.632
352.6
352.371
351.923
351.433
350.716
349.892
348.917
347.793
346.678
345.645
339.46
340.231
341.093
342.052
342.758
343.345
343.883
344.189
344.462
344.466
344.462
344.284
344.007
343.487
342.874
342.267
341.356
340.466
339.472
338.578
332.293
332.911
333.665
334.37
334.925
335.496
335.916
336.161
336.284
336.399
336.352
336.179
335.975
335.6
335.11
334.587
333.858
333.101
332.337
331.617
325.14
325.593
326.144
326.735
327.179
327.572
327.888
328.15
328.322
328.341
328.31
328.113
327.94
327.657
327.269
326.808
326.319
325.735
325.169
324.629
317.964
318.27
318.737
319.063
319.394
319.788
319.928
320.145
320.182
320.196
320.198
320.15
320.008
319.747
319.491
319.188
318.795
318.338
317.974
317.593
310.804
310.969
311.262
311.441
311.621
311.898
312.067
312.076
312.021
312.136
312.117
312.079
312.013
311.821
311.732
311.514
311.331
311.045
310.825
310.597
303.623
303.654
303.815
303.84
303.894
303.992
304.047
304.07
303.994
304.007
304.097
304.041
304.048
303.957
303.947
303.826
303.792
303.706
303.617
303.504
353.684
354.913
356.115
357.299
358.339
359.186
359.869
360.37
360.689
360.744
360.728
360.458
360.009
359.423
358.631
357.662
356.444
355.212
353.909
352.67
346.556
347.525
348.643
349.695
350.569
351.228
351.878
352.307
352.584
352.616
352.581
352.464
351.993
351.438
350.843
349.933
348.922
347.885
346.707
345.728
339.406
340.252
341.198
342.068
342.786
343.399
343.94
344.261
344.457
344.647
344.492
344.352
343.968
343.523
343.023
342.232
341.423
340.493
339.547
338.675
332.277
333.008
333.662
334.369
335.035
335.489
335.943
336.204
336.244
336.429
336.438
336.305
335.992
335.572
335.094
334.569
333.91
333.089
332.257
331.655
325.178
325.67
326.185
326.743
327.217
327.676
327.901
328.186
328.332
328.344
328.312
328.214
327.984
327.68
327.34
326.864
326.366
325.766
325.185
324.676
317.974
318.312
318.742
319.109
319.423
319.747
320.001
320.116
320.185
320.301
320.266
320.161
319.967
319.767
319.515
319.263
318.796
318.397
317.989
317.593
310.888
310.986
311.287
311.494
311.71
311.858
311.987
312.148
312.117
312.155
312.047
312.155
312.03
311.86
311.696
311.546
311.23
311.008
310.868
310.547
303.623
303.651
303.777
303.834
303.874
303.942
303.988
304.059
304.043
304.178
304.064
304.072
304.047
303.959
303.888
303.842
303.802
303.63
303.617
303.512
353.623
354.856
356.131
357.257
358.304
359.221
359.843
360.357
360.606
360.748
360.718
360.466
359.985
359.349
358.573
357.597
356.448
355.256
353.805
352.672
346.642
347.612
348.687
349.677
350.545
351.211
351.836
352.3
352.456
352.588
352.637
352.393
352.013
351.491
350.744
349.958
348.961
347.803
346.701
345.563
339.434
340.314
341.219
342.032
342.71
343.389
343.922
344.262
344.473
344.559
344.525
344.328
343.976
343.479
342.914
342.2
341.384
340.483
339.517
338.665
332.365
332.941
333.684
334.367
334.963
335.506
335.88
336.143
336.403
336.433
336.388
336.189
335.937
335.591
335.128
334.531
333.923
333.148
332.345
331.722
325.145
325.61
326.191
326.708
327.209
327.6
327.935
328.167
328.35
328.432
328.35
328.161
327.973
327.711
327.355
326.855
326.365
325.821
325.113
324.612
317.935
318.358
318.698
319.126
319.475
319.693
320.011
320.1
320.23
320.197
320.204
320.2
319.993
319.8
319.536
319.263
318.88
318.381
317.932
317.632
310.856
311.013
311.265
311.509
311.698
311.863
312.022
312.08
312.212
312.153
312.162
312.091
312.069
311.853
311.732
311.585
311.344
311.06
310.806
310.502
303.609
303.731
303.777
303.87
303.931
303.945
303.971
304.041
304.052
304.14
303.984
304.115
304.036
303.96
303.876
303.834
303.755
303.779
303.558
303.548
)
;

boundaryField
{
    hotSide
    {
        type            fixedGradient;
        gradient        nonuniform List<scalar> 
400
(
321.511
322.87
325.591
329.677
335.133
341.965
350.181
359.788
370.794
383.208
397.037
412.289
428.971
447.088
466.647
487.651
510.105
534.011
559.372
586.191
323.738
325.08
327.767
331.802
337.194
343.949
352.078
361.591
372.498
384.81
398.537
413.687
430.268
448.289
467.755
488.672
511.043
534.872
560.161
586.913
326.149
327.47
330.116
334.091
339.406
346.071
354.099
363.503
374.296
386.491
400.101
415.136
431.606
449.52
468.885
489.706
511.988
535.735
560.948
587.63
328.704
330
332.597
336.503
341.73
348.292
356.205
365.485
376.15
388.215
401.695
416.604
432.954
450.753
470.009
490.73
512.919
536.579
561.714
588.325
331.33
332.599
335.142
338.97
344.099
350.546
358.332
367.477
378.003
389.928
403.271
418.047
434.27
451.949
471.095
491.712
513.807
537.382
562.439
588.978
333.918
335.158
337.643
341.389
346.414
352.74
360.392
369.397
379.779
391.562
404.765
419.407
435.503
453.065
472.101
492.618
514.622
538.114
563.096
589.569
336.321
337.531
339.959
343.622
348.544
354.751
362.274
371.142
381.385
393.031
406.101
420.618
436.595
454.047
472.983
493.409
515.33
538.747
563.663
590.076
338.36
339.543
341.92
345.509
350.339
356.44
363.847
372.595
382.718
394.244
407.2
421.608
437.485
454.844
473.695
494.045
515.897
539.253
564.114
590.478
339.852
341.015
343.352
346.885
351.645
357.665
364.985
373.643
383.675
395.113
407.984
422.312
438.116
455.407
474.197
494.491
516.294
539.606
564.428
590.758
340.643
341.795
344.11
347.613
352.334
358.311
365.584
374.193
384.176
395.567
408.393
422.679
438.443
455.699
474.456
494.722
516.498
539.788
564.589
590.901
340.643
341.795
344.11
347.613
352.334
358.311
365.584
374.193
384.176
395.567
408.393
422.679
438.443
455.699
474.456
494.722
516.498
539.788
564.589
590.901
339.852
341.015
343.352
346.885
351.645
357.665
364.985
373.643
383.675
395.113
407.984
422.312
438.116
455.407
474.197
494.491
516.294
539.606
564.428
590.758
338.36
339.543
341.92
345.509
350.339
356.44
363.847
372.595
382.718
394.244
407.2
421.608
437.485
454.844
473.695
494.045
515.897
539.253
564.114
590.478
336.321
337.531
339.959
343.622
348.544
354.751
362.274
371.142
381.385
393.031
406.101
420.618
436.595
454.047
472.983
493.409
515.33
538.747
563.663
590.076
333.918
335.158
337.643
341.389
346.414
352.74
360.392
369.397
379.779
391.562
404.765
419.407
435.503
453.065
472.101
492.618
514.622
538.114
563.096
589.569
331.33
332.599
335.142
338.97
344.099
350.546
358.332
367.477
378.003
389.928
403.271
418.047
434.27
451.949
471.095
491.712
513.807
537.382
562.439
588.978
328.704
330
332.597
336.503
341.73
348.292
356.205
365.485
376.15
388.215
401.695
416.604
432.954
450.753
470.009
490.73
512.919
536.579
561.714
588.325
326.149
327.47
330.116
334.091
339.406
346.071
354.099
363.503
374.296
386.491
400.101
415.136
431.606
449.52
468.885
489.706
511.988
535.735
560.948
587.63
323.738
325.08
327.767
331.802
337.194
343.949
352.078
361.591
372.498
384.81
398.537
413.687
430.268
448.289
467.755
488.672
511.043
534.872
560.161
586.913
321.511
322.87
325.591
329.677
335.133
341.965
350.181
359.788
370.794
383.208
397.037
412.289
428.971
447.088
466.647
487.651
510.105
534.011
559.372
586.191
)
;
    }
    coldSide
    {
        type            mixed;
        refValue        uniform 300;
        refGradient     uniform 0;
        valueFraction   uniform 0.991591;
        source          uniform 0;
        value           nonuniform List<scalar> 
400
(
300.024
300.024
300.025
300.026
300.026
300.026
300.027
300.028
300.028
300.028
300.029
300.029
300.03
300.03
300.031
300.03
300.031
300.03
300.03
300.03
300.024
300.025
300.026
300.026
300.027
300.027
300.028
300.029
300.029
300.029
300.029
300.03
300.03
300.031
300.031
300.031
300.031
300.031
300.031
300.031
300.025
300.025