/*--------------------------------*- C++ -*----------------------------------*\
| =========                 |                                                 |
| \\      /  F ield         | OpenFOAM: The Open Source CFD Toolbox           |
|  \\    /   O peration     | Version:  2212                                  |
|   \\  /    A nd           | Website:  www.openfoam.com                      |
|    \\/     M anipulation  |                                                 |
\*---------------------------------------------------------------------------*/
FoamFile
{
    version     2.0;
    format      ascii;
    arch        "LSB;label=32;scalar=64";
    class       volScalarField;
    location    "0";
    object      relativeErrorField;
}
// * * * * * * * * * * * * * * * * * * * * * * * * * * * * * * * * * * * * * //

dimensions      [0 0 0 1 0 0 0];

internalField   nonuniform List<scalar> 
3200
(
0.0149277
0.0155955
0.0161374
0.0170393
0.0179217
0.0187408
0.019557
0.0200351
0.0207383
0.0211015
0.0210572
0.0208272
0.0204335
0.0196652
0.0188561
0.0182036
0.0171741
0.0167069
0.0161366
0.0156494
0.0130268
0.0134621
0.01377
0.0146026
0.0152983
0.015926
0.01666
0.0173559
0.0177784
0.0181024
0.0183365
0.018017
0.0177317
0.0168641
0.0164035
0.0154916
0.0150212
0.0144467
0.0135271
0.0134362
0.0106684
0.0112194
0.0115661
0.0122199
0.0129111
0.0134881
0.0141492
0.0146148
0.0150493
0.0153866
0.0150941
0.0152001
0.0148013
0.0143275
0.0137731
0.0133369
0.0125892
0.0122318
0.0117759
0.0113205
0.00873935
0.00902929
0.0100074
0.00995933
0.0104916
0.0109657
0.0114518
0.0120715
0.0125391
0.0125824
0.0125875
0.0122994
0.012229
0.011589
0.0111137
0.0108486
0.0105756
0.0101352
0.00989102
0.00930105
0.00685551
0.00700814
0.00753095
0.00783047
0.00812041
0.00853981
0.00891769
0.00931278
0.00952714
0.00981443
0.00969373
0.00974974
0.00945851
0.0091498
0.00881315
0.00835679
0.00799485
0.00781156
0.00761737
0.00735229
0.00486001
0.00478391
0.0054347
0.00567459
0.00584362
0.00603798
0.00632544
0.00663694
0.00677595
0.00676747
0.00721737
0.00689346
0.00657367
0.00650871
0.00616444
0.00592619
0.00620677
0.00559493
0.00551301
0.00527227
0.0030284
0.00295717
0.0031874
0.00344343
0.00364826
0.00373539
0.00375906
0.00427933
0.004047
0.00437926
0.00425759
0.00416882
0.00409659
0.00368215
0.00367994
0.00387141
0.00329114
0.00335996
0.00330733
0.00299163
0.00114864
0.00109112
0.000855373
0.00101629
0.00138547
0.00116593
0.0014373
0.00151367
0.00153933
0.00132869
0.00132437
0.00152091
0.00136809
0.00118855
0.0013198
0.00121858
0.0012831
0.000902262
0.000992135
0.00105388
0.0136378
0.0138141
0.0144929
0.0151838
0.0159373
0.016837
0.0174349
0.0179035
0.0187542
0.0188596
0.0187972
0.0186044
0.0182687
0.0175541
0.0166463
0.0159973
0.0153046
0.0148523
0.0140574
0.0135569
0.0113986
0.0117244
0.0124735
0.0131029
0.0137188
0.0144888
0.0149915
0.0157707
0.0161135
0.016375
0.0161836
0.0162528
0.0158588
0.0150689
0.0145734
0.0139653
0.0134358
0.0128482
0.0122907
0.0118491
0.00950847
0.00992569
0.010422
0.0110549
0.0115655
0.0119597
0.0126476
0.013342
0.013511
0.0138051
0.0139971
0.0135969
0.0135828
0.0128285
0.01226
0.0117525
0.0113272
0.0108447
0.01046
0.0100685
0.00803232
0.00806873
0.00836617
0.00885402
0.00950857
0.0098618
0.0103889
0.0108459
0.0112724
0.0114227
0.0114354
0.0112007
0.0112407
0.0103552
0.0100706
0.00967934
0.009273
0.00888828
0.00874392
0.00838161
0.00620687
0.00614495
0.00640213
0.00688684
0.00754207
0.00772295
0.00816687
0.0085811
0.00867506
0.00895906
0.00861899
0.00877915
0.00874519
0.00834531
0.00781892
0.00761945
0.00722751
0.00691323
0.00665341
0.00650719
0.00449451
0.00470516
0.0047153
0.00485726
0.00541677
0.00568151
0.00594628
0.00601663
0.00623671
0.00661295
0.00627457
0.00657818
0.00606997
0.00582425
0.00562929
0.0056057
0.005186
0.00494215
0.00474549
0.00447834
0.00284009
0.00284539
0.00276711
0.00300029
0.00322143
0.00321932
0.00371734
0.00351122
0.00396146
0.00385873
0.003912
0.00367476
0.00374799
0.0037024
0.00345664
0.00347537
0.00303202
0.00313137
0.00285661
0.00263959
0.000659841
0.000838902
0.00109138
0.00112188
0.000934773
0.00101333
0.00123602
0.00110903
0.00141254
0.0010465
0.00144572
0.00146534
0.00146461
0.00122967
0.00117304
0.00118063
0.00112654
0.000965993
0.000834848
0.000888997
0.011194
0.011545
0.0121847
0.0126286
0.0134487
0.0141938
0.0149044
0.0154008
0.0156319
0.016057
0.0160699
0.0157609
0.0153067
0.0146207
0.013826
0.0132684
0.0126827
0.0120739
0.0114004
0.0111976
0.0095924
0.0100405
0.0103429
0.0109126
0.0114085
0.0121978
0.0129749
0.0132401
0.0138638
0.0139351
0.0140476
0.0135259
0.0132881
0.0127453
0.0122799
0.0114486
0.0110649
0.0105106
0.0100875
0.00989965
0.00797162
0.00852311
0.00887109
0.00930068
0.00966646
0.0103668
0.0106773
0.0115394
0.0117014
0.0119146
0.0118168
0.0117241
0.0115979
0.0108965
0.0103458
0.00987175
0.00924655
0.00901811
0.00851401
0.00826558
0.00668369
0.00678559
0.00699095
0.00758243
0.00809432
0.00842109
0.00886789
0.00919468
0.00945408
0.00974303
0.00955523
0.00953615
0.00915401
0.00901468
0.00842288
0.00816548
0.00805317
0.00721706
0.00731568
0.0066873
0.00528452
0.00527986
0.00545942
0.00571385
0.00632577
0.00637951
0.00685702
0.00721251
0.00744425
0.00746561
0.0077028
0.00733884
0.00736351
0.00720375
0.00669328
0.00643441
0.00609217
0.00569975
0.00563794
0.00528029
0.00356135
0.00384518
0.00405317
0.00412399
0.00440777
0.00471297
0.00518036
0.00524845
0.00515984
0.00550476
0.00555295
0.0053092
0.00538263
0.00495559
0.00474605
0.00471841
0.00421722
0.00410999
0.00377708
0.00379186
0.00230595
0.00225272
0.0025223
0.0025751
0.00260622
0.00265181
0.0030295
0.00312751
0.00320942
0.00337299
0.00334372
0.00338911
0.00335016
0.00318282
0.0030822
0.00267413
0.00281328
0.0025464
0.00215231
0.00213829
0.00054972
0.000624136
0.000791704
0.000985045
0.00115493
0.000918963
0.00102925
0.00115422
0.00120149
0.0011465
0.00112175
0.00115175
0.000974916
0.000941458
0.000891995
0.000824981
0.00100763
0.000761857
0.000839504
0.000820754
0.00893114
0.00925361
0.00953896
0.00987161
0.0108048
0.0114218
0.0119848
0.0123829
0.0127644
0.0130263
0.0131462
0.0126018
0.0122505
0.0118896
0.0112732
0.0104883
0.0100953
0.00956111
0.00890865
0.00856318
0.00787798
0.00790496
0.00819584
0.00879209
0.00913699
0.00985587
0.0102585
0.0109577
0.0110302
0.0113814
0.0114187
0.0110991
0.0106947
0.0101541
0.00977748
0.00929661
0.00853792
0.00819118
0.0076903
0.0076524
0.00640517
0.00654212
0.00674486
0.00751122
0.00790251
0.00839654
0.00888524
0.0090836
0.00945536
0.00959115
0.00959442
0.00940582
0.00930574
0.00879648
0.00848877
0.00783763
0.00743679
0.00692736
0.0067361
0.00642277
0.00521473
0.00532925
0.00553808
0.00587352
0.00630602
0.00710133
0.00727247
0.00739806
0.00777331
0.00781991
0.00785931
0.00766729
0.00771012
0.00693853
0.00668463
0.00648285
0.00604073
0.00580208
0.00531323
0.00533329
0.00398171
0.00429749
0.00430301
0.00468298
0.00490312
0.00531794
0.00582877
0.0059969
0.00601061
0.00645879
0.00643726
0.00595584
0.00589663
0.00572904
0.00542015
0.0050588
0.00478705
0.0043827
0.00451601
0.00434613
0.00267781
0.00312543
0.00313495
0.00337949
0.003323
0.00389981
0.00402024
0.00404706
0.00444381
0.00443581
0.00424211
0.00448423
0.00435492
0.00397482
0.0036875
0.00363986
0.00364592
0.00332131
0.00320046
0.0029716
0.00160577
0.00201515
0.00201293
0.00206196
0.00212842
0.00227782
0.00247062
0.00257171
0.00272187
0.00279378
0.00273688
0.00258334
0.00254768
0.0023814
0.00228847
0.0020948
0.00216181
0.00219479
0.00198167
0.00186854
0.000620484
0.000725639
0.000701334
0.000487314
0.00078994
0.00061983
0.000690547
0.00078433
0.000947456
0.00109299
0.000923752
0.000965626
0.000819537
0.000801984
0.000621562
0.000687851
0.000749197
0.000652878
0.000588986
0.000783856
0.006883
0.00705903
0.00725431
0.00779796
0.00818243
0.00876723
0.00915642
0.00987767
0.00990313
0.0103016
0.0101282
0.00982623
0.00941851
0.00893276
0.00831376
0.00764848
0.0073388
0.00676491
0.00626423
0.00621582
0.00592204
0.00598416
0.0060815
0.00658996
0.00713119
0.00737022
0.00788648
0.008433
0.00856706
0.00862438
0.00858505
0.00844604
0.00811601
0.00781642
0.00728098
0.00668171
0.00625563
0.00581388
0.00564181
0.00536413
0.00480847
0.00508233
0.00532104
0.005651
0.0058029
0.00627762
0.00656154
0.00731122
0.00718264
0.00723494
0.00736539
0.00723465
0.00677214
0.00651473
0.00635369
0.0057784
0.00539278
0.00509336
0.00478755
0.00443397
0.00409051
0.00410511
0.00430725
0.0045668
0.00480169
0.0051633
0.00550972
0.00580242
0.00591794
0.00600663
0.00618389
0.00615243
0.0057214
0.00533533
0.00517015
0.0047908
0.00450163
0.00418471
0.00383984
0.00394821
0.00318432
0.00313345
0.00347402
0.00346516
0.00372946
0.00402719
0.0044191
0.00450844
0.00477393
0.00483095
0.00470412
0.00476767
0.00450144
0.00428292
0.00392974
0.00370067
0.00355086
0.00326189
0.0029919
0.0029896
0.00195973
0.00229225
0.00232109
0.0025206
0.00270668
0.00259891
0.00284248
0.00347593
0.00348279
0.00318136
0.00336454
0.00314845
0.00313285
0.00313693
0.00299317
0.00268874
0.00227013
0.00252324
0.00233184
0.0022914
0.00138043
0.00123954
0.00154863
0.00144309
0.00163105
0.00172121
0.00197543
0.00201415
0.00204073
0.00211571
0.00194976
0.00197123
0.00210386
0.0018828
0.00159683
0.00166139
0.00146877
0.00154519
0.0013585
0.00144075
0.000357597
0.000398162
0.000564272
0.00055243
0.000794704
0.000540207
0.00061161
0.000557134
0.000726401
0.000921098
0.000710258
0.000709623
0.000594273
0.000630905
0.000674024
0.000451751
0.000466408
0.000273868
0.000522376
0.000665314
0.0048011
0.00481643
0.00506021
0.00529921
0.00569018
0.00598162
0.00657264
0.00676703
0.00741396
0.00724012
0.00735315
0.00705023
0.00649806
0.00632959
0.00569913
0.00514871
0.00457184
0.00426749
0.00394668
0.00379332
0.00417349
0.00417526
0.00431473
0.00425026
0.00496498
0.00522769
0.00568242
0.00598446
0.00627215
0.00621329
0.00631877
0.00615526
0.00584635
0.00547495
0.00469001
0.00460151
0.00398995
0.00364486
0.00353582
0.00310134
0.00340093
0.00316429
0.00354537
0.00397123
0.00390568
0.00435432
0.00467707
0.00496735
0.0051865
0.00523481
0.00532264
0.00517435
0.0047308
0.00444575
0.00414648
0.00390894
0.00378011
0.00335429
0.00307316
0.00283479
0.00272252
0.0028511
0.00294189
0.00321067
0.00329224
0.00354942
0.00385516
0.00428026
0.0045187
0.00431521
0.00415739
0.00411928
0.00412159
0.00393886
0.0033027
0.00299437
0.00289497
0.00247792
0.00234867
0.00247244
0.00210674
0.00201769
0.0023156
0.002442
0.00247767
0.00272602
0.00299312
0.00337074
0.00334665
0.0035538
0.00334723
0.00336139
0.00333017
0.00302678
0.00276875
0.0025283
0.00233846
0.00202725
0.00185437
0.00189576
0.00137171
0.00134181
0.00150159
0.00157252
0.00171842
0.00197541
0.00201872
0.00239919
0.0022883
0.00264174
0.00254026
0.00247957
0.00236665
0.00199003
0.00220308
0.00195873
0.00168156
0.00168104
0.00149979
0.00128916
0.000803598
0.000917307
0.000866491
0.00120126
0.0011194
0.00103823
0.00130688
0.00133695
0.00152849
0.00149615
0.0016848
0.00147364
0.00131482
0.00138521
0.00105534
0.00111567
0.000769623
0.000893326
0.000891122
0.000733732
0.000428146
0.00034488
0.00012812
0.000315018
0.000347499
0.000418242
0.000419889
0.000450629
0.000538581
0.000666718
0.000466508
0.000461578
0.00032
0.000329535
0.000381166
0.000254422
0.000515566
0.000324123
0.000295675
1.7654e-05
0.00303755
0.00304162
0.00282378
0.00305756
0.00331032
0.00383952
0.00396316
0.00426857
0.00475274
0.00478318
0.00464662
0.00424459
0.00409023
0.00352517
0.00309246
0.00262767
0.00201888
0.00186385
0.00178936
0.00181258
0.00247737
0.00236181
0.0025244
0.00269734
0.00295849
0.00318164
0.00333745
0.00370357
0.00394932
0.00404563
0.00379643
0.00369889
0.00331303
0.0031239
0.00270413
0.00226535
0.00191581
0.00171263
0.0015686
0.00159545
0.00181393
0.00204689
0.00215673
0.0019409
0.00257578
0.00271678
0.00288742
0.00316752
0.00324862
0.00337796
0.00330803
0.00319897
0.00279566
0.00269351
0.00244282
0.00171977
0.0016722
0.00149323
0.0013389
0.0013411
0.00155714
0.00131613
0.00152375
0.00179634
0.00184926
0.00203305
0.00241542
0.00247918
0.00269746
0.00269762
0.0028886
0.00267717
0.00246785
0.00223387
0.00182036
0.00164253
0.00156905
0.00130378
0.00125861
0.00105929
0.00113935
0.00139644
0.00130178
0.00122065
0.00136758
0.00150371
0.00172943
0.00205463
0.00206512
0.00212353
0.00209876
0.00182236
0.00184658
0.00162316
0.00161249
0.00132265
0.00124053
0.000928348
0.00095459
0.000696705
0.000811562
0.000824502
0.00105856
0.000925992
0.000742629
0.00134048
0.00129698
0.0013108
0.00176151
0.00137157
0.00134667
0.00130128
0.00124603
0.00153644
0.00103468
0.000681192
0.000952503
0.000671244
0.000708851
0.000312096
0.000517945
0.000538122
0.000526928
0.000444356
0.00046878
0.000638155
0.000807545
0.00085591
0.000945025
0.000981545
0.00131571
0.000975448
0.000940842
0.000768104
0.000781686
0.000454423
0.000447011
0.000309574
0.000486704
0.000402156
0.000362844
0.000355976
5.17387e-05
1.73933e-05
7.93174e-05
1.68994e-07
1.43217e-05
0.000373981
0.000486789
0.000349429
0.000131808
0.000471562
0.000402138
0.000211858
0.000355862
5.34837e-05
0.000114258
0.000140668
6.98182e-05
0.000108775
0.00138799
0.00141794
0.00129886
0.00138896
0.00150755
0.00148326
0.00179394
0.00219117
0.00203846
0.00214057
0.00197417
0.00160752
0.00160833
0.00104772
0.000795493
0.000422515
6.56093e-05
0.000107583
0.000210009
0.000122822
0.000950355
0.00118228
0.000737283
0.00108692
0.0011674
0.00105178
0.00144796
0.00152076
0.00189017
0.00185251
0.00169123
0.00148624
0.00152662
0.00110658
0.000672428
0.000548448
0.000170305
0.000143804
0.000161315
8.28671e-06
0.000875062
0.000904228
0.000541968
0.000768222
0.00101832
0.0011674
0.00117241
0.00141005
0.00151354
0.00152994
0.00142994
0.00130438
0.0011945
0.00113921
0.000734013
0.000303185
3.28221e-05
0.000256679
0.000309935
9.45425e-05
0.000486782
0.000499804
0.000519725
0.000532667
0.000633085
0.000834796
0.000863545
0.00109355
0.00105529
0.00121687
0.000952258
0.00101908
0.000793841
0.000621799
0.000441393
0.000222976
3.79559e-05
6.78396e-05
0.000149201
8.07844e-05
0.000401582
0.000266387
4.81395e-05
0.000526993
0.000661463
0.000729279
0.00093658
0.000828003
0.000977584
0.000956951
0.000915161
0.00104489
0.000531189
0.000598325
0.000175388
0.000163269
1.34069e-05
0.000161669
0.000139178
4.80353e-05
0.000305699
0.000263867
0.000290273
0.000157163
0.000318455
0.000308929
0.000714798
0.0006353
0.000450248
0.000696954
0.000335181
0.000509399
0.000534135
0.000498456
0.000546872
0.000133671
8.91904e-06
9.76335e-05
5.59379e-05
9.42583e-06
0.000164256
0.000150488
0.000293888
6.5542e-05
6.42444e-05
0.000189076
0.000240858
0.000191062
0.000337559
0.000507142
0.000536548
0.000222084
0.00017163
0.000232553
5.62246e-05
0.000113603
4.80937e-05
4.52218e-05
6.47453e-05
0.000138976
1.7152e-05
0.000153306
3.64836e-05
2.33999e-05
0.000213368
0.00015167
0.000103271
0.000276368
0.000209485
4.20981e-05
0.000175648
0.000106858
3.56292e-05
2.53542e-06
0.000214869
6.80258e-05
1.3968e-05
7.77539e-05
0.000113245
0.000197639
0.000161821
3.46509e-05
0.000206753
0.000339949
0.000263921
0.000293235
2.4422e-05
0.000164531
0.000109698
4.68287e-05
0.000190412
0.000484381
0.000502551
0.000784474
0.00138025
0.00159114
0.00190426
0.00178579
0.00188797
0.00178636
4.58368e-05
0.000127424
0.000297263
0.000464541
0.000507163
0.000328735
0.000301818
3.03245e-05
0.000118956
4.77107e-06
8.49155e-06
0.000424527
0.00065085
0.000939865
0.000990811
0.00155346
0.00160576
0.00174234
0.00160779
0.00145007
0.000214194
0.000218779
0.000432803
0.000519824
0.000527002
0.000380626
0.000295943
3.34743e-05
2.05202e-05
1.44195e-05
3.18801e-05
0.000353922
0.000479859
0.000513239
0.00110861
0.00104435
0.0012032
0.00141988
0.0015057
0.00127598
0.000275541
0.00033329
0.000634546
0.00057995
0.000517082
0.000359367
0.000185671
0.000153872
0.000267588
3.30179e-06
0.000232881
0.000477541
0.00061369
0.000487999
0.0007926
0.000914215
0.0012013
0.00113373
0.0010085
0.00124002
0.000273048
0.000329456
0.000319175
0.000427215
0.000579451
0.000329991
1.849e-05
0.00011504
0.000237744
0.000126617
0.000371309
0.000211341
0.000396304
0.000563744
0.000623721
0.000895241
0.000987664
0.000865903
0.000972736
0.000820958
0.000294312
0.000461922
0.00027561
0.000168493
0.000154668
0.000354031
0.000187283
2.43357e-05
0.000224975
0.000123411
0.000187571
0.000217524
0.000287942
0.000237182
0.000345441
0.000500198
0.000538847
0.000549787
0.000547808
0.000785363
0.000230454
2.03139e-05
0.000105755
0.00019223
9.36517e-05
9.92869e-05
0.000179961
7.59172e-05
5.40547e-07
5.54168e-05
0.000435015
0.000112393
0.000119547
4.98973e-06
0.00021926
0.000605002
0.000443875
0.000442631
0.000585041
0.000345146
3.13163e-05
3.29097e-05
8.92537e-05
0.000127261
0.000145568
6.47464e-05
2.90034e-05
0.000185156
0.000183876
0.000168757
6.42817e-05
0.000113091
2.4223e-06
0.000165116
0.00015068
0.000272804
0.000186346
2.67282e-05
5.29354e-05
7.87707e-05
0.00093548
0.00133385
0.00151948
0.00155343
0.00181807
0.00194869
0.00191183
0.00189803
0.00176579
0.00192052
0.00197843
0.00228939
0.00257689
0.00270096
0.00284551
0.0033454
0.00321038
0.00325336
0.00326246
0.00309742
0.00105637
0.00119892
0.00164498
0.00165692
0.00189155
0.00181448
0.00173363
0.001798
0.00158037
0.00172753
0.00176366
0.00198138
0.0022566
0.00233706
0.00268133
0.00292737
0.00288232
0.00281995
0.00284128
0.00267816
0.000883513
0.00111964
0.00143468
0.00165881
0.00175076
0.00172792
0.00147282
0.00175871
0.00167046
0.00149372
0.00172195
0.00187409
0.00184151
0.00208799
0.00213255
0.00240114
0.00259296
0.00264219
0.00256273
0.00247786
0.000889312
0.00108153
0.00128647
0.00115656
0.00121138
0.0013441
0.00146096
0.0014768
0.00140828
0.00143893
0.00149313
0.00130363
0.00156224
0.00203227
0.0020721
0.00205093
0.00202801
0.00207862
0.00216161
0.0019847
0.000659889
0.000790963
0.000993786
0.00099049
0.00101042
0.001128
0.00104608
0.00114252
0.000888721
0.00125949
0.00126137
0.00121136
0.00142721
0.00159456
0.00173487
0.00148708
0.00183405
0.0018102
0.0015458
0.00157975
0.000437432
0.000714263
0.000732916
0.000829451
0.000647995
0.000817363
0.000853818
0.000667089
0.000870163
0.00103763
0.00100549
0.000936882
0.00103776
0.00100637
0.00117436
0.000982764
0.00124362
0.00098842
0.00115067
0.00109848
0.000423165
0.000214018
0.000611375
0.000423611
0.000496476
0.000837028
0.000436093
0.000372995
0.00046311
0.000480426
0.00052331
0.000424522
0.000777533
0.000530212
0.000498671
0.000743639
0.000841051
0.000665416
0.000586668
0.000715688
0.000107913
7.548e-05
0.000125854
0.000149699
7.23551e-05
4.37025e-05
0.00025413
7.24422e-05
9.29573e-06
0.000157564
0.000111093
0.000278883
0.000163436
0.000193848
0.000360503
0.000301794
0.000202458
0.000239377
0.000215354
0.000235847
0.00139351
0.0020735
0.00239251
0.00253329
0.00304306
0.00308456
0.00326388
0.00321125
0.00325548
0.00365945
0.00396126
0.00387609
0.00402299
0.00428619
0.00448227
0.00472504
0.00457511
0.00452491
0.00440307
0.0040265
0.00172975
0.00188438
0.00211876
0.00242176
0.00250472
0.0029853
0.00289929
0.00280702
0.00315884
0.00317256
0.00346702
0.00339741
0.00373718
0.00373726
0.00403689
0.00418202
0.00405855
0.00380357
0.00374097
0.00348459
0.00123879
0.00186112
0.00212403
0.00209489
0.00241418
0.00262685
0.00266311
0.00264795
0.00259281
0.00289544
0.00295032
0.00296998
0.00309175
0.00338632
0.00325802
0.00355874
0.00345965
0.00351524
0.00320267
0.00310151
0.00118903
0.00145765
0.00180858
0.00201276
0.00204576
0.00237958
0.00209253
0.00244611
0.00216076
0.00253331
0.0023955
0.00251904
0.00253443
0.00275432
0.0030092
0.00264268
0.00289144
0.00272793
0.0028169
0.00251644
0.000920914
0.00125876
0.0014584
0.00168863
0.00180303
0.00156554
0.00165121
0.0019014
0.0018417
0.0017288
0.00201876
0.0019338
0.00180881
0.00233866
0.00221785
0.00231519
0.0023059
0.00219164
0.00223835
0.00178188
0.000928082
0.000944689
0.00126861
0.0010983
0.00130295
0.00138698
0.00132545
0.00128583
0.00143033
0.00117361
0.00153465
0.00139202
0.00174648
0.00157029
0.00176244
0.00161214
0.0015864
0.00160965
0.00155745
0.00151667
0.000610412
0.000404414
0.00062025
0.000698429
0.000765442
0.000806653
0.000865815
0.000765608
0.00105091
0.00106461
0.00105658
0.000844836
0.000830071
0.0010273
0.000947537
0.00116924
0.00118328
0.00101129
0.000990325
0.000702811
0.000132447
0.000285552
0.000185579
0.000116302
0.000141538
0.000163346
0.00017462
0.000184138
0.000313348
0.000286239
0.000304907
0.000204426
0.000408272
0.000328644
0.000290197
0.000403475
0.000373403
0.000356662
0.000418259
0.000263944
0.00197764
0.00264233
0.00289228
0.00310388
0.00391625
0.00402626
0.0042208
0.00463458
0.00471511
0.00489417
0.00484216
0.00522309
0.00537277
0.0054713
0.00568915
0.00569031
0.00531162
0.00541917
0.00506585
0.00442254
0.0019272
0.00240429
0.00276364
0.00314142
0.00355661
0.00376961
0.00385276
0.00410519
0.00434137
0.00445115
0.00450046
0.00455761
0.00464138
0.00491789
0.00504879
0.00505342
0.00503795
0.0047011
0.00472628
0.00408647
0.00166771
0.00222898
0.00257297
0.00294517
0.00319294
0.00329702
0.003557
0.00351265
0.00360423
0.00380804
0.00371217
0.00396377
0.00403433
0.00438401
0.00447521
0.00444678
0.00408156
0.00413836
0.00378562
0.00352368
0.00152994
0.0019464
0.00210016
0.00249981
0.00284095
0.00278277
0.00298551
0.00294467
0.0033173
0.00311668
0.00326339
0.00312892
0.00329799
0.00350228
0.00352323
0.00360593
0.00356963
0.00323867
0.00320699
0.00294192
0.00147685
0.00126318
0.00177708
0.00201106
0.00206419
0.00218153
0.00253043
0.00232939
0.00235322
0.00255384
0.00272612
0.00266963
0.00257831
0.0029391
0.00274548
0.00279389
0.0026856
0.00249217
0.00264734
0.00237323
0.00097318
0.00123599
0.00121419
0.00166028
0.00158068
0.00174905
0.00165564
0.00198356
0.00165109
0.00160626
0.00193133
0.00205688
0.00201946
0.00205211
0.00202137
0.00202896
0.00210441
0.00159777
0.00193394
0.00161741
0.000556749
0.000531314
0.000851281
0.000755429
0.00117101
0.000833171
0.000979772
0.00133248
0.0011655
0.00109432
0.00115215
0.0013104
0.00118614
0.00114265
0.00108079
0.00124253
0.0011854
0.000956719
0.00116919
0.00100508
0.000221072
0.000240801
0.000133283
0.000365843
0.000406402
0.000221426
0.000590953
0.000117014
0.000273315
0.000315033
0.00042912
0.000396778
0.000300678
0.00042369
0.000465554
0.000450264
0.000564694
0.000390196
0.00018403
0.000334459
0.00211736
0.00249009
0.0032616
0.00403194
0.00452415
0.00466767
0.00514034
0.00525572
0.00535877
0.00549787
0.00581209
0.00619098
0.00619299
0.00638065
0.00620879
0.00644161
0.00639649
0.00607182
0.00571341
0.00514301
0.00205775
0.00242799
0.00337022
0.00374643
0.00399853
0.00438024
0.00469556
0.00475968
0.0047564
0.00513098
0.00538323
0.00524862
0.00538741
0.00591835
0.00559897
0.00569107
0.00545612
0.00513136
0.00498138
0.00453404
0.00165502
0.00228708
0.00277384
0.00329642
0.00335373
0.00391088
0.00410301
0.00434142
0.0041678
0.00440698
0.00445366
0.00463694
0.00470533
0.00496901
0.00503108
0.00485585
0.00485702
0.00431762
0.00412878
0.0038588
0.00152878
0.00199617
0.00233481
0.00284162
0.00289306
0.00330528
0.00325716
0.00360851
0.00355193
0.00374437
0.0038746
0.00399482
0.00406252
0.00401746
0.00394595
0.00424464
0.00401579
0.00355662
0.00344842
0.00324631
0.00121214
0.00150923
0.00172556
0.00224752
0.00249267
0.00256217
0.00282176
0.00275694
0.00280985
0.00301495
0.00294342
0.00310196
0.00287441
0.00290627
0.00328959
0.00309292
0.00315533
0.00285482
0.00277151
0.00249594
0.00093109
0.000951312
0.00159579
0.00151174
0.0017982
0.00174644
0.00209324
0.00212603
0.00203587
0.00221669
0.00225155
0.00230603
0.00228904
0.00224947
0.00233899
0.00232303
0.00231844
0.0024308
0.00201625
0.00188222
0.000531717
0.000572247
0.00102701
0.00092804
0.00117604
0.00121736
0.00110098
0.00141472
0.00125558
0.00147099
0.00141374
0.00140094
0.00131506
0.00149917
0.00139937
0.00142417
0.00145665
0.00127802
0.00145706
0.00108241
0.000175243
0.000177816
0.000377883
0.000254927
0.00042787
0.000533088
0.000312814
0.000198066
0.000572106
0.000584234
0.000629853
0.000356001
0.000478492
0.000563553
0.000491295
0.000532068
0.000475882
0.00050309
0.000242675
0.000437688
0.00180387
0.00252014
0.00336398
0.00393784
0.00451173
0.00518901
0.00543255
0.00576291
0.00599049
0.00615431
0.00626684
0.00672506
0.00679088
0.00665516
0.00692853
0.0067116
0.00656162
0.00610085
0.00572292
0.00499307
0.0016567
0.00197644
0.00303678
0.00355455
0.00412387
0.00466882
0.0047641
0.00515827
0.00535479
0.00542054
0.00560549
0.00597927
0.00583571
0.00617737
0.00580943
0.00583606
0.00556564
0.0052945
0.00503121
0.00449187
0.00144413
0.00195366
0.00283443
0.00326798
0.00381993
0.00415323
0.00421377
0.00454835
0.0048371
0.004997
0.00497196
0.00507318
0.00503753
0.00523725
0.00538309
0.0050983
0.0049919
0.00463017
0.0043122
0.0039181
0.00151681
0.00181984
0.00259952
0.00281936
0.00315759
0.00348605
0.00377386
0.0037942
0.00392297
0.0040496
0.0042309
0.00424972
0.004195
0.00436397
0.00440195
0.0043106
0.00414381
0.00395422
0.00365308
0.0033073
0.0012
0.00157843
0.00189989
0.00228093
0.00241844
0.00260147
0.00285131
0.0029378
0.00333316
0.00328536
0.00324592
0.00340348
0.00327207
0.00362003
0.00344419
0.00345314
0.0032765
0.00320762
0.00268479
0.00279681
0.00100695
0.00124667
0.00128643
0.00174225
0.00200274
0.00214656
0.0021779
0.00220097
0.0023741
0.00215335
0.00244833
0.00237846
0.00241148
0.00245905
0.00248971
0.00233267
0.00260622
0.00232675
0.0019855
0.00195186
0.000681869
0.000818723
0.000941719
0.00112845
0.00101432
0.00110028
0.00135211
0.0015262
0.00131986
0.00141933
0.0012682
0.00155003
0.00165553
0.0013329
0.00167335
0.00141299
0.00134266
0.0012856
0.00119033
0.00102429
0.000304227
0.000153729
0.000604486
0.000500348
0.000459563
0.000391071
0.000383149
0.000535949
0.000416567
0.000525297
0.000318063
0.00041596
0.000465382
0.000548116
0.000891685
0.000708768
0.00037465
0.00049217
0.00050525
0.000460367
0.000844062
0.00180827
0.00279846
0.0037428
0.00400906
0.00504214
0.00527294
0.00572106
0.00614398
0.00627857
0.0064986
0.00686512
0.00677621
0.00689856
0.00675619
0.00665754
0.00638292
0.00607783
0.0052122
0.00469734
0.00111286
0.00181768
0.00268782
0.00352602
0.00407315
0.00454714
0.00487448
0.00507748
0.00551312
0.00570052
0.00619794
0.0060038
0.00625988
0.006238
0.0061533
0.00610533
0.005632
0.00522942
0.00480693
0.00428821
0.00105338
0.00172408
0.00229506
0.00307175
0.0034687
0.00408808
0.00443238
0.00478948
0.00495867
0.00523772
0.00533144
0.00536318
0.00537668
0.00513845
0.00535705
0.00511493
0.00498184
0.00458819
0.00413887
0.00367656
0.000945356
0.00123763
0.00202075
0.0025852
0.00292783
0.00353485
0.00355978
0.00371697
0.00391387
0.00406456
0.0042448
0.00445299
0.00453596
0.00449025
0.00461691
0.00442654
0.00399895
0.00366231
0.00340546
0.003121
0.000966367
0.00125918
0.00172422
0.00210733
0.00241058
0.00279345
0.00282066
0.00308979
0.00308359
0.00320635
0.00338169
0.00349836
0.00359809
0.0034371
0.00352698
0.00326638
0.00326718
0.00290068
0.00273292
0.00241177
0.00056997
0.000897644
0.00135596
0.00159132
0.00175518
0.00218399
0.00207096
0.00201197
0.0024166
0.00246098
0.00239741
0.00243006
0.00261286
0.00259664
0.00253109
0.00246437
0.00217839
0.00226317
0.00188889
0.00159603
0.000473679
0.000628377
0.000998378
0.000989646
0.00111292
0.00112167
0.00143116
0.00156577
0.0015414
0.00148829
0.00147645
0.00162631
0.00147357
0.0014586
0.00168154
0.00151572
0.001369
0.00137965
0.00111564
0.00119262
0.000163228
0.000138469
0.00020926
0.000413746
8.86348e-05
0.000160639
0.000515688
0.000635795
0.000638232
0.000586993
0.000577515
0.000648331
0.000846551
0.000416645
0.000633106
0.000803924
0.000475618
0.000225222
0.000239677
0.00048838
7.61533e-05
0.00122326
0.00207981
0.00303657
0.0037154
0.00450316
0.00492956
0.00548334
0.00557543
0.00614099
0.00649355
0.00649343
0.00674263
0.0065106
0.00673787
0.00624846
0.00593654
0.00543386
0.00477103
0.00380275
0.000262023
0.00116517
0.00217625
0.00281097
0.00355609
0.0040609
0.00449647
0.00488702
0.0053956
0.00550365
0.0058987
0.00587294
0.00580572
0.00588491
0.0060917
0.00556277
0.00524649
0.00476447
0.0042625
0.00353695
0.000510703
0.000989319
0.00188917
0.00264573
0.00318027
0.00351238
0.00398628
0.0043433
0.00456282
0.00489323
0.00499959
0.00509628
0.00530634
0.00500791
0.00499747
0.00490316
0.00475889
0.00422514
0.00364717
0.0030679
0.000474226
0.00109079
0.00159965
0.00210584
0.0026177
0.00299894
0.0033932
0.0035114
0.0037015
0.00385751
0.00424787
0.00435515
0.00447312
0.00418447
0.00420919
0.00399196
0.00382442
0.00362183
0.00289729
0.0024546
0.000462031
0.000870721
0.00163763
0.00191372
0.00215295
0.00241002
0.00277804
0.00299951
0.00317351
0.00327869
0.00343093
0.00337466
0.00348158
0.00333292
0.00330778
0.00313234
0.00296731
0.0029233
0.0025401
0.00215251
0.000485142
0.000529641
0.00111953
0.00146493
0.00151489
0.00165936
0.00194189
0.00204627
0.00225242
0.00257836
0.00260868
0.00247837
0.00258091
0.0025228
0.00252991
0.00243315
0.00230936
0.00196665
0.00182917
0.00165721
0.000246145
0.000524399
0.000599054
0.000796148
0.000983385
0.00113166
0.00115179
0.0014362
0.00137432
0.00135484
0.00158089
0.001597
0.00157552
0.00137201
0.00147813
0.00161333
0.00110349
0.00127096
0.00107206
0.000938031
0.00032306
3.90984e-05
0.000154977
0.000295477
0.000341325
0.000367988
0.000497849
0.00047378
0.000563463
0.000603076
0.000503134
0.000615762
0.000403323
0.000582579
0.00049347
0.000543784
0.000384422
0.000578653
0.000285526
0.000401084
0.00150689
0.000287784
0.000950816
0.00189844
0.00267876
0.00350799
0.00412517
0.00444894
0.00518044
0.00544141
0.00578192
0.00588434
0.00582759
0.00591326
0.00575249
0.00548751
0.00503018
0.00445159
0.00368545
0.00293785
0.000989557
0.000187289
0.00108297
0.00172475
0.00270699
0.00320801
0.00403034
0.00447458
0.00466303
0.0048559
0.00516965
0.00518127
0.00538818
0.00519063
0.00517707
0.00487269
0.00449835
0.00394617
0.00326224
0.00280367
0.00055333
4.81889e-05
0.000883158
0.00169102
0.0026616
0.00289497
0.00351395
0.00397859
0.00409953
0.00439499
0.00454865
0.00454203
0.00461949
0.00471791
0.00465847
0.00431053
0.00377917
0.00349264
0.00283478
0.00239175
8.49485e-06
0.000381119
0.00112853
0.00160786
0.00201473
0.00258996
0.00299367
0.00332162
0.0033671
0.00365624
0.00365813
0.00401233
0.00386285