/*--------------------------------*- C++ -*----------------------------------*\
| =========                 |                                                 |
| \\      /  F ield         | OpenFOAM: The Open Source CFD Toolbox           |
|  \\    /   O peration     | Version:  2212                                  |
|   \\  /    A nd           | Website:  www.openfoam.com                      |
|    \\/     M anipulation  |                                                 |
\*---------------------------------------------------------------------------*/
FoamFile
{
    version     2.0;
    format      ascii;
    arch        "LSB;label=32;scalar=64";
    class       volScalarField;
    location    "0";
    object      stateMean;
}
// * * * * * * * * * * * * * * * * * * * * * * * * * * * * * * * * * * * * * //

dimensions      [0 0 0 1 0 0 0];

internalField   nonuniform List<scalar> 
3200
(
312.696
312.668
312.728
312.695
312.674
312.669
312.646
312.692
312.613
312.573
312.587
312.584
312.565
312.611
312.633
312.584
312.652
312.547
312.496
312.467
310.979
310.997
311.101
311.058
311.065
311.088
311.061
311.014
311.005
310.969
310.895
310.929
310.895
310.996
310.937
311.004
310.926
310.888
310.977
310.85
309.41
309.366
309.427
309.408
309.383
309.391
309.356
309.356
309.326
309.276
309.368
309.278
309.297
309.3
309.301
309.25
309.293
309.219
309.192
309.206
307.704
307.718
307.553
307.72
307.712
307.719
307.709
307.636
307.577
307.609
307.608
307.652
307.587
307.667
307.673
307.601
307.529
307.513
307.451
307.53
305.985
306.017
305.964
305.991
306.024
306.014
306.009
305.979
305.981
305.928
305.965
305.912
305.934
305.937
305.93
305.951
305.94
305.878
305.83
305.832
304.296
304.376
304.254
304.266
304.301
304.328
304.319
304.29
304.296
304.324
304.187
304.26
304.309
304.263
304.29
304.276
304.103
304.205
304.153
304.17
302.553
302.608
302.584
302.559
302.548
302.574
302.614
302.496
302.595
302.51
302.547
302.558
302.551
302.638
302.59
302.48
302.605
302.532
302.502
302.564
300.818
300.846
300.932
300.902
300.808
300.892
300.826
300.816
300.818
300.887
300.888
300.824
300.86
300.901
300.845
300.858
300.822
300.918
300.876
300.847
313.169
313.294
313.309
313.342
313.361
313.327
313.37
313.418
313.29
313.332
313.352
313.338
313.302
313.332
313.388
313.342
313.303
313.195
313.217
313.195
311.547
311.598
311.562
311.581
311.611
311.587
311.631
311.555
311.57
311.553
311.614
311.526
311.527
311.607
311.56
311.533
311.476
311.443
311.42
311.405
309.818
309.815
309.829
309.815
309.845
309.908
309.863
309.79
309.841
309.804
309.744
309.814
309.714
309.806
309.814
309.786
309.729
309.697
309.648
309.643
307.961
308.053
308.099
308.099
308.051
308.093
308.069
308.045
307.999
307.997
307.993
308.021
307.922
308.079
308.028
307.998
307.968
307.936
307.843
307.853
306.214
306.312
306.34
306.309
306.228
306.29
306.262
306.226
306.265
306.212
306.317
306.233
306.176
306.207
306.261
306.204
306.204
306.183
306.155
306.121
304.429
304.421
304.494
304.535
304.451
304.454
304.452
304.496
304.476
304.386
304.489
304.372
304.48
304.489
304.47
304.393
304.434
304.425
304.409
304.434
302.622
302.654
302.724
302.704
302.689
302.741
302.637
302.739
302.63
302.678
302.661
302.717
302.667
302.641
302.669
302.612
302.694
302.613
302.651
302.683
300.969
300.926
300.865
300.873
300.947
300.941
300.89
300.941
300.859
300.975
300.854
300.844
300.834
300.892
300.893
300.873
300.872
300.903
300.928
300.9
314.071
314.139
314.163
314.269
314.262
314.274
314.276
314.31
314.377
314.315
314.311
314.335
314.34
314.367
314.391
314.319
314.252
314.198
314.185
314.07
312.225
312.235
312.337
312.372
312.435
312.401
312.354
312.437
312.361
312.402
312.366
312.468
312.422
312.427
312.375
312.423
312.324
312.284
312.22
312.128
310.391
310.344
310.402
310.449
310.52
310.483
310.553
310.424
310.475
310.462
310.493
310.468
310.406
310.485
310.489
310.456
310.465
310.356
310.347
310.299
308.456
308.525
308.597
308.562
308.556
308.603
308.602
308.615
308.618
308.573
308.632
308.593
308.628
308.556
308.603
308.534
308.416
308.527
308.361
308.454
306.556
306.636
306.686
306.723
306.654
306.753
306.712
306.693
306.687
306.714
306.641
306.719
306.646
306.605
306.657
306.62
306.607
306.612
306.526
306.558
304.756
304.725
304.736
304.798
304.796
304.786
304.718
304.762
304.836
304.755
304.74
304.79
304.721
304.787
304.776
304.7
304.769
304.718
304.746
304.685
302.81
302.859
302.822
302.856
302.898
302.934
302.866
302.874
302.877
302.842
302.851
302.822
302.806
302.819
302.803
302.877
302.784
302.815
302.89
302.861
301.01
300.999
300.964
300.922
300.888
300.976
300.959
300.934
300.929
300.951
300.958
300.944
300.988
300.985
300.984
300.987
300.915
300.973
300.934
300.929
314.981
315.052
315.185
315.32
315.27
315.315
315.357
315.416
315.43
315.417
315.379
315.482
315.459
315.387
315.362
315.371
315.249
315.177
315.162
315.097
312.93
313.07
313.17
313.191
313.297
313.279
313.343
313.283
313.377
313.327
313.315
313.355
313.366
313.376
313.303
313.247
313.271
313.172
313.138
313.001
311.02
311.1
311.199
311.135
311.194
311.217
311.225
311.299
311.282
311.291
311.29
311.297
311.23
311.253
311.188
311.215
311.159
311.142
311.04
311.015
309.025
309.089
309.156
309.197
309.211
309.108
309.188
309.26
309.224
309.253
309.24
309.258
309.163
309.292
309.238
309.156
309.145
309.074
309.094
308.988
307.047
307.025
307.127
307.122
307.169
307.154
307.099
307.135
307.193
307.088
307.094
307.21
307.166
307.13
307.122
307.121
307.09
307.102
306.957
306.934
305.09
305.007
305.077
305.082
305.182
305.087
305.123
305.178
305.101
305.127
305.187
305.089
305.084
305.137
305.152
305.085
305.001
305.02
304.984
305
303.061
302.968
303.013
303.047
303.076
303.079
303.065
303.072
303.053
303.045
303.062
303.095
303.079
303.092
303.076
303.086
303.017
302.958
302.978
302.981
301.002
300.981
301.004
301.084
301.009
301.077
301.071
301.055
301.015
300.976
301.027
301.009
301.044
301.037
301.077
301.04
301.005
301.018
301.023
300.953
315.887
316
316.154
316.214
316.33
316.375
316.464
316.411
316.532
316.472
316.527
316.557
316.558
316.535
316.519
316.501
316.36
316.31
316.253
316.099
313.768
313.892
314.047
314.089
314.124
314.25
314.27
314.251
314.32
314.361
314.374
314.358
314.352
314.292
314.278
314.266
314.195
314.132
314
313.944
311.706
311.74
311.822
311.889
312.017
312.038
312.104
311.999
312.134
312.167
312.126
312.117
312.169
312.118
312.014
312.025
311.97
311.893
311.832
311.823
309.527
309.618
309.683
309.743
309.812
309.839
309.858
309.873
309.915
309.928
309.873
309.842
309.899
309.913
309.837
309.816
309.763
309.721
309.7
309.571
307.41
307.5
307.494
307.606
307.635
307.652
307.63
307.686
307.663
307.677
307.717
307.665
307.688
307.672
307.682
307.644
307.58
307.559
307.544
307.47
305.393
305.344
305.406
305.423
305.446
305.556
305.552
305.418
305.458
305.573
305.517
305.561
305.523
305.462
305.435
305.452
305.5
305.345
305.332
305.292
303.179
303.254
303.202
303.281
303.272
303.291
303.256
303.28
303.298
303.288
303.338
303.319
303.253
303.284
303.329
303.262
303.273
303.203
303.218
303.161
301.098
301.096
301.061
301.08
301.023
301.115
301.108
301.136
301.094
301.039
301.103
301.099
301.125
301.102
301.075
301.126
301.105
301.149
301.059
301.006
316.869
317.029
317.158
317.306
317.409
317.536
317.549
317.656
317.57
317.69
317.654
317.686
317.742
317.627
317.626
317.581
317.538
317.411
317.306
317.19
314.597
314.734
314.87
315.084
315.055
315.163
315.194
315.244
315.258
315.332
315.298
315.295
315.288
315.259
315.333
315.17
315.166
315.081
314.936
314.935
312.38
312.57
312.602
312.632
312.819
312.84
312.886
312.918
312.938
312.97
312.942
312.942
312.992
312.958
312.905
312.818
312.692
312.662
312.598
312.557
310.142
310.195
310.29
310.34
310.452
310.504
310.529
310.498
310.497
310.598
310.647
310.621
310.548
310.503
310.581
310.544
310.439
310.435
310.351
310.22
307.891
307.989
307.993
308.059
308.154
308.18
308.192
308.153
308.217
308.183
308.247
308.212
308.165
308.181
308.166
308.138
308.091
308.082
308.04
307.956
305.679
305.739
305.758
305.811
305.843
305.837
305.891
305.83
305.904
305.818
305.849
305.846
305.84
305.9
305.767
305.769
305.778
305.703
305.691
305.704
303.418
303.413
303.47
303.413
303.484
303.553
303.511
303.536
303.501
303.524
303.467
303.518
303.542
303.487
303.547
303.485
303.544
303.462
303.421
303.439
301.098
301.133
301.212
301.171
301.176
301.17
301.183
301.185
301.167
301.132
301.192
301.19
301.225
301.211
301.181
301.204
301.111
301.153
301.148
301.222
317.819
317.974
318.242
318.38
318.515
318.554
318.704
318.764
318.723
318.773
318.817
318.886
318.821
318.844
318.793
318.733
318.711
318.548
318.373
318.209
315.467
315.637
315.756
315.886
315.989
316.099
316.214
316.234
316.255
316.276
316.355
316.335
316.358
316.282
316.25
316.209
316.133
316.013
315.888
315.745
313.16
313.198
313.307
313.53
313.489
313.598
313.683
313.71
313.767
313.771
313.793
313.783
313.827
313.744
313.684
313.758
313.615
313.515
313.42
313.308
310.735
310.899
310.952
310.995
311.108
311.175
311.17
311.243
311.244
311.279
311.219
311.25
311.247
311.226
311.241
311.172
311.066
311.021
310.917
310.89
308.368
308.357
308.478
308.602
308.657
308.712
308.73
308.703
308.753
308.763
308.771
308.828
308.768
308.763
308.678
308.671
308.596
308.593
308.493
308.505
305.978
306.022
306.016
306.127
306.255
306.142
306.218
306.266
306.166
306.305
306.313
306.307
306.286
306.145
306.236
306.274
306.119
306.134
306.058
306.131
303.582
303.604
303.646
303.714
303.75
303.74
303.727
303.743
303.739
303.74
303.638
303.729
303.717
303.739
303.696
303.754
303.713
303.712
303.619
303.617
301.144
301.156
301.26
301.285
301.28
301.318
301.335
301.229
301.202
301.248
301.313
301.207
301.221
301.267
301.211
301.288
301.256
301.234
301.284
301.22
318.8
318.939
319.165
319.337
319.502
319.705
319.781
319.801
319.955
319.978
320.031
320.094
319.988
320.02
319.925
319.849
319.76
319.546
319.459
319.282
316.343
316.396
316.699
316.762
316.913
317.118
317.145
317.249
317.222
317.282
317.333
317.351
317.247
317.254
317.239
317.109
317.053
316.979
316.822
316.647
313.786
313.882
314.133
314.208
314.279
314.375
314.502
314.534
314.579
314.614
314.645
314.645
314.602
314.512
314.511
314.504
314.44
314.384
314.263
314.091
311.339
311.419
311.525
311.641
311.732
311.786
311.881
311.898
311.972
311.955
312.038
311.984
311.991
311.957
311.908
311.859
311.819
311.666
311.621
311.466
308.806
308.913
309.067
309.012
309.065
309.135
309.153
309.255
309.257
309.29
309.303
309.237
309.347
309.258
309.307
309.22
309.179
309.132
309.038
308.945
306.283
306.342
306.396
306.503
306.521
306.589
306.524
306.596
306.688
306.631
306.742
306.67
306.627
306.59
306.516
306.578
306.548
306.515
306.44
306.38
303.779
303.81
303.804
303.913
303.954
303.956
303.975
304.019
303.995
303.955
303.946
304.03
304.025
303.977
303.996
304.009
303.918
303.879
303.836
303.871
301.278
301.246
301.294
301.311
301.268
301.299
301.326
301.283
301.31
301.364
301.324
301.341
301.377
301.356
301.28
301.312
301.322
301.282
301.258
301.343
319.714
319.919
320.151
320.382
320.547
320.737
320.798
320.994
321.003
321.074
321.15
321.194
321.102
321.058
321.086
320.972
320.883
320.657
320.512
320.337
317.111
317.256
317.463
317.68
317.856
317.956
318.089
318.12
318.232
318.236
318.235
318.329
318.317
318.292
318.167
318.189
318.042
317.922
317.726
317.556
314.51
314.611
314.806
314.972
315.113
315.199
315.292
315.287
315.374
315.4
315.395
315.48
315.449
315.361
315.428
315.276
315.187
315.117
315.016
314.844
311.888
311.986
312.185
312.281
312.374
312.433
312.477
312.548
312.642
312.587
312.661
312.707
312.692
312.571
312.569
312.498
312.475
312.341
312.197
312.189
309.256
309.335
309.414
309.534
309.669
309.677
309.657
309.749
309.832
309.821
309.897
309.823
309.836
309.826
309.768
309.767
309.708
309.583
309.534
309.426
306.639
306.735
306.736
306.765
306.823
306.946
306.948
306.943
307.037
307.023
307.043
307.035
307.024
306.964
306.943
306.929
306.878
306.82
306.761
306.79
304.002
303.964
304.025
304.088
304.096
304.134
304.192
304.141
304.183
304.21
304.325
304.217
304.2
304.135
304.171
304.252
304.165
304.128
304.136
304.037
301.327
301.316
301.365
301.313
301.407
301.395
301.377
301.451
301.347
301.456
301.424
301.436
301.396
301.436
301.42
301.445
301.407
301.346
301.342
301.342
320.659
320.919
321.145
321.331
321.592
321.801
321.938
322.058
322.104
322.2
322.218
322.272
322.276
322.192
322.089
322.082
321.863
321.701
321.538
321.351
317.944
318.101
318.386
318.542
318.769
318.889
318.993
319.12
319.128
319.215
319.226
319.255
319.266
319.185
319.164
319.098
318.932
318.759
318.623
318.459
315.152
315.32
315.54
315.739
315.897
316.012
316.041
316.222
316.258
316.237
316.309
316.323
316.248
316.235
316.14
316.102
316.033
315.921
315.774
315.654
312.432
312.567
312.73
312.794
312.917
313.058
313.184
313.263
313.295
313.331
313.348
313.262
313.29
313.363
313.286
313.179
313.067
312.977
312.904
312.774
309.649
309.748
309.887
309.968
310.055
310.169
310.214
310.301
310.263
310.4
310.401
310.364
310.389
310.384
310.357
310.203
310.229
310.139
309.981
309.934
306.879
307.004
307.065
307.153
307.155
307.263
307.324
307.308
307.399
307.466
307.456
307.42
307.422
307.371
307.373
307.258
307.28
307.143
307.138
307.082
304.178
304.138
304.292
304.27
304.327
304.464
304.372
304.377
304.422
304.437
304.45
304.41
304.501
304.4
304.361
304.402
304.397
304.308
304.251
304.267
301.39
301.388
301.414
301.433
301.421
301.424
301.498
301.451
301.432
301.485
301.471
301.519
301.478
301.479
301.52
301.49
301.449
301.448
301.43
301.428
321.469
321.812
322.069
322.276
322.603
322.77
322.964
323.059
323.154
323.325
323.422
323.354
323.321
323.293
323.219
323.144
322.933
322.754
322.56
322.315
318.73
318.885
319.093
319.33
319.496
319.783
319.874
319.942
320.123
320.164
320.258
320.199
320.238
320.141
320.118
320.031
319.852
319.629
319.476
319.289
315.748
316.031
316.226
316.336
316.555
316.735
316.847
316.924
316.965
317.091
317.109
317.084
317.064
317.075
316.934
316.917
316.767
316.665
316.454
316.335
312.92
313.074
313.276
313.437
313.544
313.74
313.732
313.91
313.869
314.01
313.967
313.981
313.938
313.939
313.937
313.731
313.711
313.563
313.499
313.335
310.036
310.195
310.328
310.474
310.586
310.583
310.674
310.804
310.822
310.806
310.896
310.851
310.775
310.887
310.786
310.745
310.666
310.555
310.498
310.303
307.248
307.291
307.441
307.442
307.559
307.636
307.662
307.688
307.759
307.694
307.805
307.747
307.83
307.737
307.751
307.654
307.592
307.545
307.479
307.429
304.366
304.326
304.422
304.478
304.531
304.573
304.62
304.611
304.714
304.726
304.724
304.651
304.631
304.669
304.616
304.654
304.625
304.541
304.504
304.394
301.441
301.494
301.475
301.464
301.483
301.5
301.513
301.523
301.566
301.561
301.567
301.534
301.59
301.559
301.538
301.562
301.542
301.527
301.534
301.481
322.39
322.72
322.944
323.163
323.573
323.748
323.936
324.17
324.269
324.364
324.347
324.433
324.409
324.339
324.284
324.145
323.874
323.758
323.501
323.177
319.427
319.677
319.916
320.166
320.428
320.616
320.751
320.919
321.058
321.125
321.141
321.127
321.09
321.091
321.025
320.906
320.771
320.534
320.417
320.116
316.417
316.675
316.888
317.116
317.303
317.439
317.613
317.673
317.754
317.847
317.816
317.868
317.838
317.874
317.812
317.699
317.476
317.383
317.167
317.003
313.463
313.658
313.792
314.006
314.202
314.268
314.406
314.454
314.614
314.573
314.619
314.555
314.565
314.568
314.5
314.442
314.341
314.148
314.053
313.905
310.547
310.531
310.756
310.899
310.985
311.086
311.253
311.237
311.278
311.358
311.412
311.376
311.315
311.379
311.261
311.211
311.108
310.978
310.96
310.825
307.503
307.619
307.659
307.846
307.871
307.97
307.982
308.117
308.039
308.037
308.137
308.164
308.128
308.104
308.053
308.009
307.983
307.777
307.833
307.701
304.494
304.508
304.633
304.634
304.79
304.716
304.784
304.913
304.876
304.861
304.879
304.92
304.868
304.834
304.791
304.812
304.765
304.665
304.702
304.631
301.516
301.529
301.506
301.586
301.609
301.562
301.681
301.545
301.597
301.613
301.647
301.635
301.601
301.631
301.635
301.622
301.646
301.584
301.511
301.55
323.241
323.468
323.85
324.237
324.532
324.706
324.971
325.1
325.197
325.277
325.378
325.467
325.403
325.372
325.204
325.151
325.001
324.757
324.509
324.217
320.163
320.373
320.788
321.028
321.226
321.459
321.657
321.757
321.812
321.962
322.042
321.97
321.958
322.049
321.849
321.768
321.575
321.352
321.189
320.955
316.999
317.275
317.525
317.791
317.91
318.18
318.323
318.466
318.458
318.558
318.573
318.607
318.581
318.597
318.535
318.386
318.285
318.014
317.858
317.696
313.94
314.148
314.332
314.574
314.672
314.877
314.929
315.095
315.115
315.196
315.237
315.254
315.237
315.168
315.078
315.096
314.943
314.715
314.603
314.479
310.836
310.976
311.103
311.329
311.468
311.55
311.683
311.705
311.753
311.831
311.809
311.843
311.742
311.709
311.776
311.655
311.611
311.454
311.368
311.235
307.754
307.794
308.036
308.055
308.189
308.215
308.359
308.4
308.394
308.46
308.471
308.477
308.45
308.407
308.398
308.351
308.303
308.293
308.121
308.047
304.646
304.677
304.842
304.84
304.942
304.98
304.967
305.081
305.046
305.117
305.1
305.09
305.051
305.089
305.035
305.018
305.001
304.918
304.947
304.814
301.556
301.563
301.632
301.604
301.665
301.706
301.646
301.618
301.736
301.741
301.755
301.67
301.702
301.722
301.693
301.696
301.67
301.67
301.582
301.635
324.015
324.347
324.742
325.054
325.363
325.698
325.879
326.068
326.199
326.283
326.319
326.438
326.402
326.275
326.262
326.076
325.904
325.628
325.384
325.047
320.792
320.978
321.423
321.698
321.988
322.263
322.382
322.579
322.693
322.74
322.799
322.893
322.797
322.835
322.628
322.537
322.343
322.147
321.957
321.7
317.57
317.802
318.169
318.399
318.666
318.856
318.949
319.116
319.25
319.323
319.315
319.325
319.271
319.274
319.246
319.071
318.946
318.739
318.55
318.354
314.457
314.608
314.926
315.07
315.25
315.423
315.574
315.63
315.706
315.764
315.821
315.808
315.756
315.76
315.711
315.613
315.486
315.351
315.184
315.019
311.236
311.397
311.553
311.73
311.83
311.941
312.066
312.131
312.281
312.281
312.268
312.303
312.235
312.305
312.204
312.152
312.04
311.959
311.741
311.732
308.066
308.171
308.223
308.404
308.527
308.609
308.653
308.687
308.759
308.701
308.792
308.761
308.752
308.739
308.715
308.628
308.67
308.543
308.398
308.357
304.864
304.923
304.985
305.067
305.057
305.106
305.203
305.273
305.221
305.258
305.212
305.291
305.313
305.197
305.281
305.179
305.132
305.09
305.037
304.968
301.652
301.612
301.756
301.734
301.73
301.717
301.722
301.773
301.741
301.775
301.713
301.74
301.751
301.771
301.868
301.805
301.696
301.722
301.718
301.699
324.65
325.055
325.487
325.909
326.108
326.548
326.715
326.934
327.124
327.193
327.265
327.358
327.277
327.243
327.105
326.968
326.766
326.552
326.159
325.9
321.433
321.737
322.112
322.482
322.755
322.998
323.183
323.311
323.497
323.58
323.74
323.655
323.692
323.621
323.515
323.409
323.159
322.929
322.697
322.453
318.134
318.411
318.674
319.006
319.214
319.488
319.664
319.832
319.924
320.033
320.062
320.052
320.018
319.888
319.892
319.738
319.613
319.403
319.179
318.967
314.838
314.982
315.295
315.542
315.717
315.97
316.033
316.127
316.22
316.283
316.34
316.39
316.385
316.326
316.311
316.188
315.987
315.811
315.664
315.523
311.599
311.73
311.926
312.099
312.246
312.414
312.465
312.583
312.606
312.656
312.711
312.735
312.741
312.657
312.643
312.512
312.461
312.292
312.189
312.049
308.243
308.372
308.549
308.659
308.748
308.914
308.91
308.916
309.059
309.081
309.061
309.063
309.102
309.072
309.021
308.967
308.84
308.828
308.677
308.559
304.986
305.051
305.185
305.206
305.266
305.289
305.402
305.458
305.461
305.45
305.446
305.487
305.429
305.411
305.46
305.389
305.321
305.302
305.199
305.206
301.672
301.67
301.699
301.768
301.624
301.706
301.82
301.861
301.865
301.851
301.848
301.868
301.924
301.79
301.849
301.894
301.786
301.704
301.7
301.77
325.411
325.868
326.249
326.666
326.989
327.339
327.561
327.807
327.884
328.092
328.206
328.183
328.217
328.076
328.068
327.815
327.61
327.341
327.023
326.623
322.031
322.393
322.807
323.103
323.431
323.675
323.887
324.07
324.273
324.329
324.457
324.427
324.366
324.335
324.33
324.078
323.887
323.641
323.391
323.086
318.696
318.907
319.268
319.586
319.831
320.006
320.217
320.379
320.484
320.606
320.64
320.654
320.687
320.543
320.48
320.38
320.26
320.012
319.754
319.51
315.288
315.531
315.752
315.974
316.197
316.374
316.547
316.624
316.712
316.775
316.898
316.918
316.927
316.797
316.756
316.63
316.516
316.39
316.1
315.913
311.906
312.07
312.357
312.492
312.614
312.738
312.891
312.991
313.066
313.111
313.159
313.129
313.141
313.064
313.018
312.919
312.82
312.758
312.591
312.433
308.547
308.586
308.802
308.944
308.993
309.069
309.183
309.237
309.317
309.425
309.434
309.387
309.402
309.362
309.338
309.277
309.204
309.064
308.987
308.908
305.116
305.216
305.259
305.34
305.418
305.482
305.504
305.604
305.594
305.593
305.662
305.662
305.647
305.572
305.588
305.61
305.434
305.464
305.383
305.327
301.786
301.682
301.748
301.797
301.818
301.832
301.877
301.874
301.904
301.918
301.888
301.92
301.853
301.903
301.87
301.879
301.824
301.876
301.78
301.81
325.959
326.434
326.933
327.337
327.684
328.041
328.316
328.481
328.761
328.868
328.979
328.992
328.932
328.9
328.774
328.602
328.36
328.076
327.731
327.41
322.544
322.989
323.359
323.649
324.047
324.282
324.612
324.807
324.903
324.984
325.086
325.071
325.102
324.987
324.918
324.747
324.545
324.284
323.982
323.768
319.127
319.373
319.708
320.036
320.415
320.551
320.803
320.995
321.064
321.173
321.223
321.205
321.2
321.188
321.115
320.941
320.703
320.542
320.263
320.068
315.764
315.931
316.222
316.432
316.616
316.849
317.02
317.159
317.198
317.303
317.304
317.402
317.33
317.287
317.26
317.094
316.986
316.784
316.575
316.379
312.199
312.398
312.633
312.834
312.959
313.094
313.207
313.398
313.468
313.479
313.559
313.523
313.512
313.475
313.392
313.313
313.27
313.072
312.894
312.744
308.738
308.876
308.993
309.13
309.219
309.356
309.475
309.458
309.583
309.622
309.567
309.671
309.668
309.666
309.565
309.537
309.394
309.337
309.26
309.158
305.218
305.345
305.486
305.503
305.578
305.649
305.669
305.732
305.779
305.706
305.8
305.829
305.841
305.822
305.787
305.714
305.609
305.636
305.545
305.496
301.754
301.823
301.768
301.775
301.85
301.912
301.938
301.915
301.865
302.014
301.932
301.864
302.005
301.93
301.965
301.907
301.871
301.909
301.879
301.872
326.61
327.071
327.528
327.973
328.388
328.703
329.001
329.2
329.476
329.622
329.713
329.655
329.74
329.664
329.506
329.301
329.075
328.757
328.42
328
323.082
323.434
323.917
324.269
324.613
324.843
325.151
325.387
325.476
325.633
325.729
325.753
325.699
325.604
325.561
325.384
325.138
324.794
324.553
324.212
319.578
319.816
320.193
320.517
320.844
321.045
321.281
321.386
321.552
321.705
321.789
321.725
321.758
321.655
321.628
321.486
321.263
321.026
320.818
320.54
316.029
316.218
316.58
316.791
317
317.227
317.402
317.523
317.698
317.764
317.812
317.781
317.795
317.755
317.682
317.528
317.369
317.13
317.026
316.765
312.444
312.606
312.882
313.073
313.251
313.386
313.639
313.603
313.723
313.885
313.771
313.882
313.772
313.759
313.724
313.635
313.498
313.356
313.205
313.06
308.923
309.073
309.245
309.317
309.481
309.56
309.685
309.754
309.891
309.851
309.92
309.864
309.893
309.845
309.733
309.673
309.608
309.571
309.432
309.382
305.395
305.43
305.543
305.623
305.745
305.775
305.833
305.904
305.961
305.873
305.898
305.944
305.991
305.904
305.876
305.857
305.851
305.743
305.665
305.63
301.799
301.825
301.905
301.854
301.896
301.965
302.015
301.96
302.024
301.968
301.981
302
301.983
301.987
301.992
301.976
302
301.931
301.839
301.869
326.985
327.522
328.058
328.505
328.87
329.256
329.604
329.887
330.045
330.214
330.261
330.364
330.387
330.264
330.104
329.896
329.66
329.388
328.951
328.618
323.482
323.87
324.306
324.716
325.122
325.453
325.597
325.854
325.974
326.158
326.259
326.246
326.248
326.172
326.099
325.83
325.63
325.373
325.01
324.708
319.95
320.204
320.542
320.924
321.172
321.496
321.766
321.887
322.004
322.117
322.203
322.289
322.166
322.113
322.008
321.892
321.673
321.454
321.19
320.984
316.332
316.532
316.872
317.072
317.404
317.592
317.771
317.901
317.985
318.082
318.174
318.152
318.117
318.133
318.019
317.9
317.706
317.486
317.314
317.143
312.65
312.828
313.158
313.333
313.484
313.649
313.805
313.911
314.041
314.118
314.115
314.15
314.108
314.052
314.005
313.914
313.793
313.661
313.42
313.254
309.042
309.237
309.391
309.493
309.629
309.818
309.816
309.924
310.045
310.023
310.108
310.05
310.131
310.053
310.005
309.941
309.901
309.692
309.568
309.562
305.472
305.508
305.577
305.77
305.809
305.854
306.02
305.915
306.033
306
306.058
306.016
306.096
306.042
305.942
305.935
305.973
305.874
305.699
305.687
301.908
301.788
301.864
301.885
301.933
302.041
301.977
301.995
302.031
301.986
301.986
302.042
302.029
302.025
302.027
302.005
302.043
301.96
301.963
301.899
327.375
327.904
328.356
328.9
329.272
329.677
330.016
330.189
330.518
330.655
330.757
330.728
330.739
330.664
330.533
330.255
330.06
329.706
329.41
329.012
323.69
324.125
324.554
324.943
325.337
325.702
325.964
326.226
326.398
326.466
326.553
326.622
326.627
326.532
326.368
326.284
325.932
325.693
325.384
325.027
320.108
320.438
320.802
321.173
321.458
321.745
321.883
322.091
322.301
322.415
322.464
322.502
322.447
322.439
322.344
322.152
321.963
321.736
321.448
321.18
316.514
316.754
317.002
317.287
317.655
317.792
317.994
318.04
318.271
318.267
318.251
318.425
318.371
318.369
318.234
318.108
317.873
317.775
317.524
317.362
312.833
313.036
313.189
313.456
313.702
313.875
313.922
314.109
314.242
314.209
314.269
314.31
314.328
314.237
314.179
314.032
313.922
313.783
313.621
313.418
309.13
309.284
309.491
309.642
309.702
309.954
309.975
310.091
310.033
310.176
310.21
310.287
310.233
310.253
310.065
310.049
309.991
309.833
309.711
309.59
305.502
305.506
305.675
305.714
305.839
305.91
305.974
306.059
306.106
306.128
306.134
306.15
306.145
306.11
306.038
305.977
305.927
305.919
305.827
305.765
301.821
301.847
301.937
301.921
301.97
302.023
302.001
302.038
302.031
302.057
302.074
302.052
301.969
302.073
302.085
302.003
301.999
301.993
301.913
301.918
)
;

boundaryField
{
    hotSide
    {
        type            fixedGradient;
        gradient        nonuniform List<scalar> 
400
(
321.511
322.87
325.591
329.677
335.133
341.965
350.181
359.788
370.794
383.208
397.037
412.289
428.971
447.088
466.647
487.651
510.105
534.011
559.372
586.191
323.738
325.08
327.767
331.802
337.194
343.949
352.078
361.591
372.498
384.81
398.537
413.687
430.268
448.289
467.755
488.672
511.043
534.872
560.161
586.913
326.149
327.47
330.116
334.091
339.406
346.071
354.099
363.503
374.296
386.491
400.101
415.136
431.606
449.52
468.885
489.706
511.988
535.735
560.948
587.63
328.704
330
332.597
336.503
341.73
348.292
356.205
365.485
376.15
388.215
401.695
416.604
432.954
450.753
470.009
490.73
512.919
536.579
561.714
588.325
331.33
332.599
335.142
338.97
344.099
350.546
358.332
367.477
378.003
389.928
403.271
418.047
434.27
451.949
471.095
491.712
513.807
537.382
562.439
588.978
333.918
335.158
337.643
341.389
346.414
352.74
360.392
369.397
379.779
391.562
404.765
419.407
435.503
453.065
472.101
492.618
514.622
538.114
563.096
589.569
336.321
337.531
339.959
343.622
348.544
354.751
362.274
371.142
381.385
393.031
406.101
420.618
436.595
454.047
472.983
493.409
515.33
538.747
563.663
590.076
338.36
339.543
341.92
345.509
350.339
356.44
363.847
372.595
382.718
394.244
407.2
421.608
437.485
454.844
473.695
494.045
515.897
539.253
564.114
590.478
339.852
341.015
343.352
346.885
351.645
357.665
364.985
373.643
383.675
395.113
407.984
422.312
438.116
455.407
474.197
494.491
516.294
539.606
564.428
590.758
340.643
341.795
344.11
347.613
352.334
358.311
365.584
374.193
384.176
395.567
408.393
422.679
438.443
455.699
474.456
494.722
516.498
539.788
564.589
590.901
340.643
341.795
344.11
347.613
352.334
358.311
365.584
374.193
384.176
395.567
408.393
422.679
438.443
455.699
474.456
494.722
516.498
539.788
564.589
590.901
339.852
341.015
343.352
346.885
351.645
357.665
364.985
373.643
383.675
395.113
407.984
422.312
438.116
455.407
474.197
494.491
516.294
539.606
564.428
590.758
338.36
339.543
341.92
345.509
350.339
356.44
363.847
372.595
382.718
394.244
407.2
421.608
437.485
454.844
473.695
494.045
515.897
539.253
564.114
590.478
336.321
337.531
339.959
343.622
348.544
354.751
362.274
371.142
381.385
393.031
406.101
420.618
436.595
454.047
472.983
493.409
515.33
538.747
563.663
590.076
333.918
335.158
337.643
341.389
346.414
352.74
360.392
369.397
379.779
391.562
404.765
419.407
435.503
453.065
472.101
492.618
514.622
538.114
563.096
589.569
331.33
332.599
335.142
338.97
344.099
350.546
358.332
367.477
378.003
389.928
403.271
418.047
434.27
451.949
471.095
491.712
513.807
537.382
562.439
588.978
328.704
330
332.597
336.503
341.73
348.292
356.205
365.485
376.15
388.215
401.695
416.604
432.954
450.753
470.009
490.73
512.919
536.579
561.714
588.325
326.149
327.47
330.116
334.091
339.406
346.071
354.099
363.503
374.296
386.491
400.101
415.136
431.606
449.52
468.885
489.706
511.988
535.735
560.948
587.63
323.738
325.08
327.767
331.802
337.194
343.949
352.078
361.591
372.498
384.81
398.537
413.687
430.268
448.289
467.755
488.672
511.043
534.872
560.161
586.913
321.511
322.87
325.591
329.677
335.133
341.965
350.181
359.788
370.794
383.208
397.037
412.289
428.971
447.088
466.647
487.651
510.105
534.011
559.372
586.191
)
;
    }
    coldSide
    {
        type            mixed;
        refValue        uniform 300;
        refGradient     uniform 0;
        valueFraction   uniform 0.991591;
        source          uniform 0;
        value           nonuniform List<scalar> 
400
(
300.007
300.008
300.008
300.008
300.009
300.009
300.01
300.011
300.011
300.012
300.012
300.013
300.013
300.014
300.014
300.015
300.015
300.015
300.016
300.015
300.007
300.008
300.008
300.008
300.009
300.01
300.01
300.01
300.011
300.012
300.013
300.013
300.013
300.014
300.014
300.014
300.015
300.015
300.015