/*--------------------------------*- C++ -*----------------------------------*\
| =========                 |                                                 |
| \\      /  F ield         | OpenFOAM: The Open Source CFD Toolbox           |
|  \\    /   O peration     | Version:  2212                                  |
|   \\  /    A nd           | Website:  www.openfoam.com                      |
|    \\/     M anipulation  |                                                 |
\*---------------------------------------------------------------------------*/
FoamFile
{
    version     2.0;
    format      ascii;
    arch        "LSB;label=32;scalar=64";
    class       volScalarField;
    location    "./ITHACAoutput/true/19.1";
    object      trueState;
}
// * * * * * * * * * * * * * * * * * * * * * * * * * * * * * * * * * * * * * //

dimensions      [0 0 0 1 0 0 0];

internalField   nonuniform List<scalar> 
3200
(
317.435
317.621
317.857
318.115
318.38
318.641
318.882
319.085
319.233
319.311
319.311
319.233
319.085
318.882
318.641
318.38
318.115
317.857
317.621
317.435
315.084
315.241
315.445
315.668
315.898
316.123
316.331
316.507
316.634
316.702
316.702
316.634
316.507
316.331
316.123
315.898
315.668
315.445
315.241
315.084
312.746
312.876
313.048
313.236
313.43
313.621
313.796
313.944
314.052
314.109
314.109
314.052
313.944
313.796
313.621
313.43
313.236
313.048
312.876
312.746
310.417
310.522
310.662
310.816
310.975
311.131
311.274
311.395
311.483
311.529
311.529
311.483
311.395
311.274
311.131
310.975
310.816
310.662
310.522
310.417
308.097
308.177
308.286
308.406
308.529
308.65
308.762
308.855
308.924
308.96
308.96
308.924
308.855
308.762
308.65
308.529
308.406
308.286
308.177
308.097
305.782
305.839
305.917
306.002
306.09
306.177
306.256
306.323
306.372
306.398
306.398
306.372
306.323
306.256
306.177
306.09
306.002
305.917
305.839
305.782
303.472
303.506
303.552
303.604
303.656
303.708
303.756
303.796
303.825
303.841
303.841
303.825
303.796
303.756
303.708
303.656
303.604
303.552
303.506
303.472
301.164
301.175
301.19
301.208
301.225
301.243
301.259
301.272
301.282
301.287
301.287
301.282
301.272
301.259
301.243
301.225
301.208
301.19
301.175
301.164
317.499
317.683
317.917
318.173
318.436
318.693
318.931
319.132
319.278
319.355
319.355
319.278
319.132
318.931
318.693
318.436
318.173
317.917
317.683
317.499
315.139
315.295
315.497
315.718
315.945
316.168
316.374
316.547
316.673
316.74
316.74
316.673
316.547
316.374
316.168
315.945
315.718
315.497
315.295
315.139
312.792
312.921
313.092
313.278
313.47
313.659
313.832
313.979
314.085
314.141
314.141
314.085
313.979
313.832
313.659
313.47
313.278
313.092
312.921
312.792
310.455
310.559
310.698
310.851
311.008
311.162
311.303
311.423
311.51
311.556
311.556
311.51
311.423
311.303
311.162
311.008
310.851
310.698
310.559
310.455
308.126
308.206
308.314
308.433
308.555
308.674
308.784
308.877
308.945
308.98
308.98
308.945
308.877
308.784
308.674
308.555
308.433
308.314
308.206
308.126
305.803
305.86
305.937
306.021
306.109
306.194
306.273
306.339
306.387
306.412
306.412
306.387
306.339
306.273
306.194
306.109
306.021
305.937
305.86
305.803
303.484
303.518
303.564
303.615
303.667
303.719
303.766
303.806
303.834
303.85
303.85
303.834
303.806
303.766
303.719
303.667
303.615
303.564
303.518
303.484
301.168
301.179
301.194
301.211
301.229
301.246
301.262
301.275
301.285
301.29
301.29
301.285
301.275
301.262
301.246
301.229
301.211
301.194
301.179
301.168
317.627
317.808
318.038
318.289
318.546
318.799
319.031
319.226
319.369
319.444
319.444
319.369
319.226
319.031
318.799
318.546
318.289
318.038
317.808
317.627
315.249
315.402
315.601
315.818
316.041
316.259
316.46
316.629
316.752
316.817
316.817
316.752
316.629
316.46
316.259
316.041
315.818
315.601
315.402
315.249
312.885
313.012
313.18
313.363
313.551
313.735
313.905
314.048
314.151
314.206
314.206
314.151
314.048
313.905
313.735
313.551
313.363
313.18
313.012
312.885
310.531
310.633
310.77
310.92
311.074
311.224
311.363
311.479
311.564
311.609
311.609
311.564
311.479
311.363
311.224
311.074
310.92
310.77
310.633
310.531
308.185
308.264
308.37
308.486
308.606
308.723
308.83
308.921
308.987
309.021
309.021
308.987
308.921
308.83
308.723
308.606
308.486
308.37
308.264
308.185
305.845
305.901
305.976
306.06
306.145
306.229
306.305
306.37
306.417
306.442
306.442
306.417
306.37
306.305
306.229
306.145
306.06
305.976
305.901
305.845
303.51
303.543
303.588
303.638
303.689
303.739
303.786
303.824
303.852
303.867
303.867
303.852
303.824
303.786
303.739
303.689
303.638
303.588
303.543
303.51
301.176
301.187
301.202
301.219
301.236
301.253
301.269
301.282
301.291
301.296
301.296
301.291
301.282
301.269
301.253
301.236
301.219
301.202
301.187
301.176
317.819
317.995
318.22
318.464
318.714
318.958
319.182
319.371
319.508
319.58
319.58
319.508
319.371
319.182
318.958
318.714
318.464
318.22
317.995
317.819
315.415
315.565
315.758
315.969
316.186
316.397
316.591
316.754
316.872
316.934
316.934
316.872
316.754
316.591
316.397
316.186
315.969
315.758
315.565
315.415
313.025
313.149
313.312
313.49
313.673
313.852
314.015
314.153
314.253
314.306
314.306
314.253
314.153
314.015
313.852
313.673
313.49
313.312
313.149
313.025
310.645
310.745
310.878
311.024
311.173
311.319
311.453
311.565
311.647
311.69
311.69
311.647
311.565
311.453
311.319
311.173
311.024
310.878
310.745
310.645
308.274
308.35
308.454
308.567
308.683
308.796
308.9
308.988
309.051
309.084
309.084
309.051
308.988
308.9
308.796
308.683
308.567
308.454
308.35
308.274
305.909
305.963
306.036
306.117
306.2
306.281
306.355
306.418
306.463
306.487
306.487
306.463
306.418
306.355
306.281
306.2
306.117
306.036
305.963
305.909
303.548
303.58
303.624
303.673
303.722
303.771
303.816
303.853
303.88
303.894
303.894
303.88
303.853
303.816
303.771
303.722
303.673
303.624
303.58
303.548
301.189
301.2
301.215
301.231
301.247
301.264
301.279
301.291
301.3
301.305
301.305
301.3
301.291
301.279
301.264
301.247
301.231
301.215
301.2
301.189
318.076
318.247
318.464
318.699
318.94
319.173
319.388
319.568
319.698
319.766
319.766
319.698
319.568
319.388
319.173
318.94
318.699
318.464
318.247
318.076
315.637
315.782
315.969
316.173
316.38
316.583
316.768
316.924
317.036
317.096
317.096
317.036
316.924
316.768
316.583
316.38
316.173
315.969
315.782
315.637
313.212
313.332
313.49
313.662
313.838
314.009
314.165
314.297
314.392
314.442
314.442
314.392
314.297
314.165
314.009
313.838
313.662
313.49
313.332
313.212
310.798
310.894
311.023
311.164
311.307
311.447
311.575
311.682
311.76
311.801
311.801
311.76
311.682
311.575
311.447
311.307
311.164
311.023
310.894
310.798
308.392
308.467
308.566
308.676
308.787
308.896
308.995
309.079
309.139
309.171
309.171
309.139
309.079
308.995
308.896
308.787
308.676
308.566
308.467
308.392
305.993
306.046
306.117
306.195
306.275
306.352
306.423
306.483
306.526
306.548
306.548
306.526
306.483
306.423
306.352
306.275
306.195
306.117
306.046
305.993
303.598
303.63
303.672
303.719
303.767
303.814
303.856
303.892
303.918
303.931
303.931
303.918
303.892
303.856
303.814
303.767
303.719
303.672
303.63
303.598
301.206
301.216
301.231
301.246
301.262
301.278
301.292
301.304
301.313
301.317
301.317
301.313
301.304
301.292
301.278
301.262
301.246
301.231
301.216
301.206
318.398
318.563
318.771
318.996
319.225
319.447
319.65
319.82
319.942
320.007
320.007
319.942
319.82
319.65
319.447
319.225
318.996
318.771
318.563
318.398
315.915
316.054
316.234
316.429
316.627
316.819
316.995
317.142
317.248
317.303
317.303
317.248
317.142
316.995
316.819
316.627
316.429
316.234
316.054
315.915
313.446
313.562
313.714
313.878
314.046
314.208
314.356
314.48
314.57
314.617
314.617
314.57
314.48
314.356
314.208
314.046
313.878
313.714
313.562
313.446
310.989
311.082
311.206
311.34
311.477
311.61
311.731
311.833
311.906
311.944
311.944
311.906
311.833
311.731
311.61
311.477
311.34
311.206
311.082
310.989
308.541
308.612
308.708
308.813
308.919
309.022
309.117
309.195
309.252
309.282
309.282
309.252
309.195
309.117
309.022
308.919
308.813
308.708
308.612
308.541
306.099
306.15
306.218
306.293
306.369
306.442
306.51
306.566
306.606
306.628
306.628
306.606
306.566
306.51
306.442
306.369
306.293
306.218
306.15
306.099
303.662
303.692
303.733
303.778
303.824
303.868
303.908
303.942
303.966
303.979
303.979
303.966
303.942
303.908
303.868
303.824
303.778
303.733
303.692
303.662
301.227
301.237
301.251
301.266
301.281
301.296
301.31
301.321
301.329
301.333
301.333
301.329
301.321
301.31
301.296
301.281
301.266
301.251
301.237
301.227
318.787
318.944
319.143
319.356
319.573
319.782
319.972
320.13
320.245
320.305
320.305
320.245
320.13
319.972
319.782
319.573
319.356
319.143
318.944
318.787
316.25
316.384
316.555
316.74
316.927
317.108
317.273
317.41
317.509
317.561
317.561
317.509
317.41
317.273
317.108
316.927
316.74
316.555
316.384
316.25
313.729
313.84
313.984
314.14
314.299
314.452
314.591
314.707
314.79
314.834
314.834
314.79
314.707
314.591
314.452
314.299
314.14
313.984
313.84
313.729
311.22
311.309
311.427
311.555
311.684
311.809
311.923
312.017
312.086
312.121
312.121
312.086
312.017
311.923
311.809
311.684
311.555
311.427
311.309
311.22
308.72
308.788
308.88
308.979
309.08
309.177
309.265
309.339
309.392
309.42
309.42
309.392
309.339
309.265
309.177
309.08
308.979
308.88
308.788
308.72
306.227
306.275
306.34
306.411
306.483
306.553
306.616
306.668
306.706
306.726
306.726
306.706
306.668
306.616
306.553
306.483
306.411
306.34
306.275
306.227
303.739
303.767
303.806
303.849
303.892
303.934
303.972
304.003
304.026
304.038
304.038
304.026
304.003
303.972
303.934
303.892
303.849
303.806
303.767
303.739
301.253
301.263
301.276
301.29
301.304
301.318
301.331
301.342
301.349
301.353
301.353
301.349
301.342
301.331
301.318
301.304
301.29
301.276
301.263
301.253
319.243
319.392
319.58
319.781
319.984
320.18
320.356
320.503
320.609
320.664
320.664
320.609
320.503
320.356
320.18
319.984
319.781
319.58
319.392
319.243
316.644
316.771
316.933
317.107
317.283
317.452
317.605
317.732
317.823
317.871
317.871
317.823
317.732
317.605
317.452
317.283
317.107
316.933
316.771
316.644
314.061
314.166
314.303
314.45
314.599
314.742
314.871
314.978
315.056
315.096
315.096
315.056
314.978
314.871
314.742
314.599
314.45
314.303
314.166
314.061
311.491
311.575
311.687
311.807
311.929
312.046
312.151
312.239
312.302
312.335
312.335
312.302
312.239
312.151
312.046
311.929
311.807
311.687
311.575
311.491
308.93
308.995
309.082
309.175
309.27
309.361
309.443
309.511
309.56
309.586
309.586
309.56
309.511
309.443
309.361
309.27
309.175
309.082
308.995
308.93
306.377
306.423
306.485
306.551
306.619
306.684
306.743
306.791
306.826
306.845
306.845
306.826
306.791
306.743
306.684
306.619
306.551
306.485
306.423
306.377
303.829
303.856
303.893
303.933
303.974
304.013
304.048
304.077
304.098
304.109
304.109
304.098
304.077
304.048
304.013
303.974
303.933
303.893
303.856
303.829
301.283
301.292
301.305
301.318
301.332
301.345
301.357
301.366
301.373
301.377
301.377
301.373
301.366
301.357
301.345
301.332
301.318
301.305
301.292
301.283
319.766
319.908
320.085
320.273
320.462
320.643
320.806
320.941
321.038
321.089
321.089
321.038
320.941
320.806
320.643
320.462
320.273
320.085
319.908
319.766
317.096
317.216
317.369
317.532
317.695
317.852
317.993
318.11
318.194
318.238
318.238
318.194
318.11
317.993
317.852
317.695
317.532
317.369
317.216
317.096
314.443
314.542
314.67
314.808
314.947
315.079
315.199
315.298
315.368
315.405
315.405
315.368
315.298
315.199
315.079
314.947
314.808
314.67
314.542
314.443
311.802
311.882
311.987
312.1
312.213
312.321
312.419
312.5
312.558
312.588
312.588
312.558
312.5
312.419
312.321
312.213
312.1
311.987
311.882
311.802
309.172
309.233
309.315
309.402
309.49
309.575
309.651
309.713
309.758
309.782
309.782
309.758
309.713
309.651
309.575
309.49
309.402
309.315
309.233
309.172
306.549
306.593
306.651
306.713
306.776
306.837
306.891
306.936
306.968
306.985
306.985
306.968
306.936
306.891
306.837
306.776
306.713
306.651
306.593
306.549
303.932
303.958
303.993
304.03
304.068
304.104
304.137
304.164
304.183
304.193
304.193
304.183
304.164
304.137
304.104
304.068
304.03
303.993
303.958
303.932
301.318
301.326
301.338
301.351
301.363
301.375
301.386
301.395
301.402
301.405
301.405
301.402
301.395
301.386
301.375
301.363
301.351
301.338
301.326
301.318
320.359
320.492
320.658
320.833
321.008
321.175
321.324
321.448
321.536
321.582
321.582
321.536
321.448
321.324
321.175
321.008
320.833
320.658
320.492
320.359
317.608
317.72
317.863
318.015
318.167
318.311
318.441
318.547
318.624
318.664
318.664
318.624
318.547
318.441
318.311
318.167
318.015
317.863
317.72
317.608
314.874
314.967
315.088
315.216
315.345
315.467
315.576
315.667
315.731
315.765
315.765
315.731
315.667
315.576
315.467
315.345
315.216
315.088
314.967
314.874
312.154
312.229
312.328
312.433
312.538
312.638
312.727
312.801
312.854
312.881
312.881
312.854
312.801
312.727
312.638
312.538
312.433
312.328
312.229
312.154
309.445
309.503
309.579
309.661
309.742
309.82
309.89
309.947
309.988
310.01
310.01
309.988
309.947
309.89
309.82
309.742
309.661
309.579
309.503
309.445
306.745
306.785
306.84
306.898
306.956
307.012
307.062
307.103
307.132
307.147
307.147
307.132
307.103
307.062
307.012
306.956
306.898
306.84
306.785
306.745
304.049
304.073
304.106
304.141
304.176
304.209
304.239
304.264
304.281
304.291
304.291
304.281
304.264
304.239
304.209
304.176
304.141
304.106
304.073
304.049
301.357
301.365
301.376
301.388
301.399
301.411
301.421
301.429
301.435
301.438
301.438
301.435
301.429
301.421
301.411
301.399
301.388
301.376
301.365
301.357
321.022
321.146
321.3
321.462
321.624
321.777
321.913
322.025
322.105
322.146
322.146
322.105
322.025
321.913
321.777
321.624
321.462
321.3
321.146
321.022
318.18
318.285
318.418
318.559
318.698
318.831
318.949
319.046
319.115
319.151
319.151
319.115
319.046
318.949
318.831
318.698
318.559
318.418
318.285
318.18
315.357
315.444
315.556
315.675
315.793
315.905
316.005
316.087
316.145
316.176
316.176
316.145
316.087
316.005
315.905
315.793
315.675
315.556
315.444
315.357
312.548
312.618
312.71
312.807
312.904
312.995
313.077
313.144
313.192
313.217
313.217
313.192
313.144
313.077
312.995
312.904
312.807
312.71
312.618
312.548
309.751
309.805
309.876
309.951
310.027
310.098
310.162
310.214
310.251
310.27
310.27
310.251
310.214
310.162
310.098
310.027
309.951
309.876
309.805
309.751
306.963
307.001
307.051
307.105
307.159
307.21
307.255
307.293
307.319
307.333
307.333
307.319
307.293
307.255
307.21
307.159
307.105
307.051
307.001
306.963
304.18
304.203
304.233
304.265
304.298
304.328
304.356
304.378
304.394
304.402
304.402
304.394
304.378
304.356
304.328
304.298
304.265
304.233
304.203
304.18
301.401
301.408
301.419
301.429
301.44
301.451
301.46
301.467
301.472
301.475
301.475
301.472
301.467
301.46
301.451
301.44
301.429
301.419
301.408
301.401
321.754
321.87
322.013
322.163
322.311
322.45
322.574
322.675
322.747
322.784
322.784
322.747
322.675
322.574
322.45
322.311
322.163
322.013
321.87
321.754
318.813
318.91
319.034
319.163
319.292
319.412
319.52
319.607
319.67
319.702
319.702
319.67
319.607
319.52
319.412
319.292
319.163
319.034
318.91
318.813
315.89
315.971
316.075
316.185
316.293
316.396
316.487
316.561
316.613
316.641
316.641
316.613
316.561
316.487
316.396
316.293
316.185
316.075
315.971
315.89
312.984
313.049
313.134
313.223
313.312
313.396
313.47
313.531
313.574
313.596
313.596
313.574
313.531
313.47
313.396
313.312
313.223
313.134
313.049
312.984
310.089
310.139
310.205
310.275
310.344
310.409
310.467
310.514
310.547
310.565
310.565
310.547
310.514
310.467
310.409
310.344
310.275
310.205
310.139
310.089
307.204
307.239
307.286
307.336
307.385
307.432
307.473
307.507
307.531
307.543
307.543
307.531
307.507
307.473
307.432
307.385
307.336
307.286
307.239
307.204
304.325
304.346
304.374
304.404
304.434
304.462
304.486
304.507
304.521
304.528
304.528
304.521
304.507
304.486
304.462
304.434
304.404
304.374
304.346
304.325
301.449
301.456
301.466
301.476
301.486
301.495
301.503
301.51
301.515
301.518
301.518
301.515
301.51
301.503
301.495
301.486
301.476
301.466
301.456
301.449
322.558
322.665
322.797
322.935
323.07
323.197
323.309
323.4
323.464
323.498
323.498
323.464
323.4
323.309
323.197
323.07
322.935
322.797
322.665
322.558
319.506
319.597
319.711
319.83
319.947
320.057
320.154
320.233
320.289
320.318
320.318
320.289
320.233
320.154
320.057
319.947
319.83
319.711
319.597
319.506
316.475
316.551
316.647
316.747
316.847
316.94
317.022
317.089
317.136
317.16
317.16
317.136
317.089
317.022
316.94
316.847
316.747
316.647
316.551
316.475
313.461
313.522
313.6
313.683
313.764
313.84
313.907
313.962
314
314.02
314.02
314
313.962
313.907
313.84
313.764
313.683
313.6
313.522
313.461
310.46
310.507
310.567
310.631
310.694
310.754
310.806
310.848
310.879
310.894
310.894
310.879
310.848
310.806
310.754
310.694
310.631
310.567
310.507
310.46
307.468
307.501
307.545
307.59
307.636
307.678
307.715
307.746
307.767
307.778
307.778
307.767
307.746
307.715
307.678
307.636
307.59
307.545
307.501
307.468
304.484
304.503
304.529
304.557
304.584
304.609
304.632
304.65
304.663
304.669
304.669
304.663
304.65
304.632
304.609
304.584
304.557
304.529
304.503
304.484
301.503
301.509
301.518
301.527
301.536
301.545
301.552
301.558
301.563
301.565
301.565
301.563
301.558
301.552
301.545
301.536
301.527
301.518
301.509
301.503
323.432
323.532
323.653
323.779
323.902
324.017
324.118
324.2
324.257
324.287
324.287
324.257
324.2
324.118
324.017
323.902
323.779
323.653
323.532
323.432
320.261
320.345
320.45
320.559
320.666
320.765
320.853
320.924
320.974
321
321
320.974
320.924
320.853
320.765
320.666
320.559
320.45
320.345
320.261
317.112
317.182
317.27
317.362
317.453
317.537
317.611
317.671
317.713
317.735
317.735
317.713
317.671
317.611
317.537
317.453
317.362
317.27
317.182
317.112
313.981
314.037
314.109
314.184
314.258
314.327
314.388
314.437
314.472
314.49
314.49
314.472
314.437
314.388
314.327
314.258
314.184
314.109
314.037
313.981
310.863
310.906
310.962
311.021
311.078
311.132
311.179
311.217
311.244
311.258
311.258
311.244
311.217
311.179
311.132
311.078
311.021
310.962
310.906
310.863
307.756
307.787
307.827
307.868
307.91
307.948
307.982
308.009
308.028
308.038
308.038
308.028
308.009
307.982
307.948
307.91
307.868
307.827
307.787
307.756
304.656
304.674
304.698
304.723
304.748
304.771
304.791
304.808
304.819
304.825
304.825
304.819
304.808
304.791
304.771
304.748
304.723
304.698
304.674
304.656
301.56
301.566
301.574
301.583
301.591
301.599
301.606
301.611
301.615
301.617
301.617
301.615
301.611
301.606
301.599
301.591
301.583
301.574
301.566
301.56
324.376
324.468
324.579
324.694
324.806
324.91
325.001
325.074
325.126
325.152
325.152
325.126
325.074
325.001
324.91
324.806
324.694
324.579
324.468
324.376
321.076
321.153
321.249
321.349
321.446
321.536
321.615
321.678
321.723
321.746
321.746
321.723
321.678
321.615
321.536
321.446
321.349
321.249
321.153
321.076
317.799
317.863
317.944
318.029
318.111
318.187
318.253
318.307
318.345
318.365
318.365
318.345
318.307
318.253
318.187
318.111
318.029
317.944
317.863
317.799
314.541
314.593
314.659
314.728
314.795
314.857
314.912
314.956
314.987
315.003
315.003
314.987
314.956
314.912
314.857
314.795
314.728
314.659
314.593
314.541
311.298
311.338
311.389
311.443
311.495
311.544
311.586
311.62
311.645
311.657
311.657
311.645
311.62
311.586
311.544
311.495
311.443
311.389
311.338
311.298
308.067
308.095
308.131
308.169
308.207
308.241
308.272
308.296
308.314
308.322
308.322
308.314
308.296
308.272
308.241
308.207
308.169
308.131
308.095
308.067
304.842
304.859
304.881
304.904
304.927
304.947
304.966
304.98
304.991
304.996
304.996
304.991
304.98
304.966
304.947
304.927
304.904
304.881
304.859
304.842
301.623
301.628
301.636
301.643
301.651
301.658
301.664
301.669
301.672
301.674
301.674
301.672
301.669
301.664
301.658
301.651
301.643
301.636
301.628
301.623
325.386
325.47
325.572
325.677
325.779
325.872
325.954
326.019
326.066
326.089
326.089
326.066
326.019
325.954
325.872
325.779
325.677
325.572
325.47
325.386
321.947
322.018
322.106
322.197
322.285
322.366
322.437
322.494
322.533
322.554
322.554
322.533
322.494
322.437
322.366
322.285
322.197
322.106
322.018
321.947
318.533
318.592
318.666
318.743
318.817
318.886
318.946
318.994
319.028
319.045
319.045
319.028
318.994
318.946
318.886
318.817
318.743
318.666
318.592
318.533
315.139
315.187
315.248
315.31
315.371
315.428
315.477
315.516
315.544
315.558
315.558
315.544
315.516
315.477
315.428
315.371
315.31
315.248
315.187
315.139
311.762
311.799
311.846
311.895
311.942
311.986
312.024
312.055
312.076
312.088
312.088
312.076
312.055
312.024
311.986
311.942
311.895
311.846
311.799
311.762
308.397
308.423
308.457
308.492
308.526
308.557
308.584
308.606
308.622
308.629
308.629
308.622
308.606
308.584
308.557
308.526
308.492
308.457
308.423
308.397
305.041
305.056
305.076
305.097
305.118
305.137
305.153
305.166
305.175
305.18
305.18
305.175
305.166
305.153
305.137
305.118
305.097
305.076
305.056
305.041
301.689
301.694
301.701
301.708
301.715
301.721
301.727
301.731
301.734
301.736
301.736
301.734
301.731
301.727
301.721
301.715
301.708
301.701
301.694
301.689
326.451
326.528
326.622
326.717
326.809
326.894
326.967
327.026
327.067
327.088
327.088
327.067
327.026
326.967
326.894
326.809
326.717
326.622
326.528
326.451
322.863
322.929
323.009
323.092
323.172
323.245
323.309
323.36
323.395
323.414
323.414
323.395
323.36
323.309
323.245
323.172
323.092
323.009
322.929
322.863
319.304
319.358
319.426
319.496
319.564
319.626
319.68
319.723
319.753
319.768
319.768
319.753
319.723
319.68
319.626
319.564
319.496
319.426
319.358
319.304
315.767
315.811
315.866
315.924
315.979
316.03
316.074
316.109
316.134
316.147
316.147
316.134
316.109
316.074
316.03
315.979
315.924
315.866
315.811
315.767
312.249
312.282
312.325
312.37
312.413
312.453
312.487
312.514
312.534
312.544
312.544
312.534
312.514
312.487
312.453
312.413
312.37
312.325
312.282
312.249
308.744
308.768
308.798
308.83
308.861
308.889
308.914
308.934
308.947
308.954
308.954
308.947
308.934
308.914
308.889
308.861
308.83
308.798
308.768
308.744
305.249
305.263
305.281
305.3
305.319
305.336
305.351
305.362
305.371
305.375
305.375
305.371
305.362
305.351
305.336
305.319
305.3
305.281
305.263
305.249
301.759
301.764
301.77
301.776
301.782
301.788
301.793
301.797
301.8
301.801
301.801
301.8
301.797
301.793
301.788
301.782
301.776
301.77
301.764
301.759
327.544
327.615
327.701
327.788
327.871
327.948
328.014
328.066
328.103
328.122
328.122
328.103
328.066
328.014
327.948
327.871
327.788
327.701
327.615
327.544
323.8
323.86
323.934
324.01
324.082
324.148
324.206
324.251
324.283
324.3
324.3
324.283
324.251
324.206
324.148
324.082
324.01
323.934
323.86
323.8
320.088
320.138
320.201
320.265
320.326
320.382
320.431
320.47
320.497
320.51
320.51
320.497
320.47
320.431
320.382
320.326
320.265
320.201
320.138
320.088
316.404
316.444
316.495
316.547
316.598
316.644
316.683
316.715
316.737
316.749
316.749
316.737
316.715
316.683
316.644
316.598
316.547
316.495
316.444
316.404
312.741
312.771
312.811
312.852
312.891
312.927
312.958
312.982
313
313.009
313.009
313
312.982
312.958
312.927
312.891
312.852
312.811
312.771
312.741
309.094
309.115
309.144
309.173
309.201
309.226
309.248
309.266
309.278
309.285
309.285
309.278
309.266
309.248
309.226
309.201
309.173
309.144
309.115
309.094
305.458
305.471
305.488
305.505
305.522
305.537
305.551
305.561
305.569
305.573
305.573
305.569
305.561
305.551
305.537
305.522
305.505
305.488
305.471
305.458
301.829
301.833
301.839
301.845
301.85
301.855
301.86
301.863
301.866
301.867
301.867
301.866
301.863
301.86
301.855
301.85
301.845
301.839
301.833
301.829
328.596
328.662
328.741
328.821
328.898
328.967
329.027
329.075
329.108
329.125
329.125
329.108
329.075
329.027
328.967
328.898
328.821
328.741
328.662
328.596
324.69
324.746
324.815
324.884
324.95
325.011
325.063
325.104
325.133
325.148
325.148
325.133
325.104
325.063
325.011
324.95
324.884
324.815
324.746
324.69
320.826
320.873
320.93
320.989
321.046
321.097
321.141
321.176
321.201
321.213
321.213
321.201
321.176
321.141
321.097
321.046
320.989
320.93
320.873
320.826
316.997
317.034
317.081
317.13
317.176
317.218
317.254
317.283
317.303
317.313
317.313
317.303
317.283
317.254
317.218
317.176
317.13
317.081
317.034
316.997
313.195
313.224
313.261
313.298
313.334
313.367
313.395
313.418
313.433
313.441
313.441
313.433
313.418
313.395
313.367
313.334
313.298
313.261
313.224
313.195
309.415
309.435
309.461
309.488
309.514
309.537
309.558
309.574
309.585
309.591
309.591
309.585
309.574
309.558
309.537
309.514
309.488
309.461
309.435
309.415
305.649
305.662
305.677
305.693
305.709
305.723
305.735
305.745
305.752
305.755
305.755
305.752
305.745
305.735
305.723
305.709
305.693
305.677
305.662
305.649
301.893
301.897
301.902
301.907
301.913
301.917
301.921
301.925
301.927
301.928
301.928
301.927
301.925
301.921
301.917
301.913
301.907
301.902
301.897
301.893
329.424
329.486
329.56
329.636
329.707
329.772
329.828
329.872
329.903
329.918
329.918
329.903
329.872
329.828
329.772
329.707
329.636
329.56
329.486
329.424
325.364
325.417
325.481
325.547
325.609
325.666
325.714
325.753
325.78
325.794
325.794
325.78
325.753
325.714
325.666
325.609
325.547
325.481
325.417
325.364
321.367
321.411
321.466
321.521
321.574
321.622
321.664
321.697
321.72
321.731
321.731
321.72
321.697
321.664
321.622
321.574
321.521
321.466
321.411
321.367
317.421
317.456
317.501
317.547
317.59
317.63
317.664
317.691
317.71
317.719
317.719
317.71
317.691
317.664
317.63
317.59
317.547
317.501
317.456
317.421
313.514
313.541
313.576
313.612
313.646
313.677
313.703
313.724
313.739
313.746
313.746
313.739
313.724
313.703
313.677
313.646
313.612
313.576
313.541
313.514
309.637
309.656
309.681
309.707
309.731
309.753
309.772
309.787
309.798
309.803
309.803
309.798
309.787
309.772
309.753
309.731
309.707
309.681
309.656
309.637
305.781
305.792
305.807
305.822
305.837
305.85
305.862
305.871
305.877
305.881
305.881
305.877
305.871
305.862
305.85
305.837
305.822
305.807
305.792
305.781
301.936
301.94
301.945
301.95
301.955
301.96
301.964
301.967
301.969
301.97
301.97
301.969
301.967
301.964
301.96
301.955
301.95
301.945
301.94
301.936
)
;

boundaryField
{
    hotSide
    {
        type            fixedGradient;
        gradient        nonuniform List<scalar> 
400
(
189.384
190.092
191.512
193.645
196.499
200.079
204.394
209.452
215.262
221.833
229.174
237.292
246.196
255.892
266.385
277.681
289.784
302.698
316.424
330.966
191.822
192.511
193.892
195.97
198.753
202.249
206.47
211.425
217.127
223.586
230.815
238.821
247.616
257.206
267.598
278.798
290.811
303.64
317.288
331.756
194.46
195.126
196.462
198.475
201.174
204.572
208.681
213.517
219.094
225.426
232.526
240.407
249.08
258.553
268.834
279.93
291.845
304.584
318.148
332.541
197.254
197.894
199.177
201.114
203.717
207.001
210.985
215.685
221.122
227.312
234.271
242.014
250.554
259.901
270.064
281.05
292.863
305.508
318.987
333.301
200.128
200.737
201.962
203.814
206.309
209.468
213.312
217.865
223.149
229.186
235.995
243.593
251.994
261.211
271.252
282.125
293.835
306.386
319.779
334.016
202.96
203.537
204.699
206.46
208.841
211.868
215.567
219.966
225.093
230.973
237.629
245.081
253.344
262.431
272.353
283.117
294.727
307.187
320.499
334.662
205.589
206.134
207.232
208.904
211.172
214.069
217.625
221.875
226.851
232.581
239.092
246.405
254.539
263.506
273.318
283.982
295.502
307.88
321.119
335.217
207.82
208.336
209.378
210.968
213.136
215.916
219.347
223.465
228.308
233.908
240.294
247.489
255.512
264.378
274.098
284.677
296.122
308.434
321.612
335.657
209.453
209.946
210.945
212.474
214.565
217.257
220.592
224.612
229.356
234.859
241.152
248.26
256.202
264.994
274.647
285.166
296.557
308.82
321.956
335.963
210.318
210.799
211.775
213.27
215.319
217.964
221.248
225.214
229.904
235.356
241.599
248.661
256.56
265.313
274.93
285.418
296.78
309.019
322.132
336.12
210.318
210.799
211.775
213.27
215.319
217.964
221.248
225.214
229.904
235.356
241.599
248.661
256.56
265.313
274.93
285.418
296.78
309.019
322.132
336.12
209.453
209.946
210.945
212.474
214.565
217.257
220.592
224.612
229.356
234.859
241.152
248.26
256.202
264.994
274.647
285.166
296.557
308.82
321.956
335.963
207.82
208.336
209.378
210.968
213.136
215.916
219.347
223.465
228.308
233.908
240.294
247.489
255.512
264.378
274.098
284.677
296.122
308.434
321.612
335.657
205.589
206.134
207.232
208.904
211.172
214.069
217.625
221.875
226.851
232.581
239.092
246.405
254.539
263.506
273.318
283.982
295.502
307.88
321.119
335.217
202.96
203.537
204.699
206.46
208.841
211.868
215.567
219.966
225.093
230.973
237.629
245.081
253.344
262.431
272.353
283.117
294.727
307.187
320.499
334.662
200.128
200.737
201.962
203.814
206.309
209.468
213.312
217.865
223.149
229.186
235.995
243.593
251.994
261.211
271.252
282.125
293.835
306.386
319.779
334.016
197.254
197.894
199.177
201.114
203.717
207.001
210.985
215.685
221.122
227.312
234.271
242.014
250.554
259.901
270.064
281.05
292.863
305.508
318.987
333.301
194.46
195.126
196.462
198.475
201.174
204.572
208.681
213.517
219.094
225.426
232.526
240.407
249.08
258.553
268.834
279.93
291.845
304.584
318.148
332.541
191.822
192.511
193.892
195.97
198.753
202.249
206.47
211.425
217.127
223.586
230.815
238.821
247.616
257.206
267.598
278.798
290.811
303.64
317.288
331.756
189.384
190.092
191.512
193.645
196.499
200.079
204.394
209.452
215.262
221.833
229.174
237.292
246.196
255.892
266.385
277.681
289.784
302.698
316.424
330.966
)
;
    }
    coldSide
    {
        type            mixed;
        refValue        uniform 300;
        refGradient     uniform 0;
        valueFraction   uniform 0.991591;
        source          uniform 0;
        value           nonuniform List<scalar> 
400
(
300.01
300.01
300.01
300.01
300.01
300.01
300.011
300.011
300.011
300.011
300.012
300.012
300.013
300.013
300.014
300.014
300.015
300.015
300.016
300.016
300.01
300.01
300.01
300.01
300.01
300.01
300.011
300.011
300.011
300.011
300.012
300.012
300.013
300.013