/*--------------------------------*- C++ -*----------------------------------*\
| =========                 |                                                 |
| \\      /  F ield         | OpenFOAM: The Open Source CFD Toolbox           |
|  \\    /   O peration     | Version:  2212                                  |
|   \\  /    A nd           | Website:  www.openfoam.com                      |
|    \\/     M anipulation  |                                                 |
\*---------------------------------------------------------------------------*/
FoamFile
{
    version     2.0;
    format      ascii;
    arch        "LSB;label=32;scalar=64";
    class       volScalarField;
    location    "./ITHACAoutput/true/10.4";
    object      error;
}
// * * * * * * * * * * * * * * * * * * * * * * * * * * * * * * * * * * * * * //

dimensions      [0 0 0 1 0 0 0];

internalField   nonuniform List<scalar> 
3200
(
-0.987614
0.291675
1.46232
2.06631
2.36608
2.37328
2.20121
1.93392
1.70622
1.32362
1.1275
0.986411
0.92561
0.832065
0.756205
0.702799
0.377045
-0.338413
-1.48801
-2.57686
-0.970733
0.112975
1.12647
1.67592
1.90197
1.91547
1.75109
1.43438
1.22771
0.885655
0.690977
0.58158
0.506859
0.457912
0.421951
0.276891
0.0162988
-0.664135
-1.48749
-2.63078
-0.953176
0.0147351
0.884594
1.28008
1.43959
1.52552
1.30254
1.08495
0.83517
0.601299
0.521461
0.326102
0.238091
0.258458
0.180276
-0.00888616
-0.104847
-0.688232
-1.47078
-2.37699
-0.822279
-0.0532387
0.689652
1.06442
1.08734
1.15492
1.02384
0.8126
0.612943
0.477791
0.312757
0.152341
0.0605963
0.0298697
-0.0141528
-0.114334
-0.312867
-0.724933
-1.40294
-2.09639
-0.664157
-0.0770624
0.389679
0.70638
0.759758
0.7447
0.730953
0.622707
0.46193
0.243179
0.136625
0.0918487
-0.0459417
-0.0186624
-0.060636
-0.0818649
-0.236538
-0.566123
-1.15925
-1.66473
-0.517653
-0.101735
0.346584
0.510584
0.651158
0.580648
0.449105
0.36182
0.234017
0.122884
0.0749763
0.0440453
-0.0694279
-0.00923835
-0.0567898
-0.165903
-0.282262
-0.603118
-0.859509
-1.31675
-0.246082
-0.0107497
0.197918
0.350163
0.395273
0.333096
0.291062
0.256312
0.130837
0.0995827
0.0427527
0.0238876
-0.0517323
-0.0429719
-0.0649897
-0.14772
-0.132635
-0.300251
-0.513999
-0.825135
-0.0942896
0.00822926
0.0540295
0.150407
0.104176
0.108495
0.069113
0.119901
0.0510104
0.0609748
-0.0985596
0.0538923
-0.0745349
-0.0358112
-0.118843
0.0308609
-0.12937
-0.167439
-0.175504
-0.296511
-1.14759
0.198511
1.29393
1.93974
2.1594
2.10637
1.76991
1.56362
1.2506
0.889485
0.707868
0.498919
0.413655
0.436214
0.501319
0.438418
0.109288
-0.555695
-1.5686
-2.70234
-1.07034
-0.00588516
1.00008
1.49522
1.6521
1.62455
1.46622
1.18394
0.882833
0.621821
0.419492
0.288188
0.135199
0.215738
0.151044
0.0729678
-0.183926
-0.762335
-1.63642
-2.76204
-0.95696
-0.126285
0.74569
1.22785
1.32039
1.36335
1.11527
0.825892
0.632033
0.323933
0.131937
0.0377761
-0.0560173
-0.0479699
-0.0942331
-0.14925
-0.344798
-0.861939
-1.55462
-2.48913
-0.8682
-0.16109
0.46557
0.893575
0.935778
1.01024
0.795708
0.621972
0.394761
0.228102
-0.00410764
-0.0882678
-0.104765
-0.113
-0.161005
-0.24496
-0.46695
-0.767927
-1.42981
-2.16664
-0.654048
-0.100406
0.326707
0.629551
0.737067
0.714662
0.584565
0.461735
0.264294
0.0534874
-0.0427431
-0.123121
-0.17511
-0.235238
-0.162724
-0.290139
-0.460819
-0.809848
-1.18232
-1.66366
-0.603065
-0.20705
0.20649
0.428542
0.504688
0.439014
0.382071
0.331775
0.189658
0.050348
-0.0555595
-0.0819876
-0.220071
-0.175626
-0.212343
-0.2336
-0.302688
-0.578533
-0.908562
-1.37667
-0.329869
-0.0341816
0.0830113
0.289056
0.355857
0.23611
0.268708
0.106443
0.143218
0.0646059
-0.0883793
-0.0748644
-0.00748623
-0.179407
-0.177586
-0.169716
-0.174716
-0.350854
-0.592163
-0.806801
-0.145878
-0.0222592
0.0701842
0.0631018
0.138742
0.116625
0.135911
0.0618272
0.0250207
0.0356252
-0.0541183
-0.060912
-0.0290784
-0.0294738
-0.062924
-0.023669
-0.0599355
-0.0743321
-0.178426
-0.270533
-1.3548
-0.0403319
0.978955
1.52226
1.67646
1.59437
1.24996
0.981716
0.599452
0.258776
0.0119396
-0.219803
-0.113798
-0.0877078
-0.0190424
0.017168
-0.270445
-0.7722
-1.83046
-3.04298
-1.32184
-0.156053
0.680805
1.26534
1.39464
1.23751
0.947121
0.605645
0.313467
0.034845
-0.258454
-0.390421
-0.394182
-0.344794
-0.343333
-0.31157
-0.548985
-1.03291
-1.86746
-2.87026
-1.10008
-0.253028
0.495611
0.996626
0.99651
0.911341
0.693974
0.428858
0.129536
-0.0830839
-0.313967
-0.474778
-0.426771
-0.455217
-0.480495
-0.368453
-0.574395
-1.02831
-1.73088
-2.59643
-1.03845
-0.243591
0.333989
0.711555
0.890894
0.787018
0.54115
0.29939
0.0832356
-0.213327
-0.312182
-0.445159
-0.412488
-0.50159
-0.406213
-0.509951
-0.66346
-0.943375
-1.53286
-2.22574
-0.884201
-0.25297
0.248378
0.538717
0.559341
0.559767
0.357205
0.274548
-0.0104394
-0.196624
-0.304784
-0.41519
-0.420127
-0.418577
-0.352506
-0.442942
-0.507446
-0.878692
-1.3386
-1.82688
-0.615755
-0.163256
0.169904
0.24165
0.396816
0.447303
0.259199
0.109958
-0.0334373
-0.227575
-0.221714
-0.246676
-0.331037
-0.282452
-0.34913
-0.298638
-0.397839
-0.65623
-1.05552
-1.35914
-0.387915
-0.137329
-0.0112717
0.17358
0.169319
0.19108
0.213986
0.0251447
-0.0291855
-0.15896
-0.188648
-0.198829
-0.216517
-0.206732
-0.233794
-0.254548
-0.230605
-0.421363
-0.59936
-0.815931
-0.158711
-0.0805894
0.0286487
0.0790514
0.152337
0.0539319
0.0476271
-0.0584607
0.0467564
0.0126207
-0.0644942
-0.0705423
-0.102566
-0.0275398
-0.0945459
-0.0821939
-0.125262
-0.154259
-0.240133
-0.332636
-1.72425
-0.508415
0.53617
1.15046
1.21271
1.06528
0.704016
0.317915
-0.155545
-0.49294
-0.770637
-0.997665
-0.871965
-0.79185
-0.739326
-0.587808
-0.702843
-1.21235
-2.14121
-3.20888
-1.55871
-0.556849
0.303166
0.846226
0.89274
0.715744
0.42407
0.0614763
-0.305869
-0.647728
-0.919688
-1.07149
-0.948378
-0.932167
-0.792847
-0.764174
-0.930028
-1.30859
-2.19085
-3.09244
-1.42835
-0.608902
0.14118
0.609177
0.70336
0.605824
0.26092
-0.0953528
-0.421801
-0.671804
-0.93642
-1.04702
-1.00587
-0.988382
-0.89012
-0.784652
-0.973543
-1.32595
-1.99786
-2.78909
-1.16422
-0.434563
0.0538523
0.375086
0.502348
0.361319
0.137283
-0.137088
-0.439945
-0.63612
-0.900682
-0.898405
-0.899968
-0.850175
-0.74192
-0.787902
-0.915635
-1.2124
-1.81519
-2.42943
-0.979498
-0.520936
-0.0109531
0.267465
0.294391
0.331901
0.0859077
-0.134197
-0.24851
-0.557442
-0.726946
-0.725982
-0.836984
-0.766635
-0.693922
-0.699555
-0.797804
-1.03799
-1.46862
-1.96494
-0.712594
-0.369987
0.0258438
0.148741
0.208161
0.125282
0.0216816
-0.0604433
-0.263544
-0.423619
-0.579948
-0.620242
-0.581039
-0.56625
-0.539143
-0.544689
-0.570359
-0.807435
-1.14979
-1.42395
-0.442502
-0.244242
-0.0225058
0.17519
0.0491075
0.0368148
-0.0139447
-0.0264997
-0.146947
-0.181811
-0.293044
-0.303277
-0.387196
-0.342339
-0.350526
-0.253327
-0.351206
-0.506997
-0.699115
-0.893615
-0.109619
-0.0802804
0.0373782
-7.51026e-05
0.0510281
-0.0119061
-0.0200369
0.0007821
-0.0885809
-0.0398453
-0.069668
-0.146432
-0.0891615
-0.105367
-0.00965759
-0.122005
-0.189102
-0.132101
-0.217313
-0.208553
-2.16007
-0.971136
-0.0126133
0.51944
0.615927
0.513912
0.0272239
-0.428079
-0.907486
-1.39694
-1.63931
-1.75944
-1.71869
-1.42092
-1.27061
-1.17715
-1.2733
-1.72209
-2.62088
-3.66523
-1.93923
-0.939058
-0.135555
0.291675
0.395479
0.270305
-0.11963
-0.541203
-0.99192
-1.40883
-1.65133
-1.7914
-1.73102
-1.55747
-1.44624
-1.25167
-1.34059
-1.75683
-2.56158
-3.45732
-1.65241
-0.990698
-0.298252
0.153292
0.251841
0.0859174
-0.166931
-0.570249
-0.889316
-1.2544
-1.48386
-1.63828
-1.54844
-1.40283
-1.31439
-1.24403
-1.33162
-1.74336
-2.32259
-3.05335
-1.43085
-0.77455
-0.297703
-0.00377349
0.101699
0.0304465
-0.338098
-0.542519
-0.862866
-1.13751
-1.31891
-1.45866
-1.35717
-1.25731
-1.24259
-1.09036
-1.19987
-1.5191
-2.10358
-2.63936
-1.16428
-0.635828
-0.241605
0.0358627
0.089617
-0.0361712
-0.273583
-0.385577
-0.74762
-0.917123
-1.04731
-1.20664
-1.17662
-1.05037
-1.01363
-0.927146
-1.00497
-1.23185
-1.66949
-2.14884
-0.837019
-0.520212
-0.175016
-0.0379596
0.0716367
-0.0168488
-0.124068
-0.400833
-0.401634
-0.711864
-0.786591
-0.836298
-0.839846
-0.806134
-0.787165
-0.781542
-0.788824
-0.911299
-1.24129
-1.5195
-0.51042
-0.299841
-0.118862
-0.0403503
0.0513053
-0.027007
-0.144666
-0.224943
-0.283508
-0.399983
-0.455065
-0.4966
-0.427541
-0.463123
-0.481436
-0.452132
-0.548076
-0.582282
-0.751696
-0.93319
-0.177491
-0.113254
-0.0729071
-0.0392007
-0.0736468
0.00654841
-0.0333539
-0.113528
-0.098389
-0.0865169
-0.201804
-0.207508
-0.227513
-0.167056
-0.0511003
-0.174955
-0.197463
-0.186706
-0.174239
-0.326326
-2.61647
-1.57645
-0.681374
-0.118977
-0.0509578
-0.212691
-0.615294
-1.14251
-1.68424
-2.28061
-2.51758
-2.65963
-2.56531
-2.23309
-1.95477
-1.79201
-1.80103
-2.2767
-3.08335
-4.03052
-2.3983
-1.4773
-0.705707
-0.208886
-0.218991
-0.353667
-0.729992
-1.20745
-1.70401
-2.09699
-2.41942
-2.41368
-2.30181
-2.1393
-1.96465
-1.78379
-1.88061
-2.20951
-2.94797
-3.74545
-2.07909
-1.29436
-0.590117
-0.296051
-0.26308
-0.300355
-0.678537
-1.10882
-1.55876
-1.91983
-2.15656
-2.20288
-2.13048
-2.03703
-1.84629
-1.7262
-1.726
-2.08995
-2.73929
-3.37723
-1.79386
-1.14913
-0.665509
-0.26794
-0.225301
-0.400547
-0.652498
-0.931965
-1.32988
-1.66381
-1.80793
-1.87901
-1.8593
-1.72127
-1.55494
-1.54318
-1.54715
-1.84136
-2.29573
-2.81944
-1.31702
-0.848034
-0.562514
-0.226733
-0.251551
-0.283789
-0.555697
-0.758721
-1.05339
-1.29751
-1.46069
-1.48712
-1.51156
-1.39504
-1.26792
-1.20498
-1.31037
-1.49425
-1.8299
-2.26011
-1.02681
-0.709484
-0.442683
-0.162256
-0.160962
-0.249269
-0.429806
-0.649217
-0.737057
-0.960334
-1.05511
-1.19483
-1.0893
-1.10273
-0.949868
-0.931075
-0.917871
-1.13487
-1.35864
-1.67975
-0.597
-0.493363
-0.249033
-0.149361
-0.0945733
-0.174075
-0.24353
-0.340231
-0.493665
-0.575098
-0.722277
-0.71618
-0.678315
-0.598408
-0.638545
-0.552007
-0.599299
-0.75082
-0.856117
-1.02998
-0.195683
-0.0657688
-0.0556343
-0.0299051
-0.0717984
-0.107778
-0.104236
-0.0185109
-0.0391483
-0.213288
-0.155885
-0.29095
-0.194604
-0.181708
-0.196604
-0.17109
-0.178567
-0.246809
-0.351068
-0.379638
-3.17002
-2.13087
-1.34678
-0.826034
-0.692556
-0.926415
-1.38397
-1.92885
-2.51054
-3.01847
-3.27394
-3.36708
-3.27702
-2.9802
-2.64217
-2.51715
-2.36368
-2.83002
-3.50006
-4.50458
-2.87818
-1.97532
-1.20146
-0.820889
-0.627149
-0.913702
-1.35858
-1.80404
-2.30431
-2.72767
-3.00822
-3.13764
-3.04772
-2.82558
-2.5048
-2.4088
-2.34676
-2.67272
-3.27608
-4.12853
-2.46776
-1.7718
-1.18606
-0.844757
-0.774924
-0.930806
-1.19652
-1.64789
-2.04022
-2.46227
-2.70462
-2.86463
-2.69847
-2.41769
-2.34358
-2.18463
-2.16808
-2.44694
-2.99334
-3.66949
-2.07949
-1.52273
-1.04138
-0.792678
-0.688753
-0.772916
-1.10651
-1.40424
-1.7754
-2.1022
-2.32673
-2.36917
-2.32618
-2.13883
-1.94634
-1.87861
-1.88439
-2.1036
-2.63038
-3.10491
-1.6034
-1.18824
-0.786161
-0.570602
-0.541877
-0.673917
-0.90677
-1.07778
-1.43335
-1.69139
-1.87752
-1.90524
-1.87506
-1.7551
-1.5545
-1.51123
-1.56745
-1.71558
-2.13578
-2.47988
-1.19108
-0.918673
-0.555796
-0.427707
-0.407582
-0.401999
-0.59199
-0.824547
-1.02828
-1.16936
-1.31841
-1.4005
-1.37984
-1.28366
-1.15258
-1.13841
-1.13812
-1.3914
-1.51885
-1.82896
-0.706229
-0.558959
-0.31848
-0.267433
-0.307854
-0.252937
-0.417854
-0.46884
-0.643812
-0.732749
-0.778585
-0.875224
-0.781046
-0.778878
-0.772542
-0.676923
-0.585654
-0.762851
-0.965814
-1.05335
-0.246979
-0.24627
-0.054373
-0.181573
-0.0955524
-0.13102
-0.134377
-0.146834
-0.217478
-0.23724
-0.300323
-0.228613
-0.376962
-0.300573
-0.292727
-0.228504
-0.161675
-0.317803
-0.331744
-0.322113
-3.73774
-2.7513
-1.91133
-1.4542
-1.32205
-1.58054
-2.02876
-2.60249
-3.15307
-3.74071
-4.11422
-4.14392
-4.03625
-3.60986
-3.29667
-2.9351
-2.98409
-3.31657
-4.00996
-4.8087
-3.38932
-2.55275
-1.76808
-1.4549
-1.29205
-1.50491
-1.86262
-2.34202
-2.92741
-3.33243
-3.76024
-3.74513
-3.62146
-3.369
-3.0402
-2.80163
-2.87433
-3.19082
-3.70069
-4.59162
-2.87178
-2.19944
-1.58095
-1.3208
-1.22109
-1.26006
-1.76127
-2.11554
-2.59819
-2.99844
-3.28288
-3.30822
-3.27163
-3.00617
-2.81856
-2.51131
-2.54975
-2.86774
-3.30559
-3.89337
-2.34489
-1.82996
-1.41068
-1.11293
-1.00287
-1.18804
-1.42933
-1.75227
-2.23853
-2.54596
-2.84252
-2.83075
-2.69711
-2.52381
-2.44433
-2.19661
-2.2207
-2.41896
-2.84026
-3.35084
-1.88876
-1.51804
-1.0957
-0.971961
-0.903133
-0.998779
-1.14734
-1.47162
-1.81468
-2.02994
-2.21253
-2.25856
-2.08897
-2.02501
-1.91594
-1.73624
-1.72434
-1.93838
-2.2237
-2.70655
-1.3305
-1.13382
-0.823658
-0.657597
-0.596468
-0.662621
-0.896065
-0.999766
-1.25804
-1.44615
-1.55032
-1.57316
-1.61455
-1.41685
-1.39762
-1.2578
-1.29901
-1.39832
-1.72891
-1.96348
-0.770197
-0.69616
-0.455845
-0.433157
-0.416323
-0.355602
-0.548141
-0.691156
-0.764916
-0.835561
-0.926911
-1.00084
-0.956298
-0.947204
-0.902133
-0.775475
-0.9209
-0.83444
-0.991787
-1.25616
-0.285405
-0.24092
-0.220533
-0.111162
-0.124342
-0.161064
-0.189612
-0.210667
-0.257183
-0.353941
-0.380863
-0.342347
-0.393849
-0.270949
-0.278051
-0.271913
-0.238516
-0.279279
-0.34387
-0.423402
-4.28484
-3.34227
-2.47731
-2.14269
-2.02324
-2.16045
-2.5946
-3.16949
-3.76093
-4.35558
-4.69217
-4.76801
-4.51614
-4.15597
-3.73943
-3.46705
-3.45683
-3.64585
-4.35742
-5.14019
-3.80062
-3.0065
-2.29151
-1.88841
-1.85958
-2.02477
-2.422
-2.88498
-3.43678
-3.97126
-4.18203
-4.2846
-4.12852
-3.83979
-3.48998
-3.26506
-3.24342
-3.49613
-4.05197
-4.72649
-3.22948
-2.58519
-2.02939
-1.74302
-1.57764
-1.78536
-2.18457
-2.55792
-3.00145
-3.40286
-3.60253
-3.72485
-3.64089
-3.36049
-3.01915
-2.89268
-2.89155
-3.16563
-3.58765
-4.17165
-2.78506
-2.19435
-1.6859
-1.5071
-1.39607
-1.51923
-1.82322
-2.14563
-2.50995
-2.92021
-3.12565
-3.12918
-3.02297
-2.87101
-2.65925
-2.51442
-2.48702
-2.65921
-3.15517
-3.54028
-2.20966
-1.80754
-1.41144
-1.11265
-1.08586
-1.18921
-1.41183
-1.67865
-2.0354
-2.28017
-2.47001
-2.49399
-2.42242
-2.25222
-2.17924
-1.99203
-2.05492
-2.11058
-2.53685
-2.8414
-1.56354
-1.30782
-0.992854
-0.833594
-0.756428
-0.841017
-1.10555
-1.32318
-1.43635
-1.65988
-1.8346
-1.76092
-1.7469
-1.67164
-1.5702
-1.40035
-1.41733
-1.55299
-1.85779
-2.00663
-0.895545
-0.77146
-0.632357
-0.539737
-0.521611
-0.599313
-0.560554
-0.705271
-0.884185
-1.01225
-1.01772
-1.04088
-1.04696
-1.06947
-0.958627
-0.929919
-0.92685
-0.936776
-1.16977
-1.17954
-0.301915
-0.211599
-0.214189
-0.170085
-0.114574
-0.202894
-0.236167
-0.301727
-0.377722
-0.289432
-0.344648
-0.390418
-0.411764
-0.371838
-0.304526
-0.181814
-0.263389
-0.387306
-0.354144
-0.469733
-4.74145
-3.79714
-3.02304
-2.65473
-2.57867
-2.68722
-3.03685
-3.68787
-4.23522
-4.79047
-5.11798
-5.24555
-4.93346
-4.56649
-4.17208
-3.90745
-3.77711
-4.06355
-4.6713
-5.38903
-4.19362
-3.48292
-2.72432
-2.37115
-2.26408
-2.46635
-2.77148
-3.29673
-3.83878
-4.24687
-4.58299
-4.65802
-4.50769
-4.08549
-3.88433
-3.62437
-3.57748
-3.87219
-4.30589
-4.94473
-3.60882
-2.92296
-2.42301
-2.13469
-2.10034
-2.23694
-2.5813
-2.90288
-3.42121
-3.77394
-4.03153
-4.08003
-3.9414
-3.62401
-3.34778
-3.20198
-3.19889
-3.35455
-3.85212
-4.42084
-2.99586
-2.48155
-2.09885
-1.78902
-1.68032
-1.83904
-2.11146
-2.47424
-2.90185
-3.1726
-3.39492
-3.39488
-3.28421
-3.10563
-2.80345
-2.67863
-2.71292
-2.89475
-3.31838
-3.7665
-2.31689
-1.9447
-1.64344
-1.41123
-1.4178
-1.48528
-1.71135
-1.9206
-2.26915
-2.43985
-2.71419
-2.73085
-2.58996
-2.48406
-2.35883
-2.18808
-2.14566
-2.38136
-2.56171
-2.91855
-1.6534
-1.43212
-1.08605
-1.03418
-1.04826
-1.05954
-1.22804
-1.39342
-1.66185
-1.73687
-1.89669
-1.90038
-1.89765
-1.73718
-1.6436
-1.60778
-1.62414
-1.71043
-1.91762
-2.12701
-1.07373
-0.892536
-0.704347
-0.652332
-0.597948
-0.59416
-0.785059
-0.87776
-0.939482
-1.08911
-1.15704
-1.19511
-1.0846
-1.11027
-1.1025
-0.908529
-0.999544
-1.07186
-1.12414
-1.28657
-0.292996
-0.359993
-0.230437
-0.188273
-0.227145
-0.255027
-0.252284
-0.197895
-0.310953
-0.332105
-0.320368
-0.477569
-0.400661
-0.413243
-0.288064
-0.32227
-0.357981
-0.402344
-0.315072
-0.516865
-5.04278
-4.19642
-3.49061
-3.16132
-2.90366
-3.16287
-3.43473
-3.99139
-4.48663
-5.00319
-5.39201
-5.44958
-5.24197
-4.7948
-4.39335
-4.15019
-4.02972
-4.33482
-4.89415
-5.5795
-4.43024
-3.79018
-3.13607
-2.7547
-2.70561
-2.83015
-3.13845
-3.54014
-4.14748
-4.54201
-4.86363
-4.84239
-4.75534
-4.32311
-4.04781
-3.77277
-3.71936
-3.98281
-4.61236
-5.07399
-3.83749
-3.22063
-2.76494
-2.41402
-2.29302
-2.42773
-2.7694
-3.14507
-3.6594
-4.00113
-4.16867
-4.20316
-4.06803
-3.79324
-3.60365
-3.37226
-3.32177
-3.61072
-4.0479
-4.61113
-3.24656
-2.75663
-2.24881
-2.0388
-1.99297
-2.07456
-2.35333
-2.61871
-3.00045
-3.2794
-3.45073
-3.48571
-3.44498
-3.22357
-2.9879
-2.86972
-2.83874
-3.09473
-3.38866
-3.73019
-2.55486
-2.12535
-1.8294
-1.5893
-1.58201
-1.69028
-1.87649
-2.05805
-2.40298
-2.64107
-2.84277
-2.82239
-2.68445
-2.62987
-2.45128
-2.29193
-2.31769
-2.42773
-2.77133
-3.02922
-1.78558
-1.57338
-1.27129
-1.19398
-1.14915
-1.16475
-1.30725
-1.51078
-1.74981
-1.81325
-2.01781
-2.08711
-2.00925
-1.91697
-1.83403
-1.70744
-1.70311
-1.78436
-1.9951
-2.1772
-1.04854
-0.888698
-0.835448
-0.730724
-0.654125
-0.692199
-0.811947
-0.903897
-0.977282
-1.11937
-1.21449
-1.15569
-1.16954
-1.10473
-1.03962
-0.96146
-1.07899
-1.06784
-1.17636
-1.25621
-0.379264
-0.341493
-0.217688
-0.271017
-0.211275
-0.273236
-0.255411
-0.297754
-0.373713
-0.319119
-0.393784
-0.386268
-0.383765
-0.418507
-0.391455
-0.363446
-0.315061
-0.343949
-0.450857
-0.453848
-5.31055
-4.52091
-3.81438
-3.42422
-3.27828
-3.38246
-3.67573
-4.16664
-4.7225
-5.15887
-5.41834
-5.47977
-5.20041
-4.80745
-4.413
-4.28669
-4.20018
-4.4081
-5.09965
-5.66078
-4.75459
-4.03068
-3.50904
-3.13651
-2.91144
-3.11164
-3.34784
-3.73937
-4.22076
-4.63545
-4.91226
-4.90168
-4.68314
-4.52103
-4.1208
-3.85009
-3.94823
-4.06757
-4.57293
-5.18576
-4.07982
-3.53464
-3.05517
-2.69415
-2.59053
-2.61397
-2.9447
-3.26695
-3.62621
-4.13915
-4.19067
-4.31598
-4.17697
-3.82649
-3.66565
-3.55905
-3.49088
-3.60203
-4.06817
-4.54174
-3.38349
-2.98178
-2.52611
-2.20525
-2.08098
-2.26171
-2.43352
-2.81619
-3.09078
-3.33095
-3.49883
-3.6366
-3.47923
-3.23237
-3.03915
-2.89653
-2.93142
-3.15827
-3.40808
-3.8163
-2.66644
-2.31448
-2.04028
-1.82113
-1.65951
-1.77477
-1.98996
-2.1395
-2.50274
-2.70152
-2.86475
-2.8464
-2.76978
-2.52757
-2.41517
-2.39186
-2.31435
-2.47512
-2.78787
-3.09529
-1.90143
-1.70045
-1.46799
-1.42625
-1.2468
-1.25111
-1.42641
-1.56469
-1.78174
-1.91949
-1.97145
-2.02401
-2.01379
-1.94419
-1.80889
-1.70662
-1.72577
-1.77336
-1.96812
-2.17581
-1.13125
-1.03259
-0.810762
-0.732241
-0.826572
-0.80754
-0.838411
-0.858947
-1.03796
-1.15203
-1.23828
-1.22324
-1.19224
-1.13314
-1.03709
-1.00565
-1.0686
-1.08308
-1.27737
-1.39452
-0.418256
-0.332338
-0.294836
-0.279794
-0.258842
-0.25417
-0.244585
-0.34217
-0.330861
-0.451163
-0.427824
-0.390089
-0.422307
-0.396128
-0.382044
-0.441764
-0.357255
-0.398774
-0.372622
-0.469628
-5.50638
-4.75312
-4.05118
-3.6636
-3.41225
-3.57634
-3.83891
-4.20902
-4.66929
-5.08032
-5.35529
-5.42236
-5.10104
-4.84891
-4.46499
-4.25993
-4.17588
-4.46088
-4.98173
-5.65216
-4.90162
-4.29734
-3.62703
-3.26791
-3.05914
-3.17343
-3.40084
-3.79159
-4.2498
-4.53503
-4.79172
-4.81995
-4.61939
-4.37858
-4.09256
-3.92305
-3.87153
-4.16727
-4.59439
-5.13164
-4.14806
-3.64717
-3.21239
-2.83533
-2.718
-2.79733
-3.01619
-3.34769
-3.63145
-3.95068
-4.07395
-4.22515
-4.00265
-3.834
-3.52845
-3.49394
-3.46691
-3.64513
-3.9954
-4.59643
-3.45159
-3.00199
-2.5495
-2.34752
-2.28977
-2.32701
-2.50586
-2.66408
-3.07668
-3.372
-3.4352
-3.49627
-3.34422
-3.23731
-3.05041
-2.90111
-2.9937
-3.01968
-3.44482
-3.89567
-2.71928
-2.46303
-2.06445
-1.88881
-1.81068
-1.82006
-1.96971
-2.1575
-2.3776
-2.58726
-2.75584
-2.84971
-2.73962
-2.60359
-2.38604
-2.25959
-2.40045
-2.51373
-2.76937
-2.99177
-1.9188
-1.76944
-1.44925
-1.32117
-1.2698
-1.40963
-1.42713
-1.61855
-1.72698
-1.92885
-2.02884
-2.04875
-1.97534
-1.88996
-1.71624
-1.7284
-1.71094
-1.75655
-1.95484
-2.25414
-1.13901
-1.00693
-0.888424
-0.83116
-0.822796
-0.845179
-0.84045
-0.961316
-1.04452
-1.1081
-1.26808
-1.17475
-1.19702
-1.20085
-1.13817
-1.02309
-0.98886
-1.04555
-1.17654
-1.34549
-0.410596
-0.36792
-0.245991
-0.303427
-0.235754
-0.251733
-0.300414
-0.373243
-0.253026
-0.380852
-0.370208
-0.422587
-0.386869
-0.346639
-0.309172
-0.275006
-0.311424
-0.351568
-0.385517
-0.442988
-5.57633
-4.74307
-4.18957
-3.61678
-3.4497
-3.56199
-3.82196
-4.09537
-4.5408
-4.79316
-5.01751
-5.00639
-4.87356
-4.57746
-4.22471
-4.07523
-4.10153
-4.34318
-4.87293
-5.46377
-4.93222
-4.2671
-3.74175
-3.35108
-3.13279
-3.28699
-3.39109
-3.72275
-4.05791
-4.42808
-4.52976
-4.50349
-4.38638
-4.11298
-3.96289
-3.76583
-3.76605
-3.94749
-4.51421
-4.94364
-4.17294
-3.69944
-3.16146
-2.90283
-2.81763
-2.81184
-2.92804
-3.26219
-3.50508
-3.79365
-4.00244
-3.94137
-3.82014
-3.60856
-3.41827
-3.36658
-3.36375
-3.60521
-4.0402
-4.42505
-3.47082
-3.10021
-2.70954
-2.47602
-2.30988
-2.37228
-2.46002
-2.67269
-2.96918
-3.16855
-3.23057
-3.29015
-3.25157
-3.11372
-2.94931
-2.89912
-2.84535
-3.0701
-3.28095
-3.68923
-2.75337
-2.37326
-2.18601
-1.90364
-1.77542
-1.80044
-1.98108
-2.17862
-2.3262
-2.51485
-2.58967
-2.6277
-2.50899
-2.49974
-2.35516
-2.32646
-2.36199
-2.42274
-2.66773
-2.92885
-1.91997
-1.78547
-1.52613
-1.43528
-1.41301
-1.40887
-1.42541
-1.55061
-1.67084
-1.83744
-1.8901
-1.96761
-1.85431
-1.78491
-1.78126
-1.62445
-1.65041
-1.84577
-1.95796
-2.12474
-1.18261
-1.10986
-0.98698
-0.789413
-0.797173
-0.749985
-0.873902
-0.894434
-0.995948
-1.03604
-1.14053
-1.15024
-1.20153
-1.14206
-1.01216
-0.964925
-1.0098
-1.08113
-1.16302
-1.29683
-0.431732
-0.365808
-0.29748
-0.28395
-0.311609
-0.310948
-0.237138
-0.332092
-0.307967
-0.441283
-0.428957
-0.373949
-0.400702
-0.411705
-0.362354
-0.289257
-0.374569
-0.354557
-0.408349
-0.401566
-5.52254
-4.70178
-4.06248
-3.6482
-3.46833
-3.41884
-3.62441
-3.79914
-4.18219
-4.48172
-4.61227
-4.58358
-4.46639
-4.15638
-3.89846
-3.74609
-3.81615
-4.07506
-4.56781
-5.18125
-4.84808
-4.23906
-3.68112
-3.22777
-3.13549
-3.10083
-3.22491
-3.50864
-3.74424
-4.00347
-4.15389
-4.19754
-3.99242
-3.88748
-3.62746
-3.55229
-3.45988
-3.81101
-4.20502
-4.69393
-4.18921
-3.71656
-3.18684
-2.83731
-2.73603
-2.68302
-2.82269
-3.10261
-3.32096
-3.53447
-3.70016
-3.62355
-3.62538
-3.38956
-3.26347
-3.03589
-3.13264
-3.30976
-3.74262
-4.12283
-3.44273
-3.02653
-2.61029
-2.40827
-2.31749
-2.27196
-2.37034
-2.57142
-2.71784
-2.98564
-3.03849
-3.01505
-2.97876
-2.85906
-2.65298
-2.66268
-2.74104
-2.88963
-3.18165
-3.47098
-2.67403
-2.4634
-2.12872
-1.94243
-1.91045
-1.81288
-1.93032
-1.95022
-2.21228
-2.22809
-2.42498
-2.40774
-2.31895
-2.25858
-2.22163
-2.16679
-2.15716
-2.28887
-2.56944
-2.78766
-1.89196
-1.70113
-1.50524
-1.29469
-1.27754
-1.3031
-1.34198
-1.46707
-1.58666
-1.71232
-1.8155
-1.72293
-1.76918
-1.74441
-1.61575
-1.50717
-1.619
-1.71591
-1.8808
-2.07428
-1.24266
-1.06312
-0.933419
-0.780193
-0.827247
-0.822273
-0.782692
-0.892602
-0.947106
-1.0225
-1.0259
-1.0207
-1.08753
-0.932679
-0.971003
-0.963732
-1.00007
-0.97695
-1.13133
-1.30635
-0.433755
-0.388812
-0.315629
-0.209458
-0.301001
-0.264719
-0.227656
-0.299927
-0.361408
-0.350985
-0.31142
-0.325545
-0.342575
-0.344159
-0.318476
-0.377834
-0.380787
-0.350384
-0.350738
-0.357526
-5.29293
-4.58851
-3.90171
-3.46298
-3.23152
-3.12664
-3.29985
-3.52862
-3.67338
-3.82426
-4.07973
-4.03592
-3.85089
-3.64142
-3.41337
-3.45733
-3.31754
-3.57025
-4.16448
-4.7691
-4.71137
-4.15415
-3.55938
-3.12138
-2.89062
-2.86551
-2.9272
-3.14708
-3.42016
-3.58113
-3.66937
-3.721
-3.57968
-3.44166
-3.28003
-3.06107
-3.20102
-3.40821
-3.89303
-4.40372
-4.06512
-3.49811
-3.09216
-2.67243
-2.63437
-2.5889
-2.62652
-2.7255
-2.94671
-3.19904
-3.19839
-3.23762
-3.17177
-2.95354
-2.86693
-2.81487
-2.83759
-3.06946
-3.38264
-3.88785
-3.26316
-2.89998
-2.56848
-2.3221
-2.16613
-2.10904
-2.16987
-2.24863
-2.4452
-2.65637
-2.77851
-2.68655
-2.69259
-2.52254
-2.49258
-2.38369
-2.44188
-2.58039
-2.98281
-3.24848
-2.73367
-2.36183
-2.01908
-1.82774
-1.72889
-1.67607
-1.69463
-1.8193
-1.93232
-2.05802
-2.14258
-2.19529
-2.05309
-2.05321
-1.98799
-1.89435
-1.94073
-2.10988
-2.40798
-2.68215
-1.93573
-1.66462
-1.55977
-1.34752
-1.30543
-1.20352
-1.23398
-1.26052
-1.45737
-1.58828
-1.54079
-1.5997
-1.58999
-1.40861
-1.46188
-1.33748
-1.45861
-1.54353
-1.68776
-1.84734
-1.10502
-1.08202
-0.863091
-0.823083
-0.874582
-0.723834
-0.71958
-0.808512
-0.868772
-0.921074
-0.913907
-0.942172
-0.917761
-0.93127
-0.806138
-0.888247
-0.861144
-0.960646
-1.05095
-1.20824
-0.381705
-0.356757
-0.347697
-0.238783
-0.322567
-0.159154
-0.330407
-0.248132
-0.339754
-0.27847
-0.283997
-0.307149
-0.273387
-0.293604
-0.283214
-0.32924
-0.39821
-0.307833
-0.352846
-0.395261
-4.99783
-4.32424
-3.66435
-3.17202
-2.923
-2.80102
-2.77402
-2.97452
-3.20975
-3.22188
-3.39411
-3.321
-3.22112
-3.10948
-2.92244
-2.81176
-2.86097
-3.19029
-3.66986
-4.32257
-4.44852
-3.93456
-3.34714
-2.89053
-2.59301
-2.50503
-2.58484
-2.64948
-2.82265
-3.0537
-3.12043
-2.98789
-2.94859
-2.82358
-2.73694
-2.61229
-2.67799
-3.01395
-3.46599
-3.90385
-3.90224
-3.31428
-2.9028
-2.43585
-2.28229
-2.21039
-2.32079
-2.42639
-2.54357
-2.66155
-2.71173
-2.67343
-2.66439
-2.48701
-2.51142
-2.38563
-2.51805
-2.69662
-3.041
-3.58336
-3.24382
-2.85483
-2.44715
-2.05862
-2.00687
-1.90254
-1.96792
-1.98018
-2.19615
-2.32735
-2.34384
-2.29305
-2.25679
-2.14658
-2.08587
-2.05549
-2.18335
-2.3735
-2.62034
-2.99441
-2.55609
-2.25421
-1.89255
-1.65356
-1.5579
-1.51245
-1.49294
-1.64641
-1.68733
-1.80377
-1.8519
-1.92276
-1.7571
-1.72915
-1.65727
-1.64082
-1.73109
-1.88736
-2.07962
-2.39638
-1.79817
-1.55862
-1.34386
-1.23381
-1.06573
-1.13593
-1.06803
-1.14226
-1.22391
-1.27982
-1.31789
-1.31437
-1.33409
-1.27685
-1.2622
-1.26741
-1.23412
-1.42799
-1.64739
-1.77973
-1.01459
-1.02451
-0.866393
-0.76172
-0.700328
-0.612979
-0.707747
-0.667778
-0.718978
-0.831005
-0.803399
-0.817087
-0.785547
-0.812379
-0.748355
-0.736105
-0.765949
-0.817264
-0.938773
-1.0458
-0.366151
-0.325307
-0.254711
-0.270643
-0.251715
-0.227577
-0.249575
-0.237412
-0.287748
-0.258067
-0.206715
-0.340185
-0.284686
-0.248872
-0.207787
-0.34018
-0.241383
-0.282073
-0.301233
-0.344954
-4.61418
-3.9004
-3.26278
-2.76638
-2.52904
-2.28604
-2.29795
-2.34736
-2.51795
-2.60906
-2.62962
-2.6205
-2.48926
-2.41727
-2.23845
-2.14893
-2.40627
-2.57751
-3.07455
-3.71984
-4.12099
-3.53526
-2.90745
-2.4877
-2.26966
-2.20368
-2.14781
-2.18159
-2.37304
-2.42037
-2.51184
-2.47009
-2.37775
-2.2868
-2.20041
-2.16105
-2.31092
-2.49406
-2.95035
-3.44909
-3.50449
-3.02683
-2.6226
-2.26691
-2.01116
-1.88753
-1.87183
-1.99308
-2.0466
-2.22994
-2.18275
-2.13238
-2.15368
-2.05138
-1.95846
-1.95629
-2.13117
-2.31409
-2.7488
-3.08151
-2.94588
-2.55004
-2.184
-1.85886
-1.70135
-1.54865
-1.55367
-1.62994
-1.7408
-1.83932
-1.86191
-1.90498
-1.88527
-1.81478
-1.72511
-1.73189
-1.78806
-1.99888
-2.3193
-2.65494
-2.35315
-2.10374
-1.81076
-1.49403
-1.29968
-1.30448
-1.35687
-1.27047
-1.47057
-1.42272
-1.58937
-1.5377
-1.46442
-1.4385
-1.44999
-1.39099
-1.42912
-1.63128
-1.87969
-2.09791
-1.67168
-1.48304
-1.23363
-1.04092
-0.949726
-1.01339
-0.929468
-0.997185
-0.99598
-1.11563
-1.11331
-1.16357
-1.10024
-1.03674
-1.00036
-0.95097
-1.05873
-1.26652
-1.39157
-1.64895
-0.971288
-0.91684
-0.805863
-0.650259
-0.589358
-0.598701
-0.644305
-0.599148
-0.55405
-0.649929
-0.613567
-0.598149
-0.68175
-0.598664
-0.661425
-0.630587
-0.659932
-0.748961
-0.866129
-0.958158
-0.346303
-0.308835
-0.238179
-0.271718
-0.193454
-0.207301
-0.227759
-0.131898
-0.222721
-0.192203
-0.188463
-0.283217
-0.212733
-0.148205
-0.214919
-0.208938
-0.226583
-0.196602
-0.327303
-0.324336
-4.10704
-3.4292
-2.81827
-2.30473
-1.90635
-1.67181
-1.69263
-1.68568
-1.79205
-1.87042
-1.87622
-1.86198
-1.79387
-1.58442
-1.57017
-1.60309
-1.6793
-1.99942
-2.57101
-3.15489
-3.65167
-3.08448
-2.61737
-2.19185
-1.84809
-1.70003
-1.58516
-1.56728
-1.72168
-1.7947
-1.77326
-1.90129
-1.74343
-1.71719
-1.54442
-1.56074
-1.73311
-1.95435
-2.52723
-3.05687
-3.22055
-2.72632
-2.20724
-1.98632
-1.64312
-1.57694
-1.47752
-1.5708
-1.55658
-1.69999
-1.66277
-1.69332
-1.6682
-1.51132
-1.55614
-1.54448
-1.57568
-1.87413
-2.22827
-2.72152
-2.65637
-2.28639
-1.97876
-1.70589
-1.42156
-1.31599
-1.29582
-1.32657
-1.31066
-1.47639
-1.46
-1.43612
-1.42571
-1.36734
-1.2605
-1.35766
-1.49199
-1.63587
-1.88612
-2.39058
-2.23736
-1.80298
-1.50872
-1.35597
-1.1427
-1.05575
-1.11635
-0.991393
-1.20522
-1.16567
-1.21055
-1.14769
-1.19339
-1.15495
-1.10742
-1.14136
-1.13969
-1.27118
-1.56595
-1.95031
-1.52801
-1.24532
-1.14032
-0.95154
-0.783548
-0.740552
-0.735358
-0.787159
-0.793672
-0.878157
-0.860003
-0.96033
-0.797958
-0.830988
-0.877979
-0.835723
-0.862305
-1.07846
-1.19365
-1.51199
-0.905851
-0.825026
-0.695362
-0.588382
-0.468109
-0.561602
-0.431724
-0.488896
-0.484051
-0.538937
-0.456166
-0.564187
-0.493768
-0.555562
-0.493365
-0.542077
-0.555666
-0.599499
-0.821635
-0.903392
-0.258023
-0.308592
-0.280086
-0.16946
-0.249872
-0.121513
-0.166891
-0.172272
-0.139742
-0.160098
-0.21027
-0.199832
-0.181234
-0.172329
-0.130987
-0.144975
-0.201804
-0.256716
-0.314506
-0.326928
-3.62996
-2.92635
-2.44395
-1.90982
-1.54433
-1.26022
-1.17268
-1.24715
-1.25702
-1.23898
-1.28636
-1.23256
-1.23877
-1.06048
-1.00523
-1.01531
-1.10509
-1.54057
-2.04929
-2.61343
-3.34488
-2.82571
-2.16792
-1.73948
-1.4266
-1.32132
-1.19322
-1.2294
-1.21882
-1.31319
-1.28035
-1.29842
-1.2359
-1.20481
-1.13651
-1.13271
-1.29997
-1.6167
-2.05012
-2.55551
-2.9278
-2.45978
-2.00038
-1.68039
-1.32704
-1.29596
-1.1932
-1.13289
-1.19334
-1.24556
-1.33675
-1.26982
-1.18072
-1.15289
-1.13173
-1.17047
-1.31368
-1.55855
-1.99197
-2.45114
-2.49396
-2.11099
-1.73287
-1.33541
-1.24107
-1.0931
-0.994265
-0.98348
-1.13043
-1.16465
-1.16943
-1.20933
-1.10242
-1.04161
-1.03821
-1.06011
-1.18634
-1.42385
-1.7574
-2.17076
-1.94375
-1.6672
-1.38563
-1.23764
-0.951731
-0.83366
-0.912608
-0.869965
-0.944994
-0.897629
-0.965842
-0.985994
-0.962076
-0.881875
-0.838158
-0.93051
-0.971192
-1.17341
-1.37356
-1.66771
-1.40366
-1.22667
-1.00128
-0.828242
-0.678637
-0.633728
-0.645417