/*--------------------------------*- C++ -*----------------------------------*\
| =========                 |                                                 |
| \\      /  F ield         | OpenFOAM: The Open Source CFD Toolbox           |
|  \\    /   O peration     | Version:  2212                                  |
|   \\  /    A nd           | Website:  www.openfoam.com                      |
|    \\/     M anipulation  |                                                 |
\*---------------------------------------------------------------------------*/
FoamFile
{
    version     2.0;
    format      ascii;
    arch        "LSB;label=32;scalar=64";
    class       volScalarField;
    location    "0";
    object      stateMean;
}
// * * * * * * * * * * * * * * * * * * * * * * * * * * * * * * * * * * * * * //

dimensions      [0 0 0 1 0 0 0];

internalField   nonuniform List<scalar> 
3200
(
332.172
331.335
330.729
330.74
331.074
331.689
332.435
333.187
333.768
334.337
334.534
334.488
334.195
333.804
333.306
332.737
332.429
332.529
333.115
333.761
328.122
327.412
326.886
326.869
327.191
327.716
328.376
329.112
329.623
330.126
330.321
330.269
330.039
329.669
329.209
328.816
328.529
328.676
329.012
329.782
324.018
323.361
322.901
322.956
323.259
323.628
324.27
324.841
325.348
325.718
325.798
325.857
325.688
325.315
324.974
324.708
324.341
324.474
324.847
325.442
319.757
319.238
318.829
318.823
319.179
319.482
319.955
320.455
320.865
321.111
321.276
321.326
321.207
320.949
320.651
320.38
320.2
320.244
320.588
321.031
315.433
315.037
314.83
314.799
315.04
315.344
315.624
315.956
316.28
316.585
316.691
316.65
316.625
316.374
316.15
315.882
315.742
315.786
316.119
316.434
311.092
310.812
310.548
310.588
310.658
310.934
311.256
311.503
311.747
311.92
311.968
311.937
311.934
311.714
311.572
311.475
311.381
311.498
311.57
311.891
306.606
306.452
306.354
306.324
306.405
306.591
306.747
306.878
307.073
307.141
307.198
307.18
307.186
307.081
306.989
306.948
306.807
306.852
306.955
307.185
302.227
302.152
302.143
302.088
302.177
302.214
302.291
302.273
302.365
302.367
302.527
302.362
302.468
302.396
302.441
302.25
302.367
302.364
302.336
302.43
332.435
331.526
330.991
330.955
331.363
332.031
332.935
333.619
334.281
334.827
335.008
335.033
334.769
334.269
333.636
333.084
332.786
332.841
333.294
333.989
328.31
327.617
327.094
327.126
327.512
328.071
328.721
329.417
330.019
330.439
330.642
330.614
330.466
329.971
329.545
329.091
328.805
328.856
329.247
330.002
324.098
323.575
323.109
323.073
323.44
323.846
324.509
325.147
325.595
326.037
326.229
326.189
326.029
325.672
325.303
324.909
324.646
324.717
325.004
325.63
319.865
319.406
319.11
319.047
319.38
319.673
320.225
320.684
321.119
321.395
321.627
321.602
321.411
321.134
320.844
320.561
320.408
320.344
320.675
321.164
315.471
315.107
314.937
314.917
315.102
315.409
315.802
316.147
316.506
316.802
316.898
316.893
316.784
316.622
316.287
316.129
316.008
316.074
316.189
316.481
311.212
310.951
310.721
310.7
310.832
311.102
311.347
311.555
311.811
312.012
312.118
312.083
312.107
311.905
311.753
311.571
311.432
311.506
311.653
311.986
306.711
306.495
306.488
306.403
306.461
306.704
306.783
307.041
307.073
307.187
307.34
307.291
307.154
307.231
307.118
306.987
306.867
306.922
307.053
307.188
302.286
302.189
302.134
302.182
302.147
302.21
302.229
302.335
302.395
302.396
302.486
302.481
302.426
302.394
302.39
302.31
302.305
302.278
302.345
302.411
332.847
331.963
331.495
331.55
332.011
332.695
333.593
334.328
335.05
335.57
335.817
335.869
335.424
334.931
334.308
333.67
333.342
333.246
333.753
334.535
328.74
327.94
327.577
327.511
327.913
328.591
329.361
330.106
330.692
331.125
331.418
331.395
331.106
330.653
330.172
329.62
329.325
329.291
329.651
330.288
324.392
323.848
323.499
323.435
323.885
324.411
325.033
325.638
326.185
326.529
326.76
326.79
326.494
326.182
325.802
325.25
325.006
325.023
325.326
325.888
320.159
319.609
319.357
319.337
319.525
319.989
320.565
321.086
321.504
321.906
322.005
322.032
321.797
321.608
321.182
320.926
320.712
320.634
320.898
321.347
315.798
315.354
315.106
315.093
315.359
315.637
316.097
316.395
316.837
317.107
317.215
317.242
317.09
316.873
316.55
316.361
316.139
316.233
316.44
316.741
311.294
310.974
310.821
310.947
310.996
311.146
311.517
311.821
312.075
312.33
312.324
312.289
312.262
312.058
311.942
311.692
311.587
311.647
311.867
312.037
306.81
306.638
306.62
306.555
306.682
306.78
306.867
307.148
307.27
307.435
307.465
307.44
307.39
307.288
307.205
307.106
306.96
307.03
307.1
307.238
302.313
302.262
302.188
302.178
302.146
302.284
302.327
302.464
302.381
302.427
302.504
302.499
302.509
302.403
302.433
302.38
302.382
302.371
302.421
302.487
333.524
332.73
332.222
332.19
332.724
333.454
334.351
335.187
335.988
336.497
336.775
336.83
336.377
335.847
335.258
334.525
334.043
333.97
334.363
335.009
329.246
328.601
328.204
328.164
328.633
329.315
330.07
330.822
331.471
331.962
332.234
332.236
331.831
331.426
330.824
330.29
329.94
329.816
330.235
330.779
324.948
324.425
324.065
324.023
324.365
324.888
325.624
326.309
326.874
327.249
327.513
327.499
327.22
326.873
326.384
325.853
325.606
325.532
325.814
326.309
320.472
319.982
319.811
319.837
320.067
320.556
321.1
321.642
322.14
322.438
322.703
322.598
322.405
322.087
321.659
321.357
321.128
321.077
321.362
321.737
316.039
315.764
315.5
315.493
315.743
315.976
316.47
316.898
317.164
317.552
317.722
317.641
317.601
317.323
317.002
316.737
316.558
316.527
316.712
317.025
311.496
311.282
311.062
311.132
311.271
311.547
311.827
312.058
312.37
312.587
312.743
312.726
312.579
312.415
312.211
312.024
311.851
311.895
312.062
312.207
306.928
306.806
306.691
306.609
306.854
306.982
307.139
307.24
307.426
307.495
307.606
307.582
307.601
307.467
307.37
307.156
307.135
307.175
307.261
307.379
302.285
302.281
302.199
302.275
302.264
302.366
302.41
302.419
302.53
302.493
302.523
302.587
302.509
302.495
302.364
302.437
302.464
302.368
302.418
302.384
334.374
333.594
333.154
333.184
333.66
334.32
335.319
336.203
336.993
337.647
337.889
337.845
337.494
336.767
336.105
335.453
334.976
334.863
335.244
335.879
329.986
329.332
328.976
329.034
329.427
330.036
330.868
331.66
332.38
332.938
333.18
333.179
332.85
332.305
331.752
331.074
330.667
330.597
330.955
331.504
325.478
325.104
324.788
324.747
325.068
325.642
326.269
326.985
327.531
328.016
328.246
328.28
327.963
327.505
327.042
326.564
326.232
326.233
326.436
326.879
320.99
320.565
320.396
320.437
320.674
321.08
321.753
322.214
322.72
323.092
323.273
323.316
323.028
322.672
322.353
321.866
321.633
321.617
321.894
322.198
316.419
316.069
315.913
315.896
316.109
316.494
316.97
317.28
317.786
318.031
318.161
318.245
318.071
317.746
317.472
317.126
316.937
316.903
317.102
317.404
311.76
311.568
311.393
311.442
311.523
311.797
312.074
312.493
312.596
312.96
313.035
313.03
312.932
312.756
312.567
312.377
312.193
312.129
312.289
312.442
307.079
306.944
306.865
306.898
306.921
307.111
307.33
307.496
307.616
307.765
307.82
307.829
307.699
307.648
307.565
307.424
307.406
307.328
307.396
307.502
302.381
302.342
302.336
302.339
302.412
302.369
302.443
302.552
302.557
302.557
302.672
302.667
302.666
302.577
302.427
302.513
302.497
302.45
302.403
302.53
335.35
334.704
334.306
334.281
334.759
335.452
336.338
337.271
338.104
338.855
339.092
339.08
338.693
337.956
337.194
336.5
335.963
335.902
336.211
336.765
330.898
330.31
329.968
329.936
330.419
331.013
331.807
332.634
333.384
333.91
334.232
334.094
333.729
333.216
332.624
331.984
331.608
331.472
331.781
332.245
326.289
325.781
325.438
325.537
325.904
326.329
327.062
327.787
328.451
328.924
329.161
329.095
328.808
328.42
327.875
327.367
326.967
326.938
327.226
327.587
321.669
321.246
321.058
320.981
321.265
321.758
322.298
322.82
323.392
323.818
323.962
323.941
323.747
323.367
322.912
322.583
322.26
322.233
322.393
322.694
316.819
316.52
316.464
316.377
316.657
316.935
317.432
317.823
318.252
318.568
318.731
318.686
318.576
318.271
317.919
317.61
317.46
317.395
317.502
317.762
312.126
311.929
311.826
311.723
311.904
312.168
312.509
312.862
313.047
313.321
313.416
313.505
313.302
313.182
312.869
312.674
312.479
312.518
312.579
312.779
307.272
307.24
307.094
307.101
307.156
307.341
307.507
307.684
307.896
308.007
308.154
308.118
308.022
307.861
307.806
307.613
307.551
307.596
307.603
307.705
302.435
302.329
302.352
302.362
302.44
302.512
302.54
302.482
302.521
302.706
302.649
302.773
302.658
302.618
302.601
302.539
302.511
302.543
302.614
302.619
336.533
335.87
335.56
335.549
335.932
336.664
337.576
338.499
339.354
340.004
340.26
340.21
339.847
339.172
338.38
337.756
337.087
337.043
337.239
337.868
331.925
331.34
330.975
331.036
331.289
332.008
332.846
333.618
334.354
334.902
335.182
335.188
334.862
334.313
333.599
333.071
332.562
332.447
332.641
333.176
327.143
326.711
326.47
326.501
326.81
327.331
327.929
328.656
329.247
329.774
330.017
330.072
329.706
329.15
328.744
328.22
327.824
327.731
327.932
328.344
322.335
321.992
321.791
321.847
322.053
322.435
323.041
323.563
324.097
324.51
324.735
324.691
324.485
324.073
323.608
323.243
322.938
322.854
323.099
323.361
317.402
317.15
316.966
316.988
317.199
317.563
318.007
318.354
318.835
319.16
319.347
319.307
319.151
318.855
318.443
318.168
317.984
317.896
318.098
318.279
312.503
312.346
312.139
312.18
312.332
312.491
312.832
313.19
313.484
313.672
313.821
313.856
313.745
313.524
313.242
313.062
312.89
312.974
312.946
313.141
307.509
307.431
307.283
307.334
307.478
307.523
307.778
307.904
308.134
308.251
308.297
308.365
308.216
308.139
308.043
307.847
307.653
307.728
307.838
307.856
302.529
302.551
302.39
302.552
302.501
302.569
302.603
302.641
302.729
302.758
302.821
302.741
302.871
302.77
302.731
302.634
302.532
302.654
302.637
302.604
337.84
337.21
336.819
336.842
337.195
337.92
338.79
339.713
340.516
341.236
341.609
341.507
341.147
340.371
339.636
338.808
338.372
338.225
338.469
338.911
333.079
332.545
332.148
332.25
332.507
333.123
333.847
334.629
335.432
335.951
336.379
336.25
335.908
335.353
334.658
334.017
333.669
333.571
333.693
334.282
328.093
327.671
327.379
327.471
327.725
328.106
328.915
329.527
330.193
330.689
330.974
330.903
330.683
330.16
329.665
329.015
328.7
328.666
328.778
329.114
323.049
322.736
322.583
322.573
322.753
323.217
323.71
324.243
324.88
325.266
325.563
325.472
325.188
324.805
324.473
323.947
323.681
323.591
323.746
324.055
318.037
317.821
317.606
317.705
317.862
318.175
318.519
319.007
319.467
319.743
319.926
319.911
319.624
319.397
319.092
318.695
318.457
318.448
318.527
318.855
312.892
312.806
312.643
312.636
312.735
312.957
313.331
313.551
313.892
314.124
314.228
314.207
314.166
313.852
313.692
313.397
313.277
313.217
313.401
313.525
307.724
307.715
307.563
307.636
307.716
307.749
308.025
308.238
308.362
308.459
308.55
308.598
308.503
308.424
308.295
308.075
308.124
307.941
308.011
308.21
302.617
302.595
302.605
302.527
302.572
302.641
302.698
302.742
302.805
302.911
302.938
302.89
302.925
302.779
302.758
302.72
302.655
302.663
302.698
302.755
339.238
338.633
338.19
338.306
338.637
339.206
340.031
340.927
341.75
342.466
342.802
342.757
342.274
341.592
340.785
340.081
339.62
339.359
339.648
340.093
334.232
333.723
333.373
333.358
333.721
334.26
334.995
335.736
336.488
337.127
337.338
337.336
336.98
336.413
335.725
335.126
334.713
334.577
334.769
335.157
329.079
328.672
328.424
328.466
328.632
329.156
329.841
330.449
331.061
331.552
331.752
331.785
331.532
331.016
330.39
329.947
329.615
329.561
329.675
330.022
324.006
323.606
323.348
323.438
323.597
323.979
324.516
325.032
325.534
326.016
326.222
326.153
325.909
325.564
325.119
324.715
324.418
324.321
324.567
324.761
318.761
318.506
318.303
318.214
318.397
318.702
319.106
319.523
319.986
320.287
320.477
320.445
320.266
319.946
319.692
319.303
319.156
319.003
319.235
319.392
313.414
313.262
313.085
313.076
313.148
313.377
313.771
314.095
314.285
314.549
314.724
314.61
314.519
314.337
314.106
313.792
313.659
313.645
313.812
313.857
308.023
307.96
307.904
307.902
307.974
308.137
308.177
308.385
308.61
308.762
308.768
308.767
308.727
308.685
308.497
308.382
308.289
308.209
308.359
308.307
302.693
302.623
302.653
302.639
302.614
302.731
302.79
302.878
302.969
302.888
302.944
302.981
302.988
302.926
302.833
302.681
302.732
302.826
302.765
302.861
340.661
340.034
339.655
339.705
340.047
340.554
341.261
342.206
342.963
343.628
343.956
343.974
343.451
342.79
342.039
341.375
340.827
340.696
340.908
341.309
335.466
335.023
334.605
334.615
334.87
335.417
336.031
336.812
337.536
338.039
338.375
338.355
338.023
337.345
336.835
336.23
335.821
335.753
335.846
336.217
330.174
329.71
329.497
329.516
329.787
330.216
330.822
331.359
332.031
332.464
332.722
332.69
332.397
331.865
331.327
330.889
330.58
330.429
330.639
330.986
324.803
324.468
324.319
324.26
324.401
324.799
325.285
325.824
326.378
326.715
326.937
326.871
326.634
326.28
325.763
325.4
325.184
325.115
325.304
325.574
319.325
319.091
318.97
318.933
319.135
319.388
319.78
320.127
320.573
320.795
321.069
321.035
320.796
320.553
320.262
319.905
319.668
319.708
319.708
319.927
313.83
313.707
313.49
313.577
313.731
313.875
314.162
314.425
314.764
314.875
315.035
315.002
314.93
314.671
314.459
314.291
314.167
314.114
314.193
314.304
308.398
308.275
308.164
308.195
308.225
308.3
308.563
308.715
308.818
308.989
309.057
309.074
308.922
308.888
308.809
308.536
308.543
308.532
308.506
308.611
302.75
302.836
302.732
302.718
302.785
302.84
302.861
302.826
302.953
302.982
302.97
303.12
303.029
303.022
302.873
302.88
302.888
302.904
302.791
302.974
342.045
341.495
341.158
341.215
341.343
341.967
342.565
343.388
344.075
344.69
345.079
345.038
344.639
343.925
343.197
342.589
342.084
342.002
342.193
342.582
336.644
336.255
335.919
335.873
336.158
336.598
337.188
337.822
338.593
339.074
339.396
339.288
339.037
338.373
337.816
337.225
336.837
336.766
337.077
337.288
331.202
330.794
330.605
330.538
330.7
331.102
331.682
332.253
332.907
333.321
333.489
333.451
333.176
332.706
332.278
331.779
331.446
331.451
331.621
331.976
325.711
325.388
325.098
325.12
325.305
325.606
326.079
326.505
327
327.339
327.511
327.486
327.331
326.95
326.519
326.182
325.92
325.944
326.02
326.194
320.075
319.774
319.647
319.588
319.76
320.038
320.376
320.683
321.116
321.4
321.602
321.535
321.309
321.13
320.799
320.47
320.317
320.246
320.42
320.549
314.33
314.208
314.027
314.079
314.162
314.3
314.55
314.843
315.145
315.241
315.446
315.482
315.341
315.16
314.969
314.72
314.588
314.54
314.63
314.721
308.593
308.488
308.506
308.479
308.48
308.591
308.776
308.921
309.032
309.194
309.289
309.211
309.187
309.069
308.939
308.787
308.827
308.739
308.775
308.8
302.91
302.89
302.791
302.87
302.836
302.922
302.926
302.987
303.076
303.027
303.102
303.088
303.073
303.09
303.04
302.988
302.914
302.917
303
302.985
343.514
343
342.634
342.602
342.809
343.246
343.835
344.568
345.294
345.821
346.08
346.052
345.601
344.966
344.277
343.818
343.378
343.228
343.579
343.864
338.014
337.524
337.296
337.234
337.314
337.803
338.295
338.896
339.526
340.017
340.294
340.207
339.84
339.468
338.812
338.253
338.045
337.855
338.066
338.445
332.332
331.981
331.749
331.65
331.806
332.073
332.621
333.12
333.604
334.183
334.235
334.294
334.03
333.502
333.125
332.774
332.447
332.296
332.514
332.794
326.575
326.33
326.076
325.969
326.057
326.438
326.787
327.314
327.692
327.985
328.153
328.238
327.977
327.585
327.215
326.873
326.695
326.708
326.756
327.008
320.754
320.522
320.405
320.352
320.356
320.626
320.979
321.241
321.685
321.925
322.088
322.028
321.872
321.517
321.266
321.088
320.845
320.84
320.996
321.183
314.852
314.735
314.615
314.692
314.631
314.746
315.019
315.239
315.513
315.68
315.732
315.755
315.688
315.537
315.304
315.091
314.992
314.92
315.003
315.127
308.92
308.872
308.717
308.71
308.876
308.923
309.013
309.082
309.295
309.427
309.513
309.48
309.415
309.308
309.152
309.055
309.047
308.989
309.116
309.184
303.031
302.961
302.947
302.956
302.959
302.976
302.987
303.1
303.1
303.226
303.203
303.159
303.18
303.138
303.104
303.142
303.033
303.051
303.002
303.083
345.03
344.533
344.146
344.087
344.158
344.624
345.154
345.742
346.356
346.847
347.122
347.109
346.634
346.164
345.513
345.006
344.599
344.556
344.762
345.176
339.31
338.922
338.524
338.449
338.52
338.896
339.356
339.935
340.526
340.881
341.138
341.096
340.762
340.334
339.816
339.384
339.053
339.064
339.219
339.54
333.376
333.055
332.849
332.712
332.832
333.133
333.548
334.039
334.435
334.814
334.937
335.029
334.694
334.366
333.864
333.608
333.344
333.282
333.403
333.824
327.445
327.139
326.873
326.869
327.004
327.223
327.562
327.851
328.356
328.699
328.762
328.775
328.531
328.293
327.946
327.615
327.515
327.344
327.582
327.889
321.432
321.287
321.032
321.01
321.083
321.233
321.508
321.798
322.089
322.336
322.505
322.561
322.38
322.142
321.799
321.532
321.521
321.482
321.593
321.705
315.317
315.245
315.028
315.01
315.066
315.307
315.413
315.678
315.837
316.066
316.166
316.159
316.034
315.876
315.613
315.524
315.4
315.336
315.431
315.652
309.197
309.111
309.054
309.063
309.12
309.202
309.251
309.416
309.53
309.609
309.769
309.66
309.652
309.612
309.495
309.32
309.221
309.212
309.281
309.403
303.114
303.086
302.985
303.064
303.019
303.055
303.121
303.209
303.099
303.232
303.221
303.269
303.223
303.168
303.112
303.058
303.072
303.091
303.104
303.146
346.539
345.943
345.68
345.408
345.535
345.921
346.422
346.89
347.474
347.797
348.022
347.939
347.669
347.177
346.584
346.16
345.893
345.833
346.073
346.427
340.593
340.129
339.854
339.723
339.76
340.151
340.464
340.966
341.42
341.852
341.954
341.865
341.629
341.186
340.827
340.393
340.138
340.059
340.376
340.605
334.465
334.157
333.83
333.792
333.923
334.118
334.41
334.888
335.232
335.573
335.781
335.668
335.446
335.091
334.724
334.472
334.253
334.274
334.498
334.717
328.337
328.099
327.881
327.827
327.838
328.064
328.297
328.627
329.006
329.249
329.311
329.327
329.206
328.951
328.641
328.427
328.196
328.241
328.28
328.555
322.146
321.869
321.815
321.673
321.681
321.835
322.128
322.417
322.629
322.851
322.926
322.931
322.747
322.647
322.39
322.232
322.131
322.052
322.164
322.322
315.805
315.742
315.578
315.587
315.664
315.751
315.848
316.039
316.205
316.395
316.448
316.502
316.342
316.208
316.123
315.875
315.802
315.898
315.915
316.01
309.534
309.504
309.438
309.3
309.367
309.375
309.547
309.606
309.736
309.79
309.895
309.89
309.914
309.815
309.637
309.535
309.521
309.532
309.557
309.648
303.233
303.181
303.132
303.139
303.186
303.204
303.146
303.254
303.239
303.377
303.365
303.305
303.323
303.321
303.255
303.163
303.23
303.19
303.223
303.203
348.044
347.442
347.068
346.928
347.015
347.214
347.636
347.986
348.492
348.855
348.985
348.894
348.653
348.168
347.693
347.293
347.096
347.081
347.308
347.702
341.864
341.44
341.111
340.896
341.035
341.215
341.527
341.963
342.305
342.619
342.77
342.759
342.446
342.189
341.741
341.452
341.128
341.241
341.406
341.71
335.631
335.312
334.975
334.827
334.921
335.05
335.349
335.758
336.066
336.326
336.492
336.369
336.28
335.916
335.63
335.221
335.123
335.098
335.338
335.565
329.252
328.959
328.7
328.663
328.732
328.836
329.064
329.37
329.591
329.897
329.949
329.888
329.778
329.553
329.217
329.078
328.996
328.98
329.114
329.28
322.802
322.686
322.475
322.415
322.508
322.527
322.745
322.847
323.167
323.212
323.409
323.363
323.216
323.074
322.936
322.765
322.63
322.635
322.792
322.916
316.303
316.179
316.07
315.952
316.024
316.132
316.243
316.426
316.588
316.734
316.837
316.724
316.728
316.645
316.445
316.253
316.276
316.281
316.359
316.485
309.91
309.77
309.692
309.594
309.695
309.739
309.744
309.889
309.968
310.057
310.06
310.042
310.084
309.894
309.888
309.832
309.814
309.736
309.838
309.973
303.341
303.309
303.254
303.165
303.275
303.256
303.234
303.317
303.387
303.381
303.341
303.352
303.36
303.35
303.309
303.352
303.337
303.288
303.271
303.265
349.482
348.98
348.536
348.348
348.359
348.477
348.845
349.23
349.484
349.692
349.948
349.847
349.552
349.186
348.763
348.584
348.203
348.204
348.555
348.958
343.177
342.79
342.405
342.184
342.164
342.333
342.563
342.919
343.287
343.497
343.585
343.588
343.352
343.078
342.747
342.334
342.264
342.254
342.529
342.87
336.736
336.31
336.082
335.845
335.985
336.104
336.285
336.498
336.801
337.094
337.093
337.092
336.945
336.612
336.382
336.166
336.011
336.059
336.195
336.559
330.08
329.83
329.643
329.547
329.537
329.614
329.792
329.965
330.227
330.472
330.595
330.469
330.409
330.145
329.998
329.755
329.667
329.655
329.913
330.065
323.648
323.363
323.132
323.058
323.072
323.124
323.234
323.431
323.595
323.748
323.833
323.858
323.665
323.592
323.436
323.237
323.171
323.223
323.409
323.596
316.909
316.699
316.674
316.546
316.584
316.557
316.653
316.732
316.965
317.115
317.068
317.108
317.061
316.828
316.815
316.616
316.657
316.658
316.722
316.82
310.11
310.123
309.952
309.962
310.063
309.957
309.992
310.113
310.195
310.258
310.251
310.268
310.222
310.203
310.039
310.076
310
310.05
310.092
310.213
303.402
303.39
303.397
303.304
303.405
303.256
303.44
303.368
303.468
303.41
303.416
303.435
303.393
303.404
303.38
303.411
303.463
303.357
303.386
303.415
350.948
350.458
350.022
349.758
349.728
349.808
349.956
350.297
350.63
350.692
350.864
350.741
350.543
350.291
349.929
349.617
349.447
349.548
349.804
350.273
344.441
344.084
343.689
343.43
343.322
343.409
343.641
343.827
344.086
344.36
344.426
344.251
344.127
343.88
343.641
343.341
343.217
343.356
343.615
343.896
337.866
337.408
337.159
336.859
336.866
336.942
337.182
337.39
337.58
337.735
337.785
337.709
337.628
337.348
337.243
336.97
336.941
336.953
337.135
337.547
331.119
330.834
330.559
330.308
330.388
330.405
330.575
330.671
330.946
331.108
331.125
331.043
330.948
330.754
330.588
330.436
330.432
330.486
330.599
330.869
324.293
324.071
323.813
323.68
323.687
323.736
323.798
324.017
324.104
324.245
324.293
324.34
324.128
324.034
323.881
323.77
323.757
323.807
323.897
324.133
317.359
317.177
317.035
317.001
316.907
317.044
317.035
317.156
317.27
317.343
317.381
317.36
317.348
317.244
317.17
317.108
317.001
317.119
317.265
317.341
310.373
310.417
310.302
310.244
310.226
310.179
310.309
310.298
310.368
310.49
310.462
310.466
310.416
310.413
310.314
310.262
310.248
310.253
310.331
310.404
303.505
303.475
303.42
303.451
303.447
303.436
303.47
303.467
303.524
303.498
303.447
303.576
303.515
303.469
303.416
303.535
303.421
303.447
303.451
303.484
352.368
351.824
351.391
351.102
351.064
351.004
351.173
351.348
351.607
351.743
351.764
351.71
351.49
351.292
350.956
350.684
350.742
350.706
350.999
351.474
345.671
345.229
344.778
344.539
344.494
344.586
344.667
344.81
345.077
345.163
345.255
345.174
345.006
344.806
344.582
344.385
344.362
344.365
344.644
344.999
338.781
338.423
338.168
337.965
337.856
337.867
337.967
338.18
338.299
338.515
338.468
338.384
338.341
338.146
337.937
337.801
337.829
337.859
338.145
338.359
331.892
331.592
331.348
331.148
331.11
331.067
331.167
331.319
331.483
331.608
331.631
331.647
331.574
331.428
331.243
331.141
331.077
331.163
331.361
331.601
324.921
324.746
324.547
324.327
324.227
324.316
324.443
324.415
324.657
324.631
324.797
324.724
324.609
324.524
324.462
324.318
324.262
324.367
324.522
324.666
317.826
317.689
317.507
317.384
317.359
317.484
317.452
317.563
317.591
317.726
317.723
317.759
317.666
317.56
317.471
317.36
317.402
317.54
317.598
317.803
310.684
310.662
310.591
310.477
310.456
310.503
310.579
310.56
310.532
310.638
310.602
310.576
310.643
310.534
310.565
310.498
310.487
310.534
310.611
310.671
303.604
303.577
303.52
303.568
303.502
303.529
303.56
303.473
303.57
303.542
303.538
303.63
303.554
303.48
303.537
303.518
303.523
303.479
303.595
303.582
353.59
353.069
352.646
352.324
352.108
352.04
352.204
352.311
352.496
352.615
352.621
352.566
352.419
352.095
351.938
351.805
351.698
351.827
352.211
352.638
346.676
346.242
345.938
345.679
345.493
345.489
345.499
345.58
345.804
345.912
345.89
345.983
345.756
345.631
345.333
345.206
345.22
345.275
345.685
346.081
339.728
339.343
338.962
338.882
338.673
338.73
338.736
338.913
338.958
339.131
339.094
339.094
339.01
338.769
338.709
338.574
338.472
338.629
338.845
339.229
332.596
332.315
332.12
331.963
331.789
331.783
331.85
331.95
331.982
332.171
332.155
332.107
332.049
331.921
331.728
331.725
331.749
331.777
331.915
332.331
325.57
325.205
324.998
324.935
324.808
324.799
324.926
324.855
325.106
325.087
325.132
325.049
325.057
324.965
324.85
324.806
324.719
324.76
324.968
325.283
318.224
317.99
317.947
317.823
317.717
317.73
317.772
317.862
317.896
317.994
317.976
318.062
317.873
317.868
317.867
317.769
317.733
317.885
317.939
318.208
310.944
310.892
310.799
310.731
310.647
310.775
310.674
310.754
310.765
310.829
310.746
310.845
310.759
310.798
310.706
310.721
310.699
310.703
310.889
310.941
303.624
303.685
303.668
303.57
303.664
303.547
303.602
303.614
303.588
303.611
303.661
303.648
303.623
303.607
303.556
303.559
303.603
303.645
303.691
303.693
354.459
353.903
353.599
353.244
353.048
352.919
352.965
353.145
353.229
353.248
353.295
353.205
353.137
352.852
352.664
352.519
352.439
352.696
353.026
353.442
347.475
347.082
346.577
346.304
346.141
346.17
346.158
346.287
346.341
346.468
346.435
346.42
346.294
346.17
345.986
345.847
345.865
346.026
346.306
346.686
340.329
339.965
339.635
339.448
339.222
339.305
339.301
339.32
339.434
339.515
339.606
339.511
339.368
339.261
339.141
339.065
339.082
339.194
339.497
339.852
333.139
332.84
332.569
332.28
332.289
332.236
332.218
332.272
332.463
332.521
332.525
332.542
332.391
332.266
332.181
332.108
332.131
332.26
332.486
332.816
325.81
325.598
325.4
325.337
325.132
325.088
325.23
325.237
325.347
325.318
325.386
325.388
325.329
325.199
325.092
325.111
325.07
325.187
325.305
325.534
318.473
318.342
318.175
318.063
317.972
317.98
318.036
318.11
318.116
318.081
318.229
318.147
318.178
318.066
317.984
318.004
317.969
318.045
318.223
318.301
311.054
311.062
310.968
310.877
310.781
310.723
310.854
310.853
310.893
310.921
311.042
310.953
310.883
310.891
310.867
310.846
310.85
310.809
310.963
310.955
303.734
303.744
303.716
303.599
303.638
303.668
303.634
303.592
303.642
303.655
303.656
303.708
303.645
303.643
303.64
303.653
303.611
303.606
303.677
303.661
)
;

boundaryField
{
    hotSide
    {
        type            fixedGradient;
        gradient        nonuniform List<scalar> 
400
(
321.511
322.87
325.591
329.677
335.133
341.965
350.181
359.788
370.794
383.208
397.037
412.289
428.971
447.088
466.647
487.651
510.105
534.011
559.372
586.191
323.738
325.08
327.767
331.802
337.194
343.949
352.078
361.591
372.498
384.81
398.537
413.687
430.268
448.289
467.755
488.672
511.043
534.872
560.161
586.913
326.149
327.47
330.116
334.091
339.406
346.071
354.099
363.503
374.296
386.491
400.101
415.136
431.606
449.52
468.885
489.706
511.988
535.735
560.948
587.63
328.704
330
332.597
336.503
341.73
348.292
356.205
365.485
376.15
388.215
401.695
416.604
432.954
450.753
470.009
490.73
512.919
536.579
561.714
588.325
331.33
332.599
335.142
338.97
344.099
350.546
358.332
367.477
378.003
389.928
403.271
418.047
434.27
451.949
471.095
491.712
513.807
537.382
562.439
588.978
333.918
335.158
337.643
341.389
346.414
352.74
360.392
369.397
379.779
391.562
404.765
419.407
435.503
453.065
472.101
492.618
514.622
538.114
563.096
589.569
336.321
337.531
339.959
343.622
348.544
354.751
362.274
371.142
381.385
393.031
406.101
420.618
436.595
454.047
472.983
493.409
515.33
538.747
563.663
590.076
338.36
339.543
341.92
345.509
350.339
356.44
363.847
372.595
382.718
394.244
407.2
421.608
437.485
454.844
473.695
494.045
515.897
539.253
564.114
590.478
339.852
341.015
343.352
346.885
351.645
357.665
364.985
373.643
383.675
395.113
407.984
422.312
438.116
455.407
474.197
494.491
516.294
539.606
564.428
590.758
340.643
341.795
344.11
347.613
352.334
358.311
365.584
374.193
384.176
395.567
408.393
422.679
438.443
455.699
474.456
494.722
516.498
539.788
564.589
590.901
340.643
341.795
344.11
347.613
352.334
358.311
365.584
374.193
384.176
395.567
408.393
422.679
438.443
455.699
474.456
494.722
516.498
539.788
564.589
590.901
339.852
341.015
343.352
346.885
351.645
357.665
364.985
373.643
383.675
395.113
407.984
422.312
438.116
455.407
474.197
494.491
516.294
539.606
564.428
590.758
338.36
339.543
341.92
345.509
350.339
356.44
363.847
372.595
382.718
394.244
407.2
421.608
437.485
454.844
473.695
494.045
515.897
539.253
564.114
590.478
336.321
337.531
339.959
343.622
348.544
354.751
362.274
371.142
381.385
393.031
406.101
420.618
436.595
454.047
472.983
493.409
515.33
538.747
563.663
590.076
333.918
335.158
337.643
341.389
346.414
352.74
360.392
369.397
379.779
391.562
404.765
419.407
435.503
453.065
472.101
492.618
514.622
538.114
563.096
589.569
331.33
332.599
335.142
338.97
344.099
350.546
358.332
367.477
378.003
389.928
403.271
418.047
434.27
451.949
471.095
491.712
513.807
537.382
562.439
588.978
328.704
330
332.597
336.503
341.73
348.292
356.205
365.485
376.15
388.215
401.695
416.604
432.954
450.753
470.009
490.73
512.919
536.579
561.714
588.325
326.149
327.47
330.116
334.091
339.406
346.071
354.099
363.503
374.296
386.491
400.101
415.136
431.606
449.52
468.885
489.706
511.988
535.735
560.948
587.63
323.738
325.08
327.767
331.802
337.194
343.949
352.078
361.591
372.498
384.81
398.537
413.687
430.268
448.289
467.755
488.672
511.043
534.872
560.161
586.913
321.511
322.87
325.591
329.677
335.133
341.965
350.181
359.788
370.794
383.208
397.037
412.289
428.971
447.088
466.647
487.651
510.105
534.011
559.372
586.191
)
;
    }
    coldSide
    {
        type            mixed;
        refValue        uniform 300;
        refGradient     uniform 0;
        valueFraction   uniform 0.991591;
        source          uniform 0;
        value           nonuniform List<scalar> 
400
(
300.019
300.019
300.019
300.019
300.02
300.02
300.021
300.022
300.023
300.023
300.024
300.025
300.026
300.027
300.028
300.029
300.029
300.03
300.03
300.031
300.018
300.018
300.019
300.019
300.02
300.02
300.021
300.022
300.022
300.024
300.024
300.025
300.026
300.027
300.028
300.029
300.029
300.03