/*--------------------------------*- C++ -*----------------------------------*\
| =========                 |                                                 |
| \\      /  F ield         | OpenFOAM: The Open Source CFD Toolbox           |
|  \\    /   O peration     | Version:  2212                                  |
|   \\  /    A nd           | Website:  www.openfoam.com                      |
|    \\/     M anipulation  |                                                 |
\*---------------------------------------------------------------------------*/
FoamFile
{
    version     2.0;
    format      ascii;
    arch        "LSB;label=32;scalar=64";
    class       volScalarField;
    location    "./ITHACAoutput/true/10.4";
    object      trueState;
}
// * * * * * * * * * * * * * * * * * * * * * * * * * * * * * * * * * * * * * //

dimensions      [0 0 0 1 0 0 0];

internalField   nonuniform List<scalar> 
3200
(
331.184
331.627
332.191
332.806
333.44
334.062
334.636
335.121
335.474
335.661
335.661
335.474
335.121
334.636
334.062
333.44
332.806
332.191
331.627
331.184
327.151
327.525
328.012
328.545
329.093
329.631
330.127
330.546
330.851
331.012
331.012
330.851
330.546
330.127
329.631
329.093
328.545
328.012
327.525
327.151
323.065
323.376
323.786
324.236
324.699
325.154
325.573
325.926
326.183
326.319
326.319
326.183
325.926
325.573
325.154
324.699
324.236
323.786
323.376
323.065
318.935
319.185
319.519
319.887
320.266
320.637
320.979
321.268
321.478
321.589
321.589
321.478
321.268
320.979
320.637
320.266
319.887
319.519
319.185
318.935
314.769
314.96
315.22
315.505
315.8
316.089
316.355
316.579
316.742
316.828
316.828
316.742
316.579
316.355
316.089
315.8
315.505
315.22
314.96
314.769
310.574
310.71
310.895
311.099
311.309
311.515
311.705
311.865
311.981
312.043
312.043
311.981
311.865
311.705
311.515
311.309
311.099
310.895
310.71
310.574
306.36
306.441
306.552
306.674
306.8
306.924
307.038
307.134
307.204
307.241
307.241
307.204
307.134
307.038
306.924
306.8
306.674
306.552
306.441
306.36
302.133
302.16
302.197
302.238
302.281
302.322
302.36
302.393
302.416
302.428
302.428
302.416
302.393
302.36
302.322
302.281
302.238
302.197
302.16
302.133
331.287
331.725
332.285
332.895
333.522
334.137
334.705
335.183
335.532
335.716
335.716
335.532
335.183
334.705
334.137
333.522
332.895
332.285
331.725
331.287
327.24
327.611
328.094
328.621
329.164
329.696
330.187
330.601
330.902
331.061
331.061
330.902
330.601
330.187
329.696
329.164
328.621
328.094
327.611
327.24
323.141
323.449
323.855
324.301
324.76
325.209
325.624
325.973
326.227
326.361
326.361
326.227
325.973
325.624
325.209
324.76
324.301
323.855
323.449
323.141
318.997
319.245
319.576
319.941
320.316
320.683
321.021
321.306
321.514
321.623
321.623
321.514
321.306
321.021
320.683
320.316
319.941
319.576
319.245
318.997
314.817
315.007
315.264
315.547
315.839
316.124
316.387
316.609
316.77
316.855
316.855
316.77
316.609
316.387
316.124
315.839
315.547
315.264
315.007
314.817
310.609
310.744
310.927
311.129
311.337
311.541
311.729
311.887
312.001
312.062
312.062
312.001
311.887
311.729
311.541
311.337
311.129
310.927
310.744
310.609
306.381
306.461
306.571
306.692
306.817
306.94
307.052
307.147
307.216
307.252
307.252
307.216
307.147
307.052
306.94
306.817
306.692
306.571
306.461
306.381
302.14
302.167
302.204
302.245
302.286
302.327
302.365
302.397
302.42
302.432
302.432
302.42
302.397
302.365
302.327
302.286
302.245
302.204
302.167
302.14
331.492
331.923
332.474
333.072
333.687
334.289
334.843
335.31
335.649
335.829
335.829
335.649
335.31
334.843
334.289
333.687
333.072
332.474
331.923
331.492
327.418
327.784
328.258
328.776
329.308
329.829
330.308
330.712
331.005
331.16
331.16
331.005
330.712
330.308
329.829
329.308
328.776
328.258
327.784
327.418
323.292
323.595
323.995
324.432
324.882
325.322
325.727
326.067
326.315
326.446
326.446
326.315
326.067
325.727
325.322
324.882
324.432
323.995
323.595
323.292
319.121
319.365
319.691
320.049
320.416
320.776
321.106
321.385
321.587
321.693
321.693
321.587
321.385
321.106
320.776
320.416
320.049
319.691
319.365
319.121
314.914
315.101
315.354
315.632
315.918
316.197
316.454
316.67
316.827
316.91
316.91
316.827
316.67
316.454
316.197
315.918
315.632
315.354
315.101
314.914
310.678
310.811
310.991
311.189
311.393
311.593
311.776
311.931
312.042
312.102
312.102
312.042
311.931
311.776
311.593
311.393
311.189
310.991
310.811
310.678
306.422
306.501
306.609
306.729
306.851
306.971
307.081
307.173
307.241
307.276
307.276
307.241
307.173
307.081
306.971
306.851
306.729
306.609
306.501
306.422
302.154
302.181
302.217
302.257
302.298
302.338
302.375
302.406
302.428
302.44
302.44
302.428
302.406
302.375
302.338
302.298
302.257
302.217
302.181
302.154
331.8
332.222
332.758
333.34
333.937
334.519
335.055
335.505
335.832
336.004
336.004
335.832
335.505
335.055
334.519
333.937
333.34
332.758
332.222
331.8
327.687
328.044
328.507
329.01
329.526
330.031
330.494
330.883
331.165
331.314
331.314
331.165
330.883
330.494
330.031
329.526
329.01
328.507
328.044
327.687
323.52
323.816
324.206
324.632
325.068
325.494
325.885
326.214
326.452
326.577
326.577
326.452
326.214
325.885
325.494
325.068
324.632
324.206
323.816
323.52
319.308
319.547
319.865
320.212
320.569
320.917
321.237
321.505
321.7
321.802
321.802
321.7
321.505
321.237
320.917
320.569
320.212
319.865
319.547
319.308
315.06
315.243
315.489
315.76
316.037
316.308
316.556
316.764
316.915
316.995
316.995
316.915
316.764
316.556
316.308
316.037
315.76
315.489
315.243
315.06
310.783
310.912
311.088
311.281
311.479
311.672
311.849
311.998
312.106
312.163
312.163
312.106
311.998
311.849
311.672
311.479
311.281
311.088
310.912
310.783
306.485
306.562
306.668
306.784
306.903
307.019
307.125
307.214
307.279
307.313
307.313
307.279
307.214
307.125
307.019
306.903
306.784
306.668
306.562
306.485
302.175
302.201
302.236
302.275
302.315
302.354
302.39
302.42
302.441
302.453
302.453
302.441
302.42
302.39
302.354
302.315
302.275
302.236
302.201
302.175
332.214
332.623
333.141
333.703
334.276
334.834
335.346
335.775
336.086
336.25
336.25
336.086
335.775
335.346
334.834
334.276
333.703
333.141
332.623
332.214
328.047
328.393
328.84
329.326
329.822
330.306
330.748
331.119
331.388
331.529
331.529
331.388
331.119
330.748
330.306
329.822
329.326
328.84
328.393
328.047
323.826
324.113
324.49
324.9
325.32
325.728
326.102
326.415
326.642
326.762
326.762
326.642
326.415
326.102
325.728
325.32
324.9
324.49
324.113
323.826
319.559
319.79
320.098
320.433
320.776
321.11
321.415
321.671
321.857
321.954
321.954
321.857
321.671
321.415
321.11
320.776
320.433
320.098
319.79
319.559
315.255
315.433
315.671
315.932
316.199
316.458
316.696
316.894
317.038
317.114
317.114
317.038
316.894
316.696
316.458
316.199
315.932
315.671
315.433
315.255
310.923
311.048
311.218
311.404
311.595
311.78
311.95
312.092
312.194
312.248
312.248
312.194
312.092
311.95
311.78
311.595
311.404
311.218
311.048
310.923
306.569
306.644
306.746
306.858
306.972
307.084
307.185
307.271
307.332
307.365
307.365
307.332
307.271
307.185
307.084
306.972
306.858
306.746
306.644
306.569
302.204
302.229
302.263
302.3
302.338
302.376
302.41
302.438
302.459
302.47
302.47
302.459
302.438
302.41
302.376
302.338
302.3
302.263
302.229
302.204
332.734
333.128
333.625
334.162
334.708
335.239
335.723
336.128
336.42
336.574
336.574
336.42
336.128
335.723
335.239
334.708
334.162
333.625
333.128
332.734
328.5
328.833
329.262
329.727
330.2
330.659
331.077
331.427
331.68
331.813
331.813
331.68
331.427
331.077
330.659
330.2
329.727
329.262
328.833
328.5
324.21
324.487
324.848
325.241
325.641
326.029
326.383
326.678
326.892
327.004
327.004
326.892
326.678
326.383
326.029
325.641
325.241
324.848
324.487
324.21
319.875
320.097
320.392
320.713
321.04
321.357
321.646
321.888
322.062
322.154
322.154
322.062
321.888
321.646
321.357
321.04
320.713
320.392
320.097
319.875
315.502
315.672
315.901
316.15
316.405
316.651
316.876
317.064
317.199
317.27
317.27
317.199
317.064
316.876
316.651
316.405
316.15
315.901
315.672
315.502
311.099
311.22
311.383
311.561
311.743
311.919
312.079
312.213
312.31
312.361
312.361
312.31
312.213
312.079
311.919
311.743
311.561
311.383
311.22
311.099
306.675
306.747
306.845
306.952
307.061
307.167
307.263
307.344
307.402
307.432
307.432
307.402
307.344
307.263
307.167
307.061
306.952
306.845
306.747
306.675
302.239
302.263
302.296
302.332
302.368
302.404
302.436
302.463
302.482
302.493
302.493
302.482
302.463
302.436
302.404
302.368
302.332
302.296
302.263
302.239
333.363
333.739
334.213
334.723
335.239
335.738
336.192
336.57
336.843
336.986
336.986
336.843
336.57
336.192
335.738
335.239
334.723
334.213
333.739
333.363
329.047
329.365
329.774
330.215
330.662
331.094
331.487
331.814
332.05
332.174
332.174
332.05
331.814
331.487
331.094
330.662
330.215
329.774
329.365
329.047
324.675
324.939
325.284
325.656
326.035
326.4
326.732
327.008
327.207
327.312
327.312
327.207
327.008
326.732
326.4
326.035
325.656
325.284
324.939
324.675
320.256
320.469
320.75
321.054
321.364
321.662
321.934
322.159
322.322
322.408
322.408
322.322
322.159
321.934
321.662
321.364
321.054
320.75
320.469
320.256
315.799
315.962
316.18
316.417
316.657
316.889
317.1
317.276
317.402
317.469
317.469
317.402
317.276
317.1
316.889
316.657
316.417
316.18
315.962
315.799
311.312
311.427
311.583
311.752
311.924
312.089
312.24
312.365
312.456
312.503
312.503
312.456
312.365
312.24
312.089
311.924
311.752
311.583
311.427
311.312
306.803
306.872
306.965
307.067
307.17
307.27
307.36
307.435
307.49
307.518
307.518
307.49
307.435
307.36
307.27
307.17
307.067
306.965
306.872
306.803
302.282
302.305
302.336
302.37
302.405
302.438
302.469
302.494
302.512
302.521
302.521
302.512
302.494
302.469
302.438
302.405
302.37
302.336
302.305
302.282
334.102
334.459
334.908
335.388
335.873
336.339
336.761
337.111
337.363
337.495
337.495
337.363
337.111
336.761
336.339
335.873
335.388
334.908
334.459
334.102
329.69
329.992
330.38
330.795
331.215
331.618
331.984
332.287
332.505
332.619
332.619
332.505
332.287
331.984
331.618
331.215
330.795
330.38
329.992
329.69
325.221
325.472
325.798
326.15
326.504
326.846
327.154
327.411
327.595
327.691
327.691
327.595
327.411
327.154
326.846
326.504
326.15
325.798
325.472
325.221
320.704
320.906
321.172
321.46
321.75
322.029
322.281
322.491
322.641
322.72
322.72
322.641
322.491
322.281
322.029
321.75
321.46
321.172
320.906
320.704
316.148
316.303
316.51
316.733
316.959
317.176
317.372
317.535
317.652
317.713
317.713
317.652
317.535
317.372
317.176
316.959
316.733
316.51
316.303
316.148
311.562
311.672
311.819
311.978
312.139
312.294
312.435
312.551
312.634
312.678
312.678
312.634
312.551
312.435
312.294
312.139
311.978
311.819
311.672
311.562
306.954
307.019
307.107
307.203
307.3
307.393
307.477
307.547
307.597
307.623
307.623
307.597
307.547
307.477
307.393
307.3
307.203
307.107
307.019
306.954
302.332
302.354
302.384
302.416
302.448
302.48
302.508
302.531
302.548
302.557
302.557
302.548
302.531
302.508
302.48
302.448
302.416
302.384
302.354
302.332
334.953
335.291
335.713
336.163
336.614
337.046
337.436
337.758
337.989
338.11
338.11
337.989
337.758
337.436
337.046
336.614
336.163
335.713
335.291
334.953
330.431
330.717
331.081
331.47
331.861
332.235
332.573
332.851
333.051
333.156
333.156
333.051
332.851
332.573
332.235
331.861
331.47
331.081
330.717
330.431
325.85
326.087
326.395
326.723
327.054
327.371
327.656
327.891
328.06
328.149
328.149
328.06
327.891
327.656
327.371
327.054
326.723
326.395
326.087
325.85
321.221
321.412
321.662
321.931
322.201
322.46
322.693
322.886
323.024
323.096
323.096
323.024
322.886
322.693
322.46
322.201
321.931
321.662
321.412
321.221
316.551
316.698
316.892
317.101
317.311
317.513
317.694
317.844
317.951
318.007
318.007
317.951
317.844
317.694
317.513
317.311
317.101
316.892
316.698
316.551
311.85
311.954
312.092
312.242
312.392
312.536
312.665
312.772
312.849
312.889
312.889
312.849
312.772
312.665
312.536
312.392
312.242
312.092
311.954
311.85
307.127
307.189
307.272
307.362
307.452
307.538
307.616
307.68
307.726
307.75
307.75
307.726
307.68
307.616
307.538
307.452
307.362
307.272
307.189
307.127
302.391
302.411
302.439
302.469
302.499
302.528
302.554
302.576
302.591
302.599
302.599
302.591
302.576
302.554
302.528
302.499
302.469
302.439
302.411
302.391
335.92
336.237
336.632
337.05
337.468
337.867
338.224
338.518
338.728
338.838
338.838
338.728
338.518
338.224
337.867
337.468
337.05
336.632
336.237
335.92
331.272
331.54
331.881
332.244
332.606
332.951
333.26
333.515
333.697
333.792
333.792
333.697
333.515
333.26
332.951
332.606
332.244
331.881
331.54
331.272
326.565
326.787
327.074
327.381
327.687
327.979
328.241
328.456
328.61
328.69
328.69
328.61
328.456
328.241
327.979
327.687
327.381
327.074
326.787
326.565
321.807
321.986
322.22
322.471
322.721
322.96
323.174
323.35
323.476
323.542
323.542
323.476
323.35
323.174
322.96
322.721
322.471
322.22
321.986
321.807
317.008
317.146
317.327
317.522
317.717
317.903
318.069
318.206
318.304
318.355
318.355
318.304
318.206
318.069
317.903
317.717
317.522
317.327
317.146
317.008
312.177
312.275
312.404
312.543
312.683
312.815
312.934
313.032
313.102
313.138
313.138
313.102
313.032
312.934
312.815
312.683
312.543
312.404
312.275
312.177
307.324
307.382
307.46
307.543
307.627
307.706
307.778
307.837
307.879
307.9
307.9
307.879
307.837
307.778
307.706
307.627
307.543
307.46
307.382
307.324
302.457
302.476
302.502
302.53
302.558
302.585
302.609
302.628
302.642
302.65
302.65
302.642
302.628
302.609
302.585
302.558
302.53
302.502
302.476
302.457
337.002
337.299
337.667
338.054
338.439
338.804
339.13
339.397
339.588
339.687
339.687
339.588
339.397
339.13
338.804
338.439
338.054
337.667
337.299
337.002
332.214
332.465
332.783
333.118
333.452
333.768
334.05
334.282
334.446
334.532
334.532
334.446
334.282
334.05
333.768
333.452
333.118
332.783
332.465
332.214
327.365
327.573
327.84
328.124
328.407
328.674
328.913
329.108
329.248
329.32
329.32
329.248
329.108
328.913
328.674
328.407
328.124
327.84
327.573
327.365
322.464
322.631
322.849
323.081
323.312
323.531
323.726
323.886
324
324.06
324.06
324
323.886
323.726
323.531
323.312
323.081
322.849
322.631
322.464
317.52
317.649
317.818
317.999
318.178
318.348
318.5
318.625
318.713
318.759
318.759
318.713
318.625
318.5
318.348
318.178
317.999
317.818
317.649
317.52
312.544
312.635
312.756
312.885
313.013
313.135
313.243
313.332
313.395
313.428
313.428
313.395
313.332
313.243
313.135
313.013
312.885
312.756
312.635
312.544
307.544
307.599
307.671
307.748
307.826
307.899
307.964
308.017
308.055
308.075
308.075
308.055
308.017
307.964
307.899
307.826
307.748
307.671
307.599
307.544
302.531
302.549
302.573
302.599
302.625
302.649
302.671
302.689
302.702
302.708
302.708
302.702
302.689
302.671
302.649
302.625
302.599
302.573
302.549
302.531
338.203
338.479
338.82
339.178
339.531
339.864
340.159
340.401
340.572
340.662
340.662
340.572
340.401
340.159
339.864
339.531
339.178
338.82
338.479
338.203
333.259
333.493
333.787
334.097
334.403
334.691
334.947
335.157
335.305
335.382
335.382
335.305
335.157
334.947
334.691
334.403
334.097
333.787
333.493
333.259
328.252
328.446
328.694
328.956
329.215
329.459
329.676
329.853
329.978
330.044
330.044
329.978
329.853
329.676
329.459
329.215
328.956
328.694
328.446
328.252
323.192
323.348
323.55
323.764
323.976
324.176
324.353
324.498
324.601
324.654
324.654
324.601
324.498
324.353
324.176
323.976
323.764
323.55
323.348
323.192
318.088
318.208
318.365
318.531
318.696
318.851
318.989
319.102
319.182
319.223
319.223
319.182
319.102
318.989
318.851
318.696
318.531
318.365
318.208
318.088
312.951
313.035
313.147
313.266
313.384
313.495
313.593
313.674
313.731
313.761
313.761
313.731
313.674
313.593
313.495
313.384
313.266
313.147
313.035
312.951
307.789
307.839
307.906
307.978
308.049
308.115
308.175
308.223
308.257
308.275
308.275
308.257
308.223
308.175
308.115
308.049
307.978
307.906
307.839
307.789
302.613
302.629
302.652
302.676
302.7
302.722
302.742
302.758
302.769
302.775
302.775
302.769
302.758
302.742
302.722
302.7
302.676
302.652
302.629
302.613
339.524
339.78
340.095
340.423
340.746
341.048
341.315
341.533
341.687
341.767
341.767
341.687
341.533
341.315
341.048
340.746
340.423
340.095
339.78
339.524
334.408
334.625
334.897
335.181
335.461
335.723
335.955
336.143
336.276
336.346
336.346
336.276
336.143
335.955
335.723
335.461
335.181
334.897
334.625
334.408
329.228
329.408
329.637
329.877
330.114
330.336
330.532
330.691
330.804
330.863
330.863
330.804
330.691
330.532
330.336
330.114
329.877
329.637
329.408
329.228
323.993
324.137
324.324
324.521
324.714
324.896
325.056
325.187
325.279
325.327
325.327
325.279
325.187
325.056
324.896
324.714
324.521
324.324
324.137
323.993
318.713
318.824
318.968
319.121
319.272
319.413
319.538
319.64
319.711
319.749
319.749
319.711
319.64
319.538
319.413
319.272
319.121
318.968
318.824
318.713
313.398
313.476
313.579
313.689
313.796
313.897
313.986
314.059
314.11
314.137
314.137
314.11
314.059
313.986
313.897
313.796
313.689
313.579
313.476
313.398
308.058
308.104
308.166
308.232
308.297
308.357
308.411
308.455
308.485
308.501
308.501
308.485
308.455
308.411
308.357
308.297
308.232
308.166
308.104
308.058
302.703
302.718
302.739
302.761
302.783
302.803
302.821
302.836
302.846
302.851
302.851
302.846
302.836
302.821
302.803
302.783
302.761
302.739
302.718
302.703
340.963
341.2
341.49
341.791
342.085
342.359
342.6
342.795
342.933
343.004
343.004
342.933
342.795
342.6
342.359
342.085
341.791
341.49
341.2
340.963
335.661
335.862
336.112
336.372
336.627
336.864
337.073
337.243
337.362
337.424
337.424
337.362
337.243
337.073
336.864
336.627
336.372
336.112
335.862
335.661
330.292
330.458
330.669
330.889
331.105
331.306
331.482
331.626
331.727
331.779
331.779
331.727
331.626
331.482
331.306
331.105
330.889
330.669
330.458
330.292
324.866
324.999
325.171
325.351
325.528
325.692
325.837
325.954
326.037
326.08
326.08
326.037
325.954
325.837
325.692
325.528
325.351
325.171
324.999
324.866
319.393
319.496
319.629
319.769
319.906
320.035
320.147
320.238
320.303
320.336
320.336
320.303
320.238
320.147
320.035
319.906
319.769
319.629
319.496
319.393
313.885
313.957
314.052
314.152
314.251
314.342
314.423
314.488
314.534
314.558
314.558
314.534
314.488
314.423
314.342
314.251
314.152
314.052
313.957
313.885
308.351
308.394
308.451
308.511
308.57
308.625
308.673
308.712
308.74
308.754
308.754
308.74
308.712
308.673
308.625
308.57
308.511
308.451
308.394
308.351
302.801
302.815
302.835
302.855
302.874
302.893
302.909
302.922
302.931
302.936
302.936
302.931
302.922
302.909
302.893
302.874
302.855
302.835
302.815
302.801
342.521
342.74
343.006
343.28
343.547
343.795
344.012
344.187
344.31
344.373
344.373
344.31
344.187
344.012
343.795
343.547
343.28
343.006
342.74
342.521
337.016
337.201
337.43
337.668
337.9
338.114
338.302
338.454
338.561
338.616
338.616
338.561
338.454
338.302
338.114
337.9
337.668
337.43
337.201
337.016
331.442
331.595
331.788
331.99
332.185
332.367
332.526
332.655
332.745
332.792
332.792
332.745
332.655
332.526
332.367
332.185
331.99
331.788
331.595
331.442
325.809
325.932
326.09
326.255
326.415
326.564
326.694
326.799
326.873
326.911
326.911
326.873
326.799
326.694
326.564
326.415
326.255
326.09
325.932
325.809
320.128
320.223
320.346
320.473
320.598
320.714
320.815
320.897
320.955
320.984
320.984
320.955
320.897
320.815
320.714
320.598
320.473
320.346
320.223
320.128
314.411
314.478
314.565
314.657
314.746
314.829
314.901
314.959
315.001
315.022
315.022
315.001
314.959
314.901
314.829
314.746
314.657
314.565
314.478
314.411
308.667
308.707
308.759
308.814
308.868
308.917
308.961
308.996
309.021
309.034
309.034
309.021
308.996
308.961
308.917
308.868
308.814
308.759
308.707
308.667
302.907
302.92
302.938
302.956
302.974
302.991
303.006
303.017
303.026
303.03
303.03
303.026
303.017
303.006
302.991
302.974
302.956
302.938
302.92
302.907
344.189
344.391
344.634
344.885
345.127
345.35
345.545
345.701
345.811
345.868
345.868
345.811
345.701
345.545
345.35
345.127
344.885
344.634
344.391
344.189
338.466
338.636
338.846
339.063
339.273
339.467
339.636
339.772
339.867
339.916
339.916
339.867
339.772
339.636
339.467
339.273
339.063
338.846
338.636
338.466
332.671
332.812
332.99
333.173
333.351
333.515
333.658
333.773
333.854
333.895
333.895
333.854
333.773
333.658
333.515
333.351
333.173
332.99
332.812
332.671
326.817
326.93
327.075
327.225
327.371
327.505
327.622
327.716
327.782
327.816
327.816
327.782
327.716
327.622
327.505
327.371
327.225
327.075
326.93
326.817
320.914
321.001
321.113
321.23
321.343
321.448
321.539
321.612
321.663
321.69
321.69
321.663
321.612
321.539
321.448
321.343
321.23
321.113
321.001
320.914
314.973
315.034
315.114
315.198
315.279
315.353
315.419
315.471
315.508
315.527
315.527
315.508
315.471
315.419
315.353
315.279
315.198
315.114
315.034
314.973
309.005
309.041
309.089
309.139
309.188
309.233
309.272
309.304
309.326
309.337
309.337
309.326
309.304
309.272
309.233
309.188
309.139
309.089
309.041
309.005
303.02
303.033
303.049
303.065
303.082
303.097
303.11
303.12
303.128
303.132
303.132
303.128
303.12
303.11
303.097
303.082
303.065
303.049
303.033
303.02
345.95
346.134
346.358
346.586
346.805
347.007
347.182
347.322
347.42
347.47
347.47
347.42
347.322
347.182
347.007
346.805
346.586
346.358
346.134
345.95
339.992
340.149
340.342
340.539
340.729
340.904
341.056
341.178
341.263
341.306
341.306
341.263
341.178
341.056
340.904
340.729
340.539
340.342
340.149
339.992
333.964
334.094
334.256
334.423
334.584
334.732
334.861
334.964
335.036
335.073
335.073
335.036
334.964
334.861
334.732
334.584
334.423
334.256
334.094
333.964
327.875
327.979
328.112
328.249
328.381
328.502
328.607
328.691
328.75
328.781
328.781
328.75
328.691
328.607
328.502
328.381
328.249
328.112
327.979
327.875
321.737
321.817
321.92
322.026
322.129
322.224
322.305
322.371
322.417
322.441
322.441
322.417
322.371
322.305
322.224
322.129
322.026
321.92
321.817
321.737
315.561
315.618
315.691
315.767
315.841
315.908
315.967
316.014
316.046
316.063
316.063
316.046
316.014
315.967
315.908
315.841
315.767
315.691
315.618
315.561
309.358
309.392
309.436
309.482
309.526
309.566
309.601
309.63
309.649
309.659
309.659
309.649
309.63
309.601
309.566
309.526
309.482
309.436
309.392
309.358
303.139
303.15
303.165
303.18
303.195
303.208
303.22
303.23
303.236
303.24
303.24
303.236
303.23
303.22
303.208
303.195
303.18
303.165
303.15
303.139
347.754
347.924
348.128
348.336
348.535
348.718
348.875
349.001
349.089
349.134
349.134
349.089
349.001
348.875
348.718
348.535
348.336
348.128
347.924
347.754
341.55
341.694
341.871
342.051
342.224
342.382
342.519
342.628
342.704
342.743
342.743
342.704
342.628
342.519
342.382
342.224
342.051
341.871
341.694
341.55
335.277
335.396
335.545
335.698
335.845
335.979
336.095
336.187
336.252
336.285
336.285
336.252
336.187
336.095
335.979
335.845
335.698
335.545
335.396
335.277
328.946
329.042
329.164
329.289
329.409
329.518
329.613
329.689
329.742
329.769
329.769
329.742
329.689
329.613
329.518
329.409
329.289
329.164
329.042
328.946
322.568
322.642
322.736
322.833
322.927
323.012
323.086
323.145
323.186
323.208
323.208
323.186
323.145
323.086
323.012
322.927
322.833
322.736
322.642
322.568
316.154
316.206
316.273
316.343
316.409
316.471
316.523
316.566
316.595
316.61
316.61
316.595
316.566
316.523
316.471
316.409
316.343
316.273
316.206
316.154
309.713
309.745
309.785
309.827
309.867
309.904
309.935
309.961
309.978
309.988
309.988
309.978
309.961
309.935
309.904
309.867
309.827
309.785
309.745
309.713
303.258
303.268
303.282
303.296
303.309
303.322
303.332
303.341
303.347
303.35
303.35
303.347
303.341
303.332
303.322
303.309
303.296
303.282
303.268
303.258
349.483
349.64
349.828
350.019
350.202
350.368
350.511
350.625
350.704
350.745
350.745
350.704
350.625
350.511
350.368
350.202
350.019
349.828
349.64
349.483
343.024
343.158
343.321
343.487
343.645
343.789
343.914
344.013
344.082
344.117
344.117
344.082
344.013
343.914
343.789
343.645
343.487
343.321
343.158
343.024
336.507
336.617
336.755
336.896
337.03
337.153
337.258
337.342
337.401
337.431
337.431
337.401
337.342
337.258
337.153
337.03
336.896
336.755
336.617
336.507
329.94
330.029
330.141
330.257
330.367
330.467
330.554
330.623
330.671
330.695
330.695
330.671
330.623
330.554
330.467
330.367
330.257
330.141
330.029
329.94
323.333
323.402
323.489
323.579
323.665
323.743
323.81
323.864
323.901
323.921
323.921
323.901
323.864
323.81
323.743
323.665
323.579
323.489
323.402
323.333
316.696
316.745
316.807
316.871
316.933
316.989
317.037
317.075
317.102
317.116
317.116
317.102
317.075
317.037
316.989
316.933
316.871
316.807
316.745
316.696
310.038
310.067
310.104
310.143
310.179
310.213
310.242
310.265
310.281
310.29
310.29
310.281
310.265
310.242
310.213
310.179
310.143
310.104
310.067
310.038
303.366
303.376
303.388
303.401
303.414
303.425
303.435
303.442
303.448
303.451
303.451
303.448
303.442
303.435
303.425
303.414
303.401
303.388
303.376
303.366
350.829
350.977
351.155
351.334
351.504
351.659
351.792
351.898
351.972
352.009
352.009
351.972
351.898
351.792
351.659
351.504
351.334
351.155
350.977
350.829
344.13
344.256
344.409
344.565
344.714
344.849
344.965
345.058
345.122
345.155
345.155
345.122
345.058
344.965
344.849
344.714
344.565
344.409
344.256
344.13
337.401
337.505
337.635
337.768
337.895
338.009
338.108
338.187
338.241
338.269
338.269
338.241
338.187
338.108
338.009
337.895
337.768
337.635
337.505
337.401
330.645
330.729
330.836
330.945
331.048
331.143
331.224
331.289
331.333
331.356
331.356
331.333
331.289
331.224
331.143
331.048
330.945
330.836
330.729
330.645
323.866
323.931
324.014
324.099
324.18
324.254
324.317
324.367
324.402
324.42
324.42
324.402
324.367
324.317
324.254
324.18
324.099
324.014
323.931
323.866
317.069
317.115
317.174
317.235
317.293
317.346
317.391
317.427
317.452
317.465
317.465
317.452
317.427
317.391
317.346
317.293
317.235
317.174
317.115
317.069
310.258
310.286
310.321
310.358
310.393
310.425
310.452
310.474
310.489
310.497
310.497
310.489
310.474
310.452
310.425
310.393
310.358
310.321
310.286
310.258
303.44
303.449
303.461
303.473
303.485
303.495
303.505
303.512
303.517
303.52
303.52
303.517
303.512
303.505
303.495
303.485
303.473
303.461
303.449
303.44
)
;

boundaryField
{
    hotSide
    {
        type            fixedGradient;
        gradient        nonuniform List<scalar> 
400
(
317.833
318.88
320.98
324.141
328.377
333.703
340.139
347.706
356.424
366.314
377.398
389.694
403.221
417.994
434.027
451.333
469.921
489.799
510.974
533.451
323.651
324.653
326.662
329.691
333.758
338.885
345.095
352.416
360.875
370.499
381.314
393.344
406.61
421.13
436.922
453.999
472.371
492.047
513.035
535.338
329.948
330.895
332.796
335.669
339.536
344.427
350.373
357.409
365.57
374.89
385.4
397.129
410.104
424.345
439.872
456.7
474.84
494.301
515.089
537.21
336.619
337.502
339.278
341.969
345.607
350.227
355.872
362.585
370.411
379.391
389.564
400.965
413.623
427.564
442.809
459.373
477.27
496.507
517.091
539.024
343.478
344.288
345.924
348.412
351.793
356.114
361.427
367.788
375.251
383.866
393.679
404.733
417.06
430.69
445.644
461.94
479.59
498.602
518.982
540.731
350.238
350.971
352.457
354.729
357.838
361.843
366.809
372.803
379.89
388.131
397.581
408.284
420.281
433.603
448.272
464.306
481.718
500.515
520.7
542.274
356.513
357.169
358.504
360.562
363.402
367.096
371.722
377.36
384.085
391.969
401.071
411.446
423.134
436.169
450.575
466.371
483.567
502.169
522.18
543.598
361.838
362.425
363.626
365.49
368.09
371.507
375.832
381.155
387.564
395.137
403.941
414.032
425.457
438.25
452.436
468.032
485.048
503.49
523.357
544.649
365.736
366.269
367.366
369.084
371.5
374.707
378.805
383.893
390.065
397.406
405.988
415.872
427.104
439.72
453.746
469.198
486.085
504.412
524.177
545.378
367.801
368.306
369.346
370.984
373.3
376.393
380.368
385.329
391.374
398.591
407.056
416.829
427.959
440.482
454.424
469.8
486.619
504.886
524.598
545.752
367.801
368.306
369.346
370.984
373.3
376.393
380.368
385.329
391.374
398.591
407.056
416.829
427.959
440.482
454.424
469.8
486.619
504.886
524.598
545.752
365.736
366.269
367.366
369.084
371.5
374.707
378.805
383.893
390.065
397.406
405.988
415.872
427.104
439.72
453.746
469.198
486.085
504.412
524.177
545.378
361.838
362.425
363.626
365.49
368.09
371.507
375.832
381.155
387.564
395.137
403.941
414.032
425.457
438.25
452.436
468.032
485.048
503.49
523.357
544.649
356.513
357.169
358.504
360.562
363.402
367.096
371.722
377.36
384.085
391.969
401.071
411.446
423.134
436.169
450.575
466.371
483.567
502.169
522.18
543.598
350.238
350.971
352.457
354.729
357.838
361.843
366.809
372.803
379.89
388.131
397.581
408.284
420.281
433.603
448.272
464.306
481.718
500.515
520.7
542.274
343.478
344.288
345.924
348.412
351.793
356.114
361.427
367.788
375.251
383.866
393.679
404.733
417.06
430.69
445.644
461.94
479.59
498.602
518.982
540.731
336.619
337.502
339.278
341.969
345.607
350.227
355.872
362.585
370.411
379.391
389.564
400.965
413.623
427.564
442.809
459.373
477.27
496.507
517.091
539.024
329.948
330.895
332.796
335.669
339.536
344.427
350.373
357.409
365.57
374.89
385.4
397.129
410.104
424.345
439.872
456.7
474.84
494.301
515.089
537.21
323.651
324.653
326.662
329.691
333.758
338.885
345.095
352.416
360.875
370.499
381.314
393.344
406.61
421.13
436.922
453.999
472.371
492.047
513.035
535.338
317.833
318.88
320.98
324.141
328.377
333.703
340.139
347.706
356.424
366.314
377.398
389.694
403.221
417.994
434.027
451.333
469.921
489.799
510.974
533.451
)
;
    }
    coldSide
    {
        type            mixed;
        refValue        uniform 300;
        refGradient     uniform 0;
        valueFraction   uniform 0.991591;
        source          uniform 0;
        value           nonuniform List<scalar> 
400
(
300.018
300.018
300.018
300.018
300.019
300.019
300.019
300.02
300.02
300.021
300.021
300.022
300.023
300.024
300.024
300.025
300.026
300.027
300.028
300.029
300.018
300.018
300.018
300.019
300.019
300.019
300.019
300.02
300.02
300.021
300.021
300.022
300.023
300.024
300.025
300.026
300.026