/*--------------------------------*- C++ -*----------------------------------*\
| =========                 |                                                 |
| \\      /  F ield         | OpenFOAM: The Open Source CFD Toolbox           |
|  \\    /   O peration     | Version:  2212                                  |
|   \\  /    A nd           | Website:  www.openfoam.com                      |
|    \\/     M anipulation  |                                                 |
\*---------------------------------------------------------------------------*/
FoamFile
{
    version     2.0;
    format      ascii;
    arch        "LSB;label=32;scalar=64";
    class       volScalarField;
    location    "0";
    object      Ttrue;
}
// * * * * * * * * * * * * * * * * * * * * * * * * * * * * * * * * * * * * * //

dimensions      [0 0 0 1 0 0 0];

internalField   nonuniform List<scalar> 
3200
(
325.713
326.129
326.661
327.241
327.838
328.423
328.964
329.421
329.753
329.929
329.929
329.753
329.421
328.964
328.423
327.838
327.241
326.661
326.129
325.713
322.399
322.752
323.21
323.712
324.228
324.735
325.202
325.597
325.884
326.036
326.036
325.884
325.597
325.202
324.735
324.228
323.712
323.21
322.752
322.399
319.037
319.33
319.716
320.14
320.576
321.004
321.399
321.732
321.974
322.102
322.102
321.974
321.732
321.399
321.004
320.576
320.14
319.716
319.33
319.037
315.634
315.87
316.185
316.531
316.888
317.237
317.56
317.832
318.029
318.134
318.134
318.029
317.832
317.56
317.237
316.888
316.531
316.185
315.87
315.634
312.198
312.379
312.623
312.892
313.169
313.441
313.692
313.903
314.056
314.137
314.137
314.056
313.903
313.692
313.441
313.169
312.892
312.623
312.379
312.198
308.736
308.864
309.038
309.23
309.428
309.622
309.801
309.951
310.061
310.119
310.119
310.061
309.951
309.801
309.622
309.428
309.23
309.038
308.864
308.736
305.255
305.331
305.436
305.551
305.67
305.786
305.894
305.984
306.05
306.084
306.084
306.05
305.984
305.894
305.786
305.67
305.551
305.436
305.331
305.255
301.763
301.788
301.823
301.862
301.902
301.941
301.977
302.007
302.029
302.041
302.041
302.029
302.007
301.977
301.941
301.902
301.862
301.823
301.788
301.763
325.792
326.205
326.732
327.306
327.897
328.476
329.011
329.462
329.79
329.963
329.963
329.79
329.462
329.011
328.476
327.897
327.306
326.732
326.205
325.792
322.468
322.818
323.272
323.769
324.28
324.781
325.243
325.633
325.916
326.066
326.066
325.916
325.633
325.243
324.781
324.28
323.769
323.272
322.818
322.468
319.096
319.386
319.769
320.188
320.62
321.044
321.434
321.763
322.002
322.128
322.128
322.002
321.763
321.434
321.044
320.62
320.188
319.769
319.386
319.096
315.682
315.916
316.228
316.571
316.924
317.27
317.589
317.857
318.053
318.156
318.156
318.053
317.857
317.589
317.27
316.924
316.571
316.228
315.916
315.682
312.235
312.415
312.657
312.923
313.198
313.467
313.714
313.923
314.074
314.154
314.154
314.074
313.923
313.714
313.467
313.198
312.923
312.657
312.415
312.235
308.762
308.889
309.062
309.252
309.448
309.64
309.817
309.966
310.074
310.131
310.131
310.074
309.966
309.817
309.64
309.448
309.252
309.062
308.889
308.762
305.271
305.347
305.45
305.564
305.682
305.797
305.904
305.993
306.058
306.092
306.092
306.058
305.993
305.904
305.797
305.682
305.564
305.45
305.347
305.271
301.768
301.793
301.828
301.866
301.906
301.944
301.98
302.01
302.032
302.043
302.043
302.032
302.01
301.98
301.944
301.906
301.866
301.828
301.793
301.768
325.95
326.357
326.875
327.438
328.017
328.584
329.106
329.546
329.866
330.034
330.034
329.866
329.546
329.106
328.584
328.017
327.438
326.875
326.357
325.95
322.606
322.95
323.397
323.884
324.385
324.876
325.327
325.707
325.983
326.129
326.129
325.983
325.707
325.327
324.876
324.385
323.884
323.397
322.95
322.606
319.213
319.498
319.875
320.287
320.71
321.124
321.506
321.826
322.059
322.182
322.182
322.059
321.826
321.506
321.124
320.71
320.287
319.875
319.498
319.213
315.778
316.008
316.315
316.652
316.998
317.337
317.648
317.91
318.1
318.201
318.201
318.1
317.91
317.648
317.337
316.998
316.652
316.315
316.008
315.778
312.31
312.487
312.725
312.987
313.256
313.519
313.761
313.964
314.112
314.19
314.19
314.112
313.964
313.761
313.519
313.256
312.987
312.725
312.487
312.31
308.816
308.941
309.111
309.298
309.49
309.678
309.85
309.996
310.101
310.157
310.157
310.101
309.996
309.85
309.678
309.49
309.298
309.111
308.941
308.816
305.303
305.378
305.48
305.592
305.707
305.82
305.924
306.011
306.074
306.107
306.107
306.074
306.011
305.924
305.82
305.707
305.592
305.48
305.378
305.303
301.779
301.804
301.838
301.876
301.914
301.952
301.987
302.016
302.037
302.048
302.048
302.037
302.016
301.987
301.952
301.914
301.876
301.838
301.804
301.779
326.188
326.586
327.091
327.639
328.2
328.749
329.253
329.677
329.985
330.148
330.148
329.985
329.677
329.253
328.749
328.2
327.639
327.091
326.586
326.188
322.813
323.149
323.585
324.059
324.546
325.02
325.456
325.823
326.089
326.229
326.229
326.089
325.823
325.456
325.02
324.546
324.059
323.585
323.149
322.813
319.389
319.668
320.035
320.436
320.847
321.248
321.616
321.926
322.15
322.268
322.268
322.15
321.926
321.616
321.248
320.847
320.436
320.035
319.668
319.389
315.923
316.148
316.447
316.775
317.11
317.438
317.739
317.992
318.175
318.272
318.272
318.175
317.992
317.739
317.438
317.11
316.775
316.447
316.148
315.923
312.423
312.596
312.828
313.082
313.344
313.598
313.832
314.029
314.171
314.246
314.246
314.171
314.029
313.832
313.598
313.344
313.082
312.828
312.596
312.423
308.897
309.019
309.185
309.366
309.553
309.735
309.902
310.042
310.143
310.197
310.197
310.143
310.042
309.902
309.735
309.553
309.366
309.185
309.019
308.897
305.352
305.425
305.524
305.633
305.745
305.854
305.955
306.039
306.1
306.132
306.132
306.1
306.039
305.955
305.854
305.745
305.633
305.524
305.425
305.352
301.795
301.82
301.853
301.889
301.927
301.964
301.997
302.025
302.046
302.057
302.057
302.046
302.025
301.997
301.964
301.927
301.889
301.853
301.82
301.795
326.508
326.893
327.382
327.91
328.45
328.976
329.458
329.862
330.155
330.309
330.309
330.155
329.862
329.458
328.976
328.45
327.91
327.382
326.893
326.508
323.092
323.418
323.839
324.296
324.764
325.219
325.636
325.985
326.238
326.371
326.371
326.238
325.985
325.636
325.219
324.764
324.296
323.839
323.418
323.092
319.626
319.896
320.251
320.638
321.033
321.417
321.769
322.064
322.278
322.391
322.391
322.278
322.064
321.769
321.417
321.033
320.638
320.251
319.896
319.626
316.118
316.335
316.625
316.941
317.264
317.578
317.866
318.107
318.281
318.373
318.373
318.281
318.107
317.866
317.578
317.264
316.941
316.625
316.335
316.118
312.575
312.742
312.967
313.212
313.463
313.708
313.931
314.118
314.254
314.325
314.325
314.254
314.118
313.931
313.708
313.463
313.212
312.967
312.742
312.575
309.006
309.124
309.284
309.459
309.639
309.813
309.973
310.107
310.203
310.254
310.254
310.203
310.107
309.973
309.813
309.639
309.459
309.284
309.124
309.006
305.417
305.488
305.584
305.689
305.797
305.902
305.997
306.078
306.136
306.166
306.166
306.136
306.078
305.997
305.902
305.797
305.689
305.584
305.488
305.417
301.817
301.841
301.873
301.908
301.944
301.979
302.012
302.038
302.058
302.068
302.068
302.058
302.038
302.012
301.979
301.944
301.908
301.873
301.841
301.817
326.911
327.281
327.75
328.256
328.77
329.269
329.725
330.107
330.382
330.527
330.527
330.382
330.107
329.725
329.269
328.77
328.256
327.75
327.281
326.911
323.442
323.756
324.16
324.598
325.043
325.476
325.87
326.2
326.438
326.563
326.563
326.438
326.2
325.87
325.476
325.043
324.598
324.16
323.756
323.442
319.924
320.184
320.525
320.894
321.271
321.636
321.97
322.248
322.449
322.555
322.555
322.449
322.248
321.97
321.636
321.271
320.894
320.525
320.184
319.924
316.362
316.572
316.85
317.152
317.46
317.758
318.031
318.258
318.423
318.509
318.509
318.423
318.258
318.031
317.758
317.46
317.152
316.85
316.572
316.362
312.766
312.927
313.142
313.377
313.617
313.849
314.06
314.237
314.365
314.432
314.432
314.365
314.237
314.06
313.849
313.617
313.377
313.142
312.927
312.766
309.142
309.256
309.41
309.578
309.749
309.914
310.066
310.192
310.283
310.331
310.331
310.283
310.192
310.066
309.914
309.749
309.578
309.41
309.256
309.142
305.499
305.567
305.66
305.76
305.863
305.962
306.053
306.129
306.184
306.212
306.212
306.184
306.129
306.053
305.962
305.863
305.76
305.66
305.567
305.499
301.845
301.867
301.898
301.932
301.967
302
302.03
302.056
302.074
302.084
302.084
302.074
302.056
302.03
302
301.967
301.932
301.898
301.867
301.845
327.398
327.752
328.199
328.679
329.165
329.635
330.062
330.419
330.676
330.81
330.81
330.676
330.419
330.062
329.635
329.165
328.679
328.199
327.752
327.398
323.867
324.167
324.552
324.967
325.388
325.795
326.165
326.473
326.695
326.812
326.812
326.695
326.473
326.165
325.795
325.388
324.967
324.552
324.167
323.867
320.284
320.533
320.858
321.209
321.565
321.909
322.221
322.482
322.669
322.768
322.768
322.669
322.482
322.221
321.909
321.565
321.209
320.858
320.533
320.284
316.659
316.859
317.123
317.41
317.702
317.983
318.238
318.451
318.604
318.685
318.685
318.604
318.451
318.238
317.983
317.702
317.41
317.123
316.859
316.659
312.997
313.151
313.356
313.579
313.806
314.024
314.223
314.388
314.507
314.57
314.57
314.507
314.388
314.223
314.024
313.806
313.579
313.356
313.151
312.997
309.308
309.417
309.563
309.722
309.884
310.04
310.182
310.3
310.385
310.43
310.43
310.385
310.3
310.182
310.04
309.884
309.722
309.563
309.417
309.308
305.599
305.664
305.752
305.847
305.944
306.038
306.123
306.194
306.245
306.272
306.272
306.245
306.194
306.123
306.038
305.944
305.847
305.752
305.664
305.599
301.878
301.9
301.929
301.961
301.994
302.025
302.054
302.078
302.095
302.104
302.104
302.095
302.078
302.054
302.025
301.994
301.961
301.929
301.9
301.878
327.972
328.308
328.731
329.183
329.64
330.078
330.476
330.806
331.043
331.167
331.167
331.043
330.806
330.476
330.078
329.64
329.183
328.731
328.308
327.972
324.367
324.652
325.016
325.408
325.803
326.183
326.527
326.812
327.018
327.125
327.125
327.018
326.812
326.527
326.183
325.803
325.408
325.016
324.652
324.367
320.709
320.945
321.253
321.584
321.918
322.239
322.53
322.771
322.945
323.035
323.035
322.945
322.771
322.53
322.239
321.918
321.584
321.253
320.945
320.709
317.007
317.197
317.448
317.719
317.992
318.255
318.492
318.69
318.831
318.905
318.905
318.831
318.69
318.492
318.255
317.992
317.719
317.448
317.197
317.007
313.269
313.415
313.61
313.82
314.032
314.237
314.421
314.575
314.685
314.743
314.743
314.685
314.575
314.421
314.237
314.032
313.82
313.61
313.415
313.269
309.503
309.606
309.745
309.895
310.047
310.193
310.325
310.434
310.513
310.554
310.554
310.513
310.434
310.325
310.193
310.047
309.895
309.745
309.606
309.503
305.716
305.778
305.861
305.951
306.042
306.13
306.209
306.275
306.322
306.347
306.347
306.322
306.275
306.209
306.13
306.042
305.951
305.861
305.778
305.716
301.918
301.938
301.966
301.996
302.027
302.056
302.083
302.105
302.121
302.129
302.129
302.121
302.105
302.083
302.056
302.027
301.996
301.966
301.938
301.918
328.634
328.952
329.35
329.773
330.198
330.605
330.972
331.275
331.493
331.607
331.607
331.493
331.275
330.972
330.605
330.198
329.773
329.35
328.952
328.634
324.944
325.213
325.556
325.922
326.291
326.643
326.961
327.223
327.411
327.51
327.51
327.411
327.223
326.961
326.643
326.291
325.922
325.556
325.213
324.944
321.199
321.423
321.712
322.022
322.333
322.631
322.9
323.122
323.281
323.364
323.364
323.281
323.122
322.9
322.631
322.333
322.022
321.712
321.423
321.199
317.41
317.59
317.825
318.079
318.333
318.577
318.797
318.978
319.108
319.176
319.176
319.108
318.978
318.797
318.577
318.333
318.079
317.825
317.59
317.41
313.583
313.721
313.904
314.101
314.299
314.489
314.659
314.8
314.902
314.954
314.954
314.902
314.8
314.659
314.489
314.299
314.101
313.904
313.721
313.583
309.728
309.825
309.956
310.096
310.238
310.373
310.495
310.596
310.668
310.706
310.706
310.668
310.596
310.495
310.373
310.238
310.096
309.956
309.825
309.728
305.852
305.91
305.988
306.072
306.157
306.239
306.312
306.372
306.416
306.438
306.438
306.416
306.372
306.312
306.239
306.157
306.072
305.988
305.91
305.852
301.963
301.982
302.009
302.037
302.065
302.093
302.117
302.137
302.152
302.16
302.16
302.152
302.137
302.117
302.093
302.065
302.037
302.009
301.982
301.963
329.387
329.686
330.058
330.452
330.846
331.221
331.557
331.834
332.032
332.135
332.135
332.032
331.834
331.557
331.221
330.846
330.452
330.058
329.686
329.387
325.599
325.852
326.173
326.514
326.856
327.18
327.472
327.712
327.883
327.972
327.972
327.883
327.712
327.472
327.18
326.856
326.514
326.173
325.852
325.599
321.757
321.966
322.237
322.525
322.814
323.089
323.335
323.538
323.683
323.758
323.758
323.683
323.538
323.335
323.089
322.814
322.525
322.237
321.966
321.757
317.868
318.036
318.257
318.493
318.729
318.954
319.155
319.321
319.439
319.501
319.501
319.439
319.321
319.155
318.954
318.729
318.493
318.257
318.036
317.868
313.94
314.07
314.241
314.424
314.608
314.783
314.939
315.068
315.16
315.209
315.209
315.16
315.068
314.939
314.783
314.608
314.424
314.241
314.07
313.94
309.983
310.075
310.197
310.328
310.459
310.584
310.696
310.788
310.854
310.888
310.888
310.854
310.788
310.696
310.584
310.459
310.328
310.197
310.075
309.983
306.005
306.06
306.133
306.212
306.291
306.366
306.433
306.488
306.528
306.548
306.548
306.528
306.488
306.433
306.366
306.291
306.212
306.133
306.06
306.005
302.014
302.033
302.057
302.084
302.11
302.135
302.158
302.176
302.189
302.196
302.196
302.189
302.176
302.158
302.135
302.11
302.084
302.057
302.033
302.014
330.232
330.512
330.858
331.223
331.586
331.929
332.236
332.488
332.667
332.76
332.76
332.667
332.488
332.236
331.929
331.586
331.223
330.858
330.512
330.232
326.335
326.572
326.871
327.187
327.501
327.799
328.065
328.283
328.438
328.519
328.519
328.438
328.283
328.065
327.799
327.501
327.187
326.871
326.572
326.335
322.382
322.578
322.83
323.097
323.363
323.615
323.84
324.024
324.156
324.224
324.224
324.156
324.024
323.84
323.615
323.363
323.097
322.83
322.578
322.382
318.381
318.539
318.744
318.963
319.18
319.387
319.57
319.721
319.828
319.884
319.884
319.828
319.721
319.57
319.387
319.18
318.963
318.744
318.539
318.381
314.341
314.462
314.622
314.791
314.961
315.121
315.264
315.381
315.465
315.508
315.508
315.465
315.381
315.264
315.121
314.961
314.791
314.622
314.462
314.341
310.27
310.356
310.47
310.591
310.712
310.827
310.929
311.012
311.072
311.103
311.103
311.072
311.012
310.929
310.827
310.712
310.591
310.47
310.356
310.27
306.178
306.229
306.297
306.37
306.443
306.512
306.573
306.623
306.659
306.678
306.678
306.659
306.623
306.573
306.512
306.443
306.37
306.297
306.229
306.178
302.072
302.089
302.112
302.137
302.161
302.184
302.205
302.222
302.234
302.24
302.24
302.234
302.222
302.205
302.184
302.161
302.137
302.112
302.089
302.072
331.171
331.431
331.753
332.089
332.422
332.735
333.014
333.241
333.403
333.487
333.487
333.403
333.241
333.014
332.735
332.422
332.089
331.753
331.431
331.171
327.153
327.373
327.651
327.942
328.23
328.502
328.743
328.94
329.08
329.153
329.153
329.08
328.94
328.743
328.502
328.23
327.942
327.651
327.373
327.153
323.077
323.26
323.493
323.74
323.984
324.214
324.418
324.584
324.703
324.764
324.764
324.703
324.584
324.418
324.214
323.984
323.74
323.493
323.26
323.077
318.952
319.099
319.289
319.491
319.69
319.878
320.045
320.182
320.279
320.329
320.329
320.279
320.182
320.045
319.878
319.69
319.491
319.289
319.099
318.952
314.786
314.899
315.047
315.204
315.359
315.505
315.635
315.741
315.816
315.855
315.855
315.816
315.741
315.635
315.505
315.359
315.204
315.047
314.899
314.786
310.589
310.669
310.774
310.886
310.997
311.102
311.195
311.27
311.324
311.352
311.352
311.324
311.27
311.195
311.102
310.997
310.886
310.774
310.669
310.589
306.37
306.417
306.481
306.548
306.614
306.677
306.733
306.778
306.811
306.828
306.828
306.811
306.778
306.733
306.677
306.614
306.548
306.481
306.417
306.37
302.137
302.153
302.174
302.196
302.219
302.24
302.258
302.274
302.284
302.29
302.29
302.284
302.274
302.258
302.24
302.219
302.196
302.174
302.153
302.137
332.206
332.447
332.743
333.053
333.356
333.641
333.893
334.098
334.243
334.318
334.318
334.243
334.098
333.893
333.641
333.356
333.053
332.743
332.447
332.206
328.054
328.258
328.514
328.782
329.045
329.292
329.51
329.688
329.813
329.879
329.879
329.813
329.688
329.51
329.292
329.045
328.782
328.514
328.258
328.054
323.843
324.012
324.228
324.454
324.677
324.886
325.071
325.221
325.327
325.382
325.382
325.327
325.221
325.071
324.886
324.677
324.454
324.228
324.012
323.843
319.58
319.717
319.892
320.078
320.26
320.431
320.582
320.705
320.792
320.837
320.837
320.792
320.705
320.582
320.431
320.26
320.078
319.892
319.717
319.58
315.276
315.381
315.518
315.662
315.803
315.936
316.054
316.15
316.217
316.252
316.252
316.217
316.15
316.054
315.936
315.803
315.662
315.518
315.381
315.276
310.94
311.014
311.112
311.214
311.316
311.411
311.495
311.563
311.612
311.637
311.637
311.612
311.563
311.495
311.411
311.316
311.214
311.112
311.014
310.94
306.581
306.625
306.683
306.745
306.806
306.863
306.914
306.955
306.984
306.999
306.999
306.984
306.955
306.914
306.863
306.806
306.745
306.683
306.625
306.581
302.208
302.222
302.242
302.263
302.283
302.302
302.319
302.333
302.343
302.348
302.348
302.343
302.333
302.319
302.302
302.283
302.263
302.242
302.222
302.208
333.335
333.558
333.831
334.114
334.391
334.649
334.876
335.06
335.19
335.257
335.257
335.19
335.06
334.876
334.649
334.391
334.114
333.831
333.558
333.335
329.038
329.227
329.462
329.707
329.947
330.171
330.368
330.527
330.64
330.698
330.698
330.64
330.527
330.368
330.171
329.947
329.707
329.462
329.227
329.038
324.678
324.835
325.033
325.241
325.444
325.633
325.8
325.935
326.03
326.079
326.079
326.03
325.935
325.8
325.633
325.444
325.241
325.033
324.835
324.678
320.266
320.392
320.554
320.724
320.89
321.045
321.181
321.292
321.37
321.41
321.41
321.37
321.292
321.181
321.045
320.89
320.724
320.554
320.392
320.266
315.812
315.908
316.034
316.166
316.295
316.416
316.522
316.608
316.668
316.7
316.7
316.668
316.608
316.522
316.416
316.295
316.166
316.034
315.908
315.812
311.323
311.392
311.481
311.576
311.668
311.754
311.83
311.891
311.935
311.957
311.957
311.935
311.891
311.83
311.754
311.668
311.576
311.481
311.392
311.323
306.811
306.852
306.906
306.963
307.018
307.07
307.115
307.152
307.178
307.192
307.192
307.178
307.152
307.115
307.07
307.018
306.963
306.906
306.852
306.811
302.285
302.299
302.317
302.335
302.354
302.371
302.387
302.399
302.408
302.412
302.412
302.408
302.399
302.387
302.371
302.354
302.335
302.317
302.299
302.285
334.559
334.765
335.016
335.274
335.525
335.759
335.963
336.128
336.243
336.303
336.303
336.243
336.128
335.963
335.759
335.525
335.274
335.016
334.765
334.559
330.103
330.277
330.493
330.717
330.935
331.137
331.315
331.457
331.558
331.61
331.61
331.558
331.457
331.315
331.137
330.935
330.717
330.493
330.277
330.103
325.583
325.727
325.91
326.099
326.284
326.455
326.605
326.726
326.811
326.855
326.855
326.811
326.726
326.605
326.455
326.284
326.099
325.91
325.727
325.583
321.009
321.125
321.274
321.429
321.58
321.72
321.843
321.942
322.011
322.047
322.047
322.011
321.942
321.843
321.72
321.58
321.429
321.274
321.125
321.009
316.391
316.48
316.595
316.716
316.833
316.942
317.038
317.115
317.169
317.197
317.197
317.169
317.115
317.038
316.942
316.833
316.716
316.595
316.48
316.391
311.738
311.801
311.883
311.97
312.053
312.131
312.2
312.255
312.293
312.313
312.313
312.293
312.255
312.2
312.131
312.053
311.97
311.883
311.801
311.738
307.061
307.098
307.148
307.199
307.25
307.297
307.338
307.371
307.394
307.406
307.406
307.394
307.371
307.338
307.297
307.25
307.199
307.148
307.098
307.061
302.368
302.381
302.398
302.415
302.432
302.448
302.461
302.472
302.48
302.484
302.484
302.48
302.472
302.461
302.448
302.432
302.415
302.398
302.381
302.368
335.872
336.061
336.291
336.526
336.754
336.965
337.148
337.296
337.399
337.452
337.452
337.399
337.296
337.148
336.965
336.754
336.526
336.291
336.061
335.872
331.244
331.405
331.603
331.807
332.005
332.187
332.346
332.474
332.564
332.61
332.61
332.564
332.474
332.346
332.187
332.005
331.807
331.603
331.405
331.244
326.552
326.685
326.852
327.024
327.192
327.346
327.481
327.589
327.665
327.704
327.704
327.665
327.589
327.481
327.346
327.192
327.024
326.852
326.685
326.552
321.804
321.911
322.047
322.188
322.325
322.452
322.562
322.651
322.713
322.745
322.745
322.713
322.651
322.562
322.452
322.325
322.188
322.047
321.911
321.804
317.01
317.092
317.198
317.308
317.414
317.513
317.599
317.668
317.716
317.741
317.741
317.716
317.668
317.599
317.513
317.414
317.308
317.198
317.092
317.01
312.181
312.239
312.315
312.393
312.469
312.54
312.601
312.65
312.685
312.703
312.703
312.685
312.65
312.601
312.54
312.469
312.393
312.315
312.239
312.181
307.327
307.362
307.407
307.454
307.5
307.542
307.579
307.609
307.629
307.64
307.64
307.629
307.609
307.579
307.542
307.5
307.454
307.407
307.362
307.327
302.458
302.469
302.485
302.5
302.516
302.53
302.542
302.552
302.559
302.563
302.563
302.559
302.552
302.542
302.53
302.516
302.5
302.485
302.469
302.458
337.258
337.432
337.642
337.857
338.063
338.253
338.418
338.55
338.642
338.69
338.69
338.642
338.55
338.418
338.253
338.063
337.857
337.642
337.432
337.258
332.448
332.595
332.776
332.962
333.142
333.306
333.449
333.564
333.644
333.685
333.685
333.644
333.564
333.449
333.306
333.142
332.962
332.776
332.595
332.448
327.571
327.693
327.846
328.004
328.155
328.295
328.416
328.513
328.581
328.616
328.616
328.581
328.513
328.416
328.295
328.155
328.004
327.846
327.693
327.571
322.638
322.737
322.862
322.99
323.115
323.229
323.328
323.407
323.463
323.491
323.491
323.463
323.407
323.328
323.229
323.115
322.99
322.862
322.737
322.638
317.66
317.735
317.832
317.932
318.029
318.118
318.195
318.257
318.3
318.323
318.323
318.3
318.257
318.195
318.118
318.029
317.932
317.832
317.735
317.66
312.646
312.699
312.768
312.84
312.909
312.973
313.028
313.072
313.103
313.119
313.119
313.103
313.072
313.028
312.973
312.909
312.84
312.768
312.699
312.646
307.606
307.638
307.68
307.723
307.764
307.802
307.835
307.862
307.881
307.89
307.89
307.881
307.862
307.835
307.802
307.764
307.723
307.68
307.638
307.606
302.551
302.562
302.576
302.59
302.604
302.617
302.628
302.637
302.643
302.647
302.647
302.643
302.637
302.628
302.617
302.604
302.59
302.576
302.562
302.551
338.679
338.84
339.032
339.228
339.416
339.587
339.736
339.854
339.937
339.979
339.979
339.937
339.854
339.736
339.587
339.416
339.228
339.032
338.84
338.679
333.676
333.811
333.978
334.148
334.311
334.46
334.588
334.691
334.763
334.8
334.8
334.763
334.691
334.588
334.46
334.311
334.148
333.978
333.811
333.676
328.607
328.72
328.86
329.004
329.142
329.268
329.377
329.464
329.525
329.556
329.556
329.525
329.464
329.377
329.268
329.142
329.004
328.86
328.72
328.607
323.484
323.575
323.689
323.807
323.92
324.023
324.113
324.184
324.234
324.259
324.259
324.234
324.184
324.113
324.023
323.92
323.807
323.689
323.575
323.484
318.316
318.386
318.475
318.566
318.654
318.735
318.804
318.86
318.899
318.919
318.919
318.899
318.86
318.804
318.735
318.654
318.566
318.475
318.386
318.316
313.114
313.163
313.226
313.292
313.355
313.412
313.462
313.502
313.53
313.544
313.544
313.53
313.502
313.462
313.412
313.355
313.292
313.226
313.163
313.114
307.887
307.916
307.954
307.994
308.032
308.066
308.096
308.12
308.137
308.145
308.145
308.137
308.12
308.096
308.066
308.032
307.994
307.954
307.916
307.887
302.645
302.655
302.668
302.681
302.694
302.706
302.716
302.724
302.729
302.732
302.732
302.729
302.724
302.716
302.706
302.694
302.681
302.668
302.655
302.645
340.042
340.19
340.368
340.548
340.72
340.876
341.011
341.118
341.193
341.231
341.231
341.193
341.118
341.011
340.876
340.72
340.548
340.368
340.19
340.042
334.839
334.964
335.118
335.274
335.424
335.559
335.677
335.77
335.835
335.868
335.868
335.835
335.77
335.677
335.559
335.424
335.274
335.118
334.964
334.839
329.578
329.682
329.812
329.944
330.071
330.186
330.285
330.365
330.42
330.448
330.448
330.42
330.365
330.285
330.186
330.071
329.944
329.812
329.682
329.578
324.269
324.353
324.459
324.567
324.671
324.765
324.847
324.912
324.957
324.98
324.98
324.957
324.912
324.847
324.765
324.671
324.567
324.459
324.353
324.269
318.921
318.985
319.067
319.152
319.233
319.307
319.37
319.421
319.456
319.474
319.474
319.456
319.421
319.37
319.307
319.233
319.152
319.067
318.985
318.921
313.543
313.588
313.647
313.707
313.765
313.818
313.864
313.9
313.925
313.938
313.938
313.925
313.9
313.864
313.818
313.765
313.707
313.647
313.588
313.543
308.143
308.171
308.206
308.242
308.277
308.309
308.336
308.358
308.373
308.381
308.381
308.373
308.358
308.336
308.309
308.277
308.242
308.206
308.171
308.143
302.731
302.74
302.752
302.764
302.776
302.787
302.796
302.803
302.808
302.811
302.811
302.808
302.803
302.796
302.787
302.776
302.764
302.752
302.74
302.731
341.104
341.243
341.41
341.579
341.74
341.885
342.011
342.11
342.179
342.215
342.215
342.179
342.11
342.011
341.885
341.74
341.579
341.41
341.243
341.104
335.711
335.829
335.974
336.121
336.261
336.388
336.498
336.584
336.645
336.676
336.676
336.645
336.584
336.498
336.388
336.261
336.121
335.974
335.829
335.711
330.283
330.382
330.504
330.629
330.748
330.857
330.95
331.024
331.075
331.101
331.101
331.075
331.024
330.95
330.857
330.748
330.629
330.504
330.382
330.283
324.825
324.905
325.005
325.108
325.206
325.294
325.371
325.432
325.474
325.496
325.496
325.474
325.432
325.371
325.294
325.206
325.108
325.005
324.905
324.825
319.342
319.403
319.481
319.561
319.637
319.706
319.766
319.814
319.847
319.864
319.864
319.847
319.814
319.766
319.706
319.637
319.561
319.481
319.403
319.342
313.837
313.88
313.936
313.993
314.048
314.098
314.141
314.175
314.198
314.21
314.21
314.198
314.175
314.141
314.098
314.048
313.993
313.936
313.88
313.837
308.318
308.344
308.377
308.412
308.444
308.474
308.5
308.521
308.535
308.542
308.542
308.535
308.521
308.5
308.474
308.444
308.412
308.377
308.344
308.318
302.789
302.798
302.809
302.821
302.832
302.842
302.85
302.857
302.862
302.864
302.864
302.862
302.857
302.85
302.842
302.832
302.821
302.809
302.798
302.789
)
;

boundaryField
{
    hotSide
    {
        type            fixedGradient;
        gradient        nonuniform List<scalar> 
400
(
260.653
261.454
263.061
265.481
268.728
272.817
277.765
283.593
290.319
297.964
306.547
316.087
326.6
338.101
350.603
364.119
378.656
394.223
410.825
428.469
266.133
266.891
268.412
270.708
273.797
277.697
282.432
288.029
294.511
301.905
310.235
319.524
329.791
341.054
353.329
366.629
380.963
396.34
412.766
430.246
272.063
272.769
274.189
276.338
279.238
282.916
287.403
292.731
298.933
306.04
314.083
323.089
333.081
344.082
356.108
369.173
383.288
398.462
414.701
432.009
278.346
278.991
280.293
282.271
284.955
288.379
292.582
297.606
303.492
310.279
318.005
326.701
336.396
347.114
358.874
371.691
385.577
400.54
416.586
433.718
284.805
285.383
286.552
288.339
290.781
293.923
297.814
302.506
308.049
314.493
321.88
330.249
339.633
350.057
361.544
374.108
387.762
402.513
418.367
435.325
291.171
291.677
292.704
294.288
296.474
299.318
302.882
307.228
312.419
318.511
325.554
333.594
342.667
352.8
364.018
376.336
389.766
404.315
419.985
436.778
297.081
297.513
298.4
299.781
301.714
304.265
307.509
311.52
316.369
322.124
328.842
336.571
345.353
355.217
366.188
378.281
391.507
405.872
421.379
438.026
302.096
302.464
303.223
304.423
306.128
308.419
311.379
315.094
319.646
325.108
331.544
339.007
347.541
357.177
367.94
379.845
392.902
407.116
422.488
439.015
305.767
306.084
306.746
307.807
309.34
311.433
314.179
317.672
322.001
327.245
333.472
340.74
349.092
358.562
369.174
380.943
393.879
407.985
423.26
439.702
307.712
308.001
308.611
309.596
311.036
313.021
315.652
319.025
323.234
328.361
334.478
341.641
349.897
359.279
369.812
381.51
394.382
408.431
423.656
440.054
307.712
308.001
308.611
309.596
311.036
313.021
315.652
319.025
323.234
328.361
334.478
341.641
349.897
359.279
369.812
381.51
394.382
408.431
423.656
440.054
305.767
306.084
306.746
307.807
309.34
311.433
314.179
317.672
322.001
327.245
333.472
340.74
349.092
358.562
369.174
380.943
393.879
407.985
423.26
439.702
302.096
302.464
303.223
304.423
306.128
308.419
311.379
315.094
319.646
325.108
331.544
339.007
347.541
357.177
367.94
379.845
392.902
407.116
422.488
439.015
297.081
297.513
298.4
299.781
301.714
304.265
307.509
311.52
316.369
322.124
328.842
336.571
345.353
355.217
366.188
378.281
391.507
405.872
421.379
438.026
291.171
291.677
292.704
294.288
296.474
299.318
302.882
307.228
312.419
318.511
325.554
333.594
342.667
352.8
364.018
376.336
389.766
404.315
419.985
436.778
284.805
285.383
286.552
288.339
290.781
293.923
297.814
302.506
308.049
314.493
321.88
330.249
339.633
350.057
361.544
374.108
387.762
402.513
418.367
435.325
278.346
278.991
280.293
282.271
284.955
288.379
292.582
297.606
303.492
310.279
318.005
326.701
336.396
347.114
358.874
371.691
385.577
400.54
416.586
433.718
272.063
272.769
274.189
276.338
279.238
282.916
287.403
292.731
298.933
306.04
314.083
323.089
333.081
344.082
356.108
369.173
383.288
398.462
414.701
432.009
266.133
266.891
268.412
270.708
273.797
277.697
282.432
288.029
294.511
301.905
310.235
319.524
329.791
341.054
353.329
366.629
380.963
396.34
412.766
430.246
260.653
261.454
263.061
265.481
268.728
272.817
277.765
283.593
290.319
297.964
306.547
316.087
326.6
338.101
350.603
364.119
378.656
394.223
410.825
428.469
)
;
    }
    coldSide
    {
        type            mixed;
        refValue        uniform 300;
        refGradient     uniform 0;
        valueFraction   uniform 0.991591;
        source          uniform 0;
        value           nonuniform List<scalar> 
400
(
300.015
300.015
300.015
300.015
300.015
300.016
300.016
300.016
300.017
300.017
300.017
300.018
300.019
300.019
300.02
300.021
300.021
300.022
300.023
300.023
300.015
300.015
300.015
300.015
300.015
300.016
300.016
300.016
300.017
300.017
300.018
300.018
300.019
300.019
300.02
300.021
300.022