/*--------------------------------*- C++ -*----------------------------------*\
| =========                 |                                                 |
| \\      /  F ield         | OpenFOAM: The Open Source CFD Toolbox           |
|  \\    /   O peration     | Version:  2212                                  |
|   \\  /    A nd           | Website:  www.openfoam.com                      |
|    \\/     M anipulation  |                                                 |
\*---------------------------------------------------------------------------*/
FoamFile
{
    version     2.0;
    format      ascii;
    arch        "LSB;label=32;scalar=64";
    class       volScalarField;
    location    "0";
    object      Tdirect;
}
// * * * * * * * * * * * * * * * * * * * * * * * * * * * * * * * * * * * * * //

dimensions      [0 0 0 1 0 0 0];

internalField   nonuniform List<scalar> 
3200
(
345.035
346.172
347.617
349.188
350.805
352.393
353.859
355.097
355.999
356.475
356.475
355.999
355.097
353.859
352.393
350.805
349.188
347.617
346.172
345.035
339.31
340.27
341.513
342.869
344.265
345.635
346.899
347.966
348.743
349.153
349.153
348.743
347.966
346.899
345.635
344.265
342.869
341.513
340.27
339.31
333.475
334.27
335.315
336.458
337.636
338.79
339.855
340.753
341.407
341.752
341.752
341.407
340.753
339.855
338.79
337.636
336.458
335.315
334.27
333.475
327.541
328.18
329.031
329.963
330.923
331.865
332.733
333.465
333.997
334.278
334.278
333.997
333.465
332.733
331.865
330.923
329.963
329.031
328.18
327.541
321.522
322.012
322.67
323.394
324.139
324.869
325.542
326.11
326.522
326.74
326.74
326.522
326.11
325.542
324.869
324.139
323.394
322.67
322.012
321.522
315.432
315.779
316.248
316.763
317.295
317.816
318.295
318.7
318.994
319.149
319.149
318.994
318.7
318.295
317.816
317.295
316.763
316.248
315.779
315.432
309.291
309.498
309.779
310.088
310.407
310.719
311.007
311.249
311.426
311.519
311.519
311.426
311.249
311.007
310.719
310.407
310.088
309.779
309.498
309.291
303.118
303.187
303.281
303.385
303.492
303.596
303.693
303.774
303.833
303.864
303.864
303.833
303.774
303.693
303.596
303.492
303.385
303.281
303.187
303.118
345.115
346.243
347.675
349.232
350.833
352.403
353.852
355.074
355.965
356.435
356.435
355.965
355.074
353.852
352.403
350.833
349.232
347.675
346.243
345.115
339.379
340.332
341.564
342.908
344.29
345.644
346.894
347.947
348.714
349.119
349.119
348.714
347.947
346.894
345.644
344.29
342.908
341.564
340.332
339.379
333.533
334.322
335.358
336.491
337.656
338.798
339.85
340.737
341.383
341.724
341.724
341.383
340.737
339.85
338.798
337.656
336.491
335.358
334.322
333.533
327.589
328.223
329.066
329.989
330.94
331.871
332.729
333.452
333.978
334.255
334.255
333.978
333.452
332.729
331.871
330.94
329.989
329.066
328.223
327.589
321.559
322.045
322.698
323.414
324.152
324.874
325.539
326.1
326.507
326.723
326.723
326.507
326.1
325.539
324.874
324.152
323.414
322.698
322.045
321.559
315.459
315.802
316.267
316.778
317.304
317.819
318.294
318.693
318.983
319.137
319.137
318.983
318.693
318.294
317.819
317.304
316.778
316.267
315.802
315.459
309.307
309.512
309.79
310.097
310.412
310.721
311.006
311.245
311.42
311.511
311.511
311.42
311.245
311.006
310.721
310.412
310.097
309.79
309.512
309.307
303.123
303.192
303.285
303.388
303.493
303.597
303.692
303.772
303.831
303.862
303.862
303.831
303.772
303.692
303.597
303.493
303.388
303.285
303.192
303.123
345.277
346.387
347.795
349.323
350.892
352.428
353.843
355.035
355.903
356.361
356.361
355.903
355.035
353.843
352.428
350.892
349.323
347.795
346.387
345.277
339.519
340.456
341.668
342.986
344.341
345.666
346.886
347.914
348.662
349.056
349.056
348.662
347.914
346.886
345.666
344.341
342.986
341.668
340.456
339.519
333.651
334.427
335.446
336.557
337.699
338.817
339.845
340.71
341.339
341.671
341.671
341.339
340.71
339.845
338.817
337.699
336.557
335.446
334.427
333.651
327.685
328.308
329.137
330.044
330.975
331.887
332.725
333.43
333.943
334.213
334.213
333.943
333.43
332.725
331.887
330.975
330.044
329.137
328.308
327.685
321.633
322.111
322.753
323.456
324.179
324.886
325.536
326.083
326.481
326.69
326.69
326.481
326.083
325.536
324.886
324.179
323.456
322.753
322.111
321.633
315.512
315.85
316.307
316.808
317.324
317.828
318.291
318.681
318.964
319.114
319.114
318.964
318.681
318.291
317.828
317.324
316.808
316.307
315.85
315.512
309.339
309.54
309.814
310.115
310.424
310.727
311.005
311.238
311.408
311.498
311.498
311.408
311.238
311.005
310.727
310.424
310.115
309.814
309.54
309.339
303.134
303.201
303.293
303.394
303.497
303.599
303.692
303.77
303.827
303.857
303.857
303.827
303.77
303.692
303.599
303.497
303.394
303.293
303.201
303.134
345.523
346.607
347.98
349.466
350.988
352.475
353.842
354.991
355.826
356.266
356.266
355.826
354.991
353.842
352.475
350.988
349.466
347.98
346.607
345.523
339.73
340.646
341.827
343.11
344.424
345.707
346.886
347.877
348.596
348.976
348.976
348.596
347.877
346.886
345.707
344.424
343.11
341.827
340.646
339.73
333.829
334.588
335.581
336.662
337.77
338.852
339.845
340.68
341.285
341.605
341.605
341.285
340.68
339.845
338.852
337.77
336.662
335.581
334.588
333.829
327.83
328.439
329.247
330.129
331.033
331.916
332.726
333.406
333.899
334.159
334.159
333.899
333.406
332.726
331.916
331.033
330.129
329.247
328.439
327.83
321.746
322.213
322.839
323.523
324.224
324.909
325.537
326.065
326.447
326.649
326.649
326.447
326.065
325.537
324.909
324.224
323.523
322.839
322.213
321.746
315.592
315.922
316.368
316.856
317.356
317.844
318.292
318.668
318.941
319.085
319.085
318.941
318.668
318.292
317.844
317.356
316.856
316.368
315.922
315.592
309.387
309.584
309.851
310.143
310.444
310.737
311.005
311.231
311.394
311.48
311.48
311.394
311.231
311.005
310.737
310.444
310.143
309.851
309.584
309.387
303.15
303.216
303.305
303.403
303.504
303.602
303.692
303.768
303.822
303.851
303.851
303.822
303.768
303.692
303.602
303.504
303.403
303.305
303.216
303.15
345.856
346.907
348.235
349.667
351.131
352.556
353.862
354.957
355.751
356.17
356.17
355.751
354.957
353.862
352.556
351.131
349.667
348.235
346.907
345.856
340.018
340.905
342.048
343.284
344.548
345.778
346.904
347.849
348.534
348.894
348.894
348.534
347.849
346.904
345.778
344.548
343.284
342.048
340.905
340.018
334.071
334.806
335.766
336.809
337.875
338.912
339.861
340.657
341.234
341.537
341.537
341.234
340.657
339.861
338.912
337.875
336.809
335.766
334.806
334.071
328.027
328.618
329.399
330.25
331.119
331.965
332.739
333.388
333.858
334.105
334.105
333.858
333.388
332.739
331.965
331.119
330.25
329.399
328.618
328.027
321.899
322.351
322.956
323.616
324.291
324.947
325.548
326.051
326.415
326.607
326.607
326.415
326.051
325.548
324.947
324.291
323.616
322.956
322.351
321.899
315.701
316.021
316.452
316.923
317.404
317.872
318.3
318.659
318.919
319.055
319.055
318.919
318.659
318.3
317.872
317.404
316.923
316.452
316.021
315.701
309.452
309.643
309.901
310.184
310.472
310.753
311.01
311.225
311.381
311.463
311.463
311.381
311.225
311.01
310.753
310.472
310.184
309.901
309.643
309.452
303.172
303.236
303.322
303.417
303.514
303.608
303.694
303.766
303.818
303.845
303.845
303.818
303.766
303.694
303.608
303.514
303.417
303.322
303.236
303.172
346.281
347.292
348.566
349.937
351.331
352.684
353.919
354.953
355.7
356.093
356.093
355.7
354.953
353.919
352.684
351.331
349.937
348.566
347.292
346.281
340.384
341.238
342.334
343.517
344.721
345.889
346.955
347.846
348.491
348.829
348.829
348.491
347.846
346.955
345.889
344.721
343.517
342.334
341.238
340.384
334.379
335.087
336.008
337.006
338.021
339.006
339.905
340.656
341.199
341.484
341.484
341.199
340.656
339.905
339.006
338.021
337.006
336.008
335.087
334.379
328.278
328.847
329.597
330.41
331.239
332.042
332.775
333.388
333.83
334.063
334.063
333.83
333.388
332.775
332.042
331.239
330.41
329.597
328.847
328.278
322.093
322.529
323.11
323.741
324.384
325.008
325.576
326.051
326.394
326.575
326.575
326.394
326.051
325.576
325.008
324.384
323.741
323.11
322.529
322.093
315.84
316.148
316.561
317.012
317.47
317.915
318.321
318.659
318.904
319.032
319.032
318.904
318.659
318.321
317.915
317.47
317.012
316.561
316.148
315.84
309.535
309.719
309.967
310.237
310.512
310.779
311.022
311.225
311.372
311.449
311.449
311.372
311.225
311.022
310.779
310.512
310.237
309.967
309.719
309.535
303.2
303.261
303.344
303.435
303.527
303.616
303.698
303.766
303.815
303.841
303.841
303.815
303.766
303.698
303.616
303.527
303.435
303.344
303.261
303.2
346.801
347.768
348.982
350.283
351.6
352.874
354.032
354.997
355.693
356.059
356.059
355.693
354.997
354.032
352.874
351.6
350.283
348.982
347.768
346.801
340.832
341.649
342.694
343.817
344.955
346.054
347.054
347.886
348.487
348.802
348.802
348.487
347.886
347.054
346.054
344.955
343.817
342.694
341.649
340.832
334.757
335.434
336.312
337.259
338.219
339.146
339.989
340.691
341.197
341.462
341.462
341.197
340.691
339.989
339.146
338.219
337.259
336.312
335.434
334.757
328.586
329.13
329.844
330.617
331.4
332.157
332.844
333.417
333.829
334.046
334.046
333.829
333.417
332.844
332.157
331.4
330.617
329.844
329.13
328.586
322.332
322.749
323.302
323.902
324.51
325.097
325.63
326.074
326.394
326.562
326.562
326.394
326.074
325.63
325.097
324.51
323.902
323.302
322.749
322.332
316.01
316.304
316.699
317.126
317.56
317.979
318.359
318.676
318.904
319.024
319.024
318.904
318.676
318.359
317.979
317.56
317.126
316.699
316.304
316.01
309.638
309.813
310.049
310.306
310.566
310.817
311.046
311.235
311.372
311.444
311.444
311.372
311.235
311.046
310.817
310.566
310.306
310.049
309.813
309.638
303.234
303.293
303.372
303.458
303.545
303.629
303.706
303.769
303.815
303.839
303.839
303.815
303.769
303.706
303.629
303.545
303.458
303.372
303.293
303.234
347.423
348.342
349.491
350.716
351.952
353.141
354.218
355.112
355.755
356.092
356.092
355.755
355.112
354.218
353.141
351.952
350.716
349.491
348.342
347.423
341.369
342.145
343.133
344.191
345.259
346.286
347.215
347.987
348.542
348.832
348.832
348.542
347.987
347.215
346.286
345.259
344.191
343.133
342.145
341.369
335.209
335.851
336.683
337.575
338.476
339.342
340.126
340.776
341.244
341.489
341.489
341.244
340.776
340.126
339.342
338.476
337.575
336.683
335.851
335.209
328.955
329.471
330.147
330.876
331.611
332.317
332.957
333.487
333.869
334.068
334.068
333.869
333.487
332.957
332.317
331.611
330.876
330.147
329.471
328.955
322.618
323.013
323.537
324.103
324.673
325.222
325.718
326.13
326.426
326.58
326.58
326.426
326.13
325.718
325.222
324.673
324.103
323.537
323.013
322.618
316.214
316.493
316.866
317.27
317.677
318.068
318.422
318.716
318.926
319.037
319.037
318.926
318.716
318.422
318.068
317.677
317.27
316.866
316.493
316.214
309.76
309.926
310.15
310.392
310.636
310.871
311.083
311.259
311.386
311.452
311.452
311.386
311.259
311.083
310.871
310.636
310.392
310.15
309.926
309.76
303.275
303.331
303.406
303.487
303.568
303.647
303.718
303.777
303.82
303.842
303.842
303.82
303.777
303.718
303.647
303.568
303.487
303.406
303.331
303.275
348.152
349.02
350.1
351.248
352.399
353.501
354.495
355.317
355.906
356.214
356.214
355.906
355.317
354.495
353.501
352.399
351.248
350.1
349.02
348.152
341.997
342.73
343.66
344.651
345.646
346.598
347.456
348.165
348.674
348.939
348.939
348.674
348.165
347.456
346.598
345.646
344.651
343.66
342.73
341.997
335.738
336.345
337.127
337.963
338.803
339.606
340.329
340.928
341.356
341.58
341.58
341.356
340.928
340.329
339.606
338.803
337.963
337.127
336.345
335.738
329.386
329.874
330.51
331.192
331.877
332.533
333.123
333.611
333.961
334.144
334.144
333.961
333.611
333.123
332.533
331.877
331.192
330.51
329.874
329.386
322.953
323.326
323.819
324.348
324.88
325.389
325.848
326.226
326.498
326.64
326.64
326.498
326.226
325.848
325.389
324.88
324.348
323.819
323.326
322.953
316.452
316.716
317.068
317.445
317.825
318.188
318.515
318.785
318.978
319.079
319.079
318.978
318.785
318.515
318.188
317.825
317.445
317.068
316.716
316.452
309.903
310.06
310.271
310.497
310.725
310.943
311.139
311.301
311.417
311.478
311.478
311.417
311.301
311.139
310.943
310.725
310.497
310.271
310.06
309.903
303.323
303.376
303.446
303.522
303.598
303.671
303.737
303.791
303.83
303.85
303.85
303.83
303.791
303.737
303.671
303.598
303.522
303.446
303.376
303.323
348.992
349.807
350.819
351.887
352.953
353.968
354.879
355.63
356.166
356.446
356.446
356.166
355.63
354.879
353.968
352.953
351.887
350.819
349.807
348.992
342.721
343.41
344.281
345.203
346.124
347.002
347.789
348.436
348.9
349.141
349.141
348.9
348.436
347.789
347.002
346.124
345.203
344.281
343.41
342.721
336.349
336.919
337.651
338.429
339.207
339.947
340.611
341.157
341.548
341.752
341.752
341.548
341.157
340.611
339.947
339.207
338.429
337.651
336.919
336.349
329.884
330.342
330.938
331.573
332.208
332.812
333.354
333.8
334.118
334.284
334.284
334.118
333.8
333.354
332.812
332.208
331.573
330.938
330.342
329.884
323.339
323.69
324.151
324.644
325.137
325.606
326.027
326.373
326.62
326.749
326.749
326.62
326.373
326.027
325.606
325.137
324.644
324.151
323.69
323.339
316.728
316.976
317.304
317.656
318.008
318.342
318.642
318.889
319.066
319.158
319.158
319.066
318.889
318.642
318.342
318.008
317.656
317.304
316.976
316.728
310.068
310.216
310.413
310.624
310.835
311.036
311.216
311.364
311.47
311.525
311.525
311.47
311.364
311.216
311.036
310.835
310.624
310.413
310.216
310.068
303.378
303.428
303.494
303.564
303.635
303.702
303.763
303.812
303.848
303.866
303.866
303.848
303.812
303.763
303.702
303.635
303.564
303.494
303.428
303.378
349.949
350.712
351.653
352.642
353.625
354.555
355.386
356.067
356.552
356.805
356.805
356.552
356.067
355.386
354.555
353.625
352.642
351.653
350.712
349.949
343.547
344.191
345.002
345.856
346.705
347.509
348.227
348.815
349.234
349.453
349.453
349.234
348.815
348.227
347.509
346.705
345.856
345.002
344.191
343.547
337.045
337.578
338.26
338.981
339.697
340.375
340.981
341.478
341.831
342.015
342.015
341.831
341.478
340.981
340.375
339.697
338.981
338.26
337.578
337.045
330.452
330.88
331.435
332.023
332.608
333.162
333.656
334.061
334.35
334.5
334.5
334.35
334.061
333.656
333.162
332.608
332.023
331.435
330.88
330.452
323.779
324.107
324.537
324.994
325.448
325.878
326.262
326.576
326.8
326.917
326.917
326.8
326.576
326.262
325.878
325.448
324.994
324.537
324.107
323.779
317.042
317.274
317.58
317.905
318.23
318.536
318.81
319.035
319.195
319.278
319.278
319.195
319.035
318.81
318.536
318.23
317.905
317.58
317.274
317.042
310.256
310.395
310.578
310.773
310.968
311.152
311.316
311.451
311.547
311.597
311.597
311.547
311.451
311.316
311.152
310.968
310.773
310.578
310.395
310.256
303.441
303.488
303.549
303.614
303.68
303.741
303.796
303.842
303.874
303.89
303.89
303.874
303.842
303.796
303.741
303.68
303.614
303.549
303.488
303.441
351.028
351.738
352.611
353.523
354.424
355.272
356.026
356.642
357.079
357.307
357.307
357.079
356.642
356.026
355.272
354.424
353.523
352.611
351.738
351.028
344.478
345.078
345.829
346.617
347.396
348.129
348.781
349.313
349.69
349.887
349.887
349.69
349.313
348.781
348.129
347.396
346.617
345.829
345.078
344.478
337.83
338.326
338.958
339.623
340.28
340.899
341.449
341.898
342.217
342.382
342.382
342.217
341.898
341.449
340.899
340.28
339.623
338.958
338.326
337.83
331.092
331.491
332.005
332.547
333.084
333.589
334.038
334.405
334.665
334.8
334.8
334.665
334.405
334.038
333.589
333.084
332.547
332.005
331.491
331.092
324.276
324.581
324.98
325.401
325.817
326.21
326.559
326.843
327.045
327.15
327.15
327.045
326.843
326.559
326.21
325.817
325.401
324.98
324.581
324.276
317.396
317.612
317.896
318.196
318.493
318.773
319.022
319.225
319.369
319.444
319.444
319.369
319.225
319.022
318.773
318.493
318.196
317.896
317.612
317.396
310.469
310.598
310.768
310.948
311.126
311.294
311.444
311.565
311.652
311.697
311.697
311.652
311.565
311.444
311.294
311.126
310.948
310.768
310.598
310.469
303.513
303.556
303.613
303.673
303.733
303.789
303.839
303.88
303.909
303.924
303.924
303.909
303.88
303.839
303.789
303.733
303.673
303.613
303.556
303.513
352.233
352.892
353.698
354.535
355.358
356.129
356.811
357.365
357.758
357.961
357.961
357.758
357.365
356.811
356.129
355.358
354.535
353.698
352.892
352.233
345.518
346.074
346.768
347.492
348.203
348.87
349.459
349.938
350.277
350.453
350.453
350.277
349.938
349.459
348.87
348.203
347.492
346.768
346.074
345.518
338.707
339.167
339.75
340.361
340.961
341.524
342.021
342.426
342.712
342.861
342.861
342.712
342.426
342.021
341.524
340.961
340.361
339.75
339.167
338.707
331.807
332.177
332.651
333.15
333.64
334.1
334.506
334.836
335.07
335.191
335.191
335.07
334.836
334.506
334.1
333.64
333.15
332.651
332.177
331.807
324.83
325.114
325.482
325.869
326.249
326.606
326.922
327.178
327.36
327.454
327.454
327.36
327.178
326.922
326.606
326.249
325.869
325.482
325.114
324.83
317.792
317.992
318.254
318.53
318.802
319.056
319.281
319.464
319.594
319.661
319.661
319.594
319.464
319.281
319.056
318.802
318.53
318.254
317.992
317.792
310.706
310.826
310.983
311.148
311.311
311.464
311.599
311.709
311.787
311.827
311.827
311.787
311.709
311.599
311.464
311.311
311.148
310.983
310.826
310.706
303.592
303.632
303.685
303.74
303.795
303.846
303.891
303.928
303.954
303.967
303.967
303.954
303.928
303.891
303.846
303.795
303.74
303.685
303.632
303.592
353.567
354.176
354.918
355.685
356.434
357.132
357.747
358.244
358.596
358.778
358.778
358.596
358.244
357.747
357.132
356.434
355.685
354.918
354.176
353.567
346.669
347.184
347.822
348.485
349.133
349.736
350.267
350.698
351.001
351.159
351.159
351.001
350.698
350.267
349.736
349.133
348.485
347.822
347.184
346.669
339.677
340.103
340.64
341.199
341.746
342.255
342.704
343.067
343.323
343.456
343.456
343.323
343.067
342.704
342.255
341.746
341.199
340.64
340.103
339.677
332.598
332.94
333.377
333.834
334.28
334.697
335.063
335.36
335.569
335.677
335.677
335.569
335.36
335.063
334.697
334.28
333.834
333.377
332.94
332.598
325.445
325.707
326.045
326.4
326.746
327.07
327.354
327.585
327.747
327.831
327.831
327.747
327.585
327.354
327.07
326.746
326.4
326.045
325.707
325.445
318.229
318.415
318.656
318.909
319.156
319.387
319.59
319.754
319.87
319.93
319.93
319.87
319.754
319.59
319.387
319.156
318.909
318.656
318.415
318.229
310.969
311.079
311.224
311.375
311.524
311.663
311.784
311.883
311.953
311.989
311.989
311.953
311.883
311.784
311.663
311.524
311.375
311.224
311.079
310.969
303.68
303.717
303.765
303.816
303.866
303.912
303.953
303.986
304.01
304.022
304.022
304.01
303.986
303.953
303.912
303.866
303.816
303.765
303.717
303.68
355.03
355.593
356.273
356.974
357.654
358.285
358.838
359.284
359.597
359.759
359.759
359.597
359.284
358.838
358.285
357.654
356.974
356.273
355.593
355.03
347.932
348.407
348.993
349.598
350.186
350.732
351.21
351.595
351.867
352.007
352.007
351.867
351.595
351.21
350.732
350.186
349.598
348.993
348.407
347.932
340.741
341.134
341.627
342.138
342.635
343.095
343.499
343.824
344.053
344.172
344.172
344.053
343.824
343.499
343.095
342.635
342.138
341.627
341.134
340.741
333.466
333.782
334.183
334.6
335.006
335.382
335.712
335.978
336.165
336.261
336.261
336.165
335.978
335.712
335.382
335.006
334.6
334.183
333.782
333.466
326.118
326.36
326.671
326.994
327.31
327.602
327.858
328.064
328.21
328.285
328.285
328.21
328.064
327.858
327.602
327.31
326.994
326.671
326.36
326.118
318.71
318.881
319.102
319.333
319.558
319.767
319.949
320.097
320.2
320.254
320.254
320.2
320.097
319.949
319.767
319.558
319.333
319.102
318.881
318.71
311.257
311.359
311.491
311.63
311.765
311.89
312
312.088
312.151
312.183
312.183
312.151
312.088
312
311.89
311.765
311.63
311.491
311.359
311.257
303.777
303.811
303.855
303.901
303.947
303.989
304.025
304.055
304.076
304.087
304.087
304.076
304.055
304.025
303.989
303.947
303.901
303.855
303.811
303.777
356.62
357.138
357.761
358.4
359.017
359.586
360.082
360.481
360.761
360.905
360.905
360.761
360.481
360.082
359.586
359.017
358.4
357.761
357.138
356.62
349.303
349.74
350.277
350.829
351.362
351.855
352.284
352.629
352.871
352.996
352.996
352.871
352.629
352.284
351.855
351.362
350.829
350.277
349.74
349.303
341.896
342.258
342.709
343.175
343.626
344.042
344.404
344.695
344.9
345.005
345.005
344.9
344.695
344.404
344.042
343.626
343.175
342.709
342.258
341.896
334.408
334.698
335.066
335.446
335.814
336.154
336.45
336.688
336.855
336.941
336.941
336.855
336.688
336.45
336.154
335.814
335.446
335.066
334.698
334.408
326.848
327.071
327.355
327.651
327.937
328.2
328.431
328.615
328.745
328.812
328.812
328.745
328.615
328.431
328.2
327.937
327.651
327.355
327.071
326.848
319.23
319.387
319.59
319.801
320.005
320.193
320.358
320.49
320.582
320.63
320.63
320.582
320.49
320.358
320.193
320.005
319.801
319.59
319.387
319.23
311.569
311.663
311.784
311.911
312.033
312.146
312.245
312.324
312.38
312.408
312.408
312.38
312.324
312.245
312.146
312.033
311.911
311.784
311.663
311.569
303.881
303.912
303.953
303.995
304.037
304.074
304.107
304.134
304.153
304.162
304.162
304.153
304.134
304.107
304.074
304.037
303.995
303.953
303.912
303.881
358.322
358.797
359.368
359.95
360.509
361.022
361.468
361.824
362.074
362.203
362.203
362.074
361.824
361.468
361.022
360.509
359.95
359.368
358.797
358.322
350.768
351.169
351.661
352.163
352.647
353.091
353.477
353.785
354.001
354.113
354.113
354.001
353.785
353.477
353.091
352.647
352.163
351.661
351.169
350.768
343.128
343.46
343.874
344.298
344.707
345.082
345.408
345.669
345.851
345.945
345.945
345.851
345.669
345.408
345.082
344.707
344.298
343.874
343.46
343.128
335.411
335.677
336.014
336.361
336.694
337.001
337.267
337.48
337.629
337.706
337.706
337.629
337.48
337.267
337.001
336.694
336.361
336.014
335.677
335.411
327.625
327.829
328.09
328.359
328.619
328.857
329.064
329.229
329.345
329.405
329.405
329.345
329.229
329.064
328.857
328.619
328.359
328.09
327.829
327.625
319.784
319.928
320.114
320.306
320.491
320.661
320.809
320.927
321.009
321.052
321.052
321.009
320.927
320.809
320.661
320.491
320.306
320.114
319.928
319.784
311.901
311.987
312.098
312.213
312.324
312.427
312.515
312.586
312.636
312.661
312.661
312.636
312.586
312.515
312.427
312.324
312.213
312.098
311.987
311.901
303.992
304.021
304.058
304.097
304.134
304.168
304.198
304.222
304.238
304.247
304.247
304.238
304.222
304.198
304.168
304.134
304.097
304.058
304.021
303.992
360.092
360.529
361.052
361.582
362.09
362.553
362.954
363.274
363.498
363.613
363.613
363.498
363.274
362.954
362.553
362.09
361.582
361.052
360.529
360.092
352.285
352.654
353.104
353.563
354.002
354.404
354.751
355.028
355.221
355.321
355.321
355.221
355.028
354.751
354.404
354.002
353.563
353.104
352.654
352.285
344.399
344.705
345.084
345.471
345.842
346.182
346.475
346.709
346.873
346.957
346.957
346.873
346.709
346.475
346.182
345.842
345.471
345.084
344.705
344.399
336.442
336.687
336.996
337.312
337.616
337.893
338.133
338.324
338.458
338.527
338.527
338.458
338.324
338.133
337.893
337.616
337.312
336.996
336.687
336.442
328.421
328.609
328.849
329.094
329.33
329.546
329.732
329.881
329.985
330.038
330.038
329.985
329.881
329.732
329.546
329.33
329.094
328.849
328.609
328.421
320.349
320.482
320.653
320.828
320.997
321.151
321.284
321.39
321.464
321.502
321.502
321.464
321.39
321.284
321.151
320.997
320.828
320.653
320.482
320.349
312.239
312.318
312.421
312.526
312.627
312.72
312.799
312.863
312.908
312.931
312.931
312.908
312.863
312.799
312.72
312.627
312.526
312.421
312.318
312.239
304.105
304.132
304.166
304.201
304.235
304.266
304.293
304.314
304.329
304.337
304.337
304.329
304.314
304.293
304.266
304.235
304.201
304.166
304.132
304.105
361.815
362.219
362.701
363.188
363.652
364.074
364.438
364.728
364.929
365.033
365.033
364.929
364.728
364.438
364.074
363.652
363.188
362.701
362.219
361.815
353.744
354.086
354.502
354.923
355.325
355.691
356.007
356.258
356.432
356.522
356.522
356.432
356.258
356.007
355.691
355.325
354.923
354.502
354.086
353.744
345.609
345.892
346.242
346.598
346.939
347.248
347.515
347.728
347.876
347.952
347.952
347.876
347.728
347.515
347.248
346.939
346.598
346.242
345.892
345.609
337.414
337.641
337.927
338.218
338.497
338.75
338.969
339.142
339.263
339.326
339.326
339.263
339.142
338.969
338.75
338.497
338.218
337.927
337.641
337.414
329.166
329.341
329.562
329.789
330.005
330.203
330.373
330.508
330.602
330.65
330.65
330.602
330.508
330.373
330.203
330.005
329.789
329.562
329.341
329.166
320.876
320.999
321.157
321.319
321.474
321.615
321.736
321.833
321.9
321.935
321.935
321.9
321.833
321.736
321.615
321.474
321.319
321.157
320.999
320.876
312.553
312.627
312.721
312.818
312.911
312.996
313.069
313.127
313.168
313.188
313.188
313.168
313.127
313.069
312.996
312.911
312.818
312.721
312.627
312.553
304.21
304.235
304.267
304.299
304.33
304.359
304.383
304.403
304.416
304.423
304.423
304.416
304.403
304.383
304.359
304.33
304.299
304.267
304.235
304.21
363.184
363.563
364.016
364.473
364.906
365.3
365.638
365.906
366.093
366.189
366.189
366.093
365.906
365.638
365.3
364.906
364.473
364.016
363.563
363.184
354.858
355.18
355.572
355.969
356.346
356.688
356.982
357.216
357.378
357.462
357.462
357.378
357.216
356.982
356.688
356.346
355.969
355.572
355.18
354.858
346.503
346.771
347.102
347.438
347.758
348.048
348.298
348.496
348.634
348.705
348.705
348.634
348.496
348.298
348.048
347.758
347.438
347.102
346.771
346.503
338.115
338.33
338.601
338.876
339.138
339.376
339.581
339.744
339.857
339.915
339.915
339.857
339.744
339.581
339.376
339.138
338.876
338.601
338.33
338.115
329.694
329.859
330.069
330.283
330.488
330.673
330.833
330.96
331.048
331.093
331.093
331.048
330.96
330.833
330.673
330.488
330.283
330.069
329.859
329.694
321.243
321.36
321.51
321.663
321.81
321.942
322.057
322.147
322.21
322.243
322.243
322.21
322.147
322.057
321.942
321.81
321.663
321.51
321.36
321.243
312.77
312.84
312.93
313.022
313.11
313.19
313.258
313.313
313.351
313.37
313.37
313.351
313.313
313.258
313.19
313.11
313.022
312.93
312.84
312.77
304.282
304.306
304.336
304.367
304.396
304.423
304.446
304.464
304.477
304.483
304.483
304.477
304.464
304.446
304.423
304.396
304.367
304.336
304.306
304.282
)
;

boundaryField
{
    hotSide
    {
        type            fixedGradient;
        gradient        nonuniform List<scalar> 
400
(
448.692
449.599
451.423
454.19
457.934
462.697
468.529
475.483
483.615
492.98
503.632
515.621
528.993
543.792
560.052
577.805
597.077
617.89
640.261
664.201
463.889
464.674
466.263
468.686
471.989
476.23
481.472
487.785
495.241
503.911
513.86
525.153
537.844
551.982
567.612
584.767
603.476
623.762
645.643
669.13
480.334
480.976
482.283
484.298
487.08
490.705
495.257
500.826
507.504
515.377
524.53
535.039
546.969
560.379
575.317
591.822
609.924
629.648
651.009
674.02
497.756
498.232
499.211
500.752
502.933
505.852
509.618
514.344
520.146
527.133
535.406
545.056
556.16
568.786
582.987
598.804
616.271
635.409
656.235
678.758
515.669
515.956
516.568
517.579
519.091
521.228
524.127
527.933
532.786
538.819
546.154
554.897
565.137
576.949
590.391
605.507
622.331
640.882
661.175
683.214
533.325
533.41
533.63
534.077
534.878
536.19
538.182
541.03
544.903
549.96
556.343
564.173
573.55
584.557
597.254
611.688
627.889
645.878
665.662
687.246
549.712
549.597
549.426
549.311
549.409
549.909
551.014
552.93
555.859
559.982
565.46
572.429
581
591.259
603.27
617.08
632.717
650.197
669.527
690.704
563.622
563.325
562.801
562.182
561.652
561.428
561.747
562.844
564.945
568.256
572.953
579.184
587.068
596.695
608.13
621.418
636.586
653.647
672.603
693.447
573.8
573.364
572.57
571.567
570.559
569.787
569.511
569.992
571.475
574.182
578.301
583.989
591.369
600.534
611.551
624.463
639.294
656.055
674.744
695.352
579.194
578.682
577.741
576.529
575.26
574.191
573.595
573.744
574.896
577.279
581.089
586.488
593.602
602.524
613.32
626.034
640.689
657.293
675.843
696.329
579.194
578.682
577.741
576.529
575.26
574.191
573.595
573.744
574.896
577.279
581.089
586.488
593.602
602.524
613.32
626.034
640.689
657.293
675.843
696.329
573.8
573.364
572.57
571.567
570.559
569.787
569.511
569.992
571.475
574.182
578.301
583.989
591.369
600.534
611.551
624.463
639.294
656.055
674.744
695.352
563.622
563.325
562.801
562.182
561.652
561.428
561.747
562.844
564.945
568.256
572.953
579.184
587.068
596.695
608.13
621.418
636.586
653.647
672.603
693.447
549.712
549.597
549.426
549.311
549.409
549.909
551.014
552.93
555.859
559.982
565.46
572.429
581
591.259
603.27
617.08
632.717
650.197
669.527
690.704
533.325
533.41
533.63
534.077
534.878
536.19
538.182
541.03
544.903
549.96
556.343
564.173
573.55
584.557
597.254
611.688
627.889
645.878
665.662
687.246
515.669
515.956
516.568
517.579
519.091
521.228
524.127
527.933
532.786
538.819
546.154
554.897
565.137
576.949
590.391
605.507
622.331
640.882
661.175
683.214
497.756
498.232
499.211
500.752
502.933
505.852
509.618
514.344
520.146
527.133
535.406
545.056
556.16
568.786
582.987
598.804
616.271
635.409
656.235
678.758
480.334
480.976
482.283
484.298
487.08
490.705
495.257
500.826
507.504
515.377
524.53
535.039
546.969
560.379
575.317
591.822
609.924
629.648
651.009
674.02
463.889
464.674
466.263
468.686
471.989
476.23
481.472
487.785
495.241
503.911
513.86
525.153
537.844
551.982
567.612
584.767
603.476
623.762
645.643
669.13
448.692
449.599
451.423
454.19
457.934
462.697
468.529
475.483
483.615
492.98
503.632
515.621
528.993
543.792
560.052
577.805
597.077
617.89
640.261
664.201
)
;
    }
    coldSide
    {
        type            mixed;
        refValue        uniform 300;
        refGradient     uniform 0;
        valueFraction   uniform 0.991591;
        source          uniform 0;
        value           nonuniform List<scalar> 
400
(
300.026
300.026
300.026
300.026
300.027
300.027
300.027
300.028
300.028
300.028
300.029
300.03
300.03
300.031
300.032
300.033
300.034
300.035
300.035
300.036
300.027
300.027
300.027
300.027
300.027
300.027
300.028
300.028
300.028
300.029
300.029
300.03
300.031
300.031
300.032
300.033
300.034
300.035
300.036
300.036
300.028