/*--------------------------------*- C++ -*----------------------------------*\
| =========                 |                                                 |
| \\      /  F ield         | OpenFOAM: The Open Source CFD Toolbox           |
|  \\    /   O peration     | Version:  2212                                  |
|   \\  /    A nd           | Website:  www.openfoam.com                      |
|    \\/     M anipulation  |                                                 |
\*---------------------------------------------------------------------------*/
FoamFile
{
    version     2.0;
    format      ascii;
    arch        "LSB;label=32;scalar=64";
    class       volScalarField;
    location    "0";
    object      Ttrue;
}
// * * * * * * * * * * * * * * * * * * * * * * * * * * * * * * * * * * * * * //

dimensions      [0 0 0 1 0 0 0];

internalField   nonuniform List<scalar> 
3200
(
344.751
344.998
345.314
345.659
346.014
346.362
346.683
346.955
347.152
347.257
347.257
347.152
346.955
346.683
346.362
346.014
345.659
345.314
344.998
344.751
338.844
339.053
339.326
339.624
339.931
340.232
340.51
340.745
340.916
341.006
341.006
340.916
340.745
340.51
340.232
339.931
339.624
339.326
339.053
338.844
332.912
333.086
333.316
333.568
333.827
334.082
334.316
334.514
334.658
334.734
334.734
334.658
334.514
334.316
334.082
333.827
333.568
333.316
333.086
332.912
326.96
327.1
327.287
327.493
327.705
327.913
328.105
328.266
328.384
328.446
328.446
328.384
328.266
328.105
327.913
327.705
327.493
327.287
327.1
326.96
320.991
321.098
321.244
321.404
321.568
321.73
321.879
322.004
322.096
322.144
322.144
322.096
322.004
321.879
321.73
321.568
321.404
321.244
321.098
320.991
315.01
315.086
315.189
315.303
315.421
315.537
315.643
315.732
315.797
315.832
315.832
315.797
315.732
315.643
315.537
315.421
315.303
315.189
315.086
315.01
309.019
309.065
309.127
309.195
309.266
309.335
309.399
309.453
309.492
309.513
309.513
309.492
309.453
309.399
309.335
309.266
309.195
309.127
309.065
309.019
303.024
303.039
303.06
303.083
303.107
303.13
303.151
303.169
303.182
303.189
303.189
303.182
303.169
303.151
303.13
303.107
303.083
303.06
303.039
303.024
344.938
345.184
345.497
345.838
346.19
346.534
346.852
347.12
347.315
347.418
347.418
347.315
347.12
346.852
346.534
346.19
345.838
345.497
345.184
344.938
339.007
339.215
339.485
339.78
340.084
340.382
340.657
340.888
341.057
341.146
341.146
341.057
340.888
340.657
340.382
340.084
339.78
339.485
339.215
339.007
333.05
333.222
333.45
333.7
333.956
334.208
334.44
334.636
334.778
334.853
334.853
334.778
334.636
334.44
334.208
333.956
333.7
333.45
333.222
333.05
327.073
327.211
327.397
327.601
327.811
328.017
328.206
328.366
328.482
328.543
328.543
328.482
328.366
328.206
328.017
327.811
327.601
327.397
327.211
327.073
321.079
321.185
321.329
321.488
321.651
321.811
321.958
322.082
322.172
322.22
322.22
322.172
322.082
321.958
321.811
321.651
321.488
321.329
321.185
321.079
315.072
315.148
315.25
315.364
315.48
315.594
315.699
315.788
315.852
315.886
315.886
315.852
315.788
315.699
315.594
315.48
315.364
315.25
315.148
315.072
309.057
309.102
309.164
309.232
309.302
309.37
309.433
309.486
309.525
309.545
309.545
309.525
309.486
309.433
309.37
309.302
309.232
309.164
309.102
309.057
303.037
303.052
303.072
303.095
303.119
303.141
303.163
303.18
303.193
303.2
303.2
303.193
303.18
303.163
303.141
303.119
303.095
303.072
303.052
303.037
345.314
345.555
345.863
346.198
346.542
346.879
347.19
347.451
347.641
347.742
347.742
347.641
347.451
347.19
346.879
346.542
346.198
345.863
345.555
345.314
339.332
339.537
339.802
340.092
340.39
340.682
340.95
341.176
341.34
341.427
341.427
341.34
341.176
340.95
340.682
340.39
340.092
339.802
339.537
339.332
333.326
333.495
333.719
333.964
334.216
334.462
334.689
334.879
335.018
335.091
335.091
335.018
334.879
334.689
334.462
334.216
333.964
333.719
333.495
333.326
327.298
327.435
327.617
327.817
328.023
328.225
328.41
328.565
328.679
328.738
328.738
328.679
328.565
328.41
328.225
328.023
327.817
327.617
327.435
327.298
321.254
321.359
321.501
321.656
321.816
321.973
322.117
322.237
322.325
322.372
322.372
322.325
322.237
322.117
321.973
321.816
321.656
321.501
321.359
321.254
315.198
315.272
315.373
315.484
315.598
315.71
315.813
315.899
315.962
315.995
315.995
315.962
315.899
315.813
315.71
315.598
315.484
315.373
315.272
315.198
309.133
309.177
309.237
309.304
309.373
309.44
309.501
309.553
309.591
309.611
309.611
309.591
309.553
309.501
309.44
309.373
309.304
309.237
309.177
309.133
303.062
303.077
303.097
303.119
303.142
303.165
303.185
303.203
303.215
303.222
303.222
303.215
303.203
303.185
303.165
303.142
303.119
303.097
303.077
303.062
345.877
346.113
346.414
346.74
347.073
347.4
347.699
347.951
348.134
348.231
348.231
348.134
347.951
347.699
347.4
347.073
346.74
346.414
346.113
345.877
339.821
340.021
340.28
340.562
340.851
341.133
341.392
341.61
341.768
341.852
341.852
341.768
341.61
341.392
341.133
340.851
340.562
340.28
340.021
339.821
333.74
333.905
334.124
334.362
334.606
334.845
335.063
335.247
335.381
335.451
335.451
335.381
335.247
335.063
334.845
334.606
334.362
334.124
333.905
333.74
327.637
327.771
327.948
328.143
328.343
328.538
328.717
328.867
328.976
329.033
329.033
328.976
328.867
328.717
328.538
328.343
328.143
327.948
327.771
327.637
321.518
321.621
321.759
321.91
322.065
322.217
322.356
322.472
322.557
322.601
322.601
322.557
322.472
322.356
322.217
322.065
321.91
321.759
321.621
321.518
315.386
315.459
315.557
315.665
315.776
315.884
315.984
316.067
316.127
316.159
316.159
316.127
316.067
315.984
315.884
315.776
315.665
315.557
315.459
315.386
309.246
309.289
309.348
309.413
309.48
309.544
309.604
309.654
309.69
309.709
309.709
309.69
309.654
309.604
309.544
309.48
309.413
309.348
309.289
309.246
303.1
303.114
303.134
303.156
303.178
303.2
303.22
303.237
303.249
303.255
303.255
303.249
303.237
303.22
303.2
303.178
303.156
303.134
303.114
303.1
346.63
346.859
347.149
347.464
347.785
348.097
348.384
348.624
348.798
348.89
348.89
348.798
348.624
348.384
348.097
347.785
347.464
347.149
346.859
346.63
340.474
340.668
340.918
341.19
341.468
341.739
341.986
342.194
342.344
342.424
342.424
342.344
342.194
341.986
341.739
341.468
341.19
340.918
340.668
340.474
334.292
334.453
334.664
334.894
335.129
335.357
335.567
335.742
335.869
335.936
335.936
335.869
335.742
335.567
335.357
335.129
334.894
334.664
334.453
334.292
328.09
328.219
328.391
328.579
328.771
328.958
329.129
329.272
329.376
329.43
329.43
329.376
329.272
329.129
328.958
328.771
328.579
328.391
328.219
328.09
321.87
321.97
322.103
322.249
322.398
322.544
322.676
322.788
322.868
322.911
322.911
322.868
322.788
322.676
322.544
322.398
322.249
322.103
321.97
321.87
315.638
315.708
315.804
315.908
316.014
316.118
316.213
316.293
316.35
316.38
316.38
316.35
316.293
316.213
316.118
316.014
315.908
315.804
315.708
315.638
309.397
309.439
309.496
309.559
309.623
309.685
309.742
309.79
309.824
309.842
309.842
309.824
309.79
309.742
309.685
309.623
309.559
309.496
309.439
309.397
303.151
303.165
303.184
303.205
303.226
303.247
303.266
303.282
303.294
303.3
303.3
303.294
303.282
303.266
303.247
303.226
303.205
303.184
303.165
303.151
347.573
347.793
348.072
348.372
348.678
348.975
349.246
349.473
349.637
349.723
349.723
349.637
349.473
349.246
348.975
348.678
348.372
348.072
347.793
347.573
341.292
341.478
341.719
341.979
342.243
342.5
342.735
342.931
343.072
343.147
343.147
343.072
342.931
342.735
342.5
342.243
341.979
341.719
341.478
341.292
334.985
335.139
335.342
335.562
335.785
336.003
336.201
336.366
336.486
336.549
336.549
336.486
336.366
336.201
336.003
335.785
335.562
335.342
335.139
334.985
328.656
328.781
328.946
329.126
329.309
329.486
329.648
329.783
329.881
329.932
329.932
329.881
329.783
329.648
329.486
329.309
329.126
328.946
328.781
328.656
322.311
322.407
322.535
322.675
322.817
322.955
323.081
323.186
323.262
323.302
323.302
323.262
323.186
323.081
322.955
322.817
322.675
322.535
322.407
322.311
315.953
316.021
316.112
316.212
316.314
316.412
316.502
316.577
316.631
316.66
316.66
316.631
316.577
316.502
316.412
316.314
316.212
316.112
316.021
315.953
309.586
309.627
309.682
309.741
309.802
309.862
309.916
309.961
309.993
310.01
310.01
309.993
309.961
309.916
309.862
309.802
309.741
309.682
309.627
309.586
303.214
303.228
303.246
303.266
303.286
303.306
303.324
303.339
303.35
303.356
303.356
303.35
303.339
303.324
303.306
303.286
303.266
303.246
303.228
303.214
348.707
348.917
349.183
349.468
349.757
350.037
350.291
350.503
350.655
350.735
350.735
350.655
350.503
350.291
350.037
349.757
349.468
349.183
348.917
348.707
342.275
342.453
342.682
342.929
343.18
343.421
343.641
343.824
343.957
344.026
344.026
343.957
343.824
343.641
343.421
343.18
342.929
342.682
342.453
342.275
335.817
335.965
336.158
336.367
336.578
336.783
336.969
337.123
337.235
337.293
337.293
337.235
337.123
336.969
336.783
336.578
336.367
336.158
335.965
335.817
329.338
329.457
329.614
329.785
329.958
330.125
330.277
330.404
330.495
330.542
330.542
330.495
330.404
330.277
330.125
329.958
329.785
329.614
329.457
329.338
322.842
322.933
323.055
323.188
323.322
323.452
323.57
323.669
323.739
323.777
323.777
323.739
323.669
323.57
323.452
323.322
323.188
323.055
322.933
322.842
316.333
316.397
316.484
316.579
316.675
316.768
316.852
316.922
316.973
316.999
316.999
316.973
316.922
316.852
316.768
316.675
316.579
316.484
316.397
316.333
309.814
309.853
309.905
309.962
310.02
310.075
310.126
310.168
310.198
310.214
310.214
310.198
310.168
310.126
310.075
310.02
309.962
309.905
309.853
309.814
303.29
303.303
303.321
303.34
303.359
303.378
303.395
303.409
303.419
303.424
303.424
303.419
303.409
303.395
303.378
303.359
303.34
303.321
303.303
303.29
350.033
350.233
350.484
350.753
351.024
351.285
351.521
351.718
351.859
351.933
351.933
351.859
351.718
351.521
351.285
351.024
350.753
350.484
350.233
350.033
343.425
343.594
343.811
344.044
344.279
344.505
344.709
344.879
345.001
345.065
345.065
345.001
344.879
344.709
344.505
344.279
344.044
343.811
343.594
343.425
336.791
336.931
337.114
337.311
337.509
337.7
337.873
338.017
338.12
338.174
338.174
338.12
338.017
337.873
337.7
337.509
337.311
337.114
336.931
336.791
330.135
330.248
330.397
330.558
330.72
330.876
331.018
331.135
331.219
331.263
331.263
331.219
331.135
331.018
330.876
330.72
330.558
330.397
330.248
330.135
323.462
323.549
323.664
323.789
323.916
324.037
324.147
324.238
324.304
324.338
324.338
324.304
324.238
324.147
324.037
323.916
323.789
323.664
323.549
323.462
316.776
316.837
316.92
317.009
317.099
317.186
317.264
317.33
317.376
317.401
317.401
317.376
317.33
317.264
317.186
317.099
317.009
316.92
316.837
316.776
310.081
310.117
310.167
310.22
310.274
310.327
310.374
310.413
310.441
310.455
310.455
310.441
310.413
310.374
310.327
310.274
310.22
310.167
310.117
310.081
303.38
303.392
303.409
303.427
303.445
303.462
303.478
303.491
303.5
303.505
303.505
303.5
303.491
303.478
303.462
303.445
303.427
303.409
303.392
303.38
351.552
351.741
351.978
352.229
352.482
352.724
352.942
353.122
353.252
353.319
353.319
353.252
353.122
352.942
352.724
352.482
352.229
351.978
351.741
351.552
344.743
344.903
345.107
345.324
345.543
345.753
345.942
346.098
346.21
346.268
346.268
346.21
346.098
345.942
345.753
345.543
345.324
345.107
344.903
344.743
337.906
338.039
338.211
338.395
338.58
338.757
338.917
339.049
339.144
339.193
339.193
339.144
339.049
338.917
338.757
338.58
338.395
338.211
338.039
337.906
331.048
331.155
331.295
331.446
331.597
331.742
331.873
331.981
332.058
332.098
332.098
332.058
331.981
331.873
331.742
331.597
331.446
331.295
331.155
331.048
324.173
324.255
324.363
324.481
324.598
324.711
324.813
324.896
324.956
324.988
324.988
324.956
324.896
324.813
324.711
324.598
324.481
324.363
324.255
324.173
317.284
317.342
317.419
317.503
317.587
317.668
317.74
317.8
317.843
317.865
317.865
317.843
317.8
317.74
317.668
317.587
317.503
317.419
317.342
317.284
310.386
310.42
310.467
310.517
310.568
310.616
310.66
310.695
310.721
310.735
310.735
310.721
310.695
310.66
310.616
310.568
310.517
310.467
310.42
310.386
303.482
303.494
303.509
303.526
303.543
303.559
303.574
303.586
303.594
303.599
303.599
303.594
303.586
303.574
303.559
303.543
303.526
303.509
303.494
303.482
353.266
353.443
353.665
353.899
354.133
354.356
354.556
354.721
354.838
354.9
354.9
354.838
354.721
354.556
354.356
354.133
353.899
353.665
353.443
353.266
346.229
346.379
346.57
346.773
346.976
347.169
347.342
347.485
347.586
347.64
347.64
347.586
347.485
347.342
347.169
346.976
346.773
346.57
346.379
346.229
339.165
339.289
339.45
339.622
339.793
339.957
340.103
340.224
340.31
340.355
340.355
340.31
340.224
340.103
339.957
339.793
339.622
339.45
339.289
339.165
332.079
332.179
332.31
332.45
332.591
332.724
332.844
332.943
333.013
333.05
333.05
333.013
332.943
332.844
332.724
332.591
332.45
332.31
332.179
332.079
324.975
325.052
325.153
325.262
325.371
325.475
325.568
325.645
325.7
325.728
325.728
325.7
325.645
325.568
325.475
325.371
325.262
325.153
325.052
324.975
317.857
317.912
317.984
318.062
318.14
318.214
318.281
318.335
318.375
318.395
318.395
318.375
318.335
318.281
318.214
318.14
318.062
317.984
317.912
317.857
310.73
310.763
310.806
310.853
310.9
310.944
310.984
311.017
311.041
311.053
311.053
311.041
311.017
310.984
310.944
310.9
310.853
310.806
310.763
310.73
303.597
303.608
303.623
303.639
303.654
303.669
303.683
303.694
303.702
303.706
303.706
303.702
303.694
303.683
303.669
303.654
303.639
303.623
303.608
303.597
355.175
355.341
355.547
355.764
355.98
356.184
356.366
356.516
356.622
356.678
356.678
356.622
356.516
356.366
356.184
355.98
355.764
355.547
355.341
355.175
347.885
348.025
348.203
348.391
348.578
348.755
348.913
349.042
349.134
349.182
349.182
349.134
349.042
348.913
348.755
348.578
348.391
348.203
348.025
347.885
340.567
340.683
340.833
340.992
341.15
341.3
341.433
341.543
341.621
341.662
341.662
341.621
341.543
341.433
341.3
341.15
340.992
340.833
340.683
340.567
333.226
333.32
333.442
333.572
333.701
333.824
333.933
334.023
334.087
334.12
334.12
334.087
334.023
333.933
333.824
333.701
333.572
333.442
333.32
333.226
325.868
325.94
326.034
326.135
326.236
326.331
326.416
326.486
326.536
326.561
326.561
326.536
326.486
326.416
326.331
326.236
326.135
326.034
325.94
325.868
318.495
318.546
318.614
318.686
318.758
318.826
318.887
318.937
318.972
318.99
318.99
318.972
318.937
318.887
318.826
318.758
318.686
318.614
318.546
318.495
311.114
311.144
311.185
311.228
311.271
311.312
311.348
311.378
311.4
311.411
311.411
311.4
311.378
311.348
311.312
311.271
311.228
311.185
311.144
311.114
303.726
303.736
303.75
303.764
303.779
303.792
303.805
303.815
303.822
303.826
303.826
303.822
303.815
303.805
303.792
303.779
303.764
303.75
303.736
303.726
357.28
357.435
357.626
357.826
358.024
358.21
358.375
358.511
358.607
358.657
358.657
358.607
358.511
358.375
358.21
358.024
357.826
357.626
357.435
357.28
349.71
349.841
350.006
350.179
350.351
350.512
350.656
350.773
350.856
350.899
350.899
350.856
350.773
350.656
350.512
350.351
350.179
350.006
349.841
349.71
342.113
342.221
342.36
342.507
342.652
342.788
342.91
343.009
343.079
343.115
343.115
343.079
343.009
342.91
342.788
342.652
342.507
342.36
342.221
342.113
334.492
334.579
334.692
334.812
334.931
335.043
335.142
335.223
335.28
335.31
335.31
335.28
335.223
335.142
335.043
334.931
334.812
334.692
334.579
334.492
326.853
326.92
327.007
327.101
327.193
327.28
327.357
327.42
327.465
327.488
327.488
327.465
327.42
327.357
327.28
327.193
327.101
327.007
326.92
326.853
319.199
319.247
319.31
319.376
319.442
319.504
319.559
319.604
319.636
319.653
319.653
319.636
319.604
319.559
319.504
319.442
319.376
319.31
319.247
319.199
311.537
311.565
311.602
311.642
311.682
311.719
311.752
311.78
311.799
311.809
311.809
311.799
311.78
311.752
311.719
311.682
311.642
311.602
311.565
311.537
303.868
303.877
303.89
303.903
303.917
303.929
303.94
303.949
303.956
303.959
303.959
303.956
303.949
303.94
303.929
303.917
303.903
303.89
303.877
303.868
359.582
359.725
359.902
360.085
360.266
360.435
360.585
360.707
360.793
360.838
360.838
360.793
360.707
360.585
360.435
360.266
360.085
359.902
359.725
359.582
351.706
351.828
351.98
352.139
352.296
352.443
352.572
352.678
352.752
352.791
352.791
352.752
352.678
352.572
352.443
352.296
352.139
351.98
351.828
351.706
343.803
343.903
344.031
344.166
344.299
344.423
344.533
344.622
344.685
344.718
344.718
344.685
344.622
344.533
344.423
344.299
344.166
344.031
343.903
343.803
335.875
335.956
336.061
336.171
336.279
336.381
336.471
336.544
336.595
336.622
336.622
336.595
336.544
336.471
336.381
336.279
336.171
336.061
335.956
335.875
327.929
327.991
328.072
328.158
328.242
328.321
328.391
328.448
328.488
328.509
328.509
328.488
328.448
328.391
328.321
328.242
328.158
328.072
327.991
327.929
319.969
320.013
320.071
320.132
320.192
320.249
320.299
320.339
320.368
320.383
320.383
320.368
320.339
320.299
320.249
320.192
320.132
320.071
320.013
319.969
311.999
312.025
312.06
312.096
312.133
312.167
312.197
312.221
312.238
312.247
312.247
312.238
312.221
312.197
312.167
312.133
312.096
312.06
312.025
311.999
304.023
304.032
304.043
304.056
304.068
304.079
304.089
304.097
304.103
304.106
304.106
304.103
304.097
304.089
304.079
304.068
304.056
304.043
304.032
304.023
362.079
362.211
362.374
362.542
362.706
362.86
362.995
363.104
363.181
363.221
363.221
363.181
363.104
362.995
362.86
362.706
362.542
362.374
362.211
362.079
353.871
353.984
354.124
354.27
354.412
354.545
354.662
354.757
354.824
354.858
354.858
354.824
354.757
354.662
354.545
354.412
354.27
354.124
353.984
353.871
345.635
345.728
345.846
345.97
346.09
346.203
346.302
346.382
346.439
346.468
346.468
346.439
346.382
346.302
346.203
346.09
345.97
345.846
345.728
345.635
337.375
337.45
337.546
337.647
337.746
337.838
337.919
337.985
338.031
338.055
338.055
338.031
337.985
337.919
337.838
337.746
337.647
337.546
337.45
337.375
329.096
329.154
329.229
329.307
329.384
329.456
329.519
329.57
329.606
329.624
329.624
329.606
329.57
329.519
329.456
329.384
329.307
329.229
329.154
329.096
320.803
320.844
320.897
320.953
321.008
321.059
321.104
321.141
321.167
321.18
321.18
321.167
321.141
321.104
321.059
321.008
320.953
320.897
320.844
320.803
312.5
312.524
312.556
312.59
312.623
312.654
312.681
312.703
312.718
312.726
312.726
312.718
312.703
312.681
312.654
312.623
312.59
312.556
312.524
312.5
304.191
304.199
304.21
304.221
304.232
304.242
304.251
304.259
304.264
304.267
304.267
304.264
304.259
304.251
304.242
304.232
304.221
304.21
304.199
304.191
364.766
364.888
365.037
365.191
365.341
365.479
365.601
365.699
365.767
365.803
365.803
365.767
365.699
365.601
365.479
365.341
365.191
365.037
364.888
364.766
356.201
356.305
356.433
356.566
356.696
356.816
356.921
357.006
357.066
357.097
357.097
357.066
357.006
356.921
356.816
356.696
356.566
356.433
356.305
356.201
347.607
347.693
347.801
347.914
348.023
348.125
348.214
348.286
348.337
348.363
348.363
348.337
348.286
348.214
348.125
348.023
347.914
347.801
347.693
347.607
338.989
339.058
339.146
339.238
339.328
339.411
339.484
339.543
339.584
339.606
339.606
339.584
339.543
339.484
339.411
339.328
339.238
339.146
339.058
338.989
330.352
330.405
330.473
330.545
330.615
330.679
330.736
330.782
330.814
330.831
330.831
330.814
330.782
330.736
330.679
330.615
330.545
330.473
330.405
330.352
321.7
321.738
321.787
321.838
321.888
321.934
321.975
322.007
322.03
322.042
322.042
322.03
322.007
321.975
321.934
321.888
321.838
321.787
321.738
321.7
313.039
313.061
313.09
313.121
313.151
313.179
313.203
313.223
313.237
313.244
313.244
313.237
313.223
313.203
313.179
313.151
313.121
313.09
313.061
313.039
304.371
304.379
304.389
304.399
304.409
304.418
304.427
304.433
304.438
304.44
304.44
304.438
304.433
304.427
304.418
304.409
304.399
304.389
304.379
304.371
367.632
367.745
367.881
368.022
368.157
368.282
368.391
368.479
368.54
368.572
368.572
368.54
368.479
368.391
368.282
368.157
368.022
367.881
367.745
367.632
358.684
358.779
358.897
359.018
359.136
359.244
359.339
359.415
359.468
359.496
359.496
359.468
359.415
359.339
359.244
359.136
359.018
358.897
358.779
358.684
349.706
349.785
349.885
349.987
350.087
350.179
350.259
350.323
350.368
350.392
350.392
350.368
350.323
350.259
350.179
350.087
349.987
349.885
349.785
349.706
340.706
340.769
340.85
340.934
341.016
341.091
341.157
341.209
341.246
341.265
341.265
341.246
341.209
341.157
341.091
341.016
340.934
340.85
340.769
340.706
331.687
331.736
331.798
331.864
331.927
331.986
332.037
332.078
332.106
332.121
332.121
332.106
332.078
332.037
331.986
331.927
331.864
331.798
331.736
331.687
322.654
322.688
322.733
322.78
322.825
322.867
322.904
322.933
322.953
322.964
322.964
322.953
322.933
322.904
322.867
322.825
322.78
322.733
322.688
322.654
313.612
313.632
313.659
313.687
313.714
313.739
313.761
313.779
313.791
313.798
313.798
313.791
313.779
313.761
313.739
313.714
313.687
313.659
313.632
313.612
304.563
304.57
304.579
304.589
304.598
304.606
304.614
304.619
304.624
304.626
304.626
304.624
304.619
304.614
304.606
304.598
304.589
304.579
304.57
304.563
370.646
370.749
370.874
371.002
371.125
371.238
371.336
371.414
371.469
371.497
371.497
371.469
371.414
371.336
371.238
371.125
371.002
370.874
370.749
370.646
361.289
361.377
361.485
361.595
361.702
361.8
361.885
361.953
362
362.025
362.025
362
361.953
361.885
361.8
361.702
361.595
361.485
361.377
361.289
351.906
351.979
352.07
352.163
352.254
352.337
352.408
352.466
352.506
352.527
352.527
352.506
352.466
352.408
352.337
352.254
352.163
352.07
351.979
351.906
342.502
342.561
342.635
342.711
342.785
342.853
342.912
342.959
342.992
343.009
343.009
342.992
342.959
342.912
342.853
342.785
342.711
342.635
342.561
342.502
333.082
333.127
333.184
333.244
333.301
333.354
333.4
333.437
333.463
333.476
333.476
333.463
333.437
333.4
333.354
333.301
333.244
333.184
333.127
333.082
323.65
323.681
323.722
323.765
323.806
323.844
323.877
323.903
323.921
323.931
323.931
323.921
323.903
323.877
323.844
323.806
323.765
323.722
323.681
323.65
314.209
314.228
314.253
314.278
314.303
314.326
314.345
314.361
314.372
314.378
314.378
314.372
314.361
314.345
314.326
314.303
314.278
314.253
314.228
314.209
304.764
304.77
304.778
304.787
304.795
304.803
304.809
304.815
304.818
304.82
304.82
304.818
304.815
304.809
304.803
304.795
304.787
304.778
304.77
304.764
373.728
373.823
373.938
374.054
374.166
374.268
374.356
374.427
374.476
374.501
374.501
374.476
374.427
374.356
374.268
374.166
374.054
373.938
373.823
373.728
363.942
364.023
364.122
364.223
364.319
364.408
364.484
364.546
364.588
364.61
364.61
364.588
364.546
364.484
364.408
364.319
364.223
364.122
364.023
363.942
354.137
354.204
354.287
354.373
354.455
354.53
354.594
354.646
354.682
354.701
354.701
354.682
354.646
354.594
354.53
354.455
354.373
354.287
354.204
354.137
344.317
344.371
344.439
344.509
344.576
344.638
344.691
344.733
344.763
344.778
344.778
344.763
344.733
344.691
344.638
344.576
344.509
344.439
344.371
344.317
334.488
334.529
334.582
334.636
334.688
334.736
334.778
334.811
334.834
334.846
334.846
334.834
334.811
334.778
334.736
334.688
334.636
334.582
334.529
334.488
324.651
324.68
324.717
324.756
324.794
324.828
324.858
324.881
324.898
324.906
324.906
324.898
324.881
324.858
324.828
324.794
324.756
324.717
324.68
324.651
314.809
314.826
314.849
314.872
314.895
314.915
314.933
314.947
314.957
314.962
314.962
314.957
314.947
314.933
314.915
314.895
314.872
314.849
314.826
314.809
304.964
304.97
304.978
304.986
304.993
305
305.006
305.011
305.014
305.016
305.016
305.014
305.011
305.006
305
304.993
304.986
304.978
304.97
304.964
376.681
376.769
376.875
376.982
377.084
377.177
377.257
377.321
377.365
377.388
377.388
377.365
377.321
377.257
377.177
377.084
376.982
376.875
376.769
376.681
366.453
366.527
366.619
366.712
366.8
366.881
366.951
367.006
367.045
367.065
367.065
367.045
367.006
366.951
366.881
366.8
366.712
366.619
366.527
366.453
356.225
356.287
356.364
356.443
356.518
356.587
356.646
356.693
356.726
356.743
356.743
356.726
356.693
356.646
356.587
356.518
356.443
356.364
356.287
356.225
346.001
346.051
346.114
346.179
346.24
346.297
346.345
346.384
346.411
346.424
346.424
346.411
346.384
346.345
346.297
346.24
346.179
346.114
346.051
346.001
335.782
335.82
335.869
335.919
335.968
336.011
336.049
336.079
336.1
336.111
336.111
336.1
336.079
336.049
336.011
335.968
335.919
335.869
335.82
335.782
325.567
325.594
325.629
325.665
325.699
325.731
325.758
325.779
325.794
325.802
325.802
325.794
325.779
325.758
325.731
325.699
325.665
325.629
325.594
325.567
315.356
315.372
315.393
315.415
315.435
315.454
315.47
315.483
315.492
315.497
315.497
315.492
315.483
315.47
315.454
315.435
315.415
315.393
315.372
315.356
305.147
305.153
305.16
305.167
305.174
305.18
305.186
305.19
305.193
305.195
305.195
305.193
305.19
305.186
305.18
305.174
305.167
305.16
305.153
305.147
378.987
379.07
379.169
379.269
379.365
379.452
379.526
379.585
379.626
379.647
379.647
379.626
379.585
379.526
379.452
379.365
379.269
379.169
379.07
378.987
368.339
368.41
368.496
368.583
368.666
368.742
368.807
368.859
368.895
368.913
368.913
368.895
368.859
368.807
368.742
368.666
368.583
368.496
368.41
368.339
357.747
357.805
357.878
357.952
358.023
358.087
358.143
358.187
358.217
358.233
358.233
358.217
358.187
358.143
358.087
358.023
357.952
357.878
357.805
357.747
347.198
347.245
347.305
347.366
347.424
347.477
347.523
347.559
347.584
347.597
347.597
347.584
347.559
347.523
347.477
347.424
347.366
347.305
347.245
347.198
336.685
336.721
336.767
336.815
336.86
336.902
336.937
336.965
336.985
336.995
336.995
336.985
336.965
336.937
336.902
336.86
336.815
336.767
336.721
336.685
326.198
326.223
326.257
326.291
326.323
326.353
326.378
326.398
326.412
326.42
326.42
326.412
326.398
326.378
326.353
326.323
326.291
326.257
326.223
326.198
315.729
315.744
315.764
315.785
315.804
315.822
315.837
315.85
315.858
315.862
315.862
315.858
315.85
315.837
315.822
315.804
315.785
315.764
315.744
315.729
305.271
305.276
305.283
305.29
305.297
305.303
305.308
305.312
305.315
305.316
305.316
305.315
305.312
305.308
305.303
305.297
305.29
305.283
305.276
305.271
)
;

boundaryField
{
    hotSide
    {
        type            fixedGradient;
        gradient        nonuniform List<scalar> 
400
(
470.144
472.133
476.112
482.086
490.065
500.055
512.069
526.117
542.212
560.364
580.587
602.89
627.284
653.777
682.377
713.092
745.926
780.884
817.97
857.186
473.402
475.365
479.293
485.194
493.078
502.956
514.844
528.754
544.704
562.708
582.78
604.933
629.181
655.533
683.998
714.584
747.297
782.143
819.124
858.243
476.928
478.859
482.727
488.541
496.313
506.06
517.799
531.55
547.333
565.166
585.067
607.053
631.137
657.333
685.65
716.097
748.68
783.404
820.274
859.291
480.663
482.559
486.356
492.068
499.712
509.307
520.878
534.448
550.043
567.686
587.399
609.2
633.108
659.135
687.294
717.594
750.04
784.64
821.395
860.307
484.503
486.358
490.077
495.676
503.176
512.603
523.988
537.361
552.753
570.191
589.703
611.31
635.032
660.885
688.881
719.031
751.339
785.813
822.453
861.262
488.288
490.1
493.735
499.213
506.56
515.811
527.001
540.169
555.351
572.58
591.887
613.299
636.836
662.516
690.353
720.356
752.531
786.884
823.416
862.127
491.801
493.57
497.121
502.479
509.675
518.752
529.752
542.72
557.699
574.728
593.842
615.069
638.433
663.953
691.642
721.511
753.566
787.81
824.244
862.868
494.783
496.513
499.989
505.238
512.3
521.221
532.053
544.846
559.647
576.502
595.448
616.517
639.734
665.118
692.684
722.441
754.396
788.549
824.903
863.456
496.965
498.666
502.083
507.25
514.209
523.013
533.718
546.378
561.047
577.772
596.594
617.547
640.656
665.941
693.418
723.094
754.976
789.066
825.362
863.865
498.122
499.806
503.192
508.314
515.217
523.958
534.593
547.182
561.78
578.436
597.192
618.083
641.134
666.368
693.797
723.431
755.275
789.331
825.598
864.074
498.122
499.806
503.192
508.314
515.217
523.958
534.593
547.182
561.78
578.436
597.192
618.083
641.134
666.368
693.797
723.431
755.275
789.331
825.598
864.074
496.965
498.666
502.083
507.25
514.209
523.013
533.718
546.378
561.047
577.772
596.594
617.547
640.656
665.941
693.418
723.094
754.976
789.066
825.362
863.865
494.783
496.513
499.989
505.238
512.3
521.221
532.053
544.846
559.647
576.502
595.448
616.517
639.734
665.118
692.684
722.441
754.396
788.549
824.903
863.456
491.801
493.57
497.121
502.479
509.675
518.752
529.752
542.72
557.699
574.728
593.842
615.069
638.433
663.953
691.642
721.511
753.566
787.81
824.244
862.868
488.288
490.1
493.735
499.213
506.56
515.811
527.001
540.169
555.351
572.58
591.887
613.299
636.836
662.516
690.353
720.356
752.531
786.884
823.416
862.127
484.503
486.358
490.077
495.676
503.176
512.603
523.988
537.361
552.753
570.191
589.703
611.31
635.032
660.885
688.881
719.031
751.339
785.813
822.453
861.262
480.663
482.559
486.356
492.068
499.712
509.307
520.878
534.448
550.043
567.686
587.399
609.2
633.108
659.135
687.294
717.594
750.04
784.64
821.395
860.307
476.928
478.859
482.727
488.541
496.313
506.06
517.799
531.55
547.333
565.166
585.067
607.053
631.137
657.333
685.65
716.097
748.68
783.404
820.274
859.291
473.402
475.365
479.293
485.194
493.078
502.956
514.844
528.754
544.704
562.708
582.78
604.933
629.181
655.533
683.998
714.584
747.297
782.143
819.124
858.243
470.144
472.133
476.112
482.086
490.065
500.055
512.069
526.117
542.212
560.364
580.587
602.89
627.284
653.777
682.377
713.092
745.926
780.884
817.97
857.186
)
;
    }
    coldSide
    {
        type            mixed;
        refValue        uniform 300;
        refGradient     uniform 0;
        valueFraction   uniform 0.991591;
        source          uniform 0;
        value           nonuniform List<scalar> 
400
(
300.025
300.026
300.026
300.026
300.026
300.027
300.028
300.028
300.029
300.03
300.031
300.033
300.034
300.035
300.037
300.038
300.04
300.042
300.043
300.044
300.026
300.026
300.026
300.026
300.027
300.027
300.028
300.029
300.029
300.03
300.031
300.033
300.034
300.035
300.037
300.038
300.04
300.042
300.043