/*--------------------------------*- C++ -*----------------------------------*\
| =========                 |                                                 |
| \\      /  F ield         | OpenFOAM: The Open Source CFD Toolbox           |
|  \\    /   O peration     | Version:  2212                                  |
|   \\  /    A nd           | Website:  www.openfoam.com                      |
|    \\/     M anipulation  |                                                 |
\*---------------------------------------------------------------------------*/
FoamFile
{
    version     2.0;
    format      ascii;
    arch        "LSB;label=32;scalar=64";
    class       volScalarField;
    location    "./ITHACAoutput/true/6.2";
    object      error;
}
// * * * * * * * * * * * * * * * * * * * * * * * * * * * * * * * * * * * * * //

dimensions      [0 0 0 1 0 0 0];

internalField   nonuniform List<scalar> 
3200
(
1.61385
1.19957
0.918302
0.717088
0.757936
0.815235
1.0196
1.30827
1.41895
1.62166
1.48548
1.30165
1.17105
0.779971
0.524609
0.398212
0.365945
0.507012
0.799356
1.0588
1.52389
1.16294
0.892516
0.762491
0.707719
0.854936
1.00033
1.19436
1.33096
1.49775
1.3579
1.31179
1.032
0.7736
0.520955
0.432919
0.423217
0.471299
0.751779
1.04057
1.39808
1.11733
0.909025
0.703738
0.759108
0.816641
0.937403
1.06698
1.20716
1.21858
1.21887
1.06729
0.902186
0.708626
0.510409
0.43823
0.445297
0.457484
0.704245
0.860172
1.16987
0.975266
0.793149
0.616478
0.692125
0.733637
0.766215
0.870456
0.971324
1.05603
1.0145
0.919444
0.775497
0.60021
0.454067
0.339417
0.348067
0.465137
0.54679
0.74856
0.978564
0.809852
0.641591
0.502868
0.535128
0.650523
0.690466
0.718693
0.827124
0.838068
0.857144
0.771357
0.637099
0.494625
0.423461
0.32112
0.260367
0.309671
0.438138
0.598846
0.730083
0.619523
0.478649
0.339989
0.456411
0.39547
0.454669
0.528799
0.596979
0.658073
0.680565
0.57431
0.39944
0.334689
0.298138
0.251047
0.18352
0.264199
0.310032
0.466649
0.379363
0.358079
0.338822
0.300974
0.18897
0.251226
0.280319
0.378766
0.327476
0.419045
0.386101
0.350965
0.334672
0.25376
0.244686
0.0774869
0.0788342
0.0980675
0.137697
0.278244
0.218026
0.160924
0.0354241
0.0484882
0.0604032
0.109129
0.180827
0.110867
0.147836
0.200187
0.0618358
0.1564
0.177507
0.0755976
0.0596164
0.04983
0.089069
0.0341615
-0.0268815
0.10521
0.821494
0.361757
-0.0214065
-0.157136
-0.242808
-0.164836
0.0102622
0.181544
0.372661
0.502233
0.421294
0.256534
0.112587
-0.133023
-0.38872
-0.535008
-0.546696
-0.405963
-0.0906585
0.390945
0.899411
0.516819
0.158501
-0.0461605
0.00272141
0.0612244
0.138813
0.356009
0.511866
0.538215
0.53158
0.43094
0.195462
-0.023395
-0.241978
-0.320375
-0.355713
-0.248079
0.0505612
0.363816
0.844546
0.501098
0.2979
0.152683
0.0932771
0.193941
0.277416
0.455214
0.485807
0.651164
0.587489
0.472755
0.2527
0.0710985
-0.0848329
-0.242437
-0.228803
-0.104262
0.0860583
0.415181
0.727136
0.518951
0.348919
0.196904
0.172377
0.138052
0.301461
0.469402
0.478942
0.543084
0.447014
0.441925
0.264531
0.109672
-0.0578635
-0.139446
-0.100765
-0.0724675
0.150966
0.35542
0.586445
0.484392
0.300555
0.216577
0.128715
0.165677
0.287646
0.369526
0.375183
0.458964
0.442405
0.377758
0.181358
0.117682
-0.0221977
0.00228523
-0.0651398
-0.00953427
0.142721
0.243911
0.452707
0.283245
0.218986
0.128412
0.211125
0.154103
0.187626
0.218642
0.396424
0.360955
0.370731
0.290937
0.16169
0.121652
-0.0260111
0.0889668
0.0139332
-0.0249477
0.0687533
0.218824
0.31532
0.17741
0.17171
0.139241
0.0241113
0.119738
0.154741
0.148222
0.201033
0.230872
0.301185
0.201982
0.107143
0.0401051
0.0378841
0.0300192
-0.0423653
-0.0399821
0.0806615
0.16864
0.0428916
0.0213592
-0.00965448
-0.018208
0.0576471
-0.00605928
-0.0140196
0.0932868
0.111711
0.0645441
0.0488112
0.0581179
0.0279083
0.0497701
-0.0218008
-0.0055967
-0.00693958
0.0306124
-0.000162713
-0.00866674
-0.189448
-0.661224
-1.04742
-1.34922
-1.45424
-1.40667
-1.20114
-1.06381
-0.964103
-0.780424
-0.923398
-1.03127
-1.2232
-1.41291
-1.65028
-1.73345
-1.69224
-1.43019
-1.08191
-0.639657
0.026457
-0.410759
-0.716561
-0.944503
-1.03582
-0.999141
-0.857407
-0.751906
-0.632818
-0.53834
-0.568576
-0.739788
-0.854288
-1.10945
-1.20001
-1.28712
-1.32327
-1.08935
-0.807481
-0.462973
0.137431
-0.146614
-0.432342
-0.654421
-0.717684
-0.694792
-0.521848
-0.480341
-0.448411
-0.316194
-0.439608
-0.436258
-0.63675
-0.841754
-0.944012
-1.03954
-1.01201
-0.858069
-0.574438
-0.382069
0.176364
-0.0150377
-0.269948
-0.433008
-0.584618
-0.484446
-0.408454
-0.252346
-0.252666
-0.257455
-0.28972
-0.30022
-0.510098
-0.631725
-0.64885
-0.724477
-0.83259
-0.702003
-0.440526
-0.20828
0.255913
-0.0658227
-0.185336
-0.339974
-0.314077
-0.326282
-0.261597
-0.195248
-0.135343
-0.128342
-0.135797
-0.184351
-0.337095
-0.356626
-0.436464
-0.587389
-0.551251
-0.533738
-0.321237
-0.141871
0.148918
0.110006
-0.0942058
-0.202208
-0.231497
-0.155999
-0.146586
-0.0462219
-0.0352679
-0.0416545
-0.127537
-0.130834
-0.128881
-0.262218
-0.319922
-0.419589
-0.436899
-0.33461
-0.161271
-0.129664
0.0825894
0.0912175
0.0240451
-0.0941411
-0.0329309
-0.0677375
-0.12622
-0.0707564
-0.0330456
-0.00449331
-0.0150211
-0.00968773
-0.153592
-0.163333
-0.182582
-0.249187
-0.265559
-0.219528
-0.0711239
-0.0841062
0.0161002
-0.00566098
-0.0591884
-0.0442013
-0.0206854
0.00698718
-0.00432088
0.0307011
-0.00676622
-0.0580734
-0.0175961
-0.00979753
-0.0641098
-0.0659015
-0.0647336
-0.097867
-0.0534956
-0.053195
0.0249598
0.0369068
-1.07952
-1.71256
-2.11325
-2.43633
-2.55233
-2.49812
-2.41193
-2.30184
-2.26096
-2.20032
-2.21354
-2.34317
-2.5103
-2.66789
-2.82114
-2.89002
-2.72332
-2.46953
-2.01883
-1.55706
-0.762797
-1.22988
-1.62445
-1.82044
-1.9495
-1.98798
-1.94053
-1.83681
-1.70521
-1.68909
-1.79194
-1.81294
-1.95469
-2.21075
-2.28432
-2.30105
-2.25113
-2.0442
-1.7323
-1.23074
-0.523801
-0.817106
-1.2729
-1.37677
-1.63563
-1.54314
-1.52364
-1.3752
-1.29963
-1.3206
-1.41249
-1.49351
-1.54894
-1.72459
-1.85871
-1.78049
-1.79382
-1.61669
-1.29884
-0.958408
-0.346009
-0.624784
-0.906087
-1.11211
-1.1278
-1.23919
-1.13969
-0.981992
-1.00998
-0.940463
-0.994032
-1.12318
-1.15788
-1.35726
-1.44458
-1.48777
-1.36396
-1.23144
-0.955795
-0.67533
-0.246031
-0.44129
-0.637622
-0.769761
-0.802277
-0.878414
-0.832016
-0.740467
-0.712817
-0.660048
-0.720282
-0.820424
-0.872254
-1.03359
-1.08427
-1.04949
-1.07474
-0.95747
-0.747777
-0.59518
-0.0686864
-0.31128
-0.399811
-0.57464
-0.614485
-0.559125
-0.56479
-0.466245
-0.521053
-0.406256
-0.496237
-0.446594
-0.671573
-0.664068
-0.724565
-0.729913
-0.694357
-0.631061
-0.523291
-0.367806
-0.0789864
-0.183009
-0.2298
-0.275406
-0.334552
-0.35477
-0.323258
-0.170935
-0.273124
-0.282855
-0.23287
-0.280619
-0.359574
-0.400344
-0.474885
-0.419182
-0.443763
-0.446094
-0.360532
-0.213541
-0.0176562
-0.0457143
-0.0831319
-0.111464
-0.0937784
-0.16693
-0.111707
-0.133423
-0.164048
-0.118055
-0.0400629
-0.12981
-0.122852
-0.110011
-0.135999
-0.118769
-0.0922513
-0.0664375
-0.117414
-0.0422509
-1.93824
-2.43338
-2.8641
-3.31814
-3.62274
-3.61108
-3.60885
-3.48693
-3.40415
-3.38237
-3.48492
-3.50436
-3.59485
-3.81178
-3.76868
-3.83522
-3.68273
-3.31965
-2.87601
-2.32355
-1.40866
-1.88855
-2.36175
-2.65894
-2.83923
-2.86566
-2.8541
-2.87863
-2.77683
-2.75248
-2.78006
-2.82265
-2.9687
-3.06793
-3.17775
-3.15302
-2.99675
-2.74824
-2.28163
-1.84769
-1.05098
-1.47987
-1.82299
-2.07878
-2.22072
-2.34819
-2.23365
-2.24395
-2.22694
-2.15464
-2.2627
-2.30367
-2.44502
-2.51546
-2.51531
-2.49464
-2.44752
-2.19878
-1.83828
-1.51817
-0.72306
-1.07853
-1.42164
-1.63874
-1.70432
-1.7878
-1.81352
-1.77546
-1.68122
-1.71146
-1.62877
-1.7095
-1.89684
-1.94637
-1.96594
-1.99063
-1.96875
-1.71962
-1.508
-1.18156
-0.534061
-0.848038
-1.00398
-1.17789
-1.34358
-1.3353
-1.35193
-1.29054
-1.15997
-1.26684
-1.24655
-1.34083
-1.37784
-1.47391
-1.58186
-1.55177
-1.42675
-1.36937
-1.13511
-0.878836
-0.292732
-0.519413
-0.747754
-0.797144
-0.897683
-0.933702
-0.844274
-0.860219
-0.869192
-0.897343
-0.879174
-0.931324
-0.941124
-1.04123
-1.04627
-1.08745
-0.990945
-0.931679
-0.79518
-0.591318
-0.230138
-0.348565
-0.362237
-0.481904
-0.464034
-0.521716
-0.543236
-0.513179
-0.522643
-0.489687
-0.520248
-0.608846
-0.58219
-0.569916
-0.581373
-0.677398
-0.519837
-0.608089
-0.440784
-0.370599
-0.0570432
-0.0895513
-0.10022
-0.132803
-0.173699
-0.166958
-0.196727
-0.206169
-0.124619
-0.195768
-0.141072
-0.179457
-0.225275
-0.172297
-0.235052
-0.216832
-0.201821
-0.150318
-0.137376
-0.141531
-2.4826
-3.04968
-3.65919
-4.02886
-4.34885
-4.51461
-4.55707
-4.44016
-4.48709
-4.44903
-4.40696
-4.57046
-4.54854
-4.7439
-4.6879
-4.51743
-4.32478
-4.07877
-3.3581
-2.7542
-1.93452
-2.38016
-2.91602
-3.32284
-3.62795
-3.6589
-3.67588
-3.67119
-3.68163
-3.63329
-3.61077
-3.79598
-3.76546
-3.79752
-3.88789
-3.77977
-3.64105
-3.27214
-2.74834
-2.29644
-1.43405
-1.96153
-2.21724
-2.5604
-2.82198
-2.87705
-2.92433
-2.94769
-2.91129
-2.93891
-2.96726
-3.0024
-3.13159
-3.09983
-3.13332
-3.09849
-2.92476
-2.6133
-2.22937
-1.90873
-1.10111
-1.44503
-1.76817
-2.0189
-2.19414
-2.29771
-2.27696
-2.24049
-2.34711
-2.24756
-2.37464
-2.38428
-2.47529
-2.48173
-2.46516
-2.46565
-2.34681
-2.11074
-1.80633
-1.56743
-0.822292
-1.0598
-1.22778
-1.54123
-1.64961
-1.69076
-1.7668
-1.71635
-1.70843
-1.78174
-1.79261
-1.74128
-1.88167
-1.89884
-1.92356
-1.82545
-1.75301
-1.6298
-1.3667
-1.11296
-0.503379
-0.691122
-0.866602
-1.03184
-1.15342
-1.20324
-1.16444
-1.28392
-1.19964
-1.20575
-1.2369
-1.23327
-1.23997
-1.34343
-1.32546
-1.32874
-1.31653
-1.10906
-0.947482
-0.774626
-0.312116
-0.439403
-0.599928
-0.589342
-0.660091
-0.714963
-0.702698
-0.679408
-0.687482
-0.731502
-0.760481
-0.696439
-0.766736
-0.762232
-0.792956
-0.822294
-0.69137
-0.669636
-0.532439
-0.448785
-0.134896
-0.129368
-0.135102
-0.228858
-0.2846
-0.256479
-0.194687
-0.282193
-0.228507
-0.216333
-0.288013
-0.231019
-0.182598
-0.304564
-0.268315
-0.238593
-0.228995
-0.229053
-0.111415
-0.119655
-2.73302
-3.3996
-4.08436
-4.67027
-4.95066
-5.24688
-5.23952
-5.25156
-5.22377
-5.27731
-5.28619
-5.35272
-5.40587
-5.36871
-5.32811
-5.24021
-4.88627
-4.38386
-3.7745
-3.10658
-2.12682
-2.74244
-3.24476
-3.72119
-3.99501
-4.26662
-4.33521
-4.33765
-4.33391
-4.36388
-4.40814
-4.44423
-4.43569
-4.4644
-4.45479
-4.29907
-4.02079
-3.59872
-3.08979
-2.61265
-1.71715
-2.12458
-2.66156
-2.981
-3.24445
-3.46351
-3.50206
-3.51418
-3.49229
-3.42351
-3.50018
-3.54425
-3.59988
-3.63173
-3.62505
-3.44848
-3.36129
-2.95139
-2.52396
-2.06221
-1.29646
-1.63339
-2.06738
-2.38102
-2.49106
-2.63949
-2.68815
-2.78837
-2.71008
-2.83803
-2.73945
-2.80194
-2.86185
-2.92334
-2.8365
-2.75706
-2.58959
-2.38157
-2.00596
-1.64861
-0.873669
-1.20424
-1.5395
-1.78849
-1.92109
-2.00644
-2.06901
-2.16605
-2.05162
-2.14143
-2.11433
-2.14262
-2.22576
-2.27532
-2.23551
-2.13919
-1.98806
-1.82433
-1.5314
-1.31941
-0.643337
-0.824363
-1.07301
-1.17034
-1.28943
-1.44581
-1.46929
-1.4925
-1.48787
-1.47075
-1.47538
-1.52069
-1.53488
-1.53081
-1.57052
-1.4703
-1.38546
-1.25628
-1.02673
-0.80796
-0.341413
-0.475301
-0.606352
-0.674471
-0.744117
-0.804463
-0.814774
-0.899694
-0.817627
-0.880983
-0.891655
-0.887059
-0.920634
-0.868988
-0.92912
-0.88521
-0.848685
-0.768978
-0.642378
-0.476194
-0.127355
-0.12473
-0.231853
-0.219558
-0.274326
-0.238568
-0.255753
-0.291824
-0.276153
-0.342955
-0.30257
-0.333041
-0.371631
-0.343676
-0.225599
-0.282864
-0.304638
-0.277419
-0.210185
-0.173787
-2.78496
-3.57456
-4.29623
-4.94879
-5.28642
-5.54193
-5.69456
-5.81685
-5.76744
-5.81345
-5.87507
-5.93906
-5.88851
-5.8943
-5.7927
-5.47487
-5.10846
-4.57464
-3.86157
-3.18599
-2.20871
-2.7588
-3.44783
-3.89203
-4.37868
-4.62327
-4.69614
-4.7953
-4.81265
-4.78704
-4.88141
-4.91176
-4.94672
-4.8319
-4.80049
-4.59385
-4.29059
-3.79722
-3.21084
-2.62404
-1.66229
-2.19655
-2.78785
-3.19977
-3.54372
-3.68533
-3.81191
-3.90065
-3.90077
-3.9381
-3.94813
-4.01036
-4.06125
-3.96574
-4.01062
-3.74409
-3.43205
-3.06542
-2.595
-2.11361
-1.2571
-1.69561
-2.14848
-2.41337
-2.76715
-2.93399
-2.99096
-3.14991
-3.07569
-3.13
-3.2198
-3.09837
-3.14274
-3.15263
-3.18068
-2.97218
-2.7597
-2.43514
-2.0818
-1.65775
-0.952208
-1.22964
-1.57858
-1.81989
-2.08195
-2.17371
-2.21903
-2.32879
-2.35846
-2.41333
-2.33845
-2.37065
-2.40231
-2.42174
-2.40176
-2.30335
-2.17616
-1.92866
-1.57781
-1.31875
-0.685334
-0.880757
-1.08496
-1.26626
-1.40708
-1.61517
-1.60162
-1.61624
-1.64695
-1.67531
-1.64088
-1.70519
-1.70614
-1.68386
-1.69773
-1.64184
-1.43166
-1.28005
-1.0705
-0.904519
-0.322081
-0.450553
-0.617667
-0.78428
-0.836148
-0.890014
-0.926136
-0.937101
-0.945674
-0.949236
-0.974054
-1.01104
-1.07361
-0.957456
-0.983725
-0.892829
-0.864207
-0.789299
-0.620344
-0.508933
-0.116895
-0.123246
-0.230098
-0.259712
-0.285892
-0.322417
-0.262973
-0.380252
-0.288862
-0.328587
-0.267421
-0.385151
-0.311489
-0.408934
-0.362626
-0.272369
-0.28521
-0.218912
-0.188213
-0.207971
-2.61266
-3.41393
-4.17964
-4.74942
-5.35646
-5.73382
-5.91276
-6.05764
-6.14256
-6.17085
-6.2668
-6.19166
-6.17238
-6.06393
-5.85453
-5.58536
-5.12087
-4.47016
-3.70802
-2.87809
-2.06262
-2.69976
-3.39357
-3.9562
-4.48436
-4.68589
-4.84615
-5.00548
-5.04724
-5.16166
-5.14679
-5.1077
-5.18439
-5.07709
-4.92756
-4.71101
-4.27947
-3.65794
-3.0682
-2.35154
-1.5674
-2.14489
-2.69746
-3.19919
-3.54698
-3.8076
-3.93802
-4.04118
-4.16301
-4.15988
-4.21513
-4.17484
-4.21987
-4.0959
-4.02138
-3.77123
-3.52738
-2.97352
-2.48397
-1.94806
-1.14657
-1.62177
-2.08925
-2.45406
-2.70757
-3.00567
-3.12095
-3.16643
-3.27984
-3.36328
-3.30453
-3.35519
-3.33105
-3.27991
-3.19567
-2.99863
-2.79311
-2.3486
-2.03098
-1.5667
-0.834424
-1.17623
-1.49607
-1.85808
-2.0789
-2.2366
-2.4245
-2.42016
-2.48717
-2.52133
-2.54859
-2.5303
-2.5196
-2.52888
-2.44458
-2.32503
-2.047
-1.80332
-1.50581
-1.21528
-0.562746
-0.827055
-1.14
-1.27593
-1.40885
-1.60859
-1.6099
-1.62355
-1.73619
-1.74814
-1.74296
-1.83166
-1.78228
-1.71576
-1.73479
-1.64565
-1.49132
-1.28418
-1.09204
-0.847276
-0.403743
-0.477054
-0.592768
-0.844927
-0.808474
-0.972531
-0.951704
-0.995906
-1.0323
-1.06844
-1.09173
-1.1219
-1.1094
-1.044
-0.996427
-0.982922
-0.921365
-0.753248
-0.573642
-0.505001
-0.0821251
-0.133603
-0.229242
-0.339261
-0.2314
-0.335172
-0.308733
-0.330111
-0.404493
-0.363302
-0.369865
-0.354784
-0.268546
-0.359589
-0.328192
-0.286405
-0.240221
-0.234943
-0.209859
-0.232306
-2.19854
-3.0451
-3.90688
-4.55903
-5.25842
-5.59752
-5.89085
-6.02729
-6.1211
-6.28309
-6.22917
-6.22527
-6.15764
-5.95461
-5.74905
-5.32709
-4.80815
-4.13202
-3.24938
-2.41985
-1.57796
-2.32402
-3.08901
-3.70295
-4.22606
-4.55911
-4.78285
-5.01306
-5.11883
-5.15036
-5.1738
-5.15085
-5.10959
-4.9562
-4.77813
-4.37964
-3.94895
-3.38168
-2.6569
-2.04186
-1.25028
-1.87684
-2.42283
-2.95802
-3.4605
-3.69813
-3.93394
-4.0523
-4.15973
-4.15001
-4.20889
-4.22168
-4.13558
-4.07723
-3.85663
-3.62459
-3.2565
-2.75325
-2.14991
-1.6489
-0.894007
-1.39307
-1.88112
-2.32479
-2.61499
-2.89124
-3.07317
-3.18022
-3.28713
-3.34757
-3.39912
-3.30121
-3.33473
-3.22621
-3.10022
-2.93504
-2.563
-2.14605
-1.69303
-1.28675
-0.640689
-0.999381
-1.40243
-1.73286
-2.02063
-2.18767
-2.30895
-2.35945
-2.48173
-2.49832
-2.5471
-2.54405
-2.55043
-2.46715
-2.31224
-2.17692
-1.96755
-1.66149
-1.31664
-0.946877
-0.430556
-0.659942
-0.95059
-1.22816
-1.42052
-1.5545
-1.64409
-1.71146
-1.7432
-1.76994
-1.78929
-1.83269
-1.83093
-1.74326
-1.6185
-1.50481
-1.35024
-1.10323
-0.899395
-0.707594
-0.219014
-0.415833
-0.492105
-0.663134
-0.858768
-0.880728
-0.950608
-0.988344
-0.99023
-1.07529
-1.06698
-1.09922
-1.06158
-1.05446
-0.945648
-0.871869
-0.807807
-0.690348
-0.498238
-0.37636
-0.11127
-0.108048
-0.218839
-0.269037
-0.222766
-0.237873
-0.380838
-0.327805
-0.336192
-0.450775
-0.359268
-0.321972
-0.330677
-0.314903
-0.333154
-0.342694
-0.240718
-0.219108
-0.101935
-0.127332
-1.41279
-2.28996
-3.30206
-4.08478
-4.71231
-5.12044
-5.52834
-5.73714
-5.96511
-5.9682
-5.91887
-5.95091
-5.85311
-5.66771
-5.29337
-4.90238
-4.20384
-3.4722
-2.5746
-1.66893
-0.987653
-1.71256
-2.54912
-3.2109
-3.8339
-4.24263
-4.59762
-4.72081
-4.86604
-4.96865
-4.96427
-4.95697
-4.84835
-4.71926
-4.37672
-4.02301
-3.52664
-2.82963
-2.07894
-1.39958
-0.599305
-1.34749
-2.0017
-2.53447
-3.07156
-3.47085
-3.64507
-3.80391
-3.95239
-4.02157
-3.99047
-4.00215
-3.89826
-3.88011
-3.61312
-3.20683
-2.82855
-2.29212
-1.55556
-1.06346
-0.486233
-0.960157
-1.59606
-2.01954
-2.37196
-2.6547
-2.84627
-3.00965
-3.06794
-3.19036
-3.14992
-3.16143
-3.16197
-3.04351
-2.82581
-2.56676
-2.18622
-1.76223
-1.25068
-0.824971
-0.246077
-0.700806
-1.105
-1.45211
-1.81088
-2.04318
-2.19021
-2.31044
-2.35169
-2.47598
-2.37413
-2.48469
-2.37921
-2.32046
-2.11863
-1.97502
-1.67044
-1.33963
-0.937608
-0.596861
-0.222964
-0.402662
-0.757391
-1.00159
-1.23559
-1.41322
-1.48506
-1.58614
-1.62065
-1.73842
-1.76193
-1.66328
-1.70637
-1.5861
-1.51246
-1.35457
-1.18114
-0.979611
-0.593395
-0.401478
-0.0786608
-0.280033
-0.399132
-0.53492
-0.743747
-0.831023
-0.890953
-0.923669
-0.985082
-1.10221
-1.05511
-1.01962
-0.933484
-0.944663
-0.967354
-0.826593
-0.720707
-0.497861
-0.368616
-0.199339
-0.0042395
-0.076811
-0.222911
-0.245426
-0.250501
-0.284911
-0.316523
-0.328903
-0.337208
-0.361188
-0.306765
-0.382347
-0.341819
-0.313425
-0.298451
-0.251466
-0.258655
-0.152576
-0.153371
-0.0101921
-0.419077
-1.35751
-2.31422
-3.22194
-3.90295
-4.4978
-4.92154
-5.13582
-5.35634
-5.42739
-5.4153
-5.36842
-5.24358
-5.03875
-4.66136
-4.0459
-3.38139
-2.55999
-1.55088
-0.540822
-0.122361
-0.863227
-1.76616
-2.49008
-3.1375
-3.53689
-3.96924
-4.19856
-4.42465
-4.41681
-4.45248
-4.38739
-4.31461
-4.0392
-3.79661
-3.37859
-2.72465
-2.04447
-1.15239
-0.396896
0.0852571
-0.593153
-1.30538
-1.95265
-2.52451
-2.92998
-3.18735
-3.39713
-3.56826
-3.63251
-3.59743
-3.69332
-3.43993
-3.4034
-3.05174
-2.69539
-2.19156
-1.65774
-0.940667
-0.224124
0.127659
-0.370062
-0.990324
-1.50476
-1.87585
-2.22191
-2.53511
-2.70159
-2.7501
-2.89894
-2.81885
-2.86729
-2.74273
-2.68896
-2.34519
-2.04865
-1.72784
-1.26446
-0.712822
-0.183976
0.204206
-0.150067
-0.688886
-1.10428
-1.44474
-1.6173
-1.82545
-1.98651
-2.06985
-2.17582
-2.12185
-2.17751
-2.09031
-2.01502
-1.813
-1.5221
-1.20767
-0.984884
-0.4415
-0.123187
0.157996
-0.0488504
-0.46356
-0.766059
-1.00774
-1.15181
-1.36802
-1.42046
-1.4741
-1.53443
-1.50634
-1.54069
-1.44823
-1.38446
-1.23499
-1.06521
-0.865457
-0.634731
-0.29071
0.00175874
0.111888
-0.0308659
-0.320154
-0.424867
-0.568287
-0.705274
-0.759307
-0.803733
-0.862257
-0.909123
-0.983012
-0.894514
-0.798659
-0.830861
-0.690115
-0.666204
-0.553302
-0.36728
-0.135572
0.0135843
0.0313711
0.00812752
-0.0911188
-0.115273
-0.216112
-0.201756
-0.270682
-0.290075
-0.220598
-0.279216
-0.328232
-0.285026
-0.243393
-0.321993
-0.289989
-0.181302
-0.178545
-0.101766
-0.0477944
0.0362427
0.921548
-0.0976369
-1.12164
-2.12149
-2.89174
-3.47182
-3.91413
-4.20377
-4.48104
-4.60906
-4.58596
-4.51027
-4.30797
-4.0259
-3.56923
-2.9289
-2.23217
-1.3649
-0.366026
0.803333
0.982899
0.197848
-0.732658
-1.52123
-2.1704
-2.7611
-3.1191
-3.43716
-3.63517
-3.75295
-3.74495
-3.62292
-3.55764
-3.22051
-2.92395
-2.40048
-1.81618
-0.920675
-0.101089
0.770996
1.06358
0.348956
-0.439417
-1.18135
-1.60119
-2.18793
-2.54071
-2.65929
-2.84425
-2.96577
-2.99866
-2.9435
-2.82042
-2.61817
-2.30937
-1.81347
-1.29539
-0.728683
0.0450795
0.801561
0.982491
0.433445
-0.26246
-0.805784
-1.27042
-1.56282
-1.8889
-2.06997
-2.23396
-2.32194
-2.32064
-2.34268
-2.2008
-2.10272
-1.74694
-1.47918
-0.988636
-0.535597
0.0251146
0.587636
0.732624
0.345362
-0.0969633
-0.569797
-0.96343
-1.19091
-1.43648
-1.55815
-1.68663
-1.77708
-1.70729
-1.80093
-1.67023
-1.47537
-1.29259
-1.11055
-0.731395
-0.418268
0.0925379
0.545215
0.634786
0.271165
-0.0240132
-0.311726
-0.586425
-0.802204
-0.975773
-1.12709
-1.17141
-1.2346
-1.11667
-1.18747
-1.18302
-1.09263
-0.95534
-0.709592
-0.503668
-0.238601
0.13117
0.385693
0.381403
0.151479
-0.00946071
-0.177539
-0.26879
-0.443849
-0.548339
-0.6262
-0.657459
-0.70045
-0.774588
-0.710783
-0.677183
-0.672998
-0.523204
-0.424906
-0.301188
-0.114936
0.0505125
0.243091
0.134302
0.0878989
0.0511042
-0.00528345
-0.133913
-0.118834
-0.17888
-0.246869
-0.289662
-0.266524
-0.243636
-0.29889
-0.147767
-0.167411
-0.180721
-0.119476
-0.154379
0.0396132
0.0342442
0.0676754
2.55872
1.48516
0.352609
-0.58826
-1.46167
-2.14454
-2.62383
-3.02591
-3.21343
-3.41692
-3.4147
-3.27199
-3.09745
-2.71358
-2.22002
-1.59973
-0.829888
0.221191
1.30032
2.38073
2.40625
1.52547
0.600633
-0.35853
-1.0323
-1.5845
-1.9713
-2.31061
-2.55536
-2.69412
-2.60012
-2.55388
-2.40554
-2.13055
-1.71091
-1.12603
-0.442931
0.428775
1.24808
2.10252
2.21935
1.54391
0.666786
0.0111106
-0.679736
-1.12646
-1.57116
-1.72049
-1.90633
-2.03453
-2.14452
-1.98249
-1.86347
-1.67253
-1.38337
-0.825577
-0.299316
0.377509
1.18178
1.86144
1.89149
1.32077
0.662747
0.0426623
-0.41071
-0.858376
-1.09925
-1.37468
-1.48769
-1.61209
-1.64069
-1.5444
-1.44959
-1.26123
-0.975338
-0.584384
-0.0886533
0.467222
1.09344
1.6577
1.55923
1.06662
0.595356
0.134878
-0.254492
-0.541258
-0.820586
-1.03374
-1.12574
-1.2082
-1.2121
-1.12863
-1.02651
-0.94298
-0.699016
-0.468735
-0.120211
0.310957
0.873456
1.28821
1.11722
0.793456
0.447246
0.0758681
-0.137486
-0.367474
-0.523798
-0.695891
-0.766837
-0.774085
-0.820716
-0.785732
-0.698435
-0.590812
-0.474855
-0.234867
-0.0314714
0.275562
0.597359
0.944485
0.710046
0.525951
0.272839
0.0713784
-0.0872746
-0.166864
-0.347625
-0.321935
-0.430564
-0.489033
-0.516986
-0.450677
-0.389635
-0.402094
-0.367032
-0.19414
0.027581
0.17924
0.334757
0.535409
0.198136
0.195223
0.0970392
-0.000216118
-0.0640162
-0.0636231
-0.058183
-0.193191
-0.0971896
-0.143492
-0.173767
-0.191656
-0.0990663
-0.130004
-0.127008
-0.0135405
-0.0437045
0.0191423
0.132207
0.1469
4.38576
3.40692
2.18242
1.09033
0.206776
-0.442667
-1.00242
-1.39335
-1.65766
-1.85148
-1.85011
-1.76696
-1.50009
-1.07163
-0.571799
0.149984
1.06252
2.09369
3.24912
4.30203
4.07418
3.17516
2.17615
1.20116
0.430952
-0.181367
-0.602112
-1.03176
-1.16316
-1.32058
-1.34648
-1.23749
-1.07166
-0.774218
-0.289569
0.311935
1.10826
1.98811
2.9603
3.8639
3.58988
2.82783
2.02715
1.17481
0.617321
0.0575226
-0.41102
-0.629878
-0.824118
-1.01136
-1.00415
-0.918443
-0.801494
-0.560673
-0.116274
0.392405
1.02129
1.7668
2.52753
3.30761
3.03606
2.494
1.76894
1.13891
0.605626
0.111487
-0.191424
-0.467104
-0.597146
-0.741249
-0.692258
-0.684005
-0.458856
-0.253378
0.033598
0.353953
0.863441
1.45866
2.11243
2.72131
2.3962
1.95643
1.4359
0.936742
0.516455
0.160886
-0.119632
-0.230475
-0.398049
-0.484912
-0.493869
-0.468537
-0.379007
-0.135985
0.0610145
0.391972
0.779666
1.1961
1.73047
2.10453
1.78276
1.39023
1.02357
0.716393
0.366092
0.118014
0.036119
-0.250195
-0.302269
-0.312901
-0.334854
-0.287642
-0.255295
-0.119362
0.0548818
0.312264
0.585561
0.867338
1.23878
1.60848
1.10728
0.83796
0.627354
0.445929
0.320996
0.141495
-0.0211043
-0.120123
-0.0959532
-0.182519
-0.176694
-0.118589
-0.111869
-0.0789376
0.00533449
0.244924
0.392452
0.540414
0.759058
0.949293
0.309602
0.299439
0.201663
0.202575
0.0889212
0.0180715
-0.00903821
-0.00205004
-0.034957
-0.0936421
-0.0850937
-0.0600174
0.0392894
-0.0178308
-0.0107277
0.112593
0.0797216
0.188013
0.249738
0.319833
6.65162
5.52622
4.22825
3.14644
2.23127
1.46855
0.909412
0.449853
0.254991
0.0313275
0.0249759
0.105404
0.440564
0.870039
1.4131
2.21318
3.13585
4.20827
5.33558
6.54482
5.94368
5.02739
3.91449
3.06411
2.23949
1.57187
1.08295
0.686726
0.392559
0.282488
0.380564
0.373581
0.648302
0.941681
1.38841
2.09508
2.87204
3.77678
4.83134
5.76221
5.2363
4.38116
3.46818
2.76397
2.0366
1.561
1.07627
0.724693
0.481048
0.45484
0.337721
0.447807
0.676434
0.883674
1.29702
1.90598
2.52145
3.36011
4.16536
4.88482
4.36905
3.74732
3.00631
2.3508
1.77636
1.37327
0.970633
0.758167
0.557878
0.473239
0.413132
0.476349
0.656409
0.85479
1.20061
1.66313
2.18184
2.815
3.47291
4.07236
3.46491
2.94187
2.39888
1.84695
1.46544
1.10135
0.774886
0.681633
0.455792
0.339483
0.328111
0.375469
0.503702
0.734262
0.975731
1.30726
1.85433
2.1953
2.72221
3.17303
2.43989
2.20654
1.69422
1.41365
0.980582
0.783888
0.659998
0.508476
0.30165
0.32024
0.233423
0.377563
0.416194
0.600604
0.660555
0.935162
1.26256
1.68749
1.92072
2.28908
1.54506
1.30677
1.05801
0.840342
0.677843
0.490046
0.352079
0.284411
0.271922
0.254889
0.161867
0.206811
0.28207
0.376799
0.374579
0.578209
0.788777
0.996212
1.15603
1.39991
0.500646
0.442961
0.305525
0.264285
0.177665
0.216656
0.110566
0.120078
0.0363175
0.0466808
0.0771438
0.0930894
0.0484488
0.119775
0.155944
0.123763
0.294654
0.285676
0.422411
0.478077
9.07805
7.89691
6.57831
5.55441
4.49618
3.7278
3.11252
2.61
2.39134
2.19862
2.19639
2.36897
2.66364
3.03969
3.76122
4.4702
5.48415
6.58175
7.82226
9.01869
8.02527
7.06419
6.03686
5.00001
4.17802
3.49477
2.92515
2.66141
2.37518
2.11111
2.10587
2.27686
2.46264
2.86683
3.41579
4.08572
4.82952
5.81674
6.95049
7.95482
7.00673
6.15897
5.28275
4.46392
3.76378
3.15315
2.68975
2.40128
2.12482
1.99156
1.99475
2.07031
2.26076
2.59132
2.94267
3.55264
4.26397
5.03047
5.9844
6.7319
5.75088
5.1302
4.45956
3.75125
3.05361
2.70387
2.30526
2.07889
1.82364
1.72834
1.72111
1.8001
1.94318
2.21589
2.44071
3.0762
3.55481
4.21478
4.88585
5.60067
4.55428
4.08565
3.5148
2.9683
2.47467
2.08479
1.83511
1.65005
1.44316
1.45791
1.31836
1.44114
1.56274
1.73786
2.00113
2.35022
2.83534
3.30902
3.89521
4.34098
3.31814
2.9587
2.59066
2.19385
1.83547
1.60029
1.3674
1.23178
1.10872
1.05161
1.00851
1.03636
1.15418
1.25224
1.48867
1.79731
2.0051
2.42892
2.73544
3.19004
2.02075
1.70949
1.58969
1.30135
1.09656
0.998553
0.814184
0.710874
0.618732
0.582043
0.61509
0.726232
0.674338
0.793177
0.887787
1.11209
1.20788
1.46029
1.6267
1.93196
0.63296
0.573227
0.566119
0.445488
0.314862
0.335918
0.257279
0.22366
0.270392
0.236321
0.254001
0.22822
0.196064
0.251029
0.249198
0.325278
0.413407
0.466841
0.524427
0.654165
11.7739
10.5587
9.2665
8.08571
7.07468
6.27954
5.50791
5.13876
4.78993
4.55784
4.62928
4.77839
4.98563
5.58247
6.23923
7.01787
8.09079
9.14048
10.4689
11.6843
10.3411
9.40964
8.27273
7.18724
6.37288
5.65557
5.10959
4.67571
4.39739
4.17539
4.26788
4.30634
4.5911
5.02219
5.5934
6.18415
7.10725
8.04575
9.2805
10.2052
8.83352
8.12359
7.16811
6.30864
5.56459
4.98244
4.41748
4.0405
3.8349
3.70389
3.68709
3.7763
4.01797
4.32343
4.80027
5.39553
6.07104
6.83081
7.86758
8.61767
7.36006
6.59731
5.98868
5.28696
4.63917
4.1237
3.77213
3.47507
3.18089
3.06411
3.08322
3.21518
3.32828
3.62398
4.06039
4.49563
5.05788
5.75672
6.41721
7.07343
5.78163
5.24247
4.65897
4.15706
3.6661
3.31762
2.94491
2.72471
2.58256
2.5384
2.49628
2.51553
2.67923
2.84062
3.2105
3.59228
3.96552
4.51532
5.02437
5.57946
4.10798
3.74914
3.4372
2.98879
2.71646
2.38215
2.17726
2.00134
1.82192
1.76582
1.76225
1.87744
1.97219
2.03264
2.31668
2.57943
2.84579
3.26456
3.60934
4.04109
2.47513
2.28236
2.06057
1.8262
1.67245
1.41662
1.30156
1.195
1.20501
1.01444
1.096
1.05381
1.15236
1.20163
1.42005
1.51135
1.73243
1.96617
2.18077
2.36697
0.937398
0.805789
0.681785
0.633595
0.535103
0.561887
0.46763
0.39533
0.368172
0.400196
0.31118
0.403254
0.330194
0.422125
0.48623
0.478238
0.621487
0.650637
0.732581
0.839025
14.4218
13.134
11.8348
10.6217
9.59959
8.79013
8.04879
7.4647
7.19334
6.98427
7.10607
7.22008
7.52631
8.02066
8.70452
9.55642
10.5908
11.842
13.1751
14.3768
12.6075
11.5532
10.4705
9.46834
8.50788
7.7797
7.22119
6.74361
6.43335
6.20543
6.21602
6.43536
6.68603
7.11076
7.60014
8.36537
9.22681
10.318
11.5242
12.4631
10.7494
9.80494
8.97999
8.08492
7.31089
6.66902
6.19878
5.91547
5.5656
5.38062
5.2973
5.45828
5.79787
6.10401
6.66202
7.20001
7.92195
8.81149
9.65245
10.5397
8.84702
8.17392
7.43648
6.64198
6.10481
5.57067
5.14987
4.8175
4.63359
4.47336
4.48259
4.47208
4.74261
5.07153
5.394
5.90851
6.55556
7.22274
7.91827
8.58179
6.92278
6.46352
5.78494
5.31353
4.73744
4.41914
4.07174
3.73754
3.63186
3.5683
3.49197
3.55575
3.73922
3.90529
4.2388
4.62336
5.10011
5.62497
6.18834
6.72524
4.9266
4.57126
4.15844
3.83249
3.43728
3.14843
2.85645
2.66878
2.59107
2.53654
2.54093
2.62853
2.654
2.84676
3.0459
3.32549
3.61833
4.06488
4.50167
4.77056
2.92424
2.76121
2.52983
2.22461
2.0775
1.90226
1.72926
1.64003
1.56135
1.56336
1.55238
1.50776
1.57979
1.68528
1.78706
1.96898
2.20062
2.36062
2.63951
2.89292
0.952433
0.919431
0.877575
0.758036
0.707946
0.676145
0.605109
0.54122
0.498968
0.571643
0.469445
0.498234
0.518817
0.564334
0.683075
0.652117
0.71511
0.7918
0.986856
0.981076
16.5364
15.3362
14.009
12.7252
11.6832
10.8456
10.0955
9.52312
9.20355
9.13683
9.03461
9.27633
9.49529
10.0603
10.7193
11.6678
12.6608
13.9478
15.3354
16.503
14.3164
13.369
12.0725
11.0929
10.2167
9.45744
8.81812
8.30315
8.0417
7.84774
7.87148
8.04314
8.29127
8.69981
9.35556
10.145
11.0837
12.0352
13.1824
14.2113
12.1768
11.262
10.3374
9.50428
8.63184
7.99223
7.42776
7.14953
6.8355
6.69135
6.76983
6.81163
7.09439
7.42202
7.8981
8.58034
9.24069
10.2553
11.1316
11.9284
10.0018
9.36552
8.49356
7.73099
7.12684
6.55709
6.21601
5.82174
5.58801
5.44193
5.47408
5.52998
5.74933
6.05283
6.47175
6.93084
7.59491
8.334
9.10243
9.70256
7.78043
7.21883
6.59793
6.06325
5.56264
5.11288
4.8747
4.48635
4.4387
4.35474
4.2553
4.38248
4.50376
4.69157
4.96667
5.40769
5.9058
6.44617
7.04299
7.53889
5.50373
5.1281
4.77378
4.32286
3.98666
3.69546
3.46862
3.26214
3.05979
3.08733
3.10048
3.15268
3.22447
3.32732
3.57395
3.88543
4.27562
4.60824
5.09397
5.40994
3.30842
3.07753
2.81411
2.60771
2.39932
2.21818
2.06781
1.92878
1.83514
1.86892
1.89686
1.93753
1.9389
1.99992
2.08234
2.34666
2.50953
2.70232
2.99772
3.24854
1.07881
1.00739
0.939643
0.808639
0.781343
0.721802
0.656534
0.651882
0.604005
0.590859
0.648752
0.639413
0.613352
0.695641
0.718677
0.760102
0.893237
0.868063
1.06976
1.10217
)
;

boundaryField
{
    hotSide
    {
        type            calculated;
        value           nonuniform List<scalar> 
400
(
2.88733
2.09769
1.0922
0.210394
-0.637152
-1.16732
-1.40039
-1.43168
-1.23528
-0.793462
0.0237449
1.0528
2.43277
4.11343
5.98818
8.30606
10.7889
13.5456
16.2588
18.4433
2.51447
1.67904
0.660877
-0.383133