/*--------------------------------*- C++ -*----------------------------------*\
| =========                 |                                                 |
| \\      /  F ield         | OpenFOAM: The Open Source CFD Toolbox           |
|  \\    /   O peration     | Version:  2212                                  |
|   \\  /    A nd           | Website:  www.openfoam.com                      |
|    \\/     M anipulation  |                                                 |
\*---------------------------------------------------------------------------*/
FoamFile
{
    version     2.0;
    format      ascii;
    arch        "LSB;label=32;scalar=64";
    class       volScalarField;
    location    "0";
    object      relativeErrorField;
}
// * * * * * * * * * * * * * * * * * * * * * * * * * * * * * * * * * * * * * //

dimensions      [0 0 0 1 0 0 0];

internalField   nonuniform List<scalar> 
3200
(
0.00461759
0.00342563
0.002616
0.00203736
0.00214753
0.0023037
0.00287411
0.00368018
0.00398549
0.00455121
0.00416902
0.00365603
0.00329417
0.00219862
0.00148245
0.00112829
0.00103971
0.00144434
0.00228274
0.00302946
0.0044438
0.00338563
0.00259275
0.00220983
0.00204614
0.00246593
0.00287904
0.00343117
0.00381849
0.00429399
0.00389306
0.00376351
0.00296473
0.00222648
0.00150261
0.00125164
0.00122656
0.00136912
0.00218862
0.00303441
0.00415676
0.00331736
0.00269392
0.00208132
0.00224041
0.0024053
0.0027558
0.00313179
0.00353917
0.00357049
0.00357133
0.00312911
0.00264809
0.00208324
0.00150333
0.00129338
0.00131698
0.00135577
0.00209091
0.00255745
0.00354777
0.00295422
0.00239886
0.00186137
0.00208615
0.00220751
0.00230193
0.00261165
0.00291149
0.00316379
0.00303939
0.00275599
0.00232675
0.0018032
0.00136628
0.00102304
0.00105094
0.00140679
0.0016563
0.0022701
0.00302822
0.00250386
0.00198123
0.00155077
0.00164798
0.00200064
0.00212084
0.00220524
0.00253602
0.00256854
0.002627
0.00236503
0.00195487
0.0015193
0.00130233
0.000988919
0.000802932
0.000956261
0.00135461
0.00185316
0.0023064
0.00195586
0.00150977
0.00107136
0.00143677
0.0012437
0.00142858
0.00166023
0.00187325
0.00206434
0.0021349
0.00180211
0.00125409
0.0010516
0.000937605
0.00079029
0.0005783
0.000833347
0.000978784
0.00147419
0.00122399
0.00115486
0.00109216
0.000969577
0.000608383
0.000808323
0.000901429
0.00121744
0.00105222
0.00134619
0.00124036
0.00112769
0.00107571
0.000816021
0.00078728
0.000249467
0.000253962
0.00031611
0.000444094
0.000897735
0.000718772
0.00053045
0.000116746
0.000159768
0.000198985
0.000359425
0.000595455
0.000365023
0.000486682
0.000658985
0.000203554
0.000514875
0.000584429
0.00024894
0.000196352
0.000164154
0.00029348
0.000112584
8.86087e-05
0.000346849
0.00234937
0.0010326
6.09549e-05
0.000446265
0.000687709
0.000465633
2.89184e-05
0.000510534
0.00104643
0.00140915
0.00118206
0.000720343
0.000316615
0.000374853
0.00109807
0.00151531
0.00155262
0.00115598
0.000258777
0.00111805
0.00262167
0.00150398
0.000460266
0.000133733
7.86544e-06
0.000176538
0.000399401
0.00102248
0.00146818
0.00154269
0.00152367
0.00123606
0.000561379
6.73133e-05
0.000697733
0.00092595
0.00103055
0.00072039
0.000147137
0.00106048
0.00251009
0.00148725
0.000882541
0.000451422
0.000275215
0.000571072
0.000815356
0.00133584
0.001424
0.00190755
0.00172102
0.00138574
0.000741556
0.000208966
0.000249796
0.000715314
0.000676479
0.00030888
0.00025542
0.00123397
0.00220447
0.00157152
0.001055
0.000594371
0.000519439
0.000415303
0.000905487
0.00140809
0.00143535
0.00162677
0.001339
0.00132441
0.000793531
0.000329417
0.000174072
0.000420205
0.000304167
0.000219115
0.000457164
0.00107753
0.00181436
0.00149728
0.000927909
0.000667753
0.000396313
0.000509439
0.000883393
0.00113368
0.00115017
0.00140646
0.00135571
0.00115807
0.000556395
0.000361414
6.82554e-05
7.03623e-06
0.00020084
2.94353e-05
0.000441156
0.000754617
0.0014299
0.000894064
0.000690624
0.000404584
0.000664524
0.000484571
0.000589452
0.000686378
0.0012438
0.00113219
0.00116285
0.000912828
0.000507591
0.000382187
8.1791e-05
0.000280026
4.38991e-05
7.86782e-05
0.00021702
0.000691167
0.00101725
0.000572114
0.000553434
0.000448518
7.76189e-05
0.000385226
0.000497568
0.000476386
0.000645901
0.000741638
0.000967508
0.000648952
0.000344356
0.000128957
0.000121883
9.66374e-05
0.000136466
0.000128865
0.000260119
0.000544047
0.000141396
7.04033e-05
3.18168e-05
5.99931e-05
0.0001899
1.99563e-05
4.61649e-05
0.000307133
0.00036775
0.000212464
0.000160675
0.000191323
9.18839e-05
0.000163887
7.1801e-05
1.84365e-05
2.2865e-05
0.000100885
5.36327e-07
2.85707e-05
0.000541284
0.00188568
0.00297993
0.00382863
0.00411573
0.0039708
0.00338256
0.00298983
0.00270568
0.00218853
0.00258947
0.00289419
0.00343782
0.00397893
0.00465846
0.00490591
0.00480201
0.00406891
0.0030854
0.0018276
7.70545e-05
0.00119438
0.0020792
0.00273435
0.00299171
0.00287918
0.00246557
0.00215838
0.0018142
0.00154231
0.00162893
0.00212087
0.00245227
0.00319035
0.003458
0.00371752
0.0038309
0.00316089
0.00234793
0.00134838
0.000408167
0.000434844
0.00127998
0.00193365
0.0021163
0.00204476
0.00153301
0.00140893
0.00131382
0.000925893
0.00128728
0.00127821
0.00186771
0.00247278
0.0027782
0.0030654
0.00299023
0.00254037
0.00170373
0.00113474
0.000534366
4.55116e-05
0.000815771
0.00130638
0.00176082
0.00145671
0.00122635
0.000756687
0.000756948
0.000770919
0.000867534
0.000899413
0.00152959
0.0018967
0.00195107
0.00218206
0.00251192
0.00212142
0.00133325
0.000631067
0.00079137
0.000203367
0.000571938
0.00104778
0.000966667
0.00100292
0.000803127
0.000598826
0.000414794
0.000393186
0.000416024
0.000564992
0.00103387
0.00109487
0.0013416
0.00180787
0.00169892
0.00164709
0.000992499
0.000438713
0.000470201
0.000347118
0.000297004
0.000636899
0.000728438
0.000490405
0.000460408
0.000145071
0.000110632
0.000130629
0.000399957
0.000410413
0.000404503
0.000823594
0.00100572
0.0013203
0.00137611
0.00105493
0.000508882
0.000409407
0.000266384
0.000294099
7.74837e-05
0.000303187
0.000105992
0.000217894
0.0004058
0.000227379
0.000106159
1.44323e-05
4.82468e-05
3.11218e-05
0.000493576
0.000525116
0.000587318
0.000802042
0.00085525
0.000707417
0.000229314
0.000271276
5.30721e-05
1.86581e-05
0.000195045
0.000145628
6.81374e-05
2.3011e-05
1.42274e-05
0.000101074
2.22732e-05
0.000191156
5.79198e-05
3.22518e-05
0.000211062
0.000216995
0.000213188
0.000322372
0.00017625
0.000175294
8.22654e-05
0.000121658
0.00307998
0.00487716
0.00600433
0.00690489
0.00721512
0.0070442
0.00678558
0.00646339
0.00633976
0.00616516
0.00620222
0.00657028
0.00704872
0.00750566
0.00795505
0.00816971
0.00771828
0.00701661
0.00574937
0.00444245
0.00221881
0.0035718
0.0047081
0.00526442
0.00562488
0.00572321
0.0055753
0.00526836
0.00488489
0.00483556
0.00513
0.00519349
0.00560645
0.00635167
0.00657638
0.00663918
0.00650992
0.00592463
0.00503094
0.00357997
0.00155399
0.00242093
0.00376473
0.00406417
0.00481886
0.00453771
0.00447252
0.00403087
0.00380533
0.00386457
0.00413348
0.004373
0.00454012
0.00506239
0.00546564
0.00524564
0.00529526
0.00478154
0.00384822
0.00284337
0.00104743
0.00188925
0.00273587
0.00335256
0.00339431
0.00372363
0.00341964
0.00294287
0.00302407
0.0028146
0.00297492
0.00336299
0.00346998
0.00407247
0.00434082
0.0044777
0.00411182
0.00371826
0.00289017
0.00204434
0.000760267
0.00136247
0.00196636
0.00237086
0.0024678
0.00269858
0.00255307
0.00226994
0.00218364
0.00202124
0.00220569
0.00251328
0.00267394
0.0031716
0.003331
0.00322823
0.00331018
0.00295274
0.00230874
0.00183918
0.000216761
0.000981729
0.00125988
0.00180913
0.00193273
0.00175699
0.00177328
0.00146284
0.00163396
0.00127362
0.00155571
0.00140046
0.00210706
0.00208499
0.00227686
0.00229579
0.00218603
0.00198859
0.00165038
0.00116073
0.000254681
0.000589863
0.000740298
0.000886711
0.00107651
0.00114092
0.00103904
0.000549192
0.000877237
0.000908339
0.00074782
0.000901311
0.00115527
0.00128682
0.00152721
0.00134883
0.00142876
0.00143708
0.00116205
0.000688535
5.81948e-05
0.000150655
0.000273918
0.000367202
0.000308877
0.000549707
0.00036779
0.000439223
0.000539981
0.000388569
0.000131864
0.000427284
0.000404423
0.000362207
0.000447848
0.000391189
0.000303907
0.00021891
0.000386946
0.000139258
0.00551944
0.00691719
0.00812334
0.00938836
0.0102249
0.0101676
0.0101392
0.00977869
0.00953387
0.00946626
0.00975328
0.00981452
0.0100813
0.0107093
0.0106114
0.0108247
0.0104199
0.00941538
0.00817541
0.00661667
0.0040906
0.00547579
0.00683433
0.0076779
0.00818065
0.00823935
0.00819025
0.00824727
0.00794627
0.00787176
0.00795063
0.00807742
0.00850532
0.00880384
0.00913667
0.00908477
0.00865334
0.00795273
0.00661549
0.00536549
0.00311349
0.00437839
0.00538441
0.00612863
0.00653479
0.00689727
0.00654988
0.00657094
0.00651452
0.00629967
0.00661562
0.00673896
0.0071597
0.00737625
0.00738816
0.00734083
0.00721574
0.00649437
0.00543881
0.00449752
0.00218618
0.00325749
0.0042877
0.0049349
0.00512433
0.00536714
0.00543675
0.00531644
0.00503002
0.00511821
0.00487092
0.00511463
0.0056799
0.00583501
0.00590191
0.00598518
0.00592869
0.00518642
0.00455461
0.00357244
0.00164873
0.00261585
0.00309339
0.00362482
0.00412954
0.00409913
0.00414559
0.00395367
0.00355127
0.0038771
0.00381499
0.00410496
0.00422112
0.00451962
0.00485604
0.00476944
0.00439065
0.00421921
0.00350134
0.00271311
0.00092316
0.00163703
0.00235478
0.00250807
0.00282183
0.00293245
0.00264944
0.00269765
0.00272446
0.00281198
0.00275504
0.00291921
0.00295137
0.00326753
0.00328598
0.00341837
0.00311783
0.00293398
0.00250617
0.00186478
0.000741733
0.001123
0.00116647
0.00155097
0.00149262
0.00167725
0.00174557
0.0016483
0.00167819
0.00157212
0.00167024
0.00195499
0.00186995
0.0018313
0.00186904
0.00217893
0.00167306
0.00195816
0.00142012
0.00119444
0.000187986
0.00029508
0.000330179
0.000437442
0.000572039
0.000549737
0.000647648
0.000678633
0.000410156
0.000644293
0.000464282
0.000590646
0.000741521
0.000567219
0.000773949
0.000714089
0.000664782
0.000495229
0.000452667
0.000466416
0.00705271
0.00864899
0.0103553
0.0113752
0.0122499
0.012688
0.0127808
0.0124315
0.0125472
0.0124327
0.0123151
0.0127804
0.0127349
0.0133048
0.013175
0.0127248
0.0122107
0.0115427
0.00952367
0.00782431
0.00560581
0.00688707
0.00842163
0.00957702
0.0104347
0.0105027
0.0105321
0.0105027
0.010521
0.0103768
0.0103125
0.0108477
0.0107724
0.0108807
0.01116
0.0108714
0.0104941
0.00945015
0.0079524
0.00665458
0.00424059
0.00579319
0.0065378
0.00753635
0.00829145
0.00843861
0.00856377
0.00862083
0.00850627
0.0085827
0.00866549
0.00877248
0.00915864
0.00907771
0.00919027
0.00910389
0.00860881
0.00770562
0.00658423
0.00564427
0.00332416
0.00435797
0.0053253
0.0060715
0.00658865
0.00688969
0.00681846
0.00670188
0.00701525
0.00671488
0.00709456
0.00712634
0.00740423
0.00743166
0.0073918
0.00740396
0.00705765
0.00635704
0.00544759
0.00473196
0.0025355
0.00326522
0.0037787
0.00473787
0.00506502
0.0051854
0.00541292
0.00525375
0.00522621
0.00544868
0.00548192
0.00532671
0.00575981
0.00581747
0.00589938
0.00560491
0.00538891
0.00501602
0.00421079
0.00343177
0.00158606
0.00217634
0.0027268
0.00324396
0.00362304
0.00377636
0.00365179
0.0040239
0.00375803
0.00377626
0.00387384
0.0038634
0.00388618
0.00421311
0.00415996
0.00417375
0.00413898
0.00348972
0.00298362
0.00244071
0.0010054
0.00141492
0.0019309
0.00189584
0.0021223
0.00229753
0.00225705
0.00218139
0.00220669
0.00234764
0.00244064
0.00223544
0.00246178
0.00244828
0.00254817
0.00264381
0.00222406
0.00215526
0.00171451
0.00144565
0.000444471
0.000426204
0.000445019
0.000753713
0.000937122
0.000844375
0.000640842
0.000928755
0.000751989
0.000711892
0.000947769
0.000760256
0.000600969
0.00100252
0.000883342
0.00078563
0.000754164
0.00075449
0.000367057
0.000394252
0.00774178
0.00961441
0.0115274
0.0131523
0.0139112
0.0147121
0.0146631
0.0146731
0.0145786
0.0147191
0.0147438
0.0149384
0.0151043
0.0150246
0.0149399
0.0147248
0.0137606
0.0123728
0.0106747
0.00879995
0.00614738
0.00791568
0.00934878
0.0107008
0.0114657
0.0122222
0.0123975
0.0123868
0.0123635
0.0124422
0.0125684
0.0126782
0.0126668
0.0127669
0.0127613
0.0123384
0.0115623
0.0103686
0.00891829
0.00755165
0.00506661
0.00626137
0.00783177
0.00875715
0.00951498
0.0101409
0.0102386
0.0102614
0.0101885
0.0099832
0.0102068
0.0103401
0.0105117
0.0106177
0.0106139
0.0101134
0.00987429
0.00868463
0.00743836
0.00608475
0.00390676
0.00491725
0.00621577
0.0071488
0.00746862
0.00790288
0.00803863
0.00832975
0.0080899
0.00846854
0.00817439
0.00836411
0.00854927
0.00874193
0.00849273
0.00826611
0.00777501
0.00716039
0.00603886
0.00496793
0.00269
0.00370498
0.00473161
0.0054908
0.00589127
0.00614636
0.0063318
0.00662335
0.00626975
0.00654219
0.00645942
0.00654785
0.00680593
0.00696318
0.00684805
0.00656009
0.00610349
0.00560701
0.00471152
0.00406241
0.00202489
0.00259323
0.00337292
0.00367589
0.00404659
0.00453377
0.00460409
0.00467405
0.00465753
0.00460289
0.00461738
0.00476026
0.00480676
0.00479686
0.00492484
0.00461423
0.00435154
0.003949
0.00322983
0.00254304
0.00109906
0.00152955
0.00195039
0.00216842
0.00239112
0.00258378
0.00261574
0.00288731
0.00262324
0.00282612
0.00286035
0.002846
0.00295451
0.00278979
0.00298416
0.00284451
0.00272851
0.00247349
0.00206721
0.00153294
0.000419529
0.000410833
0.000763553
0.000722938
0.000903118
0.000785268
0.000841704
0.000960299
0.000908646
0.00112839
0.000995519
0.00109583
0.00122292
0.00113107
0.000742577
0.000931228
0.00100308
0.000913615
0.000692305
0.000572482
0.00786233
0.010076
0.012087
0.0138943
0.0148116
0.0154967
0.015895
0.0162122
0.0160573
0.0161764
0.0163478
0.0165351
0.0164119
0.0164525
0.016198
0.0153396
0.0143426
0.0128703
0.0108851
0.00899451
0.00636509
0.00793981
0.00990603
0.011162
0.0125347
0.0132116
0.0133986
0.0136635
0.0137
0.0136204
0.0138889
0.0139822
0.014095
0.0137859
0.0137181
0.0131506
0.012305
0.0109099
0.00924079
0.00756197
0.00489215
0.00645725
0.00818357
0.00937799
0.0103696
0.0107677
0.0111222
0.0113682
0.0113593
0.0114631
0.0114923
0.0116784
0.0118363
0.0115711
0.0117181
0.010956
0.0100588
0.00899834
0.00762857
0.0062204
0.00378001
0.00509387
0.00644653
0.00723186
0.00828102
0.00876918
0.00892918
0.00939478
0.00916714
0.00932569
0.00959325
0.00923476
0.00937338
0.00941183
0.00950649
0.00889458
0.00826967
0.00730665
0.00625406
0.00498475
0.00292682
0.00377684
0.00484391
0.00557857
0.00637515
0.00664942
0.00678185
0.00711191
0.00719861
0.007364
0.0071355
0.00723583
0.00733645
0.00740139
0.00734703
0.0070531
0.00667065
0.00591815
0.00484621
0.00405348
0.00215439
0.00276726
0.00340646
0.00397267
0.00441106
0.00505967
0.00501387
0.00505684
0.00515087
0.00523846
0.0051308
0.00533302
0.00533812
0.00527133
0.00531827
0.00514701
0.00449156
0.00401899
0.00336341
0.00284342
0.00103603
0.00144882
0.00198535
0.0025197
0.00268507
0.00285675
0.00297147
0.00300563
0.00303239
0.00304342
0.00312299
0.00324199
0.00344347
0.00307196
0.00315754
0.00286709
0.00277649
0.00253702
0.00199481
0.00163708
0.000384971
0.000405841
0.000757585
0.000854952
0.000940982
0.00106103
0.000865288
0.00125104
0.000950282
0.00108092
0.000879709
0.00126705
0.00102481
0.00134556
0.00119336
0.000896473
0.000938887
0.000720758
0.000619773
0.00068491
0.0073474
0.00958691
0.011716
0.0132877
0.0149573
0.0159817
0.0164533
0.0168334
0.0170528
0.0171225
0.0173888
0.0171891
0.0171523
0.0168739
0.0163181
0.0155965
0.0143269
0.0125304
0.0104128
0.00809383
0.0059238
0.00774396
0.00971859
0.0113107
0.0127989
0.0133524
0.0137889
0.0142251
0.0143314
0.0146497
0.0146075
0.0145031
0.0147335
0.014446
0.014041
0.0134458
0.0122349
0.0104757
0.00880079
0.00675356
0.00459929
0.00628717
0.00789608
0.00935104
0.0103524
0.0110974
0.0114631
0.0117511
0.0120963
0.0120825
0.012243
0.0121307
0.0122707
0.0119226
0.0117205
0.0110069
0.0103103
0.00870416
0.00728111
0.00571627
0.00343917
0.0048603
0.00625414
0.00733722
0.00808523
0.00896485
0.00929883
0.00942611
0.00975763
0.0100026
0.00982786
0.00998179
0.00991616
0.00977246
0.00953154
0.00895436
0.00835093
0.00703052
0.00608668
0.00469934
0.00255975
0.00360586
0.0045822
0.00568544
0.00635486
0.00683054
0.00739815
0.00737978
0.00758033
0.00768246
0.00776553
0.00771177
0.00768298
0.00771665
0.0074657
0.00710724
0.0062635
0.00552326
0.00461619
0.0037281
0.0017665
0.00259489
0.00357439
0.00399776
0.00441105
0.00503299
0.00503397
0.00507409
0.00542414
0.00546044
0.00544425
0.00572241
0.00557015
0.005365
0.00542782
0.00515245
0.0046726
0.00402647
0.00342629
0.00265966
0.00129757
0.00153272
0.00190372
0.00271236
0.0025942
0.0031193
0.00305134
0.00319206
0.00330795
0.00342336
0.00349801
0.00359508
0.00355582
0.00334725
0.00319594
0.00315396
0.00295774
0.00241911
0.00184305
0.001623
0.000270381
0.000439816
0.000754549
0.00111651
0.000761425
0.00110273
0.00101561
0.00108582
0.00133038
0.00119485
0.00121643
0.00116688
0.000883315
0.00118291
0.00107976
0.000942419
0.000790571
0.000773315
0.000690849
0.00076482
0.00615583
0.00851466
0.010906
0.0127039
0.0146268
0.0155439
0.0163338
0.0166914
0.0169362
0.0173763
0.0172272
0.0172244
0.0170523
0.0165105
0.0159647
0.0148178
0.0133981
0.0115345
0.00908584
0.00677548
0.00451436
0.00664098
0.00881392
0.0105491
0.0120205
0.0129484
0.0135658
0.0142031
0.0144914
0.0145747
0.014641
0.014582
0.0144766
0.0140574
0.0135705
0.0124573
0.0112499
0.00964898
0.00759221
0.00584153
0.00365653
0.0054835
0.00706963
0.00861957
0.0100701
0.0107477
0.0114198
0.0117522
0.0120556
0.0120232
0.0121938
0.0122352
0.0119937
0.0118358
0.0112084
0.0105476
0.00948933
0.00803378
0.0062813
0.00482229
0.00267411
0.00416349
0.00561617
0.00693286
0.00778941
0.00860298
0.0091355
0.00944619
0.00975817
0.00993465
0.0100876
0.00979997
0.00990514
0.00959042
0.0092248
0.00874274
0.00764324
0.00640712
0.00506001
0.00384885
0.00196108
0.00305703
0.00428632
0.00529141
0.00616457
0.00666842
0.00703269
0.00718194
0.00755075
0.00759942
0.0077478
0.00774036
0.00776329
0.00751454
0.00704815
0.0066414
0.00600806
0.00507809
0.00402749
0.00289829
0.00134935
0.00206728
0.0029759
0.00384232
0.00444116
0.00485699
0.005134
0.00534191
0.00543916
0.00552165
0.00558199
0.00571838
0.0057148
0.0054437
0.00505695
0.0047047
0.00422425
0.00345376
0.00281737
0.00221758
0.000703176
0.00133472
0.00157893
0.00212681
0.00275312
0.00282243
0.00304531
0.0031653
0.00317068
0.00344267
0.00341609
0.00351965
0.00339984
0.00337799
0.00303048
0.00279513
0.0025908
0.002215
0.00159921
0.00120836
0.00036621
0.000355569
0.000720073
0.00088512
0.00073279
0.00078238
0.00125245
0.00107794
0.00110544
0.00148215
0.00118127
0.00105868
0.00108738
0.00103561
0.00109576
0.00112729
0.000791954
0.000720958
0.000335455
0.000419071
0.00393652
0.0063726
0.0091748
0.011331
0.0130506
0.0141591
0.0152661
0.0158249
0.0164406
0.0164423
0.0163064
0.0164015
0.0161448
0.0156509
0.0146373
0.013577
0.0116613
0.00964755
0.0071647
0.00465019
0.00281339
0.00487303
0.00724348
0.00911078
0.0108629
0.0120046
0.0129932
0.0133281
0.0137284
0.0140127
0.0140004
0.0139849
0.0136882
0.013337
0.012384
0.0113987
0.0100067
0.00804057
0.00591554
0.00398681
0.00174618
0.00392253
0.00582002
0.00735983
0.00890836
0.0100545
0.0105481
0.0109983
0.0114206
0.0116168
0.011527
0.0115644
0.0112711
0.0112283
0.0104667
0.0093007
0.0082138
0.00666442
0.00452823
0.00309858
0.00144987
0.00286086
0.00475088
0.00600512
0.00704567
0.00787773
0.00843877
0.00891673
0.00908475
0.00944476
0.00932504
0.0093616
0.00936802
0.00902357
0.00838549
0.0076243
0.00650075
0.0052455
0.00372649
0.00245993
0.000751347
0.00213849
0.00336925
0.00442389
0.00551232
0.00621454
0.00665707
0.00701845
0.00714084
0.00751664
0.00720743
0.00754469
0.00722736
0.00705297
0.00644404
0.00601196
0.00508905
0.00408465
0.00286109
0.0018224
0.000697494
0.0012591
0.00236695
0.00312818
0.00385668
0.00440856
0.0046303
0.00494336
0.00504941
0.00541549
0.00548873
0.00518223
0.00531805
0.00494533
0.00471816
0.00422804
0.00368895
0.00306142
0.00185551
0.00125594
0.00025227
0.000897844
0.00127925
0.00171382
0.00238197
0.00266054
0.00285151
0.00295545
0.00315137
0.00352572
0.00337508
0.00326186
0.00298685
0.00302341
0.00309701
0.0026473
0.00230905
0.00159568
0.00118186
0.000639292
1.39476e-05
0.000252678
0.000733201
0.000807152
0.000823738
0.000936775
0.0010406
0.0010812
0.00110843
0.00118722
0.00100833
0.00125681
0.00112366
0.00103042
0.000981296
0.00082691
0.000850661
0.000501855
0.000504532
3.35311e-05
0.00116143
0.0037578
0.00639697
0.00889269
0.0107564
0.0123785
0.0135279
0.0141027
0.0146976
0.014887
0.0148539
0.0147308
0.0143985
0.0138501
0.0128286
0.0111503
0.0093328
0.00707631
0.0042931
0.00149883
0.000346898
0.00244481
0.00499575
0.00703404
0.00885126
0.00996564
0.0111716
0.0118064
0.0124343
0.0124082
0.0125084
0.0123296
0.0121328
0.0113685
0.0106975
0.0095314
0.00769665
0.00578296
0.00326377
0.00112522
0.00024739
0.00171968
0.00378044
0.00564844
0.00729434
0.00845686
0.00919097
0.00978829
0.0102757
0.0104577
0.0103567
0.0106358
0.00991161
0.00981394
0.00880831
0.0077881
0.00633954
0.00480089
0.0027272
0.000650339
0.00037935
0.0010989
0.00293807
0.00445998
0.00555454
0.00657336
0.00749395
0.00798087
0.00812043
0.00855784
0.00832141
0.00846644
0.0081024
0.00794873
0.00693806
0.00606623
0.00512117
0.00375136
0.00211672
0.0005467
0.000621795
0.000456691
0.00209493
0.00335558
0.00438679
0.00490722
0.00553526
0.00602053
0.00627076
0.00659055
0.00642707
0.00659694
0.00633509
0.00611008
0.00550101
0.00462169
0.00366974
0.00299507
0.0013436
0.000375097
0.000493266
0.00015245
0.00144589
0.00238807
0.00313972
0.00358667
0.00425795
0.00441949
0.00458514
0.00477214
0.00468479
0.00479227
0.00450591
0.00430913
0.00384571
0.00331876
0.00269793
0.00197979
0.000907236
5.49083e-06
0.000358388
9.88421e-05
0.0010249
0.00135964
0.00181798
0.00225547
0.00242757
0.002569
0.0027556
0.00290512
0.00314124
0.00285869
0.00255278
0.00265633
0.00220699
0.00213122
0.00177065
0.00117576
0.000434143
4.35117e-05
0.000103164
2.67251e-05
0.000299586
0.000378957
0.000710377
0.000663116
0.000889565
0.000953222
0.00072487
0.000917457
0.00107851
0.000936575
0.000799821
0.00105819
0.000953113
0.000595954
0.000586963
0.000334591
0.000157159
0.000119185
0.002539
0.000268715
0.0030829
0.00582306
0.00792655
0.00950461
0.0107036
0.0114852
0.012235
0.0125803
0.0125173
0.0123148
0.0117699
0.0110092
0.00977129
0.00802841
0.00612683
0.00375152
0.00100737
0.0022133
0.00277209
0.000557475
0.002062
0.00427616
0.00609368
0.00774349
0.00873883
0.00962222
0.0101708
0.0104972
0.0104748
0.0101365
0.0099595
0.00902295
0.00820019
0.00673965
0.00510526
0.00259116
0.000284839
0.00217445
0.00307231
0.00100722
0.00126705
0.00340279
0.00460734
0.00628955
0.00729738
0.00763266
0.00815951
0.00850596
0.00860027
0.00844424
0.00809513
0.00751986
0.00663864
0.00521815
0.0037313
0.00210114
0.000130116
0.00231543
0.00290856
0.00128233
0.000775825
0.00237977
0.00374876
0.00460779
0.00556521
0.00609513
0.00657528
0.00683279
0.00682894
0.00689528
0.00648036
0.00619519
0.00515065
0.00436475
0.0029198
0.00158321
7.43007e-05
0.00173963
0.0022241
0.00104791
0.000294013
0.00172653
0.00291723
0.00360368
0.00434428
0.00471006
0.00509673
0.00536914
0.00515829
0.00544215
0.00504884
0.00446189
0.00391138
0.00336271
0.00221618
0.00126827
0.000280782
0.00165516
0.00197745
0.000844403
7.474e-05
0.000969731
0.00182335
0.00249308
0.00303121
0.00350008
0.00363683
0.00383253
0.00346643
0.00368668
0.00367375
0.00339421
0.00296899
0.00220631
0.00156683
0.000742635
0.000408462
0.00120149
0.00122001
0.000484433
3.02464e-05
0.00056742
0.000858793
0.00141769
0.00175099
0.00199919
0.00209868
0.00223574
0.00247238
0.00226889
0.00216196
0.00214905
0.00167116
0.00135759
0.000962608
0.000367458
0.00016154
0.000777589
0.000441448
0.000288899
0.000167947
1.73615e-05
0.000439991
0.000390408
0.000587625
0.000810913
0.000951432
0.000875407
0.000800233
0.000981742
0.000485383
0.00054995
0.000593726
0.000392557
0.000507291
0.000130184
0.000112551
0.000222447
0.0070049
0.00406183
0.000963209
0.00160492
0.00398293
0.00583707
0.0071345
0.00822115
0.00872565
0.00927547
0.00926946
0.00888466
0.00841551
0.00737853
0.00604251
0.00435913
0.00226414
0.00060422
0.00355632
0.00651763
0.00674817
0.00427441
0.0016812
0.00100243
0.00288315
0.00442092
0.00549528
0.00643651
0.00711469
0.00749909
0.00723744
0.00711058
0.00670094
0.0059392
0.00477361
0.00314493
0.00123841
0.00120016
0.00349716
0.00589638
0.00637966
0.00443483
0.00191356
3.18549e-05
0.00194702
0.00322379
0.004493
0.00491697
0.00544569
0.00581057
0.00612469
0.00566323
0.00532557
0.00478289
0.00395903
0.00236477
0.00085816
0.00108339
0.00339463
0.00535082
0.00557665
0.00389168
0.00195129
0.000125507
0.0012073
0.00252139
0.00322684
0.00403326
0.00436319
0.00472716
0.00481101
0.00452952
0.00425304
0.00370233
0.00286495
0.00171783
0.000260807
0.00137562
0.00322182
0.00488738
0.00471808
0.00322595
0.00179952
0.00040742
0.000768247
0.00163296
0.00247441
0.00311585
0.00339216
0.00364008
0.00365183
0.00340087
0.00309407
0.00284348
0.00210891
0.00141499
0.000363116
0.000939897
0.00264173
0.00389799
0.00347197
0.00246497
0.0013888
0.000235476
0.000426526
0.00113953
0.00162367
0.00215646
0.00237579
0.00239798
0.00254243
0.00243433
0.00216434
0.0018314
0.00147252
0.000728633
9.76795e-05
0.000855682
0.00185577
0.00293516
0.00226791
0.00167955
0.00087103
0.000227806
0.000278461
0.000532258
0.00110858
0.00102646
0.00137264
0.00155893
0.00164803
0.00143676
0.00124232
0.00128228
0.00117075
0.000619429
8.80257e-05
0.000572218
0.001069
0.00171011
0.000650936
0.00064132
0.00031875
7.0982e-07
0.000210235
0.000208925
0.000191045
0.000634304
0.000319089
0.000471096
0.000570492
0.000629236
0.000325265
0.000426871
0.000417068
4.44682e-05
0.000143544
6.28777e-05
0.000434307
0.000482611
0.0119248
0.00925495
0.00592207
0.00295528
0.000559842
0.00119729
0.00270886
0.00376257
0.00447403
0.00499585
0.00499214
0.00476905
0.0040508
0.00289586
0.00154656
0.000406078
0.00287992
0.00568129
0.00882629
0.0116971
0.0113566
0.00884371
0.00605529
0.00333895
0.00119678
0.00050321
0.00166926
0.00285857
0.00322115
0.00365627
0.00372795
0.003427
0.0029691
0.00214639
0.000803422
0.00086626
0.00308071
0.00553205
0.00824526
0.0107705
0.0102652
0.00808073
0.00578786
0.00335137
0.00175952
0.000163825
0.00116979
0.00179167
0.00234326
0.00287508
0.00285457
0.00261146
0.00227982
0.0015957
0.000331151
0.00111845
0.00291343
0.00504452
0.0072226
0.00945806
0.0089118
0.00731662
0.00518588
0.0033364
0.0017729
0.000326149
0.000559677
0.00136506
0.00174452
0.00216513
0.00202203
0.00199827
0.00134096
0.000740814
9.82891e-05
0.00103616
0.00252943
0.00427625
0.00619722
0.00798789
0.00722518
0.00589658
0.00432529
0.00282005
0.00155389
0.000483813
0.000359588
0.0006925
0.00119569
0.00145642
0.00148332
0.00140742
0.00113879
0.000408741
0.000183481
0.00117935
0.00234717
0.00360295
0.00521555
0.00634571
0.00552597
0.00430788
0.00317042
0.00221801
0.00113298
0.000365086
0.000111699
0.00077352
0.000934336
0.000967106
0.00103496
0.000889124
0.000789288
0.000369129
0.000169781
0.000966389
0.00181294
0.0026865
0.00383861
0.00498575
0.00353104
0.00267168
0.0019997
0.00142102
0.00102264
0.000450671
6.72044e-05
0.000382454
0.000305465
0.000581008
0.000562467
0.000377525
0.000356175
0.000251369
1.69907e-05
0.000780288
0.00125061
0.00172258
0.00242012
0.00302724
0.00101658
0.000983142
0.000662058
0.000664992
0.000291874
5.9313e-05
2.96624e-05
6.7276e-06
0.000114713
0.000307285
0.000279234
0.00019695
0.000128936
5.85186e-05
3.52096e-05
0.000369575
0.000261701
0.000617244
0.00081996
0.00105017
0.0179543
0.0149043
0.0113923
0.00846883
0.00599964
0.00394517
0.00244113
0.00120677
0.000683728
8.39816e-05
6.69545e-05
0.000282628
0.00118185
0.00233544
0.00379621
0.00595101
0.00844032
0.0113384
0.0143902
0.0176661
0.0164612
0.0139135
0.0108239
0.00846481
0.00618128
0.00433504
0.00298454
0.00189149
0.00108082
0.000777603
0.00104758
0.00102857
0.00178566
0.00259521
0.00382908
0.0057827
0.00793421
0.0104431
0.0133709
0.0159586
0.0148896
0.0124503
0.00984828
0.00784239
0.00577416
0.00442259
0.00304739
0.0020509
0.00136091
0.00128653
0.000955259
0.00126687
0.00191433
0.00250206
0.00367468
0.00540381
0.00715426
0.00954139
0.0118371
0.0138901
0.0127645
0.0109425
0.00877305
0.00685557
0.005177
0.00399987
0.00282565
0.00220621
0.00162291
0.00137648
0.00120165
0.00138574
0.0019101
0.00248841
0.00349698
0.00484701
0.00636282
0.00821478
0.0101412
0.0118977
0.0104085
0.00883381
0.00719962
0.0055402
0.00439353
0.00330037
0.00232111
0.0020411
0.00136452
0.00101619
0.000982155
0.00112405
0.0015083
0.00219942
0.00292394
0.00391928
0.00556232
0.00658862
0.00817422
0.00953171
0.00754207
0.00681878
0.00523362
0.0043652
0.00302678
0.00241879
0.00203589
0.0015681
0.000930106
0.000987342
0.000719672
0.00116418
0.00128351
0.00185267
0.00203823
0.00288658
0.00389863
0.00521283
0.00593554
0.00707589
0.00491875
0.00415939
0.00336681
0.0026735
0.00215601
0.00155835
0.0011194
0.00090412
0.000864325
0.00081014
0.000514478
0.000657366
0.00089668
0.001198
0.00119116
0.0018391
0.00250945
0.00317017
0.00367959
0.00445665
0.00164291
0.00145352
0.00100246
0.000867073
0.00058284
0.000710701
0.000362668
0.000393846
0.000119115
0.000153101
0.000253012
0.000305315
0.000158908
0.000392873
0.000511544
0.000406011
0.00096671
0.000937334
0.00138609
0.00156884
0.0243175
0.0211376
0.0175921
0.0148402
0.0120021
0.00994286
0.00829589
0.00695256
0.00636754
0.00585318
0.00584725
0.006308
0.00709543
0.00810178
0.010032
0.0119328
0.0146525
0.0176013
0.0209378
0.0241585
0.0220763
0.0194198
0.0165823
0.0137229
0.0114578
0.00957705
0.008011
0.00728501
0.00649919
0.00577558
0.00576125
0.00623018
0.00674092
0.00785129
0.0093606
0.0112046
0.013255
0.0159776
0.0191073
0.0218825
0.0198075
0.0174012
0.0149152
0.0125942
0.0106116
0.00888432
0.00757447
0.00675915
0.00597914
0.00560325
0.00561221
0.00582575
0.00636359
0.00729731
0.00829128
0.0100163
0.0120301
0.0142029
0.016908
0.0190305
0.0167193
0.0149079
0.0129515
0.0108878
0.0088578
0.00783909
0.00668034
0.00602211
0.00528133
0.00500467
0.00498374
0.00521314
0.00562898
0.00642133
0.00707613
0.00892332
0.0103177
0.0122406
0.0141979
0.0162826
0.0136275
0.0122207
0.0105083
0.00887014
0.00739157
0.00622439
0.00547689
0.00492312
0.00430494
0.00434846
0.00393224
0.0042989
0.00466262