/*--------------------------------*- C++ -*----------------------------------*\
| =========                 |                                                 |
| \\      /  F ield         | OpenFOAM: The Open Source CFD Toolbox           |
|  \\    /   O peration     | Version:  2212                                  |
|   \\  /    A nd           | Website:  www.openfoam.com                      |
|    \\/     M anipulation  |                                                 |
\*---------------------------------------------------------------------------*/
FoamFile
{
    version     2.0;
    format      ascii;
    arch        "LSB;label=32;scalar=64";
    class       volScalarField;
    location    "0";
    object      Ttrue;
}
// * * * * * * * * * * * * * * * * * * * * * * * * * * * * * * * * * * * * * //

dimensions      [0 0 0 1 0 0 0];

internalField   nonuniform List<scalar> 
3200
(
344.691
344.954
345.29
345.655
346.032
346.402
346.743
347.032
347.242
347.352
347.352
347.242
347.032
346.743
346.402
346.032
345.655
345.29
344.954
344.691
338.704
338.926
339.216
339.532
339.858
340.178
340.473
340.722
340.904
340.999
340.999
340.904
340.722
340.473
340.178
339.858
339.532
339.216
338.926
338.704
332.729
332.914
333.158
333.425
333.701
333.971
334.22
334.43
334.583
334.664
334.664
334.583
334.43
334.22
333.971
333.701
333.425
333.158
332.914
332.729
326.767
326.915
327.114
327.332
327.558
327.779
327.982
328.154
328.278
328.344
328.344
328.278
328.154
327.982
327.779
327.558
327.332
327.114
326.915
326.767
320.813
320.928
321.082
321.252
321.427
321.598
321.756
321.89
321.987
322.038
322.038
321.987
321.89
321.756
321.598
321.427
321.252
321.082
320.928
320.813
314.868
314.949
315.059
315.18
315.305
315.428
315.541
315.636
315.705
315.741
315.741
315.705
315.636
315.541
315.428
315.305
315.18
315.059
314.949
314.868
308.929
308.977
309.043
309.116
309.191
309.264
309.332
309.389
309.431
309.452
309.452
309.431
309.389
309.332
309.264
309.191
309.116
309.043
308.977
308.929
302.993
303.009
303.031
303.055
303.08
303.105
303.128
303.147
303.161
303.168
303.168
303.161
303.147
303.128
303.105
303.08
303.055
303.031
303.009
302.993
344.877
345.138
345.47
345.833
346.206
346.571
346.909
347.193
347.401
347.51
347.51
347.401
347.193
346.909
346.571
346.206
345.833
345.47
345.138
344.877
338.864
339.085
339.372
339.686
340.008
340.325
340.616
340.862
341.041
341.136
341.136
341.041
340.862
340.616
340.325
340.008
339.686
339.372
339.085
338.864
332.865
333.048
333.29
333.555
333.828
334.095
334.341
334.549
334.7
334.779
334.779
334.7
334.549
334.341
334.095
333.828
333.555
333.29
333.048
332.865
326.877
327.025
327.222
327.438
327.661
327.88
328.081
328.25
328.374
328.439
328.439
328.374
328.25
328.081
327.88
327.661
327.438
327.222
327.025
326.877
320.9
321.013
321.166
321.334
321.507
321.677
321.833
321.965
322.061
322.111
322.111
322.061
321.965
321.833
321.677
321.507
321.334
321.166
321.013
320.9
314.93
315.01
315.119
315.239
315.363
315.484
315.596
315.689
315.758
315.794
315.794
315.758
315.689
315.596
315.484
315.363
315.239
315.119
315.01
314.93
308.966
309.013
309.079
309.151
309.225
309.298
309.365
309.421
309.462
309.484
309.484
309.462
309.421
309.365
309.298
309.225
309.151
309.079
309.013
308.966
303.005
303.021
303.043
303.067
303.092
303.116
303.139
303.158
303.171
303.179
303.179
303.171
303.158
303.139
303.116
303.092
303.067
303.043
303.021
303.005
345.249
345.505
345.832
346.188
346.553
346.911
347.241
347.518
347.72
347.827
347.827
347.72
347.518
347.241
346.911
346.553
346.188
345.832
345.505
345.249
339.186
339.403
339.685
339.993
340.309
340.619
340.904
341.144
341.318
341.41
341.41
341.318
341.144
340.904
340.619
340.309
339.993
339.685
339.403
339.186
333.137
333.317
333.555
333.815
334.082
334.343
334.584
334.787
334.934
335.011
335.011
334.934
334.787
334.584
334.343
334.082
333.815
333.555
333.317
333.137
327.099
327.244
327.438
327.651
327.869
328.083
328.28
328.445
328.565
328.628
328.628
328.565
328.445
328.28
328.083
327.869
327.651
327.438
327.244
327.099
321.072
321.183
321.334
321.499
321.669
321.835
321.988
322.116
322.209
322.259
322.259
322.209
322.116
321.988
321.835
321.669
321.499
321.334
321.183
321.072
315.053
315.132
315.239
315.357
315.478
315.597
315.706
315.797
315.864
315.899
315.899
315.864
315.797
315.706
315.597
315.478
315.357
315.239
315.132
315.053
309.04
309.087
309.151
309.222
309.294
309.366
309.431
309.486
309.526
309.547
309.547
309.526
309.486
309.431
309.366
309.294
309.222
309.151
309.087
309.04
303.03
303.045
303.067
303.091
303.115
303.139
303.161
303.179
303.193
303.2
303.2
303.193
303.179
303.161
303.139
303.115
303.091
303.067
303.045
303.03
345.807
346.057
346.376
346.722
347.077
347.423
347.742
348.009
348.204
348.306
348.306
348.204
348.009
347.742
347.423
347.077
346.722
346.376
346.057
345.807
339.669
339.881
340.156
340.455
340.762
341.062
341.337
341.569
341.736
341.825
341.825
341.736
341.569
341.337
341.062
340.762
340.455
340.156
339.881
339.669
333.544
333.721
333.952
334.205
334.465
334.718
334.95
335.146
335.287
335.362
335.362
335.287
335.146
334.95
334.718
334.465
334.205
333.952
333.721
333.544
327.433
327.574
327.763
327.97
328.182
328.389
328.579
328.738
328.854
328.915
328.915
328.854
328.738
328.579
328.389
328.182
327.97
327.763
327.574
327.433
321.331
321.44
321.586
321.747
321.912
322.073
322.22
322.344
322.434
322.481
322.481
322.434
322.344
322.22
322.073
321.912
321.747
321.586
321.44
321.331
315.238
315.315
315.419
315.534
315.652
315.767
315.872
315.96
316.024
316.058
316.058
316.024
315.96
315.872
315.767
315.652
315.534
315.419
315.315
315.238
309.151
309.196
309.259
309.328
309.399
309.468
309.531
309.584
309.622
309.643
309.643
309.622
309.584
309.531
309.468
309.399
309.328
309.259
309.196
309.151
303.067
303.082
303.103
303.126
303.15
303.173
303.194
303.212
303.225
303.232
303.232
303.225
303.212
303.194
303.173
303.15
303.126
303.103
303.082
303.067
346.552
346.795
347.104
347.437
347.778
348.11
348.414
348.669
348.854
348.952
348.952
348.854
348.669
348.414
348.11
347.778
347.437
347.104
346.795
346.552
340.313
340.519
340.785
341.074
341.369
341.656
341.919
342.14
342.3
342.384
342.384
342.3
342.14
341.919
341.656
341.369
341.074
340.785
340.519
340.313
334.089
334.26
334.484
334.728
334.977
335.22
335.442
335.629
335.764
335.835
335.835
335.764
335.629
335.442
335.22
334.977
334.728
334.484
334.26
334.089
327.878
328.015
328.198
328.397
328.601
328.8
328.981
329.133
329.243
329.301
329.301
329.243
329.133
328.981
328.8
328.601
328.397
328.198
328.015
327.878
321.677
321.782
321.924
322.079
322.238
322.392
322.533
322.651
322.737
322.782
322.782
322.737
322.651
322.533
322.392
322.238
322.079
321.924
321.782
321.677
315.485
315.559
315.66
315.771
315.884
315.994
316.095
316.18
316.241
316.273
316.273
316.241
316.18
316.095
315.994
315.884
315.771
315.66
315.559
315.485
309.299
309.343
309.404
309.47
309.538
309.604
309.665
309.716
309.752
309.772
309.772
309.752
309.716
309.665
309.604
309.538
309.47
309.404
309.343
309.299
303.117
303.132
303.152
303.174
303.197
303.219
303.239
303.256
303.269
303.275
303.275
303.269
303.256
303.239
303.219
303.197
303.174
303.152
303.132
303.117
347.486
347.72
348.016
348.335
348.66
348.975
349.263
349.504
349.678
349.769
349.769
349.678
349.504
349.263
348.975
348.66
348.335
348.016
347.72
347.486
341.121
341.319
341.574
341.851
342.132
342.405
342.654
342.862
343.012
343.091
343.091
343.012
342.862
342.654
342.405
342.132
341.851
341.574
341.319
341.121
334.771
334.936
335.151
335.384
335.622
335.853
336.063
336.239
336.366
336.433
336.433
336.366
336.239
336.063
335.853
335.622
335.384
335.151
334.936
334.771
328.435
328.567
328.743
328.933
329.128
329.316
329.488
329.632
329.736
329.79
329.79
329.736
329.632
329.488
329.316
329.128
328.933
328.743
328.567
328.435
322.11
322.212
322.348
322.496
322.647
322.794
322.927
323.039
323.119
323.162
323.162
323.119
323.039
322.927
322.794
322.647
322.496
322.348
322.212
322.11
315.794
315.866
315.963
316.069
316.177
316.281
316.377
316.456
316.514
316.544
316.544
316.514
316.456
316.377
316.281
316.177
316.069
315.963
315.866
315.794
309.484
309.527
309.585
309.649
309.714
309.777
309.834
309.882
309.916
309.934
309.934
309.916
309.882
309.834
309.777
309.714
309.649
309.585
309.527
309.484
303.179
303.193
303.213
303.234
303.256
303.277
303.296
303.312
303.324
303.33
303.33
303.324
303.312
303.296
303.277
303.256
303.234
303.213
303.193
303.179
348.609
348.833
349.115
349.418
349.725
350.021
350.291
350.516
350.678
350.763
350.763
350.678
350.516
350.291
350.021
349.725
349.418
349.115
348.833
348.609
342.093
342.282
342.525
342.787
343.053
343.31
343.544
343.738
343.878
343.952
343.952
343.878
343.738
343.544
343.31
343.053
342.787
342.525
342.282
342.093
335.592
335.749
335.954
336.176
336.4
336.618
336.815
336.979
337.098
337.16
337.16
337.098
336.979
336.815
336.618
336.4
336.176
335.954
335.749
335.592
329.106
329.232
329.399
329.58
329.764
329.942
330.103
330.237
330.334
330.385
330.385
330.334
330.237
330.103
329.942
329.764
329.58
329.399
329.232
329.106
322.631
322.728
322.858
322.999
323.142
323.28
323.405
323.509
323.584
323.624
323.624
323.584
323.509
323.405
323.28
323.142
322.999
322.858
322.728
322.631
316.166
316.235
316.327
316.428
316.53
316.628
316.718
316.792
316.846
316.874
316.874
316.846
316.792
316.718
316.628
316.53
316.428
316.327
316.235
316.166
309.708
309.749
309.804
309.865
309.926
309.985
310.039
310.084
310.116
310.133
310.133
310.116
310.084
310.039
309.985
309.926
309.865
309.804
309.749
309.708
303.254
303.267
303.286
303.306
303.327
303.347
303.365
303.38
303.39
303.396
303.396
303.39
303.38
303.365
303.347
303.327
303.306
303.286
303.267
303.254
349.923
350.135
350.402
350.688
350.976
351.253
351.504
351.712
351.862
351.94
351.94
351.862
351.712
351.504
351.253
350.976
350.688
350.402
350.135
349.923
343.229
343.409
343.639
343.886
344.136
344.375
344.593
344.773
344.902
344.97
344.97
344.902
344.773
344.593
344.375
344.136
343.886
343.639
343.409
343.229
336.552
336.701
336.895
337.104
337.315
337.518
337.701
337.854
337.963
338.021
338.021
337.963
337.854
337.701
337.518
337.315
337.104
336.895
336.701
336.552
329.89
330.01
330.168
330.339
330.512
330.677
330.828
330.952
331.042
331.088
331.088
331.042
330.952
330.828
330.677
330.512
330.339
330.168
330.01
329.89
323.241
323.333
323.456
323.588
323.722
323.851
323.968
324.065
324.134
324.171
324.171
324.134
324.065
323.968
323.851
323.722
323.588
323.456
323.333
323.241
316.601
316.666
316.754
316.849
316.945
317.037
317.12
317.189
317.239
317.265
317.265
317.239
317.189
317.12
317.037
316.945
316.849
316.754
316.666
316.601
309.969
310.008
310.06
310.117
310.175
310.23
310.28
310.322
310.352
310.367
310.367
310.352
310.322
310.28
310.23
310.175
310.117
310.06
310.008
309.969
303.341
303.354
303.372
303.391
303.41
303.429
303.446
303.459
303.469
303.475
303.475
303.469
303.459
303.446
303.429
303.41
303.391
303.372
303.354
303.341
351.428
351.629
351.88
352.147
352.416
352.673
352.904
353.096
353.233
353.305
353.305
353.233
353.096
352.904
352.673
352.416
352.147
351.88
351.629
351.428
344.531
344.701
344.918
345.149
345.382
345.604
345.804
345.97
346.089
346.151
346.151
346.089
345.97
345.804
345.604
345.382
345.149
344.918
344.701
344.531
337.652
337.793
337.976
338.171
338.368
338.556
338.726
338.866
338.966
339.018
339.018
338.966
338.866
338.726
338.556
338.368
338.171
337.976
337.793
337.652
330.789
330.902
331.051
331.211
331.372
331.526
331.664
331.779
331.861
331.904
331.904
331.861
331.779
331.664
331.526
331.372
331.211
331.051
330.902
330.789
323.939
324.026
324.142
324.266
324.391
324.511
324.619
324.708
324.771
324.805
324.805
324.771
324.708
324.619
324.511
324.391
324.266
324.142
324.026
323.939
317.1
317.162
317.244
317.333
317.422
317.508
317.585
317.648
317.694
317.717
317.717
317.694
317.648
317.585
317.508
317.422
317.333
317.244
317.162
317.1
310.268
310.305
310.355
310.408
310.462
310.513
310.559
310.597
310.625
310.639
310.639
310.625
310.597
310.559
310.513
310.462
310.408
310.355
310.305
310.268
303.442
303.454
303.47
303.488
303.506
303.523
303.539
303.552
303.561
303.566
303.566
303.561
303.552
303.539
303.523
303.506
303.488
303.47
303.454
303.442
353.127
353.315
353.55
353.799
354.048
354.284
354.497
354.672
354.796
354.862
354.862
354.796
354.672
354.497
354.284
354.048
353.799
353.55
353.315
353.127
346
346.16
346.363
346.578
346.793
346.998
347.182
347.334
347.442
347.498
347.498
347.442
347.334
347.182
346.998
346.793
346.578
346.363
346.16
346
338.893
339.026
339.197
339.379
339.561
339.734
339.89
340.018
340.109
340.157
340.157
340.109
340.018
339.89
339.734
339.561
339.379
339.197
339.026
338.893
331.803
331.91
332.049
332.198
332.347
332.489
332.616
332.721
332.796
332.835
332.835
332.796
332.721
332.616
332.489
332.347
332.198
332.049
331.91
331.803
324.727
324.809
324.917
325.033
325.149
325.259
325.358
325.439
325.498
325.528
325.528
325.498
325.439
325.358
325.259
325.149
325.033
324.917
324.809
324.727
317.663
317.721
317.798
317.88
317.963
318.042
318.113
318.171
318.212
318.234
318.234
318.212
318.171
318.113
318.042
317.963
317.88
317.798
317.721
317.663
310.606
310.641
310.687
310.737
310.786
310.834
310.876
310.911
310.936
310.949
310.949
310.936
310.911
310.876
310.834
310.786
310.737
310.687
310.641
310.606
303.555
303.566
303.582
303.598
303.615
303.631
303.645
303.657
303.665
303.67
303.67
303.665
303.657
303.645
303.631
303.615
303.598
303.582
303.566
303.555
355.019
355.196
355.414
355.645
355.874
356.091
356.284
356.443
356.556
356.615
356.615
356.556
356.443
356.284
356.091
355.874
355.645
355.414
355.196
355.019
347.638
347.787
347.975
348.175
348.373
348.561
348.729
348.867
348.965
349.016
349.016
348.965
348.867
348.729
348.561
348.373
348.175
347.975
347.787
347.638
340.276
340.4
340.559
340.728
340.896
341.055
341.197
341.313
341.396
341.439
341.439
341.396
341.313
341.197
341.055
340.896
340.728
340.559
340.4
340.276
332.933
333.033
333.163
333.301
333.438
333.568
333.684
333.779
333.847
333.882
333.882
333.847
333.779
333.684
333.568
333.438
333.301
333.163
333.033
332.933
325.606
325.682
325.783
325.89
325.997
326.098
326.188
326.262
326.315
326.342
326.342
326.315
326.262
326.188
326.098
325.997
325.89
325.783
325.682
325.606
318.29
318.344
318.416
318.492
318.569
318.641
318.705
318.758
318.796
318.815
318.815
318.796
318.758
318.705
318.641
318.569
318.492
318.416
318.344
318.29
310.983
311.015
311.058
311.104
311.15
311.193
311.232
311.264
311.286
311.298
311.298
311.286
311.264
311.232
311.193
311.15
311.104
311.058
311.015
310.983
303.681
303.692
303.706
303.722
303.737
303.751
303.764
303.775
303.783
303.787
303.787
303.783
303.775
303.764
303.751
303.737
303.722
303.706
303.692
303.681
357.107
357.271
357.474
357.686
357.896
358.094
358.27
358.413
358.515
358.568
358.568
358.515
358.413
358.27
358.094
357.896
357.686
357.474
357.271
357.107
349.443
349.582
349.757
349.941
350.123
350.295
350.447
350.571
350.66
350.705
350.705
350.66
350.571
350.447
350.295
350.123
349.941
349.757
349.582
349.443
341.802
341.917
342.065
342.22
342.374
342.519
342.648
342.753
342.828
342.867
342.867
342.828
342.753
342.648
342.519
342.374
342.22
342.065
341.917
341.802
334.18
334.273
334.393
334.52
334.646
334.765
334.87
334.956
335.017
335.049
335.049
335.017
334.956
334.87
334.765
334.646
334.52
334.393
334.273
334.18
326.574
326.645
326.739
326.838
326.936
327.028
327.11
327.177
327.224
327.249
327.249
327.224
327.177
327.11
327.028
326.936
326.838
326.739
326.645
326.574
318.981
319.032
319.098
319.169
319.239
319.305
319.364
319.411
319.445
319.463
319.463
319.445
319.411
319.364
319.305
319.239
319.169
319.098
319.032
318.981
311.398
311.428
311.468
311.51
311.552
311.592
311.627
311.656
311.676
311.687
311.687
311.676
311.656
311.627
311.592
311.552
311.51
311.468
311.428
311.398
303.82
303.83
303.843
303.858
303.872
303.885
303.897
303.907
303.913
303.917
303.917
303.913
303.907
303.897
303.885
303.872
303.858
303.843
303.83
303.82
359.389
359.542
359.729
359.924
360.116
360.296
360.455
360.584
360.676
360.723
360.723
360.676
360.584
360.455
360.296
360.116
359.924
359.729
359.542
359.389
351.418
351.547
351.708
351.877
352.043
352.199
352.337
352.449
352.528
352.57
352.57
352.528
352.449
352.337
352.199
352.043
351.877
351.708
351.547
351.418
343.47
343.577
343.713
343.856
343.997
344.128
344.245
344.34
344.407
344.442
344.442
344.407
344.34
344.245
344.128
343.997
343.856
343.713
343.577
343.47
335.543
335.629
335.74
335.857
335.972
336.08
336.175
336.253
336.308
336.336
336.336
336.308
336.253
336.175
336.08
335.972
335.857
335.74
335.629
335.543
327.633
327.699
327.785
327.876
327.966
328.05
328.124
328.184
328.227
328.249
328.249
328.227
328.184
328.124
328.05
327.966
327.876
327.785
327.699
327.633
319.738
319.784
319.846
319.911
319.975
320.035
320.088
320.131
320.161
320.177
320.177
320.161
320.131
320.088
320.035
319.975
319.911
319.846
319.784
319.738
311.852
311.88
311.917
311.956
311.994
312.03
312.062
312.088
312.106
312.116
312.116
312.106
312.088
312.062
312.03
311.994
311.956
311.917
311.88
311.852
303.972
303.981
303.994
304.007
304.02
304.032
304.043
304.051
304.057
304.061
304.061
304.057
304.051
304.043
304.032
304.02
304.007
303.994
303.981
303.972
361.866
362.007
362.179
362.358
362.533
362.696
362.839
362.955
363.037
363.079
363.079
363.037
362.955
362.839
362.696
362.533
362.358
362.179
362.007
361.866
353.56
353.679
353.828
353.983
354.134
354.275
354.4
354.5
354.571
354.608
354.608
354.571
354.5
354.4
354.275
354.134
353.983
353.828
353.679
353.56
345.279
345.378
345.504
345.634
345.763
345.882
345.987
346.072
346.133
346.164
346.164
346.133
346.072
345.987
345.882
345.763
345.634
345.504
345.378
345.279
337.021
337.101
337.203
337.31
337.415
337.513
337.599
337.669
337.718
337.743
337.743
337.718
337.669
337.599
337.513
337.415
337.31
337.203
337.101
337.021
328.782
328.843
328.922
329.006
329.087
329.163
329.23
329.285
329.323
329.343
329.343
329.323
329.285
329.23
329.163
329.087
329.006
328.922
328.843
328.782
320.558
320.601
320.657
320.717
320.775
320.83
320.877
320.916
320.944
320.958
320.958
320.944
320.916
320.877
320.83
320.775
320.717
320.657
320.601
320.558
312.344
312.37
312.404
312.44
312.475
312.507
312.536
312.559
312.576
312.584
312.584
312.576
312.559
312.536
312.507
312.475
312.44
312.404
312.37
312.344
304.137
304.146
304.157
304.169
304.181
304.192
304.201
304.209
304.215
304.218
304.218
304.215
304.209
304.201
304.192
304.181
304.169
304.157
304.146
304.137
364.533
364.663
364.821
364.985
365.143
365.291
365.419
365.523
365.597
365.634
365.634
365.597
365.523
365.419
365.291
365.143
364.985
364.821
364.663
364.533
355.866
355.976
356.112
356.254
356.391
356.519
356.631
356.721
356.784
356.817
356.817
356.784
356.721
356.631
356.519
356.391
356.254
356.112
355.976
355.866
347.227
347.318
347.433
347.553
347.669
347.777
347.872
347.948
348.002
348.029
348.029
348.002
347.948
347.872
347.777
347.669
347.553
347.433
347.318
347.227
338.612
338.685
338.779
338.877
338.972
339.061
339.138
339.201
339.245
339.267
339.267
339.245
339.201
339.138
339.061
338.972
338.877
338.779
338.685
338.612
330.018
330.074
330.147
330.223
330.297
330.366
330.426
330.475
330.509
330.527
330.527
330.509
330.475
330.426
330.366
330.297
330.223
330.147
330.074
330.018
321.44
321.48
321.531
321.586
321.639
321.688
321.731
321.766
321.79
321.803
321.803
321.79
321.766
321.731
321.688
321.639
321.586
321.531
321.48
321.44
312.874
312.897
312.928
312.961
312.993
313.023
313.048
313.069
313.084
313.092
313.092
313.084
313.069
313.048
313.023
312.993
312.961
312.928
312.897
312.874
304.315
304.323
304.333
304.344
304.355
304.364
304.373
304.38
304.385
304.388
304.388
304.385
304.38
304.373
304.364
304.355
304.344
304.333
304.323
304.315
367.379
367.499
367.644
367.793
367.936
368.069
368.185
368.278
368.343
368.377
368.377
368.343
368.278
368.185
368.069
367.936
367.793
367.644
367.499
367.379
358.325
358.426
358.551
358.68
358.805
358.92
359.02
359.101
359.158
359.187
359.187
359.158
359.101
359.02
358.92
358.805
358.68
358.551
358.426
358.325
349.302
349.386
349.491
349.6
349.706
349.803
349.888
349.957
350.005
350.029
350.029
350.005
349.957
349.888
349.803
349.706
349.6
349.491
349.386
349.302
340.306
340.373
340.459
340.549
340.635
340.715
340.785
340.841
340.88
340.9
340.9
340.88
340.841
340.785
340.715
340.635
340.549
340.459
340.373
340.306
331.333
331.385
331.452
331.521
331.588
331.65
331.705
331.748
331.779
331.794
331.794
331.779
331.748
331.705
331.65
331.588
331.521
331.452
331.385
331.333
322.378
322.415
322.463
322.512
322.56
322.605
322.643
322.674
322.696
322.708
322.708
322.696
322.674
322.643
322.605
322.56
322.512
322.463
322.415
322.378
313.437
313.459
313.487
313.517
313.546
313.573
313.596
313.615
313.628
313.634
313.634
313.628
313.615
313.596
313.573
313.546
313.517
313.487
313.459
313.437
304.503
304.511
304.52
304.53
304.54
304.549
304.557
304.563
304.567
304.569
304.569
304.567
304.563
304.557
304.549
304.54
304.53
304.52
304.511
304.503
370.374
370.484
370.617
370.752
370.883
371.002
371.106
371.19
371.248
371.278
371.278
371.248
371.19
371.106
371.002
370.883
370.752
370.617
370.484
370.374
360.908
361.001
361.115
361.233
361.346
361.45
361.54
361.612
361.663
361.689
361.689
361.663
361.612
361.54
361.45
361.346
361.233
361.115
361.001
360.908
351.478
351.555
351.651
351.751
351.847
351.935
352.011
352.072
352.115
352.137
352.137
352.115
352.072
352.011
351.935
351.847
351.751
351.651
351.555
351.478
342.08
342.142
342.221
342.302
342.38
342.453
342.515
342.565
342.6
342.618
342.618
342.6
342.565
342.515
342.453
342.38
342.302
342.221
342.142
342.08
332.709
332.756
332.818
332.881
332.942
332.998
333.047
333.086
333.113
333.127
333.127
333.113
333.086
333.047
332.998
332.942
332.881
332.818
332.756
332.709
323.359
323.393
323.436
323.482
323.525
323.565
323.6
323.628
323.648
323.658
323.658
323.648
323.628
323.6
323.565
323.525
323.482
323.436
323.393
323.359
314.025
314.045
314.071
314.098
314.125
314.149
314.17
314.186
314.198
314.204
314.204
314.198
314.186
314.17
314.149
314.125
314.098
314.071
314.045
314.025
304.7
304.707
304.716
304.725
304.734
304.742
304.749
304.754
304.758
304.76
304.76
304.758
304.754
304.749
304.742
304.734
304.725
304.716
304.707
304.7
373.441
373.542
373.664
373.788
373.906
374.014
374.108
374.183
374.235
374.262
374.262
374.235
374.183
374.108
374.014
373.906
373.788
373.664
373.542
373.441
363.541
363.627
363.732
363.839
363.942
364.036
364.117
364.182
364.227
364.251
364.251
364.227
364.182
364.117
364.036
363.942
363.839
363.732
363.627
363.541
353.688
353.758
353.847
353.938
354.025
354.105
354.174
354.229
354.267
354.287
354.287
354.267
354.229
354.174
354.105
354.025
353.938
353.847
353.758
353.688
343.875
343.932
344.004
344.079
344.15
344.215
344.272
344.317
344.348
344.364
344.364
344.348
344.317
344.272
344.215
344.15
344.079
344.004
343.932
343.875
334.097
334.141
334.197
334.255
334.31
334.361
334.405
334.44
334.464
334.477
334.477
334.464
334.44
334.405
334.361
334.31
334.255
334.197
334.141
334.097
324.346
324.377
324.417
324.459
324.498
324.535
324.566
324.591
324.609
324.618
324.618
324.609
324.591
324.566
324.535
324.498
324.459
324.417
324.377
324.346
314.616
314.635
314.659
314.683
314.707
314.729
314.748
314.763
314.774
314.779
314.779
314.774
314.763
314.748
314.729
314.707
314.683
314.659
314.635
314.616
304.898
304.904
304.912
304.921
304.929
304.936
304.942
304.947
304.951
304.953
304.953
304.951
304.947
304.942
304.936
304.929
304.921
304.912
304.904
304.898
376.387
376.48
376.593
376.706
376.814
376.913
376.998
377.066
377.113
377.137
377.137
377.113
377.066
376.998
376.913
376.814
376.706
376.593
376.48
376.387
366.04
366.119
366.216
366.314
366.409
366.494
366.568
366.627
366.668
366.689
366.689
366.668
366.627
366.568
366.494
366.409
366.314
366.216
366.119
366.04
355.761
355.827
355.909
355.993
356.072
356.145
356.208
356.258
356.293
356.311
356.311
356.293
356.258
356.208
356.145
356.072
355.993
355.909
355.827
355.761
345.544
345.597
345.664
345.732
345.798
345.858
345.909
345.95
345.979
345.993
345.993
345.979
345.95
345.909
345.858
345.798
345.732
345.664
345.597
345.544
335.378
335.419
335.471
335.524
335.575
335.621
335.662
335.694
335.716
335.727
335.727
335.716
335.694
335.662
335.621
335.575
335.524
335.471
335.419
335.378
325.253
325.281
325.318
325.357
325.393
325.426
325.455
325.478
325.494
325.502
325.502
325.494
325.478
325.455
325.426
325.393
325.357
325.318
325.281
325.253
315.157
315.174
315.196
315.219
315.241
315.261
315.278
315.292
315.302
315.307
315.307
315.302
315.292
315.278
315.261
315.241
315.219
315.196
315.174
315.157
305.079
305.084
305.092
305.1
305.107
305.114
305.119
305.124
305.127
305.129
305.129
305.127
305.124
305.119
305.114
305.107
305.1
305.092
305.084
305.079
378.695
378.783
378.889
378.995
379.097
379.189
379.268
379.331
379.374
379.397
379.397
379.374
379.331
379.268
379.189
379.097
378.995
378.889
378.783
378.695
367.924
367.998
368.09
368.182
368.271
368.351
368.42
368.475
368.513
368.533
368.533
368.513
368.475
368.42
368.351
368.271
368.182
368.09
367.998
367.924
357.277
357.339
357.417
357.495
357.571
357.639
357.698
357.744
357.777
357.793
357.793
357.777
357.744
357.698
357.639
357.571
357.495
357.417
357.339
357.277
346.734
346.784
346.848
346.912
346.974
347.03
347.079
347.117
347.144
347.157
347.157
347.144
347.117
347.079
347.03
346.974
346.912
346.848
346.784
346.734
336.274
336.313
336.362
336.412
336.461
336.505
336.542
336.572
336.593
336.604
336.604
336.593
336.572
336.542
336.505
336.461
336.412
336.362
336.313
336.274
325.878
325.905
325.94
325.976
326.011
326.042
326.069
326.091
326.106
326.113
326.113
326.106
326.091
326.069
326.042
326.011
325.976
325.94
325.905
325.878
315.526
315.543
315.564
315.586
315.606
315.625
315.641
315.654
315.663
315.668
315.668
315.663
315.654
315.641
315.625
315.606
315.586
315.564
315.543
315.526
305.202
305.207
305.214
305.221
305.228
305.235
305.24
305.245
305.248
305.249
305.249
305.248
305.245
305.24
305.235
305.228
305.221
305.214
305.207
305.202
)
;

boundaryField
{
    hotSide
    {
        type            fixedGradient;
        gradient        nonuniform List<scalar> 
400
(
480.136
482.156
486.198
492.268
500.373
510.524
522.731
537.007
553.365
571.816
592.374
615.049
639.853
666.795
695.882
727.123
760.523
796.087
833.818
873.721
483.596
485.588
489.576
495.567
503.573
513.604
525.677
539.808
556.011
574.305
594.702
617.219
641.868
668.659
697.603
728.708
761.979
797.423
835.044
874.843
487.339
489.299
493.223
499.121
507.008
516.9
528.816
542.776
558.803
576.915
597.131
619.47
643.945
670.571
699.357
730.314
763.447
798.763
836.265
875.956
491.305
493.227
497.076
502.867
510.617
520.348
532.085
545.854
561.681
579.591
599.607
621.75
646.037
672.484
701.103
731.903
764.892
800.075
837.455
877.035
495.383
497.261
501.027
506.697
514.295
523.848
535.387
548.947
564.558
582.251
602.054
623.99
648.081
674.343
702.789
733.429
766.271
801.321
838.579
878.049
499.402
501.235
504.911
510.453
517.888
527.254
538.587
551.928
567.316
584.787
604.373
626.102
649.996
676.074
704.351
734.836
767.537
802.458
839.601
878.967
503.132
504.919
508.507
513.921
521.196
530.377
541.508
554.637
569.81
587.068
606.448
627.981
651.692
677.6
705.72
736.063
768.636
803.441
840.481
879.754
506.299
508.044
511.552
516.851
523.983
532.999
543.951
556.894
571.879
588.952
608.154
629.519
653.073
678.837
706.827
737.051
769.517
804.226
841.181
880.378
508.616
510.33
513.776
518.987
526.011
534.901
545.719
558.521
573.365
590.301
609.372
630.613
654.052
679.711
707.605
737.744
770.133
804.774
841.668
880.812
509.843
511.54
514.953
520.117
527.081
535.904
546.648
559.375
574.144
591.006
610.006
631.182
654.56
680.164
708.008
738.102
770.451
805.056
841.918
881.034
509.843
511.54
514.953
520.117
527.081
535.904
546.648
559.375
574.144
591.006
610.006
631.182
654.56
680.164
708.008
738.102
770.451
805.056
841.918
881.034
508.616
510.33
513.776
518.987
526.011
534.901
545.719
558.521
573.365
590.301
609.372
630.613
654.052
679.711
707.605
737.744
770.133
804.774
841.668
880.812
506.299
508.044
511.552
516.851
523.983
532.999
543.951
556.894
571.879
588.952
608.154
629.519
653.073
678.837
706.827
737.051
769.517
804.226
841.181
880.378
503.132
504.919
508.507
513.921
521.196
530.377
541.508
554.637
569.81
587.068
606.448
627.981
651.692
677.6
705.72
736.063
768.636
803.441
840.481
879.754
499.402
501.235
504.911
510.453
517.888
527.254
538.587
551.928
567.316
584.787
604.373
626.102
649.996
676.074
704.351
734.836
767.537
802.458
839.601
878.967
495.383
497.261
501.027
506.697
514.295
523.848
535.387
548.947
564.558
582.251
602.054
623.99
648.081
674.343
702.789
733.429
766.271
801.321
838.579
878.049
491.305
493.227
497.076
502.867
510.617
520.348
532.085
545.854
561.681
579.591
599.607
621.75
646.037
672.484
701.103
731.903
764.892
800.075
837.455
877.035
487.339
489.299
493.223
499.121
507.008
516.9
528.816
542.776
558.803
576.915
597.131
619.47
643.945
670.571
699.357
730.314
763.447
798.763
836.265
875.956
483.596
485.588
489.576
495.567
503.573
513.604
525.677
539.808
556.011
574.305
594.702
617.219
641.868
668.659
697.603
728.708
761.979
797.423
835.044
874.843
480.136
482.156
486.198
492.268
500.373
510.524
522.731
537.007
553.365
571.816
592.374
615.049
639.853
666.795
695.882
727.123
760.523
796.087
833.818
873.721
)
;
    }
    coldSide
    {
        type            mixed;
        refValue        uniform 300;
        refGradient     uniform 0;
        valueFraction   uniform 0.991591;
        source          uniform 0;
        value           nonuniform List<scalar> 
400
(
300.025
300.025
300.025
300.026
300.026
300.027
300.027
300.028
300.029
300.03
300.031
300.032
300.033
300.035
300.036
300.038
300.04
300.041
300.043
300.044
300.025
300.025
300.026
300.026
300.026
300.027
300.027
300.028
300.029
300.03