/*--------------------------------*- C++ -*----------------------------------*\
| =========                 |                                                 |
| \\      /  F ield         | OpenFOAM: The Open Source CFD Toolbox           |
|  \\    /   O peration     | Version:  2212                                  |
|   \\  /    A nd           | Website:  www.openfoam.com                      |
|    \\/     M anipulation  |                                                 |
\*---------------------------------------------------------------------------*/
FoamFile
{
    version     2.0;
    format      ascii;
    arch        "LSB;label=32;scalar=64";
    class       volScalarField;
    location    "0";
    object      Tdirect;
}
// * * * * * * * * * * * * * * * * * * * * * * * * * * * * * * * * * * * * * //

dimensions      [0 0 0 1 0 0 0];

internalField   nonuniform List<scalar> 
3200
(
343.65
343.893
344.202
344.54
344.888
345.229
345.544
345.81
346.004
346.106
346.106
346.004
345.81
345.544
345.229
344.888
344.54
344.202
343.893
343.65
337.919
338.124
338.391
338.683
338.984
339.28
339.552
339.782
339.949
340.037
340.037
339.949
339.782
339.552
339.28
338.984
338.683
338.391
338.124
337.919
332.15
332.32
332.545
332.792
333.047
333.296
333.526
333.72
333.861
333.936
333.936
333.861
333.72
333.526
333.296
333.047
332.792
332.545
332.32
332.15
326.35
326.487
326.671
326.873
327.08
327.284
327.472
327.631
327.746
327.807
327.807
327.746
327.631
327.472
327.284
327.08
326.873
326.671
326.487
326.35
320.526
320.631
320.773
320.93
321.092
321.25
321.396
321.519
321.608
321.656
321.656
321.608
321.519
321.396
321.25
321.092
320.93
320.773
320.631
320.526
314.682
314.756
314.858
314.97
315.085
315.198
315.302
315.39
315.454
315.488
315.488
315.454
315.39
315.302
315.198
315.085
314.97
314.858
314.756
314.682
308.824
308.869
308.93
308.997
309.066
309.134
309.197
309.249
309.288
309.308
309.308
309.288
309.249
309.197
309.134
309.066
308.997
308.93
308.869
308.824
302.959
302.974
302.994
303.017
303.04
303.063
303.084
303.101
303.114
303.121
303.121
303.114
303.101
303.084
303.063
303.04
303.017
302.994
302.974
302.959
343.833
344.073
344.381
344.715
345.059
345.397
345.708
345.971
346.162
346.263
346.263
346.162
345.971
345.708
345.397
345.059
344.715
344.381
344.073
343.833
338.077
338.281
338.546
338.835
339.133
339.425
339.695
339.921
340.087
340.174
340.174
340.087
339.921
339.695
339.425
339.133
338.835
338.546
338.281
338.077
332.284
332.453
332.677
332.921
333.173
333.42
333.647
333.838
333.978
334.051
334.051
333.978
333.838
333.647
333.42
333.173
332.921
332.677
332.453
332.284
326.46
326.596
326.778
326.978
327.184
327.386
327.571
327.728
327.841
327.901
327.901
327.841
327.728
327.571
327.386
327.184
326.978
326.778
326.596
326.46
320.611
320.716
320.857
321.012
321.172
321.329
321.473
321.595
321.683
321.73
321.73
321.683
321.595
321.473
321.329
321.172
321.012
320.857
320.716
320.611
314.743
314.817
314.918
315.029
315.143
315.255
315.358
315.444
315.507
315.541
315.541
315.507
315.444
315.358
315.255
315.143
315.029
314.918
314.817
314.743
308.861
308.905
308.966
309.032
309.101
309.168
309.23
309.282
309.32
309.34
309.34
309.32
309.282
309.23
309.168
309.101
309.032
308.966
308.905
308.861
302.971
302.986
303.006
303.029
303.052
303.074
303.095
303.112
303.125
303.132
303.132
303.125
303.112
303.095
303.074
303.052
303.029
303.006
302.986
302.971
344.199
344.436
344.738
345.066
345.403
345.733
346.038
346.294
346.48
346.579
346.579
346.48
346.294
346.038
345.733
345.403
345.066
344.738
344.436
344.199
338.395
338.595
338.856
339.14
339.432
339.718
339.981
340.202
340.363
340.448
340.448
340.363
340.202
339.981
339.718
339.432
339.14
338.856
338.595
338.395
332.553
332.72
332.939
333.179
333.426
333.667
333.89
334.076
334.212
334.284
334.284
334.212
334.076
333.89
333.667
333.426
333.179
332.939
332.72
332.553
326.681
326.815
326.994
327.19
327.391
327.589
327.77
327.923
328.034
328.092
328.092
328.034
327.923
327.77
327.589
327.391
327.19
326.994
326.815
326.681
320.783
320.886
321.025
321.177
321.334
321.487
321.628
321.747
321.833
321.878
321.878
321.833
321.747
321.628
321.487
321.334
321.177
321.025
320.886
320.783
314.866
314.939
315.037
315.146
315.258
315.368
315.468
315.553
315.614
315.647
315.647
315.614
315.553
315.468
315.368
315.258
315.146
315.037
314.939
314.866
308.935
308.978
309.038
309.103
309.17
309.236
309.296
309.347
309.384
309.404
309.404
309.384
309.347
309.296
309.236
309.17
309.103
309.038
308.978
308.935
302.996
303.011
303.03
303.052
303.075
303.097
303.117
303.134
303.146
303.153
303.153
303.146
303.134
303.117
303.097
303.075
303.052
303.03
303.011
302.996
344.748
344.98
345.274
345.593
345.921
346.24
346.534
346.781
346.961
347.055
347.055
346.961
346.781
346.534
346.24
345.921
345.593
345.274
344.98
344.748
338.872
339.068
339.322
339.598
339.881
340.158
340.412
340.626
340.78
340.862
340.862
340.78
340.626
340.412
340.158
339.881
339.598
339.322
339.068
338.872
332.958
333.12
333.334
333.567
333.807
334.041
334.255
334.436
334.566
334.635
334.635
334.566
334.436
334.255
334.041
333.807
333.567
333.334
333.12
332.958
327.012
327.143
327.317
327.508
327.704
327.895
328.07
328.217
328.324
328.38
328.38
328.324
328.217
328.07
327.895
327.704
327.508
327.317
327.143
327.012
321.041
321.141
321.276
321.425
321.577
321.725
321.862
321.976
322.059
322.103
322.103
322.059
321.976
321.862
321.725
321.577
321.425
321.276
321.141
321.041
315.05
315.121
315.218
315.324
315.432
315.538
315.636
315.717
315.776
315.808
315.808
315.776
315.717
315.636
315.538
315.432
315.324
315.218
315.121
315.05
309.046
309.088
309.146
309.21
309.275
309.339
309.397
309.446
309.481
309.5
309.5
309.481
309.446
309.397
309.339
309.275
309.21
309.146
309.088
309.046
303.033
303.047
303.067
303.088
303.11
303.131
303.151
303.167
303.179
303.185
303.185
303.179
303.167
303.151
303.131
303.11
303.088
303.067
303.047
303.033
345.482
345.706
345.991
346.299
346.614
346.92
347.201
347.436
347.607
347.697
347.697
347.607
347.436
347.201
346.92
346.614
346.299
345.991
345.706
345.482
339.509
339.699
339.944
340.211
340.483
340.748
340.991
341.195
341.342
341.42
341.42
341.342
341.195
340.991
340.748
340.483
340.211
339.944
339.699
339.509
333.497
333.655
333.862
334.087
334.317
334.541
334.746
334.918
335.043
335.108
335.108
335.043
334.918
334.746
334.541
334.317
334.087
333.862
333.655
333.497
327.454
327.581
327.749
327.933
328.122
328.305
328.473
328.613
328.715
328.768
328.768
328.715
328.613
328.473
328.305
328.122
327.933
327.749
327.581
327.454
321.385
321.482
321.613
321.756
321.903
322.045
322.175
322.284
322.363
322.405
322.405
322.363
322.284
322.175
322.045
321.903
321.756
321.613
321.482
321.385
315.296
315.365
315.458
315.561
315.665
315.767
315.86
315.938
315.994
316.024
316.024
315.994
315.938
315.86
315.767
315.665
315.561
315.458
315.365
315.296
309.194
309.235
309.291
309.352
309.415
309.476
309.532
309.578
309.612
309.63
309.63
309.612
309.578
309.532
309.476
309.415
309.352
309.291
309.235
309.194
303.083
303.097
303.115
303.136
303.157
303.177
303.196
303.212
303.223
303.229
303.229
303.223
303.212
303.196
303.177
303.157
303.136
303.115
303.097
303.083
346.401
346.617
346.89
347.185
347.484
347.775
348.041
348.263
348.424
348.508
348.508
348.424
348.263
348.041
347.775
347.484
347.185
346.89
346.617
346.401
340.306
340.489
340.725
340.98
341.239
341.491
341.721
341.913
342.052
342.125
342.125
342.052
341.913
341.721
341.491
341.239
340.98
340.725
340.489
340.306
334.173
334.325
334.523
334.739
334.958
335.171
335.365
335.528
335.645
335.706
335.706
335.645
335.528
335.365
335.171
334.958
334.739
334.523
334.325
334.173
328.008
328.13
328.291
328.468
328.647
328.821
328.98
329.112
329.208
329.258
329.258
329.208
329.112
328.98
328.821
328.647
328.468
328.291
328.13
328.008
321.816
321.91
322.035
322.172
322.312
322.447
322.57
322.673
322.748
322.787
322.787
322.748
322.673
322.57
322.447
322.312
322.172
322.035
321.91
321.816
315.605
315.671
315.76
315.858
315.958
316.054
316.142
316.216
316.269
316.297
316.297
316.269
316.216
316.142
316.054
315.958
315.858
315.76
315.671
315.605
309.379
309.418
309.472
309.531
309.591
309.649
309.702
309.746
309.778
309.794
309.794
309.778
309.746
309.702
309.649
309.591
309.531
309.472
309.418
309.379
303.145
303.158
303.176
303.196
303.216
303.235
303.253
303.268
303.278
303.284
303.284
303.278
303.268
303.253
303.235
303.216
303.196
303.176
303.158
303.145
347.506
347.713
347.973
348.252
348.536
348.81
349.059
349.266
349.416
349.495
349.495
349.416
349.266
349.059
348.81
348.536
348.252
347.973
347.713
347.506
341.266
341.441
341.665
341.907
342.152
342.39
342.605
342.785
342.914
342.982
342.982
342.914
342.785
342.605
342.39
342.152
341.907
341.665
341.441
341.266
334.986
335.131
335.32
335.525
335.732
335.933
336.115
336.266
336.376
336.433
336.433
336.376
336.266
336.115
335.933
335.732
335.525
335.32
335.131
334.986
328.673
328.79
328.944
329.112
329.281
329.445
329.594
329.718
329.807
329.854
329.854
329.807
329.718
329.594
329.445
329.281
329.112
328.944
328.79
328.673
322.334
322.424
322.544
322.674
322.806
322.933
323.049
323.145
323.214
323.251
323.251
323.214
323.145
323.049
322.933
322.806
322.674
322.544
322.424
322.334
315.975
316.039
316.124
316.217
316.311
316.402
316.485
316.553
316.603
316.629
316.629
316.603
316.553
316.485
316.402
316.311
316.217
316.124
316.039
315.975
309.602
309.64
309.691
309.746
309.803
309.858
309.907
309.949
309.978
309.994
309.994
309.978
309.949
309.907
309.858
309.803
309.746
309.691
309.64
309.602
303.22
303.232
303.249
303.268
303.287
303.305
303.322
303.336
303.346
303.351
303.351
303.346
303.336
303.322
303.305
303.287
303.268
303.249
303.232
303.22
348.799
348.995
349.241
349.505
349.77
350.026
350.258
350.45
350.588
350.661
350.661
350.588
350.45
350.258
350.026
349.77
349.505
349.241
348.995
348.799
342.388
342.554
342.766
342.994
343.225
343.446
343.646
343.813
343.932
343.995
343.995
343.932
343.813
343.646
343.446
343.225
342.994
342.766
342.554
342.388
335.937
336.074
336.253
336.446
336.641
336.828
336.998
337.138
337.239
337.292
337.292
337.239
337.138
336.998
336.828
336.641
336.446
336.253
336.074
335.937
329.452
329.563
329.709
329.867
330.026
330.179
330.318
330.432
330.515
330.558
330.558
330.515
330.432
330.318
330.179
330.026
329.867
329.709
329.563
329.452
322.941
323.026
323.139
323.262
323.386
323.505
323.612
323.702
323.766
323.799
323.799
323.766
323.702
323.612
323.505
323.386
323.262
323.139
323.026
322.941
316.409
316.469
316.55
316.637
316.726
316.811
316.888
316.951
316.997
317.021
317.021
316.997
316.951
316.888
316.811
316.726
316.637
316.55
316.469
316.409
309.862
309.898
309.947
309.999
310.052
310.103
310.15
310.188
310.215
310.23
310.23
310.215
310.188
310.15
310.103
310.052
309.999
309.947
309.898
309.862
303.307
303.319
303.335
303.353
303.371
303.388
303.403
303.416
303.425
303.43
303.43
303.425
303.416
303.403
303.388
303.371
303.353
303.335
303.319
303.307
350.28
350.465
350.697
350.943
351.191
351.428
351.642
351.819
351.945
352.012
352.012
351.945
351.819
351.642
351.428
351.191
350.943
350.697
350.465
350.28
343.673
343.83
344.03
344.244
344.458
344.663
344.849
345.002
345.111
345.169
345.169
345.111
345.002
344.849
344.663
344.458
344.244
344.03
343.83
343.673
337.026
337.156
337.324
337.505
337.686
337.86
338.017
338.146
338.239
338.287
338.287
338.239
338.146
338.017
337.86
337.686
337.505
337.324
337.156
337.026
330.344
330.449
330.587
330.734
330.883
331.025
331.153
331.258
331.334
331.374
331.374
331.334
331.258
331.153
331.025
330.883
330.734
330.587
330.449
330.344
323.636
323.716
323.823
323.937
324.053
324.163
324.263
324.345
324.404
324.434
324.434
324.404
324.345
324.263
324.163
324.053
323.937
323.823
323.716
323.636
316.906
316.962
317.038
317.12
317.203
317.282
317.353
317.412
317.454
317.476
317.476
317.454
317.412
317.353
317.282
317.203
317.12
317.038
316.962
316.906
310.161
310.195
310.24
310.289
310.339
310.386
310.429
310.464
310.49
310.503
310.503
310.49
310.464
310.429
310.386
310.339
310.289
310.24
310.195
310.161
303.407
303.418
303.434
303.45
303.467
303.483
303.497
303.509
303.517
303.522
303.522
303.517
303.509
303.497
303.483
303.467
303.45
303.434
303.418
303.407
351.95
352.124
352.341
352.571
352.8
353.018
353.214
353.376
353.491
353.551
353.551
353.491
353.376
353.214
353.018
352.8
352.571
352.341
352.124
351.95
345.123
345.271
345.458
345.657
345.855
346.045
346.214
346.354
346.454
346.506
346.506
346.454
346.354
346.214
346.045
345.855
345.657
345.458
345.271
345.123
338.255
338.377
338.534
338.703
338.871
339.031
339.174
339.292
339.377
339.421
339.421
339.377
339.292
339.174
339.031
338.871
338.703
338.534
338.377
338.255
331.351
331.449
331.578
331.715
331.853
331.984
332.101
332.198
332.267
332.303
332.303
332.267
332.198
332.101
331.984
331.853
331.715
331.578
331.449
331.351
324.419
324.495
324.594
324.701
324.808
324.91
325.001
325.077
325.13
325.158
325.158
325.13
325.077
325.001
324.91
324.808
324.701
324.594
324.495
324.419
317.466
317.519
317.591
317.667
317.743
317.816
317.881
317.935
317.973
317.993
317.993
317.973
317.935
317.881
317.816
317.743
317.667
317.591
317.519
317.466
310.497
310.529
310.572
310.618
310.664
310.707
310.747
310.779
310.802
310.814
310.814
310.802
310.779
310.747
310.707
310.664
310.618
310.572
310.529
310.497
303.52
303.531
303.545
303.56
303.576
303.59
303.603
303.614
303.622
303.626
303.626
303.622
303.614
303.603
303.59
303.576
303.56
303.545
303.531
303.52
353.811
353.974
354.176
354.388
354.6
354.8
354.979
355.125
355.23
355.284
355.284
355.23
355.125
354.979
354.8
354.6
354.388
354.176
353.974
353.811
346.739
346.876
347.051
347.235
347.418
347.591
347.746
347.873
347.964
348.011
348.011
347.964
347.873
347.746
347.591
347.418
347.235
347.051
346.876
346.739
339.623
339.738
339.884
340.04
340.195
340.342
340.473
340.58
340.657
340.696
340.696
340.657
340.58
340.473
340.342
340.195
340.04
339.884
339.738
339.623
332.472
332.564
332.684
332.811
332.938
333.058
333.165
333.253
333.316
333.348
333.348
333.316
333.253
333.165
333.058
332.938
332.811
332.684
332.564
332.472
325.292
325.363
325.456
325.555
325.653
325.747
325.83
325.898
325.947
325.972
325.972
325.947
325.898
325.83
325.747
325.653
325.555
325.456
325.363
325.292
318.09
318.14
318.206
318.277
318.348
318.414
318.474
318.523
318.557
318.576
318.576
318.557
318.523
318.474
318.414
318.348
318.277
318.206
318.14
318.09
310.873
310.902
310.942
310.985
311.027
311.067
311.103
311.132
311.153
311.164
311.164
311.153
311.132
311.103
311.067
311.027
310.985
310.942
310.902
310.873
303.646
303.656
303.669
303.683
303.697
303.711
303.723
303.733
303.74
303.743
303.743
303.74
303.733
303.723
303.711
303.697
303.683
303.669
303.656
303.646
355.863
356.015
356.202
356.398
356.592
356.774
356.937
357.069
357.163
357.212
357.212
357.163
357.069
356.937
356.774
356.592
356.398
356.202
356.015
355.863
348.52
348.648
348.81
348.98
349.148
349.306
349.447
349.561
349.643
349.685
349.685
349.643
349.561
349.447
349.306
349.148
348.98
348.81
348.648
348.52
341.133
341.239
341.375
341.519
341.661
341.795
341.914
342.011
342.08
342.116
342.116
342.08
342.011
341.914
341.795
341.661
341.519
341.375
341.239
341.133
333.709
333.794
333.905
334.023
334.139
334.249
334.346
334.425
334.482
334.511
334.511
334.482
334.425
334.346
334.249
334.139
334.023
333.905
333.794
333.709
326.255
326.321
326.407
326.498
326.589
326.674
326.75
326.811
326.855
326.878
326.878
326.855
326.811
326.75
326.674
326.589
326.498
326.407
326.321
326.255
318.779
318.825
318.887
318.952
319.016
319.077
319.131
319.176
319.207
319.223
319.223
319.207
319.176
319.131
319.077
319.016
318.952
318.887
318.825
318.779
311.286
311.314
311.351
311.39
311.429
311.465
311.498
311.524
311.543
311.553
311.553
311.543
311.524
311.498
311.465
311.429
311.39
311.351
311.314
311.286
303.784
303.794
303.806
303.819
303.832
303.844
303.855
303.864
303.87
303.874
303.874
303.87
303.864
303.855
303.844
303.832
303.819
303.806
303.794
303.784
358.107
358.247
358.42
358.6
358.777
358.943
359.09
359.209
359.294
359.338
359.338
359.294
359.209
359.09
358.943
358.777
358.6
358.42
358.247
358.107
350.467
350.586
350.736
350.892
351.045
351.189
351.316
351.42
351.493
351.531
351.531
351.493
351.42
351.316
351.189
351.045
350.892
350.736
350.586
350.467
342.783
342.881
343.007
343.139
343.269
343.391
343.498
343.586
343.648
343.68
343.68
343.648
343.586
343.498
343.391
343.269
343.139
343.007
342.881
342.783
335.06
335.14
335.242
335.35
335.456
335.556
335.644
335.716
335.766
335.792
335.792
335.766
335.716
335.644
335.556
335.456
335.35
335.242
335.14
335.06
327.307
327.368
327.448
327.532
327.614
327.692
327.76
327.816
327.855
327.876
327.876
327.855
327.816
327.76
327.692
327.614
327.532
327.448
327.368
327.307
319.531
319.574
319.631
319.691
319.75
319.805
319.854
319.894
319.922
319.937
319.937
319.922
319.894
319.854
319.805
319.75
319.691
319.631
319.574
319.531
311.738
311.764
311.798
311.834
311.87
311.903
311.932
311.956
311.973
311.982
311.982
311.973
311.956
311.932
311.903
311.87
311.834
311.798
311.764
311.738
303.936
303.945
303.956
303.968
303.98
303.991
304.001
304.009
304.015
304.018
304.018
304.015
304.009
304.001
303.991
303.98
303.968
303.956
303.945
303.936
360.54
360.671
360.83
360.995
361.156
361.306
361.438
361.546
361.621
361.66
361.66
361.621
361.546
361.438
361.306
361.156
360.995
360.83
360.671
360.54
352.58
352.69
352.827
352.97
353.11
353.24
353.355
353.448
353.513
353.547
353.547
353.513
353.448
353.355
353.24
353.11
352.97
352.827
352.69
352.58
344.572
344.663
344.779
344.9
345.018
345.128
345.226
345.304
345.36
345.388
345.388
345.36
345.304
345.226
345.128
345.018
344.9
344.779
344.663
344.572
336.526
336.599
336.693
336.792
336.889
336.979
337.059
337.123
337.169
337.192
337.192
337.169
337.123
337.059
336.979
336.889
336.792
336.693
336.599
336.526
328.448
328.505
328.578
328.655
328.73
328.8
328.862
328.912
328.947
328.966
328.966
328.947
328.912
328.862
328.8
328.73
328.655
328.578
328.505
328.448
320.347
320.387
320.439
320.494
320.548
320.598
320.642
320.678
320.703
320.716
320.716
320.703
320.678
320.642
320.598
320.548
320.494
320.439
320.387
320.347
312.229
312.252
312.284
312.317
312.349
312.379
312.406
312.427
312.442
312.45
312.45
312.442
312.427
312.406
312.379
312.349
312.317
312.284
312.252
312.229
304.1
304.108
304.119
304.13
304.141
304.151
304.16
304.167
304.172
304.175
304.175
304.172
304.167
304.16
304.151
304.141
304.13
304.119
304.108
304.1
363.16
363.28
363.426
363.577
363.723
363.859
363.978
364.074
364.142
364.176
364.176
364.142
364.074
363.978
363.859
363.723
363.577
363.426
363.28
363.16
354.852
354.954
355.08
355.21
355.337
355.455
355.558
355.642
355.7
355.73
355.73
355.7
355.642
355.558
355.455
355.337
355.21
355.08
354.954
354.852
346.497
346.581
346.687
346.798
346.905
347.005
347.092
347.163
347.212
347.238
347.238
347.212
347.163
347.092
347.005
346.905
346.798
346.687
346.581
346.497
338.102
338.17
338.256
338.346
338.434
338.516
338.588
338.645
338.686
338.707
338.707
338.686
338.645
338.588
338.516
338.434
338.346
338.256
338.17
338.102
329.675
329.727
329.794
329.864
329.933
329.996
330.052
330.097
330.128
330.145
330.145
330.128
330.097
330.052
329.996
329.933
329.864
329.794
329.727
329.675
321.224
321.261
321.309
321.359
321.408
321.453
321.493
321.525
321.547
321.559
321.559
321.547
321.525
321.493
321.453
321.408
321.359
321.309
321.261
321.224
312.756
312.777
312.806
312.836
312.866
312.893
312.917
312.936
312.95
312.957
312.957
312.95
312.936
312.917
312.893
312.866
312.836
312.806
312.777
312.756
304.277
304.284
304.294
304.304
304.314
304.323
304.331
304.337
304.342
304.344
304.344
304.342
304.337
304.331
304.323
304.314
304.304
304.294
304.284
304.277
365.953
366.064
366.198
366.335
366.468
366.59
366.697
366.783
366.843
366.875
366.875
366.843
366.783
366.697
366.59
366.468
366.335
366.198
366.064
365.953
357.274
357.367
357.483
357.602
357.717
357.823
357.916
357.991
358.043
358.07
358.07
358.043
357.991
357.916
357.823
357.717
357.602
357.483
357.367
357.274
348.546
348.624
348.721
348.822
348.919
349.009
349.088
349.151
349.195
349.218
349.218
349.195
349.151
349.088
349.009
348.919
348.822
348.721
348.624
348.546
339.779
339.841
339.921
340.003
340.083
340.157
340.221
340.272
340.309
340.327
340.327
340.309
340.272
340.221
340.157
340.083
340.003
339.921
339.841
339.779
330.98
331.028
331.089
331.153
331.215
331.273
331.323
331.363
331.391
331.406
331.406
331.391
331.363
331.323
331.273
331.215
331.153
331.089
331.028
330.98
322.156
322.19
322.234
322.28
322.324
322.365
322.401
322.43
322.45
322.46
322.46
322.45
322.43
322.401
322.365
322.324
322.28
322.234
322.19
322.156
313.316
313.336
313.362
313.39
313.416
313.441
313.462
313.48
313.492
313.498
313.498
313.492
313.48
313.462
313.441
313.416
313.39
313.362
313.336
313.316
304.465
304.471
304.48
304.489
304.498
304.507
304.514
304.52
304.524
304.526
304.526
304.524
304.52
304.514
304.507
304.498
304.489
304.48
304.471
304.465
368.89
368.991
369.114
369.239
369.359
369.47
369.566
369.643
369.696
369.724
369.724
369.696
369.643
369.566
369.47
369.359
369.239
369.114
368.991
368.89
359.815
359.901
360.006
360.115
360.219
360.315
360.399
360.465
360.512
360.536
360.536
360.512
360.465
360.399
360.315
360.219
360.115
360.006
359.901
359.815
350.693
350.764
350.853
350.945
351.034
351.115
351.185
351.242
351.281
351.302
351.302
351.281
351.242
351.185
351.115
351.034
350.945
350.853
350.764
350.693
341.533
341.59
341.663
341.738
341.811
341.877
341.935
341.981
342.014
342.03
342.03
342.014
341.981
341.935
341.877
341.811
341.738
341.663
341.59
341.533
332.343
332.387
332.443
332.502
332.558
332.61
332.655
332.691
332.716
332.729
332.729
332.716
332.691
332.655
332.61
332.558
332.502
332.443
332.387
332.343
323.129
323.16
323.201
323.242
323.283
323.32
323.352
323.378
323.396
323.405
323.405
323.396
323.378
323.352
323.32
323.283
323.242
323.201
323.16
323.129
313.9
313.918
313.942
313.967
313.992
314.014
314.033
314.049
314.06
314.065
314.065
314.06
314.049
314.033
314.014
313.992
313.967
313.942
313.918
313.9
304.66
304.667
304.675
304.683
304.691
304.699
304.705
304.71
304.714
304.716
304.716
304.714
304.71
304.705
304.699
304.691
304.683
304.675
304.667
304.66
371.892
371.985
372.097
372.212
372.321
372.421
372.507
372.576
372.624
372.649
372.649
372.624
372.576
372.507
372.421
372.321
372.212
372.097
371.985
371.892
362.401
362.48
362.577
362.676
362.77
362.857
362.932
362.992
363.034
363.056
363.056
363.034
362.992
362.932
362.857
362.77
362.676
362.577
362.48
362.401
352.869
352.935
353.016
353.1
353.18
353.254
353.318
353.368
353.404
353.422
353.422
353.404
353.368
353.318
353.254
353.18
353.1
353.016
352.935
352.869
343.305
343.358
343.424
343.493
343.559
343.619
343.671
343.713
343.742
343.757
343.757
343.742
343.713
343.671
343.619
343.559
343.493
343.424
343.358
343.305
333.715
333.756
333.808
333.861
333.912
333.959
334
334.032
334.055
334.066
334.066
334.055
334.032
334
333.959
333.912
333.861
333.808
333.756
333.715
324.107
324.136
324.173
324.211
324.247
324.281
324.31
324.333
324.349
324.358
324.358
324.349
324.333
324.31
324.281
324.247
324.211
324.173
324.136
324.107
314.486
314.503
314.525
314.548
314.57
314.59
314.607
314.621
314.631
314.636
314.636
314.631
314.621
314.607
314.59
314.57
314.548
314.525
314.503
314.486
304.857
304.862
304.87
304.877
304.885
304.892
304.897
304.902
304.905
304.907
304.907
304.905
304.902
304.897
304.892
304.885
304.877
304.87
304.862
304.857
374.766
374.852
374.956
375.06
375.16
375.252
375.33
375.392
375.436
375.458
375.458
375.436
375.392
375.33
375.252
375.16
375.06
374.956
374.852
374.766
364.846
364.919
365.009
365.1
365.187
365.266
365.334
365.389
365.426
365.446
365.446
365.426
365.389
365.334
365.266
365.187
365.1
365.009
364.919
364.846
354.905
354.965
355.041
355.118
355.192
355.259
355.317
355.363
355.395
355.412
355.412
355.395
355.363
355.317
355.259
355.192
355.118
355.041
354.965
354.905
344.947
344.996
345.058
345.121
345.182
345.237
345.284
345.322
345.348
345.362
345.362
345.348
345.322
345.284
345.237
345.182
345.121
345.058
344.996
344.947
334.978
335.016
335.064
335.113
335.16
335.203
335.24
335.27
335.29
335.301
335.301
335.29
335.27
335.24
335.203
335.16
335.113
335.064
335.016
334.978
325.002
325.028
325.063
325.098
325.132
325.162
325.189
325.21
325.225
325.232
325.232
325.225
325.21
325.189
325.162
325.132
325.098
325.063
325.028
325.002
315.02
315.036
315.056
315.077
315.098
315.116
315.132
315.145
315.154
315.158
315.158
315.154
315.145
315.132
315.116
315.098
315.077
315.056
315.036
315.02
305.035
305.04
305.047
305.054
305.061
305.067
305.073
305.077
305.08
305.082
305.082
305.08
305.077
305.073
305.067
305.061
305.054
305.047
305.04
305.035
377.007
377.088
377.185
377.284
377.377
377.462
377.535
377.593
377.634
377.654
377.654
377.634
377.593
377.535
377.462
377.377
377.284
377.185
377.088
377.007
366.681
366.75
366.835
366.921
367.002
367.076
367.14
367.191
367.226
367.244
367.244
367.226
367.191
367.14
367.076
367.002
366.921
366.835
366.75
366.681
356.386
356.443
356.515
356.587
356.657
356.72
356.774
356.817
356.847
356.862
356.862
356.847
356.817
356.774
356.72
356.657
356.587
356.515
356.443
356.386
346.113
346.16
346.218
346.278
346.335
346.387
346.431
346.467
346.491
346.504
346.504
346.491
346.467
346.431
346.387
346.335
346.278
346.218
346.16
346.113
335.858
335.894
335.94
335.986
336.031
336.071
336.106
336.134
336.153
336.163
336.163
336.153
336.134
336.106
336.071
336.031
335.986
335.94
335.894
335.858
325.617
325.642
325.674
325.708
325.74
325.769
325.794
325.813
325.827
325.834
325.834
325.827
325.813
325.794
325.769
325.74
325.708
325.674
325.642
325.617
315.384
315.399
315.418
315.439
315.458
315.475
315.49
315.502
315.51
315.515
315.515
315.51
315.502
315.49
315.475
315.458
315.439
315.418
315.399
315.384
305.156
305.161
305.168
305.175
305.181
305.187
305.192
305.196
305.199
305.2
305.2
305.199
305.196
305.192
305.187
305.181
305.175
305.168
305.161
305.156
)
;

boundaryField
{
    hotSide
    {
        type            fixedGradient;
        gradient        nonuniform List<scalar> 
400
(
454.996
456.917
460.761
466.534
474.242
483.895
495.502
509.076
524.628
542.169
561.711
583.264
606.839
632.443
660.085
689.772
721.507
755.297
791.145
829.052
458.189
460.085
463.879
469.58
477.195
486.738
498.222
511.661
527.071
544.466
563.861
585.268
608.699
634.165
661.674
691.234
722.852
756.531
792.276
830.088
461.645
463.511
467.246
472.86
480.366
489.78
501.119
514.402
529.648
546.876
566.103
587.345
610.616
635.929
663.293
692.717
724.207
757.768
793.403
831.116
465.306
467.136
470.803
476.318
483.698
492.963
504.137
517.242
532.304
549.346
568.388
589.45
612.548
637.696
664.905
694.184
725.541
758.979
794.501
832.111
469.07
470.861
474.45
479.854
487.093
496.194
507.185
520.098
534.96
551.802
570.647
591.518
614.434
639.411
666.461
695.593
726.814
760.128
795.539
833.048
472.78
474.529
478.036
483.321
490.411
499.338
510.139
522.85
537.507
554.143
572.788
593.467
616.202
641.01
667.903
696.892
727.982
761.178
796.482
833.895
476.224
477.93
481.355
486.522
493.464
502.221
512.835
525.351
539.809
556.249
574.703
595.202
617.767
642.418
669.167
698.025
728.996
762.086
797.295
834.622
479.147
480.815
484.165
489.227
496.037
504.642
515.091
527.434
541.718
557.987
576.278
596.622
619.043
643.56
670.188
698.936
729.809
762.811
797.941
835.198
481.286
482.925
486.219
491.199
497.908
506.398
516.722
528.936
543.091
559.233
577.402
597.631
619.946
644.367
670.907
699.576
730.378
763.317
798.391
835.598
482.419
484.042
487.305
492.241
498.896
507.324
517.58
529.724
543.809
559.883
577.988
598.156
620.416
644.785
671.279
699.906
730.672
763.577
798.622
835.804
482.419
484.042
487.305
492.241
498.896
507.324
517.58
529.724
543.809
559.883
577.988
598.156
620.416
644.785
671.279
699.906
730.672
763.577
798.622
835.804
481.286
482.925
486.219
491.199
497.908
506.398
516.722
528.936
543.091
559.233
577.402
597.631
619.946
644.367
670.907
699.576
730.378
763.317
798.391
835.598
479.147
480.815
484.165
489.227
496.037
504.642
515.091
527.434
541.718
557.987
576.278
596.622
619.043
643.56
670.188
698.936
729.809
762.811
797.941
835.198
476.224
477.93
481.355
486.522
493.464
502.221
512.835
525.351
539.809
556.249
574.703
595.202
617.767
642.418
669.167
698.025
728.996
762.086
797.295
834.622
472.78
474.529
478.036
483.321
490.411
499.338
510.139
522.85
537.507
554.143
572.788
593.467
616.202
641.01
667.903
696.892
727.982
761.178
796.482
833.895
469.07
470.861
474.45
479.854
487.093
496.194
507.185
520.098
534.96
551.802
570.647
591.518
614.434
639.411
666.461
695.593
726.814
760.128
795.539
833.048
465.306
467.136
470.803
476.318
483.698
492.963
504.137
517.242
532.304
549.346
568.388
589.45
612.548
637.696
664.905
694.184
725.541
758.979
794.501
832.111
461.645
463.511
467.246
472.86
480.366
489.78
501.119
514.402
529.648
546.876
566.103
587.345
610.616
635.929
663.293
692.717
724.207
757.768
793.403
831.116
458.189
460.085
463.879
469.58
477.195
486.738
498.222
511.661
527.071
544.466
563.861
585.268
608.699
634.165
661.674
691.234
722.852
756.531
792.276
830.088
454.996
456.917
460.761
466.534
474.242
483.895
495.502
509.076
524.628
542.169
561.711
583.264
606.839
632.443
660.085
689.772
721.507
755.297
791.145
829.052
)
;
    }
    coldSide
    {
        type            mixed;
        refValue        uniform 300;
        refGradient     uniform 0;
        valueFraction   uniform 0.991591;
        source          uniform 0;
        value           nonuniform List<scalar> 
400
(
300.025
300.025
300.025
300.026
300.026
300.026
300.027
300.028
300.029
300.03
300.031
300.032
300.033
300.034
300.036
300.038
300.039
300.041
300.042
300.043
300.025
300.025
300.025
300.026
300.026
300.027
300.027
300.028
300.029
300.03
300.031
300.032
300.033
300.035
300.036
300.038
300.039
300.041
300.042
300.043