/*--------------------------------*- C++ -*----------------------------------*\
| =========                 |                                                 |
| \\      /  F ield         | OpenFOAM: The Open Source CFD Toolbox           |
|  \\    /   O peration     | Version:  2212                                  |
|   \\  /    A nd           | Website:  www.openfoam.com                      |
|    \\/     M anipulation  |                                                 |
\*---------------------------------------------------------------------------*/
FoamFile
{
    version     2.0;
    format      ascii;
    arch        "LSB;label=32;scalar=64";
    class       volScalarField;
    location    "0";
    object      relativeErrorField;
}
// * * * * * * * * * * * * * * * * * * * * * * * * * * * * * * * * * * * * * //

dimensions      [0 0 0 1 0 0 0];

internalField   nonuniform List<scalar> 
3200
(
0.000772234
0.00226262
0.00573919
0.00748179
0.00359851
0.00475269
0.0113675
0.00775745
0.00387764
0.00492716
0.0109793
0.0147574
0.00500305
0.00704768
0.00296873
0.00982034
0.00392316
0.00253674
0.00146722
0.0039173
0.00975718
0.000314644
0.00321964
0.00419512
0.00174438
0.00257464
0.00615011
0.0070237
0.00144767
0.00746725
0.0136728
0.010053
0.0116135
0.00525608
0.00838054
0.00437508
0.00447918
0.00348318
0.010486
0.00480261
0.0110378
0.000723204
0.00304649
0.003612
0.00413334
0.0132661
0.0161147
0.00598085
0.00487784
0.00943589
0.00536952
0.0114681
0.00604751
0.000184674
0.00971787
0.0146358
0.00111004
0.00579418
0.00666053
0.00581116
0.00369249
0.00588856
0.00460548
0.00719297
0.000392312
0.0117851
0.00882101
0.0125287
0.0164181
0.000299713
0.00982466
0.0089467
0.0014978
0.0102926
0.00985327
0.00676564
0.00103729
0.00508407
0.0083609
0.00559435
0.0025806
0.00649951
0.000171122
0.00111735
0.0063544
0.00283421
0.0021888
0.0163133
0.00907564
0.00652344
0.00750019
0.00482259
0.000186127
0.00617844
0.00156617
0.00392976
0.00292391
0.00263347
0.00888721
0.000340632
0.00116831
0.0105984
0.00532674
0.000147874
0.00783471
0.00438558
0.00767865
0.00426183
0.0109482
0.0036252
0.00464474
0.0025709
0.00131258
0.000737755
0.00203263
0.00469799
0.00343279
0.00207981
0.00164912
0.00299995
0.00878545
0.000477912
0.00449482
0.00425808
0.0057067
0.000744871
0.0108367
0.00729165
0.0056588
0.0139282
0.0110728
0.00638986
0.00167167
0.00018161
0.000890825
0.000441105
0.000748746
0.00580622
0.00352387
0.000362391
0.00291686
0.00135706
0.000319505
0.00179785
0.00607329
0.00703229
0.0039404
0.00681733
0.00340357
0.00634399
0.00961006
0.0114968
0.00857818
0.00230579
0.00273663
0.0131459
0.00563369
0.00350946
0.0114616
0.000550031
0.00252633
0.00489305
0.00885903
0.00240655
0.00214135
0.000227013
0.00293161
0.00316707
0.0034757
0.0084996
0.00165173
0.0042532
0.00782686
0.0140256
0.00294456
0.00171623
0.0010258
0.00152823
0.00125477
0.0011223
0.00514216
0.00405618
0.00743652
0.00540033
0.00189927
0.00216394
0.00522831
0.0030764
0.00481776
0.00017994
0.000437779
0.00573841
0.00216922
0.00150805
0.000928713
0.00298193
0.000390332
0.00448609
0.00307644
0.00989038
0.00165518
0.00722144
0.000615991
0.00265488
0.00391189
0.000854558
0.00451914
0.00320454
0.00862829
0.000894437
0.0091542
0.0198094
0.0081899
0.00121426
0.00350039
0.0045873
0.00368601
0.00352944
0.000412741
0.00107846
0.00603052
0.00323224
0.00339537
0.00137645
0.00420639
0.00500898
0.00149241
0.00404559
0.00214518
0.0199411
0.00428963
0.011764
0.00567902
0.00296083
0.00523781
0.00148973
0.000293418
0.00541853
0.00545402
0.00738113
0.00417176
0.0107839
0.00319958
0.00357917
0.00312462
0.00857977
0.000249969
0.00565568
0.00177456
0.00634598
0.00377272
0.00799552
0.00012272
0.0104434
0.00185855
0.00702246
0.00668564
0.00409422
0.0095415
0.00117226
0.0120676
0.00474397
0.00488759
0.00883368
0.00659085
0.00990375
0.00149854
0.00314242
0.000616624
0.00807721
0.0128457
0.00491833
0.00881649
0.000982752
0.00580514
0.00175334
0.00673335
0.000866231
0.00268855
0.00636581
0.00627775
0.00765546
0.00362396
0.00187145
0.00607932
0.0138499
0.0017002
0.00323654
0.000128835
0.00458699
0.00330764
0.0136379
0.0139595
0.000993437
0.00184187
0.00134404
0.00959864
0.0106478
0.000588314
0.0102698
0.00807609
0.00310778
0.0122313
0.00766665
0.00434688
0.00173737
0.000164987
0.0118179
0.00802528
0.00267228
0.00541896
0.00326342
0.0177575
0.00993475
0.00728063
0.000414608
0.00628993
0.00389743
0.00673458
0.00332025
0.00831116
0.00285044
0.00213861
0.00863014
0.00235862
0.00149508
0.00219724
0.00486251
0.00183131
0.00783844
0.00284248
0.00559568
0.00355567
0.000963144
0.00231269
0.0108209
0.00170615
0.00789004
0.00888847
0.0035227
0.00366554
0.00897056
0.00800889
0.00188564
0.00314108
0.00451114
0.00880332
0.000251011
0.0035892
0.000392157
0.00536055
0.00443255
0.000694674
0.00156513
0.00106456
0.00456786
0.00105915
0.00941918
0.00511872
0.00427737
0.00919242
0.00737907
0.00411648
0.00103156
0.00175518
0.00504859
0.00885362
0.00304846
0.00406415
0.0011983
0.00326323
0.00154167
0.00156843
0.0022027
0.00880847
0.0032069
0.00635382
0.00351892
0.00275125
0.0152267
0.00524497
0.00849254
0.00374928
0.00202319
0.00954564
0.00316051
0.00950695
0.00105906
0.0105417
0.00234832
0.00236776
0.00562273
0.00480541
0.00154808
0.00263232
0.00154
0.00505427
0.00500891
0.00829937
0.00800478
0.00673045
0.00203397
0.00383427
0.0032228
0.00161674
0.0124166
0.00252613
0.00113244
0.0013266
0.00733189
0.00370848
0.00168403
0.00192022
0.00192491
0.00744325
0.00531551
0.00284616
0.003055
0.00130748
0.00553667
0.0072481
0.0070568
0.00194315
0.00220859
0.0014366
0.00910793
0.00101615
0.003693
0.00389665
0.00764995
0.00132098
0.00172881
0.00121032
0.00653128
0.000757695
0.00478889
0.00330222
0.00295654
0.0120145
8.75803e-05
0.0103615
0.00264837
0.00031414
0.0041971
0.00780566
0.0119961
0.00223658
0.00111027
0.00571084
0.0144431
0.00464945
0.00130246
0.0080536
0.00197881
0.000356689
0.00844267
0.00707304
0.0042283
0.00174606
0.00211421
0.0206336
0.00136267
0.000118832
0.0124142
0.00675833
0.00264803
0.0090048
0.010636
0.00958833
0.00618913
0.00622361
0.00704512
0.00519621
0.00341908
0.0022041
0.00559916
0.00651286
0.00216184
0.0114984
0.00598428
0.00131588
0.00366498
0.0148623
0.00656282
0.00140536
0.00261699
0.00615467
0.00386769
0.0131004
0.00510543
0.0049738
0.013168
0.00990129
0.0024607
0.00674049
0.0052684
0.00188785
0.000290841
0.00171825
0.00567138
0.000489458
0.00779931
0.0114881
0.00155468
0.00776829
0.00230481
0.00441216
0.00201809
0.00706622
0.000207931
0.00291095
0.0129551
0.00181643
0.000410718
0.00140001
0.00385433
0.00134504
0.000267511
0.000419189
0.00658493
0.00955348
0.010355
0.00850016
0.0131059
0.00321116
0.00221352
0.000619853
0.00394034
0.00313028
0.00637763
0.00210061
0.00029195
0.00447043
0.000210181
0.00281901
0.00495307
0.00429315
0.0058315
0.00416929
0.0030622
0.00178097
0.00948685
0.00459821
0.00398149
0.000830191
0.00406528
2.25706e-05
0.0030464
0.00522318
0.0043323
0.0036199
0.000844356
0.00217313
0.00298337
0.00300105
0.00065306
0.000488587
0.00250306
0.00433079
0.0017591
0.00147136
0.00240527
0.000503456
0.00648484
0.00152485
0.00230512
0.00614752
0.00169286
0.000803744
0.00485568
0.00152201
0.00649669
0.00872187
0.00251477
0.00385003
0.00633215
0.00985567
0.00497938
0.000635825
0.0079476
0.00703604
0.0076594
0.000566516
0.0135379
0.0007075
0.0013768
0.00537697
0.00854565
0.00251102
0.00980112
0.00838055
0.0125104
0.00480778
0.0052521
0.011979
0.00325726
0.00333514
0.00169052
0.00688116
0.00535949
0.00166749
0.0019711
0.00681665
0.00385179
0.00239854
0.00191683
0.00931216
0.00568479
0.00024841
0.00905781
0.00565481
0.00139537
0.00430054
0.00411365
0.00253997
0.00846633
0.00662255
0.00480107
0.00588365
0.00353905
0.00556321
0.00614012
0.0036337
0.00717391
0.000747179
0.0145816
0.0020526
0.00173704
0.0110215
0.00399373
0.00465747
0.00738096
0.0028983
0.00745473
0.00110633
0.00243784
0.00322761
4.74307e-05
0.00591037
0.00293604
0.010529
0.0168844
0.00740091
0.0120637
0.0100028
0.00823865
0.0112796
0.0127823
0.00214247
0.00782196
0.00481476
0.00614648
0.00192614
0.00384725
0.00737354
0.00314404
0.00604354
0.00281403
0.00234386
0.00772024
0.00519439
0.00349092
0.0101968
0.01057
0.00655254
0.0112175
0.0123106
0.00288195
0.00654233
0.00719886
0.00857825
0.00334308
0.0160824
0.00302192
0.0182624
0.00800526
0.00934879
0.0141634
0.00690413
0.00381906
0.00656026
0.00892797
0.0120343
0.000794371
0.00596959
0.00568944
0.00525
0.0203892
0.00211797
0.00282862
0.00202223
0.00343538
0.00483355
0.00174953
0.00526141
0.00714162
0.00759435
0.017756
0.00083463
0.00109783
0.0029068
0.00252323
0.0119653
0.00504274
0.0074224
0.00442947
0.00957646
0.00392757
0.00337162
0.00095413
0.00534181
0.00341137
0.00065378
0.00792272
0.00143132
0.00746975
0.00980611
0.00767504
0.00777365
0.00576009
0.0021684
0.0125799
0.016081
0.00677796
0.00610635
0.00343847
0.00490002
0.00539804
0.00272016
0.00393678
0.0016769
0.00604422
0.000100086
0.00764256
0.00251878
0.00328611
0.00736719
0.00432153
0.000511649
0.00656285
0.000154833
0.00895061
0.00162889
0.00054481
0.00166592
0.00131911
0.00890708
0.00886225
0.000640519
0.00677143
0.00145856
0.0123845
0.00235836
0.00418896
0.00325176
0.00341384
0.00573581
0.00237256
0.00436942
0.0130805
0.00499724
0.00261192
0.0113648
0.00349135
0.00551886
0.00820541
0.00999557
0.00487092
0.00725535
0.00388399
0.00348202
0.00943334
0.0024541
0.00126945
0.00433505
0.00387033
0.00456224
0.0147515
0.0031104
0.00769189
0.0164993
0.00903202
0.00989739
7.19629e-05
0.000827388
0.00167892
0.00168272
0.00200595
0.00485642
0.00185713
0.0102046
0.00286917
0.00669825
0.00318265
0.00105229
0.0071408
0.0074589
0.0102097
0.00137227
0.00410133
0.0164616
0.00977173
0.0239159
0.00666472
0.0080198
0.00623439
0.00523291
0.00160604
0.00390302
0.00140383
0.0123579
0.0152434
0.00876718
0.00869479
0.016575
0.0040553
0.00917713
0.0126436
0.00161147
0.0144661
0.0043217
0.0121235
0.00222051
0.0073082
0.0021785
0.000795448
0.00959404
0.00236509
0.0124192
0.00227577
0.000498307
0.00424946
0.0021555
0.00924866
0.00144383
0.00558389
0.0018513
8.14213e-05
0.00190878
0.00393333
0.0106725
0.0124895
0.010166
0.0096454
0.00197258
0.0212311
0.00611956
0.00187524
0.0138285
0.00209575
0.0110245
0.00314603
0.00842129
0.0013434
0.018215
0.00585052
0.00281826
0.00700448
0.00858179
0.001187
0.000945059
0.0129071
0.00466246
0.00414225
0.00701087
0.00243659
0.00347463
0.00052335
0.00387396
0.00216632
0.00294547
0.00122095
0.00524111
0.000298551
6.40489e-05
0.00638879
0.000880564
0.0052088
0.000946104
0.00804831
0.013982
0.00615202
0.00127735
0.00505381
0.00227721
0.00867281
0.0104669
0.00673097
0.00119158
0.00623991
0.00074461
0.00602009
0.00441461
0.00136276
0.00724343
0.00155097
0.000126468
0.00626628
0.00160734
0.00386257
0.000886789
0.00473931
0.0125525
0.00657878
0.00221743
0.00959432
0.00576889
0.00896968
0.00546492
0.0073149
0.00146213
0.00482233
0.00103005
0.00129228
0.00114277
0.00461692
0.0131864
0.00163897
0.0029744
0.00745826
0.00314817
0.00051687
0.0036295
0.00204868
0.00232306
0.000885716
0.000711777
0.00436996
0.00648818
0.00641855
0.00479497
0.000475881
0.00430088
0.00494334
0.00454575
0.00371359
0.00659317
0.00784264
0.00228878
0.00602331
0.00323727
0.00230231
0.000829807
0.00214253
0.00753727
0.00482872
0.00914648
1.73663e-05
0.00389587
0.00313267
0.00727851
0.00439611
0.0037763
0.00368876
0.004381
0.00509267
0.0062991
0.00710394
0.00485528
0.00187183
0.0181663
0.00599559
0.00838938
0.00462204
0.000510715
0.0159419
0.00754519
0.010279
0.0130643
0.0116491
0.0135675
0.0164139
0.0205871
0.00440261
0.0053305
0.0042422
0.0128826
0.00700786
0.00382495
0.0103425
0.00361742
0.0067894
0.00545119
0.00948505
0.00927983
0.00525028
0.0122962
0.00881272
0.00487536
0.00946376
0.0154674
0.00915199
0.00281495
0.00745858
0.0154467
0.00692578
0.00406212
0.00160568
0.0129495
0.0121477
0.00522171
0.000123888
0.00294524
0.0100523
0.00360429
0.0125645
0.0229348
0.000309739
0.00973035
0.00283567
0.0018326
0.0014022
0.0103993
0.00274557
0.00695945
0.00198639
0.00455525
0.00625141
0.00176009
0.00119665
0.00513392
0.000556965
9.40657e-05
0.00581055
0.00763145
0.00528371
0.0116137
0.000962577
0.00430301
0.00696574
0.0141439
0.0101004
0.00661646
0.00773833
0.0141819
0.00155978
0.000948435
0.000870495
0.00251366
0.0109625
0.00911977
0.00532643
0.00400151
0.00780682
0.00129889
0.000355708
0.00205733
0.00954276
0.00126589
0.0042865
0.000239796
0.00535602
0.00664622
0.00801395
0.0138473
0.000282926
0.00345767
0.00354808
0.00470809
0.00288634
0.00318555
0.00857651
0.0083383
0.01364
5.77163e-05
0.00444827
0.0109531
0.0038268
0.000645152
0.00210954
0.00319435
0.00545327
0.00115591
0.00254542
0.00272095
0.00140275
0.00288201
0.003286
0.00486536
0.00330417
0.000252699
0.00208351
0.00346252
0.00194245
0.00343747
0.0060567
0.000181427
0.00291045
0.00674896
0.000446801
0.00510717
0.00811415
0.0110943
0.00188437
0.000178009
7.5371e-05
0.00455721
0.00559721
0.00253176
0.000870029
0.00447618
0.00954219
0.00443291
0.00152929
0.00306746
0.00246002
0.00604896
0.000934689
0.00710466
0.000375209
0.00440884
0.00186572
0.00811737
0.00023891
0.00213749
0.00789251
0.000965247
0.00490855
0.00384128
0.000727629
0.0192068
0.0149502
0.0151052
0.00774018
0.016739
0.0100058
0.0159164
0.0148659
0.0134505
0.00809593
0.0154174
0.0202564
0.00624294
0.00991196
0.0122783
0.00696954
0.0032181
0.0135136
0.00797947
0.00160503
0.00997596
0.00782221
0.0168157
0.0134181
0.0210189
0.000117614
0.00272434
0.000385243
0.0139018
0.00042675
0.000288373
0.0162206
0.001141
0.00148893
0.000317641
0.0189516
0.00152538
0.00353022
0.00100671
0.000272575
0.00842606
0.0139793
0.000131461
0.00408468
0.0129397
0.00443843
0.00872898
0.0170457
0.0102186
0.0282698
0.00950005
0.0142204
0.014232
0.00401194
0.00141392
0.00726008
0.0102759
0.0098259
0.00652626
0.00138113
0.000648347
0.00560818
0.0120546
0.00439837
0.00644349
0.00795128
0.00185581
0.00710313
0.00397624
0.00960197
0.00501693
0.00613359
0.000478937
0.00519237
0.00623585
0.0211357
0.00897655
0.00098392
0.0148645
0.00408396
0.00770508
0.00487823
0.00248533
0.0150592
0.00984359
0.0065004
0.0067705
0.00208543
0.00640309
0.00810896
0.0106109
0.0133977
0.0102767
0.0150757
0.00437775
0.00358131
0.00543017
0.00571028
0.000297933
0.0211566
0.00383499
0.00703089
0.00062343
0.0021006
0.00413318
0.0053781
0.00613002
0.0151545
0.00350821
0.00332165
0.00406845
0.00559252
0.000965734
0.0175429
0.00797697
0.00941733
0.00186773
0.011422
0.00290107
0.0178427
0.000216477
0.00236128
0.00610855
0.0071245
0.00820795
7.60752e-05
0.00495046
0.00488782
0.00074836
0.000797765
0.00954401
0.00120627
0.000988241
0.000382231
0.00972316
0.00332945
0.0011192
0.00760431
0.0159739
0.00131199
0.00589416
0.00337634
0.00178559
0.00355123
0.00429721
0.00573828
0.00164181
0.0171559
0.00470792
0.00234002
0.00847485
0.00500984
0.000895036
0.00449537
0.00228821
0.00664514
0.00345588
0.00262276
0.000542641
0.000139572
0.0100088
0.00761255
0.00963974
0.0108547
0.0112148
0.0135885
0.0222727
0.00564754
0.0153548
0.0154305
0.0116879
0.00787939
0.00927032
0.0107286
0.0212535
0.0137906
0.00384065
0.00403945
0.0161552
0.00627035
0.00562197
0.00632973
0.00954218
0.00483057
0.0133858
0.012764
0.0127282
0.010444
0.000734043
0.0079153
0.00718574
0.0195846
0.0093164
0.0171012
0.0152383
0.018117
0.0133528
0.0091564
0.00161256
0.00399838
0.0198409
0.0112537
0.0100647
0.0100862
0.00275999
0.0152011
1.21273e-05
0.00950329
0.00302633
0.00691908
0.0208941
0.00704263
0.0053138
0.00225265
0.00382344
0.0133841
0.00327312
0.00870222
0.00524195
0.00763389
0.00885803
0.00128579
0.00402231
0.0104537
0.013345
0.00964174
0.0102142
0.0135652
0.00252975
0.00678873
0.00539713
0.00680558
0.0140826
0.012064
0.00570732
0.00401954
0.00211265
0.00718042
0.00288796
0.00371678
0.000164196
0.00797757
0.00298914
0.0144454
0.00502215
0.00771226
0.000711894
0.0018763
0.00553453
0.00673299
0.00917064
0.0039413
0.00332344
0.0014094
0.00154107
0.00138373
0.0076393
0.003064
0.00415211
0.0058326
0.00213269
0.00851791
0.000220047
0.00372502
0.000571367
0.00563571
0.00617662
0.000182526
0.00185281
0.00244299
0.00702073
7.59001e-06
0.00641289
0.0108766
0.00924918
0.0113862
0.00118209
0.00241782
0.00476274
0.00435135
0.00986909
0.00357594
0.0101601
0.000767348
0.00230313
0.00498996
0.00345602
0.00375858
0.00430721
0.00957349
0.000956132
0.00231134
0.00036052
0.00106653
0.00521355
0.00262617
0.0125428
0.0031388
0.00246611
0.0128421
0.00673874
0.00387243
0.00462638
7.60803e-05
0.000568524
0.00754693
0.00323431
0.00978001
0.000928498
0.00975608
0.00686124
0.00843465
0.00954894
0.00421129
0.00703111
0.0103556
0.00821262
0.00125938
0.0103104
0.0121321
0.00194137
0.017217
0.017311
0.0117701
0.0127928
0.0198014
0.00488088
0.00601843
0.0115005
0.00415939
0.0192046
0.0126194
0.0153497
0.0142554
0.0159517
0.00634423
0.000861202
0.00440447
0.0106758
0.00120147
0.00540406
0.0099196
0.000446265
0.0100636
0.0135187
0.00175645
0.01334
0.00179489
0.0134393
0.000384769
0.00119255
0.0164043
3.10124e-05
0.00838089
0.0019461
0.0107914
0.00145036
0.00249506
0.00245178
0.00216438
0.000769009
0.0114634
0.00659182
0.00510412
0.00654589
0.000425301
0.00463734
0.0111591
0.00126094
0.00210491
0.00629042
0.00328596
0.0158906
0.0156216
0.00771192
0.00848471
0.000847371
0.00729522
0.00602675
0.0109522
0.00310651
0.00910929
0.00154795
0.00498218
0.00624821
0.0116915
0.0116006
0.000828483
0.004484
0.00276697
0.0123021
0.0107012
0.00628219
0.00277112
0.00354562
0.013712
0.00949079
0.00280666
0.00824792
0.00812074
0.00340583
0.0117696
0.00384133
0.00411777
0.00570575
0.000858018
0.0203205
0.00898529
0.00055291
0.00572131
0.00474582
0.00831596
0.00417681
0.00335679
0.00546665
0.00248672
0.00533103
0.00234382
0.00148504
0.00224186
0.00683791
0.00390669
0.00891829
0.0121571
0.000979007
0.00175666
0.000280867
0.00324417
0.00547406
0.000608711
0.00401428
0.00223765
0.00427743
0.00269782
0.0107341
0.0050231
0.00467542
0.00607374
0.00351601
0.00128396
0.000946043
0.00330218
0.0141649
0.00155809
0.012522
0.0112992
0.00756202
0.00628219
0.000952027
0.000111175
0.00441965
0.00581456
0.00199429
0.00330276
0.0100619
0.00384447
0.00493378
0.00203597
0.00471982
0.00709461
0.00272882
0.00452019
0.000252519
0.00287275
0.0118807
0.00345788
0.0107859
0.00440133
0.00199507
0.00751842
0.00264864
0.00597832
0.000971461
0.00949176
0.00379483
0.00435846
0.00338195
0.00623208
0.00252117
0.00762748
0.00867982
0.0124762
0.0122563
0.0143885
0.0119027
0.0117592
0.00870921
0.00736532
0.00677922
0.0170379
0.0193942
0.00513869
0.0038282
0.00522979
0.00146302
0.0193599
0.0144203
0.0148172
0.00651348
0.00308134
0.00208599
0.00391033
0.00426605
0.0056259
0.0223756
0.00131001
0.00794971
0.001724
0.011441
0.00244854
8.68595e-05
0.0105647
0.00139951
0.00667594
0.00390984
0.00613963
0.00299134
0.00939878
0.00171654
0.00598849
0.00868584
0.00137689
0.00580983
0.0174965
0.0114786
0.0142699
0.0136556
0.0040294
0.0113406
0.0155905
0.00318471
0.0107094
0.0113577
0.00606754
9.10121e-05
0.00662926
7.99493e-05
0.0131104
0.000815026
0.00405624
0.00554615
0.000707345
0.00491706
0.00231484
0.0147988
0.00340124
0.007942
0.00554715
0.00941814
0.00218572
0.0143984
0.00671973
0.0113222
0.00885838
0.0151568
0.0181261
0.0090831
0.000972994
0.00375038
0.0102016
0.00364342
0.00799901
0.0114039
0.00519276
0.00531262
0.00815225
0.00301728
0.000496133
0.0125249
0.0108401
0.00149474
0.00745055
0.00620173
0.00197902
0.00864229
0.00523747
0.00354979
0.00537689
0.000437133
0.00194367
0.000997739
0.00657583
0.00384006
0.000951014
0.00260047
0.00457213
0.0148669
0.00176671
0.00479653
1.90667e-05
0.0030773
0.00301018
0.00322801
0.00950261
0.00661323
0.00385338
0.00326787
0.00268999
0.00820763
0.000484168
0.00114553
0.00157946
0.00201385
0.00341649
0.00362658
0.00218815
0.00232084
0.0119589
0.00342606
0.00600201
0.0132202
0.00280588
0.00536525
0.00292046
0.00377965
0.00335548
0.0082619
0.00361031
0.00369677
0.00567429
0.00254343
0.000929979
0.00186317
0.00328467
0.000358411
0.00991846
0.00431024
0.00077364
0.00320507
0.00787381
0.00330143
0.000195476
0.000496282
0.00442942
0.00797334
0.00528655
0.000459814
0.00596717
0.00332714
0.00546635
0.00928649
0.00313476
0.00553273
0.0129965
0.00964611
0.0111152
0.0173847
0.00849924
0.0108584
0.0136433
0.01115
0.0108893
0.0011945
0.0151839
0.0121341
0.00723736
0.000338876
0.0121073
0.00709604
0.0130095
0.00573326
0.00191001
0.00620431
0.00427989
0.0110623
0.0161942
0.0145825
0.00831466
0.0112039
0.009247
0.00886537
0.00711798
0.0192048
0.0071576
0.0127043
0.00274713
0.00904973
0.00329665
0.00511272
0.00331621
0.00194816
0.00410517
0.00602791
0.0140626
0.00783987
0.0132512
0.00200609
0.0208006
0.00851157
0.00791818
0.00686963
0.0011859
0.00944687
0.00844361
0.0135835
0.00947436
0.00503276
0.00659588
0.00988527
0.00361464
0.00589326
0.00206365
0.0144686
0.00768866
0.00253388
0.00331813
0.00293776
0.0116109
0.00852454
0.0192458
0.0104915
0.0164816
0.016023
0.00652146
0.00565371
0.00472844
0.00284719
0.00823839
0.00507613
0.0017282
0.00342656
0.00562926
0.00235148
0.00671784
0.00790331
0.00350595
0.00668006
0.00599358
0.00837251
0.00288922
0.00517371
0.00468631
0.0171619
0.00651192
0.00829889
0.00986827
0.00395652
0.00784803
0.00416416
0.0110246
0.00686367
0.00557259
0.00401289
0.00432987
0.00804538
0.00978682
0.00834919
0.00657962
0.00898445
0.00274933
0.0103235
0.00268067
0.00360023
0.00284032
0.00334382
0.00777608
0.0177187
0.0117682
0.0040005
0.00775724
0.00185916
0.00340545
0.00826477
0.00138794
0.00146196
0.00286795
0.00443779
0.00541139
0.00975498
0.0113197
0.00474266
0.00769953
0.0015363
0.00199708
0.000800346
0.000213687
0.00628708
0.000348263
0.00696342
0.00295874
0.00756534
0.00195645
0.00152912
0.00555496
0.00593003
0.0180537
0.00800702
0.00678709
0.00433123
0.00325482
0.00739138
0.00428597
0.0106045
0.00448342
0.00885765
0.00342365
0.00250741
0.00514894
0.00101335
0.00280715
0.00883635
0.0040965
0.00670546
0.00103023
0.0103375
0.0155308
0.00416254
0.0185337
0.0169314
0.00498927
0.013295
0.00963106
0.00760866
0.00475344
0.00172339
0.00729238
0.00373905
0.0023958
0.00477623
0.00345951
0.00345801
0.00415667
0.00670677
0.000276809
0.0108273
0.00128014
0.0045388
0.000176357
0.00954344
0.00167732
0.00189006
0.000156563
0.00123862
0.0042502
0.00356382
0.00717255
0.00149078
0.000107942
0.000358355
0.00908836
0.00625235
0.00330378
0.00631595
0.00485886
0.00358734
0.00400009
0.00476435
0.00195942
0.0120353
0.00364192
0.00624524
0.0083796
0.00522671
0.0112788
0.00130618
0.00281702
0.00817657
0.000901255
0.00604804
0.000842203
0.00515377
0.00615325
0.00444923
0.00504531
0.00830451
0.00266666
0.00723533
0.00396324
0.000571358
0.0133281
0.0126098
0.006891
0.00135732
0.0103516
0.016819
0.00611281
0.00416932
0.000363562
0.00771336
0.00171627
0.000331541
0.00947965
0.000427872
0.00105092
0.00835004
0.0033788
0.000259878
0.00181382
0.00286965
0.00821913
0.00195261
0.00687852
0.0138103
0.00297616
0.00494754
0.00119082
0.00658779
0.000648639
0.0169698
0.00320217
0.00785269
0.00502693
0.00092252
0.00923655
0.00391508
0.0018487
0.00915685
0.00019166
0.00834879
0.0084352
0.005478
0.00608777
0.00475895
0.00367098
0.0024086
0.0104695
0.00138896
0.00441183
0.0039482
0.000376027
0.0117714
0.000723143
0.000560393
0.00188355
0.00200522
0.000379813
0.000178815
0.00220293
0.00232019
0.00695585
0.00402036
0.00383965
0.00593728
0.00797961
0.00286584
0.00260059
6.4366e-06
0.00163097
0.000731759
0.00108598
0.00309778
0.00817623
0.00594508
6.13224e-05
0.0116415
0.00278087
0.00672965
0.000324742
0.00137092
0.0140127
0.00882696
0.00910025
0.00959459
0.00623433
0.000117814
0.00123043
0.00153823
0.000487893
0.0132142
0.000768697
0.0120605
0.000913607
0.00923855
0.00492285
0.00816785
0.00473556
0.0101676
0.00699555
0.00449798
0.00545974
0.00665521
0.00159879
0.00958807
0.00425147
0.0107931
0.000275058
0.0002755
0.009167
0.0087205
0.00380434
0.00228306
0.00168554
0.00347296
0.00194307
0.00353928
0.00689041
0.00664154
0.0117329
0.00741045
0.0174712
0.00114339
0.00589413
0.000128458
0.00705774
0.00960679
0.000673606
0.00763523
0.00159738
0.00498914
0.000964987
0.00674222
0.0125248
0.00910558
0.00576246
0.00608664
0.000956423
0.00314752
0.000763094
0.0020098
0.00284461
0.00380215
0.00982526
0.0109237
0.00341466
0.00266102
0.0041487
0.000357219
0.00367783
0.00506906
0.0117107
0.00477433
0.00430267
0.00286611
0.00219824
0.0139091
0.00274975
0.00586178
0.000973944
0.00567783
0.00133719
0.00138713
0.00708233
0.00365375
0.00546077
0.000465998
0.00238971
0.00502024
0.00611345
0.00346836
0.00300387
0.0031937
0.000667083
0.00573415
0.00571038
0.00243987
0.00111724
0.00524055
0.00594544
0.00835659
0.0033017
0.00472171
0.00685693
0.0122156
0.00219843
0.00038858
0.00599745
0.00333822
0.00565444
0.00946098
0.000901332
0.000226117
0.0170075
0.00151668
0.00399439
0.00646637
0.00511446
0.0108076
0.00200027
0.00191266
0.00108759
0.00212764
0.00475855
0.00220146
0.00177751
0.00724948
0.000293407
0.00299584
0.00752384
0.00351586
0.00129031
0.0139014
0.00765244
0.00380547
0.0057257
0.00571533
0.000255015
0.00294144
0.00711186
0.00822833
0.00148757
0.0103771
0.0121341
0.00802037
0.000502763
0.00390704
0.000728494
0.00988885
0.00131581
0.000363611
0.00487252
0.000224176
0.00251565
0.000989255
0.00780397
0.00662331
0.00427865
0.00405005
0.00134799
0.0109854
0.00149837
0.00778215
0.000440358
0.00204892
0.00706852
0.00264254
0.00275217
0.00176123
0.00219279
0.00423846
0.00553228
0.00722946
0.00543909
0.00179732
0.00877074
0.00637798
0.0086243
0.0123836
0.00643978
0.0125417
0.00231644
0.0101317
0.00153168
0.00116488
0.00597477
5.83776e-05
0.00192802
0.00171628
0.0094736
0.00487596
0.0160035
0.00799634
0.00279011
0.00697901
0.00185235
0.00141425
0.000198194
0.00268429
0.000393843
0.000952749
0.00140159
0.000293939
0.00103777
0.00199128
0.00306913
0.00268028
0.00429687
0.00154993
0.00564766
0.00112762
0.0117825
0.0121836
0.00752715
0.00706724
0.00298852
0.000616524
0.00431194
0.00598038
0.00367297
0.000459932
0.00694626
0.00110639
0.00568984
0.00229884
0.00293759
0.00589491
0.00760659
0.00129591
0.00931025
0.0134838
0.00709889
0.00470755
0.00885251
0.0123836
0.00431497
0.00668395
0.00610378
0.00505493
0.00555038
0.00011431
0.00753344
0.000844251
0.0144314
0.000735658
0.00412845
0.00419182
0.00173734
0.00163249
0.00544112
0.000791179
0.00412444
0.00839654
0.00598498
0.00708769
0.00470824
0.00928517
0.00191764
0.00409678
0.00358149
0.00158966
0.00426664
0.00807206
0.00175108
0.00184626
0.00348372
0.00163705
0.00217183
0.0103462
0.00651603
0.00315037
0.0173756
0.00041667
0.00760466
0.00184941
0.00552099
0.0053122
0.00830063
0.0068922
0.00209763
0.00536316
0.000288897
0.00763553
0.00293249
0.000797681
0.0119405
0.000982513
0.00748234
0.00872446
0.00832979
0.00597152
0.0106042
0.00206251
0.00433419
0.00289642
0.00386527
0.00181312
0.00379146
0.00277542
0.000360652
0.000642371
2.69836e-05
0.00538124
0.00126934
0.0107507
0.00404443
0.00633758
0.00481456
0.00121694
0.00155662
0.000408385
0.00760333
0.00315153
0.00104777
0.0071348
0.00244545
0.00812694
0.0104002
0.00430719
0.00702416
0.00170801
0.000836807
0.00635448
0.00283146
0.00278863
0.00421843
0.00440113
0.00408348
0.00945554
0.00330575
0.00824404
0.00902124
0.00745981
0.0142139
0.00189097
0.00350244
0.00692633
0.014596
0.000787684
0.00560146
0.004533
0.00468388
0.00603939
0.00550056
0.00215828
0.000109967
0.00332426
0.00513888
0.0172098
0.0120984
0.0150112
0.021356
0.0130984
0.00142947
0.000580068
0.0117435
4.87106e-05
0.0024335
0.00374525
0.00338212
0.00296243
0.00146681
0.00014872
0.0012987
0.00795343
0.000623353
0.00668307
0.0107875
0.00305545
0.00547873
0.0080719
0.0198943
0.0081511
0.004626
0.000879772
0.00415295
0.00579165
0.00265802
0.00205341
0.000402617
0.0075135
0.0010655
0.0103972
0.00602218
0.000241844
0.00651281
0.00967161
0.00419446
0.00824609
0.00725787
0.0060953
0.0128355
0.00210464
0.000956259
0.00180326
0.00875068
0.0042255
0.00317649
0.0039473
0.000384214
0.00568271
0.00089323
0.00189616
0.00190209
0.00774834
0.000575723
0.00278732
0.0163327
0.0016189
0.000679617
0.0145111
0.0105769
0.0106992
0.00876612
0.00327281
0.00323025
0.00451721
0.000690829
0.00639655
0.00253788
0.00407581
0.00911375
0.011435
0.00176553
0.00846049
0.0054123
0.00253806
0.00107222
0.00972611
0.00348414
0.00538258
0.00399143
0.00464662
0.000975118
0.00559753
0.00910504
0.00120391
0.000576951
0.000628641
0.000746879
0.00515832
0.00755559
0.00162911
0.0008196
0.0127424
0.0107462
0.000633863
0.000685145
0.00408346
0.0149227
0.0107636
0.00336393
0.00449718
0.00226853
0.00564693
0.00526595
0.00500981
0.00368885
0.00250501
0.00421256
0.00694457
0.000242069
0.00310535
0.00104823
0.00147627
0.00305997
0.0115179
0.00176927
0.00544548
0.00251897
0.0198141
0.00227039
0.000794085
0.000305333
0.00457401
0.00909706
0.0126137
0.00236087
0.00870731
0.00352506
0.00685472
0.00343466
0.00151662
0.0090686
0.00453672
0.00283465
0.00118208
0.00766933
0.00328595
0.00553268
0.000311057
0.00622066
0.0155371
0.0111408
0.00785548
0.00197328
0.00990179
0.00593958
0.00661998
0.00845956
0.00244042
0.00413602
0.00493925
0.0010053
0.0115598
0.00690752
0.0105712
0.0136681
0.0174365
0.0118588
0.00653548
0.0103789
0.0145002
0.00194052
0.014592
0.000372843
0.00268438
0.00192912
0.00629928
0.00322288
0.00598938
0.000680736
0.000326113
0.000601642
0.00050623
0.00329722
0.00142867
0.00983711
0.00124507
0.0222304
0.000691403
0.0191103
0.0138588
0.0141763
0.00545619
0.00437973
0.0162193
0.00336683
0.0087763
0.00167064
0.00947282
0.000794759
0.00578606
0.016837
0.00578269
0.00433329
0.00587958
0.00883896
0.00644262
0.0173747
0.0136503
0.0190296
0.0128149
0.0104543
0.0128786
0.0088401
0.00680548
0.00884615
0.00836722
0.00366059
0.00446185
0.00329857
0.00839605
0.000242433
0.0108613
0.0102782
0.00814902
0.0133724
0.00610522
0.0163414
0.00273723
0.0146713
0.00626381
0.000793555
0.00874652
0.0125704
0.00908385
0.000881095
0.0027269
0.0029294
0.00235511
0.00430978
0.00149455
0.0108049
0.00557595
0.00340434
0.0105162
0.00181349
0.00482506
0.00690388
0.0133991
0.0151244
0.00419118
0.0191913
0.00685042
0.0020712
0.0133974
0.00166636
0.00374598
0.0104142
0.00244569
0.00252313
0.00797398
0.00461388
0.00388921
0.000872636
0.00405616
0.00183922
0.00559524
0.00374361
0.00287052
0.0159338
0.0113176
0.00151312