/*--------------------------------*- C++ -*----------------------------------*\
| =========                 |                                                 |
| \\      /  F ield         | OpenFOAM: The Open Source CFD Toolbox           |
|  \\    /   O peration     | Version:  2212                                  |
|   \\  /    A nd           | Website:  www.openfoam.com                      |
|    \\/     M anipulation  |                                                 |
\*---------------------------------------------------------------------------*/
FoamFile
{
    version     2.0;
    format      ascii;
    arch        "LSB;label=32;scalar=64";
    class       volScalarField;
    location    "0";
    object      stateMean;
}
// * * * * * * * * * * * * * * * * * * * * * * * * * * * * * * * * * * * * * //

dimensions      [0 0 0 1 0 0 0];

internalField   nonuniform List<scalar> 
3200
(
344.966
346.846
345.131
345.673
350.727
352.302
347.716
349.889
351.917
351.896
349.755
348.073
350.86
349.235
351.677
346.037
349.645
346.242
345.555
343.881
342.53
340.03
341.934
340.403
343.464
344.762
342.688
343.168
346.668
343.883
341.733
342.687
341.581
342.997
340.995
341.366
340.306
339.65
336.359
337.591
329.523
333.543
333.535
334.188
334.879
332.65
332.464
336.548
340.71
336.109
337.489
335.168
336.525
337.971
333.846
331.347
335.771
336.492
336.007
331.265
325.968
329.574
329.785
326.597
329.804
326.479
328.095
327.403
326.501
332.059
328.896
328.981
331.06
327.608
327.117
327.445
329.304
329.942
324.906
325.346
321.976
323.597
322.049
322.171
325.136
322.708
323.416
319.251
321.903
322.893
322.575
323.284
324.605
322.122
324.132
324.353
321.588
321.146
318.65
321.256
314.747
312.028
314.035
316.147
314.014
318.271
314.802
316.185
314.278
319.024
316.396
316.94
317.121
317.472
316.237
315.007
315.015
316.374
314.85
316.06
306.365
309.38
308.049
310.989
308.138
310.37
306.99
312.798
308.907
306.406
307.293
308.68
310.015
310.297
310.415
309.77
309.438
307.643
308.142
308.968
302.16
303.506
303.261
302.696
301.479
301.265
302.274
301.462
304.608
301.672
300.68
307.065
306.135
302.77
302.569
299.334
304.949
302.1
299.621
303.211
346.234
347.879
350.312
349.219
348.809
350.633
350.748
351.56
352.104
350.671
353.093
351.829
349.917
346.845
349.68
348.958
348.024
347.767
345.751
344.974
337.586
341.408
343.47
340.078
343.595
343.2
346.668
344.578
344.538
346.443
346.353
344.219
344.891
345.385
344.263
341.921
342.058
339.406
338.983
335.975
333.847
336.284
334.431
334.582
337.651
336.891
339.483
339.697
336.163
339.036
336.234
332.372
341.385
338.366
338.359
337.878
334.236
335.818
334.011
332.936
325.279
328.777
327.226
328.571
331.115
328.763
331.548
330.248
331.266
325.559
333.608
328.073
329.706
330.074
328.687
329.237
328.927
326.562
329.505
329.668
322.546
318.096
321.017
321.423
322.115
320.884
324.074
322.734
325.45
322.969
323.806
322.275
324.61
320.77
324.263
320.856
320.421
320.728
324.632
321.583
318.96
313.914
317.297
318.927
318.61
313.768
317.734
316.558
317.576
315.317
321.968
316.209
320.356
317.571
315.067
317.079
314.005
315.48
314.562
317.163
311.045
306.889
310.584
310.271
308.041
305.859
310.894
309.539
310.634
309.317
311.77
306.437
306.209
310.058
309.584
309.508
312.664
312.758
309.074
305.931
300.605
304.045
306.88
305.573
304.646
302.877
303.525
307.121
301.142
302.79
301.956
302.587
298.144
300.46
305.613
303.201
301.341
301.99
305.144
304.058
348.493
345.443
346.72
351.594
348.916
350.346
351.138
351.073
352.779
350.989
352.756
351.448
351.534
351.572
351.682
345.956
347.991
350.204
349.509
346.838
340.799
343.292
343.863
342.748
344.18
342.528
348.017
345.65
345.045
346.715
344.721
344.753
345.977
344.44
343.714
344.669
341.741
344.344
338.498
338.102
336.549
336.517
336.181
335.278
335.877
338.997
341.047
339.725
340.536
338.996
338.295
338.635
339.224
337.309
340.265
335.389
337.756
333.625
333.133
328.405
329.123
330.648
329.708
328.482
332.987
329.468
334.281
332.007
328.535
331.455
331.448
333.902
330.062
330.62
329.643
329.33
330.812
326.831
325.143
330.027
319.163
321.024
323.387
323.714
323.733
327.755
325.036
324.991
324.486
327.456
326.279
324.37
324
324.841
321.325
324.928
323.592
323.136
322.099
319.547
317.527
317.717
315.216
315.504
316.13
314.073
316.982
318.766
319.042
315.482
317.494
318.353
317.209
315.232
317.2
318.101
317.246
314.896
319.281
315.214
305.953
310.124
309.411
311.032
307.543
306.465
311.087
310.912
308.919
315.248
312.205
310.288
313.068
309.779
310.075
312.579
311.923
310.817
309.845
308.502
309.323
302.706
303.223
307.027
305.389
302.612
306.217
306.77
300.673
301.728
301.717
305.723
301.965
302.446
304.084
301.641
301.287
303.842
306.604
304.884
345.554
348.071
352.976
351.19
349.528
350.195
354.286
351.599
358.21
352.094
355.661
358.234
356.459
352.985
353.481
351.864
349.559
347.706
346.204
347.971
340.056
343.217
345.351
342.907
346.011
343.496
343.637
346.588
348.869
346.628
345.691
350.909
345.262
345.302
343.808
344.667
341.914
341.52
340.704
342.128
336.956
337.785
337.902
340.255
335.592
338.219
337.997
340.158
338.209
337.342
338.794
339.172
340.338
338.136
338.423
338.341
334.411
337.008
335.717
332.745
328.222
331.199
330.193
328.024
329.731
332.003
331.265
332.773
330.392
330.88
331.117
332.407
332.483
330.27
331.651
330.221
329.496
329.505
329.507
328.214
321.979
321.075
322.474
324.913
323.833
324.595
326.308
325.256
325.25
323.56
325.634
327.1
321.874
323.498
322.601
321.293
319.638
320.707
322.054
318.951
317.59
318.031
315.765
320.588
316.902
317.478
315.667
314.938
317.057
314.846
315.297
313.879
316.126
315.707
313.243
315.646
315.251
315.41
313.442
317.061
309.75
309.989
307.467
310.987
310.761
309.64
313.326
308.837
310.647
307.973
312.545
310.29
309.267
309.158
311.023
307.392
307.742
311.063
307.559
308.14
301.409
305.005
304.312
305.459
303.585
307.856
302.875
304.081
300.249
302.403
302.202
301.354
304.434
305.76
303.095
304.098
304.262
303.224
301.352
302.205
350.18
353.163
350.85
353.54
353.908
354.346
356.387
357.732
354.559
356.879
355.814
355.976
352.537
353.768
354.042
351.505
351.437
349.252
348.113
349.206
342.11
342.182
345.318
346.366
345.927
348.448
349.666
347.107
348.883
344.383
349.856
345.456
351.676
346.458
350.876
346.426
345.947
346.674
343.346
341.642
336.34
337.675
339.431
336.432
338.964
339.641
336.645
345.922
338.717
340.621
338.973
338.27
337.371
337.83
339.497
339.359
338.718
341.35
334.408
333.781
326.997
329.212
332.896
331.252
332.685
329.395
334.608
333.219
333.383
332.129
334.222
331.13
332.132
334.06
331.335
332.701
332.822
331.485
330.936
329.839
322.446
326.133
327.715
325.207
325.494
322.892
322.861
323.072
324.211
323.957
324.692
323.13
324.792
326.931
323.19
324.581
325.398
321.134
322.246
319.636
315.494
312.953
315.583
316.276
316.277
317.571
320.299
320.554
318.135
320.186
318.496
321.868
318.487
318.801
318.184
317.887
314.633
316.848
317.159
319.67
310.883
308.67
306.15
308.797
311.805
307.757
313.598
312.167
308.514
312.037
309.748
307.837
309.892
310.888
308.958
311.294
308.465
314.237
310.441
306.958
298.129
300.439
306.242
303.29
303.132
302.944
303.007
302.962
305.084
303.066
306.728
304.481
301.538
304.484
303.134
301.217
305.574
306.337
303.593
301.887
352.905
351.329
357.207
352.203
353.711
354.087
354.647
352.993
355.493
354.898
358.78
359.509
356.661
355.869
357.726
352.32
353.082
353.275
347.368
352.212
342.385
345.678
343.103
345.723
344.854
344.691
349.069
347.228
351.192
346.344
347.307
348.358
347.156
348.95
345.463
346.025
343.85
342.315
342.189
342.253
338.2
339.334
339.241
333.318
337.98
345.22
340.781
339.899
344.361
340.587
343.622
340.733
342.12
338.253
344.2
339.288
335.615
338.179
338.024
335.026
328.652
333.003
330.849
331.283
332.847
331.932
332.82
332.296
333.738
333.343
333.602
332.044
333.863
331.767
331.104
332.642
330.207
331.029
329.071
325.699
326.556
324.356
323.215
324.905
324.486
321.399
328.031
322.799
324.852
327.404
325.132
327.198
323.551
325.075
326.559
324.251
323.23
324.826
321.855
323.297
316.041
317.486
320.264
318.712
317.673
320.344
319.434
320.704
319.773
315.803
317.665
316.501
318.18
317.192
316.937
318.433
320.804
316.812
316.928
313.406
310.442
309.763
308.663
309.353
310.914
310.116
310.793
309.365
312.849
312.884
312.38
310.684
309.387
309.037
308.98
309.041
312.032
312.217
310.312
311.332
304.155
302.521
303.029
302.698
305.704
302.018
306.32
303.589
302.448
304.601
301.44
304.966
304.74
304.664
302.153
304.962
301.437
305.435
304.691
302.607
354.311
350.787
352.519
352.162
351.692
358.068
355.967
357.65
359.155
358.925
359.606
360.342
361.299
354.856
354.328
353.003
355.058
352.036
350.03
351.588
342.839
344.523
344.839
347.057
347.834
347.261
350.442
349.855
348.935
350.762
352.849
350.42
347.775
348.767
350.783
347.023
345.193
343.52
346.631
345.753
336.962
335.666
337.346
340.443
338.982
342.703
346.851
339.698
343.275
341.128
340.786
340.444
343.125
340.005
340.806
337.094
338.59
338.458
336.299
334.811
330.507
329.401
329.777
332.237
333.423
329.708
335.823
332.072
334.13
335.177
337.566
336.058
334.591
334.537
336.16
331.414
330.005
329.459
328.39
332.424
319.483
324.449
324.432
326.109
323.614
324.586
325.535
328.299
325.846
326.954
325.636
327.177
327.357
327.47
328.964
324.127
324.702
324.286
324.249
323.354
317.033
318.954
319.173
321.174
317.156
318.898
321.249
319.221
318.378
318.933
319.279
319.908
317.636
318.577
318.35
317.619
315.939
317.574
314.703
314.982
309.549
309.111
311.004
309.52
311.382
312.383
310.616
311.718
313.013
310.829
312.556
308.392
314.261
311.257
310.557
310.292
311.535
311.666
310.54
309.896
301.87
300.376
301.984
302.929
304.389
302.773
301.741
303.341
301.502
303.791
305.016
303.092
301.16
303.504
302.871
301.063
303.1
304.818
304.435
303.006
355.634
354.83
355.74
354.066
358.153
356.665
359.557
359.853
359.831
358.18
360.781
362.247
356.796
357.432
357.468
354.712
352.478
355.182
352.393
349.492
345.834
345.669
349.493
349.115
352.538
346.08
345.779
347.428
352.537
347.769
348.017
353.343
347.69
347.24
346.149
351.825
345.018
344.926
343.331
342.325
338.731
341.074
337.029
339.023
342.688
340.455
342.495
345.808
343.835
350.165
343.773
345.197
344.851
340.893
339.43
340.766
341.114
340.296
334.177
336.365
329.595
331.609
334.241
332.254
333.479
334.507
332.959
335.098
334.341
336.364
334.836
335.06
332.576
330.616
333.937
338.347
333.768
329.935
334.662
328.036
325.348
324.727
324.343
328.837
327.574
326.9
327.358
324.784
327.767
328.439
329.254
330.045
328.808
330.059
326.211
325.543
322.199
325.386
323.247
329.691
317.55
314.317
316.622
316.453
318.734
319.422
316.027
323.016
317.234
319.491
319.729
320.131
317.887
323.554
315.179
320.411
317.711
320.439
317.461
321.981
309.881
310.669
308.209
312.493
313.012
310.615
312.336
309.408
311.255
310.823
314.04
311.397
311.235
310.678
313.659
309.43
309.935
312.461
304.986
310.22
305.078
304.355
303.928
304.525
304.812
301.824
303.121
298.453
305.124
304.422
306.285
302.173
303.935
302.254
302.871
301.491
302.398
304.182
303.166
303.248
353.526
353.326
354.838
356.118
357.101
358.763
362.584
357.296
361.184
361.441
360.109
358.525
358.583
358.489
361.476
358.011
353.647
352.87
356.322
352.218
345.291
346.075
347.87
346.98
350.678
351.175
351.804
351.54
348.025
351.235
350.981
355.102
351.147
353.323
352.033
352.315
349.923
347.737
343.343
344.734
343.377
340.936
341.118
341.749
339.893
344.713
340.091
343.765
341.878
343.371
348.137
343.246
342.339
339.321
340.849
343.494
339.443
340.658
338.909
339.267
332.955
329.965
332.191
334.829
336.302
335.564
336.196
337.677
332.575
335.817
335.353
335.687
337.85
336.812
330.462
333.207
330.665
333.236
331.344
331.259
323.313
326.222
323.037
329.084
323.162
327.679
325.743
326.403
327.798
323.903
329.09
327.279
326.875
325.052
325.672
325.242
321.92
324.998
324.984
321.48
317.373
314.194
317.083
318.615
317.897
319.777
316.263
318.371
319.163
317.87
320.885
318.575
320.471
321.69
320.926
314.097
317.058
317.92
315.384
315.32
313.091
309.038
313.456
310.233
309.925
309.251
309.873
309.9
312.495
308.222
310.903
310.436
311.181
311.28
309.182
309.824
306.577
311.277
309.382
314.012
301.318
302.226
302.049
303.533
303.74
301.33
302.688
300.74
303.457
306.717
301.67
306.301
300.81
304.949
301.486
300.423
306.003
303.835
300.273
307.042
350.584
357.919
358.707
357.548
358.705
361.949
357.328
358.287
360.639
358.229
363.596
361.038
361.611
360.661
360.583
356.421
353.085
354.156
355.617
350.844
342.575
348.362
345.426
349.745
351.63
348.198
352.813
349.272
353.678
349.032
348.75
354.713
348.657
351.086
346.911
350.684
345.758
346.442
344.094
343.691
337.345
341.898
340.794
340.868
341.937
340.405
342.331
344.963
341.876
342.314
343.744
342.567
346.577
346.074
342.884
342.595
339.424
341.032
340.06
341.303
331.801
334.126
332.063
333.674
334.567
336.831
337.207
333.395
335.404
333.106
338.139
337.48
335.767
334.264
334.118
337.049
335.171
332.481
333.841
333.459
325.045
328.016
325.788
323.569
327.129
325.342
332.556
329.122
326.554
328.338
324.921
329.088
324.829
324.839
327.401
326.082
323.175
325.302
323.719
324.668
314.942
316.052
320.368
321.66
318.369
317.748
318.619
317.68
320.59
319.107
320.193
318.132
320.077
317.671
321.724
316.46
319.283
319.465
316.176
317.517
309.983
309.361
314.931
311.173
314.738
314.51
313.483
313.195
311.615
311.395
312.736
313.129
311.861
312.158
314.125
309.651
312.222
311.164
311.851
308.076
304.273
302.11
303.607
304.455
307.243
302.636
300.455
302.431
304.4
306.092
304.613
301.978
303.473
306.614
302.534
304.959
302.556
301.638
302.717
301.13
355.725
357.627
358.249
359.742
359.592
360.234
359.764
359.791
359.941
363.799
364.641
359.354
358.527
358.523
356.568
362.242
359.753
359.155
355.521
353.751
346.365
347.469
348.191
349.296
355.754
349.019
351.867
350.129
353.838
349.14
349.967
353.532
350.015
351.423
349.925
350.104
348.381
349.971
346.71
343.574
341.567
339.484
341.492
346.002
344.491
345.951
346.196
343.277
346.041
347.634
343.387
345.825
345.782
343.604
341.053
342.84
340.025
343.97
339.293
340
333.447
332.157
333.966
333.537
338.132
332.477
336.63
336.133
337.643
333.873
339.422
336.741
338.064
336.937
338.668
339.241
335.79
332.655
333.167
334.991
325.773
327.429
328.857
327.178
327.556
323.486
327.415
326.501
330.924
330.46
327.405
329.265
328.689
327.076
328.964
324.119
326.643
326.897
324.689
325.221
317.889
319.832
319.191
317.909
317.625
320.138
323.626
318.488
317.64
319.238
320.214
320.132
318.022
321.915
320.789
317.226
319.252
318.825
315.135
317.726
310.911
310.166
311.419
312
312.211
310.539
312.066
315.168
310.447
313.421
307.432
310.64
309.772
312.252
312.396
310.039
308.369
311.915
311.805
308.793
304.31
303.29
304.184
304.663
303.824
300.748
302.493
303.601
304.833
306.265
304.875
303.8
303.987
302.456
301.339
302.109
303.526
305.43
302.562
301.879
357.509
355.851
357.345
360.677
360.154
361.31
364.115
361.393
362.564
363.732
362.837
362.575
358.775
363.327
361.674
359.295
355.929
359.682
357.256
358.828
345.002
348.094
350.141
350.055
353
355.342
355.266
353.468
354.763
354.222
354.089
353.329
357.285
352.666
354.121
348.179
351.717
349.129
349.206
345.84
340.425
341.523
342.645
345.881
344.248
346.56
343.122
349.898
345.922
345.843
345.483
343.41
346.006
345.326
346.674
344.806
339.367
342.839
343.489
340.991
334.497
332.142
338.03
336.176
334.855
333.274
335.7
338.879
338.039
341.735
338.8
340.706
340.357
336.9
336.275
335.588
334.561
335.954
334.518
331.962
326.427
327.369
325.065
328.335
323.873
325.599
329.188
329.176
330.106
328.389
329.137
325.831
332.831
329.133
329.457
329.675
327.434
328.388
326.892
321.726
320.271
316.474
319.735
320.06
321.467
315.987
321.961
321.548
322.424
318.73
316.31
320.41
320.596
320.202
320.177
321.381
313.033
322.205
319.52
320.555
310.287
312.018
313.656
311.652
310.897
310.585
312.972
309.992
314.785
308.248
313.256
314.144
311.2
310.967
311.727
311.285
309.263
311.193
313.124
311.785
301.345
304.268
303.252
302.074
305.607
309.333
301.451
305.978
302.62
304.937
306.195
305.239
307.138
302.522
306.538
304.845
304.523
302.152
303.982
302.79
359.083
357.879
359.405
357.259
361.936
364.373
360.799
366.378
366.095
361.947
364.938
363.467
362.448
361.011
359.419
360.845
358.964
357.866
358.121
354.707
349.682
350.334
351.737
350.025
354.247
350.496
352.975
351.796
355.343
352.705
352.78
351.929
352.17
349.887
352.196
352.967
350.45
349.432
349.009
351.644
338.886
342.484
343.945
340.574
343.911
344.47
345.102
343.092
348.117
345.34
346.236
346.859
345.563
347.34
343.546
341.717
345.035
341.478
339.291
340.731
331.843
335.888
335.672
336.242
332.136
336.152
337.987
337.135
336.17
340.547
340.306
338.293
336.26
339.033
340.897
336.964
333.159
334.064
336.409
332.99
326.001
329.41
326.449
327.22
324.427
328.53
327.574
327.254
328.925
330.75
327.413
330.24
332.377
328.634
329.044
326.769
329.029
326.377
320.779
325.065
321.159
317.201
319.292
316.255
318.155
320.186
316.834
319.96
317.323
317.345
318.292
321.943
321.421
320.936
318.825
322.749
318.76
320.405
320.063
318.777
307.543
311.519
311.586
312.121
312.28
311.887
311.814
311.264
312.733
309.869
310.784
313.207
313.803
314.359
310.876
310.845
311.536
310.903
311.066
310.868
302.815
306.27
302.019
303.885
307.445
303.1
306.025
303.907
304.442
308.295
301.351
306.792
301.089
302.084
303.981
303.533
303.399
303.973
307.8
303.989
362.134
357.937
362.123
361.142
362.864
362.146
364.56
363.785
363.143
363.626
364.058
362.095
364.722
362.425
364.329
359.825
359.274
362.097
355.14
356.458
349.304
349.889
352.168
352.121
350.671
354.79
355.098
357.216
355.915
359.588
353.009
355.379
353.118
355.245
355.747
352.154
354.121
350.388
348.731
350.441
340.084
338.412
339.976
341.535
346.011
343.967
345.713
344.634
345.78
344.203
343.873
348.477
348.665
345.805
345.212
345.345
343.637
344.362
340.967
338.382
336.283
333.495
334.298
334.859
340.6
337.162
338.482
336.401
338.797
337.415
337.431
334.498
337.959
338.347
336.394
335.125
333.912
333.209
336.098
335.69
328.025
327.392
329.301
329.558
328.745
328.552
326.676
330.521
331.435
327.666
330.303
330.942
332.582
329.119
328.313
325.978
326.593
325.573
324.079
326.686
319.351
324.848
319.109
318.505
317.897
321.775
323.751
319.771
321.111
320.194
319.861
322.023
321.117
320.858
317.817
320.06
320.74
317.189
318.293
319.691
307.249
314.046
312.954
313.667
313.775
312.015
311.268
310.038
314.881
312.803
315.579
316.101
314.763
312.343
313.314
312.219
308.797
311.358
311.548
310.062
303.95
303.144
303.644
306.354
306.034
305.355
305.317
304.519
300.786
303.68
301.769
303.993
304.732
301.936
304.857
303.183
304.517
303.279
305.197
305.563
357.26
358.312
360.124
364.456
364.095
365.377
367.151
360.651
367.775
362.497
367.02
362.664
362.566
364.827
362.274
361.09
360.667
357.354
358.515
354.103
349.055
353.199
350.187
353.748
353.029
353.862
355.236
354.429
355.108
355.37
354.977
354.402
355.275
355.372
352.983
355.048
352.547
350.656
351.819
347.723
339.693
341.58
342.1
345.943
345.067
347.111
347.989
344.89
346.49
344.012
346.801
348.302
346.957
344.904
347.658
347.906
344.465
341.327
339.53
341.442
334.322
333.158
332.265
338.193
339.294
339.379
339.271
339.637
337.94
340.518
337.687
333.025
338.01
336.171
338.734
337.627
336.19
334.6
335.868
334.518
330.68
326.141
326.008
327.028
331.862
328.396
327.868
330.55
330.002
330.94
332.194
328.901
328.762
328.07
328.488
328.095
325.175
330.474
327.071
322.229
319.822
317.647
319.653
322.185
318.881
318.077
323.087
321.658
319.34
321.009
323.554
320.12
320.729
324.706
320.424
318.185
317.621
317.577
318.17
316.562
311.342
310.707
313.063
311.055
312.928
311.271
313.404
312.49
312.851
312.682
310.991
312.253
315.964
313.801
310.476
313.866
311.882
311.673
311.933
309.613
304.975
304.362
306.245
304.854
306.616
301.012
305.512
302.088
303.72
303.993
302.315
305.101
305.073
305.485
305.514
302.902
306.986
303.07
301.536
301.274
359.357
357.284
362.208
362.09
361.298
369.553
364.89
362.853
363.448
363.499
363.004
367.111
364.109
364.563
363.026
361.948
357.11
358.504
356.995
354.326
349.133
354.592
354.688
350.721
355.266
354.781
357.297
357.424
357.453
357.013
356.543
356.86
359.052
356.186
353.269
351.45
353.805
352.54
351.228
346.729
342.669
344.151
345.779
344.988
348.769
347.992
346.624
347.413
345.092
348.154
351.399
349.798
347.637
349.599
343.712
345.307
343.57
343.571
343.643
341.051
337.92
337.1
337.086
335.019
336.821
337.427
337.385
339.029
337.095
338.783
338.443
338.377
336.273
338.917
337.558
332.725
338.524
337.925
332.527
333.643
325.423
326.221
330.395
328.472
328.258
330.172
328.004
331.091
331.695
327.388
326.621
329.766
327.459
328.329
329.107
329.394
326.331
328.17
327.335
327.629
322.169
321.108
319.149
324.026
321.641
321.579
321.718
321.375
323.343
319.288
322.243
321.948
317.517
318.061
321.598
321.474
319.791
316.156
317.342
319.6
313.825
311.78
310.814
311.026
314.332
311.695
312.138
314.299
310.849
313.12
312.072
312.695
313.443
313.88
316.452
312.212
310.97
311.792
306.297
311.711
303.921
304.279
305.607
301.48
308.117
305.025
306.981
305.424
306.451
305.417
303.91
301.605
302.97
303.468
304.667
301.945
305.248
302.533
304.091
302.271
358.725
360.67
362.284
364.859
362.368
364.194
364.271
363.858
366.25
365.722
365.427
366.777
362.72
364.166
362.497
360.99
359.206
360.822
362.349
360.604
350.615
355.377
351.229
356.934
358.117
358.176
355.517
359.154
356.014
358.485
358.358
357.944
357.819
356.591
356.975
353.645
356.357
348.506
355.822
348.975
342.365
342.495
345.828
346.514
342.691
347.445
345.798
348.471
345.881
349.536
347.237
343.31
347.036
350.372
346.569
345.262
345.796
341.683
342.678
340.569
334.25
335.243
334.668
336.292
337.227
336.76
337.119
338.877
341.751
339.168
337.433
340.315
343.816
336.47
336.997
334.998
337.22
333.494
337.858
333.621
327.945
329.9
327.466
326.4
327.744
331.217
331.982
330.232
330.508
329.904
330.837
327.708
333.049
332.206
327.445
330.148
328.96
328.074
325.738
325.021
320.095
315.377
319.482
321.161
317.652
321.556
320.996
318.935
323.141
323.197
324.955
323.84
323.544
321.922
320.787
321.374
320.027
320.482
320.625
316.32
309.336
312.467
311.123
312.691
308.021
312.064
314.203
314.111
311.648
313.55
316.105
310.218
309.681
313.737
314.176
311.625
311.908
313.637
313.656
308.726
305.402
305.97
302.903
305.905
299.612
305.168
303.482
305.581
304.088
304.205
302.516
308.722
303.987
304.808
305.249
304.504
306.642
306.246
304.217
302.391
358.629
359.455
361.26
363.293
364.633
363.353
364.175
366.405
367.793
366.16
365.164
364.516
366.994
366.289
362.07
360.858
359.657
361.127
357.786
355.004
350.672
349.756
352.665
350.529
355.705
353.895
355.64
356.053
356.363
357.229
355.72
357.943
359.371
355.434
352.208
353.501
354.931
354.507
350.647
345.221
347.472
343.887
345.069
344.603
346.143
343.174
347.455
345.915
347.968
351.044
350.084
348.605
350.394
348.154
345.179
345.03
342.148
341.741
344.472
340.42
335.348
338.397
335.466
337.383
339.404
336.008
337.869
342.171
341.018
338.989
339.308
340.49
337.653
341.678
337.021
335.054
332.205
336.44
333.797
330.308
326.164
326.941
328.773
327.993
330.177
328.77
330.458
334.106
331.115
331.649
331.021
330.708
328.084
332.019
331.392
330.882
329.775
327.163
326.636
329.46
320.397
321.035
321.573
320.265
321.461
320.047
321.306
324.352
321.402
319.684
319.024
319.522
317.795
321.414
319.95
320.631
319.343
321.615
323.28
318.769
311.691
308.986
311.264
313.855
313.676
316.096
308.908
315.544
312.485
313.197
311.553
313.905
312.372
312.45
313.138
311.735
313.957
312.804
309.815
316.495
306.691
304.166
303.231
303.438
303.742
305.533
307.046
304.907
305.265
305.314
302.906
303.242
299.547
304.616
305.455
302.657
303.14
307.323
302.826
308.47
358.856
362.184
360.355
362.325
365.373
364.714
366.384
366.291
367.725
365.004
366.716
363.569
365.181
366.962
364.309
363.963
359.863
359.549
356.314
357.172
350.896
360.754
356.566
360.943
357.498
361.284
356.463
360.698
355.799
361.135
361.118
354.303
360.744
356.141
360.586
349.964
360.367
350.883
359.409
345.918
342.737
348.436
343.066
345.898
349.014
346.034
347.355
343.628
345.677
345.392
347.078
344.484
344.237
349.52
346.781
344.126
346.362
346.117
344.036
341.829
333.571
335.087
336.085
334.905
337.878
336.665
339.047
339.533
341.159
337.971
340.713
340.437
335.171
338.199
337.071
336.808
338.923
335.134
335.795
332.096
322.639
328.101
329.037
331.043
330.387
328.894
328.541
332.249
329.683
330.888
330.588
331.108
329.467
329.431
329.917
327.563
327.786
329.328
326.713
327.535
318.591
320.148
322.542
320.221
317.883
317.886
318.626
323.862
319.798
321.395
319.528
321.193
319.728
320.405
321.307
319.748
323.601
314.654
323.018
316.381
314.15
310.918
313.452
313.718
311.314
311.549
314.374
312.315
309.603
315.498
314.07
312.965
310.426
314.185
314.973
308.56
314.334
311.052
312.925
312.261
302.774
303.586
305.633
304.636
306.696
306.503
302.938
305.684
305.683
301.484
305.378
302.626
306.095
307.077
303.284
307.843
303.677
302.259
303.686
303.774
359.538
358.571
362.001
359.526
364.506
361.234
366.73
368.038
363.816
366.17
366.779
365.474
366.446
363.08
361.742
362.196
359.056
358.356
358.284
355.419
351.317
352.766
350.181
352.279
353.575
358.436
354.445
352.466
356.88
357.603
357.18
358.016
354.601
353.386
351.856
351.369
354.107
352.504
348.379
347.578
339.4
342.733
342.351
344.674
344.78
347.355
347.514
345.902
348.843
347.128
346.932
346.034
348.785
346.243
346.815
344.99
344.4
342.856
340.711
340.41
334.052
334.518
335.81
338.915
334.427
337.42
341.827
339.2
339.332
340.016
341.328
337.617
335.952
335.333
335.591
334.146
335.904
333.074
332.696
333.896
323.972
326.439
328.974
330.629
327.361
333.598
332.958
328.937
329.481
328.358
329.659
331.882
330.278
331.288
327.759
330.452
326.734
329.831
327.084
323.759
321.315
321.145
321.162
320.78
321.126
320.577
321.07
325.044
320.614
323.143
322.114
323.11
317.995
324.725
321.533
319.708
321.072
318.579
318.171
320.377
313.505
311.762
312.484
312.663
309.406
312.896
312.375
313.433
312.344
311.636
313.939
314.591
313.114
310.86
310.656
311.697
310.594
310.23
313.668
308.184
305.148
304.746
306.134
301.655
305.991
301.552
306.366
306.728
303.106
306.829
305.892
304.001
301.617
306.352
300.317
303.513
304.345
302.605
301.517
301.327
)
;

boundaryField
{
    hotSide
    {
        type            fixedGradient;
        gradient        nonuniform List<scalar> 
400
(
321.511
322.87
325.591
329.677
335.133
341.965
350.181
359.788
370.794
383.208
397.037
412.289
428.971
447.088
466.647
487.651
510.105
534.011
559.372
586.191
323.738
325.08
327.767
331.802
337.194
343.949
352.078
361.591
372.498
384.81
398.537
413.687
430.268
448.289
467.755
488.672
511.043
534.872
560.161
586.913
326.149
327.47
330.116
334.091
339.406
346.071
354.099
363.503
374.296
386.491
400.101
415.136
431.606
449.52
468.885
489.706
511.988
535.735
560.948
587.63
328.704
330
332.597
336.503
341.73
348.292
356.205
365.485
376.15
388.215
401.695
416.604
432.954
450.753
470.009
490.73
512.919
536.579
561.714
588.325
331.33
332.599
335.142
338.97
344.099
350.546
358.332
367.477
378.003
389.928
403.271
418.047
434.27
451.949
471.095
491.712
513.807
537.382
562.439
588.978
333.918
335.158
337.643
341.389
346.414
352.74
360.392
369.397
379.779
391.562
404.765
419.407
435.503
453.065
472.101
492.618
514.622
538.114
563.096
589.569
336.321
337.531
339.959
343.622
348.544
354.751
362.274
371.142
381.385
393.031
406.101
420.618
436.595
454.047
472.983
493.409
515.33
538.747
563.663
590.076
338.36
339.543
341.92
345.509
350.339
356.44
363.847
372.595
382.718
394.244
407.2
421.608
437.485
454.844
473.695
494.045
515.897
539.253
564.114
590.478
339.852
341.015
343.352
346.885
351.645
357.665
364.985
373.643
383.675
395.113
407.984
422.312
438.116
455.407
474.197
494.491
516.294
539.606
564.428
590.758
340.643
341.795
344.11
347.613
352.334
358.311
365.584
374.193
384.176
395.567
408.393
422.679
438.443
455.699
474.456
494.722
516.498
539.788
564.589
590.901
340.643
341.795
344.11
347.613
352.334
358.311
365.584
374.193
384.176
395.567
408.393
422.679
438.443
455.699
474.456
494.722
516.498
539.788
564.589
590.901
339.852
341.015
343.352
346.885
351.645
357.665
364.985
373.643
383.675
395.113
407.984
422.312
438.116
455.407
474.197
494.491
516.294
539.606
564.428
590.758
338.36
339.543
341.92
345.509
350.339
356.44
363.847
372.595
382.718
394.244
407.2
421.608
437.485
454.844
473.695
494.045
515.897
539.253
564.114
590.478
336.321
337.531
339.959
343.622
348.544
354.751
362.274
371.142
381.385
393.031
406.101
420.618
436.595
454.047
472.983
493.409
515.33
538.747
563.663
590.076
333.918
335.158
337.643
341.389
346.414
352.74
360.392
369.397
379.779
391.562
404.765
419.407
435.503
453.065
472.101
492.618
514.622
538.114
563.096
589.569
331.33
332.599
335.142
338.97
344.099
350.546
358.332
367.477
378.003
389.928
403.271
418.047
434.27
451.949
471.095
491.712
513.807
537.382
562.439
588.978
328.704
330
332.597
336.503
341.73
348.292
356.205
365.485
376.15
388.215
401.695
416.604
432.954
450.753
470.009
490.73
512.919
536.579
561.714
588.325
326.149
327.47
330.116
334.091
339.406
346.071
354.099
363.503
374.296
386.491
400.101
415.136
431.606
449.52
468.885
489.706
511.988
535.735
560.948
587.63
323.738
325.08
327.767
331.802
337.194
343.949
352.078
361.591
372.498
384.81
398.537
413.687
430.268
448.289
467.755
488.672
511.043
534.872
560.161
586.913
321.511
322.87
325.591
329.677
335.133
341.965
350.181
359.788
370.794
383.208
397.037
412.289
428.971
447.088
466.647
487.651
510.105
534.011
559.372
586.191
)
;
    }
    coldSide
    {
        type            mixed;
        refValue        uniform 300;
        refGradient     uniform 0;
        valueFraction   uniform 0.991591;
        source          uniform 0;
        value           nonuniform List<scalar> 
400
(
300.018
300.005
300.078
300.012
299.984
300.035
300.016
300.043
300.011
300.036
300.036
300.011
300.024
300.033
300.042
300.033
300.045
300.056
300.023
300.043
300.029
300.034
300.023
300.042
300.004
300.021
300.003
300.037
300.019
300.018
300.028
300.036
300.053
300.026
300.037
300.036
300.05