/*--------------------------------*- C++ -*----------------------------------*\
| =========                 |                                                 |
| \\      /  F ield         | OpenFOAM: The Open Source CFD Toolbox           |
|  \\    /   O peration     | Version:  2212                                  |
|   \\  /    A nd           | Website:  www.openfoam.com                      |
|    \\/     M anipulation  |                                                 |
\*---------------------------------------------------------------------------*/
FoamFile
{
    version     2.0;
    format      ascii;
    arch        "LSB;label=32;scalar=64";
    class       volScalarField;
    location    "0";
    object      Ttrue;
}
// * * * * * * * * * * * * * * * * * * * * * * * * * * * * * * * * * * * * * //

dimensions      [0 0 0 1 0 0 0];

internalField   nonuniform List<scalar> 
3200
(
345.626
346.155
346.831
347.568
348.326
349.071
349.758
350.339
350.761
350.985
350.985
350.761
350.339
349.758
349.071
348.326
347.568
346.831
346.155
345.626
339.629
340.077
340.66
341.297
341.954
342.598
343.192
343.694
344.059
344.251
344.251
344.059
343.694
343.192
342.598
341.954
341.297
340.66
340.077
339.629
333.596
333.968
334.459
334.997
335.552
336.096
336.598
337.021
337.329
337.492
337.492
337.329
337.021
336.598
336.096
335.552
334.997
334.459
333.968
333.596
327.533
327.832
328.233
328.673
329.126
329.571
329.981
330.326
330.578
330.71
330.71
330.578
330.326
329.981
329.571
329.126
328.673
328.233
327.832
327.533
321.445
321.675
321.986
322.328
322.68
323.026
323.344
323.613
323.808
323.911
323.911
323.808
323.613
323.344
323.026
322.68
322.328
321.986
321.675
321.445
315.339
315.502
315.723
315.967
316.219
316.466
316.693
316.885
317.024
317.097
317.097
317.024
316.885
316.693
316.466
316.219
315.967
315.723
315.502
315.339
309.219
309.316
309.449
309.596
309.747
309.895
310.031
310.146
310.23
310.274
310.274
310.23
310.146
310.031
309.895
309.747
309.596
309.449
309.316
309.219
303.091
303.124
303.168
303.217
303.268
303.318
303.363
303.402
303.43
303.445
303.445
303.43
303.402
303.363
303.318
303.268
303.217
303.168
303.124
303.091
345.788
346.313
346.983
347.713
348.464
349.2
349.88
350.453
350.87
351.09
351.09
350.87
350.453
349.88
349.2
348.464
347.713
346.983
346.313
345.788
339.769
340.214
340.792
341.423
342.073
342.71
343.298
343.793
344.153
344.343
344.343
344.153
343.793
343.298
342.71
342.073
341.423
340.792
340.214
339.769
333.715
334.084
334.571
335.104
335.653
336.192
336.688
337.106
337.41
337.57
337.57
337.41
337.106
336.688
336.192
335.653
335.104
334.571
334.084
333.715
327.63
327.927
328.324
328.76
329.209
329.649
330.054
330.395
330.644
330.774
330.774
330.644
330.395
330.054
329.649
329.209
328.76
328.324
327.927
327.63
321.521
321.749
322.057
322.396
322.745
323.087
323.402
323.667
323.859
323.961
323.961
323.859
323.667
323.402
323.087
322.745
322.396
322.057
321.749
321.521
315.393
315.555
315.774
316.016
316.265
316.509
316.734
316.923
317.061
317.133
317.133
317.061
316.923
316.734
316.509
316.265
316.016
315.774
315.555
315.393
309.252
309.348
309.48
309.625
309.775
309.921
310.056
310.17
310.252
310.296
310.296
310.252
310.17
310.056
309.921
309.775
309.625
309.48
309.348
309.252
303.102
303.134
303.178
303.227
303.277
303.326
303.372
303.41
303.437
303.452
303.452
303.437
303.41
303.372
303.326
303.277
303.227
303.178
303.134
303.102
346.112
346.629
347.288
348.004
348.74
349.461
350.124
350.683
351.09
351.304
351.304
351.09
350.683
350.124
349.461
348.74
348.004
347.288
346.629
346.112
340.051
340.488
341.057
341.676
342.313
342.937
343.51
343.993
344.345
344.53
344.53
344.345
343.993
343.51
342.937
342.313
341.676
341.057
340.488
340.051
333.953
334.316
334.795
335.319
335.857
336.384
336.868
337.276
337.572
337.729
337.729
337.572
337.276
336.868
336.384
335.857
335.319
334.795
334.316
333.953
327.826
328.118
328.508
328.936
329.376
329.806
330.202
330.535
330.777
330.905
330.905
330.777
330.535
330.202
329.806
329.376
328.936
328.508
328.118
327.826
321.673
321.898
322.2
322.533
322.875
323.209
323.517
323.776
323.964
324.063
324.063
323.964
323.776
323.517
323.209
322.875
322.533
322.2
321.898
321.673
315.502
315.661
315.877
316.114
316.358
316.597
316.817
317.001
317.135
317.206
317.206
317.135
317.001
316.817
316.597
316.358
316.114
315.877
315.661
315.502
309.317
309.412
309.541
309.684
309.831
309.974
310.106
310.216
310.297
310.339
310.339
310.297
310.216
310.106
309.974
309.831
309.684
309.541
309.412
309.317
303.124
303.156
303.199
303.247
303.296
303.344
303.388
303.425
303.452
303.467
303.467
303.452
303.425
303.388
303.344
303.296
303.247
303.199
303.156
303.124
346.601
347.105
347.748
348.444
349.158
349.856
350.497
351.036
351.427
351.634
351.634
351.427
351.036
350.497
349.856
349.158
348.444
347.748
347.105
346.601
340.475
340.902
341.456
342.059
342.677
343.28
343.835
344.3
344.638
344.817
344.817
344.638
344.3
343.835
343.28
342.677
342.059
341.456
340.902
340.475
334.312
334.667
335.133
335.643
336.165
336.675
337.143
337.537
337.822
337.972
337.972
337.822
337.537
337.143
336.675
336.165
335.643
335.133
334.667
334.312
328.119
328.405
328.785
329.202
329.629
330.045
330.428
330.749
330.982
331.105
331.105
330.982
330.749
330.428
330.045
329.629
329.202
328.785
328.405
328.119
321.902
322.121
322.416
322.74
323.072
323.396
323.693
323.942
324.123
324.219
324.219
324.123
323.942
323.693
323.396
323.072
322.74
322.416
322.121
321.902
315.665
315.821
316.031
316.262
316.499
316.73
316.943
317.121
317.25
317.318
317.318
317.25
317.121
316.943
316.73
316.499
316.262
316.031
315.821
315.665
309.415
309.508
309.634
309.773
309.915
310.054
310.181
310.288
310.366
310.407
310.407
310.366
310.288
310.181
310.054
309.915
309.773
309.634
309.508
309.415
303.157
303.188
303.23
303.277
303.324
303.371
303.414
303.449
303.475
303.489
303.489
303.475
303.449
303.414
303.371
303.324
303.277
303.23
303.188
303.157
347.254
347.744
348.365
349.036
349.723
350.392
351.004
351.518
351.89
352.086
352.086
351.89
351.518
351.004
350.392
349.723
349.036
348.365
347.744
347.254
341.042
341.456
341.991
342.573
343.167
343.746
344.275
344.72
345.041
345.211
345.211
345.041
344.72
344.275
343.746
343.167
342.573
341.991
341.456
341.042
334.792
335.136
335.587
336.079
336.581
337.07
337.517
337.893
338.164
338.307
338.307
338.164
337.893
337.517
337.07
336.581
336.079
335.587
335.136
334.792
328.513
328.789
329.157
329.559
329.969
330.369
330.735
331.041
331.263
331.38
331.38
331.263
331.041
330.735
330.369
329.969
329.559
329.157
328.789
328.513
322.208
322.42
322.706
323.018
323.337
323.648
323.932
324.17
324.342
324.433
324.433
324.342
324.17
323.932
323.648
323.337
323.018
322.706
322.42
322.208
315.884
316.035
316.238
316.461
316.689
316.911
317.114
317.284
317.407
317.471
317.471
317.407
317.284
317.114
316.911
316.689
316.461
316.238
316.035
315.884
309.547
309.636
309.758
309.892
310.029
310.162
310.284
310.386
310.46
310.499
310.499
310.46
310.386
310.284
310.162
310.029
309.892
309.758
309.636
309.547
303.201
303.231
303.272
303.317
303.363
303.407
303.448
303.482
303.507
303.52
303.52
303.507
303.482
303.448
303.407
303.363
303.317
303.272
303.231
303.201
348.075
348.546
349.142
349.785
350.439
351.074
351.653
352.138
352.488
352.672
352.672
352.488
352.138
351.653
351.074
350.439
349.785
349.142
348.546
348.075
341.754
342.152
342.666
343.222
343.789
344.338
344.84
345.259
345.562
345.721
345.721
345.562
345.259
344.84
344.338
343.789
343.222
342.666
342.152
341.754
335.395
335.726
336.159
336.629
337.108
337.572
337.996
338.35
338.606
338.74
338.74
338.606
338.35
337.996
337.572
337.108
336.629
336.159
335.726
335.395
329.006
329.273
329.626
330.01
330.401
330.781
331.127
331.416
331.625
331.735
331.735
331.625
331.416
331.127
330.781
330.401
330.01
329.626
329.273
329.006
322.592
322.797
323.071
323.369
323.674
323.969
324.238
324.463
324.625
324.71
324.71
324.625
324.463
324.238
323.969
323.674
323.369
323.071
322.797
322.592
316.159
316.304
316.499
316.712
316.93
317.14
317.333
317.493
317.609
317.67
317.67
317.609
317.493
317.333
317.14
316.93
316.712
316.499
316.304
316.159
309.712
309.798
309.915
310.043
310.174
310.3
310.416
310.512
310.582
310.618
310.618
310.582
310.512
310.416
310.3
310.174
310.043
309.915
309.798
309.712
303.256
303.285
303.325
303.367
303.411
303.454
303.492
303.525
303.548
303.56
303.56
303.548
303.525
303.492
303.454
303.411
303.367
303.325
303.285
303.256
349.065
349.516
350.084
350.693
351.312
351.909
352.453
352.905
353.232
353.403
353.403
353.232
352.905
352.453
351.909
351.312
350.693
350.084
349.516
349.065
342.613
342.994
343.484
344.011
344.547
345.064
345.534
345.926
346.208
346.357
346.357
346.208
345.926
345.534
345.064
344.547
344.011
343.484
342.994
342.613
336.123
336.439
336.852
337.298
337.751
338.188
338.585
338.916
339.155
339.28
339.28
339.155
338.916
338.585
338.188
337.751
337.298
336.852
336.439
336.123
329.602
329.857
330.193
330.558
330.928
331.285
331.61
331.881
332.076
332.178
332.178
332.076
331.881
331.61
331.285
330.928
330.558
330.193
329.857
329.602
323.056
323.251
323.512
323.796
324.084
324.362
324.614
324.824
324.976
325.055
325.055
324.976
324.824
324.614
324.362
324.084
323.796
323.512
323.251
323.056
316.49
316.629
316.815
317.017
317.223
317.421
317.602
317.752
317.86
317.917
317.917
317.86
317.752
317.602
317.421
317.223
317.017
316.815
316.629
316.49
309.911
309.994
310.105
310.227
310.35
310.469
310.578
310.668
310.733
310.767
310.767
310.733
310.668
310.578
310.469
310.35
310.227
310.105
309.994
309.911
303.323
303.351
303.388
303.429
303.47
303.51
303.547
303.577
303.598
303.61
303.61
303.598
303.577
303.547
303.51
303.47
303.429
303.388
303.351
303.323
350.227
350.655
351.193
351.767
352.347
352.905
353.411
353.83
354.132
354.29
354.29
354.132
353.83
353.411
352.905
352.347
351.767
351.193
350.655
350.227
343.621
343.983
344.447
344.944
345.446
345.929
346.367
346.73
346.991
347.127
347.127
346.991
346.73
346.367
345.929
345.446
344.944
344.447
343.983
343.621
336.977
337.277
337.668
338.088
338.513
338.922
339.291
339.598
339.818
339.934
339.934
339.818
339.598
339.291
338.922
338.513
338.088
337.668
337.277
336.977
330.301
330.543
330.862
331.205
331.553
331.887
332.189
332.44
332.62
332.714
332.714
332.62
332.44
332.189
331.887
331.553
331.205
330.862
330.543
330.301
323.6
323.786
324.033
324.3
324.57
324.83
325.065
325.26
325.4
325.473
325.473
325.4
325.26
325.065
324.83
324.57
324.3
324.033
323.786
323.6
316.88
317.011
317.187
317.378
317.571
317.756
317.924
318.063
318.163
318.216
318.216
318.163
318.063
317.924
317.756
317.571
317.378
317.187
317.011
316.88
310.145
310.223
310.329
310.443
310.559
310.671
310.772
310.855
310.915
310.946
310.946
310.915
310.855
310.772
310.671
310.559
310.443
310.329
310.223
310.145
303.402
303.428
303.463
303.502
303.54
303.578
303.612
303.64
303.66
303.67
303.67
303.66
303.64
303.612
303.578
303.54
303.502
303.463
303.428
303.402
351.564
351.968
352.474
353.012
353.552
354.069
354.536
354.921
355.198
355.342
355.342
355.198
354.921
354.536
354.069
353.552
353.012
352.474
351.968
351.564
344.78
345.122
345.558
346.024
346.492
346.94
347.344
347.678
347.917
348.042
348.042
347.917
347.678
347.344
346.94
346.492
346.024
345.558
345.122
344.78
337.959
338.242
338.61
339.004
339.4
339.779
340.12
340.402
340.604
340.71
340.71
340.604
340.402
340.12
339.779
339.4
339.004
338.61
338.242
337.959
331.105
331.334
331.633
331.955
332.279
332.589
332.868
333.099
333.264
333.35
333.35
333.264
333.099
332.868
332.589
332.279
331.955
331.633
331.334
331.105
324.226
324.401
324.634
324.884
325.136
325.377
325.594
325.773
325.902
325.969
325.969
325.902
325.773
325.594
325.377
325.136
324.884
324.634
324.401
324.226
317.327
317.451
317.617
317.796
317.976
318.148
318.303
318.431
318.523
318.57
318.57
318.523
318.431
318.303
318.148
317.976
317.796
317.617
317.451
317.327
310.414
310.488
310.587
310.694
310.802
310.906
310.999
311.076
311.131
311.16
311.16
311.131
311.076
310.999
310.906
310.802
310.694
310.587
310.488
310.414
303.492
303.516
303.55
303.586
303.622
303.657
303.688
303.714
303.732
303.742
303.742
303.732
303.714
303.688
303.657
303.622
303.586
303.55
303.516
303.492
353.077
353.457
353.93
354.431
354.931
355.408
355.836
356.188
356.439
356.571
356.571
356.439
356.188
355.836
355.408
354.931
354.431
353.93
353.457
353.077
346.093
346.414
346.822
347.256
347.69
348.103
348.473
348.778
348.996
349.11
349.11
348.996
348.778
348.473
348.103
347.69
347.256
346.822
346.414
346.093
339.07
339.337
339.681
340.048
340.414
340.764
341.077
341.335
341.519
341.615
341.615
341.519
341.335
341.077
340.764
340.414
340.048
339.681
339.337
339.07
332.016
332.23
332.511
332.811
333.111
333.396
333.652
333.863
334.014
334.092
334.092
334.014
333.863
333.652
333.396
333.111
332.811
332.511
332.23
332.016
324.935
325.099
325.317
325.55
325.784
326.006
326.205
326.369
326.486
326.547
326.547
326.486
326.369
326.205
326.006
325.784
325.55
325.317
325.099
324.935
317.834
317.95
318.105
318.272
318.439
318.597
318.74
318.857
318.94
318.984
318.984
318.94
318.857
318.74
318.597
318.439
318.272
318.105
317.95
317.834
310.718
310.788
310.881
310.981
311.081
311.176
311.262
311.332
311.382
311.408
311.408
311.382
311.332
311.262
311.176
311.081
310.981
310.881
310.788
310.718
303.594
303.617
303.648
303.682
303.715
303.747
303.776
303.799
303.816
303.825
303.825
303.816
303.799
303.776
303.747
303.715
303.682
303.648
303.617
303.594
354.769
355.124
355.565
356.029
356.49
356.927
357.317
357.637
357.864
357.983
357.983
357.864
357.637
357.317
356.927
356.49
356.029
355.565
355.124
354.769
347.561
347.862
348.242
348.643
349.043
349.421
349.759
350.036
350.234
350.336
350.336
350.234
350.036
349.759
349.421
349.043
348.643
348.242
347.862
347.561
340.314
340.563
340.883
341.223
341.561
341.881
342.167
342.401
342.568
342.655
342.655
342.568
342.401
342.167
341.881
341.561
341.223
340.883
340.563
340.314
333.034
333.234
333.496
333.774
334.05
334.312
334.546
334.737
334.874
334.945
334.945
334.874
334.737
334.546
334.312
334.05
333.774
333.496
333.234
333.034
325.727
325.881
326.084
326.3
326.515
326.719
326.901
327.05
327.156
327.211
327.211
327.156
327.05
326.901
326.719
326.515
326.3
326.084
325.881
325.727
318.4
318.509
318.654
318.808
318.962
319.107
319.237
319.344
319.419
319.459
319.459
319.419
319.344
319.237
319.107
318.962
318.808
318.654
318.509
318.4
311.059
311.124
311.21
311.303
311.395
311.483
311.561
311.625
311.67
311.694
311.694
311.67
311.625
311.561
311.483
311.395
311.303
311.21
311.124
311.059
303.708
303.73
303.759
303.79
303.821
303.85
303.876
303.898
303.913
303.921
303.921
303.913
303.898
303.876
303.85
303.821
303.79
303.759
303.73
303.708
356.643
356.973
357.382
357.809
358.232
358.631
358.985
359.274
359.479
359.586
359.586
359.479
359.274
358.985
358.631
358.232
357.809
357.382
356.973
356.643
349.186
349.466
349.818
350.189
350.555
350.901
351.207
351.458
351.636
351.728
351.728
351.636
351.458
351.207
350.901
350.555
350.189
349.818
349.466
349.186
341.69
341.922
342.219
342.533
342.843
343.135
343.394
343.606
343.757
343.835
343.835
343.757
343.606
343.394
343.135
342.843
342.533
342.219
341.922
341.69
334.161
334.348
334.59
334.846
335.1
335.339
335.551
335.725
335.848
335.912
335.912
335.848
335.725
335.551
335.339
335.1
334.846
334.59
334.348
334.161
326.605
326.748
326.936
327.135
327.333
327.519
327.684
327.819
327.914
327.964
327.964
327.914
327.819
327.684
327.519
327.333
327.135
326.936
326.748
326.605
319.028
319.129
319.263
319.405
319.546
319.679
319.797
319.894
319.962
319.997
319.997
319.962
319.894
319.797
319.679
319.546
319.405
319.263
319.129
319.028
311.435
311.496
311.576
311.662
311.746
311.826
311.897
311.955
311.996
312.017
312.017
311.996
311.955
311.897
311.826
311.746
311.662
311.576
311.496
311.435
303.834
303.855
303.881
303.91
303.938
303.965
303.989
304.008
304.022
304.029
304.029
304.022
304.008
303.989
303.965
303.938
303.91
303.881
303.855
303.834
358.698
359.005
359.382
359.775
360.161
360.523
360.844
361.104
361.288
361.384
361.384
361.288
361.104
360.844
360.523
360.161
359.775
359.382
359.005
358.698
350.97
351.229
351.555
351.895
352.23
352.544
352.821
353.047
353.206
353.289
353.289
353.206
353.047
352.821
352.544
352.23
351.895
351.555
351.229
350.97
343.201
343.416
343.69
343.978
344.262
344.527
344.762
344.953
345.088
345.158
345.158
345.088
344.953
344.762
344.527
344.262
343.978
343.69
343.416
343.201
335.398
335.571
335.795
336.03
336.262
336.479
336.672
336.828
336.938
336.996
336.996
336.938
336.828
336.672
336.479
336.262
336.03
335.795
335.571
335.398
327.568
327.701
327.874
328.057
328.238
328.407
328.556
328.678
328.764
328.808
328.808
328.764
328.678
328.556
328.407
328.238
328.057
327.874
327.701
327.568
319.716
319.81
319.934
320.064
320.193
320.314
320.421
320.508
320.569
320.601
320.601
320.569
320.508
320.421
320.314
320.193
320.064
319.934
319.81
319.716
311.849
311.905
311.979
312.058
312.135
312.208
312.272
312.324
312.361
312.38
312.38
312.361
312.324
312.272
312.208
312.135
312.058
311.979
311.905
311.849
303.973
303.992
304.017
304.043
304.069
304.093
304.115
304.132
304.145
304.151
304.151
304.145
304.132
304.115
304.093
304.069
304.043
304.017
303.992
303.973
360.936
361.22
361.567
361.927
362.279
362.607
362.895
363.129
363.294
363.38
363.38
363.294
363.129
362.895
362.607
362.279
361.927
361.567
361.22
360.936
352.911
353.151
353.451
353.762
354.067
354.352
354.602
354.805
354.947
355.022
355.022
354.947
354.805
354.602
354.352
354.067
353.762
353.451
353.151
352.911
344.845
345.044
345.296
345.56
345.818
346.059
346.27
346.442
346.563
346.626
346.626
346.563
346.442
346.27
346.059
345.818
345.56
345.296
345.044
344.845
336.744
336.904
337.11
337.326
337.537
337.734
337.907
338.048
338.147
338.198
338.198
338.147
338.048
337.907
337.734
337.537
337.326
337.11
336.904
336.744
328.615
328.738
328.898
329.066
329.23
329.383
329.518
329.627
329.704
329.744
329.744
329.704
329.627
329.518
329.383
329.23
329.066
328.898
328.738
328.615
320.465
320.552
320.666
320.785
320.903
321.012
321.109
321.187
321.242
321.27
321.27
321.242
321.187
321.109
321.012
320.903
320.785
320.666
320.552
320.465
312.299
312.351
312.419
312.491
312.562
312.627
312.685
312.732
312.765
312.782
312.782
312.765
312.732
312.685
312.627
312.562
312.491
312.419
312.351
312.299
304.124
304.141
304.164
304.188
304.212
304.234
304.253
304.269
304.28
304.286
304.286
304.28
304.269
304.253
304.234
304.212
304.188
304.164
304.141
304.124
363.354
363.615
363.934
364.263
364.582
364.879
365.138
365.348
365.495
365.571
365.571
365.495
365.348
365.138
364.879
364.582
364.263
363.934
363.615
363.354
355.007
355.229
355.504
355.788
356.065
356.322
356.548
356.729
356.857
356.923
356.923
356.857
356.729
356.548
356.322
356.065
355.788
355.504
355.229
355.007
346.619
346.803
347.035
347.276
347.51
347.728
347.918
348.072
348.18
348.236
348.236
348.18
348.072
347.918
347.728
347.51
347.276
347.035
346.803
346.619
338.197
338.344
338.533
338.73
338.922
339.1
339.256
339.382
339.471
339.516
339.516
339.471
339.382
339.256
339.1
338.922
338.73
338.533
338.344
338.197
329.746
329.859
330.006
330.159
330.308
330.447
330.568
330.666
330.735
330.771
330.771
330.735
330.666
330.568
330.447
330.308
330.159
330.006
329.859
329.746
321.273
321.353
321.458
321.567
321.674
321.773
321.86
321.93
321.979
322.004
322.004
321.979
321.93
321.86
321.773
321.674
321.567
321.458
321.353
321.273
312.784
312.832
312.895
312.961
313.025
313.084
313.136
313.178
313.208
313.223
313.223
313.208
313.178
313.136
313.084
313.025
312.961
312.895
312.832
312.784
304.287
304.302
304.323
304.346
304.367
304.387
304.404
304.419
304.428
304.434
304.434
304.428
304.419
304.404
304.387
304.367
304.346
304.323
304.302
304.287
365.94
366.181
366.473
366.772
367.062
367.329
367.563
367.75
367.881
367.949
367.949
367.881
367.75
367.563
367.329
367.062
366.772
366.473
366.181
365.94
357.248
357.452
357.704
357.963
358.215
358.447
358.649
358.811
358.926
358.984
358.984
358.926
358.811
358.649
358.447
358.215
357.963
357.704
357.452
357.248
348.515
348.684
348.896
349.116
349.329
349.525
349.696
349.834
349.931
349.98
349.98
349.931
349.834
349.696
349.525
349.329
349.116
348.896
348.684
348.515
339.748
339.883
340.057
340.236
340.41
340.571
340.711
340.824
340.903
340.944
340.944
340.903
340.824
340.711
340.571
340.41
340.236
340.057
339.883
339.748
330.952
331.056
331.191
331.33
331.466
331.591
331.7
331.788
331.849
331.881
331.881
331.849
331.788
331.7
331.591
331.466
331.33
331.191
331.056
330.952
322.135
322.208
322.304
322.404
322.501
322.59
322.668
322.731
322.775
322.798
322.798
322.775
322.731
322.668
322.59
322.501
322.404
322.304
322.208
322.135
313.302
313.346
313.403
313.463
313.522
313.575
313.622
313.66
313.686
313.7
313.7
313.686
313.66
313.622
313.575
313.522
313.463
313.403
313.346
313.302
304.46
304.475
304.494
304.514
304.534
304.552
304.567
304.58
304.589
304.593
304.593
304.589
304.58
304.567
304.552
304.534
304.514
304.494
304.475
304.46
368.666
368.888
369.155
369.428
369.691
369.932
370.141
370.309
370.426
370.487
370.487
370.426
370.309
370.141
369.932
369.691
369.428
369.155
368.888
368.666
359.606
359.794
360.024
360.261
360.489
360.698
360.88
361.025
361.127
361.179
361.179
361.127
361.025
360.88
360.698
360.489
360.261
360.024
359.794
359.606
350.507
350.662
350.857
351.057
351.25
351.427
351.581
351.704
351.79
351.835
351.835
351.79
351.704
351.581
351.427
351.25
351.057
350.857
350.662
350.507
341.374
341.499
341.658
341.822
341.98
342.125
342.251
342.352
342.422
342.459
342.459
342.422
342.352
342.251
342.125
341.98
341.822
341.658
341.499
341.374
332.216
332.312
332.435
332.562
332.685
332.798
332.896
332.975
333.03
333.058
333.058
333.03
332.975
332.896
332.798
332.685
332.562
332.435
332.312
332.216
323.037
323.105
323.192
323.283
323.371
323.452
323.522
323.578
323.618
323.638
323.638
323.618
323.578
323.522
323.452
323.371
323.283
323.192
323.105
323.037
313.843
313.884
313.936
313.991
314.044
314.092
314.135
314.168
314.192
314.204
314.204
314.192
314.168
314.135
314.092
314.044
313.991
313.936
313.884
313.843
304.641
304.655
304.673
304.691
304.709
304.725
304.739
304.75
304.758
304.762
304.762
304.758
304.75
304.739
304.725
304.709
304.691
304.673
304.655
304.641
371.462
371.665
371.91
372.159
372.398
372.616
372.804
372.955
373.06
373.114
373.114
373.06
372.955
372.804
372.616
372.398
372.159
371.91
371.665
371.462
362.013
362.185
362.397
362.613
362.82
363.009
363.173
363.303
363.395
363.441
363.441
363.395
363.303
363.173
363.009
362.82
362.613
362.397
362.185
362.013
352.531
352.674
352.852
353.035
353.21
353.371
353.51
353.62
353.698
353.737
353.737
353.698
353.62
353.51
353.371
353.21
353.035
352.852
352.674
352.531
343.022
343.137
343.282
343.432
343.576
343.707
343.821
343.912
343.975
344.008
344.008
343.975
343.912
343.821
343.707
343.576
343.432
343.282
343.137
343.022
333.492
333.58
333.693
333.809
333.921
334.024
334.112
334.183
334.232
334.257
334.257
334.232
334.183
334.112
334.024
333.921
333.809
333.693
333.58
333.492
323.945
324.008
324.088
324.172
324.252
324.325
324.388
324.439
324.474
324.492
324.492
324.474
324.439
324.388
324.325
324.252
324.172
324.088
324.008
323.945
314.388
314.425
314.474
314.524
314.572
314.616
314.654
314.684
314.705
314.716
314.716
314.705
314.684
314.654
314.616
314.572
314.524
314.474
314.425
314.388
304.824
304.836
304.852
304.869
304.885
304.9
304.913
304.923
304.93
304.934
304.934
304.93
304.923
304.913
304.9
304.885
304.869
304.852
304.836
304.824
374.145
374.333
374.559
374.787
375.006
375.204
375.376
375.512
375.607
375.655
375.655
375.607
375.512
375.376
375.204
375.006
374.787
374.559
374.333
374.145
364.295
364.454
364.649
364.848
365.038
365.21
365.359
365.478
365.56
365.603
365.603
365.56
365.478
365.359
365.21
365.038
364.848
364.649
364.454
364.295
354.429
354.562
354.727
354.895
355.056
355.202
355.329
355.429
355.499
355.535
355.535
355.499
355.429
355.329
355.202
355.056
354.895
354.727
354.562
354.429
344.553
344.66
344.794
344.932
345.064
345.184
345.288
345.37
345.428
345.457
345.457
345.428
345.37
345.288
345.184
345.064
344.932
344.794
344.66
344.553
334.669
334.751
334.855
334.963
335.065
335.159
335.24
335.304
335.349
335.372
335.372
335.349
335.304
335.24
335.159
335.065
334.963
334.855
334.751
334.669
324.779
324.837
324.912
324.988
325.062
325.129
325.187
325.233
325.265
325.281
325.281
325.265
325.233
325.187
325.129
325.062
324.988
324.912
324.837
324.779
314.886
314.92
314.965
315.011
315.055
315.096
315.13
315.158
315.177
315.187
315.187
315.177
315.158
315.13
315.096
315.055
315.011
314.965
314.92
314.886
304.99
305.002
305.017
305.032
305.047
305.06
305.072
305.081
305.088
305.091
305.091
305.088
305.081
305.072
305.06
305.047
305.032
305.017
305.002
304.99
376.242
376.419
376.631
376.846
377.05
377.236
377.395
377.521
377.609
377.654
377.654
377.609
377.521
377.395
377.236
377.05
376.846
376.631
376.419
376.242
366.011
366.161
366.346
366.532
366.71
366.872
367.011
367.122
367.198
367.238
367.238
367.198
367.122
367.011
366.872
366.71
366.532
366.346
366.161
366.011
355.814
355.939
356.095
356.253
356.405
356.542
356.661
356.755
356.82
356.853
356.853
356.82
356.755
356.661
356.542
356.405
356.253
356.095
355.939
355.814
345.642
345.743
345.871
346.001
346.126
346.239
346.336
346.413
346.467
346.494
346.494
346.467
346.413
346.336
346.239
346.126
346.001
345.871
345.743
345.642
335.49
335.568
335.667
335.769
335.866
335.954
336.03
336.091
336.133
336.154
336.154
336.133
336.091
336.03
335.954
335.866
335.769
335.667
335.568
335.49
325.353
325.408
325.479
325.552
325.621
325.684
325.739
325.782
325.812
325.827
325.827
325.812
325.782
325.739
325.684
325.621
325.552
325.479
325.408
325.353
315.225
315.258
315.301
315.344
315.386
315.424
315.457
315.483
315.501
315.51
315.51
315.501
315.483
315.457
315.424
315.386
315.344
315.301
315.258
315.225
305.103
305.114
305.128
305.143
305.157
305.17
305.181
305.189
305.196
305.199
305.199
305.196
305.189
305.181
305.17
305.157
305.143
305.128
305.114
305.103
)
;

boundaryField
{
    hotSide
    {
        type            fixedGradient;
        gradient        nonuniform List<scalar> 
400
(
476.416
478.13
481.564
486.728
493.639
502.317
512.782
525.061
539.179
555.16
573.031
592.813
614.528
638.195
663.831
691.45
721.064
752.684
786.316
821.966
483.382
485.041
488.366
493.373
500.082
508.52
518.715
530.701
544.508
560.171
577.72
597.182
618.584
641.949
667.296
694.641
723.997
755.375
788.783
824.226
490.92
492.514
495.71
500.53
507
515.156
525.035
536.679
550.13
565.427
582.611
601.714
622.768
645.798
670.828
697.875
726.953
758.073
791.243
826.467
498.907
500.423
503.47
508.073
514.267
522.099
531.618
542.875
555.925
570.816
587.596
606.306
626.981
649.652
674.344
701.076
729.863
760.714
793.639
828.639
507.118
508.548
511.427
515.786
521.674
529.147
538.269
549.105
561.719
576.173
592.523
610.817
631.096
653.394
677.738
704.149
732.641
763.223
795.903
830.682
515.212
516.55
519.248
523.349
528.911
536.006
544.712
555.108
567.274
581.281
597.194
615.069
634.953
656.882
680.884
706.982
735.189
765.513
797.96
832.53
522.724
523.97
526.489
530.332
535.572
542.295
550.594
560.564
572.296
585.874
601.373
618.854
638.368
659.954
683.642
709.454
737.402
767.493
799.732
834.115
529.1
530.262
532.62
536.232
541.184
547.575
555.514
565.108
576.461
589.667
604.808
621.951
641.149
662.446
685.87
711.442
739.175
769.075
801.141
835.373
533.766
534.865
537.098
540.535
545.267
551.407
559.073
568.385
579.455
592.384
607.259
624.153
643.121
664.206
687.438
712.838
740.417
770.178
802.123
836.246
536.238
537.302
539.469
542.809
547.423
553.426
560.945
570.105
581.022
593.803
608.538
625.299
644.144
665.118
688.249
713.559
741.056
770.746
802.627
836.694
536.238
537.302
539.469
542.809
547.423
553.426
560.945
570.105
581.022
593.803
608.538
625.299
644.144
665.118
688.249
713.559
741.056
770.746
802.627
836.694
533.766
534.865
537.098
540.535
545.267
551.407
559.073
568.385
579.455
592.384
607.259
624.153
643.121
664.206
687.438
712.838
740.417
770.178
802.123
836.246
529.1
530.262
532.62
536.232
541.184
547.575
555.514
565.108
576.461
589.667
604.808
621.951
641.149
662.446
685.87
711.442
739.175
769.075
801.141
835.373
522.724
523.97
526.489
530.332
535.572
542.295
550.594
560.564
572.296
585.874
601.373
618.854
638.368
659.954
683.642
709.454
737.402
767.493
799.732
834.115
515.212
516.55
519.248
523.349
528.911
536.006
544.712
555.108
567.274
581.281
597.194
615.069
634.953
656.882
680.884
706.982
735.189
765.513
797.96
832.53
507.118
508.548
511.427
515.786
521.674
529.147
538.269
549.105
561.719
576.173
592.523
610.817
631.096
653.394
677.738
704.149
732.641
763.223
795.903
830.682
498.907
500.423
503.47
508.073
514.267
522.099
531.618
542.875
555.925
570.816
587.596
606.306
626.981
649.652
674.344
701.076
729.863
760.714
793.639
828.639
490.92
492.514
495.71
500.53
507
515.156
525.035
536.679
550.13
565.427
582.611
601.714
622.768
645.798
670.828
697.875
726.953
758.073
791.243
826.467
483.382
485.041
488.366
493.373
500.082
508.52
518.715
530.701
544.508
560.171
577.72
597.182
618.584
641.949
667.296
694.641
723.997
755.375
788.783
824.226
476.416
478.13
481.564
486.728
493.639
502.317
512.782
525.061
539.179
555.16
573.031
592.813
614.528
638.195
663.831
691.45
721.064
752.684
786.316
821.966
)
;
    }
    coldSide
    {
        type            mixed;
        refValue        uniform 300;
        refGradient     uniform 0;
        valueFraction   uniform 0.991591;
        source          uniform 0;
        value           nonuniform List<scalar> 
400
(
300.026
300.026
300.026
300.027
300.027
300.027
300.028
300.029
300.029
300.03
300.031
300.032
300.033
300.035
300.036
300.038
300.039
300.041
300.042
300.043
300.026
300.026
300.027
300.027
300.027
300.028
300.028
300.029
300.03
300.03
300.031
300.032
300.034
300.035
300.036
300.038
300.039
300.041
300.042