/*--------------------------------*- C++ -*----------------------------------*\
| =========                 |                                                 |
| \\      /  F ield         | OpenFOAM: The Open Source CFD Toolbox           |
|  \\    /   O peration     | Version:  2212                                  |
|   \\  /    A nd           | Website:  www.openfoam.com                      |
|    \\/     M anipulation  |                                                 |
\*---------------------------------------------------------------------------*/
FoamFile
{
    version     2.0;
    format      ascii;
    arch        "LSB;label=32;scalar=64";
    class       volScalarField;
    location    "0";
    object      T;
}
// * * * * * * * * * * * * * * * * * * * * * * * * * * * * * * * * * * * * * //

dimensions      [0 0 0 1 0 0 0];

internalField   nonuniform List<scalar> 
3200
(
349.317
348.553
347.507
347.297
347.299
347.711
348.094
348.588
348.736
348.829
348.769
348.297
347.559
346.581
345.361
344.389
343.615
343.386
343.784
344.392
342.671
342.023
341.114
340.956
340.955
341.341
341.669
342.105
342.243
342.332
342.257
341.86
341.224
340.384
339.351
338.477
337.842
337.614
337.977
338.446
336.021
335.506
334.738
334.624
334.636
334.973
335.231
335.613
335.763
335.83
335.773
335.424
334.881
334.153
333.328
332.56
332.048
331.835
332.159
332.516
329.431
329.027
328.396
328.321
328.313
328.603
328.788
329.13
329.272
329.316
329.289
328.988
328.542
327.928
327.297
326.658
326.237
326.067
326.324
326.621
322.89
322.563
322.07
322.032
322.017
322.233
322.374
322.663
322.767
322.833
322.798
322.564
322.204
321.723
321.269
320.77
320.43
320.295
320.475
320.704
316.369
316.119
315.765
315.738
315.732
315.869
315.972
316.195
316.272
316.321
316.301
316.127
315.879
315.505
315.216
314.862
314.615
314.517
314.634
314.79
309.84
309.668
309.467
309.454
309.458
309.526
309.595
309.746
309.77
309.816
309.802
309.687
309.534
309.29
309.157
308.916
308.772
308.729
308.798
308.881
303.3
303.236
303.176
303.169
303.183
303.197
303.211
303.267
303.273
303.299
303.283
303.251
303.196
303.11
303.066
302.989
302.946
302.932
302.949
302.984
349.322
348.351
347.577
347.325
347.292
347.746
348.312
348.741
349.178
349.197
349.061
348.551
347.857
346.811
345.65
344.622
343.828
343.459
343.668
344.401
342.663
341.857
341.206
340.994
340.96
341.354
341.84
342.22
342.619
342.607
342.51
342.074
341.484
340.575
339.576
338.694
338.013
337.699
337.876
338.463
336.025
335.395
334.847
334.671
334.62
334.967
335.376
335.715
336.066
336.012
335.949
335.612
335.082
334.348
333.503
332.778
332.196
331.935
332.084
332.557
329.422
328.942
328.491
328.338
328.319
328.615
328.923
329.223
329.514
329.464
329.404
329.138
328.69
328.101
327.448
326.857
326.378
326.144
326.28
326.651
322.858
322.525
322.129
322.033
322.037
322.264
322.467
322.738
322.972
322.932
322.876
322.679
322.334
321.842
321.347
320.909
320.536
320.349
320.456
320.738
316.322
316.096
315.782
315.73
315.751
315.917
316.034
316.239
316.437
316.393
316.349
316.22
315.974
315.603
315.273
314.934
314.685
314.545
314.633
314.816
309.779
309.657
309.486
309.44
309.475
309.572
309.613
309.749
309.877
309.845
309.813
309.733
309.609
309.362
309.179
308.959
308.825
308.746
308.797
308.899
303.27
303.239
303.175
303.165
303.184
303.206
303.232
303.275
303.319
303.302
303.282
303.259
303.223
303.137
303.068
302.995
302.966
302.93
302.942
302.987
349.385
348.336
347.69
347.428
347.54
347.951
348.712
349.154
349.612
349.678
349.545
349.122
348.336
347.274
346.126
344.893
344.038
343.583
343.859
344.362
342.708
341.83
341.293
341.081
341.159
341.533
342.176
342.587
342.995
343.039
342.902
342.572
341.878
340.992
339.993
338.921
338.221
337.81
338.05
338.444
336.086
335.354
334.92
334.741
334.802
335.133
335.654
336.029
336.379
336.408
336.292
336.016
335.431
334.703
333.869
332.965
332.38
332.041
332.21
332.523
329.497
328.91
328.565
328.402
328.457
328.751
329.177
329.469
329.766
329.772
329.719
329.462
328.977
328.415
327.735
326.98
326.509
326.249
326.371
326.608
322.911
322.475
322.207
322.084
322.121
322.383
322.695
322.905
323.166
323.169
323.107
322.934
322.538
322.092
321.569
320.992
320.647
320.436
320.526
320.688
316.362
316.06
315.862
315.778
315.789
315.999
316.219
316.369
316.555
316.555
316.507
316.385
316.091
315.771
315.399
315.003
314.765
314.618
314.671
314.789
309.803
309.65
309.525
309.49
309.482
309.606
309.736
309.838
309.944
309.952
309.909
309.841
309.664
309.465
309.261
309.008
308.87
308.788
308.805
308.9
303.27
303.24
303.199
303.182
303.181
303.218
303.271
303.296
303.335
303.341
303.314
303.303
303.234
303.161
303.102
303.019
302.981
302.944
302.957
302.985
349.661
348.485
347.926
347.843
348.037
348.389
349.049
349.631
350.221
350.456
350.447
349.886
349.017
347.92
346.656
345.333
344.477
343.882
344.187
344.723
342.978
341.956
341.523
341.428
341.619
341.9
342.479
342.998
343.501
343.733
343.724
343.234
342.49
341.546
340.474
339.311
338.591
338.07
338.309
338.778
336.317
335.476
335.111
335.014
335.185
335.42
335.917
336.358
336.785
337.008
336.999
336.578
335.967
335.184
334.272
333.264
332.664
332.263
332.443
332.801
329.686
329.023
328.715
328.63
328.755
328.965
329.373
329.734
330.106
330.28
330.296
329.936
329.437
328.804
328.065
327.208
326.745
326.439
326.548
326.82
323.072
322.554
322.331
322.254
322.382
322.509
322.841
323.111
323.429
323.554
323.573
323.284
322.908
322.406
321.856
321.184
320.801
320.591
320.648
320.861
316.452
316.107
315.943
315.892
316.01
316.076
316.301
316.51
316.755
316.819
316.861
316.646
316.385
316.019
315.629
315.129
314.876
314.72
314.733
314.911
309.873
309.663
309.577
309.543
309.628
309.672
309.785
309.935
310.053
310.112
310.14
309.996
309.826
309.608
309.386
309.09
308.95
308.843
308.845
308.96
303.317
303.234
303.213
303.192
303.232
303.247
303.277
303.33
303.371
303.394
303.407
303.346
303.29
303.219
303.155
303.044
303.009
302.964
302.959
303.009
350.081
348.902
348.31
348.242
348.436
348.877
349.645
350.244
350.925
351.176
351.284
350.704
349.8
348.54
347.265
345.975
344.953
344.505
344.61
345.19
343.32
342.332
341.859
341.807
341.974
342.318
342.991
343.501
344.125
344.356
344.439
343.957
343.16
342.063
340.997
339.88
338.991
338.622
338.714
339.173
336.604
335.805
335.409
335.377
335.52
335.795
336.323
336.786
337.306
337.539
337.61
337.218
336.537
335.586
334.729
333.762
333.02
332.717
332.808
333.14
329.921
329.272
328.965
328.929
329.063
329.269
329.684
330.078
330.528
330.728
330.777
330.466
329.916
329.119
328.434
327.627
327.037
326.792
326.874
327.117
323.255
322.763
322.548
322.509
322.62
322.745
323.066
323.382
323.765
323.917
323.956
323.731
323.274
322.655
322.132
321.499
321.054
320.858
320.908
321.087
316.622
316.277
316.116
316.081
316.171
316.243
316.476
316.706
316.992
317.101
317.114
316.969
316.64
316.185
315.817
315.358
315.079
314.905
314.941
315.083
310.002
309.784
309.677
309.663
309.728
309.755
309.896
310.039
310.219
310.276
310.278
310.18
309.984
309.71
309.518
309.231
309.064
308.942
308.98
309.072
303.355
303.286
303.237
303.233
303.264
303.258
303.318
303.374
303.431
303.448
303.446
303.419
303.339
303.254
303.189
303.095
303.039
303.005
303.014
303.049
350.54
349.657
348.869
348.87
349.051
349.569
350.171
350.972
351.634
352.1
352.139
351.642
350.622
349.347
348.066
346.776
345.716
345.286
345.198
345.785
343.696
343.001
342.336
342.345
342.498
342.935
343.444
344.15
344.714
345.13
345.181
344.743
343.872
342.734
341.694
340.562
339.655
339.282
339.196
339.67
336.899
336.326
335.807
335.82
335.963
336.307
336.74
337.305
337.821
338.175
338.223
337.838
337.117
336.15
335.294
334.336
333.565
333.288
333.215
333.544
330.136
329.677
329.292
329.301
329.437
329.71
330.046
330.5
330.936
331.235
331.264
330.939
330.381
329.567
328.887
328.115
327.479
327.266
327.205
327.44
323.416
323.054
322.79
322.781
322.902
323.127
323.365
323.717
324.071
324.322
324.311
324.073
323.659
322.996
322.487
321.869
321.376
321.225
321.189
321.326
316.715
316.455
316.299
316.283
316.361
316.525
316.681
316.933
317.209
317.407
317.38
317.21
316.902
316.44
316.113
315.633
315.286
315.187
315.136
315.226
310.037
309.866
309.801
309.772
309.82
309.932
310.004
310.17
310.338
310.455
310.452
310.339
310.136
309.886
309.698
309.395
309.196
309.134
309.096
309.15
303.354
303.313
303.288
303.269
303.29
303.33
303.346
303.398
303.461
303.511
303.494
303.473
303.394
303.317
303.252
303.158
303.089
303.07
303.046
303.064
351.05
350.241
349.561
349.523
349.783
350.247
351.051
351.674
352.414
352.927
352.935
352.494
351.54
350.284
348.891
347.53
346.556
346.117
346.068
346.445
344.158
343.489
342.929
342.88
343.13
343.515
344.233
344.749
345.396
345.857
345.862
345.457
344.666
343.595
342.401
341.232
340.401
340.009
339.942
340.265
337.307
336.769
336.31
336.261
336.495
336.795
337.43
337.864
338.413
338.763
338.803
338.451
337.798
336.903
335.896
334.921
334.242
333.894
333.826
334.098
330.482
330.076
329.712
329.655
329.872
330.112
330.607
330.991
331.417
331.697
331.74
331.467
330.939
330.223
329.373
328.62
328.053
327.771
327.708
327.925
323.685
323.388
323.122
323.06
323.229
323.416
323.807
324.112
324.434
324.635
324.681
324.454
324.082
323.522
322.858
322.299
321.845
321.633
321.579
321.74
316.905
316.714
316.521
316.474
316.611
316.748
317.01
317.23
317.46
317.597
317.616
317.476
317.249
316.804
316.349
315.964
315.626
315.47
315.421
315.551
310.141
310.026
309.932
309.894
310.005
310.061
310.22
310.346
310.483
310.58
310.561
310.5
310.367
310.099
309.827
309.583
309.389
309.297
309.254
309.348
303.4
303.351
303.323
303.317
303.353
303.368
303.436
303.465
303.513
303.55
303.537
303.526
303.477
303.387
303.295
303.211
303.151
303.119
303.108
303.129
351.743
350.938
350.281
350.25
350.56
351.101
351.809
352.58
353.374
353.839
353.855
353.406
352.405
351.201
349.862
348.471
347.513
346.985
346.885
347.22
344.731
344.098
343.541
343.517
343.798
344.278
344.882
345.553
346.267
346.626
346.656
346.257
345.393
344.37
343.236
342.025
341.226
340.773
340.656
340.938
337.792
337.275
336.829
336.815
337.05
337.455
337.975
338.537
339.143
339.422
339.442
339.125
338.398
337.538
336.592
335.575
334.932
334.55
334.403
334.649
330.885
330.475
330.131
330.124
330.276
330.662
331.059
331.528
332.021
332.223
332.247
331.996
331.433
330.72
329.963
329.144
328.603
328.292
328.166
328.391
324.002
323.683
323.429
323.437
323.535
323.853
324.148
324.522
324.902
325.049
325.076
324.892
324.457
323.924
323.313
322.694
322.265
322.021
321.898
322.091
317.127
316.894
316.733
316.745
316.806
317.052
317.235
317.501
317.815
317.903
317.923
317.806
317.481
317.105
316.646
316.235
315.898
315.746
315.636
315.78
310.276
310.136
310.053
310.063
310.096
310.234
310.357
310.505
310.717
310.752
310.765
310.707
310.501
310.267
309.988
309.758
309.539
309.468
309.397
309.456
303.448
303.39
303.368
303.372
303.379
303.435
303.472
303.515
303.603
303.607
303.612
303.592
303.518
303.444
303.342
303.271
303.195
303.176
303.143
303.173
352.408
351.591
351.111
351.069
351.316
351.913
352.552
353.408
354.258
354.719
354.672
354.34
353.236
352.027
350.666
349.313
348.395
347.87
347.832
348.094
345.332
344.639
344.244
344.258
344.433
344.985
345.524
346.254
346.998
347.398
347.351
347.072
346.106
345.102
343.914
342.761
341.986
341.531
341.483
341.657
338.299
337.741
337.388
337.457
337.575
338.078
338.477
339.117
339.76
340.088
340.072
339.813
338.992
338.162
337.168
336.22
335.559
335.166
335.114
335.235
331.304
330.86
330.554
330.643
330.739
331.166
331.46
331.996
332.536
332.801
332.785
332.572
331.882
331.216
330.415
329.649
329.113
328.801
328.739
328.858
324.323
323.991
323.725
323.84
323.91
324.259
324.468
324.894
325.287
325.516
325.512
325.341
324.792
324.275
323.642
323.076
322.647
322.402
322.357
322.455
317.373
317.145
316.955
317.038
317.072
317.35
317.482
317.802
318.053
318.222
318.23
318.107
317.708
317.341
316.891
316.483
316.178
316.01
315.957
316.051
310.44
310.292
310.184
310.223
310.254
310.406
310.515
310.687
310.84
310.934
310.952
310.883
310.649
310.418
310.132
309.904
309.709
309.634
309.591
309.64
303.501
303.445
303.422
303.423
303.436
303.486
303.526
303.581
303.624
303.664
303.684
303.66
303.575
303.49
303.395
303.315
303.261
303.241
303.214
303.222
353.179
352.535
351.956
351.947
352.152
352.737
353.363
354.182
354.958
355.481
355.347
355.024
354.093
352.735
351.396
350.121
349.27
348.683
348.777
349.02
345.984
345.478
344.987
345.003
345.182
345.683
346.266
346.945
347.608
348.065
347.944
347.663
346.867
345.699
344.574
343.46
342.744
342.212
342.303
342.47
338.85
338.424
338.035
338.079
338.229
338.638
339.139
339.703
340.265
340.668
340.563
340.322
339.639
338.68
337.747
336.798
336.211
335.734
335.817
335.922
331.744
331.409
331.076
331.161
331.288
331.615
332.013
332.468
332.92
333.262
333.191
333
332.421
331.665
330.895
330.127
329.647
329.256
329.315
329.375
324.648
324.434
324.153
324.213
324.354
324.616
324.916
325.251
325.587
325.866
325.834
325.652
325.206
324.635
324.05
323.438
323.062
322.761
322.811
322.842
317.576
317.472
317.24
317.295
317.419
317.61
317.804
318.035
318.26
318.459
318.461
318.321
318.004
317.595
317.179
316.732
316.477
316.246
316.302
316.324
310.532
310.508
310.338
310.395
310.469
310.584
310.679
310.823
310.964
311.087
311.083
311.007
310.816
310.563
310.308
310.031
309.896
309.757
309.786
309.794
303.523
303.525
303.448
303.489
303.511
303.547
303.577
303.612
303.67
303.714
303.712
303.694
303.624
303.538
303.461
303.369
303.327
303.27
303.281
303.274
354.242
353.475
352.897
352.86
353.006
353.503
354.095
354.89
355.648
356.068
356.053
355.693
354.797
353.582
352.264
351.032
350.174
349.512
349.625
349.826
346.92
346.305
345.805
345.777
345.914
346.368
346.882
347.522
348.214
348.556
348.563
348.275
347.493
346.449
345.302
344.239
343.495
342.938
343.03
343.163
339.636
339.18
338.764
338.707
338.839
339.241
339.674
340.2
340.805
341.062
341.099
340.879
340.198
339.299
338.34
337.449
336.813
336.347
336.443
336.535
332.403
332.08
331.717
331.649
331.773
332.098
332.462
332.897
333.4
333.584
333.626
333.452
332.908
332.163
331.386
330.66
330.132
329.764
329.846
329.894
325.187
324.97
324.676
324.579
324.715
324.973
325.259
325.6
325.985
326.103
326.16
326.032
325.61
325.036
324.423
323.842
323.453
323.185
323.244
323.254
317.974
317.832
317.632
317.534
317.67
317.847
318.051
318.284
318.572
318.628
318.681
318.609
318.317
317.896
317.448
317.053
316.77
316.582
316.618
316.634
310.776
310.706
310.576
310.522
310.628
310.711
310.834
310.972
311.161
311.178
311.213
311.183
311
310.747
310.503
310.237
310.069
309.969
310.011
310.007
303.612
303.592
303.547
303.522
303.574
303.58
303.631
303.675
303.728
303.753
303.757
303.743
303.688
303.599
303.532
303.44
303.365
303.344
303.355
303.357
355.015
354.344
353.894
353.735
353.788
354.239
354.852
355.481
356.237
356.647
356.678
356.349
355.435
354.268
353.031
351.803
351.039
350.415
350.575
350.853
347.602
347.045
346.673
346.558
346.594
346.998
347.52
348.065
348.705
349.062
349.09
348.836
348.036
347.047
345.97
344.906
344.243
343.707
343.846
344.047
340.211
339.79
339.464
339.382
339.402
339.759
340.219
340.676
341.214
341.508
341.506
341.326
340.645
339.819
338.922
337.999
337.452
337.015
337.12
337.256
332.863
332.564
332.275
332.2
332.241
332.525
332.922
333.291
333.729
333.953
333.95
333.81
333.254
332.587
331.848
331.087
330.667
330.319
330.406
330.483
325.544
325.333
325.104
325.028
325.082
325.293
325.627
325.903
326.241
326.395
326.416
326.279
325.877
325.36
324.78
324.165
323.871
323.588
323.666
323.723
318.261
318.09
317.935
317.884
317.912
318.091
318.327
318.515
318.766
318.867
318.88
318.79
318.493
318.133
317.715
317.25
317.061
316.868
316.903
316.97
310.956
310.863
310.764
310.733
310.753
310.872
311.006
311.109
311.283
311.335
311.335
311.286
311.106
310.893
310.629
310.367
310.251
310.132
310.147
310.195
303.675
303.638
303.6
303.59
303.606
303.644
303.693
303.722
303.776
303.806
303.792
303.776
303.71
303.656
303.568
303.488
303.435
303.394
303.403
303.424
356.108
355.41
354.657
354.545
354.624
355.038
355.535
356.162
356.781
357.266
357.147
357.003
356.049
355.036
353.764
352.694
351.85
351.438
351.45
351.769
348.537
347.96
347.338
347.249
347.332
347.679
348.116
348.656
349.165
349.601
349.498
349.401
348.592
347.717
346.622
345.701
344.936
344.592
344.603
344.904
341.004
340.528
340.033
339.954
340.062
340.326
340.717
341.156
341.581
341.938
341.868
341.794
341.14
340.396
339.478
338.7
338.037
337.74
337.745
338.008
333.487
333.124
332.758
332.677
332.795
333.006
333.322
333.703
334.02
334.284
334.234
334.2
333.7
333.052
332.306
331.677
331.142
330.877
330.885
331.093
326.002
325.743
325.459
325.422
325.543
325.657
325.93
326.243
326.476
326.666
326.635
326.594
326.231
325.723
325.122
324.646
324.234
324.016
324.047
324.182
318.577
318.397
318.153
318.174
318.266
318.332
318.551
318.79
318.91
319.034
319.026
318.998
318.757
318.388
317.95
317.614
317.305
317.166
317.203
317.274
311.169
311.049
310.856
310.903
310.974
311.004
311.138
311.292
311.328
311.43
311.422
311.407
311.26
311.039
310.799
310.575
310.396
310.304
310.338
310.367
303.75
303.703
303.637
303.653
303.675
303.696
303.731
303.788
303.792
303.831
303.828
303.823
303.772
303.698
303.629
303.547
303.49
303.446
303.467
303.477
357.055
356.346
355.681
355.398
355.464
355.758
356.35
356.902
357.36
357.722
357.704
357.303
356.68
355.642
354.497
353.537
352.715
352.407
352.366
352.795
349.387
348.787
348.231
347.979
348.057
348.316
348.831
349.309
349.702
350.004
349.994
349.661
349.123
348.236
347.246
346.41
345.704
345.433
345.41
345.738
341.731
341.242
340.789
340.59
340.665
340.874
341.3
341.704
342.02
342.3
342.3
342.015
341.571
340.831
340.01
339.285
338.67
338.45
338.439
338.693
334.102
333.721
333.365
333.204
333.279
333.432
333.78
334.134
334.379
334.608
334.598
334.346
334.015
333.429
332.787
332.139
331.632
331.47
331.484
331.668
326.492
326.213
325.946
325.808
325.913
325.993
326.26
326.548
326.732
326.911
326.893
326.711
326.467
326.027
325.524
325.006
324.61
324.472
324.523
324.641
318.901
318.731
318.514
318.423
318.521
318.567
318.748
318.964
319.103
319.222
319.202
319.092
318.913
318.617
318.26
317.877
317.597
317.495
317.542
317.613
311.338
311.253
311.095
311.065
311.128
311.162
311.262
311.388
311.469
311.547
311.534
311.46
311.359
311.183
310.987
310.76
310.577
310.504
310.54
310.583
303.802
303.775
303.722
303.707
303.747
303.741
303.776
303.815
303.846
303.871
303.871
303.842
303.797
303.748
303.696
303.604
303.548
303.519
303.53
303.551
358.01
357.13
356.605
356.254
356.291
356.528
357.006
357.511
357.884
358.191
358.095
357.725
357.21
356.25
355.224
354.335
353.585
353.371
353.347
353.658
350.199
349.451
349.017
348.724
348.732
348.954
349.396
349.831
350.158
350.416
350.356
350.028
349.587
348.756
347.878
347.116
346.475
346.292
346.265
346.483
342.429
341.814
341.454
341.227
341.203
341.41
341.784
342.152
342.445
342.638
342.604
342.332
341.955
341.266
340.543
339.881
339.338
339.19
339.165
339.32
334.662
334.186
333.922
333.741
333.716
333.867
334.192
334.465
334.733
334.86
334.843
334.632
334.341
333.757
333.191
332.666
332.195
332.116
332.079
332.159
326.938
326.563
326.376
326.243
326.224
326.346
326.609
326.793
327.014
327.115
327.079
326.95
326.719
326.23
325.831
325.425
325.06
325.028
324.949
324.992
319.227
318.961
318.825
318.732
318.739
318.839
319.017
319.131
319.324
319.378
319.346
319.271
319.106
318.728
318.452
318.165
317.924
317.907
317.833
317.848
311.546
311.397
311.296
311.243
311.259
311.323
311.417
311.488
311.611
311.642
311.615
311.581
311.483
311.226
311.079
310.912
310.771
310.756
310.699
310.708
303.878
303.828
303.773
303.77
303.779
303.794
303.83
303.853
303.888
303.897
303.899
303.878
303.851
303.753
303.722
303.66
303.612
303.614
303.588
303.59
358.93
358.1
357.518
357.154
357.145
357.429
357.783
358.123
358.564
358.705
358.631
358.218
357.605
356.892
355.927
355.091
354.537
354.264
354.258
354.608
350.985
350.287
349.808
349.512
349.485
349.734
350.052
350.35
350.751
350.848
350.799
350.446
349.91
349.338
348.519
347.778
347.292
347.045
347.028
347.319
343.093
342.498
342.138
341.876
341.861
342.05
342.315
342.589
342.95
342.99
342.962
342.696
342.232
341.787
341.069
340.434
340.033
339.839
339.813
340.026
335.234
334.748
334.469
334.258
334.24
334.408
334.602
334.84
335.142
335.152
335.166
334.956
334.541
334.202
333.607
333.104
332.788
332.602
332.604
332.741
327.4
327.009
326.803
326.623
326.64
326.763
326.888
327.107
327.333
327.335
327.373
327.195
326.881
326.601
326.152
325.759
325.517
325.364
325.373
325.474
319.578
319.286
319.16
319.016
319.024
319.128
319.218
319.368
319.526
319.538
319.556
319.423
319.228
318.996
318.69
318.411
318.228
318.125
318.135
318.193
311.769
311.591
311.517
311.414
311.426
311.495
311.54
311.633
311.712
311.743
311.744
311.665
311.542
311.4
311.22
311.055
310.967
310.882
310.892
310.916
303.945
303.881
303.861
303.817
303.822
303.858
303.868
303.899
303.915
303.949
303.935
303.909
303.866
303.818
303.76
303.705
303.68
303.641
303.65
303.664
360.087
359.241
358.568
358.189
358.149
358.19
358.556
358.864
359.081
359.244
359.22
358.765
358.174
357.635
356.704
355.934
355.402
355.182
355.364
355.729
351.996
351.282
350.714
350.41
350.37
350.395
350.723
350.989
351.18
351.331
351.311
350.911
350.415
349.966
349.167
348.488
348.043
347.851
347.987
348.274
343.949
343.363
342.884
342.635
342.59
342.619
342.897
343.117
343.295
343.422
343.406
343.089
342.648
342.294
341.621
341.03
340.671
340.501
340.603
340.831
335.938
335.468
335.062
334.851
334.833
334.852
335.078
335.259
335.428
335.515
335.53
335.268
334.913
334.613
334.066
333.584
333.292
333.134
333.226
333.395
327.948
327.579
327.268
327.082
327.091
327.096
327.26
327.431
327.56
327.635
327.642
327.459
327.18
326.911
326.506
326.133
325.915
325.789
325.868
325.976
319.943
319.713
319.481
319.339
319.345
319.352
319.462
319.598
319.694
319.756
319.764
319.624
319.444
319.207
318.919
318.683
318.524
318.44
318.502
318.557
311.957
311.845
311.706
311.599
311.598
311.609
311.672
311.775
311.841
311.87
311.886
311.789
311.687
311.534
311.358
311.231
311.121
311.09
311.112
311.14
304.003
303.97
303.933
303.882
303.888
303.895
303.91
303.946
303.97
303.983
303.99
303.954
303.916
303.865
303.802
303.758
303.728
303.703
303.72
303.733
361.033
360.214
359.519
359.024
358.997
359.108
359.244
359.513
359.785
359.86
359.724
359.29
358.8
358.247
357.483
356.83
356.41
356.201
356.397
356.817
352.794
352.124
351.533
351.115
351.08
351.179
351.33
351.553
351.8
351.882
351.767
351.36
350.955
350.466
349.823
349.27
348.918
348.709
348.888
349.23
344.615
344.051
343.599
343.224
343.179
343.278
343.417
343.627
343.803
343.892
343.811
343.448
343.124
342.699
342.192
341.71
341.388
341.238
341.375
341.631
336.464
336.013
335.681
335.37
335.306
335.408
335.495
335.704
335.833
335.91
335.875
335.535
335.282
334.941
334.571
334.145
333.881
333.76
333.843
334.055
328.349
327.992
327.736
327.49
327.452
327.554
327.589
327.783
327.866
327.943
327.931
327.629
327.457
327.178
326.924
326.588
326.351
326.274
326.32
326.463
320.246
319.995
319.804
319.629
319.617
319.708
319.718
319.844
319.919
319.972
319.975
319.731
319.614
319.446
319.245
319.017
318.82
318.782
318.807
318.917
312.164
311.997
311.887
311.785
311.771
311.836
311.853
311.911
311.951
311.975
312.001
311.867
311.769
311.686
311.579
311.434
311.298
311.29
311.303
311.346
304.083
304.022
303.985
303.949
303.937
303.969
303.968
303.983
304.009
304.005
304.025
303.982
303.938
303.918
303.881
303.837
303.785
303.784
303.792
303.809
362.035
361.306
360.57
359.972
360.008
359.962
360.03
360.152
360.42
360.467
360.218
359.885
359.466
358.929
358.225
357.688
357.352
357.175
357.419
357.878
353.651
353.065
352.43
351.902
351.951
351.913
351.974
352.072
352.339
352.367
352.166
351.857
351.517
351.075
350.464
349.99
349.724
349.554
349.739
350.117
345.337
344.861
344.317
343.887
343.899
343.872
343.945
344.026
344.265
344.284
344.148
343.857
343.575
343.241
342.713
342.296
342.09
341.954
342.091
342.378
337.071
336.671
336.235
335.881
335.88
335.88
335.951
336.026
336.192
336.21
336.147
335.866
335.644
335.393
334.968
334.621
334.441
334.353
334.444
334.66
328.827
328.51
328.177
327.882
327.879
327.9
327.943
328.016
328.145
328.148
328.135
327.884
327.728
327.544
327.229
326.94
326.819
326.752
326.794
326.977
320.584
320.364
320.134
319.912
319.892
319.944
319.96
320.014
320.107
320.105
320.113
319.911
319.801
319.675
319.481
319.257
319.163
319.118
319.16
319.296
312.364
312.223
312.089
311.959
311.95
311.979
311.991
312.023
312.082
312.068
312.086
311.967
311.875
311.813
311.7
311.573
311.504
311.477
311.512
311.59
304.148
304.098
304.056
304.006
304.004
304.006
304.013
304.021
304.047
304.043
304.048
304.017
303.969
303.96
303.932
303.885
303.852
303.843
303.859
303.887
362.812
362.138
361.184
360.728
360.632
360.805
360.692
360.76
360.791
360.978
360.719
360.291
359.857
359.406
358.679
358.328
358.005
357.86
358.075
358.701
354.271
353.741
352.946
352.547
352.469
352.616
352.506
352.569
352.622
352.793
352.565
352.199
351.835
351.435
350.805
350.512
350.229
350.118
350.298
350.818
345.806
345.391
344.74
344.422
344.348
344.444
344.379
344.422
344.461
344.645
344.442
344.165
343.826
343.487
343.008
342.707
342.462
342.399
342.553
342.944
337.401
337.082
336.561
336.326
336.271
336.323
336.27
336.292
336.332
336.502
336.369
336.101
335.842
335.551
335.19
334.933
334.736
334.694
334.83
335.121
329.067
328.809
328.414
328.255
328.207
328.24
328.197
328.187
328.216
328.365
328.293
328.068
327.876
327.641
327.374
327.163
327.013
327.003
327.086
327.302
320.759
320.554
320.292
320.201
320.138
320.165
320.142
320.127
320.15
320.265
320.228
320.045
319.917
319.746
319.552
319.405
319.291
319.294
319.339
319.501
312.466
312.336
312.176
312.143
312.093
312.101
312.084
312.098
312.088
312.167
312.172
312.031
311.955
311.864
311.737
311.661
311.595
311.589
311.605
311.701
304.179
304.135
304.079
304.065
304.042
304.053
304.049
304.056
304.057
304.078
304.084
304.026
304.014
303.977
303.926
303.903
303.877
303.891
303.892
303.924
)
;

boundaryField
{
    hotSide
    {
        type            fixedGradient;
        gradient        nonuniform List<scalar> 
400
(
540.099
537.602
537.33
539.219
543.042
548.473
555.167
562.814
571.16
580.018
589.256
598.798
608.609
618.702
629.123
639.954
651.298
663.264
675.936
689.35
523.174
520.926
521.055
523.479
527.919
533.989
541.288
549.471
558.262
567.463
576.94
586.619
596.473
606.523
616.831
627.498
638.653
650.431
662.942
676.234
512.803
511.064
511.668
514.522
519.345
525.748
533.33
541.739
550.695
559.994
569.501
579.141
588.895
598.79
608.897
619.324
630.21
641.697
653.9
666.875
508.549
507.564
508.73
511.949
516.971
523.459
531.051
539.417
548.286
557.455
566.79
576.216
585.718
595.329
605.125
615.217
625.735
636.812
648.556
661.026
508.797
508.725
510.562
514.203
519.432
525.964
533.486
541.701
550.354
559.251
568.26
577.314
586.405
595.574
604.904
614.506
624.506
635.023
646.156
657.969
511.688
512.612
515.24
519.45
525.042
531.758
539.317
547.441
555.889
564.471
573.066
581.62
590.141
598.692
607.371
616.299
625.603
635.402
645.793
656.842
515.642
517.595
521.115
526.062
532.229
539.357
547.164
555.367
563.715
572.018
580.164
588.121
595.932
603.694
611.542
619.622
628.077
637.033
646.592
656.826
519.386
522.343
526.808
532.621
539.555
547.328
555.623
564.117
572.523
580.628
588.326
595.619
602.605
609.446
616.329
623.445
630.963
639.024
647.734
657.167
521.858
525.708
531.075
537.785
545.588
554.166
563.143
572.125
580.75
588.758
596.04
602.648
608.762
614.631
620.52
626.669
633.277
640.498
648.442
657.18
522.173
526.682
532.764
540.238
548.838
558.21
567.916
577.473
586.422
594.434
601.388
607.396
612.738
617.762
622.809
628.166
634.056
640.639
648.023
656.274
519.688
524.493
530.937
538.84
547.928
557.824
568.046
578.048
587.292
595.389
602.209
607.906
612.831
617.404
622.012
626.972
632.517
638.81
645.959
654.023
514.129
518.78
525.126
532.984
542.075
552.015
562.315
572.421
581.794
590.04
597.022
602.889
607.982
612.715
617.477
622.584
628.275
634.718
642.023
650.255
505.699
509.755
515.557
522.918
531.558
541.097
551.072
560.974
570.329
578.788
586.215
592.702
598.511
603.98
609.451
615.219
621.521
628.531
636.369
645.108
495.103
498.222
503.165
509.752
517.703
526.649
536.16
545.788
555.128
563.882
571.911
579.244
586.043
592.556
599.054
605.797
613.012
620.878
629.527
639.04
483.505
485.478
489.422
495.169
502.437
510.858
520.016
529.498
538.938
548.067
556.737
564.929
572.731
580.312
587.885
595.677
603.9
612.74
622.337
632.779
472.504
473.251
476.198
481.192
487.933
496.026
505.036
514.547
524.205
533.747
543.015
551.96
560.625
569.129
577.645
586.376
595.535
605.313
615.861
627.272
464.161
463.718
465.756
470.131
476.508
484.435
493.432
503.059
512.955
522.86
532.611
542.141
551.468
560.683
569.935
579.418
589.346
599.929
611.333
623.65
460.907
459.442
460.687
464.509
470.537
478.266
487.175
496.808
506.802
516.901
526.942
536.852
546.633
556.357
566.155
576.212
586.746
597.976
610.082
623.154
464.885
462.694
463.256
466.455
471.927
479.175
487.686
497.016
506.816
516.838
526.923
536.991
547.032
557.103
567.315
577.834
588.863
600.611
613.246
626.85
476.772
474.183
474.165
476.627
481.271
487.68
495.413
504.076
513.351
523.002
532.876
542.886
553.012
563.291
573.81
584.705
596.141
608.286
621.272
635.161
)
;
    }
    coldSide
    {
        type            mixed;
        refValue        uniform 300;
        refGradient     uniform 0;
        valueFraction   uniform 0.991591;
        source          uniform 0;
        value           nonuniform List<scalar> 
400
(
300.028
300.027
300.027
300.028
300.028
300.028
300.029
300.029
300.029
300.03
300.03
300.031
300.032
300.032
300.033
300.033
300.034
300.034
300.035
300.035
300.027
300.027
300.027
300.027
300.028
300.028
300.028
300.029
300.029
300.03
300.03
300.031
300.031
300.032
300.032
300.033
300.033
300.034
300.034