/*--------------------------------*- C++ -*----------------------------------*\
| =========                 |                                                 |
| \\      /  F ield         | OpenFOAM: The Open Source CFD Toolbox           |
|  \\    /   O peration     | Version:  2212                                  |
|   \\  /    A nd           | Website:  www.openfoam.com                      |
|    \\/     M anipulation  |                                                 |
\*---------------------------------------------------------------------------*/
FoamFile
{
    version     2.0;
    format      ascii;
    arch        "LSB;label=32;scalar=64";
    class       volScalarField;
    location    "./ITHACAoutput/true/1.4";
    object      error;
}
// * * * * * * * * * * * * * * * * * * * * * * * * * * * * * * * * * * * * * //

dimensions      [0 0 0 1 0 0 0];

internalField   nonuniform List<scalar> 
3200
(
-4.4756
-1.65345
-0.0914262
0.174482
0.476962
3.13625
3.7939
2.59706
3.69348
4.65911
6.20107
4.82659
2.93885
2.84968
3.55959
1.27265
2.19446
0.99369
-0.0883461
-1.78616
-3.31977
-0.203726
-1.28913
0.916118
2.68106
-0.131499
4.98959
2.48856
6.31956
4.82102
3.94153
3.51392
4.10405
2.60723
3.69235
2.37774
1.46887
-1.53855
-1.91215
-3.72321
-3.864
-2.75348
-1.05591
3.36037
3.748
2.34809
2.60735
1.87834
4.10781
2.47742
2.88778
4.24613
3.35471
2.64245
1.43475
0.467415
2.40096
1.10664
1.20495
-1.15862
-4.0161
-0.373809
0.0450194
-0.172733
1.49687
1.90643
2.87651
2.85186
0.816034
2.93819
2.86927
3.08966
0.724386
1.62398
1.26336
0.00134245
0.1191
-1.05232
0.226796
-0.420787
-2.68835
-0.0191102
-0.733102
1.86701
1.65416
2.90193
2.74113
1.77832
3.50477
3.38693
2.65019
0.940611
0.670246
1.73561
0.836651
-0.476064
-1.37221
-1.39223
0.056156
-1.24239
-3.00237
-0.0325132
0.794432
1.46719
2.90078
2.44018
1.51112
2.44482
-0.67556
-1.27038
0.419236
0.713992
3.54846
-0.402949
2.54603
1.07821
0.872639
-1.01478
-1.28641
0.555774
-0.0149459
-1.27903
0.84193
1.22281
0.138097
-0.578395
1.41676
1.22536
-0.691067
1.00816
-0.631133
1.60257
0.448257
-1.59063
1.84915
1.20092
0.236375
0.0664373
1.12419
-0.888739
-2.27547
1.0129
2.2569
1.54899
0.0324767
-0.422554
1.63944
-1.84807
0.141266
0.256501
0.616372
1.40556
-0.709089
1.0751
-2.02248
0.322468
-0.412678
-0.247867
1.5043
-0.493395
-5.73874
-2.27623
1.0434
-0.617755
2.38369
3.16331
3.39808
3.17727
6.39968
5.39911
4.8135
5.34124
2.94338
3.90981
1.81373
0.99857
2.83621
0.317784
-3.20393
-3.62631
-3.24018
-0.0135909
-0.638693
0.266276
2.28306
0.268789
2.15534
0.41504
3.65237
0.478742
0.623073
3.5751
0.23776
3.40099
0.0921436
1.40941
0.210372
0.491834
0.149217
-3.1455
-1.76532
-0.0155728
-0.840831
-0.207174
1.06638
3.17417
4.31796
4.15329
1.59908
3.07488
3.02643
4.45623
1.06769
3.82603
1.54385
0.780298
3.58298
-1.00561
-0.607504
-0.769351
-2.31189
-1.52582
-0.74827
1.66645
0.348206
2.54979
2.53063
1.64641
2.34499
1.36414
2.14028
1.82514
2.02596
2.52326
1.77837
1.77392
0.834756
-0.224708
1.44133
-1.10752
-2.03315
-0.543178
1.21783
-0.291725
0.0591511
2.58842
1.81178
0.498986
6.37904
3.5525
2.42688
2.09449
1.65657
1.57854
1.12218
-0.668024
1.39159
0.210459
-1.15539
-2.69463
-0.577815
-1.81125
-0.79662
0.221853
0.487326
2.38675
2.48341
2.63226
0.715367
0.599024
-0.151831
-1.32916
2.41743
1.48139
-0.400808
1.09873
0.80178
-0.741711
0.229786
-0.753263
-0.917151
-0.402047
-0.0859563
-1.29702
1.43386
1.02812
1.49101
2.60616
0.220967
3.06146
0.793851
-0.723667
1.03764
2.87053
-1.15631
1.39702
0.980937
1.29949
-2.28778
-0.62706
-0.830656
-0.0743184
0.983426
-1.84451
0.530082
1.7814
-0.409833
-0.223739
2.82944
0.98418
0.593104
2.77398
0.331685
0.545559
-0.643553
0.716072
0.492414
0.0706049
-2.22429
-0.586759
-3.97706
-3.8433
0.471909
0.792256
0.863772
0.810427
1.63031
1.31796
4.16464
4.39545
2.99696
3.23511
1.92146
0.27584
0.0730913
2.24725
0.17541
-0.750669
-1.27777
-3.78655
-3.2853
-0.125522
-1.76842
0.488374
1.76192
2.48757
1.88768
3.14795
4.89646
3.88877
2.51941
2.26581
3.55402
3.52104
2.36117
0.403777
0.850359
1.74692
-1.54292
-2.70887
-2.50725
-2.79145
-0.211293
2.21372
2.97227
2.55602
1.16312
0.248884
1.80208
2.41116
1.95315
1.72077
4.74451
2.65703
1.00906
1.93106
1.92932
-0.598293
-1.19421
-2.41162
-3.99405
1.81421
-0.310705
-0.51864
-0.74014
2.6812
4.03231
0.117003
4.76822
-0.628977
1.72692
-0.320675
4.14916
1.57304
1.7406
0.297651
-1.14358
-2.3348
-2.33693
-3.06844
-0.510601
-0.915743
-1.84941
-0.443444
-0.851002
2.0205
2.45961
2.67359
1.10401
2.31365
-0.160851
3.47524
1.42053
2.02587
0.865656
-0.436874
0.117662
0.724179
-0.999312
-2.46048
-0.714564
-0.753621
-0.160742
0.129625
-0.382173
1.24842
2.65546
2.61577
2.72539
0.650864
2.11636
0.412872
0.619097
2.78414
1.0001
0.0303013
1.83746
-1.38134
-1.51667
1.66676
0.534793
-0.0674852
-1.08795
0.352326
0.517094
1.00269
-0.558861
1.801
0.298221
0.662258
-0.269931
0.838462
0.105781
0.232801
0.681802
0.788665
0.138135
0.430736
-2.00299
-1.23132
1.42676
1.09859
-0.96461
0.119788
-1.73394
0.118121
0.536734
1.23702
1.66542
1.38252
-0.119217
-1.25487
0.332134
-1.15488
-0.645816
-0.332866
0.915442
-0.348782
0.486491
0.522477
-5.13098
-3.25838
1.00769
0.678133
1.43741
2.37244
2.8765
3.41307
2.63156
3.12151
4.00831
2.76791
1.35551
1.48555
1.35766
1.85338
0.984853
0.926575
-1.17289
-3.71424
-2.82965
-0.0753156
-1.51326
-0.320737
1.85321
-0.0202683
2.44293
0.188187
3.38781
0.0541147
-0.0440367
2.95103
0.15807
0.597205
-0.344465
1.9252
0.298537
0.682305
-0.137245
-0.143651
-2.73719
-1.49157
3.56671
0.620918
1.76212
1.38436
2.20481
2.49398
2.85162
2.22484
1.3262
1.27445
1.36203
0.836472
0.476763
0.546
2.58564
-0.216487
-1.7233
-2.56498
-2.26939
-3.50995
-0.70041
0.948667
2.1599
4.58999
1.19744
0.553729
2.98984
0.356609
1.58743
2.06903
2.87469
-0.118513
0.78681
1.46618
-2.27172
-0.00210376
-0.822579
-3.19846
-2.23466
-3.36888
0.511265
1.19805
0.211278
2.52731
2.21996
3.39409
-0.445535
-0.409736
1.23106
-0.99077
1.94927
0.239454
-0.601517
-0.2325
2.94203
-0.301672
0.287057
-1.09666
-2.24463
0.965606
-0.486581
-0.100677
2.79776
0.530521
1.55159
0.517626
-0.196371
2.69842
3.02851
-0.226659
2.78143
0.0653708
0.215771
0.0595777
-0.129557
-0.517953
-1.93415
-1.11371
-0.96769
-2.05865
-0.690897
0.130328
0.938798
0.624332
2.11618
-0.370363
2.22704
-0.820102
-0.259375
-0.552888
-0.642487
0.483146
1.77564
-0.492462
1.29608
0.295085
-0.493606
-4.19519
-1.55164
0.690692
0.570576
-0.870032
-0.51699
0.862659
1.13674
-0.105797
0.375112
0.707628
-0.960599
0.456346
-0.660597
-0.99421
0.328358
0.372727
-0.372257
2.2366
0.479318
-0.46927
-4.97973
-0.329991
-1.29871
-0.208992
1.42477
0.916228
1.92757
3.76949
0.939706
1.49042
1.72119
0.715725
0.248987
0.128723
1.16487
-1.40086
2.453
0.407387
-2.44431
-4.17555
-4.06538
-1.79697
-0.692001
0.0933049
1.86066
1.949
2.71363
2.28673
1.20525
2.56394
1.82906
1.3712
0.370042
1.39037
2.12554
1.02669
-0.309558
2.25365
-1.32261
-2.55885
-1.8374
-1.88336
0.513585
0.725097
-0.487286
2.11138
2.64356
1.42229
3.43154
1.46721
0.506826
1.61741
2.74612
-1.34193
0.0728598
0.99291
-0.609459
-0.00244612
-2.79478
-3.17603
-0.466633
-0.790047
-0.00351222
0.663925
1.06134
1.20277
2.15149
1.07137
1.62908
1.82129
1.75701
0.286878
-0.465906
-1.00002
0.809699
0.425363
0.419432
-0.105769
-1.13162
-2.22505
-3.94083
-0.656966
0.597438
1.18601
-0.490023
-1.20623
1.41536
1.29062
0.453341
0.123565
1.35779
1.68579
1.47849
0.0565332
1.82892
-0.128587
0.608584
0.744855
-2.83888
-2.92258
-0.398288
-1.17084
-0.11153
0.221781
0.0598783
-0.00454755
0.669269
1.6505
2.10079
-0.526181
-0.418172
0.876205
1.96967
-0.471629
1.43037
0.285703
0.838902
-0.103232
-0.389085
-3.68713
-2.2766
-0.732157
0.923271
-1.44961
-0.823483
0.0247829
0.250033
1.16731
1.11719
0.918518
0.826535
-0.128947
0.711297
-0.693392
0.826012
0.702394
2.36556
0.318157
-0.348097
-2.44419
-0.647852
0.803818
-0.784851
1.05542
0.246328
-0.569632
-0.508275
-0.660998
1.41599
2.67734
-0.0504919
0.0322461
-0.915355
-0.512733
0.610818
0.146135
-0.394623
-0.0747583
0.272247
-1.0025
-4.96627
-3.64603
-1.77921
-0.147728
2.14831
2.32993
0.256982
1.93964
1.83443
1.01355
0.617492
1.26621
0.614502
1.16703
0.044675
-0.633072
0.479688
-2.60484
-2.34391
-4.46153
-4.08235
-0.285127
0.51345
-0.357937
1.1611
0.0461165
1.06817
0.101056
2.46574
0.0802504
-0.296196
0.647668
-0.19992
-1.80628
-0.166137
2.50678
0.0645719
0.912972
0.7137
-1.21684
-3.88824
-3.17366
0.132523
0.328742
-1.35829
0.904442
2.25297
2.26885
1.65763
1.10937
0.749856
1.81586
-0.487373
3.48624
0.955205
-0.59852
-0.896753
0.381458
-0.173748
-2.72551
-2.96457
-0.504302
0.279926
-1.06666
2.3685
1.6742
1.86072
0.0692681
1.61629
0.555427
-0.485968
-1.18991
1.9353
0.539534
-0.523045
0.377382
-0.988441
0.134561
-2.28095
-1.73313
-4.33364
1.01825
1.22222
-0.370966
0.412059
-0.491457
1.94501
0.964546
-0.938585
1.68698
0.490878
1.45902
0.149219
-1.61191
0.203624
-1.22396
0.896024
-0.683905
-0.77739
-2.12739
0.0128768
-1.21633
-1.29538
2.74109
1.31745
0.84779
-0.552818
1.37884
-0.995845
-1.79869
-0.282017
-0.650496
-0.519767
0.647753
-1.09535
-0.768503
-0.967612
-0.700982
-1.44915
-0.813594
-0.6094
-0.519784
-1.18519
-0.673225
3.84574
0.0726665
1.14506
1.13838
-0.168153
1.83526
1.76678
-0.214949
0.623369
0.815369
0.392855
-0.795484
-0.331648
1.77352
1.83188
0.247558
2.45535
-0.714723
0.749396
0.0946698
2.297
0.571077
-0.442727
-0.031662
-0.172702
0.241312
-0.0400025
1.86706
0.791844
-0.194673
2.64325
-0.336746
0.136784
1.44129
-0.211898
0.501865
-4.30653
-1.59152
-0.861074
-0.388113
-1.71748
0.958917
2.30743
-0.0060703
1.14243
-1.0211
-0.668643
-0.598251
0.0923981
-1.40978
-0.578133
0.516239
-0.375082
-2.87199
-1.99989
-5.06679
-3.47945
-2.04232
-1.78165
0.923062
0.838312
-0.191643
2.60562
0.189775
0.0932279
-0.291465
0.732165
-0.371262
0.132138
-1.51237
-1.98455
1.07748
0.513586
-2.74519
-1.02428
-1.2263
-0.609628
-1.67455
-1.99342
0.679175
0.266509
-1.02713
2.19979
0.922974
-2.08603
-0.608972
1.24039
-0.0754051
-1.6782
0.505182
0.200371
-2.38503
-0.572972
1.98778
-1.65157
-2.37508
-1.14336
-0.104152
0.210772
0.539724
1.15617
0.0134471
0.350517
0.546994
0.501444
0.217861
-0.383922
-0.481464
-0.98319
-2.45157
0.480831
0.970537
-0.66824
-0.0700132
-2.19264
-2.33187
-1.40982
-3.08504
-2.21323
-0.343447
0.0716081
2.60906
2.32142
-0.486659
-0.693822
0.936026
0.700048
1.59234
0.543448
2.36133
0.996116
1.54772
-0.239767
-0.339117
-2.39342
-2.12304
-2.39854
-2.6059
0.623477
-0.277891
1.29254
0.836937
2.20174
-0.0612199
-0.713175
-0.478516
1.48167
0.265362
-0.64523
-0.457795
-1.01566
0.689443
-0.517554
-1.40352
-1.79999
-3.24383
-2.73445
0.869884
-1.87121
1.32923
1.47026
-0.432906
0.560903
-0.8076
-0.152692
-0.00858654
0.793139
0.416482
-0.456344
-2.27351
0.472587
-0.189076
-1.29832
-1.67171
-0.0818275
-0.191396
-0.308243
0.953335
1.93714
0.44569
-1.11067
-2.79112
0.662795
1.05659
0.317135
0.564345
-0.19306
-0.812091
0.174712
-0.859922
2.29604
-1.63314
-0.805124
0.483351
-1.25928
0.834847
-3.81031
-2.46151
-2.41081
0.382054
-0.947959
0.330492
0.490778
0.643696
-1.86032
-0.46074
-1.26813
-2.32821
-0.312134
-0.647789
2.46228
-1.56477
-0.13177
-0.524248
-4.6843
-2.28822
-5.86867
-0.0138011
-0.492127
-0.31118
-0.840104
0.261156
0.682736
0.196273
-0.192793
-0.091134
-0.267329
-0.964329
0.0314458
-3.11692
-0.0128792
-0.92404
-0.187084
-1.58258
-0.463838
-3.79376
-2.98169
-1.9335
-0.987333
0.156665
-2.04719
1.56551
0.892235
1.14998
0.580258
0.364836
-1.65518
-1.50223
-0.210482
0.31737
0.786604
0.58306
-1.32211
-0.62554
-2.2365
-2.58357
-3.00752
-2.23742
0.702219
0.108495
0.165114
2.14275
-0.0337307
0.254798
-0.65274
-1.82589
0.195525
-1.68401
0.770099
-0.785103
0.239289
-0.768818
0.0368016
-1.9065
-1.73773
-2.42368
-1.01242
-2.65537
-0.901802
0.6087
-3.21404
-1.45359
1.51208
0.113595
-0.502412
-0.367417
-0.260504
-0.661867
0.144729
-0.0640668
-0.805376
-2.01458
0.476191
0.548615
-2.14171
-1.9021
-2.0157
-1.54069
-1.21231
1.68246
-0.0400122
-0.24223
3.45109
-1.42753
-1.8109
0.488777
-0.539393
0.15226
-2.1626
0.86761
0.481453
-0.596477
-0.95692
-0.454275
-1.2031
-2.65936
0.41179
-1.54539
0.628327
-1.94893
0.331921
2.86511
1.02433
0.984191
-1.06642
0.0813159
-2.99748
0.708016
0.108443
-1.29042
1.32142
1.08249
-0.558139
0.0182397
0.0867703
-2.71438
-2.11452
-0.00892333
0.410524
-1.3349
1.40284
0.0221856
0.156279
-0.20228
-0.543991
0.964041
-2.32271
-1.2092
-1.55094
1.68675
0.380769
0.16093
-0.820524
1.28101
-1.82774
-0.416004
-3.80965
-3.82649
0.311115
-1.8898
0.119411
-1.64873
-2.2848
-3.34829
0.133467
-0.162637
-3.08298
-3.34844
-3.6867
-1.16273
0.0641928
-1.42835
-2.96841
-1.09389
-2.81859
-3.26723
-1.33706
-3.44785
-0.947476
0.550105
1.35664
0.488839
1.48764
-0.679836
-0.157213
-0.273869
-2.02843
-2.44733
-0.108155
-1.47444
-0.960983
-2.30253
-1.46886
-0.284089
-2.21432
-4.26494
-1.98767
-4.45539
-0.858823
0.727267
0.10471
0.739683
-2.66311
0.586464
-1.31763
-3.1224
-3.25442
-3.21745
-2.63015
-0.97723
0.501617
-1.86282
-1.51775
-1.17068
-1.20782
-1.31443
-4.95052
-2.48756
-1.66574
0.140617
0.171822
-1.25117
1.20012
-0.671863
-0.702452
-2.79625
-1.21366
-1.32045
-1.8268
0.703689
-0.263016
-0.519766
0.116791
-0.602528
-2.53895
-3.52072
-0.198579
-1.89303
-0.945276
1.91925
1.78112
-0.198566
-1.45604
0.547976
-3.9127
-1.77094
0.857381
-0.439002
-1.44575
0.723621
-1.49333
-0.305064
-0.717886
0.31124
-0.301904
-3.17643
1.0032
-0.312293
0.167829
0.037436
0.624467
0.110515
0.886036
2.32597
-0.621765
-0.601112
0.941286
0.613518
0.0934516
-1.24266
0.962879
-0.458926
0.600319
-3.01681
-0.958217
-1.45057
-1.63322
-0.238995
1.89383
-0.18519
0.711064
-0.134789
-0.440111
-0.600756
0.258332
-1.30194
-2.04072
0.0659884
-1.30833
-0.527649
2.11293
0.950469
-0.128573
-0.735098
0.754056
0.336121
-2.08803
0.0135709
-0.482514
-1.29905
-0.0726131
1.69893
-0.872974
0.616455
-0.486929
-0.535307
0.893602
-0.378405
-0.494709
1.6967
0.227134
1.74864
-0.437191
-0.0917099
0.482089
-1.50598
-6.4536
-2.36713
-2.4814
-0.64233
-1.1888
-1.33697
-1.21071
-1.58546
-0.137003
-2.36166
-2.60212
-1.75137
-3.79168
-2.3407
-1.0877
-1.5018
-2.17164
-1.6754
-1.65234
-3.80985
-5.61122
0.0421197
-0.338496
0.183291
-0.225192
0.157321
-0.692785
0.221753
-0.446918
0.710643
0.0952885
-1.72295
0.071713
-2.01069
-0.342596
-1.83906
-0.579749
0.123964
0.00513057
-2.30335
-3.70069
-1.4854
-2.29084
-0.060961
-0.332153
2.61616
0.163221
3.16212
1.71153
-0.766069
0.132167
-3.8823
-2.39105
-2.14487
-1.56424
-3.56654
-2.23371
0.386308
-1.64957
-0.302318
-3.29438
-1.92359
-0.349385
-1.07388
1.63248
0.865044
0.995361
-1.0749
-0.299977
-1.50269
-2.70866
-2.28942
-0.0953373
-1.92176
-0.868586
0.357939
-1.57484
-0.584728
-2.41671
-3.36279
-2.36191
-0.0170818
-0.754677
0.429594
0.981297
1.03902
-1.48656
0.674041
-0.269308
-1.47352
0.746534
-1.61705
-0.0651326
-0.645365
0.383162
0.0117621
-0.852004
-1.07953
-0.883349
-2.65592
-1.26406
-1.65736
-2.32843
1.76496
-0.813953
0.47152
1.72565
0.947829
-0.835843
1.3236
-1.53383
-2.14428
-1.34292
-2.30358
-2.47309
-1.44115
-1.15944
0.00870205
-1.62348
-0.590615
-2.72187
-0.160605
1.99196
1.65703
0.358373
-0.931857
-0.727791
0.233909
-1.22246
-2.52426
1.42205
-0.363174
-1.42465
1.93096
-0.289686
-0.971725
0.548178
-0.639834
-0.334529
-0.178318
0.899314
2.03317
0.861387
-0.0345773
-2.24461
0.253206
0.887332
1.16311
1.85102
-0.266316
1.59009
-0.432048
0.476555
1.95177
0.436652
-1.99786
-0.83799
-2.38187
1.18678
0.165544
-3.23926
-1.88507
-4.38111
-1.17308
-1.25291
-2.82345
1.18472
-3.08095
-2.22316
-2.34369
-1.30853
-2.01137
-3.73705
-0.830305
-1.98561
-0.395651
-1.71987
-1.12578
-3.90301
-2.80466
-2.98363
-0.672747
-3.54548
-0.148961
-0.966421
-0.29648
-0.508859
-0.0820589
-0.131151
-0.571631
-0.48706
-0.357832
0.379602
0.753524
-0.0665422
-2.36327
-0.218988
-0.606744
-0.272257
-1.685
-3.47766
-2.06947
-2.57064
1.07264
-1.65128
-1.15291
-1.0397
-0.560985
-0.889263
-0.926728
-0.540429
-2.01025
-1.53172
-1.26776
-0.381848
-0.773552
0.425644
-2.06235
-0.927063
-4.88232
-1.04284
-2.66448
-1.8998
1.64519
0.0721564
-0.322716
0.242782
-0.53595
-1.73814
-1.91604
-2.34005
-1.05606
-0.406258
0.365803
-1.76141
0.43121
0.854013
-1.88225
-3.71872
-1.73872
-0.392419
-3.39127
0.576436
-0.267864
0.605913
-0.710002
0.0317658
1.62113
-2.40734
-0.834364
-3.0395
-0.660013
-0.0413667
-1.08733
-1.68155
2.37743
-1.38418
-0.359931
-0.863919
-1.92616
-1.10943
-1.62649
-0.0273706
-0.782615
3.15376
0.17118
-0.111718
-2.35423
0.24843
1.33284
-0.615524
0.9571
-0.471752
-0.205434
0.853535
-0.297234
0.51385
-0.350032
0.450906
-3.00262
0.207252
-0.522041
0.0705088
1.67886
-0.580246
-2.36007
0.180348
0.352625
-1.29027
-1.34681
1.19184
-0.725876
0.954977
-1.57864
1.7336
-0.58444
0.269786
0.47561
0.189153
-0.167317
1.4019
0.210208
0.210736
0.146965
0.429986
-0.957978
0.95549
0.876236
0.114547
0.26964
0.0473576
-1.58319
1.3619
-0.0569023
0.133988
0.140607
-0.683913
1.10368
0.97738
-1.15904
-4.57482
-2.46057
-0.433317
1.16876
-1.85681
-2.17439
0.23318
-3.33262
-1.46625
-3.73775
-3.54872
-2.23709
-1.02185
-3.24912
-1.06926
0.180874
-0.511104
-0.11639
-3.60985
-2.1132
-3.37718
-3.786
-0.395126
-0.527074
0.31603
1.12791
-0.349052
-0.965065
-2.17177
-0.793156
-3.17149
-2.9101
-1.11474
-3.04717
-2.58493
-2.23074
-0.757073
-0.797741
0.168215
-3.03493
-3.67192
-1.71419
-0.00148923
-0.869697
0.646935
-0.995839
-1.72779
-0.221288
-1.03258
-2.75113
-2.53263
-1.27422
-1.15431
-2.27128
-0.649892
-0.618353
-1.41105
-1.1929
-2.00895
-1.33909
-1.3428
-3.07219
0.182912
1.34802
0.967541
0.421715
-1.13748
-0.828636
-0.927807
-1.74366
-0.85425
-1.60252
-1.7745
-3.09673
-0.0830325
1.37762
-1.23625
-1.14906
-1.90309
-1.65959
-2.6847
-1.55991
-0.494604
-1.26799
0.626935
0.693238
0.2348
0.53028
-0.3318
-1.85093
-0.850782
-3.21643
-1.67714
-1.39933
-0.0178655
0.507514
0.137158
0.58341
-1.97366
-0.68734
-0.832104
-1.06744
-1.99401
-1.07192
-0.378963
0.258159
-1.8767
0.0364916
1.01176
-0.387359
-0.645946
-1.36035
1.62494
1.43958
-0.0715077
0.0884553
-2.44848
-0.0277435
-0.793811
-2.96994
-0.136079
-1.02779
-0.976634
0.396775
0.830277
0.745616
0.18829
-1.10896
-0.113971
0.342738
-1.02623
-2.30295
-1.49971
-0.383386
0.389205
-2.35334
-0.587073
-0.592892
1.91873
-0.293886
-1.5671
-1.34336
-1.98156
-1.5467
2.33206
-0.572025
0.278922
0.746349
-0.872012
-0.00502438
0.395961
0.796461
0.355697
-0.100869
-0.68751
1.34644
0.653433
-0.736299
-1.21466
-0.90717
-4.21244
-2.16659
-1.03347
-4.62109
1.01273
-0.48736
-2.26377
0.623135
-2.27602
-2.07577
-1.89332
-3.1679
-2.90009
-1.68005
-1.49385
-0.0445545
-2.3859
-0.898356
-1.09679
-2.78494
-2.8867
-0.0519302
-2.08513
0.020205
-0.581647
0.364682
-0.59042
0.236647
-1.07352
-0.136616
-0.112732
-0.672136
-0.571529
-1.73869
-0.00105343
1.12848
0.0540516
-1.9169
0.0968412
-5.06775
-2.63575
-2.28225
0.803648
-0.873306
-1.0319
1.92324
0.171114
-0.614797
-0.447243
-0.255797
-1.74231
-2.21222
-0.410306
-2.28107
-1.01155
-1.46548
-3.16609
-1.9554
-1.68947
-2.45644
-1.82599
-2.7169
-1.16805
-1.24708
0.354611
0.410062
1.40819
1.30818
-1.69062
-1.17199
-0.365824
-3.11969
-0.898163
-1.88241
-0.665036
-1.46508
-1.80468
-1.20811
-2.50762
-4.04637
-0.913586
-1.02903
-1.89212
1.43458
0.205837
-1.93083
-0.190647
0.0597858
0.423281
0.0208757
-0.504914
-0.0989971
-2.11203
-2.60496
1.00569
-1.64086
0.991713
1.11941
-0.7463
-1.55253
-1.73563
-0.600367
-1.89952
-0.911428
0.431678
-0.791162
-2.09829
-1.17582
-0.840379
-0.377801
-3.05625
1.1686
-2.81768
0.791298
-1.46802
-0.816517
-0.323541
2.2706
0.223595
-0.432097
-0.689623
-1.79302
1.08135
-1.12715
0.126053
-1.40841
-0.736034
-2.09078
-0.780931
0.532352
-2.11176
-2.45222
-0.97365
0.39407
2.21778
0.86007
-0.44051
0.598663
0.379258
-0.766389
0.615481
0.538138
0.924796
0.182471
-1.78107
-0.302455
-0.292572
0.341948
0.585649
0.0609911
-1.53846
-1.59504
-1.45657
-1.07805
2.40861
0.218578
0.973411
-0.385278
-1.16444
-0.812272
-2.54944
-1.4214
-1.00513
0.0448555
-0.620082
-1.105
-0.059956
-0.547788
-0.0522321
-1.14155
-2.10429
-3.03066
-0.394879
-2.82094
-1.76503
-0.877755
0.224961
-1.66798
-2.64349
-2.97481
-2.92708
-3.49761
-2.35222
-0.558782
-2.47298
-1.13487
0.00416338
0.983305
-1.78226
-1.78347
-2.38875
-0.0674241
-0.524264
-0.739599
0.203309
0.127998
-0.232289
0.830185
-2.84963
-2.52196
-2.74159
-1.77209
0.891936
0.601993
-1.29529
-1.52012
-0.414114
0.751344
-0.137991
-0.197212
-0.434818
-0.345573
-0.0560083
-2.28947
-0.70193
0.963103
0.167873
-0.677789
-0.7991
0.162442
-2.44678
-2.3701
-0.889829
-0.531469
1.59957
-0.141802
-1.97235
-0.700056
-1.0104
-0.871566
0.27711
-0.495359
0.547467
0.340338
0.00304585
-0.245052
1.14129
0.687612
-1.26487
-2.12551
-1.78959
-0.73645
-0.824317
-1.77638
0.317442
1.08757
-0.190776
-1.00954
1.31426
-1.01445
-0.506041
-1.86406
-1.5829
-1.66775
-1.05061
-2.97491
0.542952
1.21438
-2.28626
-1.82713
-0.648427
0.0659303
-1.44119
-1.12934
-0.3464
0.576904
-2.3715
-0.906579
-0.989593
2.71443
-2.40834
-0.984536
0.0457991
-0.262934
-2.12923
0.292555
-0.726647
0.125911
-1.11906
-0.828504
-2.34103
0.108199
-2.94117
-0.265064
-0.0957971
0.379473
-1.57473
0.348019
0.0186259
0.377367
0.920728
-1.82125
-0.490301
-1.56755
-0.0417468
0.290127
0.371604
-1.96062
-0.1577
-2.7676
0.582018
0.431403
-1.69216
-0.703234
0.0746771
0.946461
-0.134094
0.343299
-0.0768384
0.00465138
-0.543122
1.80725
-0.143327
0.198125
0.63628
1.18739
0.0134336
-0.345824
-0.287834
1.63849
-5.58774
-3.66616
-1.98487
-2.23173
2.14072
0.71426
0.389904
-0.661846
-1.04238
-0.961718
-1.66016
-2.32163
-1.07871
-0.851503
0.0238788
1.68063
1.18344
0.891225
0.513525
-0.393735
-0.804855
-0.149956
0.133773
-0.317479
1.5321
-0.0891661
0.769268
-0.195696
0.408609
0.387577
0.307268
0.112065
0.393451
-1.44956
0.0347781
0.14607
-0.5501
1.49133
-0.104113
-0.58822
-3.94125
-0.656895
-1.86427
-0.61472
2.08519
0.626309
2.60231
1.86174
0.560792
-0.526751
-1.0948
-0.619669
-3.58744
0.601902
0.90343
-0.0804568
2.11747
0.197198
-0.622821
0.604806
-2.41739
-2.85061
-1.31653
0.115548
0.0595424
0.629916
-1.32189
-0.435197
-0.0150988
-1.49795
-1.9929
1.59326
-1.44414
0.661822
0.263839
0.225482
0.0327397
2.43127
-1.81378
0.132795
-1.97233
-3.8689
-0.0587114
-1.4252
1.27648
-0.43575
-1.64434
0.389639
-0.93584
-1.35556
-0.594009
-0.448059
-1.37629
-1.3248
1.59751
1.01184
1.74998
1.38602
1.45749
-0.386426
-0.733327
-1.22657
1.04771
1.04258
0.198568
0.542122
0.223453
1.32593
0.313784
-0.949647
0.317983
-0.216942
-0.776493
0.141086
0.19706
1.58922
2.04948
1.2021
0.284655
-0.468091
0.0244963
-0.89111
1.47789
1.4396
0.192843
1.00402
0.771421
-1.71046
1.74955
0.967093
-1.06867
0.140622
1.16824
-1.26497
0.812113
0.18793
1.0086
0.0571979
-0.330312
-0.584381
-0.35117
-1.14878
-0.19593
-0.557838
0.899243
0.00159049
2.5092
0.333984
0.310931
0.4839
0.243885
-0.148335
-0.316564
0.267788
2.69622
0.377153
-0.978366
-1.92063
-0.476438
-1.55745
-1.3812
-1.48152
-3.12499
0.353843
1.93139
-0.437185
1.05162
-0.43117
1.43788
0.529119
0.251355
-1.65823
1.20093
-1.09684
-1.14855
1.15978
1.75959
0.615197
-0.536525
-2.31197
-3.776
-2.25912
-0.10034
-0.418253
1.3275
1.36802
-0.616653
1.36925
-0.737577
-0.675274
-1.31582
-1.6468
0.866418
1.40564
1.19317
-0.0631934
2.08898
0.976897
-1.08891
-1.69734
-2.41498
-2.39722
0.00202255
0.136962
-0.249738
-2.15272
1.97794
1.31532
0.997269
0.249563
-1.81891
1.52119
0.0918478
0.429295
1.25112
1.07631
0.516929
0.117322
0.24814
-1.51382
-1.58922
-0.180173
0.666716
1.26819
-0.14572
0.873513
0.59945
0.390657
-0.458173
-1.66289
-1.50195
-0.140367
1.07997
1.26267
-0.218306
-0.431124
0.083115
1.25195
0.0212653
-0.263586
1.52699
-1.02088
0.333038
0.258853
1.24753
0.0265252
0.628577
0.649462
0.187562
0.222844
-0.330511
-1.7074
-2.11881
1.55239
1.53865
0.953216
0.539626
-0.930498
0.85923
-0.512398
-0.555464
0.330003
1.76406
-0.680133
1.11487
0.577761
-0.45681
-0.552464
-0.894808
-1.01622
0.0489932
-0.889816
-0.779523
-0.945281
0.843828
0.860504
0.604106
0.852124
0.044311
-1.641
-2.22563
-0.849918
1.66091
-0.269243
2.00809
1.44664
0.47308
-1.31475
0.713519
-1.69893
-0.826401
-0.861077
-0.838348
0.642082
-0.968253
-0.233936
-2.81963
-1.16978
-0.851682
-0.215886
-2.04646
-0.816149
-0.453539
0.281386
-0.942854
1.90047
1.31528
1.26899
1.79136
-0.311548
0.61897
0.665072
-0.929954
-0.173729
1.01703
-0.490912
0.617272
1.77509
0.368042
1.17135
-1.23669
-2.41195
-0.804703
0.699781
1.4898
1.33826
1.89731
1.23247
0.533549
2.47559
-1.17414
1.80237
2.13888
-1.0112
0.654093
1.44252
4.22142
1.77276
1.58002
0.107644
-1.76825
0.301793
-0.340837
-0.111655
1.69218
-0.273748
1.06646
-0.177312
-0.600411
0.644949
0.198846
1.94575
-0.119271
0.72359
0.469802
2.37572
-0.00889365
-0.0111019
-0.307635
-0.444095
-2.69103
-1.17481
0.291897
0.0555513
1.49568
-0.165589
-0.608209
2.51532
1.05339
0.990808
0.364621
-0.013399
1.42309
-0.426744
0.850122
0.074755
1.01827
2.39755
0.20256
-0.840863
-0.83893
-0.370644
0.196269
0.276922
0.584599
-0.303725
0.181889
1.38978
-0.37467
1.47406
0.402147
0.525757
0.703103
0.912596
-1.25225
2.15287
1.24054
0.587115
0.427828
1.04941
0.968201
-0.164127
-0.300166
-0.668375
2.11796
1.32195
1.48326
0.59985
-0.131112
-0.220646
-0.297342
-0.339718
0.317269
0.852006
-0.0658034
0.21972
1.93406
0.932245
-1.12223
1.05113
-1.08984
0.119851
0.0611677
-1.03781
1.58834
0.0692045
0.496712
0.936459
-1.01532
-1.96719
0.965347
0.0578911
-0.990348
-0.0991281
-1.16021
-0.282256
-0.117511
1.5338
-0.132217
-0.144255
-1.4947
0.262184
-0.940254
0.406586
1.80288
1.79753
0.0945512
0.303915
-0.14737
-0.336607
-0.258207
-0.416382
-0.537893
0.840727
-1.38484
0.0702359
0.41502
-0.726355
-0.407941
2.16679
-0.291646
-1.08965
1.09953
-2.05772
-0.0751034
-0.290717
-0.990601
-1.26472
-0.560121
-1.31401
-0.0770011
0.856072
0.344336
0.442313
-0.32105
-0.354552
-0.43334
-1.00152
-0.756914
-1.09063
-0.522428
0.126357
2.82433
1.01028
0.374821
1.53267
2.14056
1.93185
2.57439
-0.370674
1.14061
2.29748
2.33316
4.42958
4.57335
1.76659
1.38117
2.04002
2.07632
0.262411
-2.33277
0.665026
2.70912
-0.0336397
2.07313
1.87679
1.45725
2.78425
3.22588
0.677609
3.39698
0.22314
1.55485
3.03802
3.38798
2.92985
2.7049
0.163141
1.86519
-0.547991
-0.0733329
-0.0311795
2.17732
2.26441
3.79309
0.781702
1.45459
2.22343
0.660959
-0.513368
1.73171
3.17317
2.98147
0.299055
0.50379
3.36792
0.980194
0.577229
2.11468
-2.47953
0.677317
-0.181918
0.790101
2.8724
2.73294
0.709833
1.22264
-1.04527
1.37248
0.462293
1.58216
2.03075
-0.651561
1.13323
0.67569
1.49414
1.69715
0.716444
-0.149494
1.97571
0.192591
-1.50751
-1.8138
-1.15147
2.00276
2.23787
-0.325371
-0.438711
2.21821
1.27184
0.466785
1.04013
-0.720652
1.0701
0.653948
1.35709
-0.263127
1.4639
0.795447
1.15089
-1.43834
0.3804
2.84243
-0.388539
1.60136
-0.313884
-0.750168
0.598455
1.75727
0.423146
-0.66082
0.74552
1.15976
1.834
1.07715
0.309824
2.43481
1.96829
-2.12682
1.90486
0.403526
-0.519734
0.825105
1.3522
-1.26132
-0.652709
0.979119
0.421545
0.217827
-0.261461
0.885856
1.18055
-1.33126
1.18979
-1.74996
1.97866
1.27412
-1.78718
-1.2456
0.166415
-1.83554
-0.473352
0.905915
0.0246466
0.735517
0.119035
-0.126635
0.679788
-1.44226
1.39112
1.70016
1.5781
0.514308
1.18045
-0.128397
-1.05558
-1.79708
-1.38077
-0.643277
-1.09206
-1.51326
0.390587
0.401091
2.88629
1.93269
2.16762
4.88072
2.39248
5.19477
3.869
2.09091
3.28962
4.08862
5.68801
3.84556
3.06076
3.21863
2.28832
2.9345
-0.0634971
-1.93061
-0.0880209
0.894782
0.172174
1.28481
0.312892
1.51577
0.213278
2.27911
0.410108
0.109611
1.93042
0.310515
3.08103
-0.128453
3.14505
-0.216873
2.04517
0.460391
2.06054
1.68122
0.564733
2.67795
1.27217
1.95331
2.02172
4.71675
2.55829
3.0193
1.75705
2.75558
2.69852
3.65642
0.968684
2.51171
2.3841
3.77157
0.655508
2.12048
1.1464
-2.28043
-1.59721
0.581424
2.21073
2.04658
3.05461
-1.65149
0.552522
1.11368
1.17429
0.946496
1.08007
2.88854
1.7172
0.709294
0.93834
1.47761
-1.57013
0.510322
0.986452
-1.89072
1.07908
0.84705
3.23328
0.02986
0.695286
2.01914
0.832323
0.757998
0.258491
0.204802
1.99667
1.99043
2.00814
0.753008
2.42678
1.16179
1.41146
-0.369355
-0.451122
0.0508443
0.0798559
0.516587
0.116621
-0.708388
0.990034
2.10963
-0.720216
0.199641
0.260638
1.8487
4.35248
-0.62635
0.839424
0.262954
-0.527024
0.150864
0.992262
0.150307
1.13782
-1.73102
0.599125
1.68636
2.35038
-0.00158296
0.979636
1.16026
0.188058
-0.707035
0.55516
1.2638
0.980099
-0.0436429
0.0586965
1.24055
2.72644
1.34482
1.56083
0.289985
0.116946
-1.03368
1.07391
0.28454
1.1612
-0.290494
2.27575
-1.30728
1.40425
0.609186
2.07236
1.18046
0.0950292
1.04015
0.179838
-0.530182
0.114605
-1.87523
-0.634684
-2.65347
-0.549543
1.74099
-0.736863
1.15299
2.85238
3.09767
3.2346
4.0862
4.66558
2.69452
4.59553
2.65402
4.04064
3.89052
2.61355
4.16249
1.19527
2.54305
5.36025
2.26599
0.67749
0.871534
-1.5303
1.65286
3.03852
2.50258
2.45069
2.62505
2.83665
3.34977
0.800783
2.64301
2.50996
2.76692
1.82004
3.83303
4.23064
2.37316
4.02778
1.39812
1.94168
-0.406366
3.85771
1.09901
2.83901
3.95153
4.07666
0.358826
-0.103209
4.52803
2.30167
4.34761
2.68068
3.02514
2.9738
3.94222
2.18088
1.63802
2.21805
2.63283
-0.743318
0.188887
0.793029
1.99984
1.62162
1.20333
2.68804
1.52354
1.22459
2.16607
1.28155
2.17775
0.783312
1.29504
1.67906
1.42849
1.18371
1.98469
2.80869
0.317662
1.3535
0.192164
-0.765633
0.20626
0.500991
-0.303182
2.87962
2.14465
0.397262
2.42179
2.82625
2.83356
2.02348
0.699096
2.1234
1.68477
-0.270323
0.635011
2.85937
2.58135
-1.9513
0.5839
0.795436
1.43289
1.51015
1.66445
2.06173
0.488901
0.837789
2.17974
1.62099
1.66535
1.63802
-0.601251
0.679354
1.20813
1.23923
0.692585
0.704003
0.141747
1.46903
0.21933
-0.881135
-0.403789
0.724242
1.08568
-0.718853
-0.479853
-0.676689
0.89428
-1.02893
-0.0902422
0.616259
3.19762
0.17535
-0.477335
0.263316
2.29599
1.76932
1.90588
-0.523741
0.569734
1.28238
-1.33626
2.15021
-1.42158
-0.4727
1.4362
0.6935
2.49486
2.76306
-0.223621
-0.483227
0.687431
-0.425866
-0.86234
0.250163
-1.13123
1.90581
0.234012
2.00648
)
;

boundaryField
{
    hotSide
    {
        type            calculated;
        value           nonuniform List<scalar> 
400
(
-3.6948
-4.96039
-3.20355
-4.36457
-4.22251
-4.22015
-3.57313
-3.09101
-3.10555
-5.76553
-2.56776
-3.9202
-3.57478
-1.92861
-4.98342
-0.792915
-0.663853
0.0356661
-0.969118
2.27203
-0.797131
-1.42295
-2.99603
-2.41993
0.497067
-2.83266
-0.793801
-1.68107
-3.06462
-1.62473
-1.16274
-1.75858
-1.48494
-0.759859
-3.02426
-0.858642
-1.80731
0.713633
0.961477
-0.181322
0.846621