/*--------------------------------*- C++ -*----------------------------------*\
| =========                 |                                                 |
| \\      /  F ield         | OpenFOAM: The Open Source CFD Toolbox           |
|  \\    /   O peration     | Version:  2212                                  |
|   \\  /    A nd           | Website:  www.openfoam.com                      |
|    \\/     M anipulation  |                                                 |
\*---------------------------------------------------------------------------*/
FoamFile
{
    version     2.0;
    format      ascii;
    arch        "LSB;label=32;scalar=64";
    class       volScalarField;
    location    "0";
    object      Ttrue;
}
// * * * * * * * * * * * * * * * * * * * * * * * * * * * * * * * * * * * * * //

dimensions      [0 0 0 1 0 0 0];

internalField   nonuniform List<scalar> 
3200
(
348.579
349.146
349.871
350.661
351.475
352.274
353.011
353.633
354.087
354.326
354.326
354.087
353.633
353.011
352.274
351.475
350.661
349.871
349.146
348.579
342.166
342.647
343.272
343.955
344.66
345.35
345.988
346.525
346.917
347.124
347.124
346.917
346.525
345.988
345.35
344.66
343.955
343.272
342.647
342.166
335.727
336.126
336.653
337.23
337.825
338.409
338.947
339.401
339.731
339.905
339.905
339.731
339.401
338.947
338.409
337.825
337.23
336.653
336.126
335.727
329.266
329.587
330.016
330.488
330.975
331.452
331.891
332.262
332.531
332.674
332.674
332.531
332.262
331.891
331.452
330.975
330.488
330.016
329.587
329.266
322.787
323.033
323.366
323.733
324.111
324.482
324.823
325.111
325.32
325.431
325.431
325.32
325.111
324.823
324.482
324.111
323.733
323.366
323.033
322.787
316.294
316.469
316.706
316.968
317.238
317.502
317.746
317.952
318.101
318.18
318.18
318.101
317.952
317.746
317.502
317.238
316.968
316.706
316.469
316.294
309.791
309.896
310.038
310.195
310.357
310.516
310.662
310.786
310.875
310.923
310.923
310.875
310.786
310.662
310.516
310.357
310.195
310.038
309.896
309.791
303.283
303.318
303.365
303.418
303.472
303.526
303.575
303.616
303.646
303.662
303.662
303.646
303.616
303.575
303.526
303.472
303.418
303.365
303.318
303.283
348.751
349.314
350.033
350.815
351.621
352.411
353.139
353.754
354.201
354.438
354.438
354.201
353.754
353.139
352.411
351.621
350.815
350.033
349.314
348.751
342.315
342.792
343.412
344.089
344.786
345.469
346.099
346.63
347.017
347.221
347.221
347.017
346.63
346.099
345.469
344.786
344.089
343.412
342.792
342.315
335.853
336.249
336.771
337.343
337.932
338.509
339.041
339.49
339.816
339.988
339.988
339.816
339.49
339.041
338.509
337.932
337.343
336.771
336.249
335.853
329.369
329.688
330.113
330.581
331.062
331.534
331.969
332.335
332.601
332.741
332.741
332.601
332.335
331.969
331.534
331.062
330.581
330.113
329.688
329.369
322.867
323.112
323.442
323.805
324.18
324.546
324.884
325.168
325.375
325.484
325.484
325.375
325.168
324.884
324.546
324.18
323.805
323.442
323.112
322.867
316.352
316.525
316.76
317.019
317.287
317.548
317.789
317.992
318.14
318.217
318.217
318.14
317.992
317.789
317.548
317.287
317.019
316.76
316.525
316.352
309.826
309.929
310.07
310.226
310.387
310.544
310.688
310.81
310.899
310.945
310.945
310.899
310.81
310.688
310.544
310.387
310.226
310.07
309.929
309.826
303.294
303.329
303.376
303.428
303.482
303.535
303.583
303.624
303.654
303.669
303.669
303.654
303.624
303.583
303.535
303.482
303.428
303.376
303.329
303.294
349.096
349.65
350.356
351.125
351.914
352.687
353.398
353.998
354.434
354.664
354.664
354.434
353.998
353.398
352.687
351.914
351.125
350.356
349.65
349.096
342.614
343.083
343.693
344.357
345.04
345.709
346.324
346.842
347.219
347.418
347.418
347.219
346.842
346.324
345.709
345.04
344.357
343.693
343.083
342.614
336.106
336.495
337.009
337.57
338.148
338.713
339.232
339.67
339.987
340.155
340.155
339.987
339.67
339.232
338.713
338.148
337.57
337.009
336.495
336.106
329.576
329.89
330.308
330.767
331.239
331.701
332.125
332.482
332.742
332.878
332.878
332.742
332.482
332.125
331.701
331.239
330.767
330.308
329.89
329.576
323.028
323.269
323.594
323.95
324.317
324.676
325.006
325.283
325.484
325.591
325.591
325.484
325.283
325.006
324.676
324.317
323.95
323.594
323.269
323.028
316.467
316.637
316.868
317.123
317.385
317.641
317.877
318.075
318.218
318.294
318.294
318.218
318.075
317.877
317.641
317.385
317.123
316.868
316.637
316.467
309.895
309.997
310.135
310.288
310.446
310.599
310.741
310.86
310.946
310.991
310.991
310.946
310.86
310.741
310.599
310.446
310.288
310.135
309.997
309.895
303.318
303.352
303.398
303.449
303.502
303.554
303.601
303.641
303.67
303.685
303.685
303.67
303.641
303.601
303.554
303.502
303.449
303.398
303.352
303.318
349.614
350.156
350.844
351.592
352.357
353.106
353.793
354.371
354.791
355.012
355.012
354.791
354.371
353.793
353.106
352.357
351.592
350.844
350.156
349.614
343.064
343.522
344.116
344.762
345.425
346.073
346.667
347.167
347.529
347.72
347.72
347.529
347.167
346.667
346.073
345.425
344.762
344.116
343.522
343.064
336.487
336.867
337.367
337.914
338.474
339.021
339.523
339.945
340.251
340.412
340.412
340.251
339.945
339.523
339.021
338.474
337.914
337.367
336.867
336.487
329.888
330.194
330.602
331.048
331.506
331.953
332.363
332.708
332.958
333.089
333.089
332.958
332.708
332.363
331.953
331.506
331.048
330.602
330.194
329.888
323.271
323.506
323.822
324.169
324.525
324.872
325.191
325.459
325.653
325.755
325.755
325.653
325.459
325.191
324.872
324.525
324.169
323.822
323.506
323.271
316.64
316.806
317.032
317.279
317.534
317.782
318.009
318.2
318.339
318.412
318.412
318.339
318.2
318.009
317.782
317.534
317.279
317.032
316.806
316.64
309.999
310.098
310.234
310.382
310.535
310.684
310.821
310.935
311.018
311.062
311.062
311.018
310.935
310.821
310.684
310.535
310.382
310.234
310.098
309.999
303.352
303.386
303.431
303.481
303.532
303.582
303.628
303.666
303.694
303.709
303.709
303.694
303.666
303.628
303.582
303.532
303.481
303.431
303.386
303.352
350.309
350.833
351.499
352.22
352.956
353.673
354.33
354.881
355.28
355.491
355.491
355.28
354.881
354.33
353.673
352.956
352.22
351.499
350.833
350.309
343.665
344.11
344.684
345.308
345.945
346.565
347.134
347.61
347.955
348.137
348.137
347.955
347.61
347.134
346.565
345.945
345.308
344.684
344.11
343.665
336.996
337.364
337.848
338.375
338.914
339.438
339.918
340.321
340.612
340.765
340.765
340.612
340.321
339.918
339.438
338.914
338.375
337.848
337.364
336.996
330.304
330.601
330.995
331.426
331.867
332.295
332.687
333.016
333.254
333.379
333.379
333.254
333.016
332.687
332.295
331.867
331.426
330.995
330.601
330.304
323.595
323.822
324.129
324.463
324.806
325.139
325.444
325.699
325.884
325.981
325.981
325.884
325.699
325.444
325.139
324.806
324.463
324.129
323.822
323.595
316.871
317.033
317.251
317.49
317.734
317.972
318.19
318.372
318.504
318.573
318.573
318.504
318.372
318.19
317.972
317.734
317.49
317.251
317.033
316.871
310.138
310.234
310.365
310.509
310.656
310.798
310.929
311.038
311.118
311.159
311.159
311.118
311.038
310.929
310.798
310.656
310.509
310.365
310.234
310.138
303.399
303.431
303.475
303.523
303.572
303.62
303.664
303.701
303.727
303.741
303.741
303.727
303.701
303.664
303.62
303.572
303.523
303.475
303.431
303.399
351.181
351.686
352.325
353.014
353.715
354.396
355.018
355.538
355.913
356.111
356.111
355.913
355.538
355.018
354.396
353.715
353.014
352.325
351.686
351.181
344.421
344.849
345.4
345.996
346.604
347.193
347.731
348.18
348.505
348.676
348.676
348.505
348.18
347.731
347.193
346.604
345.996
345.4
344.849
344.421
337.635
337.99
338.455
338.959
339.472
339.97
340.425
340.804
341.078
341.223
341.223
341.078
340.804
340.425
339.97
339.472
338.959
338.455
337.99
337.635
330.828
331.113
331.492
331.904
332.324
332.731
333.102
333.412
333.636
333.754
333.754
333.636
333.412
333.102
332.731
332.324
331.904
331.492
331.113
330.828
324.002
324.221
324.515
324.835
325.161
325.478
325.767
326.008
326.182
326.273
326.273
326.182
326.008
325.767
325.478
325.161
324.835
324.515
324.221
324.002
317.162
317.317
317.527
317.756
317.989
318.215
318.421
318.593
318.717
318.782
318.782
318.717
318.593
318.421
318.215
317.989
317.756
317.527
317.317
317.162
310.313
310.406
310.531
310.668
310.808
310.944
311.068
311.171
311.246
311.285
311.285
311.246
311.171
311.068
310.944
310.808
310.668
310.531
310.406
310.313
303.458
303.489
303.531
303.577
303.624
303.669
303.711
303.745
303.77
303.783
303.783
303.77
303.745
303.711
303.669
303.624
303.577
303.531
303.489
303.458
352.232
352.715
353.324
353.978
354.641
355.282
355.865
356.351
356.701
356.885
356.885
356.701
356.351
355.865
355.282
354.641
353.978
353.324
352.715
352.232
345.333
345.742
346.267
346.833
347.407
347.962
348.466
348.886
349.189
349.348
349.348
349.189
348.886
348.466
347.962
347.407
346.833
346.267
345.742
345.333
338.407
338.746
339.189
339.667
340.153
340.622
341.048
341.403
341.658
341.793
341.793
341.658
341.403
341.048
340.622
340.153
339.667
339.189
338.746
338.407
331.459
331.732
332.093
332.484
332.881
333.264
333.613
333.903
334.112
334.221
334.221
334.112
333.903
333.613
333.264
332.881
332.484
332.093
331.732
331.459
324.493
324.703
324.983
325.287
325.595
325.893
326.164
326.39
326.552
326.637
326.637
326.552
326.39
326.164
325.893
325.595
325.287
324.983
324.703
324.493
317.513
317.662
317.861
318.078
318.299
318.512
318.705
318.866
318.982
319.043
319.043
318.982
318.866
318.705
318.512
318.299
318.078
317.861
317.662
317.513
310.524
310.612
310.732
310.862
310.995
311.123
311.239
311.335
311.405
311.441
311.441
311.405
311.335
311.239
311.123
310.995
310.862
310.732
310.612
310.524
303.528
303.558
303.598
303.642
303.686
303.729
303.768
303.8
303.824
303.836
303.836
303.824
303.8
303.768
303.729
303.686
303.642
303.598
303.558
303.528
353.467
353.926
354.502
355.119
355.741
356.339
356.881
357.331
357.654
357.824
357.824
357.654
357.331
356.881
356.339
355.741
355.119
354.502
353.926
353.467
346.403
346.791
347.289
347.822
348.361
348.879
349.348
349.737
350.017
350.164
350.164
350.017
349.737
349.348
348.879
348.361
347.822
347.289
346.791
346.403
339.313
339.635
340.054
340.505
340.96
341.398
341.795
342.124
342.36
342.484
342.484
342.36
342.124
341.795
341.398
340.96
340.505
340.054
339.635
339.313
332.2
332.459
332.801
333.17
333.542
333.901
334.225
334.494
334.687
334.788
334.788
334.687
334.494
334.225
333.901
333.542
333.17
332.801
332.459
332.2
325.07
325.269
325.534
325.82
326.11
326.389
326.641
326.85
327
327.078
327.078
327
326.85
326.641
326.389
326.11
325.82
325.534
325.269
325.07
317.925
318.066
318.255
318.46
318.667
318.866
319.046
319.195
319.302
319.358
319.358
319.302
319.195
319.046
318.866
318.667
318.46
318.255
318.066
317.925
310.771
310.855
310.969
311.092
311.216
311.335
311.443
311.533
311.597
311.631
311.631
311.597
311.533
311.443
311.335
311.216
311.092
310.969
310.855
310.771
303.611
303.639
303.677
303.719
303.76
303.8
303.837
303.867
303.888
303.899
303.899
303.888
303.867
303.837
303.8
303.76
303.719
303.677
303.639
303.611
354.887
355.32
355.863
356.44
357.019
357.574
358.074
358.488
358.784
358.939
358.939
358.784
358.488
358.074
357.574
357.019
356.44
355.863
355.32
354.887
347.634
348
348.468
348.968
349.47
349.95
350.384
350.741
350.998
351.132
351.132
350.998
350.741
350.384
349.95
349.47
348.968
348.468
348
347.634
340.354
340.658
341.053
341.475
341.9
342.306
342.672
342.975
343.191
343.305
343.305
343.191
342.975
342.672
342.306
341.9
341.475
341.053
340.658
340.354
333.052
333.297
333.619
333.964
334.311
334.644
334.943
335.19
335.368
335.46
335.46
335.368
335.19
334.943
334.644
334.311
333.964
333.619
333.297
333.052
325.733
325.921
326.17
326.439
326.709
326.967
327.2
327.392
327.53
327.602
327.602
327.53
327.392
327.2
326.967
326.709
326.439
326.17
325.921
325.733
318.399
318.532
318.71
318.902
319.095
319.28
319.446
319.583
319.681
319.733
319.733
319.681
319.583
319.446
319.28
319.095
318.902
318.71
318.532
318.399
311.056
311.135
311.242
311.357
311.473
311.584
311.684
311.766
311.825
311.856
311.856
311.825
311.766
311.684
311.584
311.473
311.357
311.242
311.135
311.056
303.707
303.733
303.769
303.808
303.846
303.884
303.917
303.945
303.965
303.975
303.975
303.965
303.945
303.917
303.884
303.846
303.808
303.769
303.733
303.707
356.495
356.902
357.409
357.946
358.483
358.994
359.453
359.831
360.101
360.241
360.241
360.101
359.831
359.453
358.994
358.483
357.946
357.409
356.902
356.495
349.027
349.372
349.81
350.275
350.74
351.183
351.58
351.907
352.141
352.263
352.263
352.141
351.907
351.58
351.183
350.74
350.275
349.81
349.372
349.027
341.534
341.819
342.188
342.582
342.975
343.35
343.685
343.962
344.16
344.263
344.263
344.16
343.962
343.685
343.35
342.975
342.582
342.188
341.819
341.534
334.018
334.248
334.549
334.87
335.192
335.498
335.773
335.999
336.161
336.245
336.245
336.161
335.999
335.773
335.498
335.192
334.87
334.549
334.248
334.018
326.484
326.66
326.894
327.144
327.394
327.632
327.846
328.022
328.147
328.213
328.213
328.147
328.022
327.846
327.632
327.394
327.144
326.894
326.66
326.484
318.936
319.061
319.227
319.406
319.585
319.755
319.908
320.033
320.123
320.17
320.17
320.123
320.033
319.908
319.755
319.585
319.406
319.227
319.061
318.936
311.378
311.453
311.553
311.66
311.767
311.87
311.961
312.037
312.091
312.119
312.119
312.091
312.037
311.961
311.87
311.767
311.66
311.553
311.453
311.378
303.815
303.84
303.873
303.909
303.945
303.979
304.01
304.035
304.053
304.063
304.063
304.053
304.035
304.01
303.979
303.945
303.909
303.873
303.84
303.815
358.293
358.674
359.146
359.644
360.138
360.606
361.025
361.368
361.612
361.739
361.739
361.612
361.368
361.025
360.606
360.138
359.644
359.146
358.674
358.293
350.586
350.908
351.316
351.747
352.175
352.581
352.943
353.241
353.452
353.562
353.562
353.452
353.241
352.943
352.581
352.175
351.747
351.316
350.908
350.586
342.853
343.12
343.464
343.828
344.19
344.534
344.84
345.092
345.27
345.364
345.364
345.27
345.092
344.84
344.534
344.19
343.828
343.464
343.12
342.853
335.097
335.312
335.593
335.89
336.187
336.468
336.719
336.924
337.07
337.147
337.147
337.07
336.924
336.719
336.468
336.187
335.89
335.593
335.312
335.097
327.324
327.489
327.706
327.938
328.169
328.387
328.582
328.742
328.856
328.915
328.915
328.856
328.742
328.582
328.387
328.169
327.938
327.706
327.489
327.324
319.536
319.653
319.808
319.974
320.138
320.295
320.434
320.548
320.629
320.672
320.672
320.629
320.548
320.434
320.295
320.138
319.974
319.808
319.653
319.536
311.739
311.809
311.902
312.001
312.1
312.194
312.277
312.346
312.395
312.42
312.42
312.395
312.346
312.277
312.194
312.1
312.001
311.902
311.809
311.739
303.936
303.959
303.99
304.023
304.057
304.088
304.116
304.139
304.155
304.164
304.164
304.155
304.139
304.116
304.088
304.057
304.023
303.99
303.959
303.936
360.283
360.638
361.076
361.535
361.988
362.415
362.795
363.105
363.325
363.44
363.44
363.325
363.105
362.795
362.415
361.988
361.535
361.076
360.638
360.283
352.312
352.612
352.99
353.387
353.78
354.15
354.479
354.748
354.939
355.038
355.038
354.939
354.748
354.479
354.15
353.78
353.387
352.99
352.612
352.312
344.313
344.562
344.881
345.217
345.549
345.862
346.141
346.368
346.529
346.613
346.613
346.529
346.368
346.141
345.862
345.549
345.217
344.881
344.562
344.313
336.293
336.493
336.753
337.027
337.299
337.556
337.784
337.969
338.101
338.17
338.17
338.101
337.969
337.784
337.556
337.299
337.027
336.753
336.493
336.293
328.254
328.407
328.609
328.823
329.034
329.234
329.411
329.555
329.658
329.711
329.711
329.658
329.555
329.411
329.234
329.034
328.823
328.609
328.407
328.254
320.201
320.31
320.453
320.606
320.757
320.9
321.026
321.13
321.203
321.241
321.241
321.203
321.13
321.026
320.9
320.757
320.606
320.453
320.31
320.201
312.138
312.203
312.289
312.381
312.472
312.557
312.633
312.695
312.74
312.762
312.762
312.74
312.695
312.633
312.557
312.472
312.381
312.289
312.203
312.138
304.07
304.091
304.12
304.151
304.181
304.21
304.235
304.256
304.271
304.279
304.279
304.271
304.256
304.235
304.21
304.181
304.151
304.12
304.091
304.07
362.468
362.797
363.201
363.623
364.037
364.425
364.769
365.048
365.246
365.348
365.348
365.246
365.048
364.769
364.425
364.037
363.623
363.201
362.797
362.468
354.205
354.484
354.833
355.198
355.557
355.893
356.191
356.433
356.604
356.693
356.693
356.604
356.433
356.191
355.893
355.557
355.198
354.833
354.484
354.205
345.916
346.147
346.441
346.75
347.054
347.338
347.59
347.795
347.94
348.015
348.015
347.94
347.795
347.59
347.338
347.054
346.75
346.441
346.147
345.916
337.604
337.79
338.03
338.282
338.531
338.764
338.97
339.138
339.256
339.318
339.318
339.256
339.138
338.97
338.764
338.531
338.282
338.03
337.79
337.604
329.274
329.417
329.603
329.799
329.993
330.174
330.334
330.465
330.557
330.605
330.605
330.557
330.465
330.334
330.174
329.993
329.799
329.603
329.417
329.274
320.93
321.031
321.164
321.304
321.442
321.572
321.686
321.78
321.845
321.88
321.88
321.845
321.78
321.686
321.572
321.442
321.304
321.164
321.031
320.93
312.576
312.637
312.716
312.8
312.883
312.961
313.03
313.086
313.125
313.146
313.146
313.125
313.086
313.03
312.961
312.883
312.8
312.716
312.637
312.576
304.216
304.237
304.263
304.291
304.319
304.345
304.368
304.387
304.4
304.407
304.407
304.4
304.387
304.368
304.345
304.319
304.291
304.263
304.237
304.216
364.847
365.151
365.523
365.909
366.286
366.638
366.948
367.198
367.375
367.467
367.467
367.375
367.198
366.948
366.638
366.286
365.909
365.523
365.151
364.847
356.267
356.525
356.846
357.18
357.507
357.812
358.08
358.298
358.451
358.53
358.53
358.451
358.298
358.08
357.812
357.507
357.18
356.846
356.525
356.267
347.661
347.874
348.145
348.428
348.704
348.962
349.19
349.373
349.503
349.57
349.57
349.503
349.373
349.19
348.962
348.704
348.428
348.145
347.874
347.661
339.032
339.204
339.424
339.656
339.882
340.093
340.279
340.43
340.536
340.591
340.591
340.536
340.43
340.279
340.093
339.882
339.656
339.424
339.204
339.032
330.385
330.517
330.688
330.868
331.044
331.208
331.353
331.47
331.553
331.595
331.595
331.553
331.47
331.353
331.208
331.044
330.868
330.688
330.517
330.385
321.724
321.817
321.939
322.068
322.194
322.311
322.415
322.498
322.557
322.588
322.588
322.557
322.498
322.415
322.311
322.194
322.068
321.939
321.817
321.724
313.053
313.109
313.182
313.259
313.335
313.405
313.467
313.518
313.553
313.571
313.571
313.553
313.518
313.467
313.405
313.335
313.259
313.182
313.109
313.053
304.376
304.395
304.419
304.445
304.471
304.494
304.515
304.532
304.544
304.55
304.55
304.544
304.532
304.515
304.494
304.471
304.445
304.419
304.395
304.376
367.416
367.697
368.039
368.391
368.734
369.052
369.33
369.555
369.713
369.794
369.794
369.713
369.555
369.33
369.052
368.734
368.391
368.039
367.697
367.416
358.493
358.731
359.026
359.331
359.628
359.904
360.145
360.34
360.477
360.548
360.548
360.477
360.34
360.145
359.904
359.628
359.331
359.026
358.731
358.493
349.544
349.741
349.99
350.248
350.499
350.733
350.937
351.102
351.218
351.278
351.278
351.218
351.102
350.937
350.733
350.499
350.248
349.99
349.741
349.544
340.573
340.731
340.934
341.145
341.351
341.542
341.709
341.844
341.939
341.988
341.988
341.939
341.844
341.709
341.542
341.351
341.145
340.934
340.731
340.573
331.583
331.705
331.862
332.026
332.187
332.335
332.465
332.57
332.644
332.682
332.682
332.644
332.57
332.465
332.335
332.187
332.026
331.862
331.705
331.583
322.58
322.666
322.778
322.896
323.01
323.116
323.21
323.285
323.337
323.365
323.365
323.337
323.285
323.21
323.116
323.01
322.896
322.778
322.666
322.58
313.567
313.619
313.686
313.756
313.825
313.889
313.945
313.99
314.022
314.038
314.038
314.022
313.99
313.945
313.889
313.825
313.756
313.686
313.619
313.567
304.549
304.566
304.588
304.612
304.635
304.656
304.675
304.69
304.701
304.706
304.706
304.701
304.69
304.675
304.656
304.635
304.612
304.588
304.566
304.549
370.165
370.424
370.737
371.058
371.369
371.656
371.906
372.107
372.248
372.321
372.321
372.248
372.107
371.906
371.656
371.369
371.058
370.737
370.424
370.165
360.874
361.092
361.362
361.641
361.91
362.159
362.376
362.55
362.673
362.736
362.736
362.673
362.55
362.376
362.159
361.91
361.641
361.362
361.092
360.874
351.556
351.738
351.965
352.201
352.429
352.64
352.823
352.971
353.074
353.128
353.128
353.074
352.971
352.823
352.64
352.429
352.201
351.965
351.738
351.556
342.218
342.364
342.549
342.742
342.929
343.101
343.252
343.373
343.457
343.501
343.501
343.457
343.373
343.252
343.101
342.929
342.742
342.549
342.364
342.218
332.862
332.974
333.118
333.268
333.414
333.548
333.665
333.759
333.825
333.859
333.859
333.825
333.759
333.665
333.548
333.414
333.268
333.118
332.974
332.862
323.494
323.573
323.676
323.783
323.887
323.983
324.066
324.133
324.181
324.205
324.205
324.181
324.133
324.066
323.983
323.887
323.783
323.676
323.573
323.494
314.116
314.163
314.225
314.289
314.351
314.409
314.459
314.5
314.528
314.543
314.543
314.528
314.5
314.459
314.409
314.351
314.289
314.225
314.163
314.116
304.732
304.748
304.769
304.79
304.811
304.831
304.848
304.861
304.871
304.875
304.875
304.871
304.861
304.848
304.831
304.811
304.79
304.769
304.748
304.732
373.065
373.302
373.589
373.882
374.163
374.422
374.647
374.827
374.952
375.017
375.017
374.952
374.827
374.647
374.422
374.163
373.882
373.589
373.302
373.065
363.379
363.58
363.828
364.081
364.326
364.55
364.745
364.901
365.01
365.067
365.067
365.01
364.901
364.745
364.55
364.326
364.081
363.828
363.58
363.379
353.671
353.838
354.046
354.261
354.468
354.658
354.823
354.955
355.048
355.095
355.095
355.048
354.955
354.823
354.658
354.468
354.261
354.046
353.838
353.671
343.945
344.079
344.249
344.424
344.594
344.749
344.885
344.993
345.069
345.108
345.108
345.069
344.993
344.885
344.749
344.594
344.424
344.249
344.079
343.945
334.203
334.306
334.438
334.575
334.706
334.828
334.933
335.017
335.076
335.106
335.106
335.076
335.017
334.933
334.828
334.706
334.575
334.438
334.306
334.203
324.45
324.523
324.617
324.715
324.809
324.896
324.971
325.031
325.073
325.095
325.095
325.073
325.031
324.971
324.896
324.809
324.715
324.617
324.523
324.45
314.69
314.733
314.79
314.848
314.905
314.957
315.002
315.039
315.064
315.077
315.077
315.064
315.039
315.002
314.957
314.905
314.848
314.79
314.733
314.69
304.925
304.939
304.958
304.978
304.997
305.014
305.029
305.042
305.05
305.054
305.054
305.05
305.042
305.029
305.014
304.997
304.978
304.958
304.939
304.925
376.039
376.257
376.52
376.787
377.043
377.277
377.479
377.64
377.753
377.811
377.811
377.753
377.64
377.479
377.277
377.043
376.787
376.52
376.257
376.039
365.938
366.123
366.349
366.581
366.803
367.006
367.182
367.322
367.42
367.47
367.47
367.42
367.322
367.182
367.006
366.803
366.581
366.349
366.123
365.938
355.822
355.975
356.166
356.362
356.55
356.722
356.871
356.99
357.073
357.115
357.115
357.073
356.99
356.871
356.722
356.55
356.362
356.166
355.975
355.822
345.694
345.817
345.973
346.134
346.288
346.429
346.551
346.648
346.716
346.751
346.751
346.716
346.648
346.551
346.429
346.288
346.134
345.973
345.817
345.694
335.557
335.652
335.773
335.898
336.018
336.128
336.223
336.298
336.351
336.379
336.379
336.351
336.298
336.223
336.128
336.018
335.898
335.773
335.652
335.557
325.415
325.482
325.568
325.657
325.743
325.822
325.889
325.944
325.981
326.001
326.001
325.981
325.944
325.889
325.822
325.743
325.657
325.568
325.482
325.415
315.268
315.308
315.359
315.413
315.465
315.512
315.553
315.585
315.608
315.62
315.62
315.608
315.585
315.553
315.512
315.465
315.413
315.359
315.308
315.268
305.118
305.131
305.149
305.167
305.184
305.2
305.214
305.225
305.232
305.236
305.236
305.232
305.225
305.214
305.2
305.184
305.167
305.149
305.131
305.118
378.895
379.097
379.339
379.585
379.819
380.032
380.216
380.362
380.463
380.516
380.516
380.463
380.362
380.216
380.032
379.819
379.585
379.339
379.097
378.895
368.365
368.536
368.746
368.959
369.162
369.347
369.507
369.634
369.723
369.768
369.768
369.723
369.634
369.507
369.347
369.162
368.959
368.746
368.536
368.365
357.84
357.982
358.159
358.339
358.512
358.669
358.805
358.912
358.987
359.026
359.026
358.987
358.912
358.805
358.669
358.512
358.339
358.159
357.982
357.84
347.321
347.435
347.579
347.727
347.869
347.998
348.109
348.197
348.259
348.291
348.291
348.259
348.197
348.109
347.998
347.869
347.727
347.579
347.435
347.321
336.807
336.895
337.007
337.123
337.233
337.333
337.42
337.489
337.537
337.562
337.562
337.537
337.489
337.42
337.333
337.233
337.123
337.007
336.895
336.807
326.3
326.362
326.442
326.524
326.603
326.675
326.737
326.786
326.821
326.838
326.838
326.821
326.786
326.737
326.675
326.603
326.524
326.442
326.362
326.3
315.796
315.833
315.881
315.93
315.978
316.021
316.058
316.088
316.109
316.119
316.119
316.109
316.088
316.058
316.021
315.978
315.93
315.881
315.833
315.796
305.295
305.307
305.323
305.34
305.356
305.37
305.383
305.393
305.4
305.403
305.403
305.4
305.393
305.383
305.37
305.356
305.34
305.323
305.307
305.295
381.131
381.321
381.549
381.779
381.998
382.197
382.368
382.503
382.597
382.646
382.646
382.597
382.503
382.368
382.197
381.998
381.779
381.549
381.321
381.131
370.193
370.355
370.552
370.753
370.943
371.117
371.266
371.384
371.467
371.509
371.509
371.467
371.384
371.266
371.117
370.943
370.753
370.552
370.355
370.193
359.313
359.447
359.615
359.785
359.947
360.095
360.222
360.322
360.393
360.428
360.428
360.393
360.322
360.222
360.095
359.947
359.785
359.615
359.447
359.313
348.479
348.587
348.724
348.864
348.998
349.119
349.223
349.306
349.363
349.393
349.393
349.363
349.306
349.223
349.119
348.998
348.864
348.724
348.587
348.479
337.681
337.764
337.871
337.98
338.084
338.179
338.26
338.325
338.37
338.393
338.393
338.37
338.325
338.26
338.179
338.084
337.98
337.871
337.764
337.681
326.909
326.969
327.045
327.123
327.197
327.265
327.323
327.37
327.402
327.418
327.418
327.402
327.37
327.323
327.265
327.197
327.123
327.045
326.969
326.909
316.157
316.192
316.238
316.284
316.329
316.37
316.405
316.433
316.453
316.462
316.462
316.453
316.433
316.405
316.37
316.329
316.284
316.238
316.192
316.157
305.415
305.426
305.442
305.458
305.473
305.486
305.498
305.507
305.514
305.517
305.517
305.514
305.507
305.498
305.486
305.473
305.458
305.442
305.426
305.415
)
;

boundaryField
{
    hotSide
    {
        type            fixedGradient;
        gradient        nonuniform List<scalar> 
400
(
510.539
512.375
516.054
521.587
528.991
538.287
549.5
562.655
577.78
594.902
614.048
635.242
658.507
683.864
711.331
740.922
772.652
806.529
842.563
880.76
518.01
519.787
523.35
528.714
535.901
544.94
555.863
568.703
583.496
600.276
619.077
639.928
662.858
687.891
715.048
744.345
775.797
809.416
845.21
883.184
526.095
527.802
531.226
536.389
543.321
552.057
562.641
575.115
589.525
605.914
624.323
644.789
667.345
692.019
718.836
747.814
778.968
812.31
847.848
885.588
534.661
536.285
539.549
544.479
551.115
559.504
569.701
581.761
595.74
611.693
629.67
649.713
671.864
696.153
722.607
751.247
782.088
815.142
850.417
887.917
543.467
544.999
548.082
552.752
559.059
567.063
576.834
588.441
601.954
617.439
634.954
654.552
676.277
700.166
726.247
754.542
785.067
817.833
852.846
890.108
552.148
553.581
556.47
560.863
566.82
574.419
583.744
594.88
607.912
622.916
639.963
659.112
680.413
703.906
729.621
757.581
787.8
820.289
855.052
892.09
560.205
561.539
564.236
568.352
573.964
581.164
590.053
600.731
613.298
627.843
644.445
663.171
684.076
707.201
732.579
760.232
790.174
822.413
856.952
893.791
567.043
568.288
570.812
574.68
579.983
586.828
595.33
605.605
617.766
631.911
648.129
666.493
687.059
709.874
734.968
762.364
792.076
824.109
858.464
895.139
572.047
573.224
575.615
579.295
584.362
590.937
599.147
609.12
620.976
634.825
650.758
668.855
689.174
711.761
736.65
763.861
793.407
825.292
859.517
896.076
574.699
575.838
578.157
581.734
586.674
593.103
601.155
610.964
622.658
636.347
652.129
670.084
690.272
712.74
737.52
764.634
794.093
825.901
860.057
896.556
574.699
575.838
578.157
581.734
586.674
593.103
601.155
610.964
622.658
636.347
652.129
670.084
690.272
712.74
737.52
764.634
794.093
825.901
860.057
896.556
572.047
573.224
575.615
579.295
584.362
590.937
599.147
609.12
620.976
634.825
650.758
668.855
689.174
711.761
736.65
763.861
793.407
825.292
859.517
896.076
567.043
568.288
570.812
574.68
579.983
586.828
595.33
605.605
617.766
631.911
648.129
666.493
687.059
709.874
734.968
762.364
792.076
824.109
858.464
895.139
560.205
561.539
564.236
568.352
573.964
581.164
590.053
600.731
613.298
627.843
644.445
663.171
684.076
707.201
732.579
760.232
790.174
822.413
856.952
893.791
552.148
553.581
556.47
560.863
566.82
574.419
583.744
594.88
607.912
622.916
639.963
659.112
680.413
703.906
729.621
757.581
787.8
820.289
855.052
892.09
543.467
544.999
548.082
552.752
559.059
567.063
576.834
588.441
601.954
617.439
634.954
654.552
676.277
700.166
726.247
754.542
785.067
817.833
852.846
890.108
534.661
536.285
539.549
544.479
551.115
559.504
569.701
581.761
595.74
611.693
629.67
649.713
671.864
696.153
722.607
751.247
782.088
815.142
850.417
887.917
526.095
527.802
531.226
536.389
543.321
552.057
562.641
575.115
589.525
605.914
624.323
644.789
667.345
692.019
718.836
747.814
778.968
812.31
847.848
885.588
518.01
519.787
523.35
528.714
535.901
544.94
555.863
568.703
583.496
600.276
619.077
639.928
662.858
687.891
715.048
744.345
775.797
809.416
845.21
883.184
510.539
512.375
516.054
521.587
528.991
538.287
549.5
562.655
577.78
594.902
614.048
635.242
658.507
683.864
711.331
740.922
772.652
806.529
842.563
880.76
)
;
    }
    coldSide
    {
        type            mixed;
        refValue        uniform 300;
        refGradient     uniform 0;
        valueFraction   uniform 0.991591;
        source          uniform 0;
        value           nonuniform List<scalar> 
400
(
300.028
300.028
300.028
300.028
300.029
300.029
300.03
300.03
300.031
300.032
300.033
300.034
300.035
300.037
300.038
300.04
300.041
300.043
300.045
300.046
300.028
300.028
300.028
300.028
300.029
300.029
300.03
300.031
300.031
300.032
300.033
300.034
300.036
300.037
300.038
300.04
300.042
300.043
300.045