/*--------------------------------*- C++ -*----------------------------------*\
| =========                 |                                                 |
| \\      /  F ield         | OpenFOAM: The Open Source CFD Toolbox           |
|  \\    /   O peration     | Version:  2212                                  |
|   \\  /    A nd           | Website:  www.openfoam.com                      |
|    \\/     M anipulation  |                                                 |
\*---------------------------------------------------------------------------*/
FoamFile
{
    version     2.0;
    format      ascii;
    arch        "LSB;label=32;scalar=64";
    class       volScalarField;
    location    "./ITHACAoutput/true/7.2";
    object      error;
}
// * * * * * * * * * * * * * * * * * * * * * * * * * * * * * * * * * * * * * //

dimensions      [0 0 0 1 0 0 0];

internalField   nonuniform List<scalar> 
3200
(
0.616109
2.71839
4.39691
5.56485
6.24608
6.42403
6.3787
6.27868
6.1024
5.9529
5.7765
5.65059
5.72531
5.72779
5.82805
5.71425
5.22195
4.29265
2.63101
0.673484
0.706333
2.34381
3.86228
4.91752
5.36044
5.60615
5.61212
5.51266
5.4
5.19546
5.07282
5.06227
5.03555
5.04765
5.14064
5.00545
4.7221
3.93369
2.40578
0.903574
0.628323
2.05625
3.35947
4.15069
4.6405
4.75651
4.82883
4.67717
4.55832
4.39322
4.353
4.39487
4.29925
4.41146
4.42294
4.35154
4.05863
3.32977
2.12393
0.980289
0.644853
1.78516
2.75571
3.45552
3.84316
3.94074
3.90441
3.85836
3.77602
3.66525
3.63143
3.51081
3.50425
3.63922
3.56119
3.6411
3.29622
2.8582
1.82915
0.840375
0.565264
1.35897
2.17612
2.70472
2.99434
3.00008
3.17141
3.12325
2.87982
2.79805
2.7801
2.80399
2.79351
2.85277
2.92056
2.88044
2.61005
2.22738
1.53724
0.778042
0.39555
0.946587
1.54444
1.92882
2.14305
2.1757
2.22842
2.18867
2.10094
2.00127
1.96608
2.02845
1.97562
2.02029
2.05763
2.10672
1.9915
1.60845
1.12118
0.571714
0.190137
0.637217
0.942376
1.21824
1.34104
1.30947
1.23464
1.26143
1.33234
1.1812
1.21985
1.22722
1.15002
1.25548
1.21321
1.2116
1.12046
0.966071
0.640473
0.254495
0.119699
0.163804
0.366625
0.380137
0.390055
0.517083
0.478212
0.504519
0.429211
0.398858
0.345721
0.359041
0.402673
0.452189
0.360187
0.400914
0.377113
0.2571
0.200928
0.0845723
0.428726
2.51821
4.26673
5.4137
5.92547
5.99349
6.03077
5.73882
5.56538
5.31031
5.23256
5.16829
5.1658
5.26232
5.35864
5.32773
4.97697
4.04802
2.5305
0.650288
0.597523
2.25331
3.79281
4.67634
5.17745
5.43324
5.28797
5.17718
4.83883
4.74033
4.59228
4.53995
4.50868
4.7082
4.8147
4.79456
4.43945
3.6282
2.36552
0.784794
0.561342
1.98946
3.25541
4.06997
4.4569
4.5722
4.52363
4.43362
4.19529
4.00079
3.9054
3.889
3.85422
4.03295
4.18759
4.15639
3.82864
3.17086
2.08914
0.828717
0.552808
1.66013
2.67264
3.35928
3.68683
3.75282
3.67309
3.56386
3.50831
3.37065
3.22916
3.18229
3.31658
3.25889
3.44724
3.46121
3.22022
2.71185
1.76515
0.770254
0.460263
1.27442
2.08195
2.55733
2.94253
2.96194
2.94694
2.89624
2.72682
2.59321
2.53613
2.5362
2.51518
2.60747
2.74285
2.70621
2.5542
2.06676
1.38458
0.678706
0.30777
0.916207
1.55697
1.8675
2.02742
2.21709
2.04177
2.04504
1.94001
1.86665
1.86614
1.86589
1.76796
1.8708
1.94747
1.98147
1.80677
1.50853
0.996419
0.483202
0.216412
0.539788
0.866019
1.1231
1.24066
1.31662
1.2053
1.22995
1.1373
1.13835
1.07345
1.04998
1.12852
1.07162
1.19863
1.19478
1.09237
0.915439
0.675634
0.292073
0.0386824
0.158839
0.2716
0.406226
0.372715
0.390971
0.436146
0.398526
0.404971
0.41363
0.339154
0.373876
0.409093
0.45324
0.389056
0.374766
0.433659
0.26299
0.243182
0.0559838
0.243568
2.27024
3.96218
4.97036
5.43892
5.61397
5.3749
5.14029
4.79573
4.56533
4.39388
4.31319
4.42957
4.5939
4.74731
4.81887
4.48338
3.67273
2.19095
0.342451
0.407733
2.03094
3.4833
4.40217
4.8241
4.80578
4.71934
4.40153
4.29118
4.05499
3.84945
3.85771
3.94456
4.06757
4.15587
4.35662
4.0525
3.30331
2.10469
0.579068
0.435996
1.82918
3.0203
3.74527
4.12907
4.19034
4.07627
3.91175
3.67995
3.49367
3.24431
3.35461
3.30064
3.43892
3.6591
3.71328
3.49916
2.91391
1.86804
0.586575
0.371772
1.48067
2.56855
3.17671
3.46142
3.4044
3.38673
3.15266
3.0546
2.8453
2.72987
2.70555
2.77839
3.00337
2.99118
3.08903
2.95012
2.46771
1.51433
0.57778
0.319303
1.19314
1.95984
2.42959
2.6118
2.66372
2.60638
2.48837
2.34013
2.23012
2.14035
2.08694
2.20454
2.31471
2.44153
2.3632
2.37205
1.97481
1.24077
0.534747
0.27054
0.868302
1.36282
1.77152
1.8832
1.9683
1.93619
1.8116
1.66283
1.65776
1.54921
1.51191
1.55584
1.58312
1.62511
1.74648
1.66318
1.41847
0.997754
0.432077
0.197835
0.553085
0.827545
1.05077
1.15466
1.21136
1.0947
1.10094
1.03916
0.968551
0.891948
0.873377
0.96317
1.04003
0.989621
1.07437
1.02079
0.882291
0.559031
0.298863
0.0236425
0.258731
0.326651
0.368399
0.430064
0.389272
0.292896
0.458755
0.319222
0.355963
0.336143
0.274115
0.283232
0.356069
0.403551
0.377923
0.295477
0.372518
0.237471
0.109942
-0.191649
1.82451
3.50173
4.51479
4.91799
4.89762
4.72379
4.25318
3.88355
3.62995
3.33425
3.28805
3.49961
3.78266
3.99159
4.19951
3.99935
3.12025
1.77395
-0.0485038
0.0837722
1.64173
3.12643
3.8687
4.32258
4.30988
4.16332
3.79095
3.49455
3.1561
2.98603
2.90653
3.05191
3.3171
3.61521
3.67938
3.57967
2.88795
1.80609
0.164333
0.158852
1.43854
2.66674
3.37941
3.72501
3.79546
3.50841
3.25773
3.00318
2.7069
2.59608
2.53661
2.72434
2.91498
3.11115
3.25543
3.02795
2.49471
1.61705
0.330002
0.235913
1.25907
2.21298
2.74906
3.09128
3.13603
2.94875
2.75466
2.45821
2.27236
2.18863
2.1121
2.24772
2.46091
2.66642
2.62286
2.5094
2.07842
1.33585
0.339624
0.195193
0.994011
1.82676
2.14027
2.38405
2.34123
2.28935
2.13844
1.86525
1.77859
1.75681
1.63731
1.73331
1.88973
2.02056
2.0902
2.0268
1.64033
1.05988
0.369555
0.197286
0.682398
1.12485
1.53268
1.7243
1.87475
1.69793
1.60024
1.51289
1.29943
1.21933
1.17213
1.20617
1.39463
1.51598
1.50598
1.46593
1.22244
0.738419
0.264783
0.115339
0.475321
0.796152
0.89885
1.06089
1.03642
1.02177
0.92327
0.882902
0.75843
0.747461
0.687028
0.83149
0.827648
0.921207
0.931084
0.848009
0.749272
0.525007
0.176407
-0.0125037
0.155253
0.273098
0.288521
0.322629
0.362706
0.368211
0.269096
0.282194
0.260924
0.306329
0.275274
0.18085
0.24994
0.257327
0.33871
0.294259
0.253123
0.125416
0.0355247
-0.493849
1.33378
2.90771
3.84822
4.12896
4.20246
3.95946
3.4756
2.95377
2.50957
2.22814
2.19404
2.46765
2.79367
3.19717
3.4144
3.16992
2.51267
1.11709
-0.528512
-0.300787
1.23401
2.54309
3.43462
3.80964
3.74629
3.47625
3.05962
2.64369
2.31228
2.06419
2.00235
2.2721
2.48761
2.84227
3.07517
2.9313
2.29229
1.17963
-0.182555
-0.129678
1.16748
2.2272
2.96596
3.20056
3.17799
2.98002
2.68792
2.35033
1.99332
1.82537
1.75229
1.98504
2.25963
2.46471
2.65584
2.47875
1.98152
1.12081
0.00496463
-0.0865641
0.953014
1.81785
2.52165
2.65535
2.6204
2.50249
2.26587
1.96756
1.68292
1.57137
1.50638
1.67973
1.80238
2.09825
2.32957
2.16112
1.71565
0.909833
0.0979201
-0.0311305
0.722832
1.4432
1.90454
2.00454
2.06757
1.91456
1.72582
1.60639
1.36043
1.20608
1.16377
1.24593
1.46158
1.58389
1.69654
1.73165
1.42564
0.787468
0.15513
0.0838004
0.533858
1.08417
1.33684
1.47682
1.46774
1.34783
1.26714
1.09096
0.921436
0.842008
0.900486
0.952517
1.05108
1.22665
1.28594
1.21001
1.04431
0.513238
0.107299
0.00347279
0.328226
0.646192
0.909943
0.962928
0.916632
0.816318
0.77832
0.664408
0.592797
0.613614
0.568202
0.572854
0.615315
0.779732
0.787552
0.790905
0.614455
0.405939
0.043456
0.0145884
0.0644895
0.154982
0.318579
0.280671
0.399944
0.297568
0.221349
0.233412
0.204294
0.195308
0.188205
0.131392
0.219265
0.240071
0.217048
0.278029
0.168546
0.191133
0.0431785
-1.08977
0.649741
2.25461
3.12116
3.46907
3.44205
3.12832
2.58767
1.99333
1.50269
1.19611
1.18618
1.37828
1.80047
2.2873
2.6004
2.47845
1.80369
0.559869
-1.0457
-0.75637
0.732686
2.01719
2.73346
3.10643
3.07696
2.67562
2.32616
1.79246
1.43985
1.05918
1.04774
1.39411
1.72884
2.14908
2.4305
2.24905
1.71797
0.626779
-0.661109
-0.562034
0.68141
1.72523
2.38408
2.65703
2.64425
2.4383
2.06339
1.629
1.17328
1.02421
0.990869
1.20117
1.5592
1.79742
2.02488
2.03811
1.54919
0.623453
-0.431212
-0.28512
0.632716
1.47533
2.00384
2.21577
2.22111
1.98324
1.7232
1.37838
1.03723
0.868276
0.921465
1.0407
1.36831
1.61016
1.74021
1.6599
1.2977
0.648502
-0.187077
-0.289928
0.485023
1.1729
1.60326
1.75985
1.71997
1.62476
1.30864
0.991384
0.863545
0.71628
0.73747
0.870249
0.969409
1.20983
1.37728
1.27199
1.05931
0.541851
-0.152612
-0.156304
0.356193
0.792571
1.26322
1.24592
1.24272
1.07736
0.938985
0.765984
0.679378
0.520374
0.547482
0.567206
0.801048
0.892683
0.950394
0.947383
0.801009
0.400254
-0.114579
-0.0259489
0.189554
0.503751
0.734525
0.769066
0.74189
0.668279
0.576297
0.382442
0.373617
0.302424
0.231813
0.332626
0.432049
0.560522
0.597595
0.570114
0.468591
0.246606
-0.023239
-0.0485757
0.0775662
0.110231
0.189637
0.238508
0.210983
0.198635
0.312768
0.123152
0.164139
0.0755355
0.114937
0.122241
0.106524
0.172772
0.181638
0.214844
0.203429
0.218956
-0.0986263
-1.64359
0.0737973
1.52377
2.46179
2.7889
2.7076
2.35259
1.78231
1.08674
0.565176
0.273909
0.12306
0.487589
0.983413
1.42963
1.76488
1.63226
1.0406
-0.136306
-1.60758
-1.17062
0.131811
1.43576
2.2125
2.56402
2.4388
2.12501
1.61304
1.06681
0.653407
0.246065
0.213246
0.557861
0.907016
1.38024
1.64303
1.52401
1.03344
0.073334
-1.18361
-0.894217
0.17051
1.21828
1.94644
2.16879
2.1323
1.81742
1.46641
0.952834
0.570405
0.337977
0.282129
0.489095
0.846734
1.25796
1.4852
1.42209
0.952264
0.12811
-0.794751
-0.689406
0.311713
1.14814
1.65513
1.8632
1.75887
1.56403
1.20217
0.807617
0.451449
0.305554
0.268454
0.518744
0.739159
1.03332
1.20428
1.21226
0.831858
0.1496
-0.587065
-0.572181
0.165598
0.900114
1.29132
1.43968
1.3637
1.1944
0.964137
0.671135
0.401725
0.349376
0.256033
0.456808
0.604492
0.901507
0.972225
1.0229
0.657799
0.189604
-0.495379
-0.339951
0.167593
0.68078
0.943697
1.12201
0.987362
0.885602
0.662972
0.388688
0.29303
0.197555
0.221149
0.231409
0.431144
0.543111
0.798005
0.707453
0.514818
0.127798
-0.268474
-0.114445
0.0712005
0.325344
0.582911
0.639429
0.625746
0.542407
0.463276
0.320362
0.187638
0.0807712
0.147059
0.195261
0.336847
0.356069
0.486925
0.36053
0.304546
0.176213
-0.108389
-0.0754332
0.057256
0.134582
0.215305
0.127592
0.24963
0.192329
0.083712
0.145217
0.0913375
0.00553753
-0.00952907
0.0691423
0.0680071
0.123772
0.10482
0.0362087
0.103483
0.0422133
-0.027704
-1.94469
-0.508227
0.913068
1.8198
2.20705
2.04714
1.64076
0.979121
0.340185
-0.270852
-0.557028
-0.624299
-0.365301
0.173715
0.720947
0.996958
1.01614
0.421942
-0.727149
-2.15581
-1.61889
-0.282604
0.897509
1.63859
1.87499
1.82002
1.56351
1.01746
0.381743
-0.129692
-0.467627
-0.482976
-0.183691
0.216439
0.665971
1.00941
1.00023
0.412881
-0.482117
-1.54993
-1.24734
-0.13303
0.85911
1.43639
1.69979
1.58169
1.31785
0.856229
0.404434
-0.0530428
-0.286625
-0.414929
-0.0767817
0.280054
0.644614
0.834047
0.866136
0.496789
-0.263946
-1.22008
-0.941358
-0.117417
0.677163
1.26798
1.42654
1.36217
1.09533
0.733348
0.325749
0.00149432
-0.235832
-0.222925
-0.0130532
0.280688
0.613017
0.805274
0.770511
0.363722
-0.204272
-0.90671
-0.727851
-0.0331522
0.526259
0.921721
1.1239
1.10492
0.881014
0.626334
0.306539
0.0541152
-0.142502
-0.125517
0.0258047
0.281238
0.527861
0.660064
0.644179
0.43567
-0.00739914
-0.663447
-0.506778
-0.0304506
0.463146
0.753744
0.805422
0.773531
0.599298
0.513083
0.27033
0.101354
-0.070922
-0.0811362
0.00635731
0.206698
0.329564
0.453933
0.511478
0.296686
-0.0647521
-0.445187
-0.261774
0.0184374
0.288728
0.438145
0.556303
0.551933
0.391515
0.207187
0.0882125
0.0833163
-0.0611704
-0.0441902
-0.0454968
0.0913775
0.203352
0.281724
0.267156
0.186596
-0.0446284
-0.276921
-0.0174213
-0.0461735
0.0986551
0.0923696
0.163013
0.166925
0.0967649
0.151685
0.0765283
0.0164384
-0.00552041
0.0691709
-0.0247949
0.0719553
0.0508809
0.104927
0.0577359
0.0730888
-0.0101844
-0.0436103
-2.55091
-1.00297
0.400267
1.20924
1.596
1.43591
1.02238
0.476771
-0.302063
-0.94431
-1.30203
-1.28095
-0.945733
-0.444578
0.113138
0.426391
0.276835
-0.201535
-1.29679
-2.58492
-2.04148
-0.761917
0.419461
1.17654
1.50156
1.30922
1.03747
0.462182
-0.15895
-0.713017
-1.01548
-1.0369
-0.76066
-0.200206
0.231804
0.449437
0.426895
-0.020726
-0.898814
-2.04303
-1.56074
-0.562788
0.432714
1.0239
1.22697
1.27473
0.859553
0.436377
-0.136342
-0.398572
-0.849641
-0.846329
-0.523441
-0.177257
0.280224
0.461029
0.442232
0.0648269
-0.620593
-1.48864
-1.28478
-0.398979
0.421736
0.899871
1.15287
0.971946
0.768099
0.362083
0.0336802
-0.443635
-0.614569
-0.622846
-0.389507
-0.0439619
0.20674
0.45146
0.355397
0.021871
-0.53486
-1.14373
-0.851687
-0.298513
0.377875
0.707221
0.81265
0.876689
0.698137
0.28708
-0.0134437
-0.207751
-0.384944
-0.454203
-0.295635
-0.0643979
0.131797
0.379748
0.371561
0.177273
-0.328071
-0.855281
-0.635522
-0.13103
0.23335
0.515222
0.702437
0.60396
0.48291
0.288957
0.00435157
-0.107058
-0.244438
-0.405329
-0.189332
0.0270602
0.156459
0.263298
0.27151
0.118287
-0.192991
-0.573985
-0.306026
-0.164191
0.176848
0.26899
0.388823
0.347381
0.339703
0.101036
0.0956871
-0.0430005
-0.117844
-0.0986944
-0.169599
-0.0697275
0.0468066
0.170955
0.164572
0.111636
-0.0887278
-0.282621
-0.0875695
-0.00489675
0.0917397
0.128459
0.181576
0.145722
0.109909
0.103032
0.019969
-0.048201
-0.150628
-0.0512263
-0.0541714
0.010051
-0.0543852
0.0415056
0.0154213
-0.0475253
-0.0863637
-0.105286
-2.83279
-1.34381
3.13028e-05
0.665956
1.08824
1.04191
0.702014
0.0522834
-0.744549
-1.30532
-1.71025
-1.83703
-1.41691
-0.827023
-0.383388
-0.0523795
-0.107718
-0.697257
-1.6605
-2.79756
-2.2022
-1.08713
0.0368838
0.749246
1.02309
0.91913
0.66513
0.14789
-0.560903
-1.15163
-1.35964
-1.38384
-1.13857
-0.662963
-0.233246
0.0259098
0.0746032
-0.412347
-1.29155
-2.24931
-1.69956
-0.860101
0.0673257
0.704889
0.9683
0.76665
0.551636
0.15269
-0.458477
-0.802943
-1.1533
-1.15349
-0.861604
-0.384481
-0.101151
0.235149
0.0935565
-0.367677
-0.925668
-1.77638
-1.39299
-0.623188
0.119622
0.59158
0.864247
0.758175
0.493114
0.0875004
-0.295095
-0.646172
-0.862786
-0.88456
-0.624825
-0.282685
-0.0300394
0.172007
0.0816445
-0.133463
-0.708952
-1.30317
-1.00028
-0.372364
0.161378
0.552582
0.620205
0.550955
0.464215
0.168546
-0.119466
-0.460131
-0.642133
-0.661668
-0.40407
-0.262972
0.0260791
0.213311
0.174348
0.033843
-0.490946
-1.04058
-0.659688
-0.295819
0.0540174
0.335535
0.469713
0.568541
0.281192
0.142691
-0.10088
-0.262275
-0.444636
-0.427888
-0.286849
-0.12435
0.0248943
0.139357
0.229102
0.0118701
-0.375109
-0.69637
-0.285799
-0.206012
0.121478
0.285005
0.316278
0.36315
0.240093
0.0733755
-0.0879442
-0.18995
-0.229583
-0.365108
-0.199337
-0.0495631
0.0731753
0.0553291
0.0746629
0.0178497
-0.216502
-0.400208
-0.118669
-0.100924
0.0146263
0.033356
0.0876905
0.181037
0.0481053
-0.0383674
-0.02256
-0.0143233
-0.10981
-0.0765071
-0.0601115
-0.0410307
-0.000422176
-0.0515883
0.0217155
-0.0352653
-0.110047
-0.108108
-2.96682
-1.59037
-0.394404
0.497026
0.797438
0.763149
0.356665
-0.195092
-0.918773
-1.47664
-1.89095
-1.872
-1.56519
-1.03043
-0.579969
-0.318464
-0.406664
-0.852148
-1.76317
-2.97851
-2.40924
-1.27901
-0.233407
0.488333
0.83742
0.747003
0.438515
-0.0675037
-0.727409
-1.29399
-1.52937
-1.58429
-1.21957
-0.730237
-0.381384
-0.167973
-0.187257
-0.563007
-1.38538
-2.3496
-1.87102
-0.936964
-0.108665
0.537094
0.749498
0.672135
0.452745
0.0593691
-0.517767
-0.949656
-1.21827
-1.12562
-0.995018
-0.607243
-0.310604
-0.0554518
-0.0905796
-0.424403
-1.14368
-1.82459
-1.48968
-0.805562
-0.0593292
0.458068
0.594815
0.666253
0.43546
0.0207543
-0.359113
-0.63217
-0.91211
-0.92157
-0.782852
-0.399087
-0.141602
-0.0173056
-0.0407534
-0.297885
-0.79036
-1.41418
-1.0597
-0.560854
0.00761005
0.433106
0.526187
0.539957
0.338644
0.105306
-0.270673
-0.548349
-0.678989
-0.716551
-0.524886
-0.329181
-0.0929195
0.0575674
0.0458582
-0.15221
-0.597559
-1.00835
-0.753318
-0.370588
-0.0210162
0.236098
0.438442
0.345054
0.252098
0.0925326
-0.211405
-0.3701
-0.455409
-0.459924
-0.388623
-0.221158
-0.0644285
0.0441846
0.0900517
-0.058172
-0.38843
-0.698181
-0.420834
-0.204585
-0.0236299
0.200164
0.228721
0.236122
0.238353
0.116331
-0.116648
-0.172739
-0.269415
-0.263307
-0.209661
-0.130261
-0.0292071
0.0623176
0.0405644
0.0189347
-0.134426
-0.436212
-0.206581
-0.0121987
-0.0185938
0.0814132
0.0970099
0.049021
0.122119
0.0468041
0.0225496
-0.0376337
-0.0915179
-0.094169
-0.100174
-0.0508854
-0.0669741
0.030774
-0.026805
0.110262
-0.0754667
-0.121633
-3.01009
-1.72346
-0.565753
0.346004
0.747756
0.642736
0.29273
-0.1228
-0.862694
-1.4208
-1.80394
-1.76433
-1.45409
-1.02973
-0.621684
-0.316722
-0.419998
-0.884129
-1.82899
-2.99352
-2.409
-1.3347
-0.215813
0.348588
0.710583
0.662823
0.447656
-0.0681888
-0.547107
-1.08421
-1.35566
-1.38164
-1.10275
-0.770822
-0.365641
-0.126984
-0.348206
-0.619079
-1.43897
-2.34489
-1.94306
-1.0589
-0.184829
0.425608
0.563912
0.644973
0.417484
0.00498953
-0.426989
-0.927986
-1.14188
-1.09744
-0.851446
-0.618909
-0.208872
-0.0920038
-0.0481222
-0.470056
-1.06074
-1.90577
-1.51894
-0.758939
-0.115999
0.427025
0.552279
0.542983
0.359884
0.0691218
-0.30605
-0.751577
-0.903243
-0.912324
-0.694057
-0.406349
-0.135987
-0.0163106
-0.0954239
-0.300259
-0.817896
-1.47277
-1.13048
-0.599067
-0.0952655
0.341692
0.496359
0.374614
0.322859
0.0834111
-0.2598
-0.437597
-0.580782
-0.633927
-0.567348
-0.288446
-0.0629781
-0.0142744
0.0694717
-0.143705
-0.609405
-1.10706
-0.797186
-0.390538
0.0270146
0.261903
0.406179
0.337932
0.199379
0.083337
-0.17926
-0.353972
-0.38127
-0.389188
-0.273039
-0.210649
-0.0191024
0.00887649
0.0382024
-0.107918
-0.427873
-0.698828
-0.440522
-0.142283
0.0221221
0.103627
0.205367
0.285491
0.150285
0.0154512
-0.0978662
-0.130372
-0.244776
-0.283465
-0.195591
-0.0624333
-0.0267494
0.0387082
-0.0127317
-0.0730658
-0.202074
-0.442521
-0.12017
-0.0321028
0.0876229
0.00356346
0.0209119
0.0872283
0.0706709
0.0165887
-0.058913
-0.0162532
-0.101794
-0.0767837
-0.00979289
0.0151522
0.0456003
0.0575996
-0.0539027
-0.0522789
-0.141297
-0.164471
-2.86509
-1.5654
-0.418465
0.365544
0.734375
0.805698
0.53451
0.0331053
-0.525893
-1.00554
-1.29036
-1.31881
-1.11972
-0.753787
-0.313083
-0.174895
-0.23857
-0.758514
-1.66983
-2.82236
-2.34934
-1.21459
-0.291481
0.373087
0.821984
0.804743
0.568153
0.141409
-0.313136
-0.75718
-0.965532
-1.01404
-0.837539
-0.474031
-0.187757
-0.013612
-0.136097
-0.558492
-1.30729
-2.19072
-1.80183
-0.967171
-0.181077
0.488517
0.688304
0.717199
0.532231
0.178945
-0.26571
-0.653418
-0.811149
-0.835985
-0.676693
-0.282452
-0.100258
0.0892954
0.0203179
-0.323915
-0.966058
-1.66129
-1.44072
-0.65793
-0.0617887
0.446576
0.6064
0.624384
0.468011
0.261875
-0.0755704
-0.398735
-0.629566
-0.579679
-0.482046
-0.177026
-0.0278282
0.132026
0.133841
-0.183643
-0.724585
-1.29129
-1.05862
-0.523584
-0.0412687
0.303649
0.499265
0.54269
0.372613
0.156948
-0.0672922
-0.369509
-0.403497
-0.504271
-0.374654
-0.179069
0.0742152
0.118014
0.0460228
-0.176356
-0.489289
-0.96206
-0.661817
-0.337085
0.000252484
0.255369
0.407202
0.356222
0.337297
0.140252
-0.0473664
-0.295241
-0.257243
-0.294868
-0.249982
-0.0207878
0.0318151
0.165766
0.0614554
-0.0808005
-0.319152
-0.649893
-0.367863
-0.179429
0.0260467
0.187822
0.213192
0.227655
0.184443
0.0949476
-0.0601034
-0.106559
-0.223822
-0.139246
-0.110684
-0.00816748
0.0498329
0.0801339
0.0400799
-0.0469893
-0.241108
-0.389448
-0.11445
-0.0238726
0.035188
0.102933
0.0373062
0.124641
0.145613
0.00616188
-0.0448841
0.0244037
-0.0704505
-0.0671794
-0.0999828
0.0111256
-0.0274593
0.0454209
0.0564841
0.0303998
-0.0519608
-0.101788
-2.63429
-1.30031
-0.147263
0.653259
1.05739
1.06929
0.958184
0.556889
0.0611312
-0.479433
-0.658147
-0.756988
-0.548868
-0.160032
0.120754
0.22448
0.0657821
-0.437583
-1.3013
-2.3215
-2.01123
-1.0361
0.00966708
0.672946
0.988668
1.11243
0.887454
0.59097
0.197186
-0.269741
-0.431616
-0.519697
-0.292529
-0.049605
0.139525
0.267967
0.201856
-0.173831
-0.90689
-1.8652
-1.60047
-0.727791
0.0580156
0.634034
0.8204
0.966996
0.907151
0.565125
0.213667
-0.152408
-0.29627
-0.363323
-0.129924
0.0015376
0.258596
0.348599
0.347885
-0.00264227
-0.736177
-1.40537
-1.18237
-0.583468
0.143372
0.625392
0.805654
0.847732
0.760023
0.504911
0.15768
-0.0250807
-0.189539
-0.177412
-0.0687328
0.0566711
0.280226
0.373903
0.291437
0.00744191
-0.493799
-1.04996
-0.927667
-0.469653
0.121161
0.473301
0.645278
0.677099
0.63455
0.425049
0.248797
0.0454986
-0.201702
-0.157421
-0.055806
0.110228
0.300772
0.260588
0.29745
0.0444063
-0.346277
-0.750236
-0.601497
-0.282528
0.163621
0.304445
0.508452
0.492427
0.444963
0.239634
0.10291
-0.0155858
-0.0815597
-0.0900785
0.00830183
0.0633942
0.164775
0.156175
0.151205
0.0759283
-0.25199
-0.443467
-0.334449
-0.163122
0.0292583
0.292658
0.23243
0.342464
0.280585
0.186721
0.126111
0.0106549
0.003027
-0.0483667
-0.0892368
0.0187239
0.0736063
0.176115
0.133684
0.0563708
-0.177769
-0.252724
-0.0937491
-0.0512508
-0.00842321
0.0852475
0.120337
0.0719169
0.11435
0.0187441
0.0293058
0.0225397
-0.0676135
0.0274914
0.0112831
0.0202117
0.0385208
0.0452554
-0.00482109
0.000383978
-0.056935
-0.0974847
-2.03116
-0.779032
0.276323
1.12475
1.48559
1.58251
1.51568
1.15332
0.831125
0.464205
0.247066
0.190669
0.370089
0.602765
0.750552
0.872917
0.757465
0.131917
-0.710784
-1.77031
-1.57127
-0.578032
0.395691
1.11235
1.42298
1.54209
1.38345
1.10177
0.819486
0.45575
0.293391
0.227418
0.373794
0.588638
0.846891
0.905019
0.784142
0.23528
-0.463398
-1.43715
-1.23098
-0.395605
0.429926
0.985979
1.29941
1.38835
1.27283
1.01075
0.864477
0.553441
0.325975
0.30552
0.447158
0.646149
0.782254
0.850966
0.769152
0.346451
-0.36425
-0.939488
-0.898036
-0.259386
0.39226
0.853795
1.08208
1.16564
1.04558
0.958225
0.631297
0.491241
0.337868
0.320529
0.376158
0.48289
0.704826
0.744544
0.637272
0.296859
-0.21504
-0.760103
-0.602398
-0.148917
0.401131
0.6956
0.971859
0.94838
0.880445
0.663891
0.565513
0.418846
0.310788
0.34194
0.392326
0.450431
0.452944
0.655495
0.559163
0.261031
-0.142261
-0.538892
-0.360195
-0.0813131
0.262797
0.495883
0.611853
0.647354
0.648354
0.540406
0.443045
0.291186
0.201956
0.157867
0.223494
0.431046
0.399349
0.422219
0.421444
0.189881
-0.016708
-0.294604
-0.273071
0.0069064
0.176583
0.320555
0.387162
0.47125
0.421369
0.240372
0.24135
0.225806
0.108689
0.0969508
0.161257
0.218991
0.254203
0.233366
0.238133
0.105536
0.00644358
-0.146283
-0.142715
0.0218286
0.0974512
0.118988
0.176384
0.139506
0.0715749
0.0840147
0.198447
0.0612697
0.0914326
0.0161423
0.0724179
0.080451
0.172548
0.173251
0.0827073
0.0765554
0.0483359
-0.0280095
-1.36521
-0.148494
1.01877
1.72185
2.14865
2.42075
2.3559
2.12904
1.77021
1.4786
1.32542
1.34537
1.33643
1.56172
1.71998
1.75531
1.52956
0.8979
-0.0166355
-1.10805
-0.976785
0.0468836
0.948405
1.63508
2.03477
2.23052
2.16282
1.89402
1.63495
1.38758
1.22467
1.24866
1.37405
1.47942
1.63691
1.65269
1.42332
0.999845
0.240711
-0.675749
-0.666597
0.120797
0.88255
1.44613
1.85058
1.90299
1.91652
1.72131
1.34685
1.24443
1.07531
1.06685
1.23605
1.32006
1.42371
1.53303
1.26257
0.866409
0.337535
-0.452251
-0.523396
0.172141
0.764173
1.31543
1.55525
1.63684
1.5282
1.49395
1.25703
1.11996
0.978804
1.025
1.00014
1.10732
1.24913
1.27207
1.15318
0.803508
0.298012
-0.25137
-0.330377
0.226721
0.673339
1.00619
1.22496
1.34817
1.30714
1.15899
1.04555
0.911272
0.825528
0.724605
0.828801
0.980859
1.0354
0.97236
0.879599
0.699561
0.297219
-0.181609
-0.137499
0.2232
0.47002
0.733953
0.948184
1.06433
0.87348
0.846925
0.674636
0.714969
0.619379
0.64782
0.634643
0.647833
0.719201
0.653582
0.566628
0.476816
0.230026
-0.0393001
-0.148111
0.120499
0.291999
0.48653
0.466996
0.526575
0.560389
0.574232
0.440778
0.414662
0.350239
0.394326
0.318115
0.407949
0.385574
0.420759
0.455492
0.305234
0.196158
0.00400292
-0.124102
0.0423114
0.0795878
0.226338
0.25807
0.243834
0.179049
0.166699
0.101938
0.126188
0.209214
0.119707
0.150709
0.155086
0.169707
0.147132
0.134964
0.113924
0.0868216
0.0505579
-0.459265
0.683219
1.79429
2.56807
3.05632
3.38981
3.20617
3.17849
2.97739
2.69815
2.49384
2.49111
2.5406
2.76732
2.75977
2.71672
2.42988
1.8091
0.998741
0.0291529
-0.19988
0.713815
1.63548
2.36928
2.85838
3.01768
2.90722
2.82827
2.67876
2.35781
2.34442
2.32375
2.33491
2.50465
2.57485
2.53372
2.29116
1.74625
0.999858
0.176827
-0.0881949
0.720641
1.5606
2.06105
2.45087
2.54873
2.55999
2.48679
2.35294
2.14224
2.0402
2.10914
2.05066
2.18486
2.21215
2.27386
2.04051
1.4636
1.0116
0.211072
-0.0199046
0.681654
1.28597
1.74106
2.1174
2.14671
2.16508
2.0515
1.94731
1.76426
1.75156
1.78731
1.74489
1.88796
1.89874
1.8634
1.68015
1.37585
0.814949
0.335537
-0.0144996
0.555678
1.07484
1.47308
1.57657
1.72312
1.70977
1.64432
1.58893
1.47732
1.3432
1.35858
1.48849
1.44149
1.46251
1.44701
1.38841
1.12018
0.719109
0.292281
0.0912235
0.415852
0.759283
1.01261
1.18639
1.22017
1.26734
1.2091
1.12488
1.01211
0.98485
0.928885
1.02119
1.08447
1.02745
1.02034
1.01859
0.803619
0.507838
0.197261
0.0891815
0.352768
0.458413
0.617857
0.722851
0.713094
0.764105
0.754896
0.720466
0.658449
0.630452
0.550564
0.586265
0.598893
0.611746
0.66483
0.541009
0.522578
0.332232
0.14737
0.107087
0.124556
0.163176
0.231505
0.316346
0.206225
0.320728
0.274304
0.260935
0.149495
0.185394
0.288164
0.161026
0.162189
0.210904
0.233316
0.251946
0.0620103
0.0513943
0.0215837
0.595812
1.62709
2.7266
3.59339
4.13302
4.41367
4.47611
4.35321
4.24321
3.99106
3.94512
3.86581
3.93505
3.99182
4.08523
3.90539
3.51457
2.96624
2.03624
1.03263
0.671466
1.58629
2.52615
3.18684
3.61104
3.88015
4.03597
3.82693
3.77705
3.59384
3.55537
3.4789
3.50923
3.51242
3.59912
3.5858
3.23177
2.69738
1.94163
1.12279
0.746095
1.46258
2.25831
2.80635
3.11688
3.34929
3.50281
3.32943
3.32544
3.17056
3.00115
2.98806
3.06485
3.16875
3.1345
3.05874
2.73936
2.33591
1.73021
0.991745
0.560168
1.20942
1.85713
2.35547
2.65749
2.7303
2.84181
2.83357
2.76834
2.58123
2.55933
2.47363
2.56462
2.46336
2.59262
2.55647
2.40219
2.09329
1.41388
0.964337
0.571406
1.00146
1.5696
1.87914
2.08589
2.2346
2.22691
2.19708
2.07653
1.95649
1.9499
1.95116
2.02076
2.08454
2.04601
1.99803
1.93314
1.68941
1.18926
0.766154
0.390824
0.76341
1.09443
1.30207
1.5069
1.59358
1.63086
1.57543
1.49542
1.51186
1.43598
1.40535
1.45432
1.41502
1.47832
1.41112
1.29585
1.10461
0.892313
0.629446
0.296725
0.418808
0.656258
0.821047
0.891839
1.04585
0.97594
0.959533
0.940012
0.855263
0.843555
0.822499
0.807507
0.911515
1.00061
0.818421
0.892879
0.70685
0.586418
0.339277
0.0756672
0.12684
0.244626
0.298191
0.262054
0.286026
0.400185
0.343765
0.321589
0.259673
0.299916
0.355894
0.357627
0.305766
0.3601
0.325346
0.274249
0.228618
0.10439
0.164598
1.62128
2.78163
3.76306
4.74086
5.11559
5.40177
5.68665
5.62967
5.53077
5.3084
5.30077
5.22979
5.31602
5.3039
5.18325
5.02606
4.69791
4.10315
3.08687
2.14816
1.58246
2.44318
3.38228
4.14919
4.56515
4.89711
5.01535
4.87169
4.90158
4.79055
4.66891
4.59828
4.63386
4.67168
4.58761
4.50854
4.18923
3.5666
2.94361
2.06331
1.40591
2.21262
2.99045
3.55627
3.90778
4.16085
4.30934
4.18713
4.17565
4.00193
3.94387
3.94065
3.94816
3.9749
3.97284
3.83124
3.57378
3.1551
2.52883
1.87184
1.19991
1.88765
2.41713
2.96907
3.29311
3.49609
3.50006
3.47827
3.43031
3.3803
3.22634
3.3416
3.30719
3.43498
3.30495
3.18914
2.95447
2.6428
2.14977
1.57001
1.02495
1.48244
1.96886
2.26202
2.61811
2.72559
2.69921
2.81449
2.69392
2.68701
2.53505
2.6646
2.57325
2.69839
2.57495
2.51531
2.30662
2.05314
1.64236
1.25744
0.73553
1.02941
1.39145
1.61278
1.87637
2.02854
1.92571
2.04586
1.96675
1.91594
1.85319
1.86762
1.88157
1.83463
1.894
1.82454
1.76198
1.42362
1.18745
0.85247
0.486544
0.657073
0.911194
1.02721
1.09376
1.16671
1.25886
1.1954
1.11331
1.20791
1.08525
1.20075
1.10365
1.09041
1.07408
1.10539
1.06715
0.934364
0.75365
0.5252
0.210343
0.298132
0.306379
0.427979
0.340718
0.366527
0.413983
0.365734
0.402241
0.409999
0.32087
0.324498
0.4369
0.380501
0.425349
0.324378
0.364137
0.228714
0.201377
0.164298
2.52532
3.56873
4.71779
5.59602
6.11087
6.43243
6.57878
6.61521
6.47166
6.48582
6.46135
6.39279
6.42249
6.36358
6.2459
6.02221
5.67584
4.9895
4.04041
3.13007
2.21878
3.29364
4.09849
4.85935
5.33099
5.64663
5.78709
5.75254
5.68663
5.58745
5.60011
5.572
5.64118
5.56429
5.49961
5.29557
4.90371
4.44495
3.55503
2.77849
2.07092
2.77801
3.5618
4.21924
4.5757
4.79867
4.93737
4.83143
4.89517
4.82268
4.80505
4.68474
4.71594
4.71023
4.71133
4.49054
4.21818
3.83129
3.08427
2.44529
1.67648
2.25253
2.94935
3.46438
3.69442
3.93981
4.04899
3.989
3.96849
3.89408
3.91148
3.81994
3.78393
3.82511
3.83941
3.75295
3.45608
3.0818
2.58626
2.10895
1.37373
1.87718
2.34626
2.70931
2.91727
3.09736
3.12818
3.14967
3.1067
3.05565
3.01268
3.08146
3.00833
3.0585
2.97376
2.85559
2.67621
2.49869
2.02651
1.69882
0.92941
1.32952
1.60601
1.9093
2.09864
2.25017
2.21731
2.27666
2.14103
2.22203
2.05884
2.20563
2.10542
2.22073
2.11755
2.07072
1.96719
1.79518
1.4916
1.11379
0.613385
0.804911
0.997647
1.17776
1.16657
1.26425
1.33694
1.2826
1.39329
1.357
1.26249
1.33255
1.35113
1.30828
1.29415
1.25753
1.14241
1.11315
0.82377
0.737552
0.17154
0.305641
0.311372
0.36031
0.436233
0.474944
0.469341
0.491822
0.514669
0.490335
0.476775
0.439205
0.373809
0.390482
0.420974
0.399515
0.500069
0.362438
0.368677
0.211259
)
;

boundaryField
{
    hotSide
    {
        type            calculated;
        value           nonuniform List<scalar> 
400
(
1.89878
1.71458
1.53583
1.11029
0.821125
0.241701
-0.292054
-0.569382
-1.148
-1.39831
-1.49668
-1.50007
-1.31088
-1.03145
-0.375186
0.348475
1.31679
2.43893
3.5362
4.5168
4.03721
3.83993
3.59781
3.16094
2.6822
2.01341
1.45613
0.896347
0.427604
0.116678
-0.0958976
-0.190761
0.00987426
0.322016
0.89493
1.58176
2.4745
3.48418
4.70935
5.57194
5.75487
5.62724
5.32787
4.87531
4.29204
3.65272
2.9389
2.34867
1.86001
1.4878
1.12546
0.99046
1.17852
1.49504
1.96861
2.7658
3.60091
4.59769
5.70354
6.73263
6.96426
6.81527
6.37633
5.92752
5.27026
4.55531
3.91108
3.28757
2.69906
2.18169
2.04277
1.92605
1.9844
2.31557
2.83529
3.4855
4.38979
5.47819
6.69378
7.62214
7.6881
7.36921
6.88619
6.37075
5.58945
4.9398
4.27272
3.70715
3.1159
2.63178
2.36875
2.35122
2.37458
2.73912
3.21375
3.92825
4.89246
6.03084
7.08027
8.14759
7.90807
7.47876
7.10183