/*--------------------------------*- C++ -*----------------------------------*\
| =========                 |                                                 |
| \\      /  F ield         | OpenFOAM: The Open Source CFD Toolbox           |
|  \\    /   O peration     | Version:  2212                                  |
|   \\  /    A nd           | Website:  www.openfoam.com                      |
|    \\/     M anipulation  |                                                 |
\*---------------------------------------------------------------------------*/
FoamFile
{
    version     2.0;
    format      ascii;
    arch        "LSB;label=32;scalar=64";
    class       volScalarField;
    location    "./ITHACAoutput/true/7.2";
    object      trueState;
}
// * * * * * * * * * * * * * * * * * * * * * * * * * * * * * * * * * * * * * //

dimensions      [0 0 0 1 0 0 0];

internalField   nonuniform List<scalar> 
3200
(
349.849
350.458
351.236
352.083
352.956
353.812
354.603
355.27
355.757
356.014
356.014
355.757
355.27
354.603
353.812
352.956
352.083
351.236
350.458
349.849
343.245
343.761
344.431
345.164
345.919
346.66
347.344
347.921
348.341
348.562
348.562
348.341
347.921
347.344
346.66
345.919
345.164
344.431
343.761
343.245
336.624
337.052
337.617
338.236
338.874
339.5
340.078
340.564
340.919
341.106
341.106
340.919
340.564
340.078
339.5
338.874
338.236
337.617
337.052
336.624
329.989
330.333
330.794
331.3
331.822
332.333
332.805
333.202
333.491
333.644
333.644
333.491
333.202
332.805
332.333
331.822
331.3
330.794
330.333
329.989
323.343
323.607
323.964
324.358
324.763
325.161
325.527
325.836
326.06
326.178
326.178
326.06
325.836
325.527
325.161
324.763
324.358
323.964
323.607
323.343
316.688
316.875
317.129
317.41
317.7
317.984
318.245
318.465
318.626
318.71
318.71
318.626
318.465
318.245
317.984
317.7
317.41
317.129
316.875
316.688
310.026
310.138
310.291
310.459
310.633
310.804
310.961
311.093
311.189
311.24
311.24
311.189
311.093
310.961
310.804
310.633
310.459
310.291
310.138
310.026
303.361
303.399
303.45
303.506
303.565
303.622
303.674
303.719
303.751
303.768
303.768
303.751
303.719
303.674
303.622
303.565
303.506
303.45
303.399
303.361
350.023
350.627
351.398
352.237
353.101
353.948
354.73
355.389
355.869
356.122
356.122
355.869
355.389
354.73
353.948
353.101
352.237
351.398
350.627
350.023
343.396
343.907
344.572
345.298
346.046
346.779
347.454
348.024
348.438
348.657
348.657
348.438
348.024
347.454
346.779
346.046
345.298
344.572
343.907
343.396
336.751
337.176
337.736
338.349
338.981
339.6
340.171
340.652
341.001
341.186
341.186
341.001
340.652
340.171
339.6
338.981
338.349
337.736
337.176
336.751
330.093
330.435
330.891
331.393
331.909
332.415
332.881
333.274
333.559
333.71
333.71
333.559
333.274
332.881
332.415
331.909
331.393
330.891
330.435
330.093
323.424
323.686
324.04
324.43
324.831
325.224
325.586
325.891
326.113
326.23
326.23
326.113
325.891
325.586
325.224
324.831
324.43
324.04
323.686
323.424
316.745
316.931
317.184
317.462
317.748
318.029
318.288
318.505
318.663
318.747
318.747
318.663
318.505
318.288
318.029
317.748
317.462
317.184
316.931
316.745
310.061
310.172
310.323
310.49
310.662
310.831
310.986
311.117
311.212
311.262
311.262
311.212
311.117
310.986
310.831
310.662
310.49
310.323
310.172
310.061
303.373
303.41
303.461
303.517
303.574
303.631
303.683
303.727
303.758
303.775
303.775
303.758
303.727
303.683
303.631
303.574
303.517
303.461
303.41
303.373
350.371
350.966
351.724
352.547
353.394
354.223
354.986
355.629
356.097
356.344
356.344
356.097
355.629
354.986
354.223
353.394
352.547
351.724
350.966
350.371
343.697
344.201
344.854
345.567
346.3
347.017
347.677
348.232
348.636
348.849
348.849
348.636
348.232
347.677
347.017
346.3
345.567
344.854
344.201
343.697
337.006
337.424
337.975
338.577
339.196
339.802
340.359
340.828
341.169
341.349
341.349
341.169
340.828
340.359
339.802
339.196
338.577
337.975
337.424
337.006
330.302
330.638
331.087
331.579
332.085
332.58
333.036
333.419
333.697
333.844
333.844
333.697
333.419
333.036
332.58
332.085
331.579
331.087
330.638
330.302
323.586
323.844
324.192
324.575
324.968
325.353
325.707
326.004
326.22
326.334
326.334
326.22
326.004
325.707
325.353
324.968
324.575
324.192
323.844
323.586
316.861
317.044
317.292
317.565
317.846
318.121
318.374
318.586
318.74
318.821
318.821
318.74
318.586
318.374
318.121
317.846
317.565
317.292
317.044
316.861
310.131
310.24
310.389
310.553
310.721
310.886
311.038
311.165
311.258
311.307
311.307
311.258
311.165
311.038
310.886
310.721
310.553
310.389
310.24
310.131
303.396
303.433
303.483
303.538
303.594
303.649
303.7
303.743
303.774
303.79
303.79
303.774
303.743
303.7
303.649
303.594
303.538
303.483
303.433
303.396
350.895
351.476
352.215
353.016
353.838
354.64
355.377
355.997
356.447
356.685
356.685
356.447
355.997
355.377
354.64
353.838
353.016
352.215
351.476
350.895
344.151
344.643
345.28
345.973
346.684
347.378
348.016
348.552
348.941
349.146
349.146
348.941
348.552
348.016
347.378
346.684
345.973
345.28
344.643
344.151
337.39
337.798
338.335
338.921
339.522
340.108
340.647
341.099
341.428
341.601
341.601
341.428
341.099
340.647
340.108
339.522
338.921
338.335
337.798
337.39
330.616
330.944
331.382
331.86
332.352
332.831
333.271
333.641
333.909
334.05
334.05
333.909
333.641
333.271
332.831
332.352
331.86
331.382
330.944
330.616
323.83
324.082
324.421
324.794
325.176
325.548
325.89
326.177
326.385
326.495
326.495
326.385
326.177
325.89
325.548
325.176
324.794
324.421
324.082
323.83
317.036
317.214
317.456
317.722
317.995
318.261
318.505
318.71
318.858
318.936
318.936
318.858
318.71
318.505
318.261
317.995
317.722
317.456
317.214
317.036
310.235
310.342
310.487
310.647
310.81
310.97
311.117
311.24
311.329
311.376
311.376
311.329
311.24
311.117
310.97
310.81
310.647
310.487
310.342
310.235
303.431
303.467
303.516
303.569
303.624
303.678
303.727
303.768
303.798
303.813
303.813
303.798
303.768
303.727
303.678
303.624
303.569
303.516
303.467
303.431
351.597
352.16
352.874
353.647
354.437
355.206
355.91
356.501
356.93
357.155
357.155
356.93
356.501
355.91
355.206
354.437
353.647
352.874
352.16
351.597
344.759
345.235
345.851
346.52
347.204
347.869
348.479
348.99
349.36
349.555
349.555
349.36
348.99
348.479
347.869
347.204
346.52
345.851
345.235
344.759
337.904
338.299
338.819
339.384
339.962
340.524
341.039
341.47
341.783
341.947
341.947
341.783
341.47
341.039
340.524
339.962
339.384
338.819
338.299
337.904
331.036
331.354
331.777
332.239
332.712
333.171
333.592
333.944
334.2
334.334
334.334
334.2
333.944
333.592
333.171
332.712
332.239
331.777
331.354
331.036
324.157
324.401
324.729
325.088
325.456
325.813
326.14
326.414
326.612
326.716
326.716
326.612
326.414
326.14
325.813
325.456
325.088
324.729
324.401
324.157
317.269
317.442
317.676
317.932
318.195
318.45
318.683
318.879
319.02
319.095
319.095
319.02
318.879
318.683
318.45
318.195
317.932
317.676
317.442
317.269
310.376
310.479
310.619
310.773
310.931
311.084
311.224
311.341
311.426
311.471
311.471
311.426
311.341
311.224
311.084
310.931
310.773
310.619
310.479
310.376
303.478
303.513
303.56
303.611
303.664
303.716
303.763
303.802
303.83
303.845
303.845
303.83
303.802
303.763
303.716
303.664
303.611
303.56
303.513
303.478
352.478
353.02
353.706
354.445
355.197
355.927
356.594
357.152
357.555
357.767
357.767
357.555
357.152
356.594
355.927
355.197
354.445
353.706
353.02
352.478
345.522
345.981
346.572
347.212
347.863
348.495
349.072
349.554
349.902
350.086
350.086
349.902
349.554
349.072
348.495
347.863
347.212
346.572
345.981
345.522
338.55
338.93
339.428
339.969
340.52
341.054
341.541
341.948
342.243
342.397
342.397
342.243
341.948
341.541
341.054
340.52
339.969
339.428
338.93
338.55
331.564
331.87
332.276
332.718
333.169
333.605
334.004
334.336
334.576
334.703
334.703
334.576
334.336
334.004
333.605
333.169
332.718
332.276
331.87
331.564
324.567
324.802
325.118
325.461
325.811
326.151
326.46
326.719
326.905
327.003
327.003
326.905
326.719
326.46
326.151
325.811
325.461
325.118
324.802
324.567
317.562
317.729
317.953
318.199
318.449
318.691
318.912
319.097
319.23
319.3
319.3
319.23
319.097
318.912
318.691
318.449
318.199
317.953
317.729
317.562
310.552
310.651
310.786
310.933
311.083
311.229
311.361
311.472
311.552
311.594
311.594
311.552
311.472
311.361
311.229
311.083
310.933
310.786
310.651
310.552
303.537
303.571
303.616
303.665
303.715
303.764
303.809
303.846
303.873
303.887
303.887
303.873
303.846
303.809
303.764
303.715
303.665
303.616
303.571
303.537
353.542
354.06
354.713
355.415
356.126
356.813
357.438
357.959
358.335
358.532
358.532
358.335
357.959
357.438
356.813
356.126
355.415
354.713
354.06
353.542
346.443
346.882
347.445
348.052
348.668
349.263
349.804
350.255
350.579
350.75
350.75
350.579
350.255
349.804
349.263
348.668
348.052
347.445
346.882
346.443
339.329
339.692
340.167
340.68
341.201
341.704
342.161
342.542
342.816
342.96
342.96
342.816
342.542
342.161
341.704
341.201
340.68
340.167
339.692
339.329
332.201
332.494
332.881
333.3
333.726
334.137
334.511
334.822
335.046
335.164
335.164
335.046
334.822
334.511
334.137
333.726
333.3
332.881
332.494
332.201
325.063
325.288
325.588
325.914
326.245
326.565
326.855
327.097
327.271
327.362
327.362
327.271
327.097
326.855
326.565
326.245
325.914
325.588
325.288
325.063
317.916
318.075
318.29
318.522
318.759
318.987
319.195
319.367
319.492
319.557
319.557
319.492
319.367
319.195
318.987
318.759
318.522
318.29
318.075
317.916
310.764
310.859
310.988
311.127
311.269
311.407
311.531
311.635
311.709
311.749
311.749
311.709
311.635
311.531
311.407
311.269
311.127
310.988
310.859
310.764
303.609
303.64
303.683
303.73
303.778
303.824
303.866
303.9
303.925
303.938
303.938
303.925
303.9
303.866
303.824
303.778
303.73
303.683
303.64
303.609
354.791
355.283
355.901
356.562
357.23
357.871
358.452
358.935
359.282
359.464
359.464
359.282
358.935
358.452
357.871
357.23
356.562
355.901
355.283
354.791
347.525
347.941
348.475
349.047
349.625
350.181
350.684
351.101
351.401
351.558
351.558
351.401
351.101
350.684
350.181
349.625
349.047
348.475
347.941
347.525
340.243
340.589
341.038
341.522
342.011
342.481
342.906
343.259
343.512
343.645
343.645
343.512
343.259
342.906
342.481
342.011
341.522
341.038
340.589
340.243
332.949
333.227
333.594
333.989
334.389
334.773
335.121
335.409
335.616
335.725
335.725
335.616
335.409
335.121
334.773
334.389
333.989
333.594
333.227
332.949
325.645
325.858
326.142
326.45
326.761
327.059
327.33
327.554
327.715
327.799
327.799
327.715
327.554
327.33
327.059
326.761
326.45
326.142
325.858
325.645
318.332
318.483
318.686
318.905
319.127
319.341
319.534
319.694
319.809
319.869
319.869
319.809
319.694
319.534
319.341
319.127
318.905
318.686
318.483
318.332
311.014
311.104
311.226
311.357
311.491
311.619
311.735
311.831
311.9
311.936
311.936
311.9
311.831
311.735
311.619
311.491
311.357
311.226
311.104
311.014
303.692
303.723
303.763
303.807
303.852
303.895
303.934
303.966
303.989
304.001
304.001
303.989
303.966
303.934
303.895
303.852
303.807
303.763
303.723
303.692
356.228
356.693
357.274
357.893
358.515
359.11
359.646
360.09
360.408
360.574
360.574
360.408
360.09
359.646
359.11
358.515
357.893
357.274
356.693
356.228
348.769
349.163
349.665
350.2
350.739
351.254
351.719
352.103
352.378
352.522
352.522
352.378
352.103
351.719
351.254
350.739
350.2
349.665
349.163
348.769
341.296
341.622
342.045
342.498
342.954
343.389
343.782
344.107
344.339
344.461
344.461
344.339
344.107
343.782
343.389
342.954
342.498
342.045
341.622
341.296
333.81
334.073
334.417
334.788
335.16
335.517
335.838
336.103
336.293
336.393
336.393
336.293
336.103
335.838
335.517
335.16
334.788
334.417
334.073
333.81
326.314
326.516
326.783
327.071
327.361
327.638
327.888
328.094
328.242
328.319
328.319
328.242
328.094
327.888
327.638
327.361
327.071
326.783
326.516
326.314
318.81
318.953
319.144
319.349
319.556
319.754
319.933
320.08
320.186
320.241
320.241
320.186
320.08
319.933
319.754
319.556
319.349
319.144
318.953
318.81
311.301
311.386
311.501
311.624
311.748
311.867
311.974
312.063
312.126
312.159
312.159
312.126
312.063
311.974
311.867
311.748
311.624
311.501
311.386
311.301
303.789
303.817
303.855
303.897
303.938
303.978
304.014
304.044
304.065
304.076
304.076
304.065
304.044
304.014
303.978
303.938
303.897
303.855
303.817
303.789
357.855
358.292
358.836
359.413
359.988
360.536
361.028
361.434
361.723
361.874
361.874
361.723
361.434
361.028
360.536
359.988
359.413
358.836
358.292
357.855
350.179
350.549
351.018
351.517
352.016
352.491
352.917
353.268
353.518
353.649
353.649
353.518
353.268
352.917
352.491
352.016
351.517
351.018
350.549
350.179
342.488
342.795
343.191
343.612
344.034
344.436
344.796
345.093
345.305
345.415
345.415
345.305
345.093
344.796
344.436
344.034
343.612
343.191
342.795
342.488
334.785
335.032
335.355
335.7
336.045
336.373
336.668
336.911
337.084
337.174
337.174
337.084
336.911
336.668
336.373
336.045
335.7
335.355
335.032
334.785
327.072
327.262
327.512
327.78
328.049
328.304
328.534
328.722
328.857
328.927
328.927
328.857
328.722
328.534
328.304
328.049
327.78
327.512
327.262
327.072
319.352
319.486
319.665
319.856
320.048
320.231
320.394
320.529
320.625
320.675
320.675
320.625
320.529
320.394
320.231
320.048
319.856
319.665
319.486
319.352
311.627
311.707
311.814
311.929
312.044
312.153
312.252
312.333
312.39
312.421
312.421
312.39
312.333
312.252
312.153
312.044
311.929
311.814
311.707
311.627
303.898
303.924
303.96
303.999
304.037
304.074
304.107
304.134
304.154
304.164
304.164
304.154
304.134
304.107
304.074
304.037
303.999
303.96
303.924
303.898
359.676
360.085
360.592
361.125
361.656
362.158
362.607
362.975
363.237
363.373
363.373
363.237
362.975
362.607
362.158
361.656
361.125
360.592
360.085
359.676
351.756
352.102
352.539
353.001
353.461
353.896
354.285
354.604
354.831
354.949
354.949
354.831
354.604
354.285
353.896
353.461
353.001
352.539
352.102
351.756
343.822
344.109
344.477
344.868
345.257
345.625
345.954
346.224
346.416
346.515
346.515
346.416
346.224
345.954
345.625
345.257
344.868
344.477
344.109
343.822
335.876
336.107
336.408
336.727
337.045
337.347
337.616
337.836
337.993
338.075
338.075
337.993
337.836
337.616
337.347
337.045
336.727
336.408
336.107
335.876
327.921
328.098
328.331
328.58
328.827
329.062
329.271
329.442
329.564
329.628
329.628
329.564
329.442
329.271
329.062
328.827
328.58
328.331
328.098
327.921
319.958
320.084
320.25
320.427
320.604
320.772
320.921
321.044
321.131
321.176
321.176
321.131
321.044
320.921
320.772
320.604
320.427
320.25
320.084
319.958
311.991
312.065
312.165
312.272
312.378
312.478
312.568
312.642
312.694
312.721
312.721
312.694
312.642
312.568
312.478
312.378
312.272
312.165
312.065
311.991
304.02
304.045
304.078
304.114
304.149
304.183
304.213
304.238
304.255
304.265
304.265
304.255
304.238
304.213
304.183
304.149
304.114
304.078
304.045
304.02
361.693
362.074
362.543
363.035
363.522
363.98
364.387
364.72
364.956
365.079
365.079
364.956
364.72
364.387
363.98
363.522
363.035
362.543
362.074
361.693
353.503
353.825
354.231
354.657
355.078
355.476
355.828
356.117
356.321
356.427
356.427
356.321
356.117
355.828
355.476
355.078
354.657
354.231
353.825
353.503
345.3
345.567
345.908
346.269
346.626
346.962
347.26
347.504
347.677
347.767
347.767
347.677
347.504
347.26
346.962
346.626
346.269
345.908
345.567
345.3
337.085
337.3
337.578
337.873
338.165
338.44
338.684
338.884
339.025
339.099
339.099
339.025
338.884
338.684
338.44
338.165
337.873
337.578
337.3
337.085
328.861
329.026
329.242
329.471
329.698
329.912
330.102
330.257
330.367
330.425
330.425
330.367
330.257
330.102
329.912
329.698
329.471
329.242
329.026
328.861
320.63
320.747
320.901
321.064
321.227
321.38
321.515
321.626
321.705
321.746
321.746
321.705
321.626
321.515
321.38
321.227
321.064
320.901
320.747
320.63
312.394
312.464
312.556
312.654
312.752
312.844
312.925
312.992
313.039
313.063
313.063
313.039
312.992
312.925
312.844
312.752
312.654
312.556
312.464
312.394
304.155
304.178
304.209
304.242
304.275
304.306
304.333
304.355
304.371
304.379
304.379
304.371
304.355
304.333
304.306
304.275
304.242
304.209
304.178
304.155
363.908
364.261
364.694
365.146
365.591
366.007
366.375
366.675
366.887
366.997
366.997
366.887
366.675
366.375
366.007
365.591
365.146
364.694
364.261
363.908
355.421
355.72
356.094
356.486
356.871
357.232
357.551
357.811
357.994
358.09
358.09
357.994
357.811
357.551
357.232
356.871
356.486
356.094
355.72
355.421
346.922
347.17
347.485
347.816
348.142
348.448
348.718
348.937
349.093
349.173
349.173
349.093
348.937
348.718
348.448
348.142
347.816
347.485
347.17
346.922
338.412
338.611
338.868
339.139
339.406
339.656
339.877
340.057
340.184
340.25
340.25
340.184
340.057
339.877
339.656
339.406
339.139
338.868
338.611
338.412
329.893
330.046
330.245
330.456
330.664
330.858
331.03
331.17
331.269
331.32
331.32
331.269
331.17
331.03
330.858
330.664
330.456
330.245
330.046
329.893
321.367
321.475
321.618
321.768
321.916
322.055
322.178
322.278
322.349
322.385
322.385
322.349
322.278
322.178
322.055
321.916
321.768
321.618
321.475
321.367
312.837
312.901
312.987
313.077
313.166
313.25
313.323
313.383
313.426
313.448
313.448
313.426
313.383
313.323
313.25
313.166
313.077
312.987
312.901
312.837
304.303
304.325
304.354
304.384
304.414
304.442
304.466
304.486
304.501
304.508
304.508
304.501
304.486
304.466
304.442
304.414
304.384
304.354
304.325
304.303
366.319
366.646
367.045
367.459
367.864
368.241
368.573
368.842
369.031
369.13
369.13
369.031
368.842
368.573
368.241
367.864
367.459
367.045
366.646
366.319
357.51
357.786
358.131
358.49
358.84
359.167
359.455
359.688
359.853
359.938
359.938
359.853
359.688
359.455
359.167
358.84
358.49
358.131
357.786
357.51
348.689
348.918
349.208
349.511
349.808
350.085
350.329
350.526
350.665
350.737
350.737
350.665
350.526
350.329
350.085
349.808
349.511
349.208
348.918
348.689
339.857
340.041
340.278
340.526
340.769
340.995
341.195
341.356
341.47
341.529
341.529
341.47
341.356
341.195
340.995
340.769
340.526
340.278
340.041
339.857
331.017
331.158
331.342
331.534
331.724
331.9
332.055
332.181
332.269
332.315
332.315
332.269
332.181
332.055
331.9
331.724
331.534
331.342
331.158
331.017
322.17
322.27
322.401
322.539
322.674
322.8
322.911
323
323.064
323.096
323.096
323.064
323
322.911
322.8
322.674
322.539
322.401
322.27
322.17
313.319
313.378
313.457
313.54
313.621
313.697
313.763
313.817
313.855
313.875
313.875
313.855
313.817
313.763
313.697
313.621
313.54
313.457
313.378
313.319
304.465
304.485
304.511
304.539
304.566
304.591
304.614
304.632
304.645
304.651
304.651
304.645
304.632
304.614
304.591
304.566
304.539
304.511
304.485
304.465
368.926
369.227
369.593
369.971
370.339
370.68
370.978
371.219
371.389
371.476
371.476
371.389
371.219
370.978
370.68
370.339
369.971
369.593
369.227
368.926
359.767
360.022
360.338
360.665
360.984
361.28
361.539
361.748
361.895
361.97
361.97
361.895
361.748
361.539
361.28
360.984
360.665
360.338
360.022
359.767
350.597
350.808
351.074
351.351
351.621
351.871
352.091
352.267
352.392
352.456
352.456
352.392
352.267
352.091
351.871
351.621
351.351
351.074
350.808
350.597
341.417
341.587
341.804
342.031
342.252
342.456
342.636
342.78
342.882
342.935
342.935
342.882
342.78
342.636
342.456
342.252
342.031
341.804
341.587
341.417
332.229
332.36
332.528
332.705
332.876
333.036
333.176
333.288
333.367
333.408
333.408
333.367
333.288
333.176
333.036
332.876
332.705
332.528
332.36
332.229
323.036
323.128
323.249
323.375
323.497
323.611
323.711
323.792
323.848
323.877
323.877
323.848
323.792
323.711
323.611
323.497
323.375
323.249
323.128
323.036
313.839
313.894
313.966
314.042
314.116
314.184
314.244
314.292
314.326
314.344
314.344
314.326
314.292
314.244
314.184
314.116
314.042
313.966
313.894
313.839
304.639
304.658
304.682
304.707
304.732
304.755
304.775
304.791
304.803
304.808
304.808
304.803
304.791
304.775
304.755
304.732
304.707
304.682
304.658
304.639
371.716
371.993
372.329
372.673
373.007
373.314
373.582
373.798
373.949
374.027
374.027
373.949
373.798
373.582
373.314
373.007
372.673
372.329
371.993
371.716
362.181
362.415
362.705
363.004
363.293
363.559
363.792
363.979
364.11
364.178
364.178
364.11
363.979
363.792
363.559
363.293
363.004
362.705
362.415
362.181
352.636
352.83
353.075
353.327
353.572
353.798
353.995
354.153
354.264
354.321
354.321
354.264
354.153
353.995
353.798
353.572
353.327
353.075
352.83
352.636
343.083
343.24
343.439
343.646
343.846
344.031
344.192
344.322
344.413
344.46
344.46
344.413
344.322
344.192
344.031
343.846
343.646
343.439
343.24
343.083
333.525
333.644
333.799
333.96
334.116
334.26
334.385
334.486
334.557
334.593
334.593
334.557
334.486
334.385
334.26
334.116
333.96
333.799
333.644
333.525
323.961
324.046
324.156
324.271
324.382
324.485
324.575
324.647
324.698
324.724
324.724
324.698
324.647
324.575
324.485
324.382
324.271
324.156
324.046
323.961
314.394
314.445
314.511
314.58
314.647
314.709
314.762
314.806
314.836
314.852
314.852
314.836
314.806
314.762
314.709
314.647
314.58
314.511
314.445
314.394
304.825
304.842
304.864
304.887
304.91
304.931
304.949
304.963
304.973
304.979
304.979
304.973
304.963
304.949
304.931
304.91
304.887
304.864
304.842
304.825
374.66
374.914
375.222
375.536
375.838
376.115
376.356
376.549
376.684
376.754
376.754
376.684
376.549
376.356
376.115
375.838
375.536
375.222
374.914
374.66
364.723
364.939
365.204
365.476
365.738
365.979
366.188
366.355
366.472
366.533
366.533
366.472
366.355
366.188
365.979
365.738
365.476
365.204
364.939
364.723
354.78
354.959
355.183
355.413
355.635
355.839
356.016
356.158
356.257
356.308
356.308
356.257
356.158
356.016
355.839
355.635
355.413
355.183
354.959
354.78
344.833
344.977
345.159
345.348
345.529
345.696
345.841
345.958
346.039
346.081
346.081
346.039
345.958
345.841
345.696
345.529
345.348
345.159
344.977
344.833
334.883
334.993
335.135
335.281
335.422
335.552
335.665
335.756
335.819
335.851
335.851
335.819
335.756
335.665
335.552
335.422
335.281
335.135
334.993
334.883
324.93
325.008
325.109
325.213
325.315
325.407
325.488
325.553
325.598
325.621
325.621
325.598
325.553
325.488
325.407
325.315
325.213
325.109
325.008
324.93
314.975
315.022
315.082
315.145
315.206
315.262
315.31
315.349
315.376
315.39
315.39
315.376
315.349
315.31
315.262
315.206
315.145
315.082
315.022
314.975
305.02
305.036
305.056
305.077
305.097
305.116
305.132
305.145
305.154
305.159
305.159
305.154
305.145
305.132
305.116
305.097
305.077
305.056
305.036
305.02
377.681
377.915
378.197
378.483
378.758
379.009
379.225
379.399
379.519
379.582
379.582
379.519
379.399
379.225
379.009
378.758
378.483
378.197
377.915
377.681
367.32
367.519
367.762
368.01
368.248
368.466
368.655
368.805
368.91
368.964
368.964
368.91
368.805
368.655
368.466
368.248
368.01
367.762
367.519
367.32
356.962
357.127
357.332
357.542
357.744
357.928
358.088
358.215
358.304
358.35
358.35
358.304
358.215
358.088
357.928
357.744
357.542
357.332
357.127
356.962
346.607
346.739
346.907
347.079
347.244
347.395
347.526
347.631
347.703
347.741
347.741
347.703
347.631
347.526
347.395
347.244
347.079
346.907
346.739
346.607
336.255
336.357
336.487
336.621
336.75
336.867
336.969
337.05
337.107
337.136
337.136
337.107
337.05
336.969
336.867
336.75
336.621
336.487
336.357
336.255
325.907
325.979
326.071
326.167
326.259
326.343
326.416
326.474
326.515
326.536
326.536
326.515
326.474
326.416
326.343
326.259
326.167
326.071
325.979
325.907
315.561
315.603
315.659
315.717
315.772
315.822
315.866
315.901
315.926
315.938
315.938
315.926
315.901
315.866
315.822
315.772
315.717
315.659
315.603
315.561
305.216
305.23
305.249
305.268
305.287
305.304
305.318
305.33
305.338
305.342
305.342
305.338
305.33
305.318
305.304
305.287
305.268
305.249
305.23
305.216
380.585
380.802
381.062
381.325
381.576
381.804
382.001
382.158
382.267
382.323
382.323
382.267
382.158
382.001
381.804
381.576
381.325
381.062
380.802
380.585
369.787
369.97
370.195
370.423
370.642
370.84
371.012
371.148
371.243
371.292
371.292
371.243
371.148
371.012
370.84
370.642
370.423
370.195
369.97
369.787
359.012
359.164
359.354
359.547
359.732
359.901
360.046
360.162
360.243
360.284
360.284
360.243
360.162
360.046
359.901
359.732
359.547
359.354
359.164
359.012
348.258
348.381
348.536
348.694
348.846
348.985
349.104
349.199
349.265
349.299
349.299
349.265
349.199
349.104
348.985
348.846
348.694
348.536
348.381
348.258
337.524
337.618
337.738
337.862
337.98
338.088
338.181
338.255
338.306
338.333
338.333
338.306
338.255
338.181
338.088
337.98
337.862
337.738
337.618
337.524
326.804
326.871
326.957
327.045
327.13
327.207
327.274
327.326
327.363
327.382
327.382
327.363
327.326
327.274
327.207
327.13
327.045
326.957
326.871
326.804
316.096
316.136
316.187
316.241
316.291
316.338
316.378
316.41
316.432
316.443
316.443
316.432
316.41
316.378
316.338
316.291
316.241
316.187
316.136
316.096
305.395
305.408
305.425
305.443
305.46
305.476
305.489
305.5
305.507
305.511
305.511
305.507
305.5
305.489
305.476
305.46
305.443
305.425
305.408
305.395
382.862
383.065
383.31
383.556
383.791
384.004
384.188
384.333
384.434
384.486
384.486
384.434
384.333
384.188
384.004
383.791
383.556
383.31
383.065
382.862
371.647
371.82
372.031
372.247
372.451
372.637
372.797
372.924
373.012
373.058
373.058
373.012
372.924
372.797
372.637
372.451
372.247
372.031
371.82
371.647
360.51
360.654
360.833
361.016
361.19
361.348
361.484
361.592
361.667
361.706
361.706
361.667
361.592
361.484
361.348
361.19
361.016
360.833
360.654
360.51
349.435
349.552
349.698
349.848
349.991
350.121
350.233
350.322
350.384
350.416
350.416
350.384
350.322
350.233
350.121
349.991
349.848
349.698
349.552
349.435
338.411
338.5
338.614
338.731
338.843
338.944
339.032
339.101
339.149
339.174
339.174
339.149
339.101
339.032
338.944
338.843
338.731
338.614
338.5
338.411
327.424
327.487
327.568
327.652
327.732
327.805
327.867
327.917
327.952
327.969
327.969
327.952
327.917
327.867
327.805
327.732
327.652
327.568
327.487
327.424
316.462
316.5
316.549
316.6
316.648
316.691
316.729
316.759
316.78
316.79
316.79
316.78
316.759
316.729
316.691
316.648
316.6
316.549
316.5
316.462
305.517
305.529
305.546
305.563
305.579
305.593
305.606
305.616
305.623
305.627
305.627
305.623
305.616
305.606
305.593
305.579
305.563
305.546
305.529
305.517
)
;

boundaryField
{
    hotSide
    {
        type            fixedGradient;
        gradient        nonuniform List<scalar> 
400
(
526.738
528.607
532.353
537.988
545.529
555
566.427
579.837
595.259
612.724
632.259
653.891
677.645
703.542
731.602
761.841
794.273
828.91
865.759
904.828
534.75
536.557
540.178
545.631
552.941
562.136
573.251
586.323
601.39
618.488
637.653
658.918
682.312
707.861
735.589
765.512
797.647
832.006
868.597
907.427
543.422
545.153
548.625
553.863
560.898
569.769
580.52
593.2
607.855
624.534
643.279
664.13
687.123
712.289
739.651
769.232
801.047
835.109
871.426
910.005
552.609
554.251
557.552
562.54
569.257
577.756
588.092
600.328
614.522
630.733
649.014
669.412
691.97
716.722
743.696
772.914
804.394
838.147
874.182
912.504
562.054
563.597
566.704
571.412
577.777
585.863
595.743
607.493
621.186
636.895
654.681
674.601
696.703
721.026
747.6
776.449
807.589
841.033
876.787
914.853
571.364
572.801
575.7
580.111
586.101
593.752
603.154
614.399
627.576
642.769
660.053
679.492
701.14
725.037
751.219
779.708
810.52
843.667
879.153
916.979
580.005
581.336
584.029
588.144
593.764
600.986
609.92
620.674
633.353
648.053
664.861
683.846
705.068
728.571
754.391
782.551
813.066
845.945
881.191
918.803
587.339
588.574
591.082
594.931
600.219
607.06
615.579
625.901
638.144
652.417
668.812
687.408
708.267
731.438
756.953
784.838
815.106
847.764
882.813
920.249
592.706
593.868
596.233
599.88
604.915
611.468
619.674
629.67
641.587
655.541
671.632
689.941
710.535
733.462
758.758
786.444
816.534
849.033
883.942
921.254
595.55
596.672
598.96
602.496
607.395
613.79
621.827
631.649
643.391
657.174
673.102
691.259
711.713
734.511
759.69
787.272
817.269
849.686
884.521
921.769
595.55
596.672
598.96
602.496
607.395
613.79
621.827
631.649
643.391
657.174
673.102
691.259
711.713
734.511
759.69
787.272
817.269
849.686
884.521
921.769
592.706
593.868
596.233
599.88
604.915
611.468
619.674
629.67
641.587
655.541
671.632
689.941
710.535
733.462
758.758
786.444
816.534
849.033
883.942
921.254
587.339
588.574
591.082
594.931
600.219
607.06
615.579
625.901
638.144
652.417
668.812
687.408
708.267
731.438
756.953
784.838
815.106
847.764
882.813
920.249
580.005
581.336
584.029
588.144
593.764
600.986
609.92
620.674
633.353
648.053
664.861
683.846
705.068
728.571
754.391
782.551
813.066
845.945
881.191
918.803
571.364
572.801
575.7
580.111
586.101
593.752
603.154
614.399
627.576
642.769
660.053
679.492
701.14
725.037
751.219
779.708
810.52
843.667
879.153
916.979
562.054
563.597
566.704
571.412
577.777
585.863
595.743
607.493
621.186
636.895
654.681
674.601
696.703
721.026
747.6
776.449
807.589
841.033
876.787
914.853
552.609
554.251
557.552
562.54
569.257
577.756
588.092
600.328
614.522
630.733
649.014
669.412
691.97
716.722
743.696
772.914
804.394
838.147
874.182
912.504
543.422
545.153
548.625
553.863
560.898
569.769
580.52
593.2
607.855
624.534
643.279
664.13
687.123
712.289
739.651
769.232
801.047
835.109
871.426
910.005
534.75
536.557
540.178
545.631
552.941
562.136
573.251
586.323
601.39
618.488
637.653
658.918
682.312
707.861
735.589
765.512
797.647
832.006
868.597
907.427
526.738
528.607
532.353
537.988
545.529
555
566.427
579.837
595.259
612.724
632.259
653.891
677.645
703.542
731.602
761.841
794.273
828.91
865.759
904.828
)
;
    }
    coldSide
    {
        type            mixed;
        refValue        uniform 300;
        refGradient     uniform 0;
        valueFraction   uniform 0.991591;
        source          uniform 0;
        value           nonuniform List<scalar> 
400
(
300.028
300.028
300.029
300.029
300.029
300.03
300.03
300.031
300.032
300.033
300.034
300.035
300.036
300.038
300.039
300.041
300.042
300.044
300.045
300.046
300.029
300.029
300.029
300.029
300.03
300.03
300.031
300.031
300.032
300.033
300.034
300.035
300.036
300.038
300.039
300.041