/*--------------------------------*- C++ -*----------------------------------*\
| =========                 |                                                 |
| \\      /  F ield         | OpenFOAM: The Open Source CFD Toolbox           |
|  \\    /   O peration     | Version:  2212                                  |
|   \\  /    A nd           | Website:  www.openfoam.com                      |
|    \\/     M anipulation  |                                                 |
\*---------------------------------------------------------------------------*/
FoamFile
{
    version     2.0;
    format      ascii;
    arch        "LSB;label=32;scalar=64";
    class       volScalarField;
    location    "./ITHACAoutput/true/16.6";
    object      trueState;
}
// * * * * * * * * * * * * * * * * * * * * * * * * * * * * * * * * * * * * * //

dimensions      [0 0 0 1 0 0 0];

internalField   nonuniform List<scalar> 
3200
(
342.019
342.256
342.56
342.891
343.232
343.567
343.876
344.136
344.326
344.427
344.427
344.326
344.136
343.876
343.567
343.232
342.891
342.56
342.256
342.019
336.532
336.733
336.995
337.281
337.576
337.866
338.133
338.358
338.522
338.609
338.609
338.522
338.358
338.133
337.866
337.576
337.281
336.995
336.733
336.532
330.996
331.163
331.383
331.625
331.875
332.119
332.345
332.535
332.673
332.746
332.746
332.673
332.535
332.345
332.119
331.875
331.625
331.383
331.163
330.996
325.419
325.554
325.734
325.931
326.135
326.335
326.519
326.674
326.787
326.847
326.847
326.787
326.674
326.519
326.335
326.135
325.931
325.734
325.554
325.419
319.81
319.913
320.052
320.206
320.364
320.52
320.663
320.783
320.871
320.917
320.917
320.871
320.783
320.663
320.52
320.364
320.206
320.052
319.913
319.81
314.175
314.248
314.347
314.457
314.57
314.681
314.783
314.869
314.932
314.965
314.965
314.932
314.869
314.783
314.681
314.57
314.457
314.347
314.248
314.175
308.522
308.565
308.625
308.691
308.759
308.825
308.886
308.938
308.976
308.995
308.995
308.976
308.938
308.886
308.825
308.759
308.691
308.625
308.565
308.522
302.858
302.872
302.892
302.914
302.937
302.959
302.98
302.997
303.01
303.016
303.016
303.01
302.997
302.98
302.959
302.937
302.914
302.892
302.872
302.858
342.194
342.43
342.731
343.059
343.397
343.727
344.033
344.29
344.478
344.577
344.577
344.478
344.29
344.033
343.727
343.397
343.059
342.731
342.43
342.194
336.684
336.884
337.144
337.427
337.719
338.006
338.269
338.492
338.654
338.739
338.739
338.654
338.492
338.269
338.006
337.719
337.427
337.144
336.884
336.684
331.125
331.291
331.51
331.749
331.996
332.238
332.461
332.648
332.785
332.857
332.857
332.785
332.648
332.461
332.238
331.996
331.749
331.51
331.291
331.125
325.525
325.659
325.837
326.033
326.234
326.432
326.614
326.767
326.879
326.938
326.938
326.879
326.767
326.614
326.432
326.234
326.033
325.837
325.659
325.525
319.892
319.995
320.133
320.285
320.442
320.596
320.737
320.856
320.943
320.988
320.988
320.943
320.856
320.737
320.596
320.442
320.285
320.133
319.995
319.892
314.234
314.306
314.405
314.513
314.625
314.735
314.836
314.921
314.983
315.015
315.015
314.983
314.921
314.836
314.735
314.625
314.513
314.405
314.306
314.234
308.557
308.6
308.659
308.725
308.792
308.858
308.918
308.969
309.006
309.026
309.026
309.006
308.969
308.918
308.858
308.792
308.725
308.659
308.6
308.557
302.87
302.884
302.904
302.926
302.948
302.97
302.991
303.008
303.02
303.027
303.027
303.02
303.008
302.991
302.97
302.948
302.926
302.904
302.884
302.87
342.546
342.778
343.074
343.396
343.726
344.05
344.348
344.599
344.782
344.878
344.878
344.782
344.599
344.348
344.05
343.726
343.396
343.074
342.778
342.546
336.989
337.186
337.441
337.72
338.006
338.286
338.544
338.761
338.919
339.002
339.002
338.919
338.761
338.544
338.286
338.006
337.72
337.441
337.186
336.989
331.384
331.547
331.762
331.997
332.239
332.476
332.694
332.877
333.01
333.08
333.08
333.01
332.877
332.694
332.476
332.239
331.997
331.762
331.547
331.384
325.737
325.869
326.044
326.236
326.434
326.627
326.805
326.955
327.063
327.121
327.121
327.063
326.955
326.805
326.627
326.434
326.236
326.044
325.869
325.737
320.057
320.158
320.294
320.444
320.597
320.748
320.886
321.002
321.086
321.131
321.131
321.086
321.002
320.886
320.748
320.597
320.444
320.294
320.158
320.057
314.352
314.423
314.52
314.627
314.737
314.844
314.943
315.026
315.086
315.118
315.118
315.086
315.026
314.943
314.844
314.737
314.627
314.52
314.423
314.352
308.628
308.671
308.729
308.793
308.859
308.923
308.982
309.032
309.068
309.087
309.087
309.068
309.032
308.982
308.923
308.859
308.793
308.729
308.671
308.628
302.893
302.908
302.927
302.949
302.971
302.992
303.012
303.029
303.041
303.047
303.047
303.041
303.029
303.012
302.992
302.971
302.949
302.927
302.908
302.893
343.073
343.3
343.588
343.901
344.222
344.536
344.824
345.066
345.242
345.334
345.334
345.242
345.066
344.824
344.536
344.222
343.901
343.588
343.3
343.073
337.448
337.64
337.889
338.159
338.437
338.708
338.957
339.167
339.319
339.399
339.399
339.319
339.167
338.957
338.708
338.437
338.159
337.889
337.64
337.448
331.773
331.932
332.142
332.37
332.605
332.834
333.045
333.221
333.35
333.417
333.417
333.35
333.221
333.045
332.834
332.605
332.37
332.142
331.932
331.773
326.056
326.184
326.355
326.542
326.734
326.921
327.093
327.237
327.342
327.397
327.397
327.342
327.237
327.093
326.921
326.734
326.542
326.355
326.184
326.056
320.306
320.404
320.537
320.682
320.831
320.977
321.11
321.222
321.304
321.347
321.347
321.304
321.222
321.11
320.977
320.831
320.682
320.537
320.404
320.306
314.529
314.599
314.694
314.797
314.904
315.008
315.103
315.183
315.241
315.272
315.272
315.241
315.183
315.103
315.008
314.904
314.797
314.694
314.599
314.529
308.735
308.776
308.833
308.895
308.959
309.022
309.079
309.127
309.162
309.18
309.18
309.162
309.127
309.079
309.022
308.959
308.895
308.833
308.776
308.735
302.929
302.943
302.962
302.983
303.004
303.025
303.045
303.061
303.072
303.078
303.078
303.072
303.061
303.045
303.025
303.004
302.983
302.962
302.943
302.929
343.778
343.998
344.277
344.578
344.887
345.187
345.463
345.693
345.861
345.949
345.949
345.861
345.693
345.463
345.187
344.887
344.578
344.277
343.998
343.778
338.06
338.246
338.487
338.748
339.015
339.275
339.513
339.712
339.857
339.933
339.933
339.857
339.712
339.513
339.275
339.015
338.748
338.487
338.246
338.06
332.292
332.446
332.649
332.87
333.095
333.315
333.516
333.685
333.807
333.871
333.871
333.807
333.685
333.516
333.315
333.095
332.87
332.649
332.446
332.292
326.481
326.606
326.771
326.951
327.136
327.316
327.48
327.618
327.717
327.77
327.77
327.717
327.618
327.48
327.316
327.136
326.951
326.771
326.606
326.481
320.637
320.733
320.861
321.001
321.144
321.284
321.412
321.519
321.596
321.637
321.637
321.596
321.519
321.412
321.284
321.144
321.001
320.861
320.733
320.637
314.767
314.834
314.926
315.026
315.128
315.228
315.319
315.395
315.451
315.48
315.48
315.451
315.395
315.319
315.228
315.128
315.026
314.926
314.834
314.767
308.877
308.918
308.973
309.033
309.094
309.154
309.209
309.255
309.288
309.305
309.305
309.288
309.255
309.209
309.154
309.094
309.033
308.973
308.918
308.877
302.977
302.991
303.009
303.029
303.05
303.07
303.088
303.103
303.115
303.12
303.12
303.115
303.103
303.088
303.07
303.05
303.029
303.009
302.991
302.977
344.66
344.872
345.14
345.428
345.722
346.007
346.268
346.486
346.643
346.726
346.726
346.643
346.486
346.268
346.007
345.722
345.428
345.14
344.872
344.66
338.827
339.006
339.237
339.487
339.741
339.988
340.213
340.401
340.538
340.609
340.609
340.538
340.401
340.213
339.988
339.741
339.487
339.237
339.006
338.827
332.942
333.09
333.285
333.496
333.711
333.92
334.11
334.269
334.384
334.445
334.445
334.384
334.269
334.11
333.92
333.711
333.496
333.285
333.09
332.942
327.014
327.134
327.293
327.465
327.641
327.812
327.967
328.097
328.191
328.24
328.24
328.191
328.097
327.967
327.812
327.641
327.465
327.293
327.134
327.014
321.052
321.144
321.267
321.401
321.538
321.671
321.792
321.893
321.966
322.004
322.004
321.966
321.893
321.792
321.671
321.538
321.401
321.267
321.144
321.052
315.064
315.129
315.216
315.312
315.41
315.505
315.591
315.663
315.715
315.742
315.742
315.715
315.663
315.591
315.505
315.41
315.312
315.216
315.129
315.064
309.056
309.095
309.147
309.205
309.263
309.32
309.372
309.415
309.447
309.463
309.463
309.447
309.415
309.372
309.32
309.263
309.205
309.147
309.095
309.056
303.037
303.05
303.068
303.087
303.106
303.126
303.143
303.157
303.168
303.173
303.173
303.168
303.157
303.143
303.126
303.106
303.087
303.068
303.05
303.037
345.721
345.924
346.179
346.453
346.731
346.999
347.243
347.447
347.593
347.67
347.67
347.593
347.447
347.243
346.999
346.731
346.453
346.179
345.924
345.721
339.749
339.92
340.14
340.377
340.618
340.85
341.061
341.237
341.364
341.431
341.431
341.364
341.237
341.061
340.85
340.618
340.377
340.14
339.92
339.749
333.724
333.866
334.051
334.252
334.455
334.652
334.83
334.979
335.086
335.142
335.142
335.086
334.979
334.83
334.652
334.455
334.252
334.051
333.866
333.724
327.655
327.77
327.921
328.085
328.251
328.412
328.558
328.679
328.767
328.813
328.813
328.767
328.679
328.558
328.412
328.251
328.085
327.921
327.77
327.655
321.552
321.639
321.757
321.884
322.013
322.138
322.252
322.346
322.414
322.45
322.45
322.414
322.346
322.252
322.138
322.013
321.884
321.757
321.639
321.552
315.421
315.483
315.567
315.657
315.75
315.839
315.92
315.987
316.036
316.062
316.062
316.036
315.987
315.92
315.839
315.75
315.657
315.567
315.483
315.421
309.271
309.308
309.358
309.412
309.468
309.521
309.57
309.611
309.64
309.655
309.655
309.64
309.611
309.57
309.521
309.468
309.412
309.358
309.308
309.271
303.109
303.121
303.138
303.156
303.175
303.193
303.209
303.223
303.233
303.238
303.238
303.233
303.223
303.209
303.193
303.175
303.156
303.138
303.121
303.109
346.963
347.155
347.396
347.655
347.915
348.166
348.393
348.581
348.717
348.788
348.788
348.717
348.581
348.393
348.166
347.915
347.655
347.396
347.155
346.963
340.827
340.99
341.198
341.422
341.647
341.864
342.061
342.224
342.341
342.403
342.403
342.341
342.224
342.061
341.864
341.647
341.422
341.198
340.99
340.827
334.638
334.773
334.949
335.138
335.329
335.512
335.678
335.816
335.915
335.967
335.967
335.915
335.816
335.678
335.512
335.329
335.138
334.949
334.773
334.638
328.405
328.514
328.657
328.811
328.967
329.117
329.253
329.366
329.447
329.489
329.489
329.447
329.366
329.253
329.117
328.967
328.811
328.657
328.514
328.405
322.136
322.219
322.33
322.45
322.571
322.688
322.794
322.881
322.944
322.977
322.977
322.944
322.881
322.794
322.688
322.571
322.45
322.33
322.219
322.136
315.838
315.898
315.977
316.062
316.149
316.232
316.308
316.37
316.415
316.439
316.439
316.415
316.37
316.308
316.232
316.149
316.062
315.977
315.898
315.838
309.522
309.557
309.604
309.656
309.708
309.758
309.803
309.841
309.868
309.882
309.882
309.868
309.841
309.803
309.758
309.708
309.656
309.604
309.557
309.522
303.193
303.205
303.221
303.238
303.255
303.272
303.287
303.3
303.309
303.314
303.314
303.309
303.3
303.287
303.272
303.255
303.238
303.221
303.205
303.193
348.385
348.566
348.794
349.035
349.278
349.511
349.72
349.893
350.018
350.083
350.083
350.018
349.893
349.72
349.511
349.278
349.035
348.794
348.566
348.385
342.063
342.216
342.412
342.622
342.832
343.033
343.215
343.365
343.472
343.528
343.528
343.472
343.365
343.215
343.033
342.832
342.622
342.412
342.216
342.063
335.686
335.814
335.979
336.156
336.334
336.504
336.657
336.784
336.875
336.922
336.922
336.875
336.784
336.657
336.504
336.334
336.156
335.979
335.814
335.686
329.264
329.366
329.501
329.646
329.791
329.931
330.056
330.16
330.234
330.273
330.273
330.234
330.16
330.056
329.931
329.791
329.646
329.501
329.366
329.264
322.805
322.883
322.988
323.1
323.214
323.322
323.419
323.5
323.558
323.588
323.588
323.558
323.5
323.419
323.322
323.214
323.1
322.988
322.883
322.805
316.317
316.373
316.447
316.528
316.609
316.686
316.756
316.813
316.854
316.876
316.876
316.854
316.813
316.756
316.686
316.609
316.528
316.447
316.373
316.317
309.809
309.843
309.887
309.936
309.984
310.031
310.072
310.107
310.132
310.145
310.145
310.132
310.107
310.072
310.031
309.984
309.936
309.887
309.843
309.809
303.29
303.301
303.316
303.332
303.348
303.364
303.378
303.389
303.398
303.402
303.402
303.398
303.389
303.378
303.364
303.348
303.332
303.316
303.301
303.29
349.989
350.16
350.372
350.597
350.822
351.036
351.229
351.387
351.5
351.559
351.559
351.5
351.387
351.229
351.036
350.822
350.597
350.372
350.16
349.989
343.457
343.601
343.784
343.979
344.174
344.36
344.526
344.663
344.761
344.812
344.812
344.761
344.663
344.526
344.36
344.174
343.979
343.784
343.601
343.457
336.868
336.988
337.142
337.307
337.472
337.629
337.77
337.886
337.968
338.011
338.011
337.968
337.886
337.77
337.629
337.472
337.307
337.142
336.988
336.868
330.233
330.329
330.455
330.59
330.725
330.853
330.968
331.063
331.131
331.166
331.166
331.131
331.063
330.968
330.853
330.725
330.59
330.455
330.329
330.233
323.56
323.634
323.731
323.836
323.941
324.041
324.13
324.204
324.257
324.284
324.284
324.257
324.204
324.13
324.041
323.941
323.836
323.731
323.634
323.56
316.857
316.909
316.979
317.054
317.129
317.2
317.264
317.317
317.354
317.374
317.374
317.354
317.317
317.264
317.2
317.129
317.054
316.979
316.909
316.857
310.134
310.165
310.207
310.252
310.297
310.34
310.378
310.41
310.432
310.444
310.444
310.432
310.41
310.378
310.34
310.297
310.252
310.207
310.165
310.134
303.398
303.409
303.423
303.438
303.453
303.467
303.48
303.491
303.498
303.502
303.502
303.498
303.491
303.48
303.467
303.453
303.438
303.423
303.409
303.398
351.777
351.936
352.134
352.342
352.55
352.746
352.921
353.065
353.167
353.221
353.221
353.167
353.065
352.921
352.746
352.55
352.342
352.134
351.936
351.777
345.01
345.145
345.315
345.496
345.675
345.846
345.997
346.122
346.21
346.257
346.257
346.21
346.122
345.997
345.846
345.675
345.496
345.315
345.145
345.01
338.185
338.297
338.441
338.594
338.745
338.889
339.018
339.123
339.198
339.237
339.237
339.198
339.123
339.018
338.889
338.745
338.594
338.441
338.297
338.185
331.312
331.402
331.52
331.645
331.769
331.887
331.992
332.078
332.139
332.171
332.171
332.139
332.078
331.992
331.887
331.769
331.645
331.52
331.402
331.312
324.401
324.47
324.561
324.658
324.754
324.846
324.928
324.995
325.042
325.067
325.067
325.042
324.995
324.928
324.846
324.754
324.658
324.561
324.47
324.401
317.459
317.508
317.573
317.642
317.711
317.776
317.835
317.883
317.917
317.934
317.934
317.917
317.883
317.835
317.776
317.711
317.642
317.573
317.508
317.459
310.496
310.525
310.564
310.605
310.647
310.686
310.721
310.75
310.77
310.781
310.781
310.77
310.75
310.721
310.686
310.647
310.605
310.564
310.525
310.496
303.52
303.529
303.542
303.556
303.57
303.583
303.595
303.605
303.612
303.615
303.615
303.612
303.605
303.595
303.583
303.57
303.556
303.542
303.529
303.52
353.748
353.896
354.08
354.272
354.462
354.641
354.8
354.93
355.022
355.07
355.07
355.022
354.93
354.8
354.641
354.462
354.272
354.08
353.896
353.748
346.722
346.848
347.006
347.173
347.337
347.493
347.63
347.743
347.823
347.864
347.864
347.823
347.743
347.63
347.493
347.337
347.173
347.006
346.848
346.722
339.637
339.742
339.875
340.016
340.155
340.286
340.403
340.498
340.566
340.601
340.601
340.566
340.498
340.403
340.286
340.155
340.016
339.875
339.742
339.637
332.503
332.587
332.695
332.811
332.925
333.032
333.127
333.205
333.26
333.289
333.289
333.26
333.205
333.127
333.032
332.925
332.811
332.695
332.587
332.503
325.328
325.392
325.477
325.566
325.655
325.738
325.813
325.873
325.916
325.939
325.939
325.916
325.873
325.813
325.738
325.655
325.566
325.477
325.392
325.328
318.122
318.168
318.228
318.292
318.355
318.415
318.468
318.511
318.542
318.558
318.558
318.542
318.511
318.468
318.415
318.355
318.292
318.228
318.168
318.122
310.894
310.921
310.958
310.996
311.034
311.07
311.102
311.128
311.146
311.156
311.156
311.146
311.128
311.102
311.07
311.034
310.996
310.958
310.921
310.894
303.653
303.662
303.675
303.687
303.7
303.712
303.723
303.732
303.738
303.741
303.741
303.738
303.732
303.723
303.712
303.7
303.687
303.675
303.662
303.653
355.903
356.041
356.21
356.387
356.56
356.723
356.867
356.984
357.066
357.109
357.109
357.066
356.984
356.867
356.723
356.56
356.387
356.21
356.041
355.903
348.595
348.711
348.857
349.01
349.161
349.302
349.426
349.528
349.6
349.637
349.637
349.6
349.528
349.426
349.302
349.161
349.01
348.857
348.711
348.595
341.225
341.322
341.445
341.574
341.701
341.821
341.926
342.012
342.073
342.104
342.104
342.073
342.012
341.926
341.821
341.701
341.574
341.445
341.322
341.225
333.804
333.882
333.982
334.088
334.192
334.29
334.376
334.446
334.496
334.522
334.522
334.496
334.446
334.376
334.29
334.192
334.088
333.982
333.882
333.804
326.342
326.401
326.479
326.561
326.643
326.719
326.786
326.84
326.879
326.899
326.899
326.879
326.84
326.786
326.719
326.643
326.561
326.479
326.401
326.342
318.847
318.889
318.945
319.004
319.062
319.116
319.164
319.203
319.231
319.245
319.245
319.231
319.203
319.164
319.116
319.062
319.004
318.945
318.889
318.847
311.33
311.355
311.389
311.424
311.459
311.491
311.52
311.544
311.56
311.569
311.569
311.56
311.544
311.52
311.491
311.459
311.424
311.389
311.355
311.33
303.8
303.808
303.819
303.831
303.843
303.854
303.863
303.871
303.877
303.879
303.879
303.877
303.871
303.863
303.854
303.843
303.831
303.819
303.808
303.8
358.241
358.368
358.524
358.686
358.844
358.991
359.121
359.226
359.3
359.338
359.338
359.3
359.226
359.121
358.991
358.844
358.686
358.524
358.368
358.241
350.625
350.733
350.868
351.008
351.145
351.273
351.385
351.476
351.54
351.573
351.573
351.54
351.476
351.385
351.273
351.145
351.008
350.868
350.733
350.625
342.947
343.036
343.149
343.268
343.384
343.492
343.587
343.664
343.719
343.747
343.747
343.719
343.664
343.587
343.492
343.384
343.268
343.149
343.036
342.947
335.215
335.287
335.379
335.476
335.571
335.66
335.738
335.801
335.845
335.868
335.868
335.845
335.801
335.738
335.66
335.571
335.476
335.379
335.287
335.215
327.441
327.496
327.568
327.643
327.717
327.786
327.846
327.895
327.93
327.948
327.948
327.93
327.895
327.846
327.786
327.717
327.643
327.568
327.496
327.441
319.633
319.672
319.724
319.777
319.83
319.879
319.923
319.958
319.982
319.995
319.995
319.982
319.958
319.923
319.879
319.83
319.777
319.724
319.672
319.633
311.803
311.826
311.857
311.889
311.921
311.95
311.976
311.997
312.012
312.02
312.02
312.012
311.997
311.976
311.95
311.921
311.889
311.857
311.826
311.803
303.958
303.966
303.976
303.987
303.997
304.007
304.016
304.023
304.028
304.031
304.031
304.028
304.023
304.016
304.007
303.997
303.987
303.976
303.966
303.958
360.757
360.874
361.018
361.165
361.309
361.442
361.559
361.653
361.719
361.753
361.753
361.719
361.653
361.559
361.442
361.309
361.165
361.018
360.874
360.757
352.81
352.91
353.033
353.161
353.286
353.401
353.502
353.584
353.641
353.671
353.671
353.641
353.584
353.502
353.401
353.286
353.161
353.033
352.91
352.81
344.799
344.881
344.985
345.093
345.199
345.297
345.382
345.451
345.5
345.525
345.525
345.5
345.451
345.382
345.297
345.199
345.093
344.985
344.881
344.799
336.732
336.799
336.884
336.972
337.058
337.138
337.209
337.265
337.305
337.325
337.325
337.305
337.265
337.209
337.138
337.058
336.972
336.884
336.799
336.732
328.622
328.673
328.739
328.808
328.875
328.937
328.992
329.036
329.067
329.083
329.083
329.067
329.036
328.992
328.937
328.875
328.808
328.739
328.673
328.622
320.478
320.514
320.561
320.611
320.659
320.703
320.742
320.773
320.796
320.807
320.807
320.796
320.773
320.742
320.703
320.659
320.611
320.561
320.514
320.478
312.31
312.332
312.36
312.39
312.419
312.445
312.469
312.488
312.501
312.508
312.508
312.501
312.488
312.469
312.445
312.419
312.39
312.36
312.332
312.31
304.128
304.135
304.145
304.155
304.164
304.173
304.181
304.188
304.192
304.194
304.194
304.192
304.188
304.181
304.173
304.164
304.155
304.145
304.135
304.128
363.44
363.548
363.679
363.814
363.944
364.064
364.169
364.253
364.312
364.343
364.343
364.312
364.253
364.169
364.064
363.944
363.814
363.679
363.548
363.44
355.138
355.23
355.343
355.46
355.573
355.677
355.768
355.841
355.892
355.918
355.918
355.892
355.841
355.768
355.677
355.573
355.46
355.343
355.23
355.138
346.77
346.846
346.942
347.04
347.136
347.224
347.301
347.363
347.406
347.429
347.429
347.406
347.363
347.301
347.224
347.136
347.04
346.942
346.846
346.77
338.347
338.408
338.486
338.567
338.645
338.717
338.78
338.831
338.866
338.884
338.884
338.866
338.831
338.78
338.717
338.645
338.567
338.486
338.408
338.347
329.879
329.926
329.986
330.049
330.11
330.166
330.215
330.255
330.282
330.296
330.296
330.282
330.255
330.215
330.166
330.11
330.049
329.986
329.926
329.879
321.377
321.41
321.453
321.498
321.541
321.582
321.617
321.645
321.664
321.675
321.675
321.664
321.645
321.617
321.582
321.541
321.498
321.453
321.41
321.377
312.85
312.87
312.896
312.923
312.949
312.973
312.994
313.011
313.023
313.029
313.029
313.023
313.011
312.994
312.973
312.949
312.923
312.896
312.87
312.85
304.309
304.316
304.324
304.333
304.342
304.35
304.357
304.363
304.367
304.369
304.369
304.367
304.363
304.357
304.35
304.342
304.333
304.324
304.316
304.309
366.259
366.359
366.479
366.601
366.72
366.828
366.922
366.997
367.05
367.077
367.077
367.05
366.997
366.922
366.828
366.72
366.601
366.479
366.359
366.259
357.58
357.664
357.768
357.874
357.977
358.071
358.152
358.218
358.264
358.287
358.287
358.264
358.218
358.152
358.071
357.977
357.874
357.768
357.664
357.58
348.835
348.905
348.992
349.082
349.169
349.249
349.318
349.373
349.412
349.432
349.432
349.412
349.373
349.318
349.249
349.169
349.082
348.992
348.905
348.835
340.035
340.091
340.163
340.236
340.307
340.372
340.429
340.474
340.506
340.523
340.523
340.506
340.474
340.429
340.372
340.307
340.236
340.163
340.091
340.035
331.192
331.235
331.29
331.347
331.402
331.453
331.497
331.533
331.557
331.57
331.57
331.557
331.533
331.497
331.453
331.402
331.347
331.29
331.235
331.192
322.314
322.345
322.384
322.425
322.464
322.501
322.532
322.558
322.575
322.584
322.584
322.575
322.558
322.532
322.501
322.464
322.425
322.384
322.345
322.314
313.413
313.431
313.455
313.479
313.503
313.525
313.544
313.559
313.57
313.575
313.575
313.57
313.559
313.544
313.525
313.503
313.479
313.455
313.431
313.413
304.498
304.504
304.512
304.52
304.528
304.535
304.542
304.547
304.55
304.552
304.552
304.55
304.547
304.542
304.535
304.528
304.52
304.512
304.504
304.498
369.141
369.232
369.342
369.454
369.561
369.659
369.744
369.812
369.859
369.883
369.883
369.859
369.812
369.744
369.659
369.561
369.454
369.342
369.232
369.141
360.064
360.142
360.237
360.334
360.427
360.512
360.586
360.644
360.685
360.706
360.706
360.685
360.644
360.586
360.512
360.427
360.334
360.237
360.142
360.064
350.927
350.991
351.071
351.153
351.232
351.304
351.367
351.416
351.451
351.469
351.469
351.451
351.416
351.367
351.304
351.232
351.153
351.071
350.991
350.927
341.74
341.791
341.857
341.924
341.988
342.047
342.099
342.139
342.168
342.182
342.182
342.168
342.139
342.099
342.047
341.988
341.924
341.857
341.791
341.74
332.513
332.552
332.603
332.655
332.706
332.752
332.791
332.823
332.845
332.857
332.857
332.845
332.823
332.791
332.752
332.706
332.655
332.603
332.552
332.513
323.256
323.284
323.32
323.357
323.393
323.426
323.454
323.477
323.493
323.501
323.501
323.493
323.477
323.454
323.426
323.393
323.357
323.32
323.284
323.256
313.977
313.994
314.016
314.038
314.06
314.08
314.097
314.11
314.12
314.125
314.125
314.12
314.11
314.097
314.08
314.06
314.038
314.016
313.994
313.977
304.687
304.692
304.7
304.707
304.714
304.721
304.727
304.731
304.735
304.736
304.736
304.735
304.731
304.727
304.721
304.714
304.707
304.7
304.692
304.687
371.897
371.982
372.083
372.186
372.284
372.373
372.45
372.512
372.554
372.576
372.576
372.554
372.512
372.45
372.373
372.284
372.186
372.083
371.982
371.897
362.412
362.484
362.571
362.661
362.746
362.823
362.89
362.944
362.981
363
363
362.981
362.944
362.89
362.823
362.746
362.661
362.571
362.484
362.412
352.883
352.942
353.016
353.092
353.164
353.23
353.287
353.332
353.363
353.379
353.379
353.363
353.332
353.287
353.23
353.164
353.092
353.016
352.942
352.883
343.318
343.366
343.427
343.489
343.548
343.602
343.649
343.686
343.711
343.725
343.725
343.711
343.686
343.649
343.602
343.548
343.489
343.427
343.366
343.318
333.727
333.764
333.811
333.859
333.906
333.948
333.984
334.013
334.033
334.043
334.043
334.033
334.013
333.984
333.948
333.906
333.859
333.811
333.764
333.727
324.116
324.142
324.176
324.21
324.243
324.274
324.3
324.32
324.335
324.342
324.342
324.335
324.32
324.3
324.274
324.243
324.21
324.176
324.142
324.116
314.492
314.507
314.527
314.548
314.568
314.586
314.602
314.614
314.623
314.627
314.627
314.623
314.614
314.602
314.586
314.568
314.548
314.527
314.507
314.492
304.859
304.864
304.871
304.878
304.884
304.89
304.896
304.9
304.903
304.904
304.904
304.903
304.9
304.896
304.89
304.884
304.878
304.871
304.864
304.859
374.044
374.123
374.219
374.315
374.407
374.49
374.562
374.619
374.658
374.678
374.678
374.658
374.619
374.562
374.49
374.407
374.315
374.219
374.123
374.044
364.171
364.239
364.322
364.406
364.486
364.558
364.621
364.67
364.705
364.723
364.723
364.705
364.67
364.621
364.558
364.486
364.406
364.322
364.239
364.171
354.304
354.36
354.43
354.501
354.569
354.631
354.684
354.726
354.756
354.771
354.771
354.756
354.726
354.684
354.631
354.569
354.501
354.43
354.36
354.304
344.438
344.483
344.541
344.599
344.655
344.706
344.75
344.784
344.808
344.821
344.821
344.808
344.784
344.75
344.706
344.655
344.599
344.541
344.483
344.438
334.573
334.608
334.652
334.698
334.742
334.781
334.815
334.842
334.861
334.871
334.871
334.861
334.842
334.815
334.781
334.742
334.698
334.652
334.608
334.573
324.707
324.732
324.764
324.797
324.828
324.856
324.881
324.9
324.914
324.921
324.921
324.914
324.9
324.881
324.856
324.828
324.797
324.764
324.732
324.707
314.841
314.856
314.875
314.895
314.914
314.931
314.946
314.957
314.965
314.97
314.97
314.965
314.957
314.946
314.931
314.914
314.895
314.875
314.856
314.841
304.975
304.98
304.986
304.993
304.999
305.005
305.01
305.014
305.017
305.018
305.018
305.017
305.014
305.01
305.005
304.999
304.993
304.986
304.98
304.975
)
;

boundaryField
{
    hotSide
    {
        type            fixedGradient;
        gradient        nonuniform List<scalar> 
400
(
434.395
436.222
439.878
445.37
452.703
461.887
472.931
485.847
500.646
517.339
535.938
556.453
578.893
603.268
629.584
657.848
688.066
720.241
754.378
790.478
437.525
439.327
442.935
448.356
455.598
464.674
475.597
488.381
503.04
519.59
538.045
558.416
580.716
604.955
631.141
659.282
689.384
721.45
755.486
791.493
440.912
442.685
446.235
451.571
458.706
467.656
478.436
491.067
505.566
521.952
540.243
560.452
582.596
606.684
632.728
660.735
690.712
722.663
756.592
792.501
444.5
446.239
449.722
454.961
461.972
470.775
481.394
493.851
508.17
524.374
542.483
562.516
584.489
608.416
634.308
662.173
692.019
723.849
757.668
793.477
448.19
449.89
453.297
458.426
465.3
473.942
484.383
496.65
510.773
526.781
544.696
564.543
586.338
610.097
635.833
663.554
693.267
724.977
758.685
794.394
451.827
453.485
456.811
461.825
468.552
477.024
487.278
499.348
513.269
529.075
546.795
566.453
588.071
611.664
637.247
664.827
694.412
726.006
759.61
795.225
455.202
456.819
460.065
464.962
471.545
479.85
489.921
501.799
515.526
531.14
548.673
568.154
589.605
613.045
638.486
665.938
695.406
726.895
760.406
795.937
458.067
459.646
462.819
467.613
474.066
482.223
492.131
503.841
517.398
532.844
550.216
569.545
590.855
614.164
639.487
666.831
696.203
727.606
761.039
796.502
460.164
461.714
464.832
469.547
475.901
483.944
493.731
505.313
518.743
534.065
551.318
570.535
591.741
614.955
640.191
667.458
696.761
728.102
761.48
796.895
461.275
462.81
465.897
470.569
476.869
484.852
494.572
506.086
519.447
534.702
551.892
571.05
592.201
615.365
640.556
667.782
697.048
728.357
761.707
797.096
461.275
462.81
465.897
470.569
476.869
484.852
494.572
506.086
519.447
534.702
551.892
571.05
592.201
615.365
640.556
667.782
697.048
728.357
761.707
797.096
460.164
461.714
464.832
469.547
475.901
483.944
493.731
505.313
518.743
534.065
551.318
570.535
591.741
614.955
640.191
667.458
696.761
728.102
761.48
796.895
458.067
459.646
462.819
467.613
474.066
482.223
492.131
503.841
517.398
532.844
550.216
569.545
590.855
614.164
639.487
666.831
696.203
727.606
761.039
796.502
455.202
456.819
460.065
464.962
471.545
479.85
489.921
501.799
515.526
531.14
548.673
568.154
589.605
613.045
638.486
665.938
695.406
726.895
760.406
795.937
451.827
453.485
456.811
461.825
468.552
477.024
487.278
499.348
513.269
529.075
546.795
566.453
588.071
611.664
637.247
664.827
694.412
726.006
759.61
795.225
448.19
449.89
453.297
458.426
465.3
473.942
484.383
496.65
510.773
526.781
544.696
564.543
586.338
610.097
635.833
663.554
693.267
724.977
758.685
794.394
444.5
446.239
449.722
454.961
461.972
470.775
481.394
493.851
508.17
524.374
542.483
562.516
584.489
608.416
634.308
662.173
692.019
723.849
757.668
793.477
440.912
442.685
446.235
451.571
458.706
467.656
478.436
491.067
505.566
521.952
540.243
560.452
582.596
606.684
632.728
660.735
690.712
722.663
756.592
792.501
437.525
439.327
442.935
448.356
455.598
464.674
475.597
488.381
503.04
519.59
538.045
558.416
580.716
604.955
631.141
659.282
689.384
721.45
755.486
791.493
434.395
436.222
439.878
445.37
452.703
461.887
472.931
485.847
500.646
517.339
535.938
556.453
578.893
603.268
629.584
657.848
688.066
720.241
754.378
790.478
)
;
    }
    coldSide
    {
        type            mixed;
        refValue        uniform 300;
        refGradient     uniform 0;
        valueFraction   uniform 0.991591;
        source          uniform 0;
        value           nonuniform List<scalar> 
400
(
300.024
300.024
300.024
300.025
300.025
300.026
300.026
300.027
300.028
300.029
300.03
300.031
300.032
300.033
300.035
300.036
300.038
300.039
300.041
300.042
300.024
300.024
300.024
300.025
300.025
300.026
300.026
300.027
300.028
300.029
300.03
300.031
300.032