/*--------------------------------*- C++ -*----------------------------------*\
| =========                 |                                                 |
| \\      /  F ield         | OpenFOAM: The Open Source CFD Toolbox           |
|  \\    /   O peration     | Version:  2212                                  |
|   \\  /    A nd           | Website:  www.openfoam.com                      |
|    \\/     M anipulation  |                                                 |
\*---------------------------------------------------------------------------*/
FoamFile
{
    version     2.0;
    format      ascii;
    arch        "LSB;label=32;scalar=64";
    class       volScalarField;
    location    "0";
    object      stateMean;
}
// * * * * * * * * * * * * * * * * * * * * * * * * * * * * * * * * * * * * * //

dimensions      [0 0 0 1 0 0 0];

internalField   nonuniform List<scalar> 
3200
(
339.14
338.336
338.197
338.558
338.308
339.753
341.151
338.157
343.73
343.598
341.18
340.017
341.452
338.324
341.169
339.85
336.552
336.82
335.135
341.242
330.496
333.736
334.954
336.424
335.583
338.476
337.547
339.617
339.06
337.762
339.179
335.488
337.091
335.915
338.525
334.743
332.666
330.36
331.521
331.097
324.17
329.363
327.359
327.825
328.964
330.889
331.494
332.536
333.249
332.623
330.152
331.817
328.126
331.173
329.725
332.379
328.183
328.362
328.354
325.463
324.066
323.649
323.283
324.532
323.267
325.819
324.348
327.543
326.056
324.042
327.856
322.102
327.676
324.734
325.302
320.936
322.874
321.348
321.015
318.032
316.424
320.005
319.519
318.479
319.935
316.405
322.154
320.945
322.258
320.601
319.715
320.895
320.843
319.578
317.388
320.189
317.529
319.344
317.123
316.451
317.576
312.292
310.891
314.443
312.831
314.309
315.103
313.217
314.264
313.124
315.435
316.452
315.919
310.149
312.885
318.201
313.21
310.038
311.095
314.75
308.086
311.222
309.172
311.073
308.828
307.206
304.782
308.684
310.117
310.679
310.505
309.691
310.473
307.362
307.734
307.292
306.953
305.959
306.484
307.51
298.749
303.981
302.261
302.724
301.034
303.748
301.127
301.045
306.024
305.37
300.057
303.108
300.492
304.673
304.539
303.041
306.619
302.627
304.202
300.827
338.043
338.429
340.58
341.206
339.682
341.769
345.499
347.32
340.952
340.894
342.12
342.41
342.403
340.631
339.843
341.752
337.626
337.316
343.552
337.565
333.855
335.25
335.737
338.647
336.686
338.118
338.889
339.86
336.035
339.978
339.21
337.651
338.485
336.188
337.938
339.02
337.881
333.025
335.612
330.643
327.519
328.824
331.09
327.421
329.666
332.468
330.386
330.101
329.443
331.614
330.426
329.258
330.557
334.175
329.021
330.902
326.528
329.43
328.455
329.753
327.278
326.031
322.221
327.783
324.154
326.478
329.837
327.788
325.024
326.093
324.054
326.224
324.175
324.78
326.354
324.568
322.045
323.632
321.567
320.578
318.185
319.857
317.797
319.138
317.858
322.244
319.89
322.907
322.02
322.709
319.936
321.087
318.687
321.69
320.003
317.858
319.795
320.793
321.985
318.749
313.629
312.999
314.033
313.797
314.333
315.661
311.664
314.355
314.397
311.699
313.183
316.592
309.819
313.521
316.838
314.899
315.091
311.218
311.104
310.83
307.861
310.817
309.993
308.318
307.502
305.764
308.864
306.722
309.386
305.792
308.197
307.893
306.704
308.753
306.465
310.367
310.694
312.191
306.127
306.009
301.373
305.327
301.378
303.281
301.565
302.277
301.16
305.574
303.788
300.978
303.017
300.793
304.458
304.104
300.586
303.318
303.701
302.442
302.548
304.072
339.814
340.14
340.486
343.824
342.214
342.079
345.771
339.578
345.916
343.378
344.452
341.876
340.955
344.08
344.291
344.126
341.462
343.607
338.795
341.826
337.109
333.415
333.589
334.152
333.401
338.693
336.15
340.65
339.025
341.531
340.427
337.065
337.265
341.05
338.734
338.913
334.885
337.077
332.68
330.312
328.016
330.224
332.301
328.288
332.336
331.878
332.171
335.219
331.194
332.696
334.338
330.61
335.518
330.564
330.679
327.298
329.013
328.984
326.039
328.749
325.88
324.434
323.22
328.577
325.872
327.589
324.992
327.661
326.221
324.227
327.618
326.268
324.736
329.426
328.932
323.647
325.142
326.871
323.036
324.896
320.25
317.21
319.656
320.664
320.161
319.482
320.393
319.709
321.554
318.841
319.183
322.652
319.607
319.445
321.273
322.485
320.003
316.918
318.522
322.955
312.702
312.666
316.502
314.624
313.214
314.293
313.97
315.09
313.499
315.708
315.377
315.944
314.937
313.647
318.247
314.376
313.289
312.419
313.247
312.663
307.664
308.585
309.787
307.319
308.119
308.571
312.442
310.421
307.367
310.948
308.801
307.942
308.007
309.412
310.545
306.786
309.958
310.094
309.633
304.664
302.931
309.375
302.529
302.236
302.724
308.009
302.587
304.185
302.882
303.977
305.27
303.759
303.259
302.768
304.376
303.908
307.188
303.169
303.44
300.998
340.822
344.844
342.828
346.306
342.358
347.705
344.88
345.948
347.094
346.959
344.583
343.916
342.598
341.742
346.917
347.616
345.35
338.615
342.476
341.384
336.118
336.864
338.838
338.735
340.063
339.429
339.762
340.267
343.033
339.801
340.433
342.921
339.886
339.158
338.697
337.674
338.03
336.739
336.484
334.196
330.441
332.583
329.884
333.054
331.958
334.927
332.795
335.768
334.857
331.984
333.096
334.417
335.55
334.589
331.762
331.64
333.482
330.586
329.362
329.678
323.145
324.372
324.794
325.584
325.369
327.403
328.364
326.664
328.976
327.634
326.693
326.555
324.866
326.668
326.344
327.414
327.365
325.998
325.823
326.623
319.156
319.092
320.742
321.137
317.844
318.167
320.843
318.834
323.312
323.062
320.942
319.022
322.571
320.633
322.816
323.232
320.266
317.778
320.582
315.617
317.402
314.001
317.474
317.784
312.459
314.379
313.977
315.389
318.049
315.449
314.677
317.93
316.143
315.448
317.656
311.813
314.89
313.166
311.974
313.235
309.634
310.718
310.635
308.915
311.17
309.249
308.887
306.49
307.811
307.599
307.358
307.467
308.792
305.552
310.839
308.18
314.553
310.108
305.992
305.659
302.93
303.241
302.669
304.519
299.661
303.78
304.274
304.174
304.423
304.098
302.2
303.709
302.591
301.224
302.222
302.715
301.247
303.78
301.329
301.682
341.974
345.022
343.046
342.753
344.746
349.332
346.301
346.261
343.59
348.232
345.607
345.406
349.294
348.589
347.728
344.513
346.13
344.754
340.126
342.344
336.533
335.111
337.817
336.649
339.852
341.627
338.717
339.674
341.392
344.432
342.692
340.095
339.352
342.544
341.417
338.225
337.985
341.843
337.652
335.988
334.688
332.194
332.431
334.181
334.352
335.454
336.021
335.914
337.145
335.888
329.745
332.506
333.693
331.688
332.689
331.64
332.033
329.984
333.147
333.277
327.259
325.702
325.4
328.965
330.076
328.069
325.787
328.663
331.373
328.063
330.446
326.448
329.292
327.485
327.174
329.063
330.428
327.627
323.782
325.363
324.434
321.277
320.864
321.918
323.929
323.587
323.077
322.999
321.564
320.448
323.235
323.341
323.765
321.582
322.078
320.6
322.347
322.045
320.656
320.812
314.664
314.366
317.403
313.323
313.005
318.48
315.081
317.079
316.91
315.659
314.173
315.94
312.452
316.119
320.021
317.658
315.908
314.732
316.436
316.256
308.219
308.064
310.275
308.829
308.487
309.229
309.485
308.034
309.287
306.166
311.385
309.74
310.09
306.425
308.728
308.369
308.962
307.347
308.146
307.972
303.647
301.738
302.418
305.572
302.575
301.899
304.538
302.625
305.259
304.927
302.692
304.479
304.5
302.531
304.277
304.245
303.805
305.601
302.406
301.358
344.686
346.904
344.195
344.422
347.683
348.58
349.415
347.387
349.359
345.661
347.206
349.606
346.478
344.713
345.111
346.376
346.207
343.241
344.303
346.233
338.524
338.665
341.515
340.269
339.547
340.016
342.388
341.343
339.53
341.042
342.094
342.807
341.585
343.149
339.577
339.703
339.024
341.026
338.139
335.189
330.273
331.425
332.471
331.397
334.871
336.665
334.973
336.727
337.856
333.221
337.438
337.262
335.128
336.502
336.433
336.655
335.67
335.177
332.226
331.651
326.767
325.585
330.829
328.504
326.061
332.318
325.366
329.907
330.792
329.388
331.227
330.669
327.61
329.906
328.537
327.643
328
328.081
328.934
326.138
320.549
321.341
319.131
322.066
324.118
323.604
321.293
321.737
321.896
321.062
320.48
324.464
320.588
319.494
322.474
323.417
320.003
320.149
319.757
323.243
316.203
315.383
317.702
313.683
314.738
315.204
312.703
317.311
316.328
318.136
314.276
318.015
315.442
313.151
312.44
314.313
316.974
314.668
313.845
318.876
308.662
309.388
309.563
307.732
310.686
308.529
310.181
309.866
311.029
309.619
308.887
311.403
309.005
313.63
309.062
308.935
308.808
310.385
311.774
308.325
304.243
304.187
302.044
304.224
301.141
301.012
304.534
304.068
305.558
305.096
305.315
302.407
301.696
301.952
301.621
302.36
302.936
305.194
303.983
301.322
346.212
346.775
345.498
346.834
346.895
351.263
347.825
347.946
352.508
349.208
347.676
354.79
350.432
348.694
346.169
347.021
347.13
347.515
345.556
344.376
336.813
342.665
342.098
342.16
344.499
343.189
342.982
345.038
340.607
345.17
347.127
344.792
343.067
340.696
344.452
342.201
341.389
339.876
341.375
339.374
337.177
332.114
334.584
336.658
333.293
335.038
336.512
336.63
337.97
336.553
337.117
335.133
337.546
336.625
334.866
332.179
335.479
332.08
335.591
334.096
326.272
325.401
330.579
331.411
329.432
328.649
327.211
329.372
332.225
328.209
331.142
329.792
332.117
328.491
329.803
328.296
324.971
330.992
328.573
324.256
321.549
322.005
321.929
319.304
322.506
323.886
325.102
324.134
321.494
322.659
323.144
322.075
321.727
324.269
324.358
322.139
322.347
320.53
324.759
320.342
315.389
313.686
313.102
314.515
316.635
317.559
316.726
316.773
313.421
316.276
314.831
315.358
315.663
316.67
315.331
316.951
315.22
316.267
315.345
317.461
306.205
307.964
309.848
308.058
309.215
308.645
309.588
311.83
311.648
310.509
308.053
310.144
312.699
307.536
308.421
308.915
306.135
310.641
309.173
309.318
301.627
303.93
302.432
305.461
302.456
306.923
304.081
302.373
301.691
305.849
303.723
304.14
305.106
305.798
305.354
302.371
301.341
306.956
299.409
302.582
344.715
348.158
346.503
349.722
353.839
352.566
353.643
348.923
354.204
350.121
351.256
349.966
351.24
348.463
353.95
348.283
346.596
348.958
346.19
342.206
337.404
341.184
345.432
341.865
345.647
341.977
342.683
342.035
343.078
343.102
343.045
346.633
342.97
345.09
341.75
342.859
340.895
343.114
339.168
336.212
334.377
333.46
329.307
336.471
335.427
339.381
339.009
336.617
338.823
338.575
337.126
336.6
337.271
337.392
338.271
338.385
338.435
335.087
331.813
334.52
328.699
330.582
330.39
330.261
329.138
330.055
329.698
332.128
332.989
331.288
334.275
331.033
330.484
332.266
329.131
330.686
328.212
327.896
327.767
327.674
324.124
322.631
322.429
321.754
324.691
326.529
323.232
326.137
323.176
321.913
325.787
322.279
324.688
324.089
322.689
323.35
322.747
323.163
322.971
323.576
316.742
315.021
317.055
316.553
317.336
314.619
318.326
318.788
317.612
318.625
316.454
319.056
316.378
317.702
318.347
314.81
313.425
315.826
316.764
317.319
312.062
309.924
311.682
314.227
309.992
308.365
306.948
307.536
312.531
312.084
311.69
312.937
312.411
312.033
310.838
309.104
307.482
309.662
310.83
309.447
305.034
303.612
302.916
302.978
303.116
302.548
302.713
303.614
302.871
303.129
302.689
303.275
302.513
304.486
301.909
302.751
302.803
304.547
303.714
304.304
347.947
350.084
351.038
353.506
350.263
352.766
354.226
350.405
351.3
353.351
355.569
350.578
353.555
353.513
354.354
348.408
349.499
348.427
343.245
344.833
340.147
341.38
342.558
343.685
345.731
347.849
346.813
347.715
345.909
346.138
344.415
346.258
346.465
344.005
344.535
342.785
345.679
344.962
342.316
341.162
334.923
334.74
336.112
337.764
340.426
338.905
339.147
339.813
338.964
340.631
339.316
338.207
338.327
338.795
338.393
337.146
338.033
333.547
335.66
336.18
331.323
329.969
329.815
331.072
329.619
330.283
331.161
331.164
332.026
329.322
334.234
330.087
332.738
328.952
329.445
329.39
330.145
328.164
326.541
326.359
323.106
321.453
325.712
325.241
326.721
324.133
325.686
327.178
325.752
326.164
325.296
326.349
326.639
324.186
322.774
327.677
324.379
324.362
324.819
322.277
317.498
315.967
315.857
319.512
316.806
320.596
316.066
316.949
316.198
319.022
321.209
316.28
316.841
321.191
317.085
315.835
315.818
317.642
315.325
313.69
307.497
307.816
309.169
310.202
310.44
311.948
312.168
307.744
310.048
310.885
310.697
310.893
309.624
314.313
310.598
308.962
311.438
309.776
308.934
310.625
304.506
305.325
304.372
302.609
302.852
303.298
301.406
303.925
302.096
304.106
303.809
304.254
302.395
303.582
304.707
302.97
300.951
300.319
303.483
301.856
349.445
345.932
351.104
352.232
355.58
353.721
355.776
355.237
354.71
354.766
356.843
352.816
354.249
354.134
353.688
352.794
352.422
353.79
343.904
348.04
343.858
343.725
342.598
343.988
350.316
343.776
343.054
343.886
345.168
344.361
345.132
348.278
343.938
348.798
344.67
345.847
341.58
343.517
341.862
341.723
336.537
337.58
339.365
336.924
341.758
341.896
339.426
341.663
339.376
338.854
342.587
343.753
338.479
339.152
343.657
334.315
340.911
338.537
339.744
335.516
330.575
330.105
331.321
334.574
333.386
331.916
333.187
331.783
335.69
334.413
337.336
331.518
334.977
333.996
330.23
330.133
328.684
329.21
327.836
331.189
326.03
324.197
322.802
328.387
322.934
325.632
326.644
325.244
328.488
327.503
328.128
324.676
324.878
328.335
324.014
323.839
328.718
319.687
323.176
323.142
317.075
314.443
314.025
316.059
316.617
315.976
320.268
316.922
319.892
318.191
316.972
316.373
319.147
320.106
318.977
315.64
318.454
317.557
315.355
315.721
311.968
310.427
310.606
314.223
310.617
306.518
311.422
310.77
309.331
311.102
309.962
310.083
311.147
313.482
311.252
310.973
309.986
308.496
307.554
310.382
305.639
304.307
303.227
300.819
304.876
306.484
305.843
302.581
303.35
303.851
301.966
301.794
306.192
301.356
304.426
303.318
300.967
302.687
301.137
305.839
349.596
353.181
351.792
355.357
355.245
356.829
355.477
358.904
356.852
355.821
358.753
355.269
355.818
356.911
355.966
352.633
352.024
350.728
349.754
347.975
344.619
344.685
345.712
345.831
345.422
344.98
347.398
344.793
350.743
346.556
346.008
346.263
344.532
347.483
344.804
343.537
343.797
345.496
343.441
344.639
339.181
339.437
340.448
340.382
341.161
340.416
342.221
340.801
341.34
342.912
344.242
341.197
342.646
339.784
341.172
341.094
337.588
337.361
339.586
336.457
333.366
333.904
330.946
333.066
331.962
334.01
333.868
335.543
332.715
333.736
335.828
334.565
335.403
334.08
332.455
333.439
330.825
329.523
329.701
328.92
324.533
326.261
324.585
323.204
328.732
324.338
326.492
329.405
324.856
323.707
327.728
324.727
325.792
330.502
326.497
324.266
328.092
322.424
321.962
323.111
315.865
317.65
318.115
317.42
319.405
318.909
317.031
322.24
320.189
320.872
319.84
322.343
319.112
319.042
315.895
319.876
317.74
316.852
318.366
318.464
312.475
308.634
312.23
310.268
312.959
309.107
308.9
309.89
311.421
310.171
312.088
311.43
312.967
311.178
313.389
310.292
307.66
310.771
307.585
311.654
299.663
304.056
305.996
302.57
303.135
304.026
301.135
303.87
301.33
304.167
302.051
303.401
300.134
304.721
302.532
303.766
305.232
303.395
303.532
304.765
352.67
352.194
351.98
354.758
356.304
356.553
355.04
360.8
359.923
357.566
355.731
355.918
358.105
355.161
355.289
358.371
354.725
354.83
349.671
350.187
343.605
342.147
349.735
346.769
349.147
348.711
350.422
348.885
352.176
350.057
351.473
348.391
348.113
348.805
348.871
350.401
344.616
343.892
344.07
347.099
337.384
339.828
343.149
339.742
339.06
343.157
339.284
341.149
343.216
342.38
342.361
341.706
340.437
342.297
338.989
340.148
341.289
340.637
338.704
337.855
330.053
330.744
334.734
333.233
333.225
334.467
332.729
335.212
336.177
334.239
333.732
335.714
334.972
334.368
334.805
335.178
334.773
330.992
332.324
329.157
324.701
325.183
326.383
326.636
327.069
326.823
326.328
322.084
326.131
326.382
329.842
327.509
326.767
326.943
322.765
329.613
323.395
326.697
325.431
323.898
317.703
320.345
318.734
319.792
317.188
324.145
319.341
320.946
318.092
317.906
318.711
317.4
317.779
316.831
318.044
318.006
320.136
316.744
316.262
316.73
310.392
308.145
314.38
308.559
311.792
314.459
313.203
312.741
311.453
309.062
312.111
313.211
309.302
308.416
311.644
310.481
309.911
313.087
309.026
309.502
301.019
302.268
302.038
302.693
304.644
304.526
304.971
301.919
307.282
304.794
303.113
304.902
306.7
302.15
302.323
300.236
305.712
305.886
304.142
302.737
352.112
354.175
354.324
352.991
360.022
359.642
356.814
354.829
359.385
355.835
358.401
359.82
354.527
359.376
354.662
358.714
358.568
355.502
353.181
351.432
344.951
346.91
349.469
346.645
349.366
347.865
351.263
348.226
350.078
348.978
347.464
350.722
347.295
349.408
346.976
349.814
346.985
347.587
346.559
343.385
340.038
340.177
339.405
341.09
339.832
341.657
342.02
345.171
343.735
348.773
345.775
343.082
344.388
340.753
342.89
341.996
341.772
339.631
342.853
337.526
333.216
331.618
335.732
337.677
331.806
331.941
332.65
334.143
336.35
335.189
336.411
337.228
334.614
333.078
333.005
335.062
331.082
328.149
329.229
331.802
325.996
324.915
325.589
323.609
326.579
325.639
326.219
326.459
326.047
326.003
329.731
327.674
325.597
325.195
324.021
327.73
326.502
327.69
323.99
322.96
319.176
316.979
317.035
316.852
320.801
319.018
321.597
321.139
324.404
321.976
317.271
321.684
318.84
320.392
317.381
319.03
317.476
318.709
317.01
316.51
309.921
311.577
311.83
311.756
311.094
314.082
311.608
316.914
313.223
312.156
308.836
313.9
311.313
310.532
309.935
312.099
309.208
309.783
310.134
311.76
306.141
302.056
301.68
306.382
302.56
304.36
303.029
304.407
304.264
304.001
304.134
301.348
303.711
304.33
303.956
306.357
305.185
304.703
304.111
301.789
353.772
351.64
353.134
356.198
357.908
357.057
357.117
359.238
358.634
357.25
357.574
358.761
356.629
357.888
356.985
357.711
355.538
353.409
350.716
354.412
345.781
348.199
347.11
349.964
348.008
351.134
350.971
355.256
352.745
352.593
350.028
352.208
354.921
354.942
350.537
349.19
349.481
347.439
345.906
348.474
338.343
339.329
339.931
341.074
342.802
340.857
343.909
343.717
345.496
343.631
343.221
344.219
342.199
344.477
341.767
340.136
339.205
341.004
341.011
338.981
331.035
335.956
331.966
334.734
336.52
335.003
334.012
335.99
337.018
336.282
334.216
338.492
332.889
335.884
333.843
335.174
337.367
331.596
333.115
331.939
324.938
327.577
327.403
328.043
325.875
327.026
326.24
326.601
327.882
329.1
327.656
328.55
327.834
325.989
322.933
327.458
326.482
325.328
325.674
324.663
316.738
320.06
318.225
320.007
318.535
316.995
320.883
322.658
316.841
319.834
317.204
320.356
322.456
320.357
319.199
321.037
319.259
317.947
322.172
317.589
308.447
313.42
310.985
315.525
312.561
311.314
312.008
313.548
312.638
311.242
311.379
312.31
315.893
313.325
311.82
315.061
311.496
313.174
312.347
312.899
302.905
304.139
303.699
304.03
303.562
303.255
307.522
304.413
303.543
305.407
302.124
304.028
304.124
305.563
306.745
302.251
304.987
306.184
300.612
302.932
352.369
354.872
352.308
355.336
356.628
359.718
358.315
360.423
359.181
358.079
361.249
361.467
357.075
360.636
362.028
356.824
356.249
355.045
356.24
352.252
350.51
351.688
345.304
349.598
352.196
350.25
354.304
351.122
356.006
350.987
351.194
352.356
350.197
351.273
350.72
351.575
349.316
350.265
348.773
348.174
343.191
335.949
341.259
341.772
344.75
343.072
342.586
344.232
344.489
345.371
343.506
345.887
345.288
345.909
343.467
345.861
342.702
340.631
340.12
336.982
333.2
332.358
333.15
334.11
335.492
335.004
336.421
339.435
333.908
336.399
335.061
334.896
335.991
332.508
339.103
335.964
334.807
332.67
336.231
331.491
325.073
324.339
325.617
323.841
327.33
328.359
326.135
328.792
329.18
328.207
329.048
330.026
329.084
327.642
326.908
325.659
330.429
327.138
326.475
324.252
318.797
316.766
317.309
316.35
320.292
319.201
324.8
318.495
319.762
321.208
317.023
321.463
323.715
318.303
318.895
319.408
321.165
318.87
320.479
317.913
310.494
312.192
309.619
308.723
311.814
309.608
311.246
312.979
311.896
311.919
314.151
311.378
312.552
312.006
312.945
311.871
310.592
310.263
310.858
311.422
307.119
303.559
304.335
305.059
302.719
301.553
301.138
306.067
306.945
300.732
303.615
302.487
304.046
303.069
302.74
302.488
304.952
305.482
304.111
302.535
355.806
356.215
358.594
356.078
360.049
359.863
360.477
362.771
359.08
364.131
357.874
363.451
358.805
364.051
360.639
354.755
357.01
360.812
356.803
355.179
347.14
348.187
348.145
352.551
349.128
350.939
353.499
354.064
352.139
353.967
352.714
349.04
351.07
354.809
350.627
346.5
349.754
348.552
346.458
348.773
339.647
338.505
342.725
339.221
343.065
340.784
346.407
346.231
345.925
345.794
349.694
343.76
342.279
345.242
343.571
344.435
341.971
345.278
342.65
339.374
337.803
334.603
333.14
334.466
335.956
334.781
336.506
336.42
337.221
335.568
334.874
339.401
338.102
337.073
340.122
336.392
334.537
335.912
334.066
332.982
325.239
329.177
325.726
325.665
329.163
327.525
327.84
329.361
330.251
328.079
330.064
330.096
328.541
328.231
328.67
329.768
324.6
327.439
328.081
325.46
320.38
322.025
320.713
318.656
318.278
323.275
319.49
318.311
322.422
320.488
322.079
320.833
321.251
319.646
319.977
321.873
319.341
320.426
319.171
319.726
308.085
311.388
312.507
313.656
309.818
313.733
311.079
310.725
314.355
311.903
314.206
310.915
311.502
310.952
310.364
312.355
312.49
312.315
308.782
308.997
306.555
305.921
300.952
305.44
302.159
306.252
301.279
306.226
302.128
303.332
307.664
306.251
305.668
302.947
308.825
305.406
306.032
306.081
302.724
299.472
356.259
355.839
355.122
358.953
359.831
362.58
360.651
359.42
361.84
356.574
361.732
361.539
358.137
358.216
358.487
357.176
357.763
357.231
357.304
350.283
348.341
354.357
349.298
354.151
349.865
354.636
351.73
354.772
351.686
354.257
354.919
354.416
355.334
354.824
353.944
350.905
353.723
346.721
352.92
347.541
341.921
346.933
340.271
343.112
342.92
343.865
344.788
347.175
344.182
343.669
346.883
346.821
346.344
344.357
343.167
344.907
338.599
343.327
338.8
341.238
335.012
334.442
337.126
336.994
337.068
338.541
337.265
332.975
336.788
340.315
338.167
334.508
335.689
339.935
335.924
338.373
336.054
335.527
333.486
332.39
325.602
327.532
326.715
328.504
328.082
331.558
329.405
326.566
330.132
331.521
328.701
331.691
326.966
329.032
327.891
329.583
322.55
324.877
329.623
326.027
317.314
318.513
316.842
320.387
319.317
321.793
322.134
320.935
320.043
319.43
321.672
319.952
319.653
317.614
319.037
320.463
319.961
317.874
317.176
319.418
314.745
312.124
313.88
311.981
310.675
312.64
311.852
314.563
314.229
312.584
310.707
310.562
310.345
316.156
313.109
312.658
310.081
312.698
307.002
311.139
304.023
303.751
302.35
306.279
304.068
301.779
305.301
299.983
301.735
306.437
306.932
301.573
302.408
305.568
300.869
305.631
304.877
301.803
302.808
303.125
354.127
359.642
359.827
358.693
357.03
362.723
358.066
360.109
358.656
362.742
362.877
362.378
360.032
358.814
363.208
361.801
360.139
358.464
355.974
353.111
347.572
348.935
351.743
353.582
351.444
350.698
354.213
353.089
356.777
355.465
354.764
357.141
356.283
354.325
354.375
352.314
350.585
347.434
350.774
346.424
342.696
341.396
341.862
342.337
345.372
343.22
346.879
346.395
348.273
348.154
345.603
347.995
347.241
345.754
345.62
345.465
342.946
342.905
340.206
340.754
333.365
334.433
337.4
336.132
335.847
339.077
335.346
335.654
336.124
337.471
337.262
337.55
335.03
336.253
335.563
335.6
334.444
336.646
335.285
335.996
327.352
328.612
326.703
328.974
327.387
327.595
333.069
329.568
329.112
333.816
332.096
330.397
325.713
329.274
330.472
330.179
326.128
325.116
324.986
323.126
317.396
318.498
318.543
316.672
319.895
320.849
322.889
322.334
320.644
320.801
319.13
321.249
318.653
319.341
317.911
318.956
321.9
318.083
322.744
317.841
311.597
310.588
311.94
314.744
313.91
310.96
313.333
310.483
312.653
313.608
312.53
311.371
314.942
311.969
313.021
312.502
309.707
312.396
309.788
311.401
304.846
303.395
306.255
304.675
306.15
303.165
303.699
305.538
306.223
308.949
304.468
302.528
302.371
309.195
304.03
306.236
303.205
307.719
303.185
302.72
354.708
356.917
360.489
360.318
362.561
362.435
364.211
362.966
366.451
361.087
366.347
360.636
365.678
359.556
362.341
359.934
358.357
359.194
359.083
356.947
347.866
357.594
347.807
357.903
352.541
358.413
352.241
358.323
354.186
358.622
358.309
352.281
358.054
354.371
358.861
353.742
357.9
349.256
356.605
346.641
336.261
340.458
343.882
345.65
341.2
344.76
348
345.324
349.712
348.249
349.139
344.51
349.481
345.605
344.642
344.681
345.42
342.439
338.6
339.188
333.152
336.424
337.27
336.78
336.56
336.897
338.955
336.748
340.027
340.817
338.3
340.623
334.676
336.426
339.42
336.439
333.588
332.361
333.792
329.382
322.701
327.193
327.43
326.989
327.19
324.847
331.138
331.131
327.442
334.25
326.282
332.285
327.054
327.116
324.855
326.618
330.299
326.446
325.369
323.589
319.777
316.455
321.162
320.841
322.281
319.811
323.52
320.461
318.975
323.503
320.901
323.396
320.316
318.731
319.559
319.469
316.641
321.199
319.785
317.599
313.774
311.363
313.81
310.387
311.217
309.333
313.938
313.854
314.12
313.635
317.12
311.736
312.583
313.749
312.967
312.234
311.865
312.399
311.149
314.053
306.37
302.52
301.59
305.785
303.755
306.373
305.112
302.576
304.501
306.439
304.116
305.146
300.538
304.061
305.231
305.103
304.069
300.462
304.65
300.9
354.892
359.811
360.397
360.533
361.631
363.092
362.694
364.728
364.013
365.172
362.012
360.873
359.589
363.904
357.974
362.096
359.616
360.737
356.043
352.455
347.423
349.716
350.046
353.419
354.256
356.39
353.462
356.294
354.795
355.113
353.054
355.409
355.089
353.296
354.817
351.263
352.802
348.288
347.965
348.388
339.68
343.509
341.668
344.407
341.637
348.053
345.025
344.307
347.773
349.576
347.772
347.139
348.555
344.553
346.92
346.82
344.497
342.643
343.919
337.196
333.956
335.642
338.067
337.857
336.484
337.574
339.278
338.146
341.718
338.77
343.201
337.84
340.684
341.365
335.776
339.357
332.631
335.334
337.764
330.58
323.738
328.66
327.935
324.108
327.77
330.795
329.982
332.076
331.501
328.286
329.589
330.594
330.542
330.125
329.923
331.41
327.796
326.467
325.14
329.284
318.977
319.525
321.331
320.596
321.007
320.559
323.798
321.077
322.39
320.602
320.275
323.872
320.746
320.193
320.87
320.689
317.387
317.497
317.486
319.173
311.851
312.757
312.016
312.998
310.939
310.293
313.821
314.933
314.777
312.702
311.461
310.64
313.488
313.365
314.723
315.977
313.014
311.554
314.292
313.539
303.63
303.645
304.343
308.852
305.577
303.505
303.481
302.851
300.13
307.381
303.945
304.844
304.59
305.956
303.149
303.349
303.717
305.374
305.497
302.546
)
;

boundaryField
{
    hotSide
    {
        type            fixedGradient;
        gradient        nonuniform List<scalar> 
400
(
321.511
322.87
325.591
329.677
335.133
341.965
350.181
359.788
370.794
383.208
397.037
412.289
428.971
447.088
466.647
487.651
510.105
534.011
559.372
586.191
323.738
325.08
327.767
331.802
337.194
343.949
352.078
361.591
372.498
384.81
398.537
413.687
430.268
448.289
467.755
488.672
511.043
534.872
560.161
586.913
326.149
327.47
330.116
334.091
339.406
346.071
354.099
363.503
374.296
386.491
400.101
415.136
431.606
449.52
468.885
489.706
511.988
535.735
560.948
587.63
328.704
330
332.597
336.503
341.73
348.292
356.205
365.485
376.15
388.215
401.695
416.604
432.954
450.753
470.009
490.73
512.919
536.579
561.714
588.325
331.33
332.599
335.142
338.97
344.099
350.546
358.332
367.477
378.003
389.928
403.271
418.047
434.27
451.949
471.095
491.712
513.807
537.382
562.439
588.978
333.918
335.158
337.643
341.389
346.414
352.74
360.392
369.397
379.779
391.562
404.765
419.407
435.503
453.065
472.101
492.618
514.622
538.114
563.096
589.569
336.321
337.531
339.959
343.622
348.544
354.751
362.274
371.142
381.385
393.031
406.101
420.618
436.595
454.047
472.983
493.409
515.33
538.747
563.663
590.076
338.36
339.543
341.92
345.509
350.339
356.44
363.847
372.595
382.718
394.244
407.2
421.608
437.485
454.844
473.695
494.045
515.897
539.253
564.114
590.478
339.852
341.015
343.352
346.885
351.645
357.665
364.985
373.643
383.675
395.113
407.984
422.312
438.116
455.407
474.197
494.491
516.294
539.606
564.428
590.758
340.643
341.795
344.11
347.613
352.334
358.311
365.584
374.193
384.176
395.567
408.393
422.679
438.443
455.699
474.456
494.722
516.498
539.788
564.589
590.901
340.643
341.795
344.11
347.613
352.334
358.311
365.584
374.193
384.176
395.567
408.393
422.679
438.443
455.699
474.456
494.722
516.498
539.788
564.589
590.901
339.852
341.015
343.352
346.885
351.645
357.665
364.985
373.643
383.675
395.113
407.984
422.312
438.116
455.407
474.197
494.491
516.294
539.606
564.428
590.758
338.36
339.543
341.92
345.509
350.339
356.44
363.847
372.595
382.718
394.244
407.2
421.608
437.485
454.844
473.695
494.045
515.897
539.253
564.114
590.478
336.321
337.531
339.959
343.622
348.544
354.751
362.274
371.142
381.385
393.031
406.101
420.618
436.595
454.047
472.983
493.409
515.33
538.747
563.663
590.076
333.918
335.158
337.643
341.389
346.414
352.74
360.392
369.397
379.779
391.562
404.765
419.407
435.503
453.065
472.101
492.618
514.622
538.114
563.096
589.569
331.33
332.599
335.142
338.97
344.099
350.546
358.332
367.477
378.003
389.928
403.271
418.047
434.27
451.949
471.095
491.712
513.807
537.382
562.439
588.978
328.704
330
332.597
336.503
341.73
348.292
356.205
365.485
376.15
388.215
401.695
416.604
432.954
450.753
470.009
490.73
512.919
536.579
561.714
588.325
326.149
327.47
330.116
334.091
339.406
346.071
354.099
363.503
374.296
386.491
400.101
415.136
431.606
449.52
468.885
489.706
511.988
535.735
560.948
587.63
323.738
325.08
327.767
331.802
337.194
343.949
352.078
361.591
372.498
384.81
398.537
413.687
430.268
448.289
467.755
488.672
511.043
534.872
560.161
586.913
321.511
322.87
325.591
329.677
335.133
341.965
350.181
359.788
370.794
383.208
397.037
412.289
428.971
447.088
466.647
487.651
510.105
534.011
559.372
586.191
)
;
    }
    coldSide
    {
        type            mixed;
        refValue        uniform 300;
        refGradient     uniform 0;
        valueFraction   uniform 0.991591;
        source          uniform 0;
        value           nonuniform List<scalar> 
400
(
299.989
300.012
300.025
300.025
300.031
300.036
300.014
300.042
300.038
300.047
299.997
300.009
300.052
300.024
300.06
300.055
300.034
300.041
300.054
300.031
300.033
300.045
300.079
300.027
300.015
300.035
300.033
300.03
300.045
300.036
300.034
300.019
300.017
300.035
300.03