/*--------------------------------*- C++ -*----------------------------------*\
| =========                 |                                                 |
| \\      /  F ield         | OpenFOAM: The Open Source CFD Toolbox           |
|  \\    /   O peration     | Version:  2212                                  |
|   \\  /    A nd           | Website:  www.openfoam.com                      |
|    \\/     M anipulation  |                                                 |
\*---------------------------------------------------------------------------*/
FoamFile
{
    version     2.0;
    format      ascii;
    arch        "LSB;label=32;scalar=64";
    class       volScalarField;
    location    "0";
    object      Tdirect;
}
// * * * * * * * * * * * * * * * * * * * * * * * * * * * * * * * * * * * * * //

dimensions      [0 0 0 1 0 0 0];

internalField   nonuniform List<scalar> 
3200
(
338.691
338.922
339.217
339.538
339.869
340.193
340.493
340.746
340.93
341.028
341.028
340.93
340.746
340.493
340.193
339.869
339.538
339.217
338.922
338.691
333.682
333.877
334.131
334.409
334.696
334.977
335.236
335.454
335.613
335.697
335.697
335.613
335.454
335.236
334.977
334.696
334.409
334.131
333.877
333.682
328.609
328.771
328.986
329.22
329.462
329.7
329.918
330.103
330.237
330.308
330.308
330.237
330.103
329.918
329.7
329.462
329.22
328.986
328.771
328.609
323.483
323.614
323.789
323.98
324.178
324.372
324.551
324.701
324.811
324.869
324.869
324.811
324.701
324.551
324.372
324.178
323.98
323.789
323.614
323.483
318.314
318.415
318.55
318.699
318.853
319.004
319.142
319.259
319.344
319.389
319.389
319.344
319.259
319.142
319.004
318.853
318.699
318.55
318.415
318.314
313.112
313.183
313.279
313.386
313.496
313.603
313.702
313.786
313.846
313.879
313.879
313.846
313.786
313.702
313.603
313.496
313.386
313.279
313.183
313.112
307.886
307.928
307.986
308.05
308.116
308.18
308.24
308.29
308.326
308.345
308.345
308.326
308.29
308.24
308.18
308.116
308.05
307.986
307.928
307.886
302.645
302.659
302.678
302.7
302.722
302.744
302.764
302.78
302.793
302.799
302.799
302.793
302.78
302.764
302.744
302.722
302.7
302.678
302.659
302.645
338.851
339.08
339.373
339.691
340.018
340.339
340.636
340.885
341.067
341.163
341.163
341.067
340.885
340.636
340.339
340.018
339.691
339.373
339.08
338.851
333.821
334.015
334.267
334.543
334.826
335.104
335.36
335.576
335.733
335.816
335.816
335.733
335.576
335.36
335.104
334.826
334.543
334.267
334.015
333.821
328.728
328.889
329.101
329.333
329.573
329.808
330.024
330.206
330.339
330.409
330.409
330.339
330.206
330.024
329.808
329.573
329.333
329.101
328.889
328.728
323.581
323.71
323.883
324.073
324.269
324.461
324.638
324.786
324.895
324.952
324.952
324.895
324.786
324.638
324.461
324.269
324.073
323.883
323.71
323.581
318.39
318.49
318.624
318.772
318.924
319.073
319.21
319.326
319.41
319.454
319.454
319.41
319.326
319.21
319.073
318.924
318.772
318.624
318.49
318.39
313.166
313.237
313.332
313.438
313.546
313.653
313.751
313.833
313.893
313.925
313.925
313.893
313.833
313.751
313.653
313.546
313.438
313.332
313.237
313.166
307.918
307.96
308.018
308.081
308.146
308.21
308.269
308.318
308.354
308.373
308.373
308.354
308.318
308.269
308.21
308.146
308.081
308.018
307.96
307.918
302.656
302.67
302.689
302.71
302.732
302.754
302.773
302.79
302.802
302.808
302.808
302.802
302.79
302.773
302.754
302.732
302.71
302.689
302.67
302.656
339.172
339.398
339.685
339.997
340.318
340.632
340.922
341.165
341.343
341.436
341.436
341.343
341.165
340.922
340.632
340.318
339.997
339.685
339.398
339.172
334.101
334.292
334.539
334.809
335.087
335.359
335.609
335.82
335.973
336.054
336.054
335.973
335.82
335.609
335.359
335.087
334.809
334.539
334.292
334.101
328.965
329.123
329.332
329.56
329.795
330.025
330.236
330.414
330.543
330.611
330.611
330.543
330.414
330.236
330.025
329.795
329.56
329.332
329.123
328.965
323.775
323.903
324.073
324.259
324.451
324.639
324.812
324.957
325.062
325.118
325.118
325.062
324.957
324.812
324.639
324.451
324.259
324.073
323.903
323.775
318.542
318.64
318.772
318.917
319.066
319.212
319.346
319.459
319.541
319.584
319.584
319.541
319.459
319.346
319.212
319.066
318.917
318.772
318.64
318.542
313.275
313.344
313.438
313.542
313.648
313.752
313.848
313.928
313.987
314.018
314.018
313.987
313.928
313.848
313.752
313.648
313.542
313.438
313.344
313.275
307.983
308.025
308.081
308.143
308.207
308.27
308.327
308.376
308.411
308.429
308.429
308.411
308.376
308.327
308.27
308.207
308.143
308.081
308.025
307.983
302.678
302.692
302.71
302.731
302.753
302.774
302.793
302.809
302.821
302.827
302.827
302.821
302.809
302.793
302.774
302.753
302.731
302.71
302.692
302.678
339.655
339.875
340.155
340.458
340.77
341.074
341.353
341.588
341.759
341.849
341.849
341.759
341.588
341.353
341.074
340.77
340.458
340.155
339.875
339.655
334.52
334.707
334.948
335.211
335.48
335.744
335.985
336.188
336.336
336.413
336.413
336.336
336.188
335.985
335.744
335.48
335.211
334.948
334.707
334.52
329.321
329.476
329.679
329.901
330.129
330.351
330.556
330.727
330.851
330.917
330.917
330.851
330.727
330.556
330.351
330.129
329.901
329.679
329.476
329.321
324.068
324.192
324.358
324.539
324.726
324.907
325.074
325.214
325.316
325.369
325.369
325.316
325.214
325.074
324.907
324.726
324.539
324.358
324.192
324.068
318.77
318.865
318.994
319.135
319.28
319.421
319.551
319.659
319.738
319.78
319.78
319.738
319.659
319.551
319.421
319.28
319.135
318.994
318.865
318.77
313.438
313.505
313.597
313.698
313.801
313.902
313.995
314.072
314.129
314.158
314.158
314.129
314.072
313.995
313.902
313.801
313.698
313.597
313.505
313.438
308.082
308.122
308.177
308.237
308.299
308.36
308.416
308.462
308.496
308.514
308.514
308.496
308.462
308.416
308.36
308.299
308.237
308.177
308.122
308.082
302.711
302.724
302.743
302.763
302.784
302.804
302.823
302.838
302.849
302.855
302.855
302.849
302.838
302.823
302.804
302.784
302.763
302.743
302.724
302.711
340.298
340.512
340.783
341.075
341.375
341.666
341.933
342.157
342.32
342.405
342.405
342.32
342.157
341.933
341.666
341.375
341.075
340.783
340.512
340.298
335.08
335.261
335.495
335.748
336.007
336.259
336.491
336.684
336.824
336.898
336.898
336.824
336.684
336.491
336.259
336.007
335.748
335.495
335.261
335.08
329.797
329.947
330.143
330.358
330.577
330.79
330.985
331.148
331.267
331.329
331.329
331.267
331.148
330.985
330.79
330.577
330.358
330.143
329.947
329.797
324.458
324.578
324.739
324.914
325.093
325.267
325.427
325.56
325.657
325.708
325.708
325.657
325.56
325.427
325.267
325.093
324.914
324.739
324.578
324.458
319.074
319.167
319.291
319.427
319.566
319.702
319.826
319.93
320.005
320.044
320.044
320.005
319.93
319.826
319.702
319.566
319.427
319.291
319.167
319.074
313.656
313.721
313.81
313.907
314.007
314.103
314.192
314.266
314.319
314.348
314.348
314.319
314.266
314.192
314.103
314.007
313.907
313.81
313.721
313.656
308.213
308.252
308.305
308.363
308.423
308.481
308.534
308.579
308.611
308.628
308.628
308.611
308.579
308.534
308.481
308.423
308.363
308.305
308.252
308.213
302.755
302.768
302.785
302.805
302.825
302.845
302.862
302.877
302.888
302.894
302.894
302.888
302.877
302.862
302.845
302.825
302.805
302.785
302.768
302.755
341.105
341.31
341.57
341.85
342.135
342.412
342.665
342.876
343.029
343.109
343.109
343.029
342.876
342.665
342.412
342.135
341.85
341.57
341.31
341.105
335.782
335.956
336.18
336.423
336.67
336.909
337.128
337.311
337.443
337.512
337.512
337.443
337.311
337.128
336.909
336.67
336.423
336.18
335.956
335.782
330.393
330.537
330.726
330.931
331.139
331.342
331.527
331.681
331.792
331.851
331.851
331.792
331.681
331.527
331.342
331.139
330.931
330.726
330.537
330.393
324.947
325.063
325.217
325.384
325.555
325.721
325.872
325.998
326.089
326.137
326.137
326.089
325.998
325.872
325.721
325.555
325.384
325.217
325.063
324.947
319.455
319.544
319.664
319.794
319.927
320.055
320.173
320.271
320.342
320.379
320.379
320.342
320.271
320.173
320.055
319.927
319.794
319.664
319.544
319.455
313.929
313.992
314.077
314.17
314.265
314.356
314.44
314.51
314.561
314.587
314.587
314.561
314.51
314.44
314.356
314.265
314.17
314.077
313.992
313.929
308.377
308.414
308.465
308.521
308.578
308.633
308.684
308.726
308.756
308.772
308.772
308.756
308.726
308.684
308.633
308.578
308.521
308.465
308.414
308.377
302.81
302.822
302.839
302.858
302.877
302.896
302.912
302.927
302.937
302.942
302.942
302.937
302.927
302.912
302.896
302.877
302.858
302.839
302.822
302.81
342.075
342.271
342.519
342.785
343.054
343.315
343.552
343.749
343.892
343.966
343.966
343.892
343.749
343.552
343.315
343.054
342.785
342.519
342.271
342.075
336.626
336.792
337.006
337.236
337.47
337.695
337.9
338.071
338.194
338.259
338.259
338.194
338.071
337.9
337.695
337.47
337.236
337.006
336.792
336.626
331.109
331.247
331.427
331.622
331.819
332.01
332.183
332.327
332.431
332.486
332.486
332.431
332.327
332.183
332.01
331.819
331.622
331.427
331.247
331.109
325.535
325.646
325.792
325.952
326.113
326.269
326.41
326.528
326.613
326.658
326.658
326.613
326.528
326.41
326.269
326.113
325.952
325.792
325.646
325.535
319.914
319.999
320.113
320.236
320.362
320.483
320.593
320.685
320.751
320.785
320.785
320.751
320.685
320.593
320.483
320.362
320.236
320.113
319.999
319.914
314.257
314.317
314.398
314.486
314.576
314.663
314.741
314.807
314.854
314.879
314.879
314.854
314.807
314.741
314.663
314.576
314.486
314.398
314.317
314.257
308.574
308.61
308.659
308.712
308.765
308.817
308.865
308.904
308.932
308.947
308.947
308.932
308.904
308.865
308.817
308.765
308.712
308.659
308.61
308.574
302.876
302.888
302.904
302.922
302.94
302.957
302.973
302.986
302.996
303.001
303.001
302.996
302.986
302.973
302.957
302.94
302.922
302.904
302.888
302.876
343.21
343.396
343.631
343.881
344.134
344.377
344.598
344.781
344.912
344.981
344.981
344.912
344.781
344.598
344.377
344.134
343.881
343.631
343.396
343.21
337.614
337.771
337.974
338.191
338.41
338.62
338.811
338.969
339.083
339.143
339.143
339.083
338.969
338.811
338.62
338.41
338.191
337.974
337.771
337.614
331.947
332.078
332.249
332.432
332.617
332.795
332.957
333.09
333.187
333.237
333.237
333.187
333.09
332.957
332.795
332.617
332.432
332.249
332.078
331.947
326.223
326.328
326.467
326.617
326.768
326.914
327.046
327.155
327.234
327.275
327.275
327.234
327.155
327.046
326.914
326.768
326.617
326.467
326.328
326.223
320.45
320.531
320.639
320.755
320.873
320.986
321.089
321.174
321.235
321.267
321.267
321.235
321.174
321.089
320.986
320.873
320.755
320.639
320.531
320.45
314.641
314.698
314.775
314.858
314.942
315.023
315.096
315.157
315.2
315.223
315.223
315.2
315.157
315.096
315.023
314.942
314.858
314.775
314.698
314.641
308.805
308.839
308.885
308.935
308.986
309.034
309.078
309.114
309.141
309.154
309.154
309.141
309.114
309.078
309.034
308.986
308.935
308.885
308.839
308.805
302.953
302.965
302.98
302.997
303.014
303.03
303.045
303.057
303.066
303.07
303.07
303.066
303.057
303.045
303.03
303.014
302.997
302.98
302.965
302.953
344.51
344.686
344.907
345.141
345.377
345.603
345.806
345.974
346.095
346.158
346.158
346.095
345.974
345.806
345.603
345.377
345.141
344.907
344.686
344.51
338.745
338.894
339.084
339.288
339.492
339.687
339.863
340.009
340.113
340.167
340.167
340.113
340.009
339.863
339.687
339.492
339.288
339.084
338.894
338.745
332.908
333.032
333.192
333.364
333.537
333.702
333.851
333.974
334.062
334.108
334.108
334.062
333.974
333.851
333.702
333.537
333.364
333.192
333.032
332.908
327.011
327.111
327.241
327.382
327.523
327.658
327.78
327.88
327.952
327.99
327.99
327.952
327.88
327.78
327.658
327.523
327.382
327.241
327.111
327.011
321.065
321.141
321.243
321.352
321.462
321.567
321.661
321.739
321.795
321.825
321.825
321.795
321.739
321.661
321.567
321.462
321.352
321.243
321.141
321.065
315.081
315.135
315.207
315.285
315.363
315.438
315.506
315.562
315.602
315.623
315.623
315.602
315.562
315.506
315.438
315.363
315.285
315.207
315.135
315.081
309.069
309.102
309.145
309.192
309.239
309.284
309.325
309.358
309.382
309.395
309.395
309.382
309.358
309.325
309.284
309.239
309.192
309.145
309.102
309.069
303.042
303.053
303.067
303.083
303.099
303.114
303.127
303.139
303.147
303.151
303.151
303.147
303.139
303.127
303.114
303.099
303.083
303.067
303.053
303.042
345.977
346.143
346.349
346.568
346.786
346.994
347.18
347.334
347.443
347.501
347.501
347.443
347.334
347.18
346.994
346.786
346.568
346.349
346.143
345.977
340.022
340.162
340.34
340.529
340.718
340.898
341.059
341.192
341.287
341.337
341.337
341.287
341.192
341.059
340.898
340.718
340.529
340.34
340.162
340.022
333.992
334.108
334.258
334.418
334.578
334.73
334.867
334.979
335.06
335.102
335.102
335.06
334.979
334.867
334.73
334.578
334.418
334.258
334.108
333.992
327.9
327.994
328.116
328.247
328.378
328.502
328.614
328.706
328.772
328.806
328.806
328.772
328.706
328.614
328.502
328.378
328.247
328.116
327.994
327.9
321.758
321.83
321.925
322.026
322.128
322.225
322.312
322.383
322.434
322.461
322.461
322.434
322.383
322.312
322.225
322.128
322.026
321.925
321.83
321.758
315.577
315.628
315.695
315.768
315.841
315.91
315.972
316.023
316.059
316.078
316.078
316.059
316.023
315.972
315.91
315.841
315.768
315.695
315.628
315.577
309.368
309.398
309.439
309.482
309.526
309.568
309.605
309.635
309.657
309.669
309.669
309.657
309.635
309.605
309.568
309.526
309.482
309.439
309.398
309.368
303.142
303.152
303.166
303.18
303.195
303.209
303.221
303.232
303.239
303.243
303.243
303.239
303.232
303.221
303.209
303.195
303.18
303.166
303.152
303.142
347.612
347.767
347.959
348.161
348.362
348.553
348.723
348.862
348.962
349.013
349.013
348.962
348.862
348.723
348.553
348.362
348.161
347.959
347.767
347.612
341.444
341.575
341.741
341.916
342.09
342.255
342.403
342.523
342.609
342.654
342.654
342.609
342.523
342.403
342.255
342.09
341.916
341.741
341.575
341.444
335.2
335.308
335.448
335.596
335.744
335.883
336.008
336.11
336.183
336.221
336.221
336.183
336.11
336.008
335.883
335.744
335.596
335.448
335.308
335.2
328.891
328.979
329.093
329.214
329.334
329.449
329.551
329.634
329.694
329.725
329.725
329.694
329.634
329.551
329.449
329.334
329.214
329.093
328.979
328.891
322.531
322.598
322.686
322.78
322.874
322.963
323.042
323.107
323.154
323.178
323.178
323.154
323.107
323.042
322.963
322.874
322.78
322.686
322.598
322.531
316.13
316.177
316.24
316.308
316.375
316.438
316.495
316.541
316.574
316.591
316.591
316.574
316.541
316.495
316.438
316.375
316.308
316.24
316.177
316.13
309.7
309.729
309.766
309.807
309.847
309.885
309.919
309.947
309.967
309.977
309.977
309.967
309.947
309.919
309.885
309.847
309.807
309.766
309.729
309.7
303.254
303.263
303.276
303.289
303.303
303.316
303.327
303.336
303.343
303.346
303.346
303.343
303.336
303.327
303.316
303.303
303.289
303.276
303.263
303.254
349.415
349.56
349.738
349.924
350.108
350.282
350.437
350.563
350.652
350.699
350.699
350.652
350.563
350.437
350.282
350.108
349.924
349.738
349.56
349.415
343.013
343.135
343.289
343.45
343.61
343.761
343.894
344.004
344.081
344.121
344.121
344.081
344.004
343.894
343.761
343.61
343.45
343.289
343.135
343.013
336.532
336.633
336.763
336.899
337.034
337.162
337.275
337.367
337.433
337.467
337.467
337.433
337.367
337.275
337.162
337.034
336.899
336.763
336.633
336.532
329.984
330.066
330.171
330.283
330.394
330.498
330.591
330.666
330.72
330.748
330.748
330.72
330.666
330.591
330.498
330.394
330.283
330.171
330.066
329.984
323.383
323.445
323.527
323.614
323.7
323.781
323.853
323.912
323.954
323.976
323.976
323.954
323.912
323.853
323.781
323.7
323.614
323.527
323.445
323.383
316.74
316.784
316.843
316.905
316.966
317.024
317.075
317.117
317.147
317.163
317.163
317.147
317.117
317.075
317.024
316.966
316.905
316.843
316.784
316.74
310.067
310.094
310.129
310.166
310.203
310.238
310.268
310.294
310.312
310.321
310.321
310.312
310.294
310.268
310.238
310.203
310.166
310.129
310.094
310.067
303.377
303.385
303.397
303.41
303.422
303.434
303.444
303.453
303.459
303.462
303.462
303.459
303.453
303.444
303.434
303.422
303.41
303.397
303.385
303.377
351.387
351.521
351.685
351.857
352.025
352.183
352.322
352.436
352.516
352.558
352.558
352.516
352.436
352.322
352.183
352.025
351.857
351.685
351.521
351.387
344.729
344.842
344.984
345.132
345.278
345.415
345.536
345.634
345.704
345.74
345.74
345.704
345.634
345.536
345.415
345.278
345.132
344.984
344.842
344.729
337.988
338.082
338.202
338.327
338.451
338.567
338.669
338.752
338.811
338.842
338.842
338.811
338.752
338.669
338.567
338.451
338.327
338.202
338.082
337.988
331.179
331.255
331.352
331.455
331.556
331.651
331.735
331.803
331.851
331.876
331.876
331.851
331.803
331.735
331.651
331.556
331.455
331.352
331.255
331.179
324.315
324.373
324.448
324.528
324.607
324.68
324.746
324.799
324.836
324.855
324.855
324.836
324.799
324.746
324.68
324.607
324.528
324.448
324.373
324.315
317.407
317.448
317.502
317.559
317.615
317.668
317.714
317.752
317.779
317.793
317.793
317.779
317.752
317.714
317.668
317.615
317.559
317.502
317.448
317.407
310.468
310.493
310.525
310.559
310.593
310.625
310.653
310.675
310.691
310.7
310.7
310.691
310.675
310.653
310.625
310.593
310.559
310.525
310.493
310.468
303.511
303.519
303.53
303.542
303.553
303.564
303.573
303.581
303.586
303.589
303.589
303.586
303.581
303.573
303.564
303.553
303.542
303.53
303.519
303.511
353.526
353.65
353.801
353.958
354.111
354.254
354.38
354.482
354.554
354.591
354.591
354.554
354.482
354.38
354.254
354.111
353.958
353.801
353.65
353.526
346.589
346.694
346.825
346.961
347.094
347.217
347.327
347.415
347.477
347.51
347.51
347.477
347.415
347.327
347.217
347.094
346.961
346.825
346.694
346.589
339.568
339.655
339.765
339.88
339.992
340.097
340.189
340.264
340.317
340.344
340.344
340.317
340.264
340.189
340.097
339.992
339.88
339.765
339.655
339.568
332.475
332.545
332.635
332.729
332.821
332.907
332.982
333.044
333.087
333.109
333.109
333.087
333.044
332.982
332.907
332.821
332.729
332.635
332.545
332.475
325.325
325.378
325.448
325.521
325.593
325.66
325.718
325.766
325.8
325.817
325.817
325.8
325.766
325.718
325.66
325.593
325.521
325.448
325.378
325.325
318.13
318.168
318.217
318.269
318.321
318.368
318.41
318.445
318.469
318.481
318.481
318.469
318.445
318.41
318.368
318.321
318.269
318.217
318.168
318.13
310.903
310.925
310.955
310.987
311.017
311.046
311.071
311.092
311.106
311.114
311.114
311.106
311.092
311.071
311.046
311.017
310.987
310.955
310.925
310.903
303.657
303.664
303.674
303.685
303.695
303.705
303.713
303.72
303.725
303.728
303.728
303.725
303.72
303.713
303.705
303.695
303.685
303.674
303.664
303.657
355.829
355.943
356.082
356.225
356.364
356.494
356.607
356.698
356.762
356.795
356.795
356.762
356.698
356.607
356.494
356.364
356.225
356.082
355.943
355.829
348.592
348.688
348.808
348.932
349.053
349.165
349.263
349.342
349.398
349.427
349.427
349.398
349.342
349.263
349.165
349.053
348.932
348.808
348.688
348.592
341.267
341.347
341.448
341.553
341.655
341.75
341.833
341.9
341.947
341.972
341.972
341.947
341.9
341.833
341.75
341.655
341.553
341.448
341.347
341.267
333.869
333.933
334.016
334.101
334.185
334.263
334.331
334.386
334.424
334.444
334.444
334.424
334.386
334.331
334.263
334.185
334.101
334.016
333.933
333.869
326.411
326.46
326.524
326.591
326.656
326.717
326.77
326.812
326.842
326.858
326.858
326.842
326.812
326.77
326.717
326.656
326.591
326.524
326.46
326.411
318.907
318.942
318.987
319.035
319.082
319.125
319.163
319.193
319.215
319.226
319.226
319.215
319.193
319.163
319.125
319.082
319.035
318.987
318.942
318.907
311.37
311.391
311.418
311.447
311.475
311.501
311.524
311.542
311.555
311.561
311.561
311.555
311.542
311.524
311.501
311.475
311.447
311.418
311.391
311.37
303.814
303.821
303.83
303.839
303.849
303.857
303.865
303.871
303.875
303.878
303.878
303.875
303.871
303.865
303.857
303.849
303.839
303.83
303.821
303.814
358.283
358.388
358.516
358.646
358.773
358.889
358.991
359.073
359.13
359.16
359.16
359.13
359.073
358.991
358.889
358.773
358.646
358.516
358.388
358.283
350.725
350.813
350.923
351.037
351.146
351.247
351.335
351.406
351.456
351.482
351.482
351.456
351.406
351.335
351.247
351.146
351.037
350.923
350.813
350.725
343.076
343.149
343.242
343.338
343.43
343.516
343.591
343.651
343.693
343.715
343.715
343.693
343.651
343.591
343.516
343.43
343.338
343.242
343.149
343.076
335.351
335.411
335.486
335.564
335.64
335.71
335.772
335.821
335.855
335.873
335.873
335.855
335.821
335.772
335.71
335.64
335.564
335.486
335.411
335.351
327.566
327.611
327.67
327.731
327.79
327.844
327.892
327.93
327.957
327.971
327.971
327.957
327.93
327.892
327.844
327.79
327.731
327.67
327.611
327.566
319.733
319.765
319.807
319.85
319.893
319.932
319.966
319.993
320.012
320.022
320.022
320.012
319.993
319.966
319.932
319.893
319.85
319.807
319.765
319.733
311.867
311.886
311.911
311.937
311.962
311.986
312.006
312.023
312.034
312.04
312.04
312.034
312.023
312.006
311.986
311.962
311.937
311.911
311.886
311.867
303.98
303.986
303.995
304.004
304.012
304.02
304.027
304.032
304.036
304.038
304.038
304.036
304.032
304.027
304.02
304.012
304.004
303.995
303.986
303.98
360.863
360.959
361.076
361.195
361.309
361.414
361.506
361.579
361.63
361.656
361.656
361.63
361.579
361.506
361.414
361.309
361.195
361.076
360.959
360.863
352.962
353.043
353.144
353.247
353.346
353.437
353.517
353.58
353.625
353.647
353.647
353.625
353.58
353.517
353.437
353.346
353.247
353.144
353.043
352.962
344.969
345.037
345.122
345.209
345.293
345.371
345.438
345.491
345.529
345.548
345.548
345.529
345.491
345.438
345.371
345.293
345.209
345.122
345.037
344.969
336.901
336.956
337.025
337.096
337.165
337.228
337.283
337.327
337.358
337.374
337.374
337.358
337.327
337.283
337.228
337.165
337.096
337.025
336.956
336.901
328.772
328.813
328.867
328.923
328.976
329.025
329.068
329.103
329.126
329.139
329.139
329.126
329.103
329.068
329.025
328.976
328.923
328.867
328.813
328.772
320.595
320.624
320.663
320.702
320.741
320.776
320.806
320.831
320.848
320.857
320.857
320.848
320.831
320.806
320.776
320.741
320.702
320.663
320.624
320.595
312.384
312.402
312.425
312.449
312.472
312.493
312.511
312.526
312.536
312.541
312.541
312.536
312.526
312.511
312.493
312.472
312.449
312.425
312.402
312.384
304.154
304.159
304.167
304.175
304.183
304.19
304.196
304.201
304.205
304.206
304.206
304.205
304.201
304.196
304.19
304.183
304.175
304.167
304.159
304.154
363.497
363.586
363.692
363.801
363.905
364
364.082
364.148
364.194
364.217
364.217
364.194
364.148
364.082
364
363.905
363.801
363.692
363.586
363.497
355.235
355.311
355.403
355.497
355.587
355.67
355.741
355.798
355.838
355.858
355.858
355.838
355.798
355.741
355.67
355.587
355.497
355.403
355.311
355.235
346.886
346.949
347.026
347.106
347.183
347.253
347.313
347.361
347.395
347.412
347.412
347.395
347.361
347.313
347.253
347.183
347.106
347.026
346.949
346.886
338.465
338.515
338.578
338.643
338.706
338.763
338.813
338.853
338.88
338.894
338.894
338.88
338.853
338.813
338.763
338.706
338.643
338.578
338.515
338.465
329.984
330.023
330.072
330.123
330.172
330.216
330.255
330.286
330.307
330.318
330.318
330.307
330.286
330.255
330.216
330.172
330.123
330.072
330.023
329.984
321.459
321.487
321.522
321.558
321.593
321.625
321.652
321.674
321.69
321.698
321.698
321.69
321.674
321.652
321.625
321.593
321.558
321.522
321.487
321.459
312.903
312.919
312.94
312.962
312.983
313.002
313.019
313.032
313.041
313.046
313.046
313.041
313.032
313.019
313.002
312.983
312.962
312.94
312.919
312.903
304.327
304.333
304.34
304.347
304.354
304.361
304.366
304.371
304.374
304.375
304.375
304.374
304.371
304.366
304.361
304.354
304.347
304.34
304.333
304.327
366.014
366.096
366.194
366.294
366.389
366.476
366.55
366.61
366.651
366.672
366.672
366.651
366.61
366.55
366.476
366.389
366.294
366.194
366.096
366.014
357.382
357.451
357.537
357.623
357.706
357.781
357.846
357.898
357.934
357.952
357.952
357.934
357.898
357.846
357.781
357.706
357.623
357.537
357.451
357.382
348.677
348.734
348.806
348.88
348.95
349.014
349.069
349.113
349.143
349.159
349.159
349.143
349.113
349.069
349.014
348.95
348.88
348.806
348.734
348.677
339.911
339.958
340.016
340.077
340.134
340.187
340.232
340.268
340.293
340.306
340.306
340.293
340.268
340.232
340.187
340.134
340.077
340.016
339.958
339.911
331.098
331.134
331.18
331.226
331.271
331.312
331.347
331.375
331.395
331.405
331.405
331.395
331.375
331.347
331.312
331.271
331.226
331.18
331.134
331.098
322.249
322.274
322.307
322.341
322.373
322.402
322.427
322.447
322.461
322.468
322.468
322.461
322.447
322.427
322.402
322.373
322.341
322.307
322.274
322.249
313.375
313.39
313.409
313.429
313.449
313.466
313.481
313.494
313.502
313.506
313.506
313.502
313.494
313.481
313.466
313.449
313.429
313.409
313.39
313.375
304.485
304.49
304.497
304.503
304.51
304.516
304.521
304.525
304.528
304.529
304.529
304.528
304.525
304.521
304.516
304.51
304.503
304.497
304.49
304.485
367.97
368.047
368.139
368.233
368.322
368.403
368.472
368.527
368.566
368.585
368.585
368.566
368.527
368.472
368.403
368.322
368.233
368.139
368.047
367.97
358.987
359.053
359.133
359.215
359.292
359.363
359.424
359.472
359.505
359.522
359.522
359.505
359.472
359.424
359.363
359.292
359.215
359.133
359.053
358.987
349.975
350.029
350.097
350.167
350.233
350.293
350.344
350.385
350.414
350.428
350.428
350.414
350.385
350.344
350.293
350.233
350.167
350.097
350.029
349.975
340.935
340.979
341.035
341.092
341.146
341.195
341.238
341.271
341.295
341.307
341.307
341.295
341.271
341.238
341.195
341.146
341.092
341.035
340.979
340.935
331.872
331.906
331.949
331.994
332.036
332.075
332.108
332.134
332.152
332.162
332.162
332.152
332.134
332.108
332.075
332.036
331.994
331.949
331.906
331.872
322.791
322.815
322.846
322.877
322.908
322.935
322.959
322.978
322.991
322.998
322.998
322.991
322.978
322.959
322.935
322.908
322.877
322.846
322.815
322.791
313.695
313.71
313.728
313.747
313.766
313.782
313.796
313.808
313.816
313.82
313.82
313.816
313.808
313.796
313.782
313.766
313.747
313.728
313.71
313.695
304.592
304.597
304.603
304.609
304.615
304.621
304.626
304.629
304.632
304.633
304.633
304.632
304.629
304.626
304.621
304.615
304.609
304.603
304.597
304.592
)
;

boundaryField
{
    hotSide
    {
        type            fixedGradient;
        gradient        nonuniform List<scalar> 
400
(
394.827
396.472
399.764
404.709
411.312
419.583
429.532
441.168
454.504
469.55
486.317
504.815
525.054
547.041
570.784
596.29
623.562
652.607
683.427
716.024
397.864
399.485
402.73
407.606
414.122
422.288
432.119
443.627
456.828
471.735
488.362
506.72
526.823
548.678
572.295
597.681
624.841
653.781
684.503
717.009
401.152
402.744
405.933
410.727
417.138
425.182
434.874
446.234
459.279
474.027
490.494
508.696
528.647
550.356
573.835
599.091
626.13
654.957
685.575
717.987
404.634
406.193
409.316
414.016
420.307
428.209
437.745
448.936
461.806
476.377
492.668
510.699
530.484
552.037
575.368
600.487
627.399
656.109
686.62
718.934
408.215
409.736
412.786
417.379
423.537
431.283
440.645
451.652
464.332
478.713
494.817
512.666
532.278
553.669
576.848
601.827
628.61
657.203
687.607
719.825
411.744
413.225
416.196
420.677
426.692
434.273
443.454
454.27
466.755
480.94
496.853
514.52
533.96
555.189
578.22
603.062
629.721
658.201
688.504
720.631
415.02
416.46
419.354
423.722
429.597
437.016
446.019
456.649
468.945
482.943
498.676
516.17
535.449
556.529
579.423
604.14
630.686
659.065
689.277
721.322
417.8
419.204
422.027
426.295
432.044
439.318
448.165
458.63
470.761
484.597
500.173
517.521
536.662
557.615
580.394
605.007
631.46
659.754
689.892
721.87
419.834
421.211
423.98
428.171
433.824
440.989
449.717
460.059
472.066
485.781
501.242
518.481
537.522
558.383
581.078
605.616
632.001
660.236
690.32
722.251
420.913
422.274
425.014
429.163
434.764
441.869
450.533
460.809
472.75
486.4
501.8
518.981
537.968
558.781
581.432
605.93
632.28
660.483
690.539
722.446
420.913
422.274
425.014
429.163
434.764
441.869
450.533
460.809
472.75
486.4
501.8
518.981
537.968
558.781
581.432
605.93
632.28
660.483
690.539
722.446
419.834
421.211
423.98
428.171
433.824
440.989
449.717
460.059
472.066
485.781
501.242
518.481
537.522
558.383
581.078
605.616
632.001
660.236
690.32
722.251
417.8
419.204
422.027
426.295
432.044
439.318
448.165
458.63
470.761
484.597
500.173
517.521
536.662
557.615
580.394
605.007
631.46
659.754
689.892
721.87
415.02
416.46
419.354
423.722
429.597
437.016
446.019
456.649
468.945
482.943
498.676
516.17
535.449
556.529
579.423
604.14
630.686
659.065
689.277
721.322
411.744
413.225
416.196
420.677
426.692
434.273
443.454
454.27
466.755
480.94
496.853
514.52
533.96
555.189
578.22
603.062
629.721
658.201
688.504
720.631
408.215
409.736
412.786
417.379
423.537
431.283
440.645
451.652
464.332
478.713
494.817
512.666
532.278
553.669
576.848
601.827
628.61
657.203
687.607
719.825
404.634
406.193
409.316
414.016
420.307
428.209
437.745
448.936
461.806
476.377
492.668
510.699
530.484
552.037
575.368
600.487
627.399
656.109
686.62
718.934
401.152
402.744
405.933
410.727
417.138
425.182
434.874
446.234
459.279
474.027
490.494
508.696
528.647
550.356
573.835
599.091
626.13
654.957
685.575
717.987
397.864
399.485
402.73
407.606
414.122
422.288
432.119
443.627
456.828
471.735
488.362
506.72
526.823
548.678
572.295
597.681
624.841
653.781
684.503
717.009
394.827
396.472
399.764
404.709
411.312
419.583
429.532
441.168
454.504
469.55
486.317
504.815
525.054
547.041
570.784
596.29
623.562
652.607
683.427
716.024
)
;
    }
    coldSide
    {
        type            mixed;
        refValue        uniform 300;
        refGradient     uniform 0;
        valueFraction   uniform 0.991591;
        source          uniform 0;
        value           nonuniform List<scalar> 
400
(
300.022
300.022
300.023
300.023
300.023
300.024
300.024
300.025
300.026
300.026
300.027
300.028
300.03
300.031
300.032
300.033
300.035
300.036
300.038
300.039
300.022
300.022
300.023
300.023
300.023
300.024
300.024
300.025
300.026
300.027
300.027
300.028
300.03
300.031