/*--------------------------------*- C++ -*----------------------------------*\
| =========                 |                                                 |
| \\      /  F ield         | OpenFOAM: The Open Source CFD Toolbox           |
|  \\    /   O peration     | Version:  2212                                  |
|   \\  /    A nd           | Website:  www.openfoam.com                      |
|    \\/     M anipulation  |                                                 |
\*---------------------------------------------------------------------------*/
FoamFile
{
    version     2.0;
    format      ascii;
    arch        "LSB;label=32;scalar=64";
    class       volScalarField;
    location    "./ITHACAoutput/true/15";
    object      error;
}
// * * * * * * * * * * * * * * * * * * * * * * * * * * * * * * * * * * * * * //

dimensions      [0 0 0 1 0 0 0];

internalField   nonuniform List<scalar> 
3200
(
-4.13217
-1.79087
-2.02778
-0.883195
2.53526
5.08253
0.473353
4.03725
1.85138
1.81281
0.155358
2.39314
3.06916
3.21859
2.71587
-0.0301786
1.04284
1.36829
-0.846169
-0.723694
-2.21369
-2.29331
-0.93323
1.205
2.19775
2.17336
2.53723
2.71722
3.01013
1.21623
1.02999
2.02274
2.11306
2.19642
4.21379
2.07998
1.90743
-0.250227
-3.43069
-3.61871
-3.99294
-0.624604
3.22489
1.0025
0.570282
2.27624
1.58026
0.380573
5.64515
3.01051
1.81471
3.09254
0.164811
0.31714
3.76017
4.21513
0.864949
-0.129465
-0.872053
-0.123412
1.05355
-1.32026
0.751899
1.03482
2.18594
2.9857
1.36843
-0.0497473
2.29045
1.59327
1.87797
1.31634
0.721524
1.28309
3.66197
1.75083
1.72989
0.00717081
2.01221
1.05321
-4.14755
-1.14284
2.47311
-0.118619
2.64068
1.82298
0.35644
0.645314
2.42154
1.54221
3.86704
1.92617
2.33383
0.732392
1.4188
0.310876
2.61772
0.66169
1.1664
1.68369
-2.6002
1.86899
-0.402194
-1.0361
-1.75083
-0.432722
-0.0594796
1.66494
1.34887
0.696387
-0.634685
-1.05508
-0.147232
-0.034526
0.542663
1.03826
1.1943
-0.102329
-0.584978
0.201918
-3.22027
-0.562158
0.247682
1.09574
0.726075
0.888626
1.59446
-0.441044
-0.261079
2.15365
0.146072
-0.524164
-0.211732
-0.615187
-0.565809
0.84247
-0.729521
1.53513
0.615068
1.1127
-0.902518
0.695489
-2.26388
0.0156351
2.25899
-0.72675
0.703586
-0.4059
0.722415
-1.43574
-0.346889
0.403716
-0.916431
-0.528068
-0.484449
-0.273003
0.915033
0.197359
0.0363026
-0.954606
-1.14873
-1.31688
-1.08306
4.29683
1.02531
2.77507
2.82691
2.42399
2.67139
0.605874
2.1514
4.23719
2.68208
2.81672
4.36254
1.93323
2.31327
0.637999
0.182949
-2.0116
-2.17365
0.127014
1.60937
0.096739
3.80285
0.27063
1.95336
0.423688
1.78076
0.149009
-0.633204
0.871489
0.17412
2.07174
0.471576
1.38836
-0.0122913
-0.728065
-0.374003
-2.15721
-1.96622
0.031135
-1.26714
-0.911488
-1.57721
2.929
1.44226
1.56165
1.61116
-0.173762
0.313186
2.75208
2.83955
-0.401813
1.52787
3.42512
-0.883986
0.740402
-1.77184
-1.57048
-2.68046
-1.95802
1.24791
0.278893
1.67448
2.48062
1.81315
1.38019
1.38225
0.792283
3.1015
1.27681
0.8956
1.58634
3.1685
2.67214
1.39652
1.18361
-1.43748
-0.415539
-0.433569
0.725616
-1.16813
0.0773385
1.21217
2.2016
2.16852
1.00942
3.58342
0.648649
1.51967
1.04079
2.34062
0.793017
1.95952
1.84503
0.646363
1.93109
-0.235847
-1.36038
-0.571349
-1.05235
-0.886332
-0.688447
0.815071
1.41719
1.21673
0.89599
4.09685
0.252873
0.497116
0.125493
2.14628
1.60255
1.09339
1.10769
1.14327
0.0136445
0.572559
0.130549
-1.78036
0.834736
1.58275
0.287734
0.802937
2.203
0.0110182
0.706484
-0.780569
1.80681
1.59477
-1.07993
1.37382
1.78773
2.41155
1.28407
-0.172038
0.453349
-0.942375
1.52264
-0.872932
0.666825
1.02891
-0.725757
0.796559
0.459088
2.04231
0.531057
0.230876
-0.747879
-1.84524
0.350164
0.00533917
0.868977
1.55236
-0.559499
-0.669532
0.48888
-2.98795
-1.55275
-4.19088
-1.2132
1.30936
2.29832
1.02941
5.07273
1.42199
1.17819
2.36875
1.10227
1.89474
1.31892
0.188604
-0.203651
1.72105
1.6978
1.83478
2.38756
-0.227528
-4.31682
-1.55221
0.755246
1.96844
2.9248
0.397377
2.14549
2.42407
2.18
2.68362
0.799888
2.71735
3.65803
3.26707
0.812108
2.19902
0.969303
-0.500976
-0.420199
0.633095
0.0155045
0.0879562
1.47947
0.339076
-0.100301
0.196779
1.69714
1.62438
2.31182
0.862046
0.588483
-0.252264
1.00991
1.02233
2.87116
3.18266
0.232411
1.08011
2.44683
-1.45814
-0.646476
-1.06819
-1.72852
0.594969
0.775682
1.08664
2.24962
1.0616
0.777378
1.29234
1.3552
2.73418
0.727415
2.59657
0.619006
0.811264
-0.917722
1.0365
-0.684916
1.05221
-1.76523
-1.67521
0.42423
-0.288945
-0.154212
-0.826497
1.52802
0.846023
0.996568
-0.260441
1.02365
0.746863
0.439604
2.82433
2.06975
0.37301
0.925757
-0.745072
-1.60976
0.0897448
-0.268386
-0.0589222
-0.995602
0.45783
-0.795424
1.51751
0.0886061
0.86243
-0.0213937
0.354249
0.565235
3.2992
0.8748
2.13136
-0.826144
0.731944
1.48359
1.23029
-0.40856
1.2622
0.575418
0.144007
2.97869
-0.47652
1.14705
0.927342
0.0230676
0.681632
0.223557
0.920894
1.26287
-0.199632
1.9378
1.37509
1.50096
-0.857718
-0.981725
-0.128101
0.892664
0.666109
0.673472
-0.834304
-0.135307
0.226774
-1.83586
0.791037
3.07851
-0.839568
3.49751
-1.68711
-0.878682
-0.713943
0.463993
0.232637
0.733675
-0.319211
1.75351
-0.872294
-1.46354
0.268018
1.40559
-5.68942
-2.88942
1.2999
3.22703
2.34237
2.13293
3.44329
2.60296
1.56804
3.11016
2.64204
0.552807
0.383764
3.39972
1.36642
3.12178
-0.115263
1.87054
-3.0069
-3.56504
-2.89478
0.297419
-0.111428
0.841454
3.09301
0.316925
1.02016
0.0522109
0.81369
0.429657
0.0958141
-0.984646
0.579717
4.03848
0.550167
-0.043041
-0.421534
-0.449109
0.286017
-2.21691
0.544114
-0.645685
-0.199514
1.35116
2.43227
1.48067
1.48714
1.54122
-0.0718493
1.90256
0.386141
-0.0401851
-0.0690852
-0.293429
-0.0373777
2.57277
0.169227
-0.0285945
-1.43992
-0.110232
-1.44838
-0.0239987
-1.22988
-1.22912
0.301463
1.68341
-1.17051
2.83154
0.672738
2.44509
-0.286771
2.36109
-2.86278
2.89873
-0.42781
1.31409
1.17694
1.18031
-1.42806
-2.66913
-1.6014
-2.51962
-1.18221
-0.188109
1.4547
-0.517248
2.67336
0.973302
1.76569
-1.18561
0.199488
0.402117
-0.23285
1.55775
4.01209
0.858628
1.25494
1.87628
0.524287
-1.64259
-0.308132
-1.17797
-1.50898
0.297304
-1.09722
-1.3351
1.08544
1.49056
0.913143
0.556477
0.314522
0.972626
1.18288
1.40478
-0.441514
2.12894
-0.815216
2.61094
0.129443
2.48278
-0.852236
0.844582
-2.35601
1.23355
-0.610628
0.184582
2.96601
0.0687934
0.0428306
-1.19628
-1.01135
1.65896
1.83851
1.59308
1.41509
-0.351285
0.409932
1.78054
1.26336
-0.908901
-0.0871588
-1.05912
-1.44725
-0.863422
-0.693406
0.178304
0.091185
0.523975
0.849115
1.39518
0.831897
1.00934
0.22954
-1.06128
-0.997306
0.257842
1.19388
1.01754
-2.42634
-1.21824
-2.5873
-3.33773
-2.40651
-1.3803
0.4814
0.695487
1.17573
3.17337
0.515049
1.70589
1.86914
0.625092
1.49981
2.50842
-0.192452
-0.462192
0.921376
-0.573706
-2.23083
-3.86994
-1.70153
-1.41052
1.15546
0.0665589
2.30263
1.39991
0.473376
0.754157
-0.312562
1.42487
-0.557249
-0.592385
-0.0963851
-0.599676
0.555987
0.759217
-1.19746
-1.54797
-2.71007
-1.97086
-1.16151
-2.83661
-0.0594192
1.02269
-0.0698252
-0.013677
0.265909
-0.439344
1.19022
2.79641
2.33544
0.45833
0.113907
0.196437
1.83683
2.48544
0.176026
0.395503
-2.22303
-4.58582
-2.71111
-0.53699
0.900767
0.182486
2.44331
2.01964
1.8388
-0.503126
0.19785
-1.43068
-0.438089
0.745497
2.32753
-0.673105
0.617985
1.48942
-1.00057
1.15946
-1.45377
-0.686346
-0.801796
-1.403
0.519314
0.997271
-0.138501
-0.374101
-0.583412
4.04019
2.28874
-0.409435
0.247892
0.481088
-0.70351
0.715406
-1.27124
0.807779
1.94492
0.493129
-0.797976
-0.0266761
0.324661
-1.3136
1.38561
-1.3577
1.99951
-0.798473
-0.421228
1.85773
-0.0709935
-1.28321
0.221794
0.843268
2.12735
-0.47295
2.42449
0.969361
2.45149
1.14415
-0.0300261
0.480635
-2.45128
0.475251
-1.11452
0.253695
0.974289
2.49205
1.70892
1.1946
1.19248
1.86193
-0.464297
1.30781
0.583804
-0.0819669
-0.889588
-0.868551
1.69791
0.523787
-0.615652
0.233464
-0.224032
-0.875174
-0.450245
1.50602
-1.49105
-0.861951
1.86291
-0.649016
0.843283
-0.5169
-3.08216
1.9532
-1.47464
-1.40274
0.346295
0.399388
-0.11481
0.0236184
-0.183483
2.07676
-3.07627
-3.20067
-0.560446
0.512309
-2.72492
1.41186
0.995084
0.838845
1.23655
0.152199
2.36312
-4.16656
-0.0452402
0.12038
3.3107
-0.238769
0.249362
-0.67125
-3.02114
-3.92354
-2.53531
-0.061363
-0.784301
0.264952
-0.68252
0.00978111
1.05529
-0.070353
-0.883809
0.175696
0.0901028
-0.938692
-0.557827
-0.758453
-0.275202
3.83802
-0.0431758
1.08658
-0.493397
-3.19478
-3.90274
1.29975
0.398785
-0.181154
2.20332
1.59949
0.933247
2.39624
-0.0558115
0.602256
1.08556
-0.621734
0.704043
-0.482562
0.766686
1.74586
1.62983
-1.5665
-1.39261
-0.380584
-0.430605
-2.027
0.307033
-0.535381
0.317802
0.213673
-0.22208
-0.411601
0.876764
1.14057
0.800634
-1.25361
0.866102
0.0107714
-0.22238
-1.27449
0.150291
1.67079
-0.725115
-3.60443
-1.23954
-1.51809
0.736307
-0.120099
1.43544
1.36799
-1.17929
1.71336
1.06582
-1.58019
2.14946
-1.02187
-0.269949
1.02975
1.77816
2.65601
2.73609
0.42036
-2.94664
-0.844007
-1.24598
-0.465988
1.27268
0.717459
-0.595328
0.644813
-0.110564
0.258137
0.748847
-2.38158
0.644984
-0.153747
0.118868
0.536068
0.487281
1.81743
0.584369
-0.203191
0.0106001
-0.949536
-2.18053
0.642711
0.0657325
-0.410813
-0.142852
1.1961
-0.417642
-0.71422
0.088103
-0.236444
0.792765
0.488129
0.133923
-1.8022
-0.773275
0.911075
1.00716
0.0268859
1.23674
0.831375
-0.855473
-0.549337
1.47463
0.36833
-0.189948
2.40098
-0.997972
-0.305523
-1.12232
-1.22179
-0.633865
-0.0936646
-0.146984
-0.675291
-0.130658
0.423568
-0.734229
1.56832
1.6755
1.40193
-2.06783
-3.21353
-2.10951
-0.0327969
1.07647
-0.277265
-0.257023
-0.939052
0.990836
-0.732262
0.378728
0.331668
0.905024
0.706809
-0.961928
-0.360301
-0.963769
-2.05837
-3.37458
-4.98085
-2.29133
-0.845303
-1.66268
-0.675486
0.963045
3.13525
0.716044
1.25423
0.57638
1.3756
0.731534
0.933233
1.41131
1.1811
0.177676
1.10734
0.0167149
-1.12743
-2.76882
-1.4045
-2.51087
-1.12285
-1.0074
-1.79284
-0.938943
-0.825085
0.279405
0.828828
0.448577
-0.508282
-2.10181
-0.62424
-1.32793
0.122107
-0.139086
0.532207
-0.441234
2.52245
-1.99407
-3.30785
-0.558938
-2.50407
-0.0789576
0.590037
-1.26368
-0.394755
2.04486
0.711756
0.888909
-1.30897
-0.0187787
-0.538392
0.168171
-0.553596
-0.492771
0.962219
4.05137
-0.00126119
0.236427
-2.79845
-4.05759
-0.837679
-1.16735
0.417828
-1.34711
1.25906
-0.0342741
-0.190258
-2.02519
0.10548
-0.20508
-0.931418
-0.828665
-1.04599
-1.28318
0.266691
1.55278
-3.79465
-0.234153
-0.935154
-0.162342
-0.907639
0.436205
-0.516372
-0.686839
0.56581
0.357211
1.37207
1.56121
1.27536
0.250577
2.1039
1.86344
-1.5223
-0.518216
0.986734
-0.731154
-2.0034
0.504237
-0.902737
-1.47111
-0.522819
-0.0974944
1.96186
-0.907433
0.306434
0.268344
0.967824
-0.930952
0.89779
-1.05802
0.747846
2.10584
0.269969
-0.0131782
0.0649807
0.273593
-0.435624
-1.39121
-1.3449
0.590387
-1.35503
0.16127
-1.4527
-1.91227
0.941474
-2.37373
0.395544
0.073855
-0.118689
0.583377
-0.115463
0.701771
0.129476
0.461751
-1.76234
-2.78822
2.31981
0.15751
-0.255825
-4.27896
-1.8308
-0.215566
0.276437
-1.15218
0.287099
1.58916
1.77788
0.584954
-0.375508
-0.837404
-0.462307
-0.719316
0.267432
-3.00099
1.10597
-1.02077
0.804548
-3.25844
-3.39504
-2.70174
0.487934
-0.290671
0.408457
1.65583
0.0803781
0.107585
-0.361984
2.43876
-0.131199
-0.0533952
-0.78948
0.13759
-0.65431
0.264607
-0.47876
-0.0261948
1.43641
0.434282
-2.97099
-3.16125
-0.161547
-0.960673
-0.745413
1.93418
1.79215
-0.486149
1.2454
0.601054
2.93996
-1.49915
0.0196732
-0.964129
0.838636
1.03632
-1.29157
-0.783395
-0.554938
-2.30602
-3.96166
-2.02416
-0.461227
-2.3129
-0.483492
0.713265
-3.31438
-0.906692
0.970392
0.619939
-1.66283
-0.760923
0.168577
-1.96378
-2.0401
0.835055
-0.398812
0.612241
-0.521418
-0.271289
-4.12937
-2.56592
-0.967906
-1.95308
-2.19528
1.18301
1.44473
0.925814
-0.889962
0.617249
-3.22329
-1.64213
-1.10966
-0.278492
-1.19936
0.400342
0.222588
-1.54627
2.50334
-1.3879
1.51426
-1.02817
1.30571
-0.322321
-0.897909
0.636326
-1.66674
0.788188
-0.652831
-1.13412
-1.7688
-0.47924
-0.350737
0.531657
-2.08977
-0.178966
0.790676
-1.57959
0.565286
-2.68533
0.544196
-1.76215
0.145345
-1.18307
-0.126147
0.662311
-2.7802
-2.54002
-0.191826
-0.457759
-0.580443
0.220158
-2.19129
0.0603931
-0.564489
0.60068
0.088339
-0.633977
0.192765
-0.600059
-1.21095
0.355487
0.0650237
1.99673
1.49504
-0.356646
1.32853
-0.016296
0.064629
-1.1129
0.490364
0.790809
0.609232
0.936291
1.29524
1.2171
0.431055
0.810252
-1.75219
0.90379
0.129494
-5.34133
-3.0182
-1.61801
0.261754
-2.20652
2.86128
-0.438932
-0.11959
-2.25952
-0.970949
-0.199419
-2.02702
-3.21556
-0.564274
-2.31742
-1.18748
-0.57167
-3.08624
-1.63996
-6.34901
-5.70213
-1.44249
-4.2371
-0.0651653
0.214113
3.27694
-0.0705831
-1.80722
-0.272563
0.360724
-0.264409
-0.931693
-0.565951
-1.49892
-2.19158
0.190645
-0.665826
-3.82003
-1.06681
-3.81926
-3.86423
-1.68255
-1.67119
-0.494151
-2.07608
1.20633
-0.418673
0.433616
0.118646
-1.41479
-1.69386
0.659469
0.890307
-1.98652
-0.702918
0.3796
-0.647815
-0.725785
-0.897186
-4.05231
-1.38187
-0.103868
-1.57576
0.152241
1.26633
-0.272368
-0.462762
0.451603
-1.995
-1.32519
-1.43129
0.963337
-1.44172
0.589586
1.30461
-0.658514
0.0339382
-0.706412
-0.542643
-2.14334
-2.76741
0.667527
-3.6412
0.282335
0.280079
0.894399
0.647916
2.59619
0.928468
1.35407
-0.771596
-1.16779
0.0395171
1.36668
1.22635
0.123821
-0.530466
-1.5246
-0.273222
-1.14763
-0.0126401
-0.512796
0.34631
-0.781249
0.728142
0.0897049
1.86177
-1.40244
-1.05126
0.845611
-0.43397
0.00547708
-1.82808
0.658364
-1.17501
2.00365
2.45627
-0.142571
-1.29663
-1.55537
-0.349507
-0.727405
1.96338
-0.253353
0.13913
-1.37001
-0.585086
0.854113
0.656549
0.64709
-0.363374
-1.85106
-0.272426
-3.34932
-1.82473
0.715448
-0.356887
-2.30902
0.532767
0.518442
-0.0133918
0.673569
-1.1443
2.34449
-0.496589
2.41057
-0.917315
0.55951
-1.47449
0.512307
0.654819
-0.856951
0.176937
-1.94897
0.187822
-0.594378
-0.410396
-0.788426
-0.0663944
1.53692
-4.7369
-4.72643
-0.109769
-2.10109
0.377446
-0.307221
1.38078
-1.06256
0.499911
-0.267379
-1.93987
0.509746
-0.494425
-1.52488
-0.740519
-4.25303
-1.51653
-3.01132
-2.41658
-5.93149
-3.25199
-0.262262
0.239668
0.236834
0.441677
0.263953
-1.4328
0.346858
-2.00477
-0.429473
0.0606285
1.28454
-0.0685726
-1.72411
0.0823861
0.391096
-0.187494
-1.35494
0.202428
-4.76623
-2.76097
-2.91406
-0.954949
-0.903518
2.09402
1.26976
0.682879
-0.872148
0.170596
-0.767568
0.549956
1.77761
1.80774
0.807892
3.46511
2.91238
-0.862793
-0.811963
-3.52881
-2.63734
-1.24664
-1.08829
-0.251568
0.0127745
0.645871
-3.6774
-2.31261
-0.435961
-0.506555
-1.46728
1.18994
1.2726
-1.73044
-0.280759
-1.14075
-2.50292
-0.165749
1.56843
-1.57095
-1.73337
-0.781818
-1.57426
-0.724431
-0.429664
0.101846
-0.228179
1.28849
-2.21472
-0.962037
-0.750353
-0.69745
-0.0139971
0.196691
1.08145
1.43388
-0.104845
0.328761
-0.220503
-1.88719
-0.0581736
-0.0570797
-0.757102
-2.86004
-1.38445
0.987252
0.61627
-0.427391
0.599276
-1.78522
1.84955
-0.276553
-0.675167
1.2627
-0.685815
-1.79566
-0.951876
0.997004
-0.663671
-0.514302
-1.52963
-0.880073
-1.97313
-1.91815
-0.356294
-0.00762873
0.307441
-1.32128
-1.0164
-0.479487
1.7733
-3.10273
0.865186
-0.688649
0.453964
-1.7089
0.0881669
-0.592767
-2.16437
-0.529226
-1.24709
0.46838
-0.356514
-1.9447
-0.70576
-2.2652
0.626614
1.1153
-0.350078
-1.78885
-1.04185
0.777299
0.869938
-2.11804
-0.500563
0.201494
-0.121154
-0.0373174
-0.448645
0.112998
-0.461963
-5.31464
-3.45262
-3.0823
-0.408929
-0.489964
-1.3839
-0.587725
-1.05565
-1.75968
-0.325093
-1.61996
0.0790589
-2.84407
1.27636
-2.54409
-2.64675
-0.746073
-0.422872
-4.89323
-5.46563
-5.27293
-0.434957
-1.96917
0.389236
0.0890484
0.211558
0.0116069
0.0455296
0.0290182
0.266339
-0.0322027
-1.50351
0.428034
0.45095
0.0644617
0.784817
-0.476843
-0.0752268
-0.0864139
-3.01192
-1.6681
-2.29303
-0.880072
1.27409
-0.612939
-1.98908
0.431168
-1.49471
1.5221
-0.200143
-1.29761
-0.950355
-0.906332
-1.48325
0.0905258
-0.830744
-1.76541
1.01296
-3.54392
-2.12847
-3.70536
-2.5686
-2.11471
-0.906058
-1.04237
0.786257
-0.313413
0.881222
-0.640282
-0.421599
0.563758
2.57574
-0.0391892
0.430056
-0.0696607
0.788655
-1.67512
0.76859
-0.733064
-1.69098
-1.38528
-0.679026
0.277684
-0.68937
0.659111
-0.814357
-1.33331
-1.34446
-0.360825
-0.679813
1.12645
-1.89706
0.302017
0.169781
0.901789
1.01694
0.67498
0.0886002
-3.38097
-1.641
-2.48616
-2.56008
0.971436
-0.992219
1.12747
-0.0839854
0.232037
0.180994
0.697121
1.79392
-0.214813
-0.850017
-2.30927
0.120262
-0.888264
0.553911
-0.24252
-0.88363
1.13085
-1.79882
-2.55868
1.0637
0.442928
0.281508
0.555663
-0.346956
0.682933
-1.36862
0.452144
-0.962755
2.10337
1.34997
-0.346338
-0.0812777
0.00027071
-1.84754
-0.0357221
-1.2228
0.423791
-1.27317
-0.322808
-1.16895
-0.758429
-0.310466
1.9724
0.340125
1.77339
-0.874549
-1.42378
-2.30634
-0.0259101
-1.39833
0.339745
-0.301051
-0.590697
1.12709
0.22177
1.39633
-0.350519
-0.620304
-5.99979
-3.01225
-1.85664
-1.98845
-2.28839
-1.32269
0.364826
-0.458851
-1.30657
-1.6671
-0.707565
-0.357964
1.11864
-4.35195
-0.0579716
1.13663
-0.28455
-1.6752
-2.4148
-2.37946
-5.49709
-2.13587
-2.39216
-1.80485
-0.310917
0.0586929
0.516243
-0.74732
1.52602
-1.9032
-0.372871
-1.23249
-1.73459
-0.498673
-1.06093
-0.470543
-2.79622
-1.82861
-3.20665
-3.35518
-4.22712
-2.99888
-1.66535
-1.65545
1.20539
0.864349
2.00179
-0.545032
0.63149
-0.624593
-0.50998
-0.935033
-0.117187
0.309622
-0.0629664
1.19665
0.0597654
0.1271
-2.89778
-2.587
-3.81789
-0.51167
-5.6592
-1.51198
-0.517271
-0.322666
0.726758
0.988442
-1.26206
-0.766004
1.00685
-2.84003
-0.13875
1.03006
0.835166
0.552524
0.900672
-0.639833
-3.30136
-1.95529
-1.77479
-1.17324
-0.634366
-1.6266
0.249596
1.02665
0.778167
1.22079
1.08386
-0.0036721
-0.0672982
0.901812
0.684364
1.04144
-0.854482
0.411925
1.57234
-0.584078
-0.0314273
-3.64242
-1.85849
-1.15449
0.225161
-1.34169
1.12147
-0.0104704
0.698646
-2.15903
-1.94855
-0.943161
-2.08129
-2.41978
-0.479532
-1.09834
-1.16356
-1.63349
0.720513
0.361789
-0.933093
1.14294
-1.3222
-2.23595
-1.02878
-2.55467
0.369874
0.67804
0.845483
1.9099
-0.852772
1.88382
-1.31596
0.854943
-0.535257
-1.08393
1.89161
-1.22281
0.561369
1.99015
-2.82197
-3.5245
1.25869
-1.1157
-1.77631
-1.20146
1.40514
-0.519344
-0.93601
0.231881
-2.46883
0.474206
0.0276166
0.380702
0.211888
0.67479
1.02784
0.481376
-1.45335
-0.971481
-0.310058
1.06437
-5.2263
-0.0981259
-2.73776
-1.94857
-2.75642
-1.86419
1.71948
-1.14578
-1.02453
0.88663
-1.60638
-1.29417
0.888073
1.77852
0.0331572
-1.71049
0.699372
-0.143509
-4.82766
-2.90326
-5.99941
-0.595523
-2.30098
0.0740507
1.71536
-0.231947
2.96954
0.12793
3.06482
-0.376643
0.16201
-2.40497
-0.179816
-0.105579
-0.202339
-1.09957
0.185515
0.0950662
-0.207854
-4.95124
-1.92501
-2.75859
-2.97881
-1.60019
-0.602044
2.10747
-0.0993082
-0.5281
2.42263
-0.032658
-1.99481
-0.3517
-1.45423
-0.262487
0.34457
-0.255992
0.236483
-1.31479
-0.999113
-4.29806
-0.289333
-2.33201
-2.26283
-0.42258
0.565698
0.387494
-0.198417
0.362875
1.25375
1.38449
1.3384
-1.09212
-0.876021
-0.103869
-0.93649
-2.76059
-0.125908
-0.903242
-1.76383
-1.52152
0.786104
-1.29892
-2.51163
-0.0630685
1.37601
-0.837505
1.33957
1.16512
0.171089
-1.14988
-0.0419112
1.74267
1.05444
0.942957
-2.65447
-0.340157
-0.127696
0.672626
-1.58242
1.8904
0.0112544
-1.52228
-1.08994
-2.33561
-0.67195
-0.0266244
0.881605
-1.16592
-0.0594426
0.424228
-1.4999
0.125866
0.586943
0.794593
1.1646
0.428477
-0.777969
-0.866858
-0.00501673
-2.99083
-2.15928
-0.650573
0.39174
-1.8871
-0.335483
0.353169
-0.22713
-0.53377
-2.62318
1.25079
-0.840931
1.15825
0.728222
0.410528
0.495214
1.18322
-2.25064
0.158488
-0.891986
-1.14422
0.697207
-1.78642
0.0299228
-0.12266
0.760349
0.273276
1.68482
0.879657
-3.727
-0.168053
-0.304031
-0.258629
-0.00838324
-0.831428
1.19751
0.730538
-0.0115343
-0.967956
-0.484139
-0.551025
-4.58802
-3.6227
-0.10199
-1.08935
1.82899
-0.118689
0.15864
1.48554
1.59699
0.524668
-0.953262
0.52764
-0.220996
-0.959367
-1.14444
-2.49192
0.633081
-2.19016
-3.97351
-1.77708
-3.38822
-2.3274
-4.08698
-1.28601
-0.34655
0.135388
2.22947
0.0929845
-1.23296
-0.62794
-1.94132
0.632663
-1.21769
0.805897
-1.61077
0.363118
-0.625927
0.771479
-2.11596
-2.40514
-4.33405
-2.10504
-0.629991
-3.47788
0.877988
0.80078
1.83688
1.91795
-0.755679
0.953708
-0.244494
0.809145
0.959467
0.842602
-0.653135
-0.29384
-1.28666
-1.15949
-1.31851
-2.44271
-2.37102
-1.57939
0.0731017
-2.01705
0.00337162
1.59786
1.46898
3.14181
-0.713255
1.57977
-0.159203
0.255707
1.10693
0.210667
-0.50834
-0.762074
2.85677
1.25242
-1.43651
-2.80879
-0.86377
-4.15226
-1.46132
0.284757
-0.487669
-0.0764867
2.30135
2.19945
-0.455152
1.10635
-0.870837
-1.4925
-0.846893
-0.831437
0.0466895
-0.933161
0.403849
-0.21926
-0.498137
-1.83671
-0.918617
0.359675
-1.10992
1.1585
0.159898
0.604457
1.84419
0.244141
2.91762
-1.53156
0.732829
-2.64471
-0.732706
-0.505419
2.41952
0.160695
-1.36246
-0.821073
-1.55017
-0.572554
-0.181423
-0.609307
-0.0714897
-1.01407
-2.40274
-1.07689
1.05066
-0.737661
-0.743908
0.608918
1.71487
-0.327113
1.69644
-0.255708
-0.660843
1.81849
0.608509
0.00535243
-1.03799
-0.926165
-0.94669
-0.539968
0.139091
0.147101
1.80156
1.99792
0.617424
-2.46848
-0.893251
-0.72626
-1.74316
0.0258592
1.56459
0.613212
-0.574302
0.168918
-0.307722
-0.756203
0.19199
-0.499701
-3.87131
-0.811325
-1.30758
-0.0164115
0.88992
0.548539
0.906921
3.48322
-0.421681
0.857111
-0.52658
-0.719551
1.86622
-0.721394
1.07994
0.944667
0.935089
-2.86857
-1.1139
-3.02806
-2.5414
-0.323872
-3.06325
0.0680166
2.28472
0.33857
2.1766
0.263743
0.36864
-0.143612
0.352161
-0.0765909
-0.124499
-0.824808
-0.622283
1.74851
0.0358364
0.755825
0.0280143
-4.00526
-2.50771
-3.44684
-1.09874
-0.465326
0.861512
1.20054
1.70592
1.06719
1.14957
1.45995
-0.551472
-1.56802
2.67602
0.694364
1.09231
0.865956
0.32058
0.460296
-1.7428
-1.20839
-2.38229
-0.481231
-1.37794
0.296325
0.78086
0.332204
-0.539149
-0.211221
1.51581
0.107484
-0.241299
1.04909
0.452161
0.155566
2.32715
2.19528
-1.95673
-0.379803
-0.267795
-2.27286
-0.695433
-3.76043
-1.54734
-0.15243
-0.930979
1.07653
1.03482
-0.750572
0.316504
0.311335
1.28681
0.632845
-0.604404
-0.576464
1.35468
1.02439
2.21769
0.791742
-1.45532
-0.623725
-1.95024
-1.49045
2.02877
0.676469
0.908248
-1.50541
-0.320672
2.65208
0.867678
-0.667702
0.798156
0.00925149
-1.22219
0.0760472
1.15229
-0.277138
0.443536
1.76053
-0.359707
0.578531
-1.80223
1.47363
-1.0186
-2.02314
0.76525
0.548846
0.706491
0.0656007
1.15598
-0.942822
-1.08593
-1.13801
0.84355
0.802084
0.99408
2.3535
1.33819
-0.36689
-0.775331
0.865565
0.256725
0.921139
-2.43697
-2.52838
0.715737
-0.216731
-1.16601
-0.536226
-0.85507
0.421276
-0.865406
-1.06287
0.447524
0.398939
0.191008
0.306776
1.99107
-0.228561
0.535865
-0.0484351
-1.80894
-3.34073
-0.0759779
0.913256
1.61727
0.913942
0.772232
1.7552
0.43835
2.41615
2.31584
0.875118
0.328395
4.07508
2.11486
2.48697
0.0173714
-1.24838
-2.39335
-1.94526
0.232603
-2.14815
0.466033
0.648059
-0.665594
0.291039
1.74578
-0.341197
0.749655
1.65789
1.88365
1.17832
2.84684
1.04421
1.2262
1.37037
2.35979
-0.739901
0.767829
-1.66145
-0.528575
-1.68373
-1.81113
-0.199747
-1.09128
1.3458
0.416597
1.28845
1.37314
1.16427
1.28043
1.85417
3.2776
4.77701
0.926607
-0.117013
3.01457
-0.286203
-0.661236
0.0647207
0.0263002
-2.78024
-2.00522
1.34406
1.873
0.574234
0.853508
0.940548
0.572793
1.25224
0.887177
1.20978
1.41813
2.60713
-0.162778
2.1906
-0.452586
-0.0515887
0.489545
0.0788915
-1.61521
-0.868583
-0.354523
1.22013
3.17801
-1.06351
3.51231
-0.289016
0.403866
1.2384
-0.420883
1.66929
3.54482
0.448049
2.01212
0.837627
0.624745
1.31062
2.02322
0.640749
0.0439204
1.26284
-1.61929
1.71835
0.939557
0.317459
0.220771
2.34012
3.00123
-0.47329
1.28312
0.505684
0.785107
-2.07136
3.15627
0.913215
0.973072
-1.046
0.687974
-0.503274
-1.98661
1.97166
-1.04695
0.283412
2.14004
0.261898
0.539911
0.473738
1.05284
-1.73114
-0.387853
-1.4749
0.987196
-0.500541
1.31367
0.859157
1.80483
0.556745
-0.111138
0.246198
0.946712
0.224886
0.0290074
-0.469436
0.378587
-0.177098
-0.854345
-0.279909
-1.15061
0.0412141
1.29851
-0.00206519
-0.587979
-0.644348
0.805871
2.03113
-0.668624
-1.63127
-0.302109
1.83504
-3.54326
0.324826
0.456718
-0.892752
0.691201
0.669786
1.01536
2.94179
3.99877
1.87061
1.2106
1.38068
0.995343
2.32945
0.499607
-0.963299
-1.08577
0.408586
-0.187645
-2.00772
-3.14552
0.118476
2.23056
-0.0245405
2.25213
0.0303998
1.75047
-0.511885
2.48689
0.254853
0.311471
4.17904
-0.376245
3.09285
0.173066
2.29931
0.582711
0.8774
0.0898247
-2.1446
-1.04245
1.1584
-0.429529
0.460761
2.20653
2.89317
1.58224
2.46587
2.57729
1.89009
0.533717
1.34261
3.90435
3.75967
2.91188
0.260753
0.401508
0.913744
-0.310184
-0.160163
-1.06699
-1.6756
2.78522
-0.27127
0.487613
1.03167
2.74277
0.841306
-0.0999009
0.995388
2.45568
0.352322
0.0772648
1.83118
2.51276
1.00218
0.742507
1.14532
0.686215
-0.8776
-0.841189
-1.98445
2.17461
-0.577556
-1.27989
2.48883
1.04747
-1.08703
1.24078
4.15476
2.58407
0.540284
3.29215
-0.361687
3.56452
0.932175
1.57697
1.65843
-0.618384
-0.368929
-1.425
0.609255
-0.606908
-2.14837
0.930404
1.58791
1.9189
-0.415885
-1.06177
1.11244
0.825366
1.9877
1.21715
0.364797
1.03656
0.465516
0.774899
1.48493
0.478023
1.86529
1.43551
-2.31956
2.77501
1.39339
-0.802212
0.644597
0.623242
1.70903
-1.14543
-1.1668
2.99018
3.90697
1.3412
0.192047
1.12451
0.952305
1.29156
-0.597267
-0.705287
-0.242486
-1.30422
1.65317
1.43374
0.395159
1.00425
0.881809
-1.02319
1.88609
3.09244
3.64731
0.492599
-0.592541
-0.605682
0.304685
-0.817111
1.59001
-0.214804
0.421981
2.19697
0.386469
-0.31496
0.72744
0.780372
0.808614
1.58561
1.75985
1.74847
2.9095
2.84006
4.18605
3.11943
3.76378
3.56264
3.28464
2.14387
3.97238
1.34777
-1.33689
0.0528213
-1.05763
-1.92964
1.56258
-0.281583
3.38274
3.74573
3.13227
1.65457
4.61581
3.60186
1.91469
6.18942
2.59541
4.88046
2.5697
6.38421
4.00588
2.7524
1.21247
2.83367
-1.25715
-2.06588
-0.0878403
3.2046
3.79314
0.80461
3.22841
1.04591
1.88874
1.18205
4.5993
3.19895
0.630013
2.29614
2.30405
2.1675
4.25976
3.10335
0.0422174
0.573151
-0.67148
-0.198681
-1.83689
1.29566
1.86459
1.44399
1.5617
1.02973
2.39022
2.87175
2.13465
1.37227
5.34575
1.45666
1.71955
1.6646
2.96329
1.62412
0.341354
-1.09786
3.20703
1.57742
-0.385399
3.87993
1.6637
2.47264
2.80342
1.33373
4.18619
2.24117
2.65386
2.2014
2.03788
2.52809
1.74471
1.26735
1.74853
1.17499
0.389624
-1.57578
1.27875
0.756863
0.0245367
-1.59179
3.23162
-0.659193
1.99862
0.356841
0.432738
1.29963
1.36361
1.10345
-0.35951
1.19257
1.21629
2.35938
1.13762
1.97598
2.03577
0.871421
0.873403
0.291913
-0.680724
1.06696
1.35574
0.647226
0.28857
1.78152
-0.750231
0.28609
3.63178
1.23709
2.72564
-0.590089
1.44375
0.47878
-1.31692
-0.422208
0.0490717
1.63818
0.00449265
0.637761
0.700714
0.325228
-0.640999
1.52022
-1.40686
1.39899
2.35814
1.1545
1.04684
-0.521177
0.740462
1.3635
0.154698
-1.42091
-1.08012
-1.31588
-1.61456
-0.0131307
0.965368
-0.496061
2.84779
1.25949
3.16886
5.51219
1.89887
1.92916
3.75431
4.96947
4.86629
4.85819
4.88907
4.82341
3.89289
2.09334
3.21847
3.56323
2.10429
0.307207
-0.145948
-0.110249
-0.255108
0.6673
0.0408697
1.92586
-0.0494486
3.29148
0.392214
4.79013
-0.440399
-0.0153119
3.97628
0.104665
3.97774
0.27661
3.5574
0.163937
1.53973
0.00938579
-2.31038
-1.96202
2.03058
3.83196
1.90955
4.37859
3.32098
3.21936
5.0268
6.76351
2.47552
3.1135
3.76037
3.12092
4.42882
2.42503
2.40872
2.53576
0.233911
0.949649
1.68188
-0.0606757
2.32741
1.03061
1.92869
2.23231
1.22261
0.461049
3.28364
4.44875
5.31282
3.69745
2.12153
4.49216
1.68334
4.44177
4.37363
2.67984
2.44522
1.64397
-0.700579
0.288433
-0.214901
0.533012
-0.651691
2.49842
1.19443
3.89347
1.07931
0.120492
0.457586
2.67716
2.85786
2.65482
3.41887
1.53066
1.22568
1.74488
1.56283
2.30454
0.929427
-0.339436
1.67145
2.48997
1.8124
1.1171
-1.0027
0.0685735
1.1366
2.99852
1.40603
1.92079
1.12078
1.80568
1.81302
3.35843
1.80786
1.46521
1.11595
1.19001
-0.13255
0.764042
1.33358
2.61203
0.754708
1.35975
1.12504
-0.654953
1.70964
0.523837
0.321909
-0.351372
-0.556562
0.423674
0.795271
0.73417
3.27839
1.1964
0.738753
-1.90738
-0.817997
0.776003
-0.418251
1.35928
1.16614
0.182816
3.95529
-0.186914
-1.15922
0.37179
1.71785
-0.0122832
0.455771
0.338508
0.286892
1.22827
2.59502
-0.456168
0.645837
2.07665
1.85006
2.36169
0.955715
2.2703
4.32998
4.80175
3.13741
5.22832
4.32529
7.09482
5.16541
3.66684
5.38797
7.40663
3.56098
3.91906
2.77122
4.34796
1.15616
1.43151
-0.838903
-0.623187
2.03413
0.925915
4.26442
3.90148
3.06029
3.18188
4.89112
5.11987
4.29013
3.14541
5.19158
5.24064
4.28204
5.06025
2.58505
0.873834
2.45543
-0.24865
-1.03786
2.07957
1.62414
0.0863053
4.52059
4.30732
3.96334
4.39506
5.31495
6.59022
4.74775
4.31311
6.33395
5.12791
4.15316
3.54113
2.35
2.53008
3.30748
-0.0916226
1.7961
0.495468
2.59883
1.59505
3.01127
2.27406
3.25368
5.48671
3.13159
2.85256
5.75103
5.4059
3.43768
2.24477
3.70609
2.45018
3.26599
2.88061
1.87037
-1.12515
-0.0683128
3.73779
0.733669
2.17527
3.19
1.52714
4.02248
3.54525
4.99321
3.91781
2.70236
1.40467
5.33949
2.48879
2.59269
3.6739
3.61264
2.39989
1.20225
2.78768
2.55231
-1.51498
-0.0260959
3.65918
1.58599
-1.00293
-0.22465
2.8312
-0.0459712
5.25435
0.435557
4.006
5.00471
1.52246
4.04024
1.35668
0.934554
0.726889
0.384151
1.91302
-1.32243
-0.625505
0.400024
0.602434
-0.705678
0.0122835
2.02417
-0.643241
0.336482
1.15082
1.47073
1.72798
0.53977
-0.976326
1.52239
0.822621
1.43866
0.305437
-1.22414
0.501824
-0.950015
-1.60967
1.75258
-0.523855
2.61538
-0.871007
-0.56095
-0.33035
-0.881893
-0.284161
-0.690012
-0.887327
0.8327
-0.380847
0.795495
-1.07076
-0.395802
1.56115
1.55363
-0.530554
0.298923
)
;

boundaryField
{
    hotSide
    {
        type            calculated;
        value           nonuniform List<scalar> 
400
(
-3.38238
-0.396081
-3.43251
-4.92246
-1.80883
-2.28339
-1.25758
-3.44835
-4.48735
-3.8565
-4.40473
-5.05726
-4.24801
-3.57081
-2.81199
-0.704313
-2.39009
0.889971
0.763887
3.6799
-1.03204
-0.555268
-0.446016
-2.11384
-2.55092
-2.39974
-2.39558
-0.992885
-2.15731
-3.83953
-2.53663
-2.06405
0.885422
-2.60062
0.252487
-2.23196
1.4818
1.93587
4.11094
2.27685
-1.25918
-0.311756
2.08608
2.08476
-1.61073
0.249083
-1.28337
0.630108
-0.749826
0.783947
-2.15997
-0.902575
-1.74879
0.925078
-0.239195
1.03698
1.61752