/*--------------------------------*- C++ -*----------------------------------*\
| =========                 |                                                 |
| \\      /  F ield         | OpenFOAM: The Open Source CFD Toolbox           |
|  \\    /   O peration     | Version:  2212                                  |
|   \\  /    A nd           | Website:  www.openfoam.com                      |
|    \\/     M anipulation  |                                                 |
\*---------------------------------------------------------------------------*/
FoamFile
{
    version     2.0;
    format      ascii;
    arch        "LSB;label=32;scalar=64";
    class       volScalarField;
    location    "0";
    object      relativeErrorField;
}
// * * * * * * * * * * * * * * * * * * * * * * * * * * * * * * * * * * * * * //

dimensions      [0 0 0 1 0 0 0];

internalField   nonuniform List<scalar> 
3200
(
0.0121381
0.00525628
0.00594543
0.00258657
0.00741621
0.0148505
0.00138161
0.0117733
0.00539543
0.00528123
0.000452602
0.00697429
0.00895018
0.00939432
0.0079354
8.82791e-05
0.00305413
0.00401181
0.00248355
0.00212582
0.00660893
0.0068418
0.00278163
0.00358808
0.00653739
0.00645834
0.00753257
0.00806063
0.00892447
0.00360479
0.00305281
0.00599705
0.00626839
0.00652077
0.0125217
0.00618709
0.00567967
0.000745838
0.010235
0.0108036
0.0121176
0.00189439
0.00977326
0.00303553
0.00172526
0.0068803
0.00477277
0.00114865
0.0170299
0.00907953
0.00547305
0.00932934
0.000497434
0.000957842
0.0113657
0.012752
0.00261903
0.000392352
0.00264489
0.000374525
0.00325058
0.00407152
0.00231725
0.00318689
0.00672701
0.00918158
0.00420537
0.000152794
0.00703207
0.00489054
0.00576445
0.0040414
0.0022161
0.0039431
0.0112612
0.00538801
0.00532748
2.20994e-05
0.00620539
0.00324954
0.0130127
0.00358425
0.00775234
0.000371619
0.00826812
0.00570461
0.00111481
0.00201741
0.00756789
0.00481897
0.0120834
0.00601976
0.00729612
0.00229065
0.00443982
0.000973371
0.00820101
0.00207417
0.00365814
0.0052825
0.00829754
0.00596251
0.00128262
0.00330282
0.00557883
0.00137825
0.000189375
0.00529925
0.00429225
0.0022157
0.00201938
0.00335738
0.000468616
0.000109926
0.00172842
0.0033083
0.00380714
0.000326332
0.00186622
0.000644345
0.0104546
0.00182474
0.000803782
0.00355502
0.00235507
0.00288159
0.00516923
0.00142957
0.000846126
0.0069792
0.000473367
0.00169875
0.000686295
0.00199443
0.00183477
0.0027326
0.00236685
0.00498182
0.00199648
0.00361238
0.00298167
0.00229757
0.00747822
5.16427e-05
0.00746078
0.00240003
0.00232335
0.00134025
0.00238525
0.00474036
0.00114532
0.00133298
0.00302599
0.00174376
0.00159986
0.00090165
0.00302234
0.000651932
0.000119927
0.00315375
0.00337273
0.00386327
0.00317404
0.0125782
0.00299795
0.00810492
0.00824768
0.00706592
0.00778208
0.00176439
0.00626517
0.0123435
0.00781824
0.00821795
0.0127413
0.00565264
0.00677168
0.00186974
0.000536711
0.00590616
0.00648664
0.000378774
0.00479499
0.000287941
0.0113075
0.000803898
0.00579707
0.00125642
0.00527777
0.000441499
0.00187612
0.0025829
0.000516343
0.00614841
0.0014008
0.00412819
3.65849e-05
0.00216922
0.00111533
0.00643759
0.00596484
9.43971e-05
0.0038388
0.00275901
0.00476992
0.00885053
0.0043546
0.00471196
0.00485899
0.000523904
0.000944275
0.00829979
0.00856775
0.00121319
0.00461675
0.0103585
0.00267576
0.00224305
0.00537198
0.00476431
0.00826775
0.00603651
0.00384477
0.000858652
0.00515164
0.00762632
0.00557062
0.00423806
0.00424269
0.00243132
0.00951776
0.00391905
0.00275007
0.00487376
0.00974111
0.008221
0.00429961
0.00364665
0.00443171
0.00128171
0.00135998
0.00227519
0.00366084
0.000242238
0.00379457
0.00688796
0.00678095
0.00315507
0.0111968
0.00202645
0.00474763
0.00325207
0.00731589
0.00247976
0.00613059
0.00577564
0.00202453
0.0060519
0.000739506
0.00426713
0.00182293
0.00335668
0.00282609
0.00219424
0.00259673
0.00451318
0.00387331
0.00285138
0.0130347
0.000804454
0.00158146
0.000399273
0.00683027
0.00510153
0.00348201
0.00352898
0.00364386
4.35058e-05
0.00182629
0.000416525
0.00577933
0.00270923
0.00513582
0.000933432
0.00260412
0.00714309
3.57175e-05
0.00228976
0.00252951
0.00585472
0.00516762
0.00349961
0.00445264
0.00579525
0.00781931
0.00416455
0.000558105
0.00147106
0.00305859
0.00494271
0.00288382
0.0022028
0.00339866
0.00239709
0.00263071
0.00151605
0.00674381
0.00175346
0.000762275
0.00246919
0.00609223
0.00115613
1.76291e-05
0.00286941
0.00512638
0.0018478
0.00221139
0.00161485
0.00987044
0.00512966
0.0122928
0.00355576
0.00383368
0.00672183
0.00300727
0.0148028
0.00414531
0.00343165
0.00689499
0.00320746
0.00551342
0.00383915
0.000549335
0.000593669
0.00502222
0.00495988
0.00536613
0.00699054
0.000666858
0.0126622
0.00462824
0.00225037
0.00586005
0.00869865
0.00118066
0.00636834
0.00718876
0.00646005
0.00794811
0.00236835
0.0080457
0.010834
0.00968141
0.00240836
0.00652721
0.00287993
0.00148995
0.00125093
0.00188641
4.62299e-05
0.000266636
0.00448235
0.00102652
0.000303398
0.000594716
0.0051249
0.00490142
0.00697117
0.00259823
0.00177327
0.000760143
0.00304388
0.00308279
0.00866343
0.00961078
0.000702408
0.00326718
0.00740749
0.00441775
0.00195977
0.00329282
0.00532582
0.00183202
0.00238681
0.00334127
0.00691241
0.00325991
0.00238584
0.00396476
0.00415673
0.0083864
0.00223162
0.0079691
0.0019008
0.00249278
0.00282186
0.00318935
0.00210898
0.003242
0.0054415
0.00525217
0.00132957
0.000905118
0.000482805
0.00258612
0.00477856
0.00264442
0.00311365
0.000813461
0.00319676
0.00233237
0.00137306
0.00882425
0.00646942
0.00116651
0.0028967
0.00233266
0.00504258
0.000281267
0.000841453
0.000187931
0.0031746
0.00145932
0.00253438
0.0048331
0.000282087
0.00274463
6.80631e-05
0.00112677
0.00179765
0.0104926
0.0027825
0.00678081
0.00262915
0.00233022
0.00472505
0.00391996
0.00130227
0.00402469
0.00183528
0.000467369
0.00966567
0.00154594
0.00372038
0.00300702
7.47811e-05
0.00220923
0.000724432
0.00298373
0.00409143
0.000646769
0.00627854
0.00445597
0.00486476
0.00278057
0.00318336
0.000415488
0.002896
0.00216148
0.00218573
0.00275601
0.000446943
0.000749019
0.00606321
0.0026123
0.0101655
0.00277212
0.0115475
0.00556995
0.00290088
0.00235701
0.00153186
0.000768084
0.00242248
0.00105407
0.00579076
0.00288089
0.00483396
0.000885314
0.00464317
0.0166643
0.00845651
0.00380067
0.00942511
0.00683379
0.0062161
0.0100251
0.00757217
0.00455881
0.00903939
0.00767882
0.00160719
0.00111639
0.00989821
0.00398222
0.00910769
0.000336648
0.0054691
0.00880035
0.010442
0.00862049
0.0008851
0.000331314
0.00249957
0.00917902
0.000939642
0.00302202
0.000154552
0.00240737
0.00127082
0.000283396
0.00291316
0.00171605
0.0119632
0.00163117
0.000127732
0.00125219
0.00133536
0.000851167
0.00660181
0.00164767
0.00195414
0.000603371
0.00408288
0.00734361
0.00446688
0.00448305
0.00464318
0.000216359
0.0057278
0.00116251
0.000121009
0.00020813
0.000884556
0.000112761
0.0077678
0.000511362
8.64758e-05
0.00435786
0.000333802
0.00446076
7.38776e-05
0.00378372
0.00377882
0.000926185
0.00516844
0.00359151
0.00868357
0.00206233
0.00749411
0.000878943
0.00723809
0.00877936
0.00889423
0.00131347
0.00403729
0.00361842
0.00363121
0.00439614
0.00822044
0.00501718
0.00789112
0.00370072
0.000588533
0.00454879
0.00161655
0.00835093
0.00303911
0.0055117
0.00370035
0.000622615
0.00125523
0.000727067
0.00486603
0.0125389
0.0026849
0.00392631
0.00587338
0.001642
0.00514623
0.000982274
0.00375418
0.00480741
0.000946803
0.00349286
0.00424846
0.00345278
0.00474008
0.00290321
0.00176904
0.000999867
0.00309233
0.00376164
0.00446861
0.00140495
0.00677718
0.00259616
0.00831813
0.000412536
0.00791469
0.00276503
0.00273977
0.0076411
0.00399974
0.00197946
0.000598214
0.00961046
0.000222864
0.000138736
0.0038747
0.00327573
0.00537368
0.00595604
0.00516191
0.00458616
0.00113875
0.00132919
0.0057747
0.00409824
0.00294888
0.000287887
0.0034981
0.00477967
0.0028513
0.00228966
0.00058872
0.000301051
0.00172981
0.00280308
0.00460562
0.00274618
0.003332
0.000757789
0.00350387
0.00329289
0.000851409
0.00394259
0.0033605
0.00801379
0.00402387
0.00756363
0.00975007
0.0070231
0.00402407
0.00140197
0.00202338
0.00341732
0.00921635
0.00149499
0.00495008
0.00542378
0.00181441
0.00435587
0.00729089
0.000559899
0.00134604
0.00268614
0.00167429
0.00651664
0.0113133
0.00505849
0.00419062
0.00342996
0.0001974
0.00682278
0.00414423
0.0014002
0.00222919
0.000923429
0.00420851
0.00164589
0.00175013
0.000284902
0.00177379
0.00164592
0.00224959
0.00355143
0.00459514
0.00805158
0.0058592
0.00351216
0.00857263
0.000179444
0.00308607
0.000210536
4.12067e-05
0.000800576
0.00132195
0.00357974
0.00840865
0.00702253
0.00137849
0.000342737
0.000591416
0.00553412
0.00749408
0.000531175
0.0011944
0.00671829
0.0138666
0.00833971
0.00165111
0.00276798
0.000560398
0.00749822
0.00619401
0.00563608
0.00154136
0.000605911
0.00438058
0.00134138
0.00228306
0.00713055
0.00206312
0.00189529
0.00457084
0.00307265
0.00356292
0.00446998
0.00211129
0.00250964
0.00438989
0.00162413
0.00311732
0.000432707
0.00116817
0.00182091
0.0126051
0.00713867
0.00127686
0.000773069
0.00150053
0.0021949
0.00223289
0.00396957
0.00252367
0.00607952
0.00154224
0.00249681
8.3497e-05
0.00103425
0.00418358
0.00441144
0.00432096
0.00636111
0.00253926
0.00133911
0.00590417
0.000225582
0.00407696
0.000704675
0.00267949
0.00676108
0.00150354
0.00771023
0.00308386
0.00780201
0.00364267
9.56279e-05
0.00153113
0.00794968
0.00154104
0.00361318
0.000822268
0.0031571
0.00807344
0.00553518
0.00386864
0.00386128
0.00602856
0.0015033
0.00423472
0.00189061
0.00026549
0.00288198
0.00281446
0.00550321
0.00169807
0.0019963
0.000757141
0.000739872
0.00289015
0.00148677
0.00497268
0.00492285
0.00284561
0.00614967
0.00214235
0.00278349
0.00170613
0.0101733
0.00644707
0.00486765
0.00463061
0.00114324
0.00131862
0.000379086
7.7991e-05
0.000605928
0.00685855
0.00897145
0.00932747
0.00163177
0.00149015
0.007918
0.00409858
0.00288613
0.00243117
0.0035819
0.000440749
0.00684329
0.0120692
0.000131117
0.000349148
0.00961082
0.000693809
0.000725318
0.00195439
0.00880428
0.0114424
0.00752134
0.000181928
0.00232342
0.000784214
0.00201836
2.89001e-05
0.00311563
0.000207574
0.00260642
0.00051801
0.000265654
0.00276827
0.00164585
0.00223925
0.000813137
0.0113499
0.000127793
0.00321889
0.00146282
0.00947775
0.0117797
0.003921
0.0012022
0.000545708
0.00663225
0.0048111
0.00280523
0.00719878
0.000167601
0.00180817
0.00325922
0.00186705
0.00211508
0.00145052
0.00230612
0.00525525
0.00490972
0.00472245
0.00420114
0.00114872
0.00132261
0.00622325
0.000942107
0.00164176
0.00097393
0.000654417
0.000679786
0.00125932
0.00268161
0.00348785
0.00244833
0.0038342
0.0026499
3.29712e-05
0.000681085
0.00390577
0.00046087
0.00512671
0.00222623
0.011071
0.0038752
0.00474442
0.00230011
0.000374987
0.00447964
0.00426709
0.00367686
0.00534004
0.00332096
0.00492299
0.00669651
0.00318401
0.000841352
0.00321063
0.00554651
0.00828874
0.00854295
0.00131314
0.00920903
0.00263864
0.00396581
0.00148283
0.00404848
0.00228147
0.00189242
0.00204899
0.000351222
0.000819786
0.00237771
0.00756113
0.00204772
0.000488171
0.000377499
0.00170289
0.00154841
0.00577722
0.00185825
0.000646365
3.37308e-05
0.00302227
0.00706793
0.00208296
0.00021299
0.00133084
0.000462671
0.00387311
0.00135211
0.00231189
0.000285151
0.000765218
0.00256567
0.00157986
0.0004335
0.0058346
0.00250396
0.0029508
0.00326273
8.71169e-05
0.00400815
0.0026948
0.00282472
0.00181379
0.00486856
0.00121597
0.000627027
0.00792517
0.0032939
0.00100835
0.00370395
0.00403217
0.00209188
0.000309118
0.000485108
0.00222886
0.000431278
0.00139822
0.00242392
0.00517788
0.00553213
0.00462908
0.00601312
0.00933828
0.00612475
9.51339e-05
0.00311955
0.000802769
0.000743543
0.00271472
0.00286299
0.0021153
0.00109404
0.000958345
0.00261635
0.00204473
0.00278508
0.00104414
0.0027956
0.00597628
0.00980629
0.014484
0.00678033
0.00249987
0.00491341
0.0019945
0.00284119
0.00924224
0.00210925
0.00369234
0.00169606
0.00404693
0.00215213
0.00274614
0.00415476
0.00347917
0.000523762
0.0032669
4.93538e-05
0.00333169
0.00818842
0.00415608
0.00756214
0.00338006
0.00303054
0.00538955
0.00282058
0.00247683
0.000838223
0.00248521
0.00134454
0.00152319
0.00629859
0.00187105
0.00398173
0.000366325
0.000417525
0.00159875
0.00132642
0.00758822
0.00600264
0.00996244
0.00171368
0.00767424
0.00024185
0.00180624
0.0038661
0.00120702
0.00624916
0.00217421
0.00271451
0.00399662
5.7336e-05
0.00164411
0.000513714
0.00169181
0.00150671
0.00294382
0.0124022
3.86306e-06
0.000724578
0.00857995
0.0126672
0.00261427
0.00364156
0.00130282
0.00419838
0.00392216
0.000106725
0.000592233
0.00630242
0.000328213
0.00063813
0.00289859
0.00257946
0.00325707
0.00399731
0.000831165
0.00484166
0.0118375
0.000730759
0.00291942
0.00051618
0.00288525
0.0013862
0.0016404
0.00218119
0.00179624
0.00113367
0.00435342
0.00495263
0.00404544
0.000794831
0.00667422
0.00591247
0.00483129
0.00164515
0.00313356
0.00232272
0.00636654
0.00160289
0.00287033
0.0047654
0.00169334
0.000315711
0.00635169
0.00293726
0.000991694
0.000868264
0.00313104
0.00301143
0.00290398
0.00342227
0.00241912
0.00681267
0.000873521
4.26477e-05
0.000210336
0.000885778
0.00141066
0.00450595
0.00435655
0.00194901
0.00447305
0.000532328
0.00479481
0.00631121
0.00310701
0.0078332
0.00130521
0.000243695
0.000391624
0.0019249
0.000380987
0.00231569
0.000427263
0.00152385
0.00581641
0.00920286
0.00765735
0.000519953
0.000844537
0.0124011
0.00530248
0.000623823
0.000799275
0.00332841
0.000828668
0.00458334
0.00512434
0.00168523
0.00108157
0.00241195
0.00133189
0.00207327
0.000771308
0.00866189
0.00319493
0.00295141
0.00232827
0.0094373
0.00983936
0.00797116
0.00143878
0.000856488
0.00120263
0.00487149
0.000236297
0.000316067
0.00106285
0.00715774
0.000384986
0.000156681
0.00231712
0.000403988
0.00192225
0.000777897
0.00140852
7.71259e-05
0.00423253
0.00128058
0.00876555
0.00949677
0.000485076
0.00288282
0.00223538
0.00579641
0.00536729
0.00145511
0.00372586
0.00179754
0.00879083
0.00448263
5.88357e-05
0.00288439
0.00251016
0.00310367
0.00387062
0.00234928
0.00166527
0.00692426
0.0119013
0.00619291
0.00141058
0.00706992
0.00147709
0.00217784
0.0101145
0.0027656
0.0029587
0.00188963
0.00506769
0.00231902
0.000513838
0.00598751
0.00622273
0.00254833
0.00121771
0.00187042
0.00159384
0.000829686
0.0126338
0.00799709
0.00301571
0.00608275
0.00683408
0.00368116
0.00449364
0.00287852
0.00276616
0.00191808
0.0100151
0.00510224
0.00344822
0.000865602
0.00372902
0.00124521
0.000692626
0.00481365
0.00779652
0.0043243
0.00471943
0.00326521
0.00414567
0.00102308
0.00284915
0.00201847
0.00528537
0.00249871
0.00206912
0.00359396
0.00560469
0.00151854
0.00111146
0.00168506
0.00662499
0.000567515
0.00250808
0.00501218
0.00179427
0.00852603
0.00172822
0.00570393
0.000470406
0.00382829
0.000408119
0.00214233
0.00899122
0.00821307
0.000620172
0.00147978
0.00187628
0.00071166
0.00708372
0.000195251
0.00182526
0.00194261
0.000285744
0.00205109
0.000623769
0.00194208
0.00391976
0.00117325
0.000214594
0.00658928
0.00493337
0.00117679
0.00438333
5.37637e-05
0.000213213
0.00367135
0.00161764
0.00260876
0.00200981
0.00308885
0.00427324
0.00401568
0.00142231
0.00267368
0.00578228
0.00298272
0.000427383
0.0154206
0.00870826
0.00466476
0.000754027
0.00635106
0.00822919
0.0012615
0.000343502
0.00648738
0.00278712
0.000572434
0.00581985
0.0092362
0.00162174
0.00666502
0.00341793
0.00164679
0.00889772
0.0047317
0.0183298
0.0167666
0.00423929
0.0124438
0.000191244
0.000627915
0.0096034
0.000206722
0.00529022
0.000797569
0.00105534
0.000773559
0.00272631
0.00165669
0.00439
0.00642264
0.000559092
0.00195404
0.0112189
0.00313521
0.0112302
0.0115749
0.00503766
0.00500074
0.00147774
0.0062046
0.0036031
0.00124983
0.00129386
0.000353913
0.00421954
0.00505185
0.00196715
0.00265658
0.00593018
0.00209949
0.00113448
0.00193727
0.00217179
0.00268623
0.0121383
0.00421763
0.0003169
0.00480533
0.000464023
0.00385772
0.000829322
0.00140841
0.00137394
0.00606791
0.00403007
0.00435275
0.00293004
0.00438624
0.00179439
0.00397236
0.00200608
0.000103442
0.00215422
0.00165561
0.00654174
0.0086086
0.00207588
0.0113191
0.000877314
0.000869944
0.00277697
0.00201096
0.00805555
0.00288027
0.0042001
0.00239337
0.00362269
0.000122615
0.00424181
0.00380762
0.000384596
0.00164835
0.00473941
0.000849668
0.00356995
4.00859e-05
0.00162591
0.00109773
0.00247566
0.00230668
0.000284094
0.00589468
0.00443941
0.00332724
0.00267615
0.00137341
1.7335e-05
0.00578676
0.00208449
0.00372124
0.00634735
0.00778354
0.000451919
0.0041112
0.00493258
0.00113037
0.00235226
0.00634806
0.000818996
0.000449673
0.00442713
0.00189038
0.00275923
0.0021208
0.00209015
0.00117372
0.00597934
0.00088008
0.0108215
0.00589654
0.00231235
0.00115368
0.00746558
0.00172284
0.00167673
4.41854e-05
0.0022223
0.00377516
0.00773422
0.00163809
0.00795124
0.00302559
0.00184536
0.00486296
0.00168959
0.00215959
0.00282627
0.000583568
0.00642831
0.000619529
0.00196067
0.00135385
0.0026011
0.000219055
0.00507098
0.0136165
0.0135786
0.000315132
0.00602735
0.00108195
0.000880016
0.00395261
0.00304006
0.00142974
0.000764551
0.0055469
0.00145787
0.00141459
0.00436511
0.00212118
0.0121913
0.00435043
0.00864505
0.00694261
0.0170504
0.00952591
0.000767853
0.000701258
0.000692503
0.0012906
0.000770793
0.00418166
0.00101184
0.00584627
0.0012522
0.000176772
0.00374594
0.000200037
0.00503186
0.000240583
0.0011428
0.000548233
0.0039645
0.000592669
0.0139615
0.00824324
0.00869666
0.00284838
0.00269343
0.00623877
0.00378094
0.0020324
0.00259466
0.000507379
0.00228253
0.00163541
0.0052869
0.00537807
0.00240447
0.010318
0.00867693
0.00257202
0.00242189
0.0105313
0.00787412
0.00379456
0.00331143
0.000765124
3.88339e-05
0.00196248
0.0111687
0.00702077
0.00132307
0.00153694
0.00445132
0.00360996
0.0038612
0.00525162
0.000852344
0.00346458
0.00760511
0.000503869
0.00477024
0.00478006
0.0052761
0.00242678
0.00488523
0.00224725
0.00133235
0.000315694
0.000707035
0.00399119
0.00685843
0.00297863
0.00232298
0.0021592
4.33374e-05
0.000609103
0.00334989
0.00444302
0.000324991
0.00101946
0.000684018
0.0058563
0.000180572
0.000180736
0.0023968
0.00905185
0.00438047
0.00312285
0.00194885
0.00135123
0.0018943
0.00564226
0.00584514
0.000873994
0.00213389
0.00399137
0.00216826
0.00567848
0.00301095
0.00315458
0.00210048
0.00162816
0.00484337
0.00284359
0.00637459
0.00619596
0.0011507
2.46338e-05
0.000992591
0.00426521
0.00328064
0.00154751
0.00572293
0.0100134
0.00279233
0.00222275
0.00146543
0.00551729
0.000284698
0.00191442
0.00699132
0.00170977
0.00402946
0.00154488
0.00117586
0.0064137
0.00232749
0.00746988
0.00206625
0.0036775
0.00115427
0.00589797
0.00343503
0.00256278
0.00286825
0.00698354
0.00165051
0.000664422
0.000399524
0.000123067
0.00147965
0.000372693
0.00152372
0.0152041
0.00987195
0.00880726
0.00116764
0.00139806
0.0039462
0.00167492
0.003007
0.00501068
0.000925537
0.00461201
0.00022512
0.00810126
0.00363742
0.0072545
0.0075522
0.00213031
0.0012083
0.013991
0.015636
0.0153806
0.00126814
0.00573788
0.00113348
0.000259155
0.000615335
3.37421e-05
0.000132302
8.42967e-05
0.000773584
9.35327e-05
0.00436763
0.0012438
0.00131094
0.000187492
0.00228403
0.00138859
0.0002192
0.000251944
0.00878548
0.00496226
0.00681864
0.0026157
0.00378477
0.00181981
0.0059026
0.00127892
0.00443195
0.004512
0.000593207
0.00384601
0.00281716
0.00268736
0.0043996
0.000268636
0.00246648
0.00524426
0.00301068
0.0105383
0.00633176
0.0112445
0.00779232
0.00641268
0.00274631
0.00315808
0.00238115
0.000948802
0.00266693
0.00193733
0.00127551
0.00170559
0.00779352
0.000118602
0.00130192
0.000210965
0.00238941
0.00507737
0.00233068
0.00222388
0.00513152
0.00428967
0.00210214
0.000859377
0.00213271
0.00203838
0.00251767
0.00412085
0.00415429
0.00111473
0.00210002
0.00347973
0.00586078
0.000933211
0.000524739
0.00278797
0.00314502
0.0020882
0.000274201
0.0104669
0.00508154
0.00785842
0.00809059
0.00306928
0.00313414
0.00356044
0.000265154
0.000732414
0.000571198
0.00219976
0.00566034
0.000677797
0.00268223
0.00728783
0.000379601
0.00280438
0.0017492
0.000766053
0.00279185
0.0035738
0.00568584
0.00825846
0.00343286
0.00142924
0.000908226
0.00179245
0.00111904
0.00220238
0.00441314
0.00145784
0.00310406
0.00678157
0.00435267
0.00111678
0.000262111
8.73124e-07
0.00595976
0.00011525
0.00394572
0.00136769
0.00410933
0.00106435
0.00385407
0.00250043
0.00102351
0.00650205
0.00112117
0.00584543
0.00288257
0.00469275
0.00760156
8.53979e-05
0.00460888
0.00111982
0.00099232
0.00194714
0.00371545
0.000731107
0.00460351
0.00115567
0.00204524
0.0170739
0.00856784
0.00527769
0.00564874
0.00649667
0.00375283
0.00103457
0.00130064
0.00370241
0.00472328
0.0020047
0.00101436
0.00317085
0.0123412
0.000164482
0.00322687
0.000808341
0.00476192
0.0068685
0.00677137
0.0159602
0.00619861
0.00693865
0.00523217
0.000900826
0.000169962
0.00149423
0.00216225
0.00441409
0.00550431
0.00107839
0.00356505
0.00501874
0.00144338
0.00307223
0.00136331
0.0081061
0.00530403
0.00930617
0.0097414
0.0125247
0.00888232
0.00493026
0.00489856
0.00356509
0.00255525
0.00591546
0.00161008
0.00186505
0.00184445
0.001506
0.00276153
0.000346182
0.000914959
0.000186146
0.00353922
0.000176849
0.000376279
0.00858288
0.00766514
0.0115475
0.00154712
0.017105
0.0045681
0.00156218
0.000974097
0.00219327
0.00298217
0.00380694
0.00231039
0.00303681
0.00856682
0.000418616
0.0031086
0.00252129
0.00166865
0.00272118
0.0019339
0.00998221
0.00591391
0.00548136
0.00362266
0.00195816
0.00501934
0.000769956
0.00316607
0.00239912
0.00376292
0.00334033
1.13161e-05
0.000207389
0.00277928
0.00210946
0.00321081
0.00263511
0.00127071
0.00485191
0.00180293
9.7039e-05
0.0112495
0.00586318
0.00364156
0.000710061
0.00423012
0.00353497
3.29961e-05
0.00220127
0.00680152
0.00613775
0.00297069
0.00655547
0.00762207
0.00151065
0.00346063
0.00366683
0.00514888
0.00227165
0.00114093
0.00294322
0.00360575
0.00426257
0.00720759
0.00331581
0.00823268
0.00119179
0.00218444
0.00272356
0.00615179
0.00274658
0.00606713
0.00423826
0.00275357
0.00172406
0.00349166
0.00609421
0.00394007
0.00180906
0.00641436
0.00909665
0.0113624
0.00414842
0.00367703
0.00585394
0.00395927
0.00463024
0.00171128
0.00308409
0.000764007
0.00813418
0.00156237
9.09886e-05
0.00125432
0.000698134
0.00222339
0.00338682
0.00158624
0.00478934
0.00320157
0.00102186
0.00350798
0.0147877
0.000277517
0.00773851
0.00550456
0.0077822
0.00526034
0.00484968
0.00323035
0.0028877
0.00249867
0.00452706
0.00364773
0.00250379
0.00501621
9.35625e-05
0.00482924
0.00197568
0.000405639
0.0136535
0.00821469
0.0173308
0.00171964
0.00664103
0.000213613
0.00494575
0.000668435
0.00855416
0.000368393
0.00882344
0.0010842
0.000466359
0.00692375
0.000517807
0.000304134
0.00058311
0.0031703
0.000535153
0.000274378
0.000600203
0.0143029
0.00567893
0.00813533
0.00878105
0.00471499
0.00177315
0.0062044
0.000292257
0.0015537
0.00712603
9.60512e-05
0.005867
0.00103451
0.00427842
0.000772482
0.00101442
0.000753952
0.0006968
0.00387579
0.00294648
0.0126796
0.000871943
0.00702587
0.00681502
0.00127222
0.00170246
0.00116576
0.000596745
0.00109109
0.00376912
0.00416178
0.00402321
0.0032832
0.00263401
0.00031239
0.00281739
0.00830797
0.000379057
0.00272032
0.00531405
0.00458531
0.00242087
0.00399929
0.00773094
0.000194071
0.00423293
0.00257566
0.00411871
0.00358163
0.000525862
0.00353405
0.00012881
0.0053563
0.00324141
0.00289927
0.00816357
0.0010464
0.000392938
0.00207038
0.00487216
0.00582164
3.5431e-05
0.0047917
0.0034301
0.0073487
0.00211376
8.37355e-05
0.00277222
0.00366572
0.000186872
0.00133359
0.00471505
0.000395691
0.00184538
0.00249861
0.00366275
0.00134786
0.00244778
0.00272805
1.57912e-05
0.00941573
0.00695224
0.00209445
0.00126101
0.00607373
0.00107963
0.00113641
0.000730767
0.00171719
0.0084385
0.00402352
0.00270511
0.00372598
0.00234276
0.00132083
0.00159347
0.00380775
0.00724382
0.00051017
0.00287165
0.00368406
0.00229686
0.00588493
9.85695e-05
0.000404038
0.00250446
0.000900085
0.00554906
0.00289712
0.0122745
0.000553457
0.00100128
0.000851768
2.76099e-05
0.00273836
0.00394424
0.00240627
3.79937e-05
0.00318857
0.00159488
0.00181528
0.0129015
0.0101828
0.000286528
0.00305876
0.00513289
0.000332929
0.000444804
0.0041638
0.00447508
0.00147004
0.0026709
0.00147855
0.000619428
0.00268992
0.00321021
0.00699336
0.00177761
0.00615298
0.0111688
0.00499715
0.00973445
0.00668424
0.0117324
0.00368997
0.000993905
0.000388126
0.00638894
0.000266383
0.00353144
0.00179834
0.0055597
0.00181207
0.00348844
0.00230945
0.00461771
0.00104142
0.00179599
0.00221467
0.00607698
0.00691004
0.0127258
0.00617899
0.00184851
0.0102006
0.0025741
0.00234687
0.00538165
0.00561767
0.00221297
0.00279261
0.000715919
0.00236954
0.00281027
0.00246864
0.00191416
0.000861486
0.00377377
0.00340215
0.00387027
0.00717238
0.0071174
0.00473986
0.000219312
0.00604928
1.01084e-05
0.00478899
0.00440152
0.00941177
0.00213633
0.00473132
0.000476805
0.000765889
0.00331597
0.000631225
0.00152356
0.00228475
0.00856768
0.00375739
0.00431108
0.00843151
0.0026518
0.012745
0.00448424
0.000873574
0.00149567
0.000234525
0.00705489
0.00674133
0.00139487
0.00339032
0.00266862
0.00457396
0.00259573
0.00254881
0.00014316
0.00286198
0.00123892
0.000672827
0.00152899
0.00563875
0.00288543
0.0011296
0.00348518
0.00363699
0.000501885
0.00189691
0.00578656
0.000765944
0.00915262
0.00480432
0.00229879
0.00829649
0.00229872
0.00158586
0.00759295
0.000504386
0.00427729
0.00257818
0.00486848
0.00179843
0.000583315
0.00195888
0.000229808
0.00325939
0.00772186
0.00346052
0.0033759
0.00236999
0.00238993
0.0019562
0.00550917
0.00105091
0.00545042
0.000821616
0.00212357
0.00584423
0.00195585
1.72057e-05
0.00333708
0.00297782
0.00311726
0.00177795
0.000457968
0.000484318
0.00593129
0.00657748
0.0020326
0.00812616
0.0029405
0.00239076
0.00573828
8.51261e-05
0.00515059
0.00201873
0.0018907
0.000556129
0.00101315
0.00248985
0.000632165
0.00164542
0.0108142
0.0022655
0.00364951
4.57829e-05
0.00248143
0.00152886
0.00252677
0.0097016
0.00117422
0.00238647
0.00146617
0.00200369
0.00519787
0.00200987
0.00300997
0.00263408
0.0026086
0.00800627
0.00311038
0.00845865
0.00725896
0.00092476
0.00874295
0.000194046
0.0065154
0.000965138
0.00620258
0.000751374
0.00105001
0.000409015
0.00100298
0.000218157
0.000354684
0.00235043
0.0017739
0.00498629
0.000102238
0.00215723
7.99899e-05
0.0114401
0.00732622
0.010067
0.00320791
0.00135807
0.00251344
0.00350137
0.00497387
0.0031108
0.0033504
0.00425463
0.00160711
0.00456997
0.0078005
0.00202452
0.00318571
0.00252641
0.000935624
0.00134389
0.00509011
0.00353028
0.00712125
0.00143818
0.00411681
0.000885041
0.00233151
0.000991623
0.00160896
0.000630214
0.00452203
0.000320628
0.000719804
0.0031297
0.0013491
0.000464248
0.00694651
0.00655472
0.00584421
0.00113472
0.000800317
0.00679412
0.00212788
0.011504
0.00473257
0.000466094
0.00284602
0.00329024
0.00316214
0.00229319
0.000966895
0.000951048
0.00393089
0.00193329
0.00184661
0.00176152
0.00414035
0.00313157
0.00678117
0.00242156
0.00445216
0.00190847
0.00611091
0.00466958
0.00635505
0.00211863
0.00284403
0.00471317
0.00100382
0.00830107
0.00271563
0.00208966
0.00249794
2.8955e-05
0.00382548
0.000238057
0.00360763
0.000867814
0.00138911
0.00551479
0.00112696
0.00181277
0.00578588
0.00473057
0.0032695
0.00649315
0.00245576
0.00176113
0.00226677
0.000210464
0.00370851
0.00302459
0.00348369
0.00365084
0.00270633
0.00257348
0.00318978
0.0075526
0.00429486
0.00117765
0.00248893
0.00277882
0.000844908
0.00303149
0.00801983
0.00832031
0.00235524
0.000713159
0.00383667
0.00176437
0.00281343
0.00138611
0.00284742
0.00349717
0.00147251
0.00131268
0.000628519
0.00100949
0.00655216
0.000752171
0.00176354
0.000159405
0.00501772
0.00926339
0.000210586
0.00253015
0.00447871
0.00252999
0.00213698
0.0048558
0.00121247
0.0066824
0.00640495
0.00242057
0.000908511
0.0112769
0.0058544
0.00688718
4.81269e-05
0.0034601
0.00663643
0.00539585
0.000660269
0.00609591
0.00132199
0.00183762
0.00188664
0.000824668
0.00494523
0.000966265
0.00212265
0.00469391
0.00533311
0.00333641
0.0080622
0.00295792
0.00347447
0.00388433
0.00669135
0.00209886
0.00217891
0.00471621
0.00153599
0.00489147
0.00525989
0.000579911
0.00316721
0.00390472
0.0012084
0.00373654
0.00398157
0.00337566
0.00371246
0.00537637
0.00950516
0.0138565
0.00268847
0.000339604
0.00875198
0.00083119
0.00192099
0.000188072
7.82676e-05
0.00827203
0.00596449
0.00399676
0.00556814
0.00170667
0.00253614
0.00279429
0.00170151
0.00371959
0.00263523
0.00359371
0.00421314
0.00774692
0.00048379
0.00651228
0.00134583
0.00015345
0.00145654
0.000234776
0.00492472
0.00264784
0.00108052
0.00371787
0.00968163
0.00323929
0.0106961
0.000880021
0.0012296
0.00377021
0.00128135
0.00508229
0.0107936
0.00136445
0.00612859
0.00255179
0.00190367
0.00399452
0.0061677
0.00195362
0.000137265
0.0039463
0.00505939
0.005368
0.00293464
0.000991415
0.000689374
0.00730644
0.0093699
0.00147757
0.0040058
0.00157876
0.0024513
0.00646796
0.00985694
0.00285236
0.00303981
0.00326818
0.00214987
0.00157289
0.0063677
0.0063193
0.00335521
0.000908174
0.00685692
0.000839076
0.00172964
0.00151755
0.00337248
0.00554511
0.00124235
0.00472441
0.00316234
0.00160352
0.00420876
0.00275283
0.00578345
0.00178423
0.000356206
0.00078914
0.00311403
0.0007397
9.54087e-05
0.00154397
0.00124513
0.00058244
0.00280968
0.000920517
0.00378387
0.000135535
0.00427022
6.79155e-06
0.00193364
0.00211906
0.00265034
0.00668016
0.0021991
0.00536543
0.000993703
0.006036
0.00975644
0.000894128
0.00125669
0.0024555
0.00190041
0.00184088
0.00278985
0.00808098
0.0109826
0.00513719
0.00332463
0.00379204
0.00273417
0.00640049
0.00137315
0.00264853
0.00298638
0.00112425
0.000516518
0.00552831
0.00887124
0.000334042
0.00628691
6.91437e-05
0.00634331
8.5597e-05
0.00492749
0.00144062
0.00699789
0.000717081
0.000876386
0.0117595
0.00105888
0.00870623
0.000487304
0.00647619
0.00164181
0.00247298
0.00025326
0.00604836
0.00301238
0.00334667
0.00124056
0.00133036
0.00636905
0.00834875
0.00456477
0.0071127
0.00743311
0.0054508
0.00153918
0.00387219
0.0112619
0.0108467
0.00840275
0.000752652
0.00115927
0.00263906
0.000896134
0.000462828
0.00316053
0.00496234
0.00824647
0.00080297
0.001443
0.00305234
0.00811327
0.00248824
0.000295434
0.00294346
0.0072617
0.00104191
0.000228518