/*--------------------------------*- C++ -*----------------------------------*\
| =========                 |                                                 |
| \\      /  F ield         | OpenFOAM: The Open Source CFD Toolbox           |
|  \\    /   O peration     | Version:  2212                                  |
|   \\  /    A nd           | Website:  www.openfoam.com                      |
|    \\/     M anipulation  |                                                 |
\*---------------------------------------------------------------------------*/
FoamFile
{
    version     2.0;
    format      ascii;
    arch        "LSB;label=32;scalar=64";
    class       volScalarField;
    location    "0";
    object      stateMean;
}
// * * * * * * * * * * * * * * * * * * * * * * * * * * * * * * * * * * * * * //

dimensions      [0 0 0 1 0 0 0];

internalField   nonuniform List<scalar> 
3200
(
344.562
342.501
343.094
342.337
339.319
337.164
342.137
338.879
341.287
341.443
343.101
340.745
339.847
339.391
339.531
341.884
340.411
339.698
341.556
341.154
337.169
337.484
336.431
334.629
333.983
334.347
334.297
334.381
334.28
336.176
336.362
335.267
334.985
334.638
332.306
334.101
333.927
335.748
338.622
338.574
333.509
330.337
326.746
329.253
329.978
328.559
329.519
330.941
325.84
328.56
329.756
328.392
331.157
330.782
327.075
326.333
329.39
330.1
330.584
329.639
323.056
325.588
323.727
323.676
322.764
322.198
324.032
325.633
323.425
324.192
323.907
324.399
324.861
324.117
321.522
323.199
322.981
324.472
322.256
323.057
322.878
319.994
316.541
319.314
316.74
317.74
319.375
319.227
317.553
318.487
316.162
318.049
317.538
318.999
318.144
319.07
316.577
318.352
317.685
317.046
315.97
311.587
313.974
314.737
315.585
314.397
314.143
312.52
312.909
313.601
314.932
315.313
314.332
314.119
313.421
312.796
312.507
313.674
314.041
313.168
311.245
308.638
307.898
307.128
307.577
307.492
306.859
308.955
308.819
306.427
308.435
309.082
308.726
309.068
308.947
307.461
308.954
306.611
307.461
306.912
303.592
302.011
304.994
302.74
300.523
303.535
302.129
303.259
302.146
304.311
303.222
302.464
303.769
303.361
303.292
303.055
301.841
302.533
302.67
303.644
341.743
342.188
342.307
337.312
340.98
339.619
339.925
340.63
340.603
342.784
341.239
339.037
340.372
339.935
338.031
340.072
339.296
340.586
340.688
342.606
337.27
335.203
334.026
335.871
332.508
336.376
335.003
336.793
335.626
337.359
338.141
336.536
337.043
334.884
336.175
334.923
335.98
336.363
335.704
337.253
331.601
329.799
331.354
331.279
332.234
328.012
329.761
329.861
329.973
331.842
331.355
328.832
328.583
331.605
329.413
327.232
331.252
329.347
331.602
331.205
326.887
326.321
323.325
324.524
323.365
322.79
323.672
324.285
324.414
325.073
322.763
324.519
324.769
323.899
322.102
322.367
323.406
323.389
325.8
324.623
319.239
318.199
320.256
319.189
318.238
317.428
317.627
318.927
316.455
319.442
318.571
318.997
317.595
319.003
317.67
317.605
318.62
317.157
319.161
320.165
313.995
314.561
314.511
314.44
313.068
312.595
312.914
313.334
310.206
314.088
313.844
314.178
312.084
312.528
312.919
312.775
312.609
313.611
312.936
313.293
309.837
307.273
306.595
307.966
307.53
306.207
308.47
307.835
309.366
306.801
307.013
309.665
307.167
306.693
305.998
307.049
308.426
307.725
309.05
306.534
303.573
302.05
301.711
303.492
301.995
302.359
300.8
302.331
302.646
303.632
304.729
302.527
302.857
301.973
301.266
303.351
303.436
302.251
305.705
304.253
345.113
342.407
340.233
339.621
341.278
337.614
341.615
342.154
341.177
342.557
341.764
342.227
343.143
343.241
340.966
340.609
340.084
339.154
341.422
345.239
336.931
334.854
333.941
333.311
336.175
334.755
334.779
335.278
334.959
336.94
335.023
333.985
334.191
336.391
334.701
335.603
336.737
336.329
334.976
335.363
329.786
328.586
329.979
330.694
330.681
329.458
329.787
329.314
330.92
331.276
332.116
330.772
330.604
328.54
327.972
330.646
329.514
327.871
331.523
330.52
325.469
326.284
324.166
324.211
324.132
323.196
324.593
325.053
324.666
324.67
323.291
325.231
323.233
325.036
324.635
326.137
323.951
325.446
323.503
326.166
320.631
318.65
319.523
319.563
320.416
318.238
319.082
319.067
320.424
319.192
319.469
319.724
317.24
317.858
319.393
318.664
320.154
320.844
318.984
319.224
313.59
314.611
313.271
314.649
312.465
314.02
313.363
314.343
314.039
313.865
311.131
313.518
312.191
315.051
313.377
312.499
312.624
314.138
312.353
312.956
307.978
305.193
308.717
307.168
307.466
308.445
307.856
308.372
307.718
307.398
308.861
306.701
307.221
307.037
309.326
309.375
308.443
307.347
307.506
307.449
303.556
302.873
302.534
304.622
302.021
299.759
303.701
299.382
304.582
303.781
303.616
302.431
302.647
302.127
303.157
301.058
303.658
304.225
302.47
301.316
347.103
344.569
340.719
339.159
340.421
340.997
340.025
341.15
342.391
340.958
341.426
343.406
343.369
340.068
341.764
339.641
342.501
340.148
344.687
344.979
338.698
335.732
336.432
335.798
333.872
336.966
336.555
337.769
337.185
337.663
337.997
338.984
337.241
333.537
336.733
337.008
337.061
336.77
335.743
338.02
329.688
331.065
330.865
329.583
328.777
329.997
330.238
330.391
332.155
330.259
331.776
332.123
332.001
332.018
331.515
328.636
330.765
330.694
331.859
330.342
326.142
324.868
326.275
326.493
325.188
324.026
327.082
323.248
325.53
323.823
326.555
323.842
328.943
323.012
326.137
324.175
324.087
323.865
326.272
327.363
320.784
321.818
320.636
319.812
318.344
320.487
317.454
319.286
318.588
321.59
320.205
319.952
320.492
318.569
315.958
318.94
318.369
317.578
318.774
320.826
314.001
314.953
315.395
313.711
315.23
315.59
313.282
312.969
313.616
314.008
314.249
313.556
313.277
312.962
314.697
312.004
314.823
311.275
313.646
311.21
309.071
307.423
310.69
307.173
309.094
308.371
305.657
308.61
308.677
309.938
309.753
307.061
306.84
307.03
307.141
308.834
307.997
306.553
307.005
309.128
302.841
303.829
304.24
303.68
303.535
302.689
302.798
302.384
302.073
301.534
302.097
301.913
302.678
303.95
303.864
302.584
301.623
301.775
305.196
303.972
344.658
345.667
345.064
344.391
342.892
343.031
342.873
341.147
344.001
342.913
342.75
343.891
342.82
341.541
343.918
343.835
342.09
343.231
344.56
345.941
338.073
338
335.717
337.111
335.189
336.397
337.603
337.556
338.793
337.144
339.126
339.072
338.406
338.676
337.241
336.733
338.375
338.42
339.299
338.342
331.872
333.729
331.189
330.366
331.724
331.925
331.881
332.784
331.298
329.768
330.229
332.03
332.231
331.951
330.074
329.169
331.213
330.734
333.115
335.296
327.795
325.767
324.523
325.454
323.409
324.043
324.417
326.92
326.336
328.027
327.034
325.789
324.089
326.929
325.445
324.363
326.637
324.265
326.684
325.77
320.288
321.001
319.229
318.916
320.22
320.619
320.978
316.48
318.322
321.068
320.411
320.13
321.224
319.68
321.516
319.273
317.968
319.255
320.396
319.513
313.584
315.303
312.71
315.571
312.334
315.249
314.979
312.789
314.783
316.029
314.524
313.869
312.52
315.031
312.027
313.365
311.762
312.952
314.019
313.428
310.8
307.921
309.575
308.277
307.629
306.181
307.029
307.596
307.638
306.989
309.315
307.522
308.207
308.82
309.563
309.472
306.833
307.936
309.012
308.116
303.022
303.688
303.285
301.353
304.374
303.768
301.065
303.595
302.116
303.483
306.048
301.006
304.421
304.331
302.56
302.484
302.974
302.811
302.996
300.721
345.971
346.345
344.018
343.285
346.867
343.064
343.787
344.198
343.985
345.167
342.956
349.389
345.082
344.662
341.165
344.381
343.548
344.129
346.165
346.819
339.617
337.353
338.347
337.592
338.838
338.435
337.654
339
339.974
338.998
339.084
340.029
339.488
339.467
338.72
334.317
337.9
336.476
337.785
340.277
335.213
330.184
331.314
332.142
330.01
330.859
331.748
330.472
333.059
332.472
331.988
333.625
332.164
333.164
331.691
330.467
330.331
333.279
332.877
331.691
326.004
327.741
325.593
326.637
325.991
326.295
326.914
327.256
326.077
325.871
326.211
328.208
325.978
326.681
326.731
327.583
325.952
324.229
326.439
329.177
321.105
321.491
319.382
320.395
319.001
319.223
321.912
319.138
319.871
322.562
318.833
321.959
321.121
319.703
318.813
317.78
317.539
319.698
322.92
320.709
315.426
314.722
313.086
313.755
315.181
314.053
314.91
314.625
314.196
317.359
314.332
315.099
314.764
314.263
314.211
312.769
313.888
314.562
314.245
315.13
310.692
307.914
308.552
309.097
308.898
307.625
309.3
309.647
308.882
309.225
308.196
308.482
308.799
310.684
309.594
307.844
307.679
308.591
307.32
307.68
303.707
303.416
301.413
302.542
303.124
300.555
303.974
303.299
304.128
304.234
303.646
303.1
303.14
303.651
303.087
302.51
303.644
301.32
301.191
301.45
345.955
347.338
346.534
344.778
343.995
345.663
345.93
346.85
345.093
346.906
345.795
345.752
345.006
344.966
346.348
345.431
345.709
346.482
347.499
348.868
340.229
338.984
340.06
339.35
337.995
336.095
338.762
338.431
339.258
338.536
339.18
338.901
338.274
338.297
339.052
337.851
338.658
339.524
340.908
339.342
334.543
333.321
333.423
334.444
333.829
333.946
333.051
332.676
333.181
334.204
335.798
334.254
334.833
333.208
333.26
332.358
333.092
329.894
334.192
335.34
326.721
328.8
326.553
326.076
328.125
327.445
325.176
326.651
326.577
328.829
327.539
328.004
327.195
327.775
327.543
325.899
322.615
326.475
326.06
328.96
324.38
321.263
321.73
320.294
322.211
319.752
321.178
321.445
323.36
321.271
321.581
322.266
322.084
322.19
322.294
320.597
319.159
324.358
320.659
321.257
314.668
315.487
314.241
315.3
315.579
314.431
314.735
313.799
313.667
313.983
315.007
313.124
313.308
316.614
315.515
313.905
315.515
316.68
314.075
315.409
310.178
309.273
308.906
306.911
309.845
308.695
308.79
308.138
310.071
308.26
310.216
308.392
307
308.788
309.014
308.873
308.599
309.245
310.141
310.052
302.327
304.287
302.791
304.426
304.907
302.075
305.409
302.655
302.989
303.188
302.486
303.178
302.349
302.906
302.554
304.757
305.761
300.632
302.774
303.173
349.326
347.104
345.772
345.583
347.317
346.172
345.136
345.169
346.521
347.565
348.026
347.568
347.666
346.458
349.46
345.059
346.88
344.751
348.531
348.442
341.641
338.642
339.666
339.229
338.246
340.077
340.279
340.941
338.277
340.919
340.841
341.505
340.441
341.041
339.892
340.381
339.663
337.939
338.696
341.91
336.037
333.197
334.202
334.207
331.752
332.11
334.583
333.013
333.774
331.495
335.934
334.355
335.222
333.258
332.866
334.978
334.245
333.796
335.341
336.838
328.875
327.439
329.459
327.811
326.798
331.001
328.753
327.009
327.454
329.786
328.884
327.905
329.943
329.886
326.852
327.91
326.716
327.667
327.249
330.98
323.423
321.923
323.038
323.421
320.186
320.061
320.703
322.622
321.189
325.068
323.487
322.916
322.01
322.828
321.106
321.146
322.772
318.582
322.343
319.343
315.916
313.651
315.372
316.048
314.616
317.017
314.65
316.165
316.698
317.361
316.071
315.915
314.98
317.528
315.529
314.461
316.73
314.485
317.642
314.344
310.698
308.832
310.216
309.219
308.492
311.993
311.806
309.502
309.8
309.938
309.138
311.533
309.25
309.83
308.612
309.066
309.727
308.84
309.577
310.147
302.639
302.943
301.03
301.552
303.424
301.758
303.121
303.055
304.243
302.646
302.345
302.521
302.184
301.81
301.87
302.636
302.237
304.779
302.104
302.865
351.718
349.608
348.475
346.879
349.633
344.838
348.383
348.268
350.554
349.341
348.569
350.321
351.364
348.508
350.016
348.613
347.713
349.943
348.23
352.726
345.79
341.71
344.735
340.809
340.777
337.95
341.511
343.423
342.015
341.447
342.072
342.674
342.182
342.939
343.419
340.8
341.41
344.318
341.335
343.907
337.709
335.677
335.859
334.89
336.68
333.598
335.403
334.699
335.121
336.71
336.989
334.581
334.243
336.971
335.507
334.224
335.044
334.914
334.891
337.897
329.023
327.865
329.496
327.937
326.994
328.695
329.034
328.24
330.774
330.15
330.256
327.816
330.134
327.981
327.118
328.919
328.055
328.626
328.304
329.784
324.237
320.895
325.326
321.535
321.67
321.183
321.544
319.69
321.426
321.035
323.161
323.522
322.246
320.825
320.851
321.826
322.347
323.21
321.836
322.618
315.338
315.903
315.132
316.353
314.939
315.668
313.977
317.309
317.006
315.135
316.415
315.95
317.735
315.181
316.933
313.663
313.116
315.621
316.687
316.88
309.548
309.964
307.326
309.599
309.264
310.828
310.092
308.693
308.919
308.944
309.954
311.427
309.819
312.856
311.283
308.688
309.703
311.598
308.704
308.68
303.095
302.421
304.257
300.788
303.648
300.758
304.102
302.639
304.683
302.702
302.559
304.066
303.022
305.134
302.981
303.745
303.542
303.901
303.161
301.545
352.616
352.805
348.439
350.694
348.48
349.415
347.953
350.582
349.152
349.988
351.661
349.142
350.013
350.859
349.849
353.11
350.11
351.34
350.496
353.81
344.636
341.815
341.529
341.76
341.784
342.18
344.072
342.453
344.92
343.404
342.914
341.63
342.869
344.363
342.362
341.835
342.184
343.124
341.351
346.15
337.699
337.992
336.215
336.357
333.552
334.561
335.313
337.004
336.058
337.048
335.73
334.451
334.324
335.188
332.366
332.734
336.316
336.072
338.607
337.575
329.78
329.734
329.046
328.939
328.464
332.938
331.709
329.943
330.094
331.095
328.438
328.314
331.237
329.677
330.402
331.613
329.118
327.226
330.217
330.266
322.945
323.823
323.088
322.917
322.508
322.955
321.544
325.134
323.942
323.763
323.71
322.994
322.722
321.751
321.293
322.715
322.158
322.585
324.136
322.221
315.876
316.637
318.822
317.434
315.151
315.606
316.724
315.759
318.187
314.575
316.702
317.077
315.095
316.983
318.018
317.09
315.053
316.626
316.394
317.349
310.374
311.504
311.498
309.989
309.694
309.429
311.102
310.834
310.323
308.085
312.961
308.979
310.507
309.327
311.445
309.598
310.226
311.744
310.06
310.741
302.713
303.551
305.155
303.934
305.51
302.635
302.162
303.64
305.088
304.345
302.526
302.429
305.408
303.778
303.061
303.366
303.265
303.659
303.081
303.643
354.869
353.194
353.055
350.627
350.951
352.075
351.485
352.121
352.946
351.573
352.868
351.107
353.909
349.621
353.235
353.108
350.964
350.396
354.634
355.02
348.102
343.423
345.157
343.011
343.522
343.598
343.977
344.089
344.21
344.027
344.325
345.743
343.707
343.538
343.746
342.826
343.877
343.263
343.074
345.841
337.825
338.581
337.337
335.362
337.427
338.972
336.703
338.752
335.823
337.591
338.689
338.295
338.163
338.617
336.892
337.645
338.401
335.444
339.832
338.285
333.233
332.202
331.886
330.824
331.105
329.415
330.638
329.545
331.138
330.957
329.971
327.922
330.465
329.895
330.271
329.274
331.593
329.002
330.366
331.219
324.319
323.695
322.844
323.925
322.691
324.271
324.886
324.976
324.049
324.397
322.591
325.585
323.33
323.383
322.555
322.333
322.561
323.033
326.397
324.575
318.855
318.987
315.532
317.576
315.539
316.826
316.579
316.686
316.21
315.134
317.143
317.757
319.176
316.691
317.63
316.112
316.827
317.387
315.296
318.168
312.384
308.795
309.462
309.672
309.446
310.395
309.406
311.492
309.695
311.123
308.057
308.797
310.469
310.17
310.048
311.85
309.99
311.128
309.435
311.098
303.615
304.472
304.077
303.645
301.379
303.027
301.608
304.267
304.824
305.71
303.43
304.798
303.052
303.682
303.958
302.224
303.113
301.923
303.654
303.912
357.401
354.588
353.648
354.005
354.528
353.773
352.271
353.248
354.204
354.62
353.661
353.255
351.67
356.988
352.508
351.103
352.302
353.466
353.991
353.78
349.922
346.708
347.15
346.758
345.458
345.27
344.974
346.369
344.19
347.668
346.138
346.948
347.357
345.989
346.39
345.618
347.749
346.587
347.779
347.78
341.729
340.623
339.446
339.601
336.905
337.4
336.398
339.057
337.961
339.258
339.143
339.527
338.629
338.09
338.327
336.913
337.886
337.654
340.522
340.089
334.443
331.236
336.51
332.498
331.637
331.569
330.631
330.462
332.777
332.314
330.541
334.355
331.589
330.328
330.411
330.567
330.085
331.491
334.025
332.58
325.561
325.035
324.595
325.693
323.92
323.241
323.577
323.205
323.393
324.507
324.57
323.575
323.742
323.314
325.122
323.758
322.494
324.545
323.893
327.428
318.835
318.185
316.876
318.518
316.13
317.331
316.684
319.593
319.419
318.432
319.57
319.89
317.914
318.481
318.485
318.884
316.455
316.739
317.964
315.834
311.511
312.457
311.293
312.864
309.983
309.717
309.588
308.553
311.338
308.612
311.812
309.63
310.998
311.517
308.503
311.576
309.748
308.274
313.043
313.714
302.155
304.541
305.215
304.655
302.064
304.002
304.432
303.274
305.982
303.043
303.489
303.132
303.294
302.821
302.455
302.988
304.907
304.41
303.735
302.35
358.649
353.683
356.522
355.94
356.951
356.25
352.836
355.838
355.814
353.953
356.446
356.083
353.804
352.776
354.353
355.905
353.292
353.928
358.413
356.326
352.169
346.903
348.78
346.584
345.12
347.232
344.176
347.137
344.285
347.77
347.231
349.755
347.445
347.252
347.202
347.935
346.472
346.384
346.515
351.121
340.899
341.846
342.211
340.984
340.135
337.566
339.896
340.426
337.546
340.039
342.001
340.321
341.352
340.059
339.328
339.789
339.148
340.547
340.086
343.272
332.115
334.25
334.298
332.583
331.716
332.009
332.696
332.217
331.384
331.285
331.331
333.73
333.456
332.602
333.332
335.043
332.286
332.938
333.682
333.348
323.933
326.088
327.392
325.04
323.696
325.999
323.9
324.139
325.178
326.523
325.415
323.606
324.25
324.297
327.815
325.412
325.105
324.207
326.371
322.829
317.631
319.214
318.847
320.162
318.566
317.985
317.132
319.226
318.151
317.685
319.609
317.966
317.473
317.219
316.793
317.466
318.604
318.624
317.697
320.633
312.747
311.269
310.265
312.585
311.074
310.424
311.038
311.373
313.481
309.617
311.709
309.7
310.111
310.4
310.282
309.556
312.949
310.499
311.51
311.732
302.851
305.344
303.541
303.708
302.838
303.338
301.938
302.752
307.365
303.81
303.946
303.897
303.64
304.454
302.413
302.867
303.597
304.539
304.042
304.099
360.207
359.391
356.053
357.23
354.498
356.619
356.493
355.289
355.265
356.382
357.86
356.334
356.996
357.611
357.644
358.819
355.508
358.141
359.742
357.396
351.453
350.519
352.437
349.8
349.022
348.69
346.728
348.97
350.372
349.806
351.119
348.506
350.281
348.151
350.436
348.312
349.14
347.579
350.308
350.47
344.906
342.782
341.44
344.427
340.207
340.411
339.486
339.496
342.234
340.557
341.755
340.669
340.455
340.48
341.865
341.379
342.236
341.969
341.996
343.015
335.501
334.793
333.25
335.453
333.545
332.054
332.274
330.675
334.582
332.316
334.055
333.613
332.71
333.532
334.16
334.31
330.579
332.071
334.651
335.939
326.594
329.947
327.34
325.683
326.542
326.211
323.905
324.065
326.759
325.219
327.196
327.796
327.111
327.037
326.088
326.987
325.564
326.098
326.293
327.567
319.283
318.05
319.58
317.374
318.435
318.049
316.859
318.501
315.856
320.321
318.056
321.419
319.478
319.208
316.233
318.434
319.895
319.291
319.96
318.937
311.202
311.658
311.156
312.137
313.563
312.271
310.174
311.988
312.011
310.667
309.561
311.594
309.554
311.481
311.855
309.342
310.514
311.08
312.087
311.947
304.64
304.242
303.575
303.58
301.937
301.753
303.144
306.237
304.668
304.504
305.521
303.749
302.204
303.148
304.325
303.57
304.035
304.47
303.51
304.193
361.855
358.933
359.598
358.48
357.742
358.24
358.018
355.553
359.536
358.297
359.681
359.834
357.17
359.646
357.709
357.687
357.529
361.159
359.236
361.012
352.647
350.547
353.431
350.45
348.379
350.461
348.741
350.75
350.713
351.26
350.764
351.159
351.138
351.743
351.422
348.915
350.482
349.612
350.195
354.111
344.8
345.836
343.61
343.103
341.9
341.676
341.271
341.991
341.965
341.685
343.696
344.683
340.382
342.283
341.785
341.896
342.317
342.051
344.132
343.5
336.915
335.092
336.089
334.519
334.135
334.678
335.631
335.369
333.689
335.122
335.47
334.156
334.706
334.936
332.683
332.721
336.772
335.091
334.879
336.806
327.514
330.639
328.503
327.189
328.047
326.112
326.218
328.056
327.024
327.049
326.073
326.708
327.909
327.829
325.834
326.092
324.819
326.164
328.334
327.443
321.091
320.673
317.209
318.62
318.444
320.909
319.771
316.835
318.645
320.194
318.728
319.504
320.709
319.374
318.252
319.629
318.852
317.477
319.543
318.562
313.289
310.038
312.564
313.603
310.849
311.096
310.967
311.629
310.555
312.662
312.805
312.849
310.851
310.871
310.651
309.261
310.242
311.912
312.287
310.621
303.592
302.936
306.305
306.408
303.175
304.119
305.077
304.455
304.779
303.505
304.791
304.987
303.471
303.512
303.711
303.584
301.889
304.097
303.321
303.897
362.32
363.979
360.868
360.036
359.485
360.329
360.594
359.71
361.096
359.154
359.254
360.659
361.137
357.291
359.128
358.615
360.932
362.04
363.031
362.456
352.052
354.54
352.059
352.014
353.46
352.625
351.277
353.45
352.419
351.542
351.316
351.991
350.262
351.979
351.69
351.424
350.302
353.265
351.624
353.946
344.656
345.901
346.14
344.644
345.647
343.314
344.333
343.535
343.501
343.736
343.62
343.02
341.545
339.973
343.733
344.673
341.429
344.615
344.878
344.062
336.003
338.881
338.197
334.943
334.506
335.89
335.684
335.656
336.066
335.408
335.773
335.429
335.179
333.931
336.627
334.188
336.74
336.244
335.611
335.95
329.595
328.904
328.46
326.959
325.073
329.381
324.862
328.709
328.049
327.231
328.89
326.784
324.875
327.926
326.305
327.413
327.554
326.794
326.012
327.339
319.924
318.744
321.676
318.392
319.221
319.891
320.028
317.942
317.304
320.79
319.034
319.799
319.497
322.32
317.052
319.248
319.137
321.103
319.319
320.471
313.97
310.034
313.084
311.785
309.959
311.865
311.612
311.698
311.133
313.924
312.581
313.661
311.185
312.653
310.813
311.24
310.263
311.48
312.117
311.737
303.068
303.798
304.004
304.513
303.675
304.24
304.926
304.358
305.234
304.044
302.786
304.085
304.666
304.716
303.257
302.023
304.713
305.664
304.325
302.18
366.714
362.963
362.972
364.466
363.02
363.169
362.934
361.096
360.1
362.26
362.92
362.718
363.043
361.62
363.339
364.674
364.659
363.02
363.476
365.179
357.721
354.556
352.564
354.945
352.788
355.12
353.496
355.835
352.89
355.149
355.093
351.198
355.699
352.153
354.977
352.741
354.337
353.918
354.584
356.72
347.096
344.978
346.668
345.883
344.239
343.646
345.038
344.219
344.154
344.864
346.22
345.388
342.781
342.86
343.627
346.185
345.942
345.324
346.446
346.214
338.664
339.339
334.962
338.104
337.429
336.961
335.317
337.272
338.25
337.174
335.713
337.798
338.036
336.229
335.48
336.915
337.09
336.602
336.977
338.475
330.035
331.229
327.135
329.955
330.722
327.012
328.506
330.682
328.383
325.484
327.055
329.084
326.303
329.915
325.936
328.51
327.8
327.652
329.863
329.563
322.258
320.26
321.522
323.111
320.08
319.464
319.17
321.535
322.201
320.038
320.325
319.151
319.902
320.724
320.015
320.544
320.188
319.43
320.391
318.968
311.066
314.843
309.776
311.187
313.41
311.988
312.033
310.964
313.831
313.859
309.702
308.779
311.332
312.464
311.508
311.656
311.288
313.148
313.228
312.744
305.493
302.543
302.771
303.82
303.22
303.351
305.263
302.36
301.158
300.606
303.76
304.843
304.852
303.935
305.05
302.634
304.43
303.783
301.999
303.803
366.216
365.281
365.357
365.459
364.808
364.749
364.861
363.778
363.903
362.586
363.653
362.979
363.125
363.324
364.365
362.422
364.92
367.474
365.955
366.959
358.843
355.441
357.398
353.847
353.593
354.307
355.87
352.978
354.04
355.752
351.478
355.047
352.714
354.955
351.055
353.333
354.478
355.904
354.17
358.17
350.079
348.176
344.977
344.486
347.566
345.228
347.483
346.698
347.446
344.05
345.45
347.998
346.291
346.225
346.289
344.111
345.176
348.14
347.515
348.684
339.386
341.084
338.028
337.538
338.035
337.986
338.578
337.266
336.817
337.571
338.334
334.343
338.199
337.888
337.883
336.516
337.779
338.983
340.345
335.98
328.845
330.853
326.648
328.925
328.175
327.899
329.415
326.6
328.571
328.172
328.625
328.774
328.258
329.004
329.435
328.899
329.414
330.138
332.044
329.143
320.948
321.713
323.373
318.593
322.526
319.907
321.582
321.533
320.684
320.63
320.891
322.344
320.773
320.723
319.547
320.729
319.849
319.745
320.867
320.832
312.732
313.725
312.002
311.739
312.474
312.855
311.382
313.93
312.905
309.565
311.96
310.465
313.77
311.72
312.665
314.438
313.517
313.02
311.406
313.02
303.725
303.669
304.054
305.028
302.876
305.811
303.011
302.058
303.265
303.374
304.942
303.679
303.052
304.255
305.825
305.476
305.703
305.994
304.383
303.398
369.023
365.778
367.486
365.697
363.469
367.187
367.247
365.494
364.329
364.457
364.465
364.409
364.425
365.283
366.993
365.763
365.303
366.641
368.319
368.673
359.247
359.476
358.657
359.387
357.602
359.669
356.407
359.369
355.014
360.266
359.841
355.828
359.656
355.72
359.343
355.971
359.264
357.784
359.212
361.447
351.817
347.894
346.18
348.191
345.807
346.942
347.11
345.356
343.655
347.962
347.325
346.659
347.262
345.9
347.838
347.777
347.565
349.778
348.975
348.173
340.728
338.397
339.764
338.938
338.705
339.777
340.594
337.814
336.68
335.831
337.447
339.007
336.606
339.372
336.558
336.563
338.187
338.35
339.08
341.368
331.269
331.815
331.122
332.364
329.268
330.622
327.965
330.813
331.796
331.47
329.251
329.058
329.237
328.439
330.285
330.54
329.967
330.092
329.295
330.628
322.847
320.867
320.088
320.806
321.54
323.695
322.654
321.61
319.765
321.367
320.852
321.643
320.941
320.91
319.334
320.849
321.153
321.462
321.348
322.641
312.738
312.186
310.932
312.813
312.232
312.488
314.286
311.936
313.132
313.339
314.012
314.213
313.222
312.836
312.879
310.314
312.372
312.805
315.427
314.32
303.747
304.947
303.178
303.379
304.37
300.605
304.753
305.73
304.203
302.858
304.588
304.119
304.232
304.279
303.332
301.958
305.001
303.891
302.452
302.673
368.229
369.729
368.527
366.58
366.216
367.978
365.971
366.941
364.217
366.171
367.669
365.924
363.859
367.638
367.196
368.247
366.562
369.641
369.253
371.43
361.441
358.863
360.069
356.829
357.286
358.212
358.164
356.513
356.324
357.175
358.32
356.252
356.163
357.064
356.212
358.602
360.219
358.54
361.146
361.856
349.126
349.648
351.268
346.916
347.21
347.627
347.257
346.387
345.146
347.006
347.441
345.402
346.574
347.499
348.049
349.167
348.907
348.047
351.364
349.41
341.231
339.18
340.251
338.904
339.707
338.786
336.605
339
339.308
336.424
336.769
338.723
339.887
338.386
339.59
338.715
339.034
339.976
342.904
341.794
328.615
331.66
330.271
329.31
331.024
328.576
329.093
327.677
328.774
330.001
331.298
327.353
330.181
330.045
328.924
328.938
330.1
331.244
329.606
329.801
324.578
323.118
319.47
321.581
324.207
323.462
320.435
323.335
318.051
322.877
319.307
318.3
321.767
319.226
321.88
322.269
322.44
322.745
321.179
324.385
314.456
313.447
313.268
314.599
313.903
311.911
314.595
313.63
312.824
312.509
312.252
313.435
314.942
312.43
313.112
312.476
313.588
315.094
313.345
314.78
306.242
302.885
305.169
302.038
305.532
305.228
305.003
305.56
304.965
305.373
305.57
303.848
305.059
303.878
305.738
305.057
303.092
303.091
305.169
304.333
)
;

boundaryField
{
    hotSide
    {
        type            fixedGradient;
        gradient        nonuniform List<scalar> 
400
(
321.511
322.87
325.591
329.677
335.133
341.965
350.181
359.788
370.794
383.208
397.037
412.289
428.971
447.088
466.647
487.651
510.105
534.011
559.372
586.191
323.738
325.08
327.767
331.802
337.194
343.949
352.078
361.591
372.498
384.81
398.537
413.687
430.268
448.289
467.755
488.672
511.043
534.872
560.161
586.913
326.149
327.47
330.116
334.091
339.406
346.071
354.099
363.503
374.296
386.491
400.101
415.136
431.606
449.52
468.885
489.706
511.988
535.735
560.948
587.63
328.704
330
332.597
336.503
341.73
348.292
356.205
365.485
376.15
388.215
401.695
416.604
432.954
450.753
470.009
490.73
512.919
536.579
561.714
588.325
331.33
332.599
335.142
338.97
344.099
350.546
358.332
367.477
378.003
389.928
403.271
418.047
434.27
451.949
471.095
491.712
513.807
537.382
562.439
588.978
333.918
335.158
337.643
341.389
346.414
352.74
360.392
369.397
379.779
391.562
404.765
419.407
435.503
453.065
472.101
492.618
514.622
538.114
563.096
589.569
336.321
337.531
339.959
343.622
348.544
354.751
362.274
371.142
381.385
393.031
406.101
420.618
436.595
454.047
472.983
493.409
515.33
538.747
563.663
590.076
338.36
339.543
341.92
345.509
350.339
356.44
363.847
372.595
382.718
394.244
407.2
421.608
437.485
454.844
473.695
494.045
515.897
539.253
564.114
590.478
339.852
341.015
343.352
346.885
351.645
357.665
364.985
373.643
383.675
395.113
407.984
422.312
438.116
455.407
474.197
494.491
516.294
539.606
564.428
590.758
340.643
341.795
344.11
347.613
352.334
358.311
365.584
374.193
384.176
395.567
408.393
422.679
438.443
455.699
474.456
494.722
516.498
539.788
564.589
590.901
340.643
341.795
344.11
347.613
352.334
358.311
365.584
374.193
384.176
395.567
408.393
422.679
438.443
455.699
474.456
494.722
516.498
539.788
564.589
590.901
339.852
341.015
343.352
346.885
351.645
357.665
364.985
373.643
383.675
395.113
407.984
422.312
438.116
455.407
474.197
494.491
516.294
539.606
564.428
590.758
338.36
339.543
341.92
345.509
350.339
356.44
363.847
372.595
382.718
394.244
407.2
421.608
437.485
454.844
473.695
494.045
515.897
539.253
564.114
590.478
336.321
337.531
339.959
343.622
348.544
354.751
362.274
371.142
381.385
393.031
406.101
420.618
436.595
454.047
472.983
493.409
515.33
538.747
563.663
590.076
333.918
335.158
337.643
341.389
346.414
352.74
360.392
369.397
379.779
391.562
404.765
419.407
435.503
453.065
472.101
492.618
514.622
538.114
563.096
589.569
331.33
332.599
335.142
338.97
344.099
350.546
358.332
367.477
378.003
389.928
403.271
418.047
434.27
451.949
471.095
491.712
513.807
537.382
562.439
588.978
328.704
330
332.597
336.503
341.73
348.292
356.205
365.485
376.15
388.215
401.695
416.604
432.954
450.753
470.009
490.73
512.919
536.579
561.714
588.325
326.149
327.47
330.116
334.091
339.406
346.071
354.099
363.503
374.296
386.491
400.101
415.136
431.606
449.52
468.885
489.706
511.988
535.735
560.948
587.63
323.738
325.08
327.767
331.802
337.194
343.949
352.078
361.591
372.498
384.81
398.537
413.687
430.268
448.289
467.755
488.672
511.043
534.872
560.161
586.913
321.511
322.87
325.591
329.677
335.133
341.965
350.181
359.788
370.794
383.208
397.037
412.289
428.971
447.088
466.647
487.651
510.105
534.011
559.372
586.191
)
;
    }
    coldSide
    {
        type            mixed;
        refValue        uniform 300;
        refGradient     uniform 0;
        valueFraction   uniform 0.991591;
        source          uniform 0;
        value           nonuniform List<scalar> 
400
(
300.03
300.03
300.03
300.024
300.025
300.031
300.02
300.022
300.026
300.023
300.03
300.018
300.024
300.039
300.03
300.026
300.046
300.031
300.032
300.052
300.017
300.017
300.024
300.032
300.031
300.029
300.036
300.025
300.02
300.03
300.038
300.038
300.045
300.036
300.025
300.032
300.021
300.031
300.042
300.024
300.042