/*--------------------------------*- C++ -*----------------------------------*\
| =========                 |                                                 |
| \\      /  F ield         | OpenFOAM: The Open Source CFD Toolbox           |
|  \\    /   O peration     | Version:  2212                                  |
|   \\  /    A nd           | Website:  www.openfoam.com                      |
|    \\/     M anipulation  |                                                 |
\*---------------------------------------------------------------------------*/
FoamFile
{
    version     2.0;
    format      ascii;
    arch        "LSB;label=32;scalar=64";
    class       volScalarField;
    location    "./ITHACAoutput/true/15";
    object      trueState;
}
// * * * * * * * * * * * * * * * * * * * * * * * * * * * * * * * * * * * * * //

dimensions      [0 0 0 1 0 0 0];

internalField   nonuniform List<scalar> 
3200
(
340.43
340.71
341.066
341.454
341.854
342.247
342.61
342.916
343.138
343.256
343.256
343.138
342.916
342.61
342.247
341.854
341.454
341.066
340.71
340.43
334.955
335.191
335.498
335.834
336.181
336.52
336.834
337.098
337.29
337.392
337.392
337.29
337.098
336.834
336.52
336.181
335.834
335.498
335.191
334.955
329.516
329.712
329.971
330.255
330.548
330.835
331.099
331.322
331.485
331.571
331.571
331.485
331.322
331.099
330.835
330.548
330.255
329.971
329.712
329.516
324.11
324.268
324.479
324.711
324.95
325.184
325.4
325.583
325.715
325.785
325.785
325.715
325.583
325.4
325.184
324.95
324.711
324.479
324.268
324.11
318.73
318.851
319.014
319.195
319.381
319.563
319.731
319.872
319.975
320.029
320.029
319.975
319.872
319.731
319.563
319.381
319.195
319.014
318.851
318.73
313.37
313.456
313.572
313.701
313.834
313.964
314.084
314.185
314.258
314.297
314.297
314.258
314.185
314.084
313.964
313.834
313.701
313.572
313.456
313.37
308.025
308.076
308.146
308.224
308.303
308.381
308.453
308.514
308.558
308.581
308.581
308.558
308.514
308.453
308.381
308.303
308.224
308.146
308.076
308.025
302.689
302.706
302.73
302.756
302.782
302.808
302.833
302.853
302.868
302.875
302.875
302.868
302.853
302.833
302.808
302.782
302.756
302.73
302.706
302.689
340.594
340.871
341.224
341.609
342.005
342.394
342.752
343.054
343.274
343.39
343.39
343.274
343.054
342.752
342.394
342.005
341.609
341.224
340.871
340.594
335.096
335.33
335.635
335.968
336.311
336.647
336.956
337.217
337.407
337.508
337.508
337.407
337.217
336.956
336.647
336.311
335.968
335.635
335.33
335.096
329.635
329.83
330.087
330.368
330.657
330.941
331.203
331.423
331.584
331.668
331.668
331.584
331.423
331.203
330.941
330.657
330.368
330.087
329.83
329.635
324.207
324.363
324.573
324.803
325.039
325.271
325.485
325.665
325.796
325.865
325.865
325.796
325.665
325.485
325.271
325.039
324.803
324.573
324.363
324.207
318.805
318.925
319.088
319.266
319.45
319.63
319.796
319.936
320.038
320.091
320.091
320.038
319.936
319.796
319.63
319.45
319.266
319.088
318.925
318.805
313.424
313.509
313.625
313.752
313.883
314.012
314.131
314.23
314.303
314.341
314.341
314.303
314.23
314.131
314.012
313.883
313.752
313.625
313.509
313.424
308.057
308.108
308.178
308.254
308.333
308.41
308.481
308.541
308.585
308.608
308.608
308.585
308.541
308.481
308.41
308.333
308.254
308.178
308.108
308.057
302.7
302.717
302.74
302.766
302.792
302.818
302.842
302.862
302.877
302.884
302.884
302.877
302.862
302.842
302.818
302.792
302.766
302.74
302.717
302.7
340.922
341.194
341.542
341.919
342.307
342.687
343.037
343.332
343.546
343.659
343.659
343.546
343.332
343.037
342.687
342.307
341.919
341.542
341.194
340.922
335.379
335.609
335.909
336.236
336.572
336.9
337.203
337.458
337.643
337.74
337.74
337.643
337.458
337.203
336.9
336.572
336.236
335.909
335.609
335.379
329.874
330.065
330.318
330.594
330.878
331.155
331.411
331.626
331.782
331.864
331.864
331.782
331.626
331.411
331.155
330.878
330.594
330.318
330.065
329.874
324.401
324.555
324.761
324.987
325.219
325.446
325.655
325.83
325.958
326.025
326.025
325.958
325.83
325.655
325.446
325.219
324.987
324.761
324.555
324.401
318.956
319.074
319.234
319.409
319.59
319.766
319.928
320.064
320.164
320.216
320.216
320.164
320.064
319.928
319.766
319.59
319.409
319.234
319.074
318.956
313.531
313.615
313.729
313.854
313.983
314.109
314.225
314.322
314.393
314.43
314.43
314.393
314.322
314.225
314.109
313.983
313.854
313.729
313.615
313.531
308.122
308.172
308.24
308.315
308.393
308.468
308.538
308.596
308.639
308.661
308.661
308.639
308.596
308.538
308.468
308.393
308.315
308.24
308.172
308.122
302.722
302.738
302.761
302.786
302.812
302.838
302.861
302.88
302.895
302.902
302.902
302.895
302.88
302.861
302.838
302.812
302.786
302.761
302.738
302.722
341.414
341.68
342.019
342.386
342.763
343.13
343.468
343.753
343.959
344.068
344.068
343.959
343.753
343.468
343.13
342.763
342.386
342.019
341.68
341.414
335.803
336.029
336.321
336.639
336.965
337.283
337.575
337.821
337.999
338.093
338.093
337.999
337.821
337.575
337.283
336.965
336.639
336.321
336.029
335.803
330.232
330.419
330.665
330.934
331.209
331.478
331.725
331.932
332.083
332.162
332.162
332.083
331.932
331.725
331.478
331.209
330.934
330.665
330.419
330.232
324.694
324.844
325.045
325.264
325.489
325.709
325.911
326.08
326.203
326.268
326.268
326.203
326.08
325.911
325.709
325.489
325.264
325.045
324.844
324.694
319.183
319.298
319.454
319.624
319.799
319.97
320.127
320.259
320.354
320.404
320.404
320.354
320.259
320.127
319.97
319.799
319.624
319.454
319.298
319.183
313.693
313.775
313.886
314.008
314.133
314.255
314.367
314.46
314.529
314.564
314.564
314.529
314.46
314.367
314.255
314.133
314.008
313.886
313.775
313.693
308.219
308.268
308.334
308.407
308.483
308.556
308.623
308.679
308.72
308.742
308.742
308.72
308.679
308.623
308.556
308.483
308.407
308.334
308.268
308.219
302.754
302.77
302.793
302.817
302.842
302.867
302.889
302.908
302.922
302.929
302.929
302.922
302.908
302.889
302.867
302.842
302.817
302.793
302.77
302.754
342.071
342.329
342.657
343.011
343.373
343.726
344.049
344.32
344.516
344.619
344.619
344.516
344.32
344.049
343.726
343.373
343.011
342.657
342.329
342.071
336.371
336.589
336.872
337.178
337.492
337.797
338.076
338.31
338.48
338.569
338.569
338.48
338.31
338.076
337.797
337.492
337.178
336.872
336.589
336.371
330.71
330.892
331.13
331.389
331.654
331.911
332.147
332.345
332.488
332.564
332.564
332.488
332.345
332.147
331.911
331.654
331.389
331.13
330.892
330.71
325.084
325.23
325.424
325.636
325.852
326.063
326.256
326.417
326.534
326.596
326.596
326.534
326.417
326.256
326.063
325.852
325.636
325.424
325.23
325.084
319.486
319.598
319.748
319.913
320.081
320.245
320.395
320.52
320.611
320.659
320.659
320.611
320.52
320.395
320.245
320.081
319.913
319.748
319.598
319.486
313.909
313.989
314.096
314.213
314.334
314.451
314.558
314.647
314.712
314.746
314.746
314.712
314.647
314.558
314.451
314.334
314.213
314.096
313.989
313.909
308.349
308.396
308.46
308.531
308.603
308.673
308.738
308.791
308.83
308.851
308.851
308.83
308.791
308.738
308.673
308.603
308.531
308.46
308.396
308.349
302.798
302.813
302.835
302.859
302.883
302.906
302.928
302.946
302.959
302.966
302.966
302.959
302.946
302.928
302.906
302.883
302.859
302.835
302.813
302.798
342.895
343.144
343.458
343.797
344.142
344.476
344.782
345.037
345.222
345.319
345.319
345.222
345.037
344.782
344.476
344.142
343.797
343.458
343.144
342.895
337.082
337.292
337.563
337.857
338.155
338.445
338.709
338.93
339.09
339.174
339.174
339.09
338.93
338.709
338.445
338.155
337.857
337.563
337.292
337.082
331.31
331.484
331.713
331.961
332.213
332.458
332.681
332.868
333.003
333.074
333.074
333.003
332.868
332.681
332.458
332.213
331.961
331.713
331.484
331.31
325.573
325.714
325.9
326.102
326.309
326.509
326.692
326.844
326.954
327.012
327.012
326.954
326.844
326.692
326.509
326.309
326.102
325.9
325.714
325.573
319.865
319.973
320.118
320.275
320.436
320.591
320.733
320.851
320.937
320.982
320.982
320.937
320.851
320.733
320.591
320.436
320.275
320.118
319.973
319.865
314.18
314.256
314.359
314.472
314.586
314.698
314.799
314.883
314.945
314.977
314.977
314.945
314.883
314.799
314.698
314.586
314.472
314.359
314.256
314.18
308.511
308.557
308.618
308.686
308.755
308.821
308.882
308.933
308.97
308.989
308.989
308.97
308.933
308.882
308.821
308.755
308.686
308.618
308.557
308.511
302.852
302.867
302.888
302.91
302.934
302.956
302.976
302.993
303.006
303.012
303.012
303.006
302.993
302.976
302.956
302.934
302.91
302.888
302.867
302.852
343.887
344.124
344.424
344.745
345.071
345.386
345.673
345.911
346.084
346.174
346.174
346.084
345.911
345.673
345.386
345.071
344.745
344.424
344.124
343.887
337.938
338.139
338.397
338.675
338.958
339.23
339.478
339.685
339.834
339.912
339.912
339.834
339.685
339.478
339.23
338.958
338.675
338.397
338.139
337.938
332.032
332.198
332.416
332.651
332.89
333.121
333.33
333.505
333.63
333.696
333.696
333.63
333.505
333.33
333.121
332.89
332.651
332.416
332.198
332.032
326.162
326.296
326.474
326.666
326.861
327.05
327.221
327.363
327.466
327.52
327.52
327.466
327.363
327.221
327.05
326.861
326.666
326.474
326.296
326.162
320.322
320.425
320.563
320.712
320.864
321.011
321.144
321.255
321.335
321.376
321.376
321.335
321.255
321.144
321.011
320.864
320.712
320.563
320.425
320.322
314.506
314.579
314.677
314.784
314.892
314.997
315.092
315.171
315.228
315.258
315.258
315.228
315.171
315.092
314.997
314.892
314.784
314.677
314.579
314.506
308.707
308.75
308.809
308.873
308.938
309.001
309.058
309.106
309.14
309.158
309.158
309.14
309.106
309.058
309.001
308.938
308.873
308.809
308.75
308.707
302.917
302.932
302.952
302.973
302.995
303.016
303.035
303.051
303.063
303.069
303.069
303.063
303.051
303.035
303.016
302.995
302.973
302.952
302.932
302.917
345.047
345.273
345.556
345.859
346.165
346.459
346.725
346.947
347.106
347.189
347.189
347.106
346.947
346.725
346.459
346.165
345.859
345.556
345.273
345.047
338.939
339.13
339.375
339.637
339.902
340.157
340.387
340.579
340.716
340.788
340.788
340.716
340.579
340.387
340.157
339.902
339.637
339.375
339.13
338.939
332.876
333.035
333.241
333.462
333.686
333.902
334.097
334.258
334.375
334.435
334.435
334.375
334.258
334.097
333.902
333.686
333.462
333.241
333.035
332.876
326.851
326.978
327.146
327.328
327.511
327.687
327.846
327.979
328.074
328.123
328.123
328.074
327.979
327.846
327.687
327.511
327.328
327.146
326.978
326.851
320.857
320.955
321.085
321.226
321.369
321.506
321.629
321.732
321.806
321.845
321.845
321.806
321.732
321.629
321.506
321.369
321.226
321.085
320.955
320.857
314.888
314.957
315.05
315.15
315.252
315.35
315.438
315.512
315.564
315.592
315.592
315.564
315.512
315.438
315.35
315.252
315.15
315.05
314.957
314.888
308.936
308.977
309.033
309.093
309.154
309.213
309.266
309.31
309.342
309.358
309.358
309.342
309.31
309.266
309.213
309.154
309.093
309.033
308.977
308.936
302.994
303.008
303.027
303.047
303.067
303.087
303.105
303.12
303.13
303.136
303.136
303.13
303.12
303.105
303.087
303.067
303.047
303.027
303.008
302.994
346.377
346.59
346.857
347.141
347.426
347.699
347.944
348.148
348.294
348.37
348.37
348.294
348.148
347.944
347.699
347.426
347.141
346.857
346.59
346.377
340.088
340.268
340.498
340.744
340.991
341.227
341.44
341.616
341.742
341.808
341.808
341.742
341.616
341.44
341.227
340.991
340.744
340.498
340.268
340.088
333.845
333.994
334.188
334.396
334.604
334.804
334.984
335.133
335.24
335.295
335.295
335.24
335.133
334.984
334.804
334.604
334.396
334.188
333.994
333.845
327.641
327.761
327.92
328.089
328.26
328.423
328.571
328.692
328.779
328.825
328.825
328.779
328.692
328.571
328.423
328.26
328.089
327.92
327.761
327.641
321.47
321.563
321.685
321.817
321.95
322.077
322.192
322.286
322.354
322.389
322.389
322.354
322.286
322.192
322.077
321.95
321.817
321.685
321.563
321.47
315.325
315.39
315.478
315.572
315.667
315.758
315.839
315.907
315.955
315.981
315.981
315.955
315.907
315.839
315.758
315.667
315.572
315.478
315.39
315.325
309.198
309.237
309.289
309.346
309.403
309.458
309.507
309.547
309.576
309.591
309.591
309.576
309.547
309.507
309.458
309.403
309.346
309.289
309.237
309.198
303.082
303.095
303.113
303.132
303.151
303.169
303.185
303.199
303.209
303.214
303.214
303.209
303.199
303.185
303.169
303.151
303.132
303.113
303.095
303.082
347.879
348.079
348.329
348.593
348.857
349.108
349.334
349.519
349.652
349.721
349.721
349.652
349.519
349.334
349.108
348.857
348.593
348.329
348.079
347.879
341.384
341.553
341.769
341.997
342.226
342.444
342.639
342.8
342.915
342.975
342.975
342.915
342.8
342.639
342.444
342.226
341.997
341.769
341.553
341.384
334.938
335.078
335.26
335.453
335.646
335.831
335.996
336.132
336.229
336.28
336.28
336.229
336.132
335.996
335.831
335.646
335.453
335.26
335.078
334.938
328.533
328.646
328.794
328.952
329.11
329.261
329.396
329.507
329.587
329.628
329.628
329.587
329.507
329.396
329.261
329.11
328.952
328.794
328.646
328.533
322.163
322.249
322.364
322.487
322.61
322.727
322.832
322.919
322.98
323.013
323.013
322.98
322.919
322.832
322.727
322.61
322.487
322.364
322.249
322.163
315.819
315.88
315.962
316.05
316.138
316.222
316.297
316.358
316.402
316.425
316.425
316.402
316.358
316.297
316.222
316.138
316.05
315.962
315.88
315.819
309.494
309.531
309.58
309.633
309.686
309.736
309.781
309.818
309.844
309.858
309.858
309.844
309.818
309.781
309.736
309.686
309.633
309.58
309.531
309.494
303.181
303.194
303.21
303.228
303.245
303.262
303.277
303.29
303.299
303.303
303.303
303.299
303.29
303.277
303.262
303.245
303.228
303.21
303.194
303.181
349.554
349.741
349.973
350.218
350.461
350.691
350.897
351.065
351.186
351.248
351.248
351.186
351.065
350.897
350.691
350.461
350.218
349.973
349.741
349.554
342.829
342.988
343.188
343.4
343.611
343.81
343.989
344.135
344.239
344.293
344.293
344.239
344.135
343.989
343.81
343.611
343.4
343.188
342.988
342.829
336.157
336.288
336.457
336.636
336.814
336.983
337.134
337.257
337.345
337.391
337.391
337.345
337.257
337.134
336.983
336.814
336.636
336.457
336.288
336.157
329.528
329.633
329.771
329.918
330.063
330.201
330.325
330.426
330.498
330.535
330.535
330.498
330.426
330.325
330.201
330.063
329.918
329.771
329.633
329.528
322.934
323.016
323.122
323.236
323.35
323.457
323.553
323.632
323.688
323.717
323.717
323.688
323.632
323.553
323.457
323.35
323.236
323.122
323.016
322.934
316.369
316.427
316.503
316.584
316.666
316.742
316.811
316.867
316.907
316.928
316.928
316.907
316.867
316.811
316.742
316.666
316.584
316.503
316.427
316.369
309.825
309.859
309.905
309.954
310.002
310.048
310.089
310.123
310.147
310.16
310.16
310.147
310.123
310.089
310.048
310.002
309.954
309.905
309.859
309.825
303.292
303.303
303.319
303.335
303.351
303.367
303.381
303.392
303.4
303.404
303.404
303.4
303.392
303.381
303.367
303.351
303.335
303.319
303.303
303.292
351.401
351.576
351.791
352.017
352.24
352.45
352.636
352.789
352.897
352.953
352.953
352.897
352.789
352.636
352.45
352.24
352.017
351.791
351.576
351.401
344.425
344.572
344.758
344.953
345.147
345.329
345.49
345.622
345.716
345.765
345.765
345.716
345.622
345.49
345.329
345.147
344.953
344.758
344.572
344.425
337.502
337.624
337.781
337.946
338.11
338.264
338.4
338.512
338.592
338.633
338.633
338.592
338.512
338.4
338.264
338.11
337.946
337.781
337.624
337.502
330.625
330.724
330.851
330.986
331.12
331.246
331.358
331.45
331.515
331.548
331.548
331.515
331.45
331.358
331.246
331.12
330.986
330.851
330.724
330.625
323.786
323.862
323.961
324.066
324.17
324.268
324.355
324.426
324.477
324.503
324.503
324.477
324.426
324.355
324.268
324.17
324.066
323.961
323.862
323.786
316.977
317.031
317.101
317.176
317.251
317.321
317.383
317.434
317.47
317.489
317.489
317.47
317.434
317.383
317.321
317.251
317.176
317.101
317.031
316.977
310.189
310.221
310.264
310.309
310.353
310.395
310.433
310.463
310.485
310.496
310.496
310.485
310.463
310.433
310.395
310.353
310.309
310.264
310.221
310.189
303.414
303.425
303.439
303.454
303.469
303.483
303.496
303.506
303.513
303.517
303.517
303.513
303.506
303.496
303.483
303.469
303.454
303.439
303.425
303.414
353.423
353.585
353.784
353.991
354.195
354.386
354.555
354.692
354.789
354.84
354.84
354.789
354.692
354.555
354.386
354.195
353.991
353.784
353.585
353.423
346.17
346.307
346.479
346.658
346.835
347
347.146
347.265
347.35
347.393
347.393
347.35
347.265
347.146
347
346.835
346.658
346.479
346.307
346.17
338.974
339.087
339.232
339.384
339.533
339.673
339.797
339.898
339.969
340.006
340.006
339.969
339.898
339.797
339.673
339.533
339.384
339.232
339.087
338.974
331.826
331.918
332.035
332.16
332.282
332.396
332.498
332.58
332.638
332.669
332.669
332.638
332.58
332.498
332.396
332.282
332.16
332.035
331.918
331.826
324.719
324.789
324.88
324.977
325.072
325.161
325.24
325.304
325.349
325.373
325.373
325.349
325.304
325.24
325.161
325.072
324.977
324.88
324.789
324.719
317.642
317.692
317.757
317.826
317.894
317.958
318.014
318.06
318.092
318.109
318.109
318.092
318.06
318.014
317.958
317.894
317.826
317.757
317.692
317.642
310.588
310.618
310.657
310.698
310.739
310.777
310.811
310.839
310.858
310.868
310.868
310.858
310.839
310.811
310.777
310.739
310.698
310.657
310.618
310.588
303.548
303.558
303.571
303.585
303.598
303.611
303.623
303.632
303.638
303.642
303.642
303.638
303.632
303.623
303.611
303.598
303.585
303.571
303.558
303.548
355.619
355.768
355.951
356.141
356.327
356.5
356.652
356.775
356.862
356.907
356.907
356.862
356.775
356.652
356.5
356.327
356.141
355.951
355.768
355.619
348.065
348.192
348.35
348.514
348.675
348.825
348.957
349.063
349.139
349.178
349.178
349.139
349.063
348.957
348.825
348.675
348.514
348.35
348.192
348.065
340.572
340.677
340.81
340.949
341.085
341.212
341.323
341.414
341.478
341.511
341.511
341.478
341.414
341.323
341.212
341.085
340.949
340.81
340.677
340.572
333.13
333.214
333.323
333.436
333.548
333.652
333.743
333.817
333.869
333.896
333.896
333.869
333.817
333.743
333.652
333.548
333.436
333.323
333.214
333.13
325.73
325.795
325.879
325.968
326.054
326.135
326.206
326.264
326.304
326.325
326.325
326.304
326.264
326.206
326.135
326.054
325.968
325.879
325.795
325.73
318.364
318.41
318.47
318.533
318.595
318.653
318.703
318.745
318.774
318.789
318.789
318.774
318.745
318.703
318.653
318.595
318.533
318.47
318.41
318.364
311.021
311.049
311.085
311.123
311.16
311.194
311.225
311.25
311.267
311.276
311.276
311.267
311.25
311.225
311.194
311.16
311.123
311.085
311.049
311.021
303.693
303.702
303.714
303.727
303.739
303.751
303.761
303.769
303.775
303.778
303.778
303.775
303.769
303.761
303.751
303.739
303.727
303.714
303.702
303.693
357.984
358.122
358.29
358.464
358.632
358.789
358.925
359.036
359.114
359.154
359.154
359.114
359.036
358.925
358.789
358.632
358.464
358.29
358.122
357.984
350.106
350.223
350.368
350.518
350.664
350.8
350.918
351.014
351.082
351.116
351.116
351.082
351.014
350.918
350.8
350.664
350.518
350.368
350.223
350.106
342.292
342.389
342.511
342.638
342.762
342.877
342.977
343.058
343.115
343.145
343.145
343.115
343.058
342.977
342.877
342.762
342.638
342.511
342.389
342.292
334.533
334.611
334.711
334.815
334.916
335.01
335.092
335.158
335.205
335.229
335.229
335.205
335.158
335.092
335.01
334.916
334.815
334.711
334.611
334.533
326.819
326.879
326.956
327.037
327.116
327.189
327.253
327.305
327.341
327.36
327.36
327.341
327.305
327.253
327.189
327.116
327.037
326.956
326.879
326.819
319.141
319.183
319.238
319.296
319.352
319.404
319.45
319.487
319.513
319.526
319.526
319.513
319.487
319.45
319.404
319.352
319.296
319.238
319.183
319.141
311.487
311.512
311.545
311.58
311.614
311.645
311.673
311.695
311.711
311.719
311.719
311.711
311.695
311.673
311.645
311.614
311.58
311.545
311.512
311.487
303.849
303.857
303.868
303.88
303.891
303.902
303.911
303.919
303.924
303.926
303.926
303.924
303.919
303.911
303.902
303.891
303.88
303.868
303.857
303.849
360.511
360.638
360.792
360.949
361.102
361.243
361.366
361.465
361.534
361.57
361.57
361.534
361.465
361.366
361.243
361.102
360.949
360.792
360.638
360.511
352.285
352.392
352.525
352.662
352.794
352.916
353.023
353.109
353.169
353.2
353.2
353.169
353.109
353.023
352.916
352.794
352.662
352.525
352.392
352.285
344.127
344.217
344.329
344.444
344.556
344.66
344.75
344.823
344.874
344.9
344.9
344.874
344.823
344.75
344.66
344.556
344.444
344.329
344.217
344.127
336.029
336.101
336.192
336.287
336.379
336.464
336.538
336.597
336.639
336.66
336.66
336.639
336.597
336.538
336.464
336.379
336.287
336.192
336.101
336.029
327.98
328.035
328.105
328.179
328.251
328.317
328.374
328.42
328.453
328.469
328.469
328.453
328.42
328.374
328.317
328.251
328.179
328.105
328.035
327.98
319.968
320.007
320.057
320.11
320.161
320.208
320.249
320.282
320.305
320.317
320.317
320.305
320.282
320.249
320.208
320.161
320.11
320.057
320.007
319.968
311.983
312.006
312.037
312.068
312.099
312.127
312.152
312.172
312.186
312.193
312.193
312.186
312.172
312.152
312.127
312.099
312.068
312.037
312.006
311.983
304.015
304.023
304.033
304.044
304.054
304.063
304.072
304.078
304.083
304.085
304.085
304.083
304.078
304.072
304.063
304.054
304.044
304.033
304.023
304.015
363.171
363.288
363.429
363.573
363.711
363.839
363.949
364.038
364.099
364.131
364.131
364.099
364.038
363.949
363.839
363.711
363.573
363.429
363.288
363.171
354.575
354.674
354.795
354.92
355.04
355.15
355.246
355.323
355.377
355.404
355.404
355.377
355.323
355.246
355.15
355.04
354.92
354.795
354.674
354.575
346.054
346.136
346.238
346.344
346.446
346.539
346.62
346.685
346.731
346.754
346.754
346.731
346.685
346.62
346.539
346.446
346.344
346.238
346.136
346.054
337.597
337.663
337.747
337.833
337.917
337.993
338.06
338.113
338.15
338.169
338.169
338.15
338.113
338.06
337.993
337.917
337.833
337.747
337.663
337.597
329.194
329.245
329.31
329.377
329.442
329.501
329.553
329.595
329.624
329.639
329.639
329.624
329.595
329.553
329.501
329.442
329.377
329.31
329.245
329.194
320.833
320.869
320.915
320.963
321.01
321.052
321.089
321.119
321.139
321.15
321.15
321.139
321.119
321.089
321.052
321.01
320.963
320.915
320.869
320.833
312.502
312.523
312.551
312.58
312.608
312.633
312.656
312.673
312.686
312.692
312.692
312.686
312.673
312.656
312.633
312.608
312.58
312.551
312.523
312.502
304.189
304.196
304.205
304.215
304.224
304.233
304.24
304.246
304.25
304.253
304.253
304.25
304.246
304.24
304.233
304.224
304.215
304.205
304.196
304.189
365.901
366.008
366.137
366.268
366.394
366.509
366.609
366.688
366.743
366.772
366.772
366.743
366.688
366.609
366.509
366.394
366.268
366.137
366.008
365.901
356.913
357.004
357.116
357.23
357.339
357.439
357.525
357.594
357.642
357.667
357.667
357.642
357.594
357.525
357.439
357.339
357.23
357.116
357.004
356.913
348.013
348.088
348.182
348.279
348.371
348.456
348.529
348.587
348.628
348.649
348.649
348.628
348.587
348.529
348.456
348.371
348.279
348.182
348.088
348.013
339.187
339.247
339.324
339.403
339.479
339.548
339.608
339.656
339.689
339.706
339.706
339.689
339.656
339.608
339.548
339.479
339.403
339.324
339.247
339.187
330.422
330.468
330.528
330.589
330.648
330.702
330.749
330.786
330.812
330.826
330.826
330.812
330.786
330.749
330.702
330.648
330.589
330.528
330.468
330.422
321.705
321.738
321.781
321.825
321.867
321.906
321.939
321.966
321.984
321.994
321.994
321.984
321.966
321.939
321.906
321.867
321.825
321.781
321.738
321.705
313.024
313.044
313.069
313.095
313.121
313.144
313.164
313.18
313.191
313.197
313.197
313.191
313.18
313.164
313.144
313.121
313.095
313.069
313.044
313.024
304.363
304.37
304.379
304.387
304.396
304.404
304.41
304.416
304.419
304.421
304.421
304.419
304.416
304.41
304.404
304.396
304.387
304.379
304.37
304.363
368.527
368.626
368.745
368.866
368.981
369.086
369.176
369.248
369.298
369.323
369.323
369.298
369.248
369.176
369.086
368.981
368.866
368.745
368.626
368.527
359.137
359.221
359.324
359.428
359.528
359.62
359.698
359.761
359.804
359.826
359.826
359.804
359.761
359.698
359.62
359.528
359.428
359.324
359.221
359.137
349.855
349.925
350.012
350.101
350.186
350.263
350.329
350.383
350.419
350.438
350.438
350.419
350.383
350.329
350.263
350.186
350.101
350.012
349.925
349.855
340.667
340.724
340.795
340.867
340.937
341
341.055
341.098
341.129
341.144
341.144
341.129
341.098
341.055
341
340.937
340.867
340.795
340.724
340.667
331.557
331.6
331.655
331.712
331.766
331.816
331.858
331.892
331.916
331.928
331.928
331.916
331.892
331.858
331.816
331.766
331.712
331.655
331.6
331.557
322.508
322.538
322.578
322.618
322.657
322.692
322.723
322.747
322.764
322.773
322.773
322.764
322.747
322.723
322.692
322.657
322.618
322.578
322.538
322.508
313.502
313.52
313.544
313.568
313.592
313.613
313.631
313.646
313.656
313.661
313.661
313.656
313.646
313.631
313.613
313.592
313.568
313.544
313.52
313.502
304.523
304.529
304.537
304.545
304.553
304.56
304.566
304.571
304.575
304.576
304.576
304.575
304.571
304.566
304.56
304.553
304.545
304.537
304.529
304.523
370.591
370.685
370.797
370.91
371.018
371.115
371.199
371.266
371.312
371.336
371.336
371.312
371.266
371.199
371.115
371.018
370.91
370.797
370.685
370.591
360.818
360.897
360.995
361.093
361.187
361.272
361.346
361.404
361.444
361.465
361.465
361.444
361.404
361.346
361.272
361.187
361.093
360.995
360.897
360.818
351.206
351.272
351.354
351.437
351.517
351.59
351.652
351.702
351.736
351.754
351.754
351.736
351.702
351.652
351.59
351.517
351.437
351.354
351.272
351.206
341.726
341.779
341.846
341.915
341.981
342.04
342.092
342.132
342.161
342.175
342.175
342.161
342.132
342.092
342.04
341.981
341.915
341.846
341.779
341.726
332.353
332.394
332.446
332.5
332.551
332.598
332.638
332.67
332.692
332.703
332.703
332.692
332.67
332.638
332.598
332.551
332.5
332.446
332.394
332.353
323.063
323.092
323.129
323.167
323.204
323.237
323.266
323.289
323.305
323.313
323.313
323.305
323.289
323.266
323.237
323.204
323.167
323.129
323.092
323.063
313.83
313.847
313.87
313.893
313.915
313.935
313.952
313.966
313.975
313.98
313.98
313.975
313.966
313.952
313.935
313.915
313.893
313.87
313.847
313.83
304.632
304.638
304.645
304.653
304.661
304.667
304.673
304.678
304.681
304.683
304.683
304.681
304.678
304.673
304.667
304.661
304.653
304.645
304.638
304.632
)
;

boundaryField
{
    hotSide
    {
        type            fixedGradient;
        gradient        nonuniform List<scalar> 
400
(
441.478
443.294
446.931
452.392
459.687
468.826
479.821
492.685
507.431
524.072
542.623
563.094
585.497
609.842
636.138
664.392
694.611
726.8
760.964
797.104
445.151
446.938
450.517
455.896
463.084
472.097
482.95
495.658
510.241
526.715
545.095
565.398
587.636
611.821
637.965
666.075
696.158
728.22
762.265
798.295
449.126
450.879
454.39
459.669
466.732
475.596
486.282
498.811
513.205
529.486
547.674
567.787
589.842
613.851
639.827
667.78
697.717
729.642
763.562
799.477
453.337
455.05
458.482
463.647
470.564
479.257
489.753
502.078
516.261
532.328
550.303
570.208
592.063
615.883
641.681
669.468
699.251
731.035
764.825
800.622
457.667
459.334
462.677
467.714
474.47
482.974
493.26
505.363
519.316
535.152
552.901
572.587
594.233
617.856
643.471
671.088
700.715
732.358
766.019
801.7
461.935
463.553
466.801
471.702
478.286
486.59
496.657
508.528
522.245
537.845
555.364
574.829
596.267
619.695
645.13
672.582
702.059
733.565
767.104
802.674
465.896
467.465
470.619
475.384
481.798
489.907
499.759
511.405
524.893
540.268
557.567
576.825
598.067
621.315
646.584
673.885
703.226
734.61
768.038
803.51
469.258
470.784
473.852
478.495
484.757
492.691
502.353
513.801
527.09
542.268
559.379
578.458
599.534
622.629
647.759
674.934
704.161
735.443
768.781
804.173
471.718
473.21
476.214
480.764
486.91
494.711
504.23
515.529
528.668
543.7
560.671
579.619
600.574
623.557
648.586
675.67
704.816
736.025
769.299
804.633
473.022
474.496
477.463
481.963
488.047
495.776
505.217
516.436
529.495
544.449
561.345
580.223
601.113
624.038
649.013
676.05
705.153
736.325
769.564
804.87
473.022
474.496
477.463
481.963
488.047
495.776
505.217
516.436
529.495
544.449
561.345
580.223
601.113
624.038
649.013
676.05
705.153
736.325
769.564
804.87
471.718
473.21
476.214
480.764
486.91
494.711
504.23
515.529
528.668
543.7
560.671
579.619
600.574
623.557
648.586
675.67
704.816
736.025
769.299
804.633
469.258
470.784
473.852
478.495
484.757
492.691
502.353
513.801
527.09
542.268
559.379
578.458
599.534
622.629
647.759
674.934
704.161
735.443
768.781
804.173
465.896
467.465
470.619
475.384
481.798
489.907
499.759
511.405
524.893
540.268
557.567
576.825
598.067
621.315
646.584
673.885
703.226
734.61
768.038
803.51
461.935
463.553
466.801
471.702
478.286
486.59
496.657
508.528
522.245
537.845
555.364
574.829
596.267
619.695
645.13
672.582
702.059
733.565
767.104
802.674
457.667
459.334
462.677
467.714
474.47
482.974
493.26
505.363
519.316
535.152
552.901
572.587
594.233
617.856
643.471
671.088
700.715
732.358
766.019
801.7
453.337
455.05
458.482
463.647
470.564
479.257
489.753
502.078
516.261
532.328
550.303
570.208
592.063
615.883
641.681
669.468
699.251
731.035
764.825
800.622
449.126
450.879
454.39
459.669
466.732
475.596
486.282
498.811
513.205
529.486
547.674
567.787
589.842
613.851
639.827
667.78
697.717
729.642
763.562
799.477
445.151
446.938
450.517
455.896
463.084
472.097
482.95
495.658
510.241
526.715
545.095
565.398
587.636
611.821
637.965
666.075
696.158
728.22
762.265
798.295
441.478
443.294
446.931
452.392
459.687
468.826
479.821
492.685
507.431
524.072
542.623
563.094
585.497
609.842
636.138
664.392
694.611
726.8
760.964
797.104
)
;
    }
    coldSide
    {
        type            mixed;
        refValue        uniform 300;
        refGradient     uniform 0;
        valueFraction   uniform 0.991591;
        source          uniform 0;
        value           nonuniform List<scalar> 
400
(
300.023
300.023
300.023
300.023
300.024
300.024
300.025
300.025
300.026
300.027
300.028
300.029
300.03
300.031
300.032
300.034
300.035
300.037
300.038
300.039
300.023
300.023
300.023
300.023
300.024
300.024
300.025
300.025
300.026
300.027
300.028
300.029
300.03
300.031
300.032
300.034