/*--------------------------------*- C++ -*----------------------------------*\
| =========                 |                                                 |
| \\      /  F ield         | OpenFOAM: The Open Source CFD Toolbox           |
|  \\    /   O peration     | Version:  2212                                  |
|   \\  /    A nd           | Website:  www.openfoam.com                      |
|    \\/     M anipulation  |                                                 |
\*---------------------------------------------------------------------------*/
FoamFile
{
    version     2.0;
    format      ascii;
    arch        "LSB;label=32;scalar=64";
    class       volScalarField;
    location    "0";
    object      Tdirect;
}
// * * * * * * * * * * * * * * * * * * * * * * * * * * * * * * * * * * * * * //

dimensions      [0 0 0 1 0 0 0];

internalField   nonuniform List<scalar> 
3200
(
342.856
343.82
345.052
346.394
347.777
349.134
350.386
351.444
352.214
352.621
352.621
352.214
351.444
350.386
349.134
347.777
346.394
345.052
343.82
342.856
337.174
337.991
339.053
340.214
341.411
342.584
343.667
344.581
345.246
345.597
345.597
345.246
344.581
343.667
342.584
341.411
340.214
339.053
337.991
337.174
331.48
332.157
333.052
334.033
335.044
336.036
336.95
337.721
338.282
338.579
338.579
338.282
337.721
336.95
336.036
335.044
334.033
333.052
332.157
331.48
325.775
326.32
327.05
327.851
328.678
329.488
330.235
330.864
331.322
331.564
331.564
331.322
330.864
330.235
329.488
328.678
327.851
327.05
326.32
325.775
320.061
320.48
321.046
321.669
322.311
322.941
323.521
324.01
324.365
324.553
324.553
324.365
324.01
323.521
322.941
322.311
321.669
321.046
320.48
320.061
314.341
314.637
315.041
315.486
315.944
316.394
316.808
317.157
317.411
317.545
317.545
317.411
317.157
316.808
316.394
315.944
315.486
315.041
314.637
314.341
308.616
308.793
309.035
309.302
309.577
309.847
310.096
310.305
310.458
310.538
310.538
310.458
310.305
310.096
309.847
309.577
309.302
309.035
308.793
308.616
302.889
302.948
303.029
303.118
303.21
303.301
303.384
303.454
303.505
303.532
303.532
303.505
303.454
303.384
303.301
303.21
303.118
303.029
302.948
302.889
342.959
343.916
345.137
346.467
347.835
349.177
350.415
351.459
352.219
352.621
352.621
352.219
351.459
350.415
349.177
347.835
346.467
345.137
343.916
342.959
337.263
338.073
339.126
340.277
341.461
342.622
343.692
344.594
345.251
345.598
345.598
345.251
344.594
343.692
342.622
341.461
340.277
339.126
338.073
337.263
331.555
332.227
333.114
334.086
335.087
336.068
336.971
337.733
338.287
338.579
338.579
338.287
337.733
336.971
336.068
335.087
334.086
333.114
332.227
331.555
325.836
326.377
327.1
327.895
328.713
329.514
330.252
330.874
331.326
331.565
331.565
331.326
330.874
330.252
329.514
328.713
327.895
327.1
326.377
325.836
320.109
320.524
321.085
321.702
322.338
322.961
323.535
324.018
324.369
324.554
324.554
324.369
324.018
323.535
322.961
322.338
321.702
321.085
320.524
320.109
314.375
314.669
315.069
315.51
315.964
316.408
316.818
317.162
317.413
317.545
317.545
317.413
317.162
316.818
316.408
315.964
315.51
315.069
314.669
314.375
308.637
308.812
309.052
309.316
309.589
309.856
310.102
310.309
310.459
310.538
310.538
310.459
310.309
310.102
309.856
309.589
309.316
309.052
308.812
308.637
302.895
302.954
303.034
303.123
303.214
303.304
303.386
303.456
303.506
303.532
303.532
303.506
303.456
303.386
303.304
303.214
303.123
303.034
302.954
302.895
343.166
344.108
345.308
346.613
347.954
349.267
350.476
351.495
352.236
352.627
352.627
352.236
351.495
350.476
349.267
347.954
346.613
345.308
344.108
343.166
337.442
338.239
339.275
340.404
341.564
342.7
343.746
344.626
345.266
345.603
345.603
345.266
344.626
343.746
342.7
341.564
340.404
339.275
338.239
337.442
331.706
332.367
333.239
334.193
335.174
336.134
337.017
337.76
338.3
338.585
338.585
338.3
337.76
337.017
336.134
335.174
334.193
333.239
332.367
331.706
325.959
326.492
327.203
327.982
328.784
329.569
330.29
330.897
331.337
331.57
331.57
331.337
330.897
330.29
329.569
328.784
327.982
327.203
326.492
325.959
320.204
320.613
321.165
321.771
322.394
323.003
323.564
324.035
324.377
324.558
324.558
324.377
324.035
323.564
323.003
322.394
321.771
321.165
320.613
320.204
314.443
314.733
315.126
315.558
316.004
316.439
316.839
317.175
317.419
317.548
317.548
317.419
317.175
316.839
316.439
316.004
315.558
315.126
314.733
314.443
308.678
308.85
309.086
309.346
309.613
309.874
310.114
310.316
310.463
310.54
310.54
310.463
310.316
310.114
309.874
309.613
309.346
309.086
308.85
308.678
302.909
302.967
303.046
303.133
303.222
303.31
303.39
303.458
303.507
303.533
303.533
303.507
303.458
303.39
303.31
303.222
303.133
303.046
302.967
302.909
343.479
344.399
345.569
346.838
348.139
349.41
350.578
351.56
352.273
352.649
352.649
352.273
351.56
350.578
349.41
348.139
346.838
345.569
344.399
343.479
337.712
338.491
339.5
340.599
341.725
342.825
343.835
344.684
345.3
345.624
345.624
345.3
344.684
343.835
342.825
341.725
340.599
339.5
338.491
337.712
331.934
332.58
333.43
334.358
335.31
336.24
337.093
337.809
338.329
338.603
338.603
338.329
337.809
337.093
336.24
335.31
334.358
333.43
332.58
331.934
326.146
326.665
327.359
328.117
328.896
329.655
330.352
330.937
331.362
331.585
331.585
331.362
330.937
330.352
329.655
328.896
328.117
327.359
326.665
326.146
320.349
320.748
321.286
321.876
322.481
323.071
323.612
324.067
324.397
324.57
324.57
324.397
324.067
323.612
323.071
322.481
321.876
321.286
320.748
320.349
314.546
314.829
315.212
315.633
316.065
316.487
316.874
317.198
317.433
317.557
317.557
317.433
317.198
316.874
316.487
316.065
315.633
315.212
314.829
314.546
308.739
308.908
309.138
309.391
309.65
309.903
310.135
310.33
310.471
310.546
310.546
310.471
310.33
310.135
309.903
309.65
309.391
309.138
308.908
308.739
302.93
302.986
303.063
303.148
303.235
303.32
303.397
303.463
303.51
303.535
303.535
303.51
303.463
303.397
303.32
303.235
303.148
303.063
302.986
302.93
343.901
344.792
345.924
347.148
348.399
349.617
350.733
351.669
352.348
352.705
352.705
352.348
351.669
350.733
349.617
348.399
347.148
345.924
344.792
343.901
338.077
338.832
339.808
340.867
341.95
343.004
343.969
344.779
345.365
345.674
345.674
345.365
344.779
343.969
343.004
341.95
340.867
339.808
338.832
338.077
332.242
332.868
333.69
334.585
335.501
336.392
337.207
337.89
338.385
338.646
338.646
338.385
337.89
337.207
336.392
335.501
334.585
333.69
332.868
332.242
326.397
326.901
327.571
328.303
329.051
329.779
330.446
331.004
331.408
331.621
331.621
331.408
331.004
330.446
329.779
329.051
328.303
327.571
326.901
326.397
320.544
320.931
321.451
322.02
322.602
323.168
323.686
324.119
324.433
324.598
324.598
324.433
324.119
323.686
323.168
322.602
322.02
321.451
320.931
320.544
314.686
314.96
315.33
315.736
316.152
316.556
316.926
317.236
317.46
317.577
317.577
317.46
317.236
316.926
316.556
316.152
315.736
315.33
314.96
314.686
308.823
308.987
309.209
309.453
309.702
309.945
310.167
310.353
310.487
310.558
310.558
310.487
310.353
310.167
309.945
309.702
309.453
309.209
308.987
308.823
302.958
303.012
303.087
303.169
303.252
303.334
303.408
303.47
303.515
303.539
303.539
303.515
303.47
303.408
303.334
303.252
303.169
303.087
303.012
302.958
344.435
345.293
346.379
347.55
348.742
349.898
350.955
351.838
352.476
352.812
352.812
352.476
351.838
350.955
349.898
348.742
347.55
346.379
345.293
344.435
338.538
339.265
340.202
341.215
342.247
343.248
344.162
344.925
345.477
345.767
345.767
345.477
344.925
344.162
343.248
342.247
341.215
340.202
339.265
338.538
332.631
333.234
334.023
334.879
335.752
336.598
337.37
338.015
338.481
338.726
338.726
338.481
338.015
337.37
336.598
335.752
334.879
334.023
333.234
332.631
326.715
327.2
327.843
328.543
329.257
329.949
330.579
331.106
331.487
331.687
331.687
331.487
331.106
330.579
329.949
329.257
328.543
327.843
327.2
326.715
320.791
321.164
321.663
322.207
322.762
323.299
323.79
324.199
324.495
324.65
324.65
324.495
324.199
323.79
323.299
322.762
322.207
321.663
321.164
320.791
314.862
315.126
315.482
315.87
316.266
316.65
317
317.293
317.504
317.615
317.615
317.504
317.293
317
316.65
316.266
315.87
315.482
315.126
314.862
308.929
309.086
309.3
309.533
309.771
310.001
310.212
310.387
310.514
310.58
310.58
310.514
310.387
310.212
310.001
309.771
309.533
309.3
309.086
308.929
302.993
303.046
303.117
303.196
303.275
303.353
303.423
303.482
303.524
303.547
303.547
303.524
303.482
303.423
303.353
303.275
303.196
303.117
303.046
302.993
345.085
345.906
346.941
348.052
349.178
350.267
351.257
352.082
352.677
352.99
352.99
352.677
352.082
351.257
350.267
349.178
348.052
346.941
345.906
345.085
339.101
339.795
340.688
341.65
342.625
343.568
344.424
345.138
345.653
345.923
345.923
345.653
345.138
344.424
343.568
342.625
341.65
340.688
339.795
339.101
333.106
333.682
334.434
335.247
336.072
336.869
337.593
338.196
338.63
338.858
338.858
338.63
338.196
337.593
336.869
336.072
335.247
334.434
333.682
333.106
327.102
327.566
328.179
328.844
329.518
330.17
330.762
331.255
331.61
331.796
331.796
331.61
331.255
330.762
330.17
329.518
328.844
328.179
327.566
327.102
321.092
321.448
321.924
322.441
322.965
323.472
323.932
324.315
324.59
324.735
324.735
324.59
324.315
323.932
323.472
322.965
322.441
321.924
321.448
321.092
315.077
315.329
315.668
316.037
316.412
316.773
317.102
317.375
317.572
317.676
317.676
317.572
317.375
317.102
316.773
316.412
316.037
315.668
315.329
315.077
309.058
309.208
309.412
309.633
309.858
310.075
310.273
310.437
310.555
310.617
310.617
310.555
310.437
310.273
310.075
309.858
309.633
309.412
309.208
309.058
303.037
303.087
303.155
303.229
303.305
303.377
303.443
303.498
303.538
303.559
303.559
303.538
303.498
303.443
303.377
303.305
303.229
303.155
303.087
303.037
345.857
346.636
347.616
348.663
349.72
350.736
351.657
352.421
352.971
353.259
353.259
352.971
352.421
351.657
350.736
349.72
348.663
347.616
346.636
345.857
339.767
340.427
341.272
342.179
343.094
343.974
344.771
345.432
345.908
346.157
346.157
345.908
345.432
344.771
343.974
343.094
342.179
341.272
340.427
339.767
333.669
334.216
334.928
335.694
336.468
337.213
337.886
338.445
338.847
339.057
339.057
338.847
338.445
337.886
337.213
336.468
335.694
334.928
334.216
333.669
327.562
328.003
328.583
329.21
329.843
330.451
331.002
331.459
331.787
331.959
331.959
331.787
331.459
331.002
330.451
329.843
329.21
328.583
328.003
327.562
321.449
321.788
322.238
322.725
323.217
323.69
324.119
324.474
324.729
324.862
324.862
324.729
324.474
324.119
323.69
323.217
322.725
322.238
321.788
321.449
315.332
315.571
315.892
316.24
316.592
316.93
317.236
317.489
317.671
317.767
317.767
317.671
317.489
317.236
316.93
316.592
316.24
315.892
315.571
315.332
309.211
309.354
309.546
309.755
309.966
310.169
310.353
310.505
310.614
310.672
310.672
310.614
310.505
310.353
310.169
309.966
309.755
309.546
309.354
309.211
303.088
303.136
303.2
303.27
303.341
303.409
303.47
303.521
303.558
303.577
303.577
303.558
303.521
303.47
303.409
303.341
303.27
303.2
303.136
303.088
346.754
347.49
348.411
349.392
350.377
351.319
352.169
352.872
353.375
353.639
353.639
353.375
352.872
352.169
351.319
350.377
349.392
348.411
347.49
346.754
340.543
341.166
341.961
342.81
343.663
344.479
345.215
345.823
346.259
346.487
346.487
346.259
345.823
345.215
344.479
343.663
342.81
341.961
341.166
340.543
334.323
334.84
335.51
336.228
336.949
337.64
338.262
338.776
339.144
339.337
339.337
339.144
338.776
338.262
337.64
336.949
336.228
335.51
334.84
334.323
328.097
328.513
329.059
329.646
330.236
330.801
331.309
331.73
332.031
332.188
332.188
332.031
331.73
331.309
330.801
330.236
329.646
329.059
328.513
328.097
321.865
322.184
322.608
323.064
323.523
323.962
324.358
324.684
324.918
325.041
325.041
324.918
324.684
324.358
323.962
323.523
323.064
322.608
322.184
321.865
315.628
315.854
316.157
316.482
316.81
317.124
317.406
317.64
317.807
317.894
317.894
317.807
317.64
317.406
317.124
316.81
316.482
316.157
315.854
315.628
309.389
309.524
309.705
309.901
310.097
310.286
310.455
310.596
310.696
310.748
310.748
310.696
310.596
310.455
310.286
310.097
309.901
309.705
309.524
309.389
303.147
303.193
303.253
303.319
303.385
303.448
303.505
303.552
303.585
303.603
303.603
303.585
303.552
303.505
303.448
303.385
303.319
303.253
303.193
303.147
347.78
348.472
349.334
350.247
351.159
352.028
352.807
353.449
353.907
354.146
354.146
353.907
353.449
352.807
352.028
351.159
350.247
349.334
348.472
347.78
341.43
342.016
342.76
343.55
344.34
345.093
345.767
346.323
346.72
346.927
346.927
346.72
346.323
345.767
345.093
344.34
343.55
342.76
342.016
341.43
335.073
335.559
336.185
336.854
337.522
338.158
338.729
339.199
339.534
339.71
339.71
339.534
339.199
338.729
338.158
337.522
336.854
336.185
335.559
335.073
328.709
329.1
329.611
330.158
330.704
331.225
331.692
332.076
332.35
332.493
332.493
332.35
332.076
331.692
331.225
330.704
330.158
329.611
329.1
328.709
322.341
322.641
323.037
323.462
323.887
324.292
324.655
324.954
325.167
325.278
325.278
325.167
324.954
324.655
324.292
323.887
323.462
323.037
322.641
322.341
315.968
316.18
316.463
316.766
317.07
317.36
317.619
317.832
317.985
318.064
318.064
317.985
317.832
317.619
317.36
317.07
316.766
316.463
316.18
315.968
309.593
309.719
309.889
310.071
310.254
310.427
310.583
310.711
310.803
310.85
310.85
310.803
310.711
310.583
310.427
310.254
310.071
309.889
309.719
309.593
303.216
303.258
303.315
303.376
303.437
303.495
303.548
303.591
303.621
303.637
303.637
303.621
303.591
303.548
303.495
303.437
303.376
303.315
303.258
303.216
348.941
349.588
350.391
351.236
352.077
352.872
353.583
354.166
354.581
354.797
354.797
354.581
354.166
353.583
352.872
352.077
351.236
350.391
349.588
348.941
342.434
342.982
343.674
344.407
345.134
345.824
346.44
346.944
347.304
347.491
347.491
347.304
346.944
346.44
345.824
345.134
344.407
343.674
342.982
342.434
335.921
336.375
336.959
337.578
338.193
338.777
339.298
339.724
340.028
340.187
340.187
340.028
339.724
339.298
338.777
338.193
337.578
336.959
336.375
335.921
329.402
329.767
330.243
330.749
331.253
331.731
332.157
332.506
332.754
332.884
332.884
332.754
332.506
332.157
331.731
331.253
330.749
330.243
329.767
329.402
322.879
323.159
323.528
323.922
324.314
324.685
325.017
325.288
325.481
325.582
325.582
325.481
325.288
325.017
324.685
324.314
323.922
323.528
323.159
322.879
316.352
316.551
316.814
317.095
317.375
317.64
317.877
318.071
318.209
318.281
318.281
318.209
318.071
317.877
317.64
317.375
317.095
316.814
316.551
316.352
309.823
309.942
310.1
310.269
310.437
310.596
310.738
310.855
310.938
310.981
310.981
310.938
310.855
310.738
310.596
310.437
310.269
310.1
309.942
309.823
303.293
303.333
303.386
303.442
303.498
303.552
303.6
303.639
303.666
303.681
303.681
303.666
303.639
303.6
303.552
303.498
303.442
303.386
303.333
303.293
350.241
350.843
351.587
352.367
353.137
353.863
354.508
355.035
355.409
355.604
355.604
355.409
355.035
354.508
353.863
353.137
352.367
351.587
350.843
350.241
343.558
344.068
344.71
345.385
346.053
346.682
347.241
347.697
348.021
348.19
348.19
348.021
347.697
347.241
346.682
346.053
345.385
344.71
344.068
343.558
336.87
337.293
337.834
338.405
338.97
339.502
339.975
340.361
340.635
340.777
340.777
340.635
340.361
339.975
339.502
338.97
338.405
337.834
337.293
336.87
330.177
330.517
330.959
331.426
331.888
332.323
332.71
333.026
333.25
333.367
333.367
333.25
333.026
332.71
332.323
331.888
331.426
330.959
330.517
330.177
323.481
323.742
324.085
324.448
324.807
325.146
325.447
325.693
325.867
325.958
325.958
325.867
325.693
325.447
325.146
324.807
324.448
324.085
323.742
323.481
316.782
316.967
317.211
317.47
317.727
317.97
318.185
318.36
318.485
318.549
318.549
318.485
318.36
318.185
317.97
317.727
317.47
317.211
316.967
316.782
310.082
310.192
310.338
310.494
310.648
310.794
310.923
311.028
311.103
311.142
311.142
311.103
311.028
310.923
310.794
310.648
310.494
310.338
310.192
310.082
303.38
303.416
303.465
303.518
303.569
303.618
303.661
303.697
303.722
303.735
303.735
303.722
303.697
303.661
303.618
303.569
303.518
303.465
303.416
303.38
351.682
352.241
352.928
353.644
354.348
355.007
355.59
356.065
356.401
356.575
356.575
356.401
356.065
355.59
355.007
354.348
353.644
352.928
352.241
351.682
344.804
345.277
345.87
346.49
347.1
347.672
348.177
348.589
348.88
349.03
349.03
348.88
348.589
348.177
347.672
347.1
346.49
345.87
345.277
344.804
337.922
338.314
338.814
339.339
339.855
340.339
340.767
341.115
341.361
341.488
341.488
341.361
341.115
340.767
340.339
339.855
339.339
338.814
338.314
337.922
331.037
331.353
331.76
332.189
332.612
333.008
333.358
333.642
333.844
333.948
333.948
333.844
333.642
333.358
333.008
332.612
332.189
331.76
331.353
331.037
324.149
324.392
324.708
325.041
325.37
325.678
325.95
326.172
326.328
326.41
326.41
326.328
326.172
325.95
325.678
325.37
325.041
324.708
324.392
324.149
317.259
317.431
317.656
317.894
318.129
318.35
318.544
318.702
318.814
318.872
318.872
318.814
318.702
318.544
318.35
318.129
317.894
317.656
317.431
317.259
310.368
310.47
310.605
310.748
310.89
311.022
311.139
311.234
311.301
311.336
311.336
311.301
311.234
311.139
311.022
310.89
310.748
310.605
310.47
310.368
303.476
303.51
303.555
303.603
303.65
303.695
303.734
303.766
303.788
303.8
303.8
303.788
303.766
303.734
303.695
303.65
303.603
303.555
303.51
303.476
353.266
353.783
354.415
355.071
355.712
356.31
356.835
357.261
357.562
357.718
357.718
357.562
357.261
356.835
356.31
355.712
355.071
354.415
353.783
353.266
346.174
346.612
347.157
347.725
348.281
348.799
349.255
349.624
349.885
350.02
350.02
349.885
349.624
349.255
348.799
348.281
347.725
347.157
346.612
346.174
339.08
339.442
339.902
340.383
340.853
341.291
341.677
341.99
342.21
342.324
342.324
342.21
341.99
341.677
341.291
340.853
340.383
339.902
339.442
339.08
331.983
332.275
332.65
333.043
333.427
333.786
334.102
334.358
334.538
334.632
334.632
334.538
334.358
334.102
333.786
333.427
333.043
332.65
332.275
331.983
324.884
325.108
325.399
325.705
326.004
326.283
326.529
326.728
326.868
326.941
326.941
326.868
326.728
326.529
326.283
326.004
325.705
325.399
325.108
324.884
317.784
317.942
318.15
318.368
318.582
318.782
318.957
319.099
319.2
319.252
319.252
319.2
319.099
318.957
318.782
318.582
318.368
318.15
317.942
317.784
310.683
310.777
310.902
311.033
311.161
311.281
311.387
311.472
311.532
311.564
311.564
311.532
311.472
311.387
311.281
311.161
311.033
310.902
310.777
310.683
303.581
303.613
303.654
303.698
303.741
303.782
303.817
303.846
303.866
303.876
303.876
303.866
303.846
303.817
303.782
303.741
303.698
303.654
303.613
303.581
354.994
355.471
356.051
356.65
357.232
357.772
358.245
358.627
358.896
359.034
359.034
358.896
358.627
358.245
357.772
357.232
356.65
356.051
355.471
354.994
347.668
348.071
348.572
349.091
349.596
350.064
350.474
350.805
351.038
351.158
351.158
351.038
350.805
350.474
350.064
349.596
349.091
348.572
348.071
347.668
340.341
340.676
341.098
341.537
341.964
342.36
342.708
342.988
343.185
343.286
343.286
343.185
342.988
342.708
342.36
341.964
341.537
341.098
340.676
340.341
333.013
333.282
333.627
333.986
334.335
334.66
334.944
335.173
335.335
335.418
335.418
335.335
335.173
334.944
334.66
334.335
333.986
333.627
333.282
333.013
325.685
325.891
326.158
326.437
326.71
326.962
327.183
327.362
327.487
327.552
327.552
327.487
327.362
327.183
326.962
326.71
326.437
326.158
325.891
325.685
318.355
318.501
318.692
318.891
319.086
319.266
319.424
319.552
319.642
319.688
319.688
319.642
319.552
319.424
319.266
319.086
318.891
318.692
318.501
318.355
311.026
311.113
311.227
311.347
311.464
311.572
311.667
311.744
311.798
311.825
311.825
311.798
311.744
311.667
311.572
311.464
311.347
311.227
311.113
311.026
303.696
303.725
303.763
303.804
303.843
303.879
303.911
303.937
303.955
303.964
303.964
303.955
303.937
303.911
303.879
303.843
303.804
303.763
303.725
303.696
356.859
357.298
357.83
358.376
358.904
359.391
359.816
360.157
360.397
360.521
360.521
360.397
360.157
359.816
359.391
358.904
358.376
357.83
357.298
356.859
349.28
349.651
350.11
350.583
351.041
351.463
351.832
352.128
352.336
352.443
352.443
352.336
352.128
351.832
351.463
351.041
350.583
350.11
349.651
349.28
341.701
342.009
342.396
342.796
343.184
343.541
343.853
344.104
344.28
344.371
344.371
344.28
344.104
343.853
343.541
343.184
342.796
342.396
342.009
341.701
334.123
334.371
334.687
335.014
335.331
335.624
335.88
336.085
336.229
336.303
336.303
336.229
336.085
335.88
335.624
335.331
335.014
334.687
334.371
334.123
326.547
326.737
326.981
327.236
327.483
327.711
327.91
328.07
328.182
328.239
328.239
328.182
328.07
327.91
327.711
327.483
327.236
326.981
326.737
326.547
318.97
319.105
319.28
319.461
319.638
319.801
319.943
320.057
320.137
320.179
320.179
320.137
320.057
319.943
319.801
319.638
319.461
319.28
319.105
318.97
311.395
311.475
311.58
311.689
311.795
311.893
311.978
312.047
312.095
312.12
312.12
312.095
312.047
311.978
311.893
311.795
311.689
311.58
311.475
311.395
303.82
303.846
303.882
303.918
303.954
303.987
304.015
304.038
304.054
304.063
304.063
304.054
304.038
304.015
303.987
303.954
303.918
303.882
303.846
303.82
358.842
359.246
359.733
360.23
360.709
361.148
361.53
361.836
362.049
362.16
362.16
362.049
361.836
361.53
361.148
360.709
360.23
359.733
359.246
358.842
350.99
351.331
351.752
352.183
352.598
352.979
353.31
353.576
353.761
353.857
353.857
353.761
353.576
353.31
352.979
352.598
352.183
351.752
351.331
350.99
343.142
343.425
343.78
344.144
344.496
344.819
345.099
345.324
345.481
345.562
345.562
345.481
345.324
345.099
344.819
344.496
344.144
343.78
343.425
343.142
335.298
335.526
335.815
336.113
336.401
336.666
336.895
337.079
337.208
337.274
337.274
337.208
337.079
336.895
336.666
336.401
336.113
335.815
335.526
335.298
327.458
327.633
327.857
328.089
328.313
328.519
328.698
328.841
328.941
328.992
328.992
328.941
328.841
328.698
328.519
328.313
328.089
327.857
327.633
327.458
319.62
319.744
319.904
320.07
320.23
320.377
320.505
320.607
320.679
320.715
320.715
320.679
320.607
320.505
320.377
320.23
320.07
319.904
319.744
319.62
311.785
311.858
311.954
312.054
312.15
312.239
312.315
312.377
312.42
312.442
312.442
312.42
312.377
312.315
312.239
312.15
312.054
311.954
311.858
311.785
303.95
303.975
304.007
304.04
304.073
304.102
304.128
304.149
304.163
304.17
304.17
304.163
304.149
304.128
304.102
304.073
304.04
304.007
303.975
303.95
360.893
361.264
361.71
362.164
362.599
362.996
363.34
363.614
363.805
363.904
363.904
363.805
363.614
363.34
362.996
362.599
362.164
361.71
361.264
360.893
352.751
353.065
353.45
353.843
354.221
354.566
354.864
355.102
355.268
355.354
355.354
355.268
355.102
354.864
354.566
354.221
353.843
353.45
353.065
352.751
344.619
344.88
345.205
345.538
345.857
346.15
346.403
346.604
346.745
346.817
346.817
346.745
346.604
346.403
346.15
345.857
345.538
345.205
344.88
344.619
336.498
336.708
336.973
337.245
337.507
337.747
337.954
338.119
338.235
338.294
338.294
338.235
338.119
337.954
337.747
337.507
337.245
336.973
336.708
336.498
328.386
328.546
328.752
328.964
329.168
329.355
329.516
329.645
329.735
329.781
329.781
329.735
329.645
329.516
329.355
329.168
328.964
328.752
328.546
328.386
320.28
320.394
320.541
320.692
320.838
320.971
321.087
321.179
321.243
321.276
321.276
321.243
321.179
321.087
320.971
320.838
320.692
320.541
320.394
320.28
312.18
312.248
312.336
312.427
312.514
312.595
312.664
312.719
312.758
312.778
312.778
312.758
312.719
312.664
312.595
312.514
312.427
312.336
312.248
312.18
304.082
304.105
304.135
304.165
304.195
304.221
304.245
304.263
304.276
304.283
304.283
304.276
304.263
304.245
304.221
304.195
304.165
304.135
304.105
304.082
362.877
363.22
363.632
364.049
364.446
364.808
365.121
365.369
365.542
365.63
365.63
365.542
365.369
365.121
364.808
364.446
364.049
363.632
363.22
362.877
354.433
354.724
355.08
355.442
355.787
356.102
356.373
356.589
356.74
356.817
356.817
356.74
356.589
356.373
356.102
355.787
355.442
355.08
354.724
354.433
346.016
346.257
346.558
346.864
347.157
347.425
347.655
347.838
347.966
348.031
348.031
347.966
347.838
347.655
347.425
347.157
346.864
346.558
346.257
346.016
337.622
337.816
338.062
338.313
338.553
338.773
338.961
339.112
339.216
339.27
339.27
339.216
339.112
338.961
338.773
338.553
338.313
338.062
337.816
337.622
329.248
329.397
329.588
329.784
329.971
330.142
330.289
330.406
330.488
330.529
330.529
330.488
330.406
330.289
330.142
329.971
329.784
329.588
329.397
329.248
320.89
320.996
321.132
321.272
321.406
321.528
321.633
321.717
321.775
321.805
321.805
321.775
321.717
321.633
321.528
321.406
321.272
321.132
320.996
320.89
312.544
312.607
312.688
312.772
312.853
312.926
312.99
313.04
313.075
313.093
313.093
313.075
313.04
312.99
312.926
312.853
312.772
312.688
312.607
312.544
304.204
304.225
304.252
304.281
304.308
304.332
304.353
304.37
304.382
304.388
304.388
304.382
304.37
304.353
304.332
304.308
304.281
304.252
304.225
304.204
364.443
364.765
365.152
365.543
365.915
366.253
366.543
366.774
366.934
367.016
367.016
366.934
366.774
366.543
366.253
365.915
365.543
365.152
364.765
364.443
355.71
355.984
356.32
356.66
356.985
357.279
357.533
357.734
357.874
357.945
357.945
357.874
357.734
357.533
357.279
356.985
356.66
356.32
355.984
355.71
347.043
347.271
347.555
347.844
348.12
348.371
348.586
348.757
348.876
348.937
348.937
348.876
348.757
348.586
348.371
348.12
347.844
347.555
347.271
347.043
338.428
338.612
338.844
339.082
339.309
339.515
339.692
339.832
339.93
339.98
339.98
339.93
339.832
339.692
339.515
339.309
339.082
338.844
338.612
338.428
329.855
329.996
330.177
330.362
330.539
330.7
330.838
330.948
331.025
331.064
331.064
331.025
330.948
330.838
330.7
330.539
330.362
330.177
329.996
329.855
321.313
321.413
321.543
321.675
321.802
321.917
322.016
322.095
322.15
322.178
322.178
322.15
322.095
322.016
321.917
321.802
321.675
321.543
321.413
321.313
312.794
312.854
312.931
313.011
313.087
313.156
313.216
313.263
313.296
313.313
313.313
313.296
313.263
313.216
313.156
313.087
313.011
312.931
312.854
312.794
304.287
304.307
304.333
304.36
304.385
304.409
304.429
304.445
304.456
304.461
304.461
304.456
304.445
304.429
304.409
304.385
304.36
304.333
304.307
304.287
)
;

boundaryField
{
    hotSide
    {
        type            fixedGradient;
        gradient        nonuniform List<scalar> 
400
(
453.343
454.477
456.755
460.197
464.831
470.694
477.827
486.274
496.081
507.295
519.961
534.121
549.813
567.073
585.931
606.413
628.541
652.332
677.801
704.959
466.036
467.07
469.15
472.305
476.571
481.997
488.637
496.549
505.792
516.425
528.505
542.082
557.205
573.915
592.246
612.228
633.885
657.237
682.297
709.076
479.772
480.686
482.531
485.345
489.176
494.088
500.152
507.442
516.034
526.003
537.417
550.34
564.827
580.928
598.681
618.121
639.271
662.153
686.779
713.16
494.325
495.099
496.671
499.089
502.418
506.741
512.147
518.733
526.594
535.822
546.501
558.707
572.505
587.95
605.088
623.953
644.572
666.965
691.144
717.118
509.287
509.903
511.169
513.144
515.914
519.583
524.266
530.083
537.152
545.583
555.479
566.927
580.003
594.768
611.272
629.552
649.634
671.536
695.27
720.84
524.034
524.483
525.42
526.923
529.1
532.08
536.006
541.022
547.273
554.889
563.989
574.675
587.03
601.123
617.005
634.714
654.277
675.709
699.019
724.207
537.722
538.003
538.613
539.648
541.238
543.54
546.724
550.963
556.424
563.26
571.604
581.571
593.252
606.721
622.03
639.218
658.309
679.317
702.247
727.096
549.34
549.469
549.785
550.399
551.464
553.161
555.689
559.243
564.014
570.171
577.863
587.214
598.321
611.261
626.089
642.841
661.541
682.198
704.816
729.387
557.842
557.855
557.946
558.238
558.903
560.143
562.174
565.214
569.468
575.12
582.33
591.226
601.914
614.469
628.947
645.385
663.803
684.21
706.604
730.978
562.347
562.297
562.265
562.382
562.831
563.822
565.585
568.348
572.325
577.707
584.659
593.314
603.779
616.13
630.425
646.697
664.968
685.244
707.522
731.794
562.347
562.297
562.265
562.382
562.831
563.822
565.585
568.348
572.325
577.707
584.659
593.314
603.779
616.13
630.425
646.697
664.968
685.244
707.522
731.794
557.842
557.855
557.946
558.238
558.903
560.143
562.174
565.214
569.468
575.12
582.33
591.226
601.914
614.469
628.947
645.385
663.803
684.21
706.604
730.978
549.34
549.469
549.785
550.399
551.464
553.161
555.689
559.243
564.014
570.171
577.863
587.214
598.321
611.261
626.089
642.841
661.541
682.198
704.816
729.387
537.722
538.003
538.613
539.648
541.238
543.54
546.724
550.963
556.424
563.26
571.604
581.571
593.252
606.721
622.03
639.218
658.309
679.317
702.247
727.096
524.034
524.483
525.42
526.923
529.1
532.08
536.006
541.022
547.273
554.889
563.989
574.675
587.03
601.123
617.005
634.714
654.277
675.709
699.019
724.207
509.287
509.903
511.169
513.144
515.914
519.583
524.266
530.083
537.152
545.583
555.479
566.927
580.003
594.768
611.272
629.552
649.634
671.536
695.27
720.84
494.325
495.099
496.671
499.089
502.418
506.741
512.147
518.733
526.594
535.822
546.501
558.707
572.505
587.95
605.088
623.953
644.572
666.965
691.144
717.118
479.772
480.686
482.531
485.345
489.176
494.088
500.152
507.442
516.034
526.003
537.417
550.34
564.827
580.928
598.681
618.121
639.271
662.153
686.779
713.16
466.036
467.07
469.15
472.305
476.571
481.997
488.637
496.549
505.792
516.425
528.505
542.082
557.205
573.915
592.246
612.228
633.885
657.237
682.297
709.076
453.343
454.477
456.755
460.197
464.831
470.694
477.827
486.274
496.081
507.295
519.961
534.121
549.813
567.073
585.931
606.413
628.541
652.332
677.801
704.959
)
;
    }
    coldSide
    {
        type            mixed;
        refValue        uniform 300;
        refGradient     uniform 0;
        valueFraction   uniform 0.991591;
        source          uniform 0;
        value           nonuniform List<scalar> 
400
(
300.024
300.024
300.024
300.025
300.025
300.025
300.026
300.026
300.026
300.027
300.028
300.028
300.029
300.03
300.031
300.032
300.033
300.034
300.035
300.036
300.025
300.025
300.025
300.025
300.025
300.026
300.026
300.026
300.027
300.027
300.028
300.029
300.03
300.03
300.031
300.032
300.033
300.035
300.036
300.036
300.025
300.026