/*--------------------------------*- C++ -*----------------------------------*\
| =========                 |                                                 |
| \\      /  F ield         | OpenFOAM: The Open Source CFD Toolbox           |
|  \\    /   O peration     | Version:  2212                                  |
|   \\  /    A nd           | Website:  www.openfoam.com                      |
|    \\/     M anipulation  |                                                 |
\*---------------------------------------------------------------------------*/
FoamFile
{
    version     2.0;
    format      ascii;
    arch        "LSB;label=32;scalar=64";
    class       volScalarField;
    location    "0";
    object      Ttrue;
}
// * * * * * * * * * * * * * * * * * * * * * * * * * * * * * * * * * * * * * //

dimensions      [0 0 0 1 0 0 0];

internalField   nonuniform List<scalar> 
3200
(
334.891
335.184
335.559
335.967
336.388
336.801
337.182
337.503
337.738
337.861
337.861
337.738
337.503
337.182
336.801
336.388
335.967
335.559
335.184
334.891
330.135
330.383
330.707
331.06
331.424
331.781
332.11
332.388
332.59
332.697
332.697
332.59
332.388
332.11
331.781
331.424
331.06
330.707
330.383
330.135
325.425
325.631
325.903
326.201
326.509
326.811
327.089
327.323
327.494
327.584
327.584
327.494
327.323
327.089
326.811
326.509
326.201
325.903
325.631
325.425
320.753
320.918
321.14
321.384
321.636
321.882
322.109
322.301
322.44
322.514
322.514
322.44
322.301
322.109
321.882
321.636
321.384
321.14
320.918
320.753
316.112
316.24
316.412
316.601
316.797
316.988
317.165
317.314
317.422
317.479
317.479
317.422
317.314
317.165
316.988
316.797
316.601
316.412
316.24
316.112
311.497
311.587
311.71
311.845
311.984
312.121
312.247
312.353
312.431
312.471
312.471
312.431
312.353
312.247
312.121
311.984
311.845
311.71
311.587
311.497
306.899
306.953
307.026
307.107
307.191
307.273
307.349
307.413
307.459
307.483
307.483
307.459
307.413
307.349
307.273
307.191
307.107
307.026
306.953
306.899
302.311
302.329
302.354
302.381
302.409
302.437
302.462
302.483
302.499
302.507
302.507
302.499
302.483
302.462
302.437
302.409
302.381
302.354
302.329
302.311
335.027
335.318
335.689
336.094
336.51
336.918
337.295
337.612
337.844
337.966
337.966
337.844
337.612
337.295
336.918
336.51
336.094
335.689
335.318
335.027
330.252
330.498
330.819
331.169
331.529
331.882
332.208
332.482
332.682
332.787
332.787
332.682
332.482
332.208
331.882
331.529
331.169
330.819
330.498
330.252
325.523
325.727
325.997
326.293
326.597
326.896
327.171
327.402
327.571
327.66
327.66
327.571
327.402
327.171
326.896
326.597
326.293
325.997
325.727
325.523
320.833
320.997
321.217
321.459
321.708
321.952
322.176
322.365
322.503
322.576
322.576
322.503
322.365
322.176
321.952
321.708
321.459
321.217
320.997
320.833
316.175
316.301
316.472
316.659
316.853
317.042
317.217
317.364
317.47
317.527
317.527
317.47
317.364
317.217
317.042
316.853
316.659
316.472
316.301
316.175
311.541
311.63
311.752
311.886
312.024
312.16
312.284
312.389
312.465
312.505
312.505
312.465
312.389
312.284
312.16
312.024
311.886
311.752
311.63
311.541
306.925
306.979
307.052
307.132
307.215
307.296
307.371
307.434
307.48
307.504
307.504
307.48
307.434
307.371
307.296
307.215
307.132
307.052
306.979
306.925
302.32
302.338
302.363
302.39
302.417
302.445
302.47
302.491
302.506
302.514
302.514
302.506
302.491
302.47
302.445
302.417
302.39
302.363
302.338
302.32
335.298
335.585
335.95
336.347
336.755
337.154
337.522
337.832
338.057
338.176
338.176
338.057
337.832
337.522
337.154
336.755
336.347
335.95
335.585
335.298
330.486
330.729
331.044
331.387
331.74
332.086
332.404
332.671
332.866
332.969
332.969
332.866
332.671
332.404
332.086
331.74
331.387
331.044
330.729
330.486
325.72
325.921
326.187
326.477
326.775
327.067
327.336
327.562
327.726
327.813
327.813
327.726
327.562
327.336
327.067
326.775
326.477
326.187
325.921
325.72
320.994
321.156
321.372
321.609
321.853
322.092
322.311
322.495
322.63
322.7
322.7
322.63
322.495
322.311
322.092
321.853
321.609
321.372
321.156
320.994
316.299
316.424
316.591
316.776
316.965
317.151
317.321
317.464
317.569
317.623
317.623
317.569
317.464
317.321
317.151
316.965
316.776
316.591
316.424
316.299
311.63
311.718
311.837
311.969
312.105
312.237
312.359
312.461
312.535
312.574
312.574
312.535
312.461
312.359
312.237
312.105
311.969
311.837
311.718
311.63
306.979
307.031
307.103
307.182
307.263
307.343
307.416
307.477
307.522
307.545
307.545
307.522
307.477
307.416
307.343
307.263
307.182
307.103
307.031
306.979
302.338
302.356
302.38
302.406
302.433
302.46
302.485
302.505
302.52
302.528
302.528
302.52
302.505
302.485
302.46
302.433
302.406
302.38
302.356
302.338
335.707
335.987
336.342
336.729
337.124
337.511
337.866
338.165
338.382
338.496
338.496
338.382
338.165
337.866
337.511
337.124
336.729
336.342
335.987
335.707
330.838
331.075
331.382
331.716
332.059
332.393
332.7
332.959
333.146
333.245
333.245
333.146
332.959
332.7
332.393
332.059
331.716
331.382
331.075
330.838
326.017
326.213
326.472
326.754
327.044
327.326
327.586
327.804
327.962
328.045
328.045
327.962
327.804
327.586
327.326
327.044
326.754
326.472
326.213
326.017
321.235
321.393
321.604
321.835
322.072
322.303
322.515
322.693
322.822
322.89
322.89
322.822
322.693
322.515
322.303
322.072
321.835
321.604
321.393
321.235
316.486
316.608
316.771
316.951
317.135
317.314
317.479
317.617
317.718
317.77
317.77
317.718
317.617
317.479
317.314
317.135
316.951
316.771
316.608
316.486
311.763
311.849
311.966
312.094
312.225
312.354
312.471
312.57
312.642
312.679
312.679
312.642
312.57
312.471
312.354
312.225
312.094
311.966
311.849
311.763
307.059
307.11
307.18
307.257
307.336
307.413
307.483
307.542
307.585
307.608
307.608
307.585
307.542
307.483
307.413
307.336
307.257
307.18
307.11
307.059
302.365
302.382
302.405
302.431
302.458
302.483
302.507
302.527
302.541
302.549
302.549
302.541
302.527
302.507
302.483
302.458
302.431
302.405
302.382
302.365
336.253
336.524
336.868
337.24
337.621
337.992
338.331
338.616
338.822
338.931
338.931
338.822
338.616
338.331
337.992
337.621
337.24
336.868
336.524
336.253
331.308
331.538
331.835
332.157
332.487
332.807
333.101
333.347
333.526
333.619
333.619
333.526
333.347
333.101
332.807
332.487
332.157
331.835
331.538
331.308
326.413
326.603
326.853
327.126
327.404
327.675
327.923
328.131
328.282
328.361
328.361
328.282
328.131
327.923
327.675
327.404
327.126
326.853
326.603
326.413
321.558
321.711
321.915
322.138
322.365
322.587
322.79
322.959
323.082
323.147
323.147
323.082
322.959
322.79
322.587
322.365
322.138
321.915
321.711
321.558
316.737
316.854
317.013
317.186
317.363
317.535
317.692
317.824
317.92
317.97
317.97
317.92
317.824
317.692
317.535
317.363
317.186
317.013
316.854
316.737
311.942
312.025
312.138
312.261
312.388
312.511
312.623
312.717
312.786
312.821
312.821
312.786
312.717
312.623
312.511
312.388
312.261
312.138
312.025
311.942
307.166
307.215
307.283
307.357
307.433
307.507
307.574
307.631
307.672
307.693
307.693
307.672
307.631
307.574
307.507
307.433
307.357
307.283
307.215
307.166
302.401
302.417
302.44
302.465
302.49
302.515
302.538
302.557
302.57
302.578
302.578
302.57
302.557
302.538
302.515
302.49
302.465
302.44
302.417
302.401
336.937
337.198
337.528
337.885
338.247
338.599
338.92
339.189
339.383
339.485
339.485
339.383
339.189
338.92
338.599
338.247
337.885
337.528
337.198
336.937
331.898
332.119
332.404
332.712
333.026
333.331
333.609
333.841
334.009
334.097
334.097
334.009
333.841
333.609
333.331
333.026
332.712
332.404
332.119
331.898
326.909
327.093
327.333
327.593
327.859
328.116
328.351
328.547
328.689
328.763
328.763
328.689
328.547
328.351
328.116
327.859
327.593
327.333
327.093
326.909
321.963
322.11
322.306
322.519
322.736
322.946
323.138
323.299
323.414
323.475
323.475
323.414
323.299
323.138
322.946
322.736
322.519
322.306
322.11
321.963
317.051
317.164
317.316
317.481
317.65
317.813
317.963
318.087
318.177
318.224
318.224
318.177
318.087
317.963
317.813
317.65
317.481
317.316
317.164
317.051
312.166
312.246
312.354
312.472
312.593
312.709
312.816
312.905
312.969
313.003
313.003
312.969
312.905
312.816
312.709
312.593
312.472
312.354
312.246
312.166
307.3
307.348
307.413
307.484
307.556
307.626
307.69
307.743
307.782
307.802
307.802
307.782
307.743
307.69
307.626
307.556
307.484
307.413
307.348
307.3
302.446
302.462
302.483
302.507
302.531
302.555
302.576
302.594
302.607
302.614
302.614
302.607
302.594
302.576
302.555
302.531
302.507
302.483
302.462
302.446
337.761
338.011
338.326
338.664
339.006
339.337
339.639
339.89
340.071
340.166
340.166
340.071
339.89
339.639
339.337
339.006
338.664
338.326
338.011
337.761
332.609
332.82
333.091
333.384
333.681
333.967
334.228
334.445
334.602
334.684
334.684
334.602
334.445
334.228
333.967
333.681
333.384
333.091
332.82
332.609
327.507
327.683
327.912
328.159
328.41
328.652
328.872
329.056
329.188
329.257
329.257
329.188
329.056
328.872
328.652
328.41
328.159
327.912
327.683
327.507
322.45
322.591
322.778
322.98
323.185
323.383
323.563
323.713
323.821
323.878
323.878
323.821
323.713
323.563
323.383
323.185
322.98
322.778
322.591
322.45
317.429
317.537
317.682
317.839
317.998
318.152
318.292
318.409
318.493
318.537
318.537
318.493
318.409
318.292
318.152
317.998
317.839
317.682
317.537
317.429
312.435
312.512
312.615
312.727
312.841
312.951
313.051
313.134
313.194
313.225
313.225
313.194
313.134
313.051
312.951
312.841
312.727
312.615
312.512
312.435
307.461
307.507
307.569
307.636
307.705
307.771
307.831
307.881
307.917
307.936
307.936
307.917
307.881
307.831
307.771
307.705
307.636
307.569
307.507
307.461
302.5
302.515
302.536
302.558
302.581
302.603
302.624
302.64
302.652
302.659
302.659
302.652
302.64
302.624
302.603
302.581
302.558
302.536
302.515
302.5
338.727
338.964
339.262
339.58
339.902
340.211
340.491
340.723
340.891
340.978
340.978
340.891
340.723
340.491
340.211
339.902
339.58
339.262
338.964
338.727
333.441
333.641
333.898
334.174
334.452
334.72
334.963
335.164
335.309
335.384
335.384
335.309
335.164
334.963
334.72
334.452
334.174
333.898
333.641
333.441
328.208
328.375
328.591
328.824
329.06
329.286
329.491
329.661
329.783
329.847
329.847
329.783
329.661
329.491
329.286
329.06
328.824
328.591
328.375
328.208
323.021
323.155
323.332
323.522
323.715
323.9
324.068
324.207
324.306
324.359
324.359
324.306
324.207
324.068
323.9
323.715
323.522
323.332
323.155
323.021
317.871
317.974
318.111
318.259
318.409
318.553
318.683
318.791
318.869
318.91
318.91
318.869
318.791
318.683
318.553
318.409
318.259
318.111
317.974
317.871
312.751
312.823
312.921
313.027
313.134
313.237
313.33
313.407
313.462
313.491
313.491
313.462
313.407
313.33
313.237
313.134
313.027
312.921
312.823
312.751
307.651
307.694
307.753
307.816
307.88
307.942
307.998
308.044
308.078
308.095
308.095
308.078
308.044
307.998
307.942
307.88
307.816
307.753
307.694
307.651
302.563
302.578
302.597
302.619
302.64
302.661
302.68
302.695
302.706
302.712
302.712
302.706
302.695
302.68
302.661
302.64
302.619
302.597
302.578
302.563
339.834
340.058
340.339
340.637
340.937
341.223
341.482
341.695
341.849
341.929
341.929
341.849
341.695
341.482
341.223
340.937
340.637
340.339
340.058
339.834
334.395
334.585
334.827
335.085
335.345
335.593
335.817
336.002
336.134
336.204
336.204
336.134
336.002
335.817
335.593
335.345
335.085
334.827
334.585
334.395
329.012
329.17
329.373
329.592
329.811
330.021
330.21
330.367
330.479
330.537
330.537
330.479
330.367
330.21
330.021
329.811
329.592
329.373
329.17
329.012
323.677
323.803
323.969
324.148
324.327
324.499
324.654
324.782
324.873
324.921
324.921
324.873
324.782
324.654
324.499
324.327
324.148
323.969
323.803
323.677
318.38
318.477
318.606
318.744
318.884
319.018
319.138
319.237
319.309
319.346
319.346
319.309
319.237
319.138
319.018
318.884
318.744
318.606
318.477
318.38
313.113
313.182
313.274
313.373
313.472
313.568
313.654
313.725
313.776
313.802
313.802
313.776
313.725
313.654
313.568
313.472
313.373
313.274
313.182
313.113
307.868
307.909
307.964
308.024
308.084
308.141
308.192
308.235
308.266
308.282
308.282
308.266
308.235
308.192
308.141
308.084
308.024
307.964
307.909
307.868
302.636
302.65
302.668
302.688
302.708
302.727
302.745
302.759
302.769
302.775
302.775
302.769
302.759
302.745
302.727
302.708
302.688
302.668
302.65
302.636
341.086
341.297
341.559
341.837
342.114
342.378
342.615
342.81
342.95
343.023
343.023
342.95
342.81
342.615
342.378
342.114
341.837
341.559
341.297
341.086
335.474
335.652
335.879
336.119
336.36
336.588
336.794
336.963
337.083
337.146
337.146
337.083
336.963
336.794
336.588
336.36
336.119
335.879
335.652
335.474
329.921
330.069
330.259
330.463
330.666
330.86
331.033
331.176
331.278
331.331
331.331
331.278
331.176
331.033
330.86
330.666
330.463
330.259
330.069
329.921
324.417
324.536
324.692
324.858
325.024
325.182
325.324
325.441
325.525
325.568
325.568
325.525
325.441
325.324
325.182
325.024
324.858
324.692
324.536
324.417
318.954
319.045
319.166
319.295
319.424
319.548
319.658
319.749
319.814
319.848
319.848
319.814
319.749
319.658
319.548
319.424
319.295
319.166
319.045
318.954
313.522
313.587
313.673
313.765
313.858
313.946
314.025
314.09
314.136
314.16
314.16
314.136
314.09
314.025
313.946
313.858
313.765
313.673
313.587
313.522
308.114
308.152
308.204
308.259
308.315
308.367
308.415
308.454
308.482
308.496
308.496
308.482
308.454
308.415
308.367
308.315
308.259
308.204
308.152
308.114
302.718
302.731
302.748
302.767
302.786
302.803
302.819
302.832
302.842
302.846
302.846
302.842
302.832
302.819
302.803
302.786
302.767
302.748
302.731
302.718
342.483
342.68
342.924
343.181
343.437
343.679
343.895
344.072
344.199
344.264
344.264
344.199
344.072
343.895
343.679
343.437
343.181
342.924
342.68
342.483
336.678
336.845
337.056
337.278
337.5
337.71
337.897
338.05
338.16
338.217
338.217
338.16
338.05
337.897
337.71
337.5
337.278
337.056
336.845
336.678
330.935
331.073
331.251
331.439
331.626
331.804
331.962
332.092
332.185
332.233
332.233
332.185
332.092
331.962
331.804
331.626
331.439
331.251
331.073
330.935
325.244
325.355
325.5
325.654
325.807
325.952
326.082
326.188
326.264
326.303
326.303
326.264
326.188
326.082
325.952
325.807
325.654
325.5
325.355
325.244
319.595
319.68
319.793
319.912
320.032
320.145
320.245
320.328
320.387
320.417
320.417
320.387
320.328
320.245
320.145
320.032
319.912
319.793
319.68
319.595
313.979
314.04
314.12
314.205
314.291
314.371
314.443
314.502
314.544
314.566
314.566
314.544
314.502
314.443
314.371
314.291
314.205
314.12
314.04
313.979
308.388
308.424
308.472
308.523
308.574
308.623
308.666
308.701
308.727
308.74
308.74
308.727
308.701
308.666
308.623
308.574
308.523
308.472
308.424
308.388
302.81
302.822
302.838
302.855
302.873
302.889
302.903
302.915
302.924
302.928
302.928
302.924
302.915
302.903
302.889
302.873
302.855
302.838
302.822
302.81
344.026
344.209
344.436
344.673
344.907
345.128
345.324
345.485
345.598
345.658
345.658
345.598
345.485
345.324
345.128
344.907
344.673
344.436
344.209
344.026
338.009
338.164
338.359
338.564
338.767
338.959
339.129
339.268
339.366
339.418
339.418
339.366
339.268
339.129
338.959
338.767
338.564
338.359
338.164
338.009
332.055
332.184
332.349
332.522
332.694
332.856
333
333.117
333.201
333.244
333.244
333.201
333.117
333
332.856
332.694
332.522
332.349
332.184
332.055
326.157
326.26
326.395
326.537
326.677
326.81
326.927
327.024
327.092
327.127
327.127
327.092
327.024
326.927
326.81
326.677
326.537
326.395
326.26
326.157
320.303
320.383
320.487
320.597
320.707
320.81
320.901
320.976
321.029
321.057
321.057
321.029
320.976
320.901
320.81
320.707
320.597
320.487
320.383
320.303
314.484
314.541
314.615
314.694
314.772
314.845
314.911
314.964
315.002
315.022
315.022
315.002
314.964
314.911
314.845
314.772
314.694
314.615
314.541
314.484
308.69
308.724
308.768
308.816
308.863
308.907
308.946
308.978
309.001
309.013
309.013
309.001
308.978
308.946
308.907
308.863
308.816
308.768
308.724
308.69
302.911
302.923
302.938
302.953
302.969
302.984
302.997
303.008
303.016
303.02
303.02
303.016
303.008
302.997
302.984
302.969
302.953
302.938
302.923
302.911
345.716
345.886
346.095
346.313
346.527
346.728
346.905
347.05
347.152
347.205
347.205
347.152
347.05
346.905
346.728
346.527
346.313
346.095
345.886
345.716
339.465
339.609
339.79
339.978
340.164
340.338
340.492
340.617
340.705
340.751
340.751
340.705
340.617
340.492
340.338
340.164
339.978
339.79
339.609
339.465
333.282
333.402
333.554
333.713
333.87
334.017
334.148
334.253
334.328
334.367
334.367
334.328
334.253
334.148
334.017
333.87
333.713
333.554
333.402
333.282
327.157
327.253
327.377
327.507
327.636
327.756
327.863
327.949
328.011
328.042
328.042
328.011
327.949
327.863
327.756
327.636
327.507
327.377
327.253
327.157
321.079
321.152
321.249
321.35
321.45
321.544
321.627
321.694
321.742
321.766
321.766
321.742
321.694
321.627
321.544
321.45
321.35
321.249
321.152
321.079
315.037
315.089
315.158
315.23
315.302
315.369
315.428
315.476
315.51
315.528
315.528
315.51
315.476
315.428
315.369
315.302
315.23
315.158
315.089
315.037
309.022
309.053
309.094
309.138
309.181
309.221
309.256
309.285
309.306
309.316
309.316
309.306
309.285
309.256
309.221
309.181
309.138
309.094
309.053
309.022
303.022
303.033
303.047
303.061
303.076
303.089
303.101
303.111
303.118
303.121
303.121
303.118
303.111
303.101
303.089
303.076
303.061
303.047
303.033
303.022
347.553
347.71
347.902
348.102
348.297
348.479
348.639
348.768
348.86
348.907
348.907
348.86
348.768
348.639
348.479
348.297
348.102
347.902
347.71
347.553
341.048
341.181
341.347
341.52
341.689
341.847
341.985
342.098
342.177
342.218
342.218
342.177
342.098
341.985
341.847
341.689
341.52
341.347
341.181
341.048
334.615
334.726
334.866
335.012
335.155
335.288
335.406
335.501
335.568
335.603
335.603
335.568
335.501
335.406
335.288
335.155
335.012
334.866
334.726
334.615
328.243
328.332
328.446
328.566
328.683
328.792
328.888
328.966
329.021
329.049
329.049
329.021
328.966
328.888
328.792
328.683
328.566
328.446
328.332
328.243
321.921
321.989
322.078
322.171
322.262
322.347
322.422
322.482
322.525
322.547
322.547
322.525
322.482
322.422
322.347
322.262
322.171
322.078
321.989
321.921
315.638
315.686
315.749
315.816
315.881
315.941
315.995
316.038
316.069
316.084
316.084
316.069
316.038
315.995
315.941
315.881
315.816
315.749
315.686
315.638
309.382
309.411
309.449
309.489
309.528
309.564
309.596
309.622
309.641
309.65
309.65
309.641
309.622
309.596
309.564
309.528
309.489
309.449
309.411
309.382
303.143
303.153
303.165
303.179
303.192
303.204
303.215
303.224
303.23
303.233
303.233
303.23
303.224
303.215
303.204
303.192
303.179
303.165
303.153
303.143
349.534
349.679
349.855
350.037
350.214
350.379
350.523
350.639
350.72
350.763
350.763
350.72
350.639
350.523
350.379
350.214
350.037
349.855
349.679
349.534
342.755
342.878
343.03
343.188
343.342
343.484
343.609
343.709
343.78
343.817
343.817
343.78
343.709
343.609
343.484
343.342
343.188
343.03
342.878
342.755
336.053
336.154
336.283
336.416
336.546
336.667
336.772
336.858
336.918
336.949
336.949
336.918
336.858
336.772
336.667
336.546
336.416
336.283
336.154
336.053
329.415
329.496
329.601
329.71
329.817
329.915
330.002
330.072
330.121
330.146
330.146
330.121
330.072
330.002
329.915
329.817
329.71
329.601
329.496
329.415
322.829
322.892
322.973
323.058
323.141
323.218
323.285
323.339
323.378
323.397
323.397
323.378
323.339
323.285
323.218
323.141
323.058
322.973
322.892
322.829
316.285
316.329
316.387
316.448
316.507
316.562
316.61
316.649
316.676
316.69
316.69
316.676
316.649
316.61
316.562
316.507
316.448
316.387
316.329
316.285
309.77
309.797
309.832
309.868
309.903
309.936
309.965
309.989
310.005
310.013
310.013
310.005
309.989
309.965
309.936
309.903
309.868
309.832
309.797
309.77
303.273
303.282
303.294
303.306
303.318
303.329
303.338
303.346
303.352
303.355
303.355
303.352
303.346
303.338
303.329
303.318
303.306
303.294
303.282
303.273
351.651
351.784
351.946
352.112
352.273
352.421
352.55
352.654
352.727
352.765
352.765
352.727
352.654
352.55
352.421
352.273
352.112
351.946
351.784
351.651
344.578
344.691
344.831
344.975
345.114
345.242
345.355
345.445
345.508
345.54
345.54
345.508
345.445
345.355
345.242
345.114
344.975
344.831
344.691
344.578
337.587
337.68
337.798
337.92
338.038
338.146
338.241
338.318
338.371
338.399
338.399
338.371
338.318
338.241
338.146
338.038
337.92
337.798
337.68
337.587
330.664
330.739
330.835
330.935
331.031
331.12
331.198
331.261
331.304
331.327
331.327
331.304
331.261
331.198
331.12
331.031
330.935
330.835
330.739
330.664
323.797
323.855
323.93
324.007
324.082
324.152
324.212
324.261
324.295
324.312
324.312
324.295
324.261
324.212
324.152
324.082
324.007
323.93
323.855
323.797
316.975
317.016
317.069
317.124
317.178
317.227
317.271
317.305
317.33
317.342
317.342
317.33
317.305
317.271
317.227
317.178
317.124
317.069
317.016
316.975
310.184
310.208
310.24
310.273
310.306
310.335
310.361
310.382
310.397
310.404
310.404
310.397
310.382
310.361
310.335
310.306
310.273
310.24
310.208
310.184
303.412
303.42
303.43
303.442
303.452
303.462
303.471
303.478
303.483
303.486
303.486
303.483
303.478
303.471
303.462
303.452
303.442
303.43
303.42
303.412
353.883
354.006
354.154
354.305
354.451
354.585
354.701
354.794
354.859
354.892
354.892
354.859
354.794
354.701
354.585
354.451
354.305
354.154
354.006
353.883
346.497
346.601
346.729
346.86
346.986
347.102
347.203
347.284
347.34
347.369
347.369
347.34
347.284
347.203
347.102
346.986
346.86
346.729
346.601
346.497
339.199
339.285
339.393
339.504
339.611
339.709
339.794
339.862
339.91
339.935
339.935
339.91
339.862
339.794
339.709
339.611
339.504
339.393
339.285
339.199
331.975
332.044
332.132
332.223
332.31
332.391
332.461
332.517
332.556
332.576
332.576
332.556
332.517
332.461
332.391
332.31
332.223
332.132
332.044
331.975
324.812
324.865
324.934
325.004
325.072
325.135
325.189
325.233
325.263
325.279
325.279
325.263
325.233
325.189
325.135
325.072
325.004
324.934
324.865
324.812
317.697
317.735
317.784
317.834
317.883
317.928
317.966
317.998
318.019
318.031
318.031
318.019
317.998
317.966
317.928
317.883
317.834
317.784
317.735
317.697
310.617
310.639
310.668
310.699
310.728
310.755
310.778
310.797
310.81
310.817
310.817
310.81
310.797
310.778
310.755
310.728
310.699
310.668
310.639
310.617
303.557
303.564
303.574
303.584
303.594
303.603
303.611
303.617
303.621
303.624
303.624
303.621
303.617
303.611
303.603
303.594
303.584
303.574
303.564
303.557
356.176
356.289
356.424
356.563
356.695
356.816
356.92
357.004
357.062
357.092
357.092
357.062
357.004
356.92
356.816
356.695
356.563
356.424
356.289
356.176
348.459
348.555
348.672
348.792
348.906
349.011
349.102
349.175
349.225
349.251
349.251
349.225
349.175
349.102
349.011
348.906
348.792
348.672
348.555
348.459
340.84
340.92
341.019
341.12
341.217
341.306
341.383
341.444
341.487
341.509
341.509
341.487
341.444
341.383
341.306
341.217
341.12
341.019
340.92
340.84
333.305
333.369
333.45
333.533
333.612
333.685
333.748
333.798
333.834
333.852
333.852
333.834
333.798
333.748
333.685
333.612
333.533
333.45
333.369
333.305
325.839
325.888
325.951
326.015
326.077
326.134
326.183
326.222
326.249
326.263
326.263
326.249
326.222
326.183
326.134
326.077
326.015
325.951
325.888
325.839
318.427
318.461
318.506
318.552
318.596
318.637
318.672
318.7
318.72
318.73
318.73
318.72
318.7
318.672
318.637
318.596
318.552
318.506
318.461
318.427
311.053
311.074
311.1
311.128
311.155
311.179
311.2
311.217
311.229
311.235
311.235
311.229
311.217
311.2
311.179
311.155
311.128
311.1
311.074
311.053
303.702
303.709
303.718
303.728
303.737
303.745
303.752
303.757
303.761
303.763
303.763
303.761
303.757
303.752
303.745
303.737
303.728
303.718
303.709
303.702
358.386
358.49
358.615
358.742
358.863
358.973
359.068
359.144
359.196
359.223
359.223
359.196
359.144
359.068
358.973
358.863
358.742
358.615
358.49
358.386
350.328
350.416
350.524
350.634
350.739
350.835
350.918
350.983
351.029
351.053
351.053
351.029
350.983
350.918
350.835
350.739
350.634
350.524
350.416
350.328
342.387
342.46
342.552
342.645
342.734
342.815
342.886
342.941
342.98
343
343
342.98
342.941
342.886
342.815
342.734
342.645
342.552
342.46
342.387
334.547
334.606
334.681
334.757
334.83
334.897
334.954
335
335.032
335.048
335.048
335.032
335
334.954
334.897
334.83
334.757
334.681
334.606
334.547
326.79
326.836
326.894
326.953
327.01
327.062
327.107
327.143
327.167
327.18
327.18
327.167
327.143
327.107
327.062
327.01
326.953
326.894
326.836
326.79
319.098
319.131
319.172
319.215
319.255
319.292
319.325
319.35
319.368
319.377
319.377
319.368
319.35
319.325
319.292
319.255
319.215
319.172
319.131
319.098
311.453
311.472
311.497
311.523
311.547
311.57
311.589
311.604
311.615
311.62
311.62
311.615
311.604
311.589
311.57
311.547
311.523
311.497
311.472
311.453
303.836
303.843
303.851
303.859
303.868
303.875
303.882
303.887
303.89
303.892
303.892
303.89
303.887
303.882
303.875
303.868
303.859
303.851
303.843
303.836
360.127
360.226
360.343
360.462
360.575
360.678
360.766
360.837
360.885
360.91
360.91
360.885
360.837
360.766
360.678
360.575
360.462
360.343
360.226
360.127
351.744
351.827
351.929
352.033
352.132
352.221
352.298
352.36
352.402
352.424
352.424
352.402
352.36
352.298
352.221
352.132
352.033
351.929
351.827
351.744
343.523
343.592
343.679
343.767
343.851
343.927
343.992
344.045
344.081
344.099
344.099
344.081
344.045
343.992
343.927
343.851
343.767
343.679
343.592
343.523
335.437
335.493
335.563
335.636
335.704
335.767
335.821
335.864
335.894
335.909
335.909
335.894
335.864
335.821
335.767
335.704
335.636
335.563
335.493
335.437
327.459
327.502
327.557
327.613
327.667
327.716
327.758
327.791
327.815
327.826
327.826
327.815
327.791
327.758
327.716
327.667
327.613
327.557
327.502
327.459
319.564
319.594
319.634
319.674
319.713
319.748
319.778
319.802
319.818
319.827
319.827
319.818
319.802
319.778
319.748
319.713
319.674
319.634
319.594
319.564
311.728
311.746
311.77
311.794
311.817
311.839
311.857
311.871
311.881
311.886
311.886
311.881
311.871
311.857
311.839
311.817
311.794
311.77
311.746
311.728
303.927
303.934
303.941
303.95
303.957
303.964
303.971
303.975
303.979
303.98
303.98
303.979
303.975
303.971
303.964
303.957
303.95
303.941
303.934
303.927
)
;

boundaryField
{
    hotSide
    {
        type            fixedGradient;
        gradient        nonuniform List<scalar> 
400
(
384.651
386.18
389.24
393.838
399.982
407.684
416.956
427.811
440.263
454.327
470.017
487.344
506.321
526.959
549.267
573.252
598.922
626.281
655.334
686.085
388.513
390.011
393.011
397.521
403.554
411.123
420.244
430.937
443.217
457.105
472.616
489.766
508.57
529.041
551.188
575.021
600.548
627.773
656.702
687.338
392.692
394.153
397.082
401.488
407.389
414.801
423.747
434.251
446.333
460.019
475.327
492.278
510.889
531.174
553.146
576.814
602.186
629.269
658.066
688.58
397.119
398.538
401.383
405.67
411.417
418.65
427.397
437.685
449.546
463.006
478.091
494.824
513.225
533.311
555.095
578.588
603.799
630.733
659.394
689.784
401.67
403.042
405.794
409.946
415.523
422.557
431.083
441.138
452.758
465.975
480.822
497.324
515.506
535.385
556.976
580.292
605.339
632.123
660.649
690.916
406.157
407.477
410.129
414.138
419.534
426.359
434.655
444.466
455.837
468.806
483.411
499.682
517.644
537.318
558.72
581.862
606.751
633.393
661.789
691.941
410.321
411.59
414.143
418.009
423.227
429.845
437.915
447.49
458.621
471.353
485.728
501.779
519.537
539.021
560.249
583.232
607.978
634.491
662.771
692.82
413.856
415.078
417.542
421.279
426.338
432.772
440.643
450.01
460.93
473.455
487.632
503.496
521.079
540.402
561.484
584.335
608.961
635.367
663.553
693.517
416.442
417.63
420.024
423.664
428.601
434.896
442.616
451.826
462.589
474.961
488.991
504.717
522.172
541.378
562.353
585.108
609.649
635.979
664.097
694.001
417.813
418.981
421.338
424.925
429.796
436.015
443.654
452.779
463.458
475.748
489.699
505.352
522.739
541.884
562.803
585.508
610.004
636.294
664.376
694.249
417.813
418.981
421.338
424.925
429.796
436.015
443.654
452.779
463.458
475.748
489.699
505.352
522.739
541.884
562.803
585.508
610.004
636.294
664.376
694.249
416.442
417.63
420.024
423.664
428.601
434.896
442.616
451.826
462.589
474.961
488.991
504.717
522.172
541.378
562.353
585.108
609.649
635.979
664.097
694.001
413.856
415.078
417.542
421.279
426.338
432.772
440.643
450.01
460.93
473.455
487.632
503.496
521.079
540.402
561.484
584.335
608.961
635.367
663.553
693.517
410.321
411.59
414.143
418.009
423.227
429.845
437.915
447.49
458.621
471.353
485.728
501.779
519.537
539.021
560.249
583.232
607.978
634.491
662.771
692.82
406.157
407.477
410.129
414.138
419.534
426.359
434.655
444.466
455.837
468.806
483.411
499.682
517.644
537.318
558.72
581.862
606.751
633.393
661.789
691.941
401.67
403.042
405.794
409.946
415.523
422.557
431.083
441.138
452.758
465.975
480.822
497.324
515.506
535.385
556.976
580.292
605.339
632.123
660.649
690.916
397.119
398.538
401.383
405.67
411.417
418.65
427.397
437.685
449.546
463.006
478.091
494.824
513.225
533.311
555.095
578.588
603.799
630.733
659.394
689.784
392.692
394.153
397.082
401.488
407.389
414.801
423.747
434.251
446.333
460.019
475.327
492.278
510.889
531.174
553.146
576.814
602.186
629.269
658.066
688.58
388.513
390.011
393.011
397.521
403.554
411.123
420.244
430.937
443.217
457.105
472.616
489.766
508.57
529.041
551.188
575.021
600.548
627.773
656.702
687.338
384.651
386.18
389.24
393.838
399.982
407.684
416.956
427.811
440.263
454.327
470.017
487.344
506.321
526.959
549.267
573.252
598.922
626.281
655.334
686.085
)
;
    }
    coldSide
    {
        type            mixed;
        refValue        uniform 300;
        refGradient     uniform 0;
        valueFraction   uniform 0.991591;
        source          uniform 0;
        value           nonuniform List<scalar> 
400
(
300.019
300.02
300.02
300.02
300.02
300.021
300.021
300.022
300.022
300.023
300.024
300.024
300.025
300.026
300.028
300.029
300.03
300.031
300.032
300.033
300.02
300.02
300.02
300.02
300.02
300.021
300.021
300.022
300.022
300.023
300.024
300.025
300.026
300.027