/*--------------------------------*- C++ -*----------------------------------*\
| =========                 |                                                 |
| \\      /  F ield         | OpenFOAM: The Open Source CFD Toolbox           |
|  \\    /   O peration     | Version:  2212                                  |
|   \\  /    A nd           | Website:  www.openfoam.com                      |
|    \\/     M anipulation  |                                                 |
\*---------------------------------------------------------------------------*/
FoamFile
{
    version     2.0;
    format      ascii;
    arch        "LSB;label=32;scalar=64";
    class       volScalarField;
    location    "0";
    object      T;
}
// * * * * * * * * * * * * * * * * * * * * * * * * * * * * * * * * * * * * * //

dimensions      [0 0 0 1 0 0 0];

internalField   nonuniform List<scalar> 
3200
(
343.153
343.829
344.964
345.806
346.496
346.953
347.725
347.673
348.108
348.24
347.975
347.852
347.573
347.249
346.249
345.487
344.903
343.96
342.882
342.013
337.546
338.128
339.114
339.824
340.372
340.752
341.46
341.382
341.76
341.935
341.658
341.565
341.315
341.057
340.213
339.485
339.053
338.235
337.243
336.549
331.862
332.363
333.213
333.762
334.204
334.564
335.167
335.071
335.402
335.578
335.348
335.241
335.021
334.781
334.077
333.467
333.136
332.381
331.571
331.033
326.141
326.561
327.234
327.693
328.049
328.33
328.817
328.748
328.973
329.144
328.975
328.885
328.719
328.498
327.925
327.419
327.206
326.516
325.912
325.49
320.382
320.672
321.256
321.564
321.849
322.092
322.431
322.45
322.572
322.705
322.578
322.486
322.387
322.193
321.761
321.318
321.209
320.66
320.211
319.892
314.587
314.795
315.179
315.448
315.613
315.813
316.055
316.102
316.148
316.252
316.146
316.098
316
315.905
315.594
315.247
315.206
314.783
314.468
314.22
308.768
308.868
309.105
309.286
309.355
309.475
309.654
309.705
309.679
309.743
309.693
309.7
309.607
309.58
309.4
309.128
309.187
308.91
308.715
308.561
302.926
302.985
303.055
303.098
303.139
303.181
303.257
303.287
303.24
303.248
303.228
303.261
303.236
303.219
303.16
303.057
303.106
302.99
302.931
302.86
344.163
344.866
345.985
347
347.654
348.213
348.792
348.823
349.18
349.194
349.173
349.134
348.741
348.375
347.604
346.706
345.828
345.009
343.908
342.861
338.36
338.959
339.893
340.82
341.336
341.815
342.387
342.351
342.714
342.688
342.643
342.598
342.247
341.979
341.306
340.504
339.745
339.011
338.095
337.214
332.53
333.028
333.815
334.589
335
335.414
335.911
335.904
336.199
336.137
336.087
336.093
335.757
335.58
334.984
334.332
333.68
333.056
332.283
331.543
326.658
327.056
327.705
328.364
328.635
329.036
329.39
329.444
329.648
329.608
329.522
329.566
329.26
329.139
328.674
328.122
327.598
327.09
326.453
325.884
320.802
321.073
321.592
322.115
322.285
322.664
322.921
322.958
323.082
323.066
322.994
323.013
322.767
322.712
322.351
321.849
321.541
321.097
320.568
320.176
314.915
315.07
315.458
315.845
315.932
316.231
316.387
316.456
316.531
316.532
316.45
316.476
316.258
316.215
315.979
315.599
315.451
315.073
314.721
314.399
309.007
309.06
309.278
309.543
309.537
309.768
309.85
309.898
309.924
309.929
309.912
309.926
309.744
309.714
309.626
309.37
309.331
309.039
308.874
308.638
303.038
303.034
303.104
303.199
303.21
303.288
303.3
303.301
303.322
303.323
303.333
303.311
303.249
303.257
303.247
303.143
303.144
303.02
302.979
302.895
345.385
346.137
347.219
348.397
349.03
349.781
350.161
350.383
350.625
350.949
350.814
350.527
350.379
349.696
349.097
348.304
347.318
346.244
345.302
344.297
339.402
340
340.949
341.997
342.486
343.136
343.506
343.702
343.92
344.187
344.027
343.803
343.646
343.093
342.576
341.885
341.023
340.052
339.286
338.374
333.401
333.865
334.695
335.597
335.947
336.494
336.833
337.005
337.199
337.468
337.266
337.069
336.947
336.483
336.054
335.44
334.713
333.905
333.243
332.455
327.439
327.734
328.443
329.156
329.369
329.871
330.15
330.281
330.49
330.699
330.498
330.335
330.237
329.877
329.536
329.037
328.406
327.79
327.206
326.556
321.4
321.601
322.136
322.707
322.819
323.241
323.464
323.548
323.781
323.948
323.697
323.636
323.503
323.265
322.993
322.608
322.129
321.627
321.175
320.652
315.326
315.419
315.855
316.225
316.274
316.622
316.754
316.867
317.027
317.151
316.914
316.909
316.764
316.654
316.45
316.132
315.837
315.465
315.163
314.743
309.249
309.243
309.564
309.742
309.772
309.987
310.041
310.135
310.24
310.308
310.151
310.179
310.061
309.987
309.887
309.666
309.517
309.291
309.129
308.861
303.099
303.109
303.223
303.267
303.249
303.359
303.353
303.386
303.437
303.466
303.404
303.41
303.37
303.347
303.294
303.245
303.203
303.11
303.051
302.973
346.986
347.848
349.003
350.057
350.586
351.308
351.773
352.076
352.303
352.451
352.193
352.065
351.896
351.208
350.666
349.939
348.818
347.841
346.72
345.715
340.798
341.512
342.496
343.426
343.872
344.465
344.925
345.16
345.319
345.465
345.219
345.103
344.978
344.393
343.924
343.274
342.34
341.538
340.555
339.651
334.594
335.179
335.991
336.775
337.177
337.668
338.102
338.235
338.348
338.463
338.245
338.168
338.073
337.583
337.195
336.63
335.875
335.218
334.367
333.554
328.377
328.817
329.449
330.135
330.407
330.901
331.241
331.274
331.392
331.488
331.299
331.255
331.139
330.814
330.478
330
329.4
328.874
328.14
327.461
322.105
322.441
322.932
323.447
323.61
324.064
324.307
324.308
324.406
324.538
324.368
324.3
324.271
324
323.748
323.343
322.881
322.506
321.909
321.408
315.827
316.064
316.392
316.735
316.851
317.209
317.363
317.37
317.424
317.575
317.405
317.309
317.352
317.162
317.012
316.679
316.401
316.119
315.659
315.317
309.503
309.603
309.85
310.036
310.124
310.324
310.413
310.435
310.437
310.552
310.452
310.382
310.43
310.265
310.245
309.996
309.897
309.665
309.39
309.216
303.183
303.194
303.299
303.36
303.394
303.454
303.483
303.501
303.512
303.519
303.494
303.499
303.486
303.423
303.44
303.345
303.324
303.23
303.146
303.09
348.266
349.395
350.667
351.476
352.255
352.897
353.542
353.848
353.965
354.154
354.04
353.89
353.411
353.011
352.225
351.604
350.324
349.333
348.269
347.027
341.865
342.84
343.985
344.605
345.312
345.881
346.414
346.696
346.798
346.939
346.853
346.697
346.299
345.968
345.272
344.718
343.586
342.766
341.865
340.805
335.436
336.253
337.232
337.798
338.34
338.869
339.302
339.569
339.671
339.722
339.622
339.492
339.217
338.938
338.329
337.888
336.832
336.227
335.463
334.535
329.045
329.696
330.477
330.97
331.354
331.844
332.174
332.397
332.505
332.53
332.41
332.289
332.08
331.867
331.422
330.987
330.107
329.67
329.039
328.28
322.687
323.137
323.737
324.104
324.395
324.755
325.038
325.193
325.287
325.307
325.193
325.105
324.92
324.793
324.521
324.108
323.459
323.096
322.59
322.028
316.266
316.567
316.973
317.208
317.458
317.692
317.91
318.011
318.053
318.097
317.972
317.935
317.774
317.749
317.552
317.187
316.784
316.53
316.134
315.761
309.793
309.969
310.201
310.325
310.517
310.596
310.807
310.798
310.842
310.887
310.803
310.757
310.645
310.672
310.566
310.303
310.114
309.938
309.677
309.507
303.29
303.324
303.421
303.441
303.52
303.544
303.633
303.607
303.627
303.677
303.61
303.601
303.569
303.578
303.53
303.439
303.401
303.331
303.228
303.202
349.815
350.94
352.12
353.193
353.922
354.412
355.057
355.284
355.589
355.792
355.811
355.419
355.11
354.569
353.886
353.114
351.907
350.791
349.65
348.499
343.176
344.179
345.204
346.146
346.723
347.154
347.719
347.949
348.17
348.393
348.338
348.026
347.748
347.32
346.709
346.06
344.957
344.053
343.066
342.069
336.561
337.409
338.265
339.087
339.549
339.908
340.388
340.645
340.823
340.953
340.89
340.632
340.382
340.018
339.525
339.002
338.032
337.299
336.503
335.605
329.936
330.645
331.321
331.997
332.387
332.699
333.108
333.334
333.429
333.53
333.463
333.246
333.014
332.74
332.357
331.921
331.104
330.529
329.914
329.154
323.307
323.857
324.394
324.909
325.249
325.462
325.802
325.937
326.044
326.105
326.04
325.88
325.645
325.501
325.188
324.786
324.2
323.757
323.274
322.697
316.679
317.074
317.449
317.798
318.045
318.201
318.432
318.542
318.65
318.664
318.571
318.517
318.3
318.218
318.04
317.68
317.305
316.98
316.639
316.2
310.068
310.295
310.509
310.688
310.859
310.934
311.058
311.168
311.253
311.199
311.15
311.175
310.987
310.945
310.857
310.601
310.429
310.229
309.978
309.703
303.383
303.462
303.521
303.584
303.664
303.665
303.705
303.759
303.78
303.762
303.729
303.745
303.686
303.663
303.649
303.544
303.499
303.444
303.346
303.246
351.09
352.387
353.554
354.429
355.481
356.047
357.008
357.053
357.295
357.276
357.352
357.01
356.8
355.982
355.16
354.449
353.363
352.37
350.99
349.886
344.299
345.418
346.453
347.204
348.078
348.59
349.448
349.415
349.627
349.627
349.673
349.414
349.246
348.519
347.838
347.192
346.267
345.375
344.215
343.308
337.507
338.458
339.377
339.989
340.681
341.097
341.875
341.838
341.983
341.982
341.994
341.822
341.678
341.065
340.503
339.917
339.165
338.362
337.415
336.724
330.709
331.477
332.219
332.694
333.273
333.617
334.278
334.279
334.324
334.347
334.356
334.269
334.102
333.568
333.162
332.656
332.076
331.385
330.615
330.098
323.896
324.491
325.063
325.458
325.833
326.148
326.679
326.688
326.677
326.714
326.747
326.654
326.531
326.141
325.786
325.36
324.965
324.426
323.834
323.4
317.078
317.524
317.896
318.208
318.452
318.709
319.075
319.092
319.055
319.109
319.171
319.019
318.958
318.657
318.437
318.094
317.85
317.512
317.051
316.726
310.257
310.548
310.752
310.956
311.074
311.252
311.485
311.515
311.45
311.498
311.517
311.397
311.389
311.197
311.109
310.847
310.762
310.554
310.24
310.03
303.453
303.542
303.597
303.683
303.697
303.774
303.822
303.856
303.842
303.874
303.854
303.823
303.809
303.759
303.722
303.632
303.616
303.555
303.429
303.358
352.365
353.704
354.802
355.806
356.807
357.572
358.427
358.593
358.737
358.885
358.978
358.641
358.21
357.531
356.667
355.879
354.821
353.54
352.371
351.308
345.438
346.563
347.549
348.346
349.269
349.928
350.64
350.813
350.89
351.053
351.14
350.828
350.44
349.836
349.087
348.4
347.532
346.426
345.411
344.493
338.543
339.428
340.288
340.907
341.753
342.248
342.848
343.001
343.02
343.182
343.32
343.004
342.685
342.198
341.543
340.952
340.252
339.29
338.437
337.646
331.576
332.262
332.97
333.463
334.244
334.622
335.035
335.257
335.195
335.309
335.498
335.193
334.886
334.536
334.019
333.521
332.959
332.186
331.498
330.772
324.536
325.12
325.619
326.001
326.642
326.989
327.246
327.482
327.364
327.465
327.632
327.365
327.13
326.865
326.518
326.113
325.64
325.021
324.501
323.937
317.552
317.973
318.301
318.578
319.06
319.31
319.461
319.647
319.571
319.661
319.773
319.491
319.391
319.231
318.976
318.679
318.323
317.845
317.493
317.115
310.572
310.832
310.986
311.161
311.455
311.597
311.703
311.787
311.761
311.816
311.886
311.681
311.646
311.548
311.403
311.232
311.028
310.7
310.478
310.31
303.543
303.626
303.693
303.747
303.84
303.867
303.92
303.951
303.939
303.955
303.973
303.92
303.901
303.869
303.809
303.76
303.693
303.597
303.525
303.459
353.744
354.874
356.227
357.483
358.342
358.849
359.622
360
360.416
360.406
360.327
360.078
359.473
359.018
357.965
357.16
355.999
354.914
353.627
352.358
346.678
347.569
348.763
349.847
350.567
351.006
351.677
351.966
352.369
352.315
352.339
352.075
351.526
351.131
350.203
349.569
348.54
347.581
346.457
345.424
339.568
340.253
341.269
342.198
342.792
343.196
343.763
343.971
344.323
344.247
344.313
344.045
343.615
343.268
342.467
341.95
341.098
340.258
339.313
338.446
332.417
332.908
333.754
334.516
335.025
335.357
335.797
335.979
336.26
336.225
336.28
336.02
335.71
335.445
334.753
334.349
333.623
332.944
332.202
331.473
325.243
325.563
326.248
326.812
327.311
327.501
327.862
328.02
328.197
328.171
328.224
328.012
327.831
327.623
327.046
326.768
326.125
325.588
325.055
324.46
318.024
318.26
318.754
319.142
319.551
319.645
319.951
320.048
320.172
320.139
320.174
320.038
319.904
319.73
319.347
319.149
318.677
318.286
317.892
317.485
310.852
310.986
311.265
311.47
311.735
311.827
312.003
312.023
312.097
312.104
312.1
312.055
311.966
311.877
311.628
311.516
311.218
310.964
310.738
310.469
303.666
303.685
303.787
303.818
303.926
303.962
304.007
304.042
304.053
304.057
304.052
304.055
304.023
303.971
303.899
303.87
303.775
303.662
303.594
303.507
354.978
355.965
357.315
358.801
359.567
360.235
360.714
361.307
361.569
361.677
361.626
361.248
360.927
360.156
359.265
358.313
357.386
356.042
354.621
353.478
347.732
348.489
349.679
351.008
351.616
352.2
352.636
353.13
353.36
353.461
353.413
353.05
352.743
352.113
351.328
350.522
349.725
348.565
347.345
346.378
340.46
341.068
342.076
343.176
343.703
344.158
344.555
344.939
345.166
345.247
345.226
344.841
344.601
344.096
343.435
342.766
342.073
341.135
340.068
339.262
333.122
333.618
334.419
335.325
335.801
336.142
336.47
336.789
336.95
337.018
336.978
336.653
336.507
336.078
335.577
334.992
334.42
333.645
332.79
332.111
325.789
326.149
326.785
327.437
327.854
328.092
328.409
328.603
328.727
328.831
328.72
328.495
328.431
328.079
327.72
327.235
326.772
326.18
325.497
325.031
318.484
318.663
319.128
319.56
319.915
320.09
320.356
320.439
320.549
320.607
320.488
320.357
320.316
320.079
319.838
319.478
319.076
318.744
318.207
317.919
311.139
311.208
311.483
311.733
311.996
312.084
312.247
312.278
312.327
312.381
312.332
312.222
312.209
312.063
311.943
311.731
311.421
311.284
310.948
310.776
303.749
303.74
303.843
303.942
304.016
304.018
304.104
304.118
304.137
304.135
304.132
304.098
304.076
304.061
304.004
303.936
303.843
303.783
303.677
303.604
356.055
357.295
358.482
359.887
360.704
361.514
362.17
362.539
362.721
362.897
362.995
362.494
362.129
361.306
360.442
359.488
358.476
357.11
355.806
354.533
348.614
349.629
350.715
351.949
352.581
353.374
353.856
354.186
354.341
354.49
354.648
354.125
353.889
353.121
352.379
351.559
350.652
349.539
348.357
347.328
341.163
341.959
342.882
344.036
344.521
345.183
345.561
345.823
345.946
346.092
346.248
345.745
345.623
345.001
344.314
343.633
342.856
341.933
340.93
340.098
333.716
334.348
335.095
336.051
336.449
337.003
337.275
337.492
337.57
337.694
337.835
337.41
337.336
336.83
336.221
335.711
335.12
334.363
333.493
332.824
326.244
326.709
327.299
328.079
328.322
328.805
328.997
329.165
329.214
329.309
329.399
329.113
329.033
328.641
328.191
327.761
327.341
326.779
326.065
325.561
318.713
319.099
319.514
320.084
320.242
320.622
320.718
320.848
320.874
320.97
321.031
320.81
320.77
320.489
320.19
319.824
319.518
319.167
318.632
318.25
311.222
311.491
311.698
312.094
312.157
312.398
312.44
312.514
312.535
312.591
312.674
312.506
312.499
312.337
312.151
311.892
311.692
311.512
311.209
310.958
303.747
303.844
303.903
304.045
304.073
304.146
304.17
304.184
304.199
304.224
304.268
304.188
304.196
304.128
304.09
303.982
303.92
303.86
303.735
303.668
357.075
358.379
359.547
360.942
361.751
362.529
363.119
363.824
363.965
364.196
364.073
363.579
363.399
362.381
361.56
360.647
359.567
358.293
356.822
355.657
349.54
350.614
351.64
352.805
353.539
354.205
354.696
355.313
355.432
355.627
355.553
355.065
354.943
354.023
353.343
352.519
351.604
350.528
349.274
348.225
341.951
342.86
343.72
344.747
345.328
345.883
346.251
346.798
346.831
347.091
347.072
346.57
346.48
345.707
345.153
344.405
343.671
342.804
341.723
340.867
334.372
335.109
335.81
336.602
337.071
337.554
337.85
338.266
338.296
338.587
338.552
338.125
338.024
337.433
336.938
336.346
335.722
335.071
334.114
333.518
326.778
327.281
327.893
328.453
328.814
329.206
329.453
329.746
329.806
330.025
330.001
329.694
329.604
329.158
328.754
328.289
327.75
327.287
326.548
326.104
319.134
319.529
319.889
320.335
320.599
320.868
321.03
321.239
321.287
321.482
321.471
321.258
321.192
320.827
320.555
320.204
319.794
319.501
318.934
318.63
311.507
311.715
311.885
312.239
312.381
312.557
312.627
312.765
312.76
312.92
312.911
312.798
312.752
312.497
312.33
312.112
311.884
311.722
311.357
311.161
303.857
303.915
303.96
304.103
304.156
304.23
304.23
304.292
304.275
304.343
304.322
304.29
304.291
304.173
304.13
304.038
304.004
303.922
303.793
303.736
357.89
359.402
360.664
362.095
362.711
363.699
364.39
364.856
364.941
365.111
365.014
364.581
364.222
363.612
362.849
361.718
360.692
359.248
357.813
356.502
350.258
351.529
352.604
353.84
354.353
355.214
355.838
356.211
356.275
356.426
356.387
355.92
355.665
355.09
354.464
353.504
352.631
351.34
350.15
348.988
342.55
343.637
344.524
345.554
346.017
346.718
347.284
347.548
347.636
347.753
347.744
347.319
347.141
346.56
346.099
345.324
344.529
343.447
342.453
341.481
334.884
335.73
336.454
337.304
337.685
338.252
338.697
338.936
339.004
339.061
339.093
338.737
338.601
338.053
337.742
337.143
336.428
335.58
334.754
333.95
327.149
327.794
328.404
329.029
329.327
329.762
330.109
330.3
330.337
330.377
330.387
330.125
330.027
329.597
329.348
328.909
328.33
327.703
327.071
326.433
319.393
319.839
320.28
320.767
320.953
321.249
321.497
321.657
321.676
321.697
321.73
321.541
321.446
321.16
320.934
320.66
320.216
319.811
319.385
318.914
311.62
311.875
312.156
312.478
312.609
312.762
312.912
313.002
312.992
313.008
313.052
312.938
312.884
312.716
312.566
312.425
312.158
311.9
311.654
311.395
303.91
303.964
304.072
304.169
304.239
304.291
304.337
304.37
304.352
304.357
304.363
304.342
304.315
304.269
304.232
304.169
304.053
303.989
303.903
303.828
358.928
360.241
361.535
362.728
363.734
364.629
365.429
365.852
365.862
366.104
365.955
365.914
365.348
364.515
363.504
362.798
361.397
360.139
358.681
357.354
351.089
352.267
353.36
354.431
355.257
355.977
356.698
357.027
357.079
357.312
357.147
357.149
356.637
355.9
355.022
354.416
353.212
352.122
350.838
349.758
343.251
344.299
345.175
346.115
346.755
347.337
347.991
348.25
348.305
348.545
348.395
348.36
347.934
347.291
346.556
346.052
344.988
344.07
343.001
342.113
335.437
336.301
336.961
337.699
338.25
338.757
339.276
339.485
339.525
339.777
339.662
339.545
339.257
338.682
338.083
337.674
336.806
336.039
335.13
334.491
327.597
328.271
328.798
329.281
329.764
330.167
330.58
330.743
330.711
330.986
330.891
330.739
330.567
330.057
329.601
329.302
328.641
328.017
327.299
326.85
319.744
320.228
320.574
320.938
321.271
321.563
321.856
321.981
321.959
322.175
322.076
321.945
321.864
321.467
321.147
320.927
320.468
319.991
319.472
319.201
311.867
312.151
312.37
312.591
312.749
312.945
313.125
313.243
313.217
313.308
313.263
313.195
313.111
312.847
312.708
312.616
312.331
311.983
311.712
311.549
303.989
304.069
304.157
304.235
304.265
304.354
304.409
304.421
304.434
304.461
304.445
304.421
304.371
304.29
304.264
304.241
304.132
304.012
303.927
303.89
359.551
360.982
362.202
363.327
364.593
365.304
366.07
366.553
366.898
367.062
366.799
366.643
366.235
365.384
364.374
363.432
362.116
360.859
359.122
358.148
351.663
352.89
353.925
354.875
355.978
356.567
357.226
357.672
357.969
358.095
357.884
357.773
357.394
356.684
355.813
354.963
353.827
352.743
351.23
350.405
343.758
344.831
345.619
346.446
347.375
347.871
348.385
348.78
349.027
349.098
349.013
348.9
348.61
347.96
347.253
346.515
345.552
344.61
343.36
342.647
335.838
336.727
337.354
338.006
338.774
339.148
339.585
339.898
340.101
340.152
340.107
339.986
339.779
339.249
338.701
338.083
337.285
336.484
335.462
334.922
327.859
328.603
329.05
329.609
330.151
330.466
330.807
331.049
331.198
331.26
331.242
331.141
330.971
330.533
330.106
329.631
329.005
328.36
327.58
327.152
319.866
320.455
320.787
321.188
321.533
321.808
321.993
322.252
322.328
322.341
322.338
322.239
322.147
321.798
321.505
321.184
320.689
320.277
319.718
319.367
311.959
312.302
312.522
312.765
312.935
313.104
313.211
313.393
313.406
313.429
313.427
313.334
313.289
313.079
312.93
312.729
312.4
312.195
311.867
311.594
304.013
304.129
304.224
304.286
304.325
304.396
304.433
304.496
304.49
304.496
304.512
304.468
304.432
304.345
304.304
304.262
304.15
304.095
303.975
303.872
360.274
361.635
362.724
363.94
365.342
366.252
366.907
367.15
367.575
367.52
367.626
367.294
366.647
365.902
365.203
363.875
362.897
361.477
359.815
358.529
352.281
353.445
354.341
355.372
356.681
357.429
358.009
358.161
358.517
358.478
358.602
358.336
357.765
357.05
356.536
355.308
354.502
353.261
351.818
350.712
344.31
345.241
346.023
346.86
348.008
348.591
349.07
349.2
349.507
349.426
349.57
349.346
348.875
348.242
347.838
346.768
346.123
345.066
343.856
342.91
336.347
337.069
337.668
338.352
339.312
339.756
340.14
340.286
340.502
340.424
340.556
340.325
340.005
339.446
339.133
338.232
337.76
336.85
335.916
335.099
328.327
328.888
329.314
329.839
330.582
330.95
331.263
331.362
331.518
331.442
331.554
331.366
331.136
330.659
330.408
329.721
329.413
328.693
327.976
327.285
320.276
320.673
320.966
321.335
321.881
322.181
322.388
322.417
322.552
322.433
322.518
322.402
322.258
321.897
321.673
321.235
321.038
320.521
319.97
319.526
312.2
312.429
312.615
312.838
313.165
313.33
313.439
313.451
313.544
313.445
313.522
313.458
313.383
313.125
312.99
312.743
312.656
312.331
312.019
311.75
304.074
304.177
304.227
304.311
304.387
304.482
304.521
304.489
304.519
304.496
304.535
304.5
304.487
304.395
304.343
304.275
304.265
304.137
304.044
303.943
360.775
362.132
363.411
364.643
365.747
366.866
367.557
367.632
368.106
368.048
368.071
367.689
367.187
366.503
365.55
364.189
363.343
361.915
360.216
359.123
352.771
353.812
354.973
356.032
356.965
357.987
358.558
358.609
358.979
358.915
358.961
358.628
358.195
357.628
356.831
355.584
354.856
353.63
352.18
351.293
344.759
345.528
346.537
347.426
348.232
349.111
349.565
349.603
349.902
349.781
349.864
349.624
349.246
348.748
348.069
347.032
346.404
345.377
344.127
343.449
336.668
337.26
338.09
338.794
339.523
340.239
340.592
340.602
340.8
340.675
340.788
340.619
340.317
339.906
339.28
338.49
337.949
337.12
336.122
335.581
328.565
329.02
329.642
330.119
330.757
331.379
331.617
331.613
331.717
331.612
331.718
331.608
331.383
331.038
330.517
329.94
329.507
328.857
328.121
327.685
320.446
320.763
321.198
321.536
321.997
322.466
322.668
322.604
322.667
322.575
322.671
322.611
322.41
322.17
321.778
321.401
321.09
320.649
320.107
319.766
312.289
312.46
312.727
312.95
313.236
313.532
313.642
313.615
313.635
313.555
313.638
313.569
313.461
313.296
313.09
312.861
312.643
312.402
312.097
311.849
304.124
304.207
304.275
304.343
304.436
304.539
304.576
304.592
304.557
304.539
304.582
304.544
304.485
304.469
304.376
304.292
304.241
304.152
304.079
303.965
360.986
362.504
363.913
365.151
366.326
367.244
368.05
368.187
368.602
368.566
368.529
368.023
367.39
367.062
365.961
364.74
363.709
361.971
360.671
359.408
352.907
354.211
355.42
356.461
357.492
358.3
359.016
359.11
359.454
359.429
359.39
358.911
358.399
358.15
357.108
356.027
355.176
353.7
352.581
351.513
344.836
345.889
346.891
347.814
348.644
349.365
349.933
350.064
350.272
350.263
350.286
349.862
349.422
349.2
348.309
347.365
346.671
345.453
344.497
343.627
336.715
337.613
338.375
339.139
339.805
340.429
340.865
341.019
341.096
341.127
341.165
340.831
340.452
340.263
339.512
338.723
338.147
337.211
336.423
335.725
328.563
329.273
329.881
330.47
331.01
331.486
331.83
331.893
332
331.999
332.03
331.81
331.48
331.333
330.719
330.128
329.694
328.904
328.357
327.825
320.427
320.928
321.386
321.802
322.179
322.522
322.804
322.779
322.924
322.879
322.91
322.75
322.48
322.346
321.933
321.517
321.221
320.629
320.258
319.909
312.265
312.594
312.847
313.088
313.343
313.547
313.734
313.661
313.813
313.787
313.763
313.668
313.504
313.365
313.188
312.899
312.699
312.356
312.177
311.982
304.107
304.228
304.325
304.384
304.469
304.543
304.602
304.58
304.636
304.633
304.596
304.588
304.534
304.472
304.411
304.31
304.259
304.143
304.091
304.02
361.726
363.003
364.128
365.41
366.68
367.504
368.378
368.7
369.019
369.104
368.718
368.475
368.007
367.406
366.197
365.131
363.984
362.48
361.212
359.711
353.55
354.614
355.589
356.709
357.786
358.533
359.261
359.526
359.779
359.878
359.519
359.329
358.954
358.427
357.27
356.36
355.441
354.139
353.055
351.831
345.339
346.231
347.063
348.028
348.934
349.581
350.187
350.339
350.583
350.674
350.349
350.2
349.892
349.412
348.445
347.687
346.931
345.757
344.897
343.91
337.092
337.884
338.536
339.355
340.078
340.631
341.077
341.174
341.422
341.439
341.208
341.108
340.829
340.44
339.621
338.972
338.391
337.402
336.715
335.994
328.835
329.502
330.009
330.637
331.248
331.667
331.973
332.084
332.214
332.201
332.059
332.045
331.756
331.475
330.834
330.291
329.876
329.085
328.552
328.034
320.587
321.079
321.459
321.909
322.347
322.662
322.847
322.935
323.04
323.033
322.928
322.911
322.699
322.511
322.008
321.651
321.341
320.75
320.355
320.047
312.348
312.665
312.89
313.125
313.418
313.636
313.751
313.761
313.845
313.834
313.762
313.732
313.615
313.47
313.202
313.01
312.795
312.451
312.196
312.026
304.132
304.242
304.312
304.401
304.497
304.571
304.612
304.614
304.617
304.637
304.607
304.592
304.566
304.517
304.418
304.363
304.284
304.163
304.095
304.021
361.647
363.103
364.481
365.68
366.803
367.779
368.519
368.741
369.147
369.328
369.011
368.803
368.362
367.563
366.548
365.337
363.932
362.672
361.261
359.86
353.508
354.698
355.894
356.938
357.881
358.749
359.382
359.543
359.911
360.039
359.826
359.642
359.23
358.532
357.59
356.541
355.431
354.271
353.03
351.944
345.34
346.319
347.336
348.204
349.007
349.714
350.228
350.366
350.712
350.767
350.655
350.486
350.112
349.516
348.702
347.817
346.928
345.912
344.843
344.003
337.157
337.943
338.766
339.452
340.092
340.684
341.139
341.244
341.495
341.55
341.415
341.268
340.991
340.474
339.791
339.123
338.466
337.598
336.672
336.036
328.95
329.516
330.187
330.66
331.194
331.643
332.027
332.107
332.293
332.326
332.21
332.078
331.866
331.461
330.959
330.429
329.971
329.279
328.525
328.055
320.695
321.105
321.604
321.892
322.3
322.565
322.888
322.956
323.105
323.116
322.999
322.979
322.818
322.451
322.117
321.735
321.414
320.914
320.392
320.058
312.405
312.678
313.002
313.154
313.405
313.553
313.74
313.809
313.924
313.884
313.835
313.83
313.729
313.439
313.272
313.059
312.846
312.509
312.234
312.046
304.131
304.265
304.376
304.412
304.52
304.537
304.595
304.622
304.682
304.663
304.642
304.656
304.586
304.505
304.431
304.361
304.318
304.181
304.093
304.051
)
;

boundaryField
{
    hotSide
    {
        type            fixedGradient;
        gradient        nonuniform List<scalar> 
400
(
445.271
462.363
479.164
495.597
511.587
527.058
541.938
556.152
569.63
582.305
594.11
604.986
614.875
623.726
631.491
638.129
643.606
647.893
650.967
652.813
456.91
474.483
491.758
508.656
525.102
541.017
556.325
570.951
584.823
597.871
610.027
621.228
631.418
640.54
648.549
655.4
661.058
665.494
668.684
670.612
467.336
485.34
503.041
520.359
537.215
553.529
569.223
584.221
598.447
611.831
624.303
635.799
646.259
655.628
663.856
670.901
676.724
681.295
684.59
686.594
476.486
494.87
512.947
530.634
547.85
564.516
580.551
595.876
610.415
624.095
636.847
648.603
659.303
668.889
677.313
684.529
690.498
695.19
698.58
700.651
484.309
503.019
521.417
539.42
556.947
573.914
590.241
605.847
620.655
634.59
647.581
659.561
670.467
680.241
688.833
696.196
702.292
707.088
710.56
712.691
490.765
509.744
528.407
546.672
564.454
581.671
598.239
614.077
629.107
643.254
656.443
668.608
679.685
689.615
698.347
705.832
712.034
716.917
720.458
722.638
495.823
515.012
533.883
552.352
570.334
587.746
604.503
620.523
635.728
650.039
663.385
675.695
686.906
696.959
705.8
713.382
719.666
724.619
728.214
730.434
499.461
518.8
537.819
556.435
574.56
592.111
609.004
625.154
640.484
654.914
668.371
680.785
692.093
702.233
711.153
718.805
725.149
730.151
733.786
736.035
501.665
521.094
540.202
558.904
577.115
594.749
611.722
627.951
643.354
657.855
671.379
683.856
695.221
705.414
714.381
722.075
728.455
733.487
737.146
739.412
502.433
521.889
541.025
559.755
577.992
595.653
612.651
628.904
644.332
658.855
672.4
684.897
696.281
706.491
715.473
723.181
729.573
734.615
738.282
740.555
501.765
521.188
540.291
558.989
577.195
594.825
611.794
628.018
643.418
657.916
671.437
683.912
695.275
705.466
714.432
722.125
728.505
733.537
737.196
739.463
499.673
519.002
538.012
556.618
574.735
592.278
609.162
625.306
640.628
655.052
668.504
680.914
692.217
702.355
711.272
718.923
725.266
730.268
733.903
736.153
496.173
515.348
534.206
552.662
570.633
588.033
604.779
620.789
635.984
650.288
663.626
675.93
687.135
697.184
706.021
713.602
719.885
724.837
728.433
730.655
491.289
510.252
528.9
547.149
564.917
582.12
598.675
614.502
629.521
643.658
656.839
668.996
680.067
689.992
698.72
706.203
712.403
717.286
720.828
723.01
485.052
503.746
522.127
540.115
557.626
574.579
590.892
606.486
621.283
635.208
648.19
660.162
671.061
680.831
689.419
696.779
702.874
707.67
711.143
713.275
477.5
495.87
513.931
531.604
548.807
565.459
581.481
596.795
611.323
624.994
637.737
649.486
660.18
669.763
678.183
685.396
691.364
696.056
699.446
701.519
468.679
486.672
504.361
521.668
538.513
554.816
570.501
585.489
599.708
613.084
625.55
637.04
647.496
656.862
665.087
672.13
677.952
682.523
685.819
687.823
458.64
476.207
493.476
510.369
526.809
542.718
558.021
572.643
586.51
599.554
611.707
622.906
633.093
642.214
650.221
657.072
662.73
667.165
670.355
672.283
447.444
464.54
481.343
497.777
513.769
529.242
544.122
558.337
571.817
584.492
596.299
607.176
617.066
625.918
633.684
640.323
645.8
650.087
653.16
655.005
435.161
451.742
468.036
483.972
499.474
514.472
528.892
542.666
555.723
567.998
579.429
589.955
599.523
608.082
615.587
621.997
627.279
631.405
634.353
636.109
)
;
    }
    coldSide
    {
        type            mixed;
        refValue        uniform 300;
        refGradient     uniform 0;
        valueFraction   uniform 0.991591;
        source          uniform 0;
        value           nonuniform List<scalar> 
400
(
300.025
300.026
300.026
300.027
300.028
300.028
300.029
300.03
300.031
300.032
300.032
300.032
300.033
300.034
300.034
300.034
300.035
300.035
300.035
300.035
300.025
300.026
300.026
300.027
300.028
300.029
300.03
300.03
300.031
300.031
300.032
300.033
300.033
300.034
300.035
300.035
300.035
300.036
300.036
300.036
300.026
300.026
300.027
300.028
300.029