/*--------------------------------*- C++ -*----------------------------------*\
| =========                 |                                                 |
| \\      /  F ield         | OpenFOAM: The Open Source CFD Toolbox           |
|  \\    /   O peration     | Version:  2212                                  |
|   \\  /    A nd           | Website:  www.openfoam.com                      |
|    \\/     M anipulation  |                                                 |
\*---------------------------------------------------------------------------*/
FoamFile
{
    version     2.0;
    format      ascii;
    arch        "LSB;label=32;scalar=64";
    class       volScalarField;
    location    "0";
    object      stateMean;
}
// * * * * * * * * * * * * * * * * * * * * * * * * * * * * * * * * * * * * * //

dimensions      [0 0 0 1 0 0 0];

internalField   nonuniform List<scalar> 
3200
(
317.412
317.653
318.037
318.243
318.464
318.663
318.815
318.925
319.09
319.062
319.127
319.079
319.054
319.038
318.925
318.805
318.667
318.514
318.244
318.045
315.282
315.407
315.733
315.948
316.075
316.353
316.442
316.543
316.616
316.728
316.667
316.658
316.687
316.668
316.464
316.387
316.228
316.1
315.922
315.695
312.949
313.145
313.367
313.548
313.719
313.857
314.008
314.028
314.207
314.219
314.189
314.151
314.138
314.13
314.05
313.925
313.802
313.597
313.496
313.304
310.678
310.835
311.021
311.203
311.237
311.386
311.505
311.613
311.598
311.693
311.694
311.61
311.647
311.552
311.515
311.45
311.341
311.22
311.1
310.927
308.295
308.374
308.526
308.695
308.772
308.886
308.968
309.005
309.057
309.094
309.124
309.144
309.067
309.081
308.987
308.924
308.854
308.727
308.629
308.476
305.996
306.144
306.09
306.204
306.264
306.338
306.457
306.444
306.513
306.527
306.471
306.545
306.477
306.447
306.485
306.481
306.359
306.296
306.183
306.111
303.557
303.674
303.736
303.779
303.842
303.886
303.878
303.961
303.854
303.905
303.914
303.883
303.9
303.865
303.922
303.87
303.793
303.771
303.716
303.715
301.257
301.253
301.255
301.289
301.23
301.283
301.286
301.372
301.276
301.302
301.329
301.337
301.323
301.305
301.278
301.299
301.31
301.231
301.198
301.194
318.033
318.338
318.533
318.933
319.051
319.21
319.547
319.591
319.791
319.849
319.85
319.761
319.807
319.731
319.635
319.554
319.35
319.046
318.85
318.58
315.727
315.946
316.179
316.439
316.615
316.827
316.952
317.117
317.248
317.298
317.272
317.257
317.248
317.124
317.036
316.91
316.805
316.668
316.387
316.152
313.314
313.531
313.78
313.943
314.189
314.319
314.419
314.558
314.546
314.631
314.659
314.626
314.634
314.529
314.488
314.379
314.291
314.063
313.9
313.661
311.031
311.132
311.343
311.475
311.593
311.767
311.839
311.889
311.98
311.971
311.98
312.006
311.971
311.951
311.925
311.812
311.688
311.555
311.317
311.223
308.597
308.743
308.823
308.988
309.065
309.175
309.219
309.324
309.291
309.379
309.427
309.365
309.373
309.329
309.282
309.191
309.089
308.91
308.862
308.738
306.06
306.246
306.34
306.425
306.438
306.605
306.545
306.684
306.644
306.66
306.709
306.669
306.669
306.676
306.645
306.621
306.535
306.449
306.334
306.25
303.693
303.772
303.758
303.909
303.939
304.022
303.951
303.962
304.109
304.001
304.007
304.06
303.988
304.029
304.033
303.952
303.941
303.866
303.805
303.81
301.223
301.181
301.287
301.28
301.302
301.386
301.32
301.362
301.372
301.354
301.332
301.298
301.34
301.315
301.375
301.299
301.341
301.213
301.227
301.267
318.812
319.188
319.458
319.687
319.994
320.285
320.396
320.613
320.697
320.741
320.706
320.777
320.793
320.728
320.609
320.453
320.182
319.942
319.652
319.469
316.375
316.638
316.92
317.211
317.411
317.638
317.796
317.872
317.973
318.063
318.024
318.067
318.066
317.879
317.828
317.68
317.527
317.314
317.084
316.956
313.932
314.209
314.408
314.622
314.799
314.907
315.098
315.256
315.226
315.252
315.333
315.339
315.323
315.25
315.15
315.016
314.889
314.693
314.474
314.356
311.388
311.645
311.841
311.981
312.147
312.22
312.403
312.397
312.561
312.556
312.539
312.666
312.55
312.496
312.377
312.372
312.147
311.995
311.866
311.716
308.937
309.052
309.237
309.401
309.44
309.558
309.68
309.697
309.803
309.784
309.774
309.779
309.731
309.704
309.682
309.566
309.492
309.38
309.221
309.076
306.426
306.397
306.588
306.695
306.784
306.806
306.864
306.961
306.976
306.971
307.004
306.986
307.04
306.962
306.931
306.874
306.8
306.709
306.61
306.495
303.939
303.879
303.951
304.008
304.082
304.101
304.224
304.138
304.217
304.18
304.213
304.202
304.166
304.192
304.158
304.136
304.103
304.07
304.006
303.966
301.367
301.275
301.347
301.35
301.409
301.288
301.361
301.395
301.313
301.359
301.361
301.368
301.415
301.398
301.446
301.347
301.352
301.366
301.334
301.3
319.745
320.082
320.416
320.677
320.944
321.182
321.397
321.599
321.72
321.723
321.815
321.789
321.828
321.686
321.465
321.353
321.206
320.979
320.679
320.402
317.169
317.499
317.759
318.005
318.274
318.468
318.649
318.776
318.856
318.88
318.966
318.941
318.934
318.824
318.674
318.519
318.404
318.104
317.923
317.68
314.559
314.776
315.023
315.301
315.44
315.677
315.796
315.925
315.979
316.05
315.991
316.051
315.941
315.977
315.953
315.716
315.55
315.352
315.209
314.958
311.987
312.068
312.331
312.528
312.764
312.797
312.959
313.078
313.162
313.158
313.171
313.157
313.11
313.008
312.983
312.967
312.677
312.602
312.401
312.272
309.344
309.514
309.695
309.75
309.916
310.019
310.111
310.115
310.223
310.269
310.31
310.254
310.248
310.223
310.112
310.126
309.935
309.837
309.698
309.571
306.651
306.744
306.831
306.996
307.019
307.191
307.224
307.238
307.276
307.347
307.389
307.334
307.329
307.327
307.185
307.207
307.075
306.963
306.912
306.818
304.007
304.029
304.134
304.286
304.245
304.255
304.415
304.389
304.349
304.397
304.427
304.428
304.322
304.34
304.356
304.347
304.271
304.247
304.068
304.081
301.38
301.386
301.431
301.441
301.354
301.398
301.423
301.417
301.425
301.486
301.48
301.462
301.43
301.451
301.544
301.46
301.457
301.433
301.454
301.428
320.636
320.948
321.296
321.674
321.968
322.314
322.438
322.606
322.756
322.806
322.889
322.785
322.848
322.762
322.615
322.462
322.219
321.915
321.66
321.298
318.01
318.237
318.513
318.896
319.113
319.293
319.498
319.659
319.71
319.737
319.83
319.925
319.759
319.722
319.598
319.506
319.296
319.009
318.784
318.475
315.279
315.557
315.705
316.068
316.204
316.423
316.552
316.653
316.82
316.863
316.854
316.841
316.82
316.699
316.635
316.477
316.323
316.089
315.949
315.69
312.54
312.747
312.949
313.099
313.283
313.49
313.603
313.697
313.781
313.772
313.826
313.796
313.79
313.711
313.57
313.466
313.305
313.241
313
312.827
309.84
309.901
310.027
310.187
310.301
310.49
310.578
310.613
310.709
310.742
310.736
310.717
310.69
310.721
310.66
310.531
310.395
310.229
310.129
310.019
306.995
307.09
307.254
307.378
307.385
307.542
307.596
307.61
307.692
307.659
307.67
307.694
307.593
307.604
307.587
307.521
307.445
307.375
307.265
307.128
304.253
304.223
304.38
304.396
304.519
304.482
304.527
304.586
304.578
304.604
304.612
304.596
304.641
304.6
304.58
304.541
304.527
304.47
304.344
304.29
301.403
301.41
301.413
301.47
301.52
301.607
301.584
301.553
301.508
301.52
301.546
301.508
301.545
301.555
301.577
301.53
301.506
301.511
301.513
301.383
321.543
321.881
322.288
322.684
322.976
323.238
323.505
323.558
323.75
323.852
323.915
323.932
323.89
323.766
323.693
323.536
323.137
322.935
322.592
322.238
318.726
319.088
319.364
319.654
319.986
320.169
320.321
320.611
320.654
320.739
320.816
320.776
320.747
320.672
320.53
320.427
320.106
319.843
319.622
319.347
315.869
316.25
316.426
316.776
316.948
317.088
317.347
317.481
317.538
317.644
317.609
317.6
317.585
317.506
317.408
317.216
317.097
316.871
316.602
316.371
312.997
313.348
313.416
313.736
313.919
314.08
314.179
314.287
314.364
314.377
314.421
314.445
314.406
314.348
314.236
314.07
313.933
313.784
313.574
313.396
310.237
310.383
310.54
310.625
310.856
310.96
311.044
311.128
311.18
311.244
311.182
311.287
311.216
311.142
311.129
311.017
310.833
310.704
310.496
310.473
307.367
307.381
307.526
307.614
307.789
307.863
307.955
308.001
308.008
307.982
308.015
308.094
308.046
308.03
307.919
307.84
307.799
307.667
307.611
307.431
304.397
304.42
304.533
304.607
304.657
304.736
304.732
304.757
304.771
304.78
304.81
304.854
304.788
304.811
304.789
304.739
304.62
304.63
304.528
304.532
301.485
301.533
301.536
301.531
301.544
301.55
301.575
301.581
301.685
301.623
301.621
301.631
301.664
301.565
301.591
301.632
301.6
301.569
301.522
301.556
322.385
322.776
323.239
323.538
323.947
324.286
324.471
324.675
324.818
324.929
324.991
324.964
324.904
324.78
324.627
324.372
324.291
323.906
323.573
323.23
319.525
319.852
320.187
320.58
320.759
321.027
321.285
321.475
321.59
321.675
321.672
321.735
321.656
321.578
321.408
321.238
321.06
320.707
320.369
320.175
316.597
316.842
317.169
317.454
317.684
317.817
318.083
318.198
318.299
318.297
318.485
318.376
318.317
318.287
318.166
317.937
317.778
317.501
317.278
317.103
313.609
313.83
314.036
314.302
314.538
314.717
314.827
314.893
315.025
315.08
315.042
315.037
315.036
315.012
314.86
314.744
314.562
314.374
314.205
313.982
310.593
310.769
311.001
311.21
311.33
311.388
311.549
311.627
311.692
311.744
311.701
311.753
311.786
311.721
311.588
311.465
311.271
311.162
310.986
310.86
307.54
307.68
307.872
308.017
308.137
308.215
308.29
308.297
308.385
308.372
308.453
308.411
308.4
308.331
308.288
308.193
308.084
308.001
307.886
307.809
304.566
304.648
304.76
304.784
304.906
304.905
304.921
304.97
304.98
304.993
305.06
304.988
305.088
305.023
304.997
304.899
304.881
304.794
304.726
304.74
301.498
301.584
301.62
301.685
301.647
301.615
301.656
301.688
301.703
301.71
301.652
301.646
301.685
301.654
301.632
301.635
301.688
301.617
301.62
301.649
323.324
323.712
324.172
324.487
324.893
325.254
325.504
325.692
325.897
325.938
326.016
325.997
325.944
325.782
325.615
325.485
325.17
324.815
324.461
324.162
320.303
320.694
321.064
321.303
321.646
321.986
322.187
322.343
322.497
322.53
322.571
322.58
322.541
322.401
322.26
322.09
321.822
321.566
321.253
320.966
317.2
317.496
317.82
318.206
318.336
318.591
318.739
318.94
319.036
319.089
319.117
319.109
319.105
318.989
318.802
318.692
318.47
318.278
317.981
317.742
314.181
314.356
314.619
314.902
315.06
315.256
315.391
315.55
315.577
315.681
315.669
315.711
315.66
315.568
315.494
315.416
315.159
314.947
314.745
314.514
311.029
311.214
311.44
311.567
311.743
311.858
311.992
312.116
312.115
312.23
312.184
312.202
312.095
312.093
312.03
311.93
311.843
311.677
311.45
311.361
307.848
308.008
308.121
308.273
308.381
308.488
308.554
308.648
308.709
308.683
308.732
308.772
308.722
308.641
308.615
308.552
308.501
308.364
308.175
308.134
304.782
304.816
305.01
304.955
305.047
305.186
305.166
305.217
305.196
305.201
305.238
305.302
305.247
305.18
305.182
305.101
305.094
305.036
304.955
304.911
301.601
301.521
301.629
301.653
301.65
301.745
301.734
301.752
301.754
301.755
301.704
301.756
301.79
301.811
301.732
301.776
301.681
301.657
301.614
301.621
324.125
324.574
325.069
325.475
325.865
326.183
326.417
326.687
326.841
326.888
326.988
327.09
326.935
326.814
326.624
326.47
326.112
325.793
325.403
325.034
321.07
321.431
321.755
322.179
322.437
322.741
322.97
323.15
323.366
323.396
323.434
323.46
323.328
323.362
323.125
322.969
322.675
322.323
322.044
321.647
317.792
318.14
318.488
318.749
319.116
319.357
319.481
319.696
319.711
319.893
319.868
319.829
319.866
319.786
319.549
319.385
319.173
318.937
318.729
318.452
314.679
314.854
315.143
315.378
315.651
315.827
315.989
316.174
316.221
316.322
316.324
316.29
316.243
316.197
316.031
315.898
315.719
315.48
315.267
315.098
311.451
311.619
311.743
312.003
312.26
312.37
312.476
312.479
312.668
312.702
312.706
312.684
312.624
312.635
312.514
312.43
312.274
312.12
311.896
311.757
308.161
308.305
308.481
308.668
308.776
308.816
309.004
309.069
309.017
309.046
309.084
309.066
309.062
309.004
308.975
308.92
308.805
308.661
308.532
308.399
304.931
305.005
305.019
305.145
305.26
305.295
305.363
305.379
305.44
305.428
305.456
305.476
305.407
305.418
305.372
305.289
305.223
305.253
305.079
305.05
301.71
301.707
301.669
301.746
301.724
301.714
301.741
301.803
301.887
301.844
301.843
301.837
301.82
301.77
301.81
301.783
301.759
301.704
301.724
301.664
324.969
325.381
325.886
326.304
326.788
327.077
327.412
327.612
327.801
327.875
327.988
327.987
327.944
327.781
327.543
327.297
327.069
326.677
326.278
325.93
321.776
322.128
322.485
322.853
323.168
323.544
323.801
324.013
324.145
324.274
324.304
324.323
324.216
324.115
324.011
323.729
323.473
323.188
322.736
322.418
318.507
318.67
319.138
319.487
319.755
319.927
320.182
320.367
320.46
320.536
320.642
320.598
320.534
320.473
320.25
320.194
319.839
319.535
319.248
319.055
315.181
315.442
315.653
315.977
316.158
316.366
316.585
316.716
316.849
316.791
316.894
316.948
316.744
316.871
316.587
316.586
316.256
316.083
315.726
315.551
311.806
312.029
312.261
312.435
312.585
312.717
312.951
313.008
313.183
313.136
313.186
313.182
313.147
313.059
312.929
312.762
312.683
312.494
312.294
312.149
308.526
308.561
308.759
308.885
309.058
309.145
309.164
309.279
309.331
309.357
309.358
309.411
309.371
309.302
309.208
309.266
309.091
308.979
308.782
308.598
305.135
305.196
305.237
305.346
305.477
305.528
305.559
305.648
305.675
305.646
305.617
305.687
305.669
305.587
305.506
305.551
305.422
305.385
305.268
305.22
301.685
301.757
301.731
301.824
301.829
301.817
301.868
301.844
301.861
301.869
301.91
301.868
301.869
301.87
301.938
301.882
301.85
301.768
301.797
301.745
325.771
326.273
326.69
327.235
327.577
327.976
328.333
328.535
328.723
328.859
328.931
328.816
328.835
328.702
328.512
328.257
327.909
327.542
327.076
326.728
322.501
322.785
323.222
323.687
324.02
324.372
324.579
324.84
324.945
325.015
325.123
325.153
325.075
324.909
324.724
324.514
324.245
323.921
323.53
323.179
318.985
319.342
319.728
320.009
320.393
320.675
320.858
321.003
321.123
321.244
321.304
321.292
321.279
321.154
320.943
320.795
320.495
320.199
319.955
319.624
315.639
315.876
316.208
316.441
316.691
316.975
317.1
317.238
317.373
317.498
317.426
317.435
317.414
317.329
317.156
317.02
316.908
316.61
316.322
316.094
312.192
312.333
312.614
312.798
313.162
313.154
313.373
313.409
313.539
313.642
313.561
313.594
313.534
313.449
313.355
313.301
313.057
312.928
312.758
312.533
308.69
308.937
309.057
309.249
309.352
309.408
309.513
309.6
309.732
309.691
309.735
309.636
309.696
309.627
309.612
309.424
309.404
309.219
309.096
308.976
305.319
305.338
305.313
305.473
305.56
305.758
305.755
305.835
305.817
305.857
305.878
305.824
305.825
305.764
305.764
305.703
305.598
305.563
305.442
305.366
301.782
301.752
301.795
301.834
301.918
301.893
301.93
301.943
301.915
302.023
301.997
301.973
302.036
301.929
301.89
301.897
301.863
301.887
301.878
301.782
326.504
327.002
327.586
328.031
328.509
328.805
329.173
329.409
329.655
329.776
329.828
329.793
329.756
329.55
329.408
329.142
328.793
328.304
327.945
327.503
323.024
323.462
323.898
324.329
324.78
325.054
325.314
325.575
325.689
325.858
325.882
325.873
325.871
325.653
325.535
325.241
325.003
324.65
324.213
323.877
319.614
319.877
320.297
320.723
320.936
321.302
321.478
321.678
321.883
321.908
321.947
321.908
321.848
321.73
321.635
321.364
321.192
320.852
320.534
320.202
316.09
316.377
316.712
316.958
317.206
317.406
317.683
317.774
317.844
317.909
317.984
317.971
317.919
317.812
317.7
317.51
317.301
317.041
316.808
316.509
312.572
312.742
312.976
313.222
313.394
313.531
313.733
313.864
313.973
313.957
314.066
314.029
313.949
313.88
313.852
313.618
313.527
313.246
313.069
312.83
308.957
309.152
309.302
309.466
309.658
309.708
309.949
309.885
310.035
310.02
310.026
309.952
309.991
309.974
309.837
309.735
309.581
309.42
309.343
309.3
305.391
305.505
305.599
305.647
305.775
305.902
305.902
305.953
306.017
306.021
305.969
306.045
305.965
305.953
305.91
305.85
305.756
305.71
305.694
305.583
301.845
301.833
301.79
301.904
301.96
301.975
301.999
302
302.036
301.99
301.999
302.037
302.054
301.973
302.011
301.928
301.895
301.939
301.909
301.765
327.311
327.765
328.251
328.759
329.275
329.603
330.003
330.257
330.43
330.587
330.636
330.557
330.54
330.366
330.186
329.92
329.536
329.183
328.636
328.208
323.665
324.105
324.59
325.051
325.457
325.803
326.024
326.259
326.465
326.547
326.62
326.591
326.526
326.38
326.235
325.913
325.594
325.268
324.921
324.52
320.069
320.479
320.853
321.174
321.531
321.893
322.069
322.331
322.447
322.513
322.5
322.586
322.487
322.362
322.28
322.055
321.722
321.432
321.155
320.738
316.562
316.781
317.131
317.394
317.692
317.876
318.138
318.301
318.412
318.414
318.481
318.476
318.459
318.333
318.117
318.041
317.825
317.566
317.293
316.987
312.82
313.131
313.387
313.577
313.731
313.981
314.15
314.248
314.301
314.38
314.407
314.353
314.37
314.305
314.181
314.053
313.869
313.618
313.387
313.273
309.24
309.345
309.563
309.767
309.926
310
310.111
310.216
310.208
310.281
310.271
310.339
310.279
310.18
310.178
310.059
309.923
309.832
309.584
309.425
305.542
305.646
305.707
305.779
305.935
305.97
306.097
306.098
306.151
306.199
306.214
306.229
306.194
306.16
306.125
305.984
305.97
305.884
305.771
305.641
301.889
301.897
301.912
301.897
301.989
301.986
302.079
302.015
301.996
301.983
301.998
302.093
302.052
302.109
302.012
302.051
301.981
301.986
301.97
301.832
327.867
328.408
328.911
329.524
329.991
330.436
330.737
330.994
331.15
331.38
331.44
331.425
331.4
331.23
330.937
330.73
330.333
329.934
329.359
328.918
324.257
324.766
325.204
325.64
326.05
326.447
326.738
326.886
327.135
327.246
327.251
327.338
327.213
327.121
326.825
326.665
326.28
325.911
325.469
325.092
320.645
320.979
321.367
321.758
322.121
322.382
322.61
322.864
322.871
323.107
323.22
323.124
323.083
322.955
322.77
322.499
322.316
322.018
321.618
321.299
316.899
317.179
317.503
317.779
318.145
318.38
318.585
318.756
318.805
318.965
319.058
318.917
318.857
318.781
318.706
318.481
318.289
317.977
317.719
317.502
313.191
313.437
313.597
313.921
314.129
314.366
314.465
314.591
314.683
314.803
314.779
314.742
314.774
314.6
314.521
314.345
314.208
314.022
313.786
313.578
309.448
309.58
309.784
309.938
310.086
310.201
310.356
310.471
310.496
310.628
310.573
310.54
310.547
310.412
310.349
310.216
310.093
309.954
309.859
309.68
305.691
305.806
305.977
305.892
306.142
306.08
306.179
306.268
306.283
306.438
306.295
306.322
306.388
306.325
306.237
306.186
306.147
306.087
305.884
305.82
301.867
301.988
301.983
302.02
302.084
302.069
302.114
302.058
302.141
302.115
302.146
302.154
302.129
302.102
302.136
302.047
302.045
301.993
301.897
301.91
328.543
329.021
329.6
330.186
330.683
331.076
331.562
331.808
331.92
332.128
332.271
332.14
332.072
331.931
331.758
331.389
331.067
330.566
330.119
329.62
324.773
325.249
325.788
326.251
326.7
327.011
327.349
327.595
327.729
327.871
327.974
327.944
327.883
327.708
327.579
327.19
326.892
326.484
326.123
325.643
321.084
321.438
321.818
322.261
322.558
322.875
323.19
323.398
323.506
323.646
323.687
323.711
323.619
323.5
323.328
323.154
322.834
322.378
322.111
321.767
317.276
317.599
317.947
318.242
318.546
318.745
318.983
319.174
319.216
319.345
319.418
319.436
319.345
319.243
319.189
318.879
318.658
318.429
318.058
317.813
313.498
313.699
313.988
314.162
314.395
314.718
314.828
314.952
315.069
315.103
315.141
315.081
315.043
315.072
314.886
314.735
314.527
314.261
314.083
313.856
309.659
309.778
309.994
310.238
310.282
310.439
310.644
310.68
310.77
310.76
310.786
310.85
310.724
310.763
310.654
310.509
310.377
310.18
310.047
309.917
305.861
305.883
306.051
306.109
306.198
306.313
306.361
306.414
306.503
306.502
306.569
306.56
306.514
306.44
306.44
306.349
306.256
306.179
306.023
306.038
301.906
301.994
301.977
302.061
302.082
302.071
302.16
302.116
302.164
302.172
302.145
302.154
302.145
302.171
302.228
302.13
302.149
302.043
302.021
301.978
329.078
329.647
330.159
330.794
331.328
331.777
332.074
332.386
332.667
332.721
332.848
332.822
332.777
332.54
332.418
331.988
331.645
331.183
330.684
330.148
325.279
325.733
326.275
326.773
327.257
327.551
327.814
328.19
328.377
328.433
328.516
328.461
328.481
328.339
328.087
327.722
327.48
326.987
326.607
326.252
321.448
321.855
322.323
322.675
323.082
323.405
323.714
323.828
323.968
324.147
324.158
324.152
324.143
323.97
323.802
323.571
323.214
322.906
322.59
322.263
317.607
317.938
318.354
318.626
318.828
319.167
319.432
319.591
319.677
319.724
319.779
319.758
319.719
319.652
319.473
319.286
319.04
318.774
318.429
318.136
313.765
313.986
314.203
314.486
314.696
314.904
315.127
315.264
315.329
315.441
315.424
315.415
315.289
315.324
315.195
314.99
314.799
314.545
314.365
314.146
309.859
310.022
310.231
310.44
310.581
310.682
310.83
310.892
311.027
310.976
311.06
311.03
310.964
310.888
310.834
310.766
310.603
310.429
310.285
310.097
305.923
306.058
306.188
306.265
306.325
306.378
306.471
306.55
306.662
306.623
306.658
306.639
306.587
306.597
306.562
306.43
306.343
306.291
306.088
306.014
301.967
301.996
302.049
302.05
302.108
302.103
302.196
302.258
302.258
302.175
302.227
302.262
302.225
302.244
302.223
302.157
302.122
302.128
302.089
302.086
329.549
330.125
330.793
331.291
331.885
332.271
332.686
332.931
333.224
333.418
333.413
333.413
333.372
333.178
332.951
332.675
332.209
331.718
331.218
330.677
325.765
326.223
326.774
327.209
327.739
328.097
328.391
328.644
328.838
328.98
329.097
329.026
328.959
328.906
328.592
328.28
327.991
327.512
327.025
326.698
321.829
322.194
322.719
323.123
323.523
323.865
324.08
324.278
324.444
324.532
324.615
324.683
324.538
324.382
324.228
323.975
323.682
323.325
322.932
322.649
317.913
318.256
318.591
318.978
319.273
319.511
319.709
319.948
319.984
320.09
320.266
320.169
320.076
320.005
319.826
319.727
319.344
319.117
318.788
318.497
313.932
314.257
314.479
314.802
314.986
315.23
315.421
315.551
315.642
315.696
315.722
315.707
315.653
315.573
315.47
315.32
315.169
314.874
314.644
314.377
310.022
310.165
310.347
310.59
310.734
310.86
310.989
311.198
311.166
311.248
311.172
311.244
311.144
311.169
311.042
310.959
310.793
310.598
310.438
310.255
306
306.064
306.238
306.407
306.46
306.562
306.595
306.699
306.642
306.737
306.743
306.716
306.683
306.67
306.722
306.522
306.438
306.357
306.294
306.196
301.998
302.057
302.141
302.191
302.123
302.186
302.176
302.239
302.287
302.285
302.276
302.327
302.352
302.323
302.225
302.273
302.136
302.12
302.118
302.016
329.996
330.624
331.244
331.865
332.326
332.779
333.205
333.492
333.732
333.858
333.933
333.978
333.894
333.68
333.474
333.142
332.745
332.187
331.683
331.244
326.009
326.586
327.139
327.669
328.102
328.539
328.847
329.062
329.324
329.504
329.494
329.465
329.372
329.305
329.066
328.741
328.303
327.929
327.501
327.075
322.178
322.587
323.019
323.411
323.866
324.202
324.432
324.632
324.837
324.938
325.048
325.005
324.994
324.818
324.553
324.302
324.021
323.739
323.336
322.881
318.141
318.495
318.851
319.222
319.548
319.817
320.006
320.218
320.356
320.477
320.514
320.513
320.376
320.375
320.156
319.883
319.687
319.346
319.082
318.747
314.161
314.416
314.781
314.989
315.213
315.491
315.56
315.863
315.945
315.894
315.929
315.933
315.866
315.78
315.635
315.532
315.397
315.142
314.768
314.55
310.154
310.354
310.554
310.683
310.912
311.058
311.121
311.246
311.36
311.43
311.377
311.452
311.32
311.347
311.195
311.123
310.89
310.765
310.586
310.429
306.097
306.179
306.424
306.546
306.543
306.644
306.704
306.785
306.796
306.905
306.855
306.887
306.796
306.807
306.707
306.725
306.595
306.491
306.377
306.303
302.077
302.073
302.161
302.212
302.164
302.2
302.204
302.189
302.271
302.214
302.274
302.338
302.197
302.24
302.269
302.207
302.179
302.168
302.165
302.069
330.317
330.868
331.602
332.246
332.804
333.228
333.663
333.923
334.183
334.324
334.437
334.368
334.33
334.185
333.937
333.574
333.138
332.595
332.023
331.617
326.322
326.935
327.465
327.956
328.479
328.906
329.246
329.494
329.715
329.847
329.862
329.805
329.755
329.644
329.429
329.044
328.752
328.302
327.807
327.323
322.368
322.805
323.326
323.78
324.135
324.544
324.719
324.986
325.14
325.283
325.348
325.385
325.23
325.095
324.926
324.557
324.283
323.932
323.509
323.195
318.404
318.642
319.107
319.43
319.796
320.071
320.269
320.447
320.591
320.66
320.736
320.755
320.693
320.6
320.385
320.259
319.917
319.591
319.284
318.991
314.262
314.613
314.837
315.219
315.441
315.654
315.81
315.909
316.112
316.081
316.078
316.172
316.087
315.982
315.9
315.706
315.471
315.277
315.008
314.773
310.225
310.404
310.605
310.845
311.01
311.151
311.33
311.394
311.528
311.59
311.543
311.508
311.493
311.464
311.323
311.265
311.086
310.907
310.702
310.552
306.165
306.248
306.46
306.576
306.644
306.685
306.817
306.817
306.914
306.945
306.988
306.923
306.939
306.915
306.811
306.719
306.661
306.532
306.484
306.363
302.026
302.073
302.092
302.172
302.182
302.237
302.309
302.275
302.263
302.298
302.391
302.357
302.307
302.309
302.269
302.22
302.266
302.215
302.158
302.2
330.587
331.212
331.888
332.458
333.038
333.562
333.886
334.164
334.445
334.611
334.723
334.689
334.612
334.436
334.176
333.822
333.394
332.864
332.297
331.759
326.678
327.098
327.679
328.218
328.659
329.083
329.466
329.715
329.905
330.013
330.125
330.114
329.979
329.856
329.686
329.269
328.986
328.565
328.064
327.518
322.609
323.02
323.482
323.929
324.26
324.624
324.931
325.203
325.379
325.406
325.438
325.472
325.495
325.3
325.07
324.89
324.482
324.091
323.746
323.371
318.506
318.831
319.307
319.58
319.934
320.228
320.427
320.671
320.809
320.881
320.914
320.88
320.769
320.736
320.564
320.346
320.112
319.792
319.436
319.092
314.505
314.685
315.034
315.288
315.545
315.733
315.888
316.089
316.228
316.268
316.316
316.226
316.18
316.172
316.093
315.797
315.59
315.342
315.109
314.827
310.308
310.5
310.762
310.891
311.058
311.251
311.356
311.489
311.562
311.538
311.686
311.641
311.612
311.519
311.37
311.31
311.189
310.922
310.826
310.645
306.167
306.303
306.468
306.559
306.675
306.798
306.861
306.884
306.909
307.006
307.026
306.995
307.034
306.922
306.879
306.868
306.676
306.638
306.472
306.365
302.046
302.107
302.136
302.226
302.222
302.259
302.272
302.335
302.296
302.346
302.369
302.345
302.291
302.297
302.306
302.262
302.174
302.161
302.161
302.121
)
;

boundaryField
{
    hotSide
    {
        type            fixedGradient;
        gradient        nonuniform List<scalar> 
400
(
321.511
322.87
325.591
329.677
335.133
341.965
350.181
359.788
370.794
383.208
397.037
412.289
428.971
447.088
466.647
487.651
510.105
534.011
559.372
586.191
323.738
325.08
327.767
331.802
337.194
343.949
352.078
361.591
372.498
384.81
398.537
413.687
430.268
448.289
467.755
488.672
511.043
534.872
560.161
586.913
326.149
327.47
330.116
334.091
339.406
346.071
354.099
363.503
374.296
386.491
400.101
415.136
431.606
449.52
468.885
489.706
511.988
535.735
560.948
587.63
328.704
330
332.597
336.503
341.73
348.292
356.205
365.485
376.15
388.215
401.695
416.604
432.954
450.753
470.009
490.73
512.919
536.579
561.714
588.325
331.33
332.599
335.142
338.97
344.099
350.546
358.332
367.477
378.003
389.928
403.271
418.047
434.27
451.949
471.095
491.712
513.807
537.382
562.439
588.978
333.918
335.158
337.643
341.389
346.414
352.74
360.392
369.397
379.779
391.562
404.765
419.407
435.503
453.065
472.101
492.618
514.622
538.114
563.096
589.569
336.321
337.531
339.959
343.622
348.544
354.751
362.274
371.142
381.385
393.031
406.101
420.618
436.595
454.047
472.983
493.409
515.33
538.747
563.663
590.076
338.36
339.543
341.92
345.509
350.339
356.44
363.847
372.595
382.718
394.244
407.2
421.608
437.485
454.844
473.695
494.045
515.897
539.253
564.114
590.478
339.852
341.015
343.352
346.885
351.645
357.665
364.985
373.643
383.675
395.113
407.984
422.312
438.116
455.407
474.197
494.491
516.294
539.606
564.428
590.758
340.643
341.795
344.11
347.613
352.334
358.311
365.584
374.193
384.176
395.567
408.393
422.679
438.443
455.699
474.456
494.722
516.498
539.788
564.589
590.901
340.643
341.795
344.11
347.613
352.334
358.311
365.584
374.193
384.176
395.567
408.393
422.679
438.443
455.699
474.456
494.722
516.498
539.788
564.589
590.901
339.852
341.015
343.352
346.885
351.645
357.665
364.985
373.643
383.675
395.113
407.984
422.312
438.116
455.407
474.197
494.491
516.294
539.606
564.428
590.758
338.36
339.543
341.92
345.509
350.339
356.44
363.847
372.595
382.718
394.244
407.2
421.608
437.485
454.844
473.695
494.045
515.897
539.253
564.114
590.478
336.321
337.531
339.959
343.622
348.544
354.751
362.274
371.142
381.385
393.031
406.101
420.618
436.595
454.047
472.983
493.409
515.33
538.747
563.663
590.076
333.918
335.158
337.643
341.389
346.414
352.74
360.392
369.397
379.779
391.562
404.765
419.407
435.503
453.065
472.101
492.618
514.622
538.114
563.096
589.569
331.33
332.599
335.142
338.97
344.099
350.546
358.332
367.477
378.003
389.928
403.271
418.047
434.27
451.949
471.095
491.712
513.807
537.382
562.439
588.978
328.704
330
332.597
336.503
341.73
348.292
356.205
365.485
376.15
388.215
401.695
416.604
432.954
450.753
470.009
490.73
512.919
536.579
561.714
588.325
326.149
327.47
330.116
334.091
339.406
346.071
354.099
363.503
374.296
386.491
400.101
415.136
431.606
449.52
468.885
489.706
511.988
535.735
560.948
587.63
323.738
325.08
327.767
331.802
337.194
343.949
352.078
361.591
372.498
384.81
398.537
413.687
430.268
448.289
467.755
488.672
511.043
534.872
560.161
586.913
321.511
322.87
325.591
329.677
335.133
341.965
350.181
359.788
370.794
383.208
397.037
412.289
428.971
447.088
466.647
487.651
510.105
534.011
559.372
586.191
)
;
    }
    coldSide
    {
        type            mixed;
        refValue        uniform 300;
        refGradient     uniform 0;
        valueFraction   uniform 0.991591;
        source          uniform 0;
        value           nonuniform List<scalar> 
400
(
300.011
300.01
300.011
300.012
300.012
300.012
300.013
300.013
300.014
300.014
300.015
300.016
300.016
300.016
300.016
300.017
300.017
300.017
300.017
300.017
300.011
300.01
300.011
300.012
300.012
300.013
300.013
300.013
300.014
300.015
300.015
300.015
300.016
300.017
300.017
300.017
300.017
300.017
300.017
300.018
300.011