/*--------------------------------*- C++ -*----------------------------------*\
| =========                 |                                                 |
| \\      /  F ield         | OpenFOAM: The Open Source CFD Toolbox           |
|  \\    /   O peration     | Version:  2212                                  |
|   \\  /    A nd           | Website:  www.openfoam.com                      |
|    \\/     M anipulation  |                                                 |
\*---------------------------------------------------------------------------*/
FoamFile
{
    version     2.0;
    format      ascii;
    arch        "LSB;label=32;scalar=64";
    class       volScalarField;
    location    "0";
    object      Ttrue;
}
// * * * * * * * * * * * * * * * * * * * * * * * * * * * * * * * * * * * * * //

dimensions      [0 0 0 1 0 0 0];

internalField   nonuniform List<scalar> 
3200
(
348.266
348.828
349.546
350.328
351.133
351.924
352.654
353.27
353.719
353.956
353.956
353.719
353.27
352.654
351.924
351.133
350.328
349.546
348.828
348.266
341.898
342.374
342.993
343.67
344.367
345.051
345.682
346.214
346.602
346.806
346.806
346.602
346.214
345.682
345.051
344.367
343.67
342.993
342.374
341.898
335.503
335.898
336.419
336.991
337.58
338.158
338.691
339.14
339.467
339.639
339.639
339.467
339.14
338.691
338.158
337.58
336.991
336.419
335.898
335.503
329.084
329.402
329.827
330.294
330.776
331.248
331.683
332.05
332.317
332.458
332.458
332.317
332.05
331.683
331.248
330.776
330.294
329.827
329.402
329.084
322.646
322.89
323.22
323.583
323.958
324.325
324.663
324.947
325.155
325.264
325.264
325.155
324.947
324.663
324.325
323.958
323.583
323.22
322.89
322.646
316.194
316.367
316.602
316.861
317.129
317.391
317.632
317.835
317.983
318.061
318.061
317.983
317.835
317.632
317.391
317.129
316.861
316.602
316.367
316.194
309.732
309.835
309.976
310.131
310.292
310.449
310.594
310.716
310.805
310.852
310.852
310.805
310.716
310.594
310.449
310.292
310.131
309.976
309.835
309.732
303.263
303.297
303.345
303.397
303.45
303.503
303.552
303.593
303.622
303.638
303.638
303.622
303.593
303.552
303.503
303.45
303.397
303.345
303.297
303.263
348.437
348.995
349.706
350.481
351.278
352.06
352.782
353.39
353.833
354.067
354.067
353.833
353.39
352.782
352.06
351.278
350.481
349.706
348.995
348.437
342.047
342.519
343.132
343.803
344.493
345.169
345.793
346.319
346.701
346.903
346.903
346.701
346.319
345.793
345.169
344.493
343.803
343.132
342.519
342.047
335.628
336.02
336.537
337.103
337.687
338.258
338.785
339.228
339.551
339.722
339.722
339.551
339.228
338.785
338.258
337.687
337.103
336.537
336.02
335.628
329.187
329.502
329.924
330.386
330.863
331.33
331.76
332.123
332.386
332.525
332.525
332.386
332.123
331.76
331.33
330.863
330.386
329.924
329.502
329.187
322.726
322.969
323.295
323.655
324.026
324.389
324.723
325.004
325.209
325.317
325.317
325.209
325.004
324.723
324.389
324.026
323.655
323.295
322.969
322.726
316.251
316.423
316.656
316.913
317.177
317.436
317.675
317.876
318.022
318.099
318.099
318.022
317.876
317.675
317.436
317.177
316.913
316.656
316.423
316.251
309.766
309.868
310.008
310.162
310.321
310.477
310.62
310.74
310.828
310.874
310.874
310.828
310.74
310.62
310.477
310.321
310.162
310.008
309.868
309.766
303.274
303.309
303.355
303.407
303.46
303.512
303.56
303.601
303.63
303.646
303.646
303.63
303.601
303.56
303.512
303.46
303.407
303.355
303.309
303.274
348.78
349.329
350.028
350.789
351.57
352.335
353.04
353.633
354.065
354.293
354.293
354.065
353.633
353.04
352.335
351.57
350.789
350.028
349.329
348.78
342.344
342.809
343.412
344.07
344.746
345.408
346.017
346.53
346.903
347.1
347.1
346.903
346.53
346.017
345.408
344.746
344.07
343.412
342.809
342.344
335.88
336.265
336.774
337.33
337.901
338.46
338.975
339.408
339.723
339.889
339.889
339.723
339.408
338.975
338.46
337.901
337.33
336.774
336.265
335.88
329.393
329.703
330.117
330.572
331.039
331.496
331.916
332.27
332.527
332.662
332.662
332.527
332.27
331.916
331.496
331.039
330.572
330.117
329.703
329.393
322.887
323.125
323.446
323.799
324.163
324.518
324.844
325.119
325.318
325.423
325.423
325.318
325.119
324.844
324.518
324.163
323.799
323.446
323.125
322.887
316.366
316.535
316.764
317.016
317.275
317.529
317.762
317.958
318.1
318.175
318.175
318.1
317.958
317.762
317.529
317.275
317.016
316.764
316.535
316.366
309.835
309.935
310.073
310.224
310.38
310.532
310.672
310.79
310.875
310.92
310.92
310.875
310.79
310.672
310.532
310.38
310.224
310.073
309.935
309.835
303.297
303.331
303.377
303.428
303.48
303.531
303.578
303.617
303.646
303.661
303.661
303.646
303.617
303.578
303.531
303.48
303.428
303.377
303.331
303.297
349.296
349.832
350.514
351.254
352.012
352.752
353.433
354.005
354.421
354.64
354.64
354.421
354.005
353.433
352.752
352.012
351.254
350.514
349.832
349.296
342.791
343.245
343.833
344.473
345.129
345.77
346.359
346.853
347.212
347.402
347.402
347.212
346.853
346.359
345.77
345.129
344.473
343.833
343.245
342.791
336.259
336.635
337.13
337.671
338.226
338.768
339.265
339.682
339.985
340.145
340.145
339.985
339.682
339.265
338.768
338.226
337.671
337.13
336.635
336.259
329.703
330.006
330.41
330.852
331.305
331.748
332.154
332.495
332.742
332.872
332.872
332.742
332.495
332.154
331.748
331.305
330.852
330.41
330.006
329.703
323.128
323.36
323.674
324.017
324.37
324.714
325.029
325.294
325.486
325.587
325.587
325.486
325.294
325.029
324.714
324.37
324.017
323.674
323.36
323.128
316.538
316.703
316.926
317.171
317.423
317.669
317.894
318.083
318.22
318.293
318.293
318.22
318.083
317.894
317.669
317.423
317.171
316.926
316.703
316.538
309.938
310.037
310.17
310.318
310.469
310.616
310.752
310.865
310.947
310.991
310.991
310.947
310.865
310.752
310.616
310.469
310.318
310.17
310.037
309.938
303.332
303.365
303.41
303.459
303.51
303.559
303.605
303.643
303.67
303.685
303.685
303.67
303.643
303.605
303.559
303.51
303.459
303.41
303.365
303.332
349.987
350.506
351.166
351.879
352.608
353.318
353.968
354.514
354.909
355.117
355.117
354.909
354.514
353.968
353.318
352.608
351.879
351.166
350.506
349.987
343.39
343.83
344.398
345.016
345.647
346.261
346.824
347.295
347.637
347.817
347.817
347.637
347.295
346.824
346.261
345.647
345.016
344.398
343.83
343.39
336.765
337.13
337.609
338.131
338.664
339.183
339.659
340.057
340.345
340.497
340.497
340.345
340.057
339.659
339.183
338.664
338.131
337.609
337.13
336.765
330.117
330.411
330.802
331.228
331.664
332.088
332.477
332.802
333.037
333.161
333.161
333.037
332.802
332.477
332.088
331.664
331.228
330.802
330.411
330.117
323.45
323.676
323.979
324.31
324.649
324.979
325.281
325.533
325.716
325.813
325.813
325.716
325.533
325.281
324.979
324.649
324.31
323.979
323.676
323.45
316.769
316.928
317.144
317.381
317.623
317.859
318.074
318.254
318.385
318.454
318.454
318.385
318.254
318.074
317.859
317.623
317.381
317.144
316.928
316.769
310.077
310.172
310.302
310.444
310.589
310.73
310.86
310.968
311.046
311.088
311.088
311.046
310.968
310.86
310.73
310.589
310.444
310.302
310.172
310.077
303.379
303.41
303.454
303.501
303.55
303.598
303.641
303.677
303.703
303.717
303.717
303.703
303.677
303.641
303.598
303.55
303.501
303.454
303.41
303.379
350.854
351.354
351.987
352.669
353.364
354.038
354.653
355.168
355.54
355.735
355.735
355.54
355.168
354.653
354.038
353.364
352.669
351.987
351.354
350.854
344.142
344.565
345.111
345.701
346.303
346.886
347.418
347.863
348.185
348.354
348.354
348.185
347.863
347.418
346.886
346.303
345.701
345.111
344.565
344.142
337.401
337.753
338.213
338.712
339.22
339.713
340.163
340.539
340.81
340.953
340.953
340.81
340.539
340.163
339.713
339.22
338.712
338.213
337.753
337.401
330.638
330.921
331.296
331.703
332.119
332.522
332.89
333.197
333.419
333.535
333.535
333.419
333.197
332.89
332.522
332.119
331.703
331.296
330.921
330.638
323.855
324.072
324.363
324.68
325.004
325.317
325.603
325.841
326.013
326.104
326.104
326.013
325.841
325.603
325.317
325.004
324.68
324.363
324.072
323.855
317.058
317.212
317.419
317.646
317.876
318.1
318.304
318.475
318.598
318.662
318.662
318.598
318.475
318.304
318.1
317.876
317.646
317.419
317.212
317.058
310.251
310.342
310.467
310.603
310.741
310.876
310.998
311.1
311.174
311.213
311.213
311.174
311.1
310.998
310.876
310.741
310.603
310.467
310.342
310.251
303.437
303.467
303.509
303.555
303.601
303.646
303.687
303.721
303.746
303.759
303.759
303.746
303.721
303.687
303.646
303.601
303.555
303.509
303.467
303.437
351.9
352.378
352.981
353.629
354.285
354.92
355.497
355.977
356.324
356.506
356.506
356.324
355.977
355.497
354.92
354.285
353.629
352.981
352.378
351.9
345.049
345.453
345.974
346.534
347.102
347.652
348.151
348.567
348.867
349.024
349.024
348.867
348.567
348.151
347.652
347.102
346.534
345.974
345.453
345.049
338.169
338.505
338.943
339.417
339.897
340.362
340.784
341.135
341.388
341.521
341.521
341.388
341.135
340.784
340.362
339.897
339.417
338.943
338.505
338.169
331.266
331.536
331.894
332.281
332.674
333.054
333.399
333.686
333.893
334.001
334.001
333.893
333.686
333.399
333.054
332.674
332.281
331.894
331.536
331.266
324.344
324.552
324.829
325.13
325.435
325.731
325.999
326.222
326.383
326.467
326.467
326.383
326.222
325.999
325.731
325.435
325.13
324.829
324.552
324.344
317.408
317.554
317.752
317.967
318.185
318.396
318.588
318.747
318.862
318.922
318.922
318.862
318.747
318.588
318.396
318.185
317.967
317.752
317.554
317.408
310.461
310.548
310.667
310.796
310.927
311.053
311.168
311.264
311.333
311.369
311.369
311.333
311.264
311.168
311.053
310.927
310.796
310.667
310.548
310.461
303.507
303.536
303.576
303.619
303.663
303.706
303.744
303.776
303.799
303.812
303.812
303.799
303.776
303.744
303.706
303.663
303.619
303.576
303.536
303.507
353.128
353.582
354.153
354.763
355.379
355.972
356.508
356.953
357.274
357.442
357.442
357.274
356.953
356.508
355.972
355.379
354.763
354.153
353.582
353.128
346.113
346.498
346.99
347.518
348.052
348.565
349.029
349.414
349.691
349.836
349.836
349.691
349.414
349.029
348.565
348.052
347.518
346.99
346.498
346.113
339.07
339.389
339.804
340.25
340.701
341.135
341.528
341.853
342.087
342.21
342.21
342.087
341.853
341.528
341.135
340.701
340.25
339.804
339.389
339.07
332.004
332.26
332.599
332.964
333.332
333.687
334.008
334.274
334.465
334.566
334.566
334.465
334.274
334.008
333.687
333.332
332.964
332.599
332.26
332.004
324.918
325.115
325.377
325.661
325.948
326.224
326.473
326.68
326.829
326.907
326.907
326.829
326.68
326.473
326.224
325.948
325.661
325.377
325.115
324.918
317.818
317.957
318.144
318.347
318.552
318.749
318.927
319.075
319.181
319.236
319.236
319.181
319.075
318.927
318.749
318.552
318.347
318.144
317.957
317.818
310.707
310.79
310.902
311.024
311.147
311.265
311.372
311.461
311.525
311.558
311.558
311.525
311.461
311.372
311.265
311.147
311.024
310.902
310.79
310.707
303.59
303.618
303.655
303.696
303.737
303.777
303.813
303.842
303.864
303.875
303.875
303.864
303.842
303.813
303.777
303.737
303.696
303.655
303.618
303.59
354.54
354.969
355.506
356.078
356.652
357.201
357.696
358.105
358.399
358.552
358.552
358.399
358.105
357.696
357.201
356.652
356.078
355.506
354.969
354.54
347.337
347.701
348.164
348.658
349.155
349.631
350.06
350.414
350.668
350.801
350.801
350.668
350.414
350.06
349.631
349.155
348.658
348.164
347.701
347.337
340.106
340.407
340.798
341.216
341.636
342.039
342.401
342.701
342.915
343.028
343.028
342.915
342.701
342.401
342.039
341.636
341.216
340.798
340.407
340.106
332.852
333.094
333.412
333.754
334.098
334.427
334.723
334.968
335.144
335.236
335.236
335.144
334.968
334.723
334.427
334.098
333.754
333.412
333.094
332.852
325.578
325.764
326.011
326.277
326.544
326.8
327.03
327.221
327.357
327.428
327.428
327.357
327.221
327.03
326.8
326.544
326.277
326.011
325.764
325.578
318.289
318.421
318.597
318.787
318.978
319.161
319.325
319.461
319.559
319.61
319.61
319.559
319.461
319.325
319.161
318.978
318.787
318.597
318.421
318.289
310.99
311.069
311.174
311.288
311.403
311.513
311.612
311.693
311.752
311.782
311.782
311.752
311.693
311.612
311.513
311.403
311.288
311.174
311.069
310.99
303.685
303.711
303.746
303.785
303.823
303.86
303.893
303.92
303.94
303.95
303.95
303.94
303.92
303.893
303.86
303.823
303.785
303.746
303.711
303.685
356.139
356.543
357.045
357.577
358.108
358.614
359.068
359.442
359.71
359.849
359.849
359.71
359.442
359.068
358.614
358.108
357.577
357.045
356.543
356.139
348.724
349.065
349.498
349.959
350.419
350.858
351.251
351.575
351.806
351.927
351.927
351.806
351.575
351.251
350.858
350.419
349.959
349.498
349.065
348.724
341.28
341.563
341.928
342.317
342.707
343.078
343.41
343.684
343.879
343.981
343.981
343.879
343.684
343.41
343.078
342.707
342.317
341.928
341.563
341.28
333.812
334.04
334.338
334.656
334.975
335.278
335.55
335.774
335.934
336.017
336.017
335.934
335.774
335.55
335.278
334.975
334.656
334.338
334.04
333.812
326.325
326.5
326.731
326.978
327.226
327.462
327.674
327.848
327.972
328.037
328.037
327.972
327.848
327.674
327.462
327.226
326.978
326.731
326.5
326.325
318.823
318.947
319.112
319.289
319.466
319.634
319.785
319.91
319.998
320.045
320.045
319.998
319.91
319.785
319.634
319.466
319.289
319.112
318.947
318.823
311.311
311.385
311.484
311.59
311.696
311.797
311.888
311.963
312.016
312.044
312.044
312.016
311.963
311.888
311.797
311.696
311.59
311.484
311.385
311.311
303.792
303.817
303.85
303.886
303.921
303.955
303.986
304.011
304.028
304.038
304.038
304.028
304.011
303.986
303.955
303.921
303.886
303.85
303.817
303.792
357.928
358.305
358.773
359.265
359.755
360.219
360.633
360.972
361.214
361.34
361.34
361.214
360.972
360.633
360.219
359.755
359.265
358.773
358.305
357.928
350.274
350.593
350.997
351.423
351.848
352.249
352.608
352.902
353.112
353.221
353.221
353.112
352.902
352.608
352.249
351.848
351.423
350.997
350.593
350.274
342.592
342.857
343.197
343.557
343.916
344.256
344.56
344.808
344.986
345.078
345.078
344.986
344.808
344.56
344.256
343.916
343.557
343.197
342.857
342.592
334.886
335.099
335.376
335.671
335.965
336.243
336.491
336.695
336.84
336.915
336.915
336.84
336.695
336.491
336.243
335.965
335.671
335.376
335.099
334.886
327.161
327.324
327.539
327.769
327.997
328.213
328.407
328.565
328.677
328.736
328.736
328.677
328.565
328.407
328.213
327.997
327.769
327.539
327.324
327.161
319.421
319.536
319.69
319.853
320.017
320.171
320.309
320.422
320.503
320.545
320.545
320.503
320.422
320.309
320.171
320.017
319.853
319.69
319.536
319.421
311.67
311.739
311.831
311.929
312.027
312.12
312.203
312.271
312.319
312.344
312.344
312.319
312.271
312.203
312.12
312.027
311.929
311.831
311.739
311.67
303.913
303.936
303.966
303.999
304.032
304.063
304.091
304.114
304.13
304.139
304.139
304.13
304.114
304.091
304.063
304.032
303.999
303.966
303.936
303.913
359.908
360.259
360.692
361.147
361.596
362.019
362.394
362.701
362.919
363.033
363.033
362.919
362.701
362.394
362.019
361.596
361.147
360.692
360.259
359.908
351.991
352.288
352.662
353.055
353.444
353.811
354.137
354.403
354.591
354.689
354.689
354.591
354.403
354.137
353.811
353.444
353.055
352.662
352.288
351.991
344.045
344.291
344.606
344.939
345.268
345.579
345.854
346.079
346.239
346.322
346.322
346.239
346.079
345.854
345.579
345.268
344.939
344.606
344.291
344.045
336.075
336.273
336.53
336.803
337.072
337.326
337.551
337.735
337.866
337.934
337.934
337.866
337.735
337.551
337.326
337.072
336.803
336.53
336.273
336.075
328.086
328.238
328.438
328.649
328.859
329.056
329.232
329.375
329.476
329.529
329.529
329.476
329.375
329.232
329.056
328.859
328.649
328.438
328.238
328.086
320.082
320.189
320.332
320.483
320.633
320.774
320.899
321.001
321.074
321.112
321.112
321.074
321.001
320.899
320.774
320.633
320.483
320.332
320.189
320.082
312.067
312.131
312.217
312.307
312.397
312.482
312.557
312.619
312.662
312.685
312.685
312.662
312.619
312.557
312.482
312.397
312.307
312.217
312.131
312.067
304.046
304.067
304.096
304.126
304.156
304.185
304.21
304.231
304.245
304.253
304.253
304.245
304.231
304.21
304.185
304.156
304.126
304.096
304.067
304.046
362.08
362.406
362.806
363.224
363.634
364.018
364.358
364.635
364.83
364.932
364.932
364.83
364.635
364.358
364.018
363.634
363.224
362.806
362.406
362.08
353.874
354.15
354.495
354.857
355.212
355.545
355.84
356.079
356.249
356.337
356.337
356.249
356.079
355.84
355.545
355.212
354.857
354.495
354.15
353.874
345.639
345.868
346.159
346.464
346.765
347.047
347.297
347.499
347.643
347.717
347.717
347.643
347.499
347.297
347.047
346.765
346.464
346.159
345.868
345.639
337.38
337.564
337.801
338.051
338.297
338.528
338.732
338.898
339.015
339.076
339.076
339.015
338.898
338.732
338.528
338.297
338.051
337.801
337.564
337.38
329.101
329.242
329.427
329.621
329.812
329.992
330.151
330.28
330.371
330.418
330.418
330.371
330.28
330.151
329.992
329.812
329.621
329.427
329.242
329.101
320.807
320.907
321.039
321.177
321.314
321.443
321.556
321.648
321.713
321.747
321.747
321.713
321.648
321.556
321.443
321.314
321.177
321.039
320.907
320.807
312.503
312.562
312.641
312.725
312.807
312.884
312.952
313.007
313.047
313.067
313.067
313.047
313.007
312.952
312.884
312.807
312.725
312.641
312.562
312.503
304.192
304.212
304.238
304.266
304.294
304.319
304.342
304.361
304.374
304.381
304.381
304.374
304.361
304.342
304.319
304.294
304.266
304.238
304.212
304.192
364.446
364.747
365.116
365.498
365.871
366.219
366.526
366.774
366.949
367.04
367.04
366.949
366.774
366.526
366.219
365.871
365.498
365.116
364.747
364.446
355.925
356.18
356.497
356.828
357.152
357.454
357.72
357.935
358.087
358.165
358.165
358.087
357.935
357.72
357.454
357.152
356.828
356.497
356.18
355.925
347.374
347.586
347.854
348.134
348.408
348.663
348.888
349.07
349.199
349.265
349.265
349.199
349.07
348.888
348.663
348.408
348.134
347.854
347.586
347.374
338.8
338.97
339.189
339.418
339.642
339.851
340.035
340.184
340.289
340.344
340.344
340.289
340.184
340.035
339.851
339.642
339.418
339.189
338.97
338.8
330.206
330.337
330.506
330.684
330.859
331.021
331.165
331.281
331.362
331.405
331.405
331.362
331.281
331.165
331.021
330.859
330.684
330.506
330.337
330.206
321.597
321.689
321.81
321.937
322.062
322.178
322.281
322.364
322.422
322.452
322.452
322.422
322.364
322.281
322.178
322.062
321.937
321.81
321.689
321.597
312.977
313.032
313.105
313.181
313.256
313.326
313.387
313.437
313.472
313.49
313.49
313.472
313.437
313.387
313.326
313.256
313.181
313.105
313.032
312.977
304.351
304.369
304.394
304.419
304.444
304.468
304.488
304.505
304.517
304.523
304.523
304.517
304.505
304.488
304.468
304.444
304.419
304.394
304.369
304.351
367.001
367.279
367.617
367.966
368.305
368.62
368.896
369.118
369.275
369.355
369.355
369.275
369.118
368.896
368.62
368.305
367.966
367.617
367.279
367.001
358.139
358.374
358.666
358.968
359.262
359.535
359.774
359.967
360.103
360.173
360.173
360.103
359.967
359.774
359.535
359.262
358.968
358.666
358.374
358.139
349.248
349.443
349.689
349.944
350.193
350.424
350.627
350.79
350.905
350.964
350.964
350.905
350.79
350.627
350.424
350.193
349.944
349.689
349.443
349.248
340.333
340.49
340.69
340.899
341.103
341.292
341.458
341.592
341.685
341.734
341.734
341.685
341.592
341.458
341.292
341.103
340.899
340.69
340.49
340.333
331.398
331.519
331.674
331.837
331.996
332.143
332.272
332.376
332.449
332.486
332.486
332.449
332.376
332.272
332.143
331.996
331.837
331.674
331.519
331.398
322.449
322.534
322.645
322.761
322.875
322.98
323.072
323.146
323.198
323.225
323.225
323.198
323.146
323.072
322.98
322.875
322.761
322.645
322.534
322.449
313.489
313.54
313.606
313.676
313.744
313.807
313.863
313.907
313.939
313.955
313.955
313.939
313.907
313.863
313.807
313.744
313.676
313.606
313.54
313.489
304.522
304.539
304.562
304.585
304.608
304.629
304.648
304.663
304.673
304.678
304.678
304.673
304.663
304.648
304.629
304.608
304.585
304.562
304.539
304.522
369.735
369.991
370.301
370.619
370.926
371.21
371.458
371.657
371.797
371.869
371.869
371.797
371.657
371.458
371.21
370.926
370.619
370.301
369.991
369.735
360.506
360.722
360.99
361.266
361.532
361.779
361.993
362.166
362.287
362.349
362.349
362.287
362.166
361.993
361.779
361.532
361.266
360.99
360.722
360.506
351.249
351.429
351.654
351.887
352.113
352.322
352.504
352.65
352.752
352.805
352.805
352.752
352.65
352.504
352.322
352.113
351.887
351.654
351.429
351.249
341.969
342.114
342.298
342.488
342.673
342.844
342.993
343.112
343.196
343.24
343.24
343.196
343.112
342.993
342.844
342.673
342.488
342.298
342.114
341.969
332.671
332.781
332.924
333.073
333.216
333.349
333.465
333.558
333.623
333.657
333.657
333.623
333.558
333.465
333.349
333.216
333.073
332.924
332.781
332.671
323.358
323.436
323.538
323.644
323.747
323.842
323.924
323.991
324.038
324.062
324.062
324.038
323.991
323.924
323.842
323.747
323.644
323.538
323.436
323.358
314.034
314.081
314.142
314.206
314.268
314.325
314.375
314.415
314.443
314.457
314.457
314.443
314.415
314.375
314.325
314.268
314.206
314.142
314.081
314.034
304.705
304.721
304.741
304.763
304.783
304.802
304.819
304.833
304.842
304.847
304.847
304.842
304.833
304.819
304.802
304.783
304.763
304.741
304.721
304.705
372.618
372.853
373.137
373.427
373.705
373.962
374.184
374.362
374.487
374.551
374.551
374.487
374.362
374.184
373.962
373.705
373.427
373.137
372.853
372.618
362.998
363.197
363.442
363.693
363.935
364.157
364.35
364.504
364.613
364.668
364.668
364.613
364.504
364.35
364.157
363.935
363.693
363.442
363.197
362.998
353.353
353.517
353.724
353.936
354.141
354.33
354.493
354.624
354.715
354.763
354.763
354.715
354.624
354.493
354.33
354.141
353.936
353.724
353.517
353.353
343.687
343.819
343.988
344.162
344.329
344.484
344.617
344.724
344.799
344.838
344.838
344.799
344.724
344.617
344.484
344.329
344.162
343.988
343.819
343.687
334.004
334.106
334.237
334.372
334.503
334.623
334.727
334.81
334.868
334.898
334.898
334.868
334.81
334.727
334.623
334.503
334.372
334.237
334.106
334.004
324.309
324.381
324.475
324.571
324.664
324.75
324.825
324.884
324.926
324.948
324.948
324.926
324.884
324.825
324.75
324.664
324.571
324.475
324.381
324.309
314.606
314.648
314.704
314.762
314.819
314.87
314.915
314.951
314.976
314.989
314.989
314.976
314.951
314.915
314.87
314.819
314.762
314.704
314.648
314.606
304.897
304.911
304.93
304.949
304.968
304.985
305
305.012
305.021
305.025
305.025
305.021
305.012
305
304.985
304.968
304.949
304.93
304.911
304.897
375.575
375.791
376.051
376.315
376.569
376.8
377
377.16
377.272
377.329
377.329
377.272
377.16
377
376.8
376.569
376.315
376.051
375.791
375.575
365.542
365.725
365.949
366.179
366.398
366.599
366.773
366.912
367.009
367.059
367.059
367.009
366.912
366.773
366.599
366.398
366.179
365.949
365.725
365.542
355.491
355.643
355.832
356.026
356.212
356.383
356.53
356.648
356.73
356.772
356.772
356.73
356.648
356.53
356.383
356.212
356.026
355.832
355.643
355.491
345.426
345.548
345.703
345.862
346.014
346.154
346.275
346.371
346.438
346.473
346.473
346.438
346.371
346.275
346.154
346.014
345.862
345.703
345.548
345.426
335.351
335.445
335.565
335.688
335.807
335.916
336.01
336.085
336.137
336.164
336.164
336.137
336.085
336.01
335.916
335.807
335.688
335.565
335.445
335.351
325.268
325.335
325.42
325.508
325.593
325.671
325.738
325.792
325.829
325.849
325.849
325.829
325.792
325.738
325.671
325.593
325.508
325.42
325.335
325.268
315.18
315.22
315.271
315.324
315.375
315.422
315.462
315.494
315.517
315.529
315.529
315.517
315.494
315.462
315.422
315.375
315.324
315.271
315.22
315.18
305.089
305.102
305.119
305.137
305.154
305.17
305.183
305.194
305.202
305.206
305.206
305.202
305.194
305.183
305.17
305.154
305.137
305.119
305.102
305.089
378.415
378.614
378.854
379.097
379.329
379.54
379.722
379.866
379.967
380.019
380.019
379.967
379.866
379.722
379.54
379.329
379.097
378.854
378.614
378.415
367.955
368.125
368.332
368.543
368.744
368.928
369.086
369.212
369.299
369.344
369.344
369.299
369.212
369.086
368.928
368.744
368.543
368.332
368.125
367.955
357.498
357.638
357.814
357.992
358.163
358.319
358.453
358.56
358.634
358.672
358.672
358.634
358.56
358.453
358.319
358.163
357.992
357.814
357.638
357.498
347.044
347.157
347.3
347.447
347.587
347.715
347.825
347.912
347.973
348.004
348.004
347.973
347.912
347.825
347.715
347.587
347.447
347.3
347.157
347.044
336.594
336.681
336.792
336.906
337.016
337.115
337.201
337.269
337.317
337.341
337.341
337.317
337.269
337.201
337.115
337.016
336.906
336.792
336.681
336.594
326.148
326.21
326.289
326.371
326.449
326.52
326.581
326.63
326.664
326.682
326.682
326.664
326.63
326.581
326.52
326.449
326.371
326.289
326.21
326.148
315.705
315.742
315.79
315.839
315.886
315.929
315.965
315.995
316.015
316.026
316.026
316.015
315.995
315.965
315.929
315.886
315.839
315.79
315.742
315.705
305.264
305.277
305.293
305.309
305.325
305.339
305.352
305.361
305.368
305.372
305.372
305.368
305.361
305.352
305.339
305.325
305.309
305.293
305.277
305.264
380.637
380.825
381.05
381.278
381.495
381.692
381.861
381.995
382.089
382.137
382.137
382.089
381.995
381.861
381.692
381.495
381.278
381.05
380.825
380.637
369.773
369.932
370.128
370.326
370.515
370.687
370.835
370.952
371.033
371.075
371.075
371.033
370.952
370.835
370.687
370.515
370.326
370.128
369.932
369.773
358.963
359.096
359.261
359.43
359.59
359.737
359.862
359.962
360.031
360.067
360.067
360.031
359.962
359.862
359.737
359.59
359.43
359.261
359.096
358.963
348.196
348.303
348.439
348.577
348.709
348.829
348.933
349.015
349.072
349.101
349.101
349.072
349.015
348.933
348.829
348.709
348.577
348.439
348.303
348.196
337.463
337.545
337.651
337.759
337.862
337.956
338.036
338.1
338.145
338.168
338.168
338.145
338.1
338.036
337.956
337.862
337.759
337.651
337.545
337.463
326.755
326.813
326.889
326.966
327.04
327.107
327.165
327.211
327.242
327.259
327.259
327.242
327.211
327.165
327.107
327.04
326.966
326.889
326.813
326.755
316.064
316.099
316.144
316.191
316.235
316.276
316.31
316.338
316.357
316.367
316.367
316.357
316.338
316.31
316.276
316.235
316.191
316.144
316.099
316.064
305.384
305.395
305.411
305.426
305.441
305.455
305.466
305.476
305.482
305.485
305.485
305.482
305.476
305.466
305.455
305.441
305.426
305.411
305.395
305.384
)
;

boundaryField
{
    hotSide
    {
        type            fixedGradient;
        gradient        nonuniform List<scalar> 
400
(
506.805
508.63
512.285
517.783
525.139
534.375
545.515
558.584
573.61
590.62
609.64
630.694
653.806
678.994
706.278
735.672
767.189
800.839
836.631
874.571
514.202
515.968
519.508
524.838
531.98
540.962
551.814
564.572
579.269
595.941
614.619
635.334
658.113
682.981
709.958
739.061
770.304
803.698
839.251
876.97
522.207
523.903
527.306
532.437
539.326
548.008
558.525
570.92
585.238
601.522
619.813
640.146
662.555
687.068
713.708
742.495
773.442
806.562
841.863
879.35
530.687
532.302
535.546
540.447
547.042
555.381
565.515
577.5
591.392
607.244
625.106
645.022
667.029
691.16
717.442
745.894
776.531
809.367
844.407
881.657
539.406
540.93
543.995
548.637
554.907
562.865
572.577
584.114
597.544
612.933
630.338
649.812
671.399
695.134
721.046
749.156
779.481
812.031
846.811
883.826
548
549.426
552.3
556.667
562.592
570.148
579.418
590.489
603.442
618.356
635.297
654.327
675.494
698.837
724.386
752.165
782.187
814.462
848.996
885.788
555.977
557.305
559.988
564.083
569.665
576.825
585.664
596.282
608.775
623.233
639.735
658.346
679.12
702.099
727.315
754.789
784.537
816.565
850.877
887.471
562.747
563.986
566.498
570.348
575.624
582.432
590.888
601.107
613.198
627.261
643.382
661.634
682.074
704.745
729.68
756.901
786.42
818.244
852.374
888.807
567.702
568.873
571.254
574.916
579.959
586.501
594.668
604.587
616.377
630.145
645.985
663.973
684.167
706.614
731.346
758.383
787.738
819.416
853.416
889.734
570.327
571.462
573.771
577.331
582.248
588.645
596.656
606.413
618.041
631.653
647.343
665.189
685.254
707.582
732.207
759.148
788.417
820.019
853.951
890.209
570.327
571.462
573.771
577.331
582.248
588.645
596.656
606.413
618.041
631.653
647.343
665.189
685.254
707.582
732.207
759.148
788.417
820.019
853.951
890.209
567.702
568.873
571.254
574.916
579.959
586.501
594.668
604.587
616.377
630.145
645.985
663.973
684.167
706.614
731.346
758.383
787.738
819.416
853.416
889.734
562.747
563.986
566.498
570.348
575.624
582.432
590.888
601.107
613.198
627.261
643.382
661.634
682.074
704.745
729.68
756.901
786.42
818.244
852.374
888.807
555.977
557.305
559.988
564.083
569.665
576.825
585.664
596.282
608.775
623.233
639.735
658.346
679.12
702.099
727.315
754.789
784.537
816.565
850.877
887.471
548
549.426
552.3
556.667
562.592
570.148
579.418
590.489
603.442
618.356
635.297
654.327
675.494
698.837
724.386
752.165
782.187
814.462
848.996
885.788
539.406
540.93
543.995
548.637
554.907
562.865
572.577
584.114
597.544
612.933
630.338
649.812
671.399
695.134
721.046
749.156
779.481
812.031
846.811
883.826
530.687
532.302
535.546
540.447
547.042
555.381
565.515
577.5
591.392
607.244
625.106
645.022
667.029
691.16
717.442
745.894
776.531
809.367
844.407
881.657
522.207
523.903
527.306
532.437
539.326
548.008
558.525
570.92
585.238
601.522
619.813
640.146
662.555
687.068
713.708
742.495
773.442
806.562
841.863
879.35
514.202
515.968
519.508
524.838
531.98
540.962
551.814
564.572
579.269
595.941
614.619
635.334
658.113
682.981
709.958
739.061
770.304
803.698
839.251
876.97
506.805
508.63
512.285
517.783
525.139
534.375
545.515
558.584
573.61
590.62
609.64
630.694
653.806
678.994
706.278
735.672
767.189
800.839
836.631
874.571
)
;
    }
    coldSide
    {
        type            mixed;
        refValue        uniform 300;
        refGradient     uniform 0;
        valueFraction   uniform 0.991591;
        source          uniform 0;
        value           nonuniform List<scalar> 
400
(
300.027
300.028
300.028
300.028
300.028
300.029
300.029
300.03
300.031
300.032
300.033
300.034
300.035
300.037
300.038
300.04
300.041
300.043
300.044
300.045
300.028
300.028
300.028
300.028
300.029
300.029
300.03
300.03
300.031
300.032
300.033
300.034
300.035
300.037
300.038
300.04