/*--------------------------------*- C++ -*----------------------------------*\
| =========                 |                                                 |
| \\      /  F ield         | OpenFOAM: The Open Source CFD Toolbox           |
|  \\    /   O peration     | Version:  2212                                  |
|   \\  /    A nd           | Website:  www.openfoam.com                      |
|    \\/     M anipulation  |                                                 |
\*---------------------------------------------------------------------------*/
FoamFile
{
    version     2.0;
    format      ascii;
    arch        "LSB;label=32;scalar=64";
    class       volScalarField;
    location    "0";
    object      relativeErrorField;
}
// * * * * * * * * * * * * * * * * * * * * * * * * * * * * * * * * * * * * * //

dimensions      [0 0 0 1 0 0 0];

internalField   nonuniform List<scalar> 
3200
(
0.0147376
0.0143829
0.0147093
0.0146126
0.0148537
0.0155258
0.0159855
0.016673
0.0171404
0.0172385
0.0172487
0.0171588
0.0165188
0.0160669
0.0153073
0.0147442
0.0142538
0.0139492
0.01397
0.0140729
0.0127572
0.0126996
0.0127031
0.0129318
0.0132116
0.0135375
0.0142494
0.0146513
0.0151102
0.0152292
0.0154209
0.0149252
0.0148647
0.0139468
0.0135961
0.0128585
0.0125124
0.0121208
0.0121427
0.0123339
0.0110908
0.0109002
0.011073
0.0113829
0.0116045
0.0121384
0.0122111
0.0126824
0.0129982
0.0130977
0.0131413
0.0129298
0.012546
0.011975
0.0118455
0.0111248
0.010681
0.0106282
0.0102889
0.0102912
0.00925871
0.00919646
0.00917624
0.00932729
0.00953471
0.00990317
0.0100513
0.0104564
0.0108271
0.0106491
0.0108648
0.010562
0.0105049
0.0101349
0.00978038
0.00935949
0.00886305
0.00879293
0.00864387
0.00879171
0.00722808
0.0071752
0.00728019
0.00741895
0.00741021
0.00778432
0.00794402
0.00861546
0.00851309
0.0086712
0.00865284
0.00862692
0.00825457
0.00787995
0.00745654
0.00738467
0.0069593
0.00655109
0.00681906
0.00694314
0.00547064
0.0050771
0.00527041
0.00547952
0.00554428
0.0057101
0.00620137
0.00600389
0.00604287
0.00619729
0.00607676
0.00611409
0.00572765
0.00584825
0.00557265
0.0053075
0.00531597
0.00502533
0.00480629
0.00480363
0.00336729
0.00336199
0.00323028
0.00298125
0.00338863
0.00373257
0.00352473
0.00355232
0.00374529
0.00383932
0.00371291
0.00379958
0.00365184
0.00354287
0.00322429
0.00343529
0.00304291
0.00329347
0.00302834
0.0031199
0.000951304
0.00113535
0.00107431
0.00121742
0.000977759
0.00111314
0.00121931
0.00118705
0.00150964
0.00135774
0.00117351
0.00120609
0.00147772
0.00116852
0.0011398
0.00123593
0.00101332
0.00129952
0.00102165
0.000894427
0.0128095
0.0125697
0.0125619
0.0126048
0.0131064
0.0136861
0.0142171
0.0148686
0.0149813
0.0152422
0.0151376
0.0149978
0.0143067
0.0139296
0.013193
0.0126301
0.0120009
0.0120619
0.0119596
0.0121302
0.0112313
0.0111751
0.0113562
0.0112406
0.0115569
0.0120691
0.0125844
0.0130331
0.013553
0.013664
0.0134726
0.0132105
0.0129734
0.0121988
0.0118134
0.0112958
0.0109358
0.0104351
0.0105308
0.0107977
0.00987271
0.00961766
0.00978495
0.00989091
0.0102441
0.01037
0.0109406
0.0112365
0.0114353
0.0116065
0.0114859
0.0115471
0.0110206
0.0106266
0.0103791
0.00971842
0.00940545
0.00905618
0.00908135
0.00918862
0.00850903
0.00825846
0.00811188
0.00819263
0.00858191
0.00866162
0.00903571
0.00946866
0.00943832
0.00990515
0.00968277
0.00952369
0.0095974
0.00893142
0.00858225
0.00796923
0.00779756
0.00786711
0.0077316
0.00766194
0.00645315
0.00642559
0.00637635
0.00664004
0.00661349
0.00690036
0.0072919
0.00747733
0.00772258
0.00779572
0.0077411
0.00774741
0.00714021
0.00714871
0.00687769
0.00634186
0.00631863
0.00614481
0.00591608
0.00600812
0.0046463
0.00471374
0.00471161
0.00482664
0.00497333
0.00510552
0.00547632
0.00544467
0.00547925
0.00564412
0.00569384
0.00575534
0.00523829
0.00518974
0.00511429
0.00457577
0.00455674
0.00455409
0.00439486
0.00442423
0.0030243
0.00291546
0.00282394
0.00303678
0.00302044
0.00338146
0.00335963
0.00333064
0.00330844
0.00353711
0.00330998
0.00341318
0.00306147
0.00320624
0.00288859
0.00271928
0.00285935
0.00274964
0.00264662
0.00263834
0.00107821
0.000686557
0.000960328
0.00106574
0.000978471
0.00103571
0.00112969
0.0011746
0.00125906
0.0010451
0.00100534
0.00143541
0.00124992
0.00101819
0.00101396
0.00106185
0.000828052
0.00101974
0.000760061
0.000925548
0.010677
0.0103217
0.0102968
0.0102742
0.0107906
0.0110955
0.0115891
0.0121575
0.0122544
0.0124175
0.0125938
0.0120899
0.0117672
0.0112441
0.0105917
0.0102727
0.0096824
0.00967107
0.00983574
0.0100953
0.00948594
0.0094351
0.00909351
0.00947159
0.00951994
0.0100519
0.010431
0.0105797
0.0109523
0.0113539
0.0111316
0.0108942
0.0106063
0.00994843
0.00956936
0.00921354
0.00884363
0.00862633
0.00853446
0.00899894
0.0083059
0.00807943
0.00789998
0.00815176
0.00833428
0.00877874
0.00887533
0.00937836
0.00974802
0.00958808
0.0097498
0.00951795
0.00918774
0.00869179
0.00827868
0.00793978
0.00747175
0.00746701
0.00758668
0.00766196
0.00701112
0.00705198
0.0068291
0.00704805
0.00702812
0.00731756
0.00769756
0.00794241
0.00799015
0.00837501
0.00832875
0.00802833
0.00768783
0.00755328
0.00693085
0.00651256
0.00635195
0.00630425
0.00637362
0.00643564
0.0056149
0.00564603
0.0053147
0.00535612
0.00554941
0.00573285
0.00610597
0.0062699
0.00672975
0.00666082
0.00669155
0.00651052
0.00603805
0.00612197
0.0056234
0.00528199
0.00536431
0.00489492
0.00491556
0.00517796
0.00410435
0.00391038
0.00402578
0.00398394
0.00409183
0.00429322
0.00442936
0.00475899
0.00479315
0.00460285
0.00475006
0.00454824
0.00464117
0.00438325
0.00403525
0.0037836
0.00365153
0.00360378
0.00362242
0.00383619
0.00266834
0.00249737
0.00234042
0.00252342
0.00249334
0.00258336
0.0028552
0.00289001
0.00271031
0.00318395
0.00292241
0.00259212
0.00287389
0.00263101
0.00256867
0.0022328
0.00221296
0.00206441
0.00253256
0.00230327
0.000762816
0.00077203
0.000598432
0.000767535
0.000825449
0.000912659
0.00121527
0.00107772
0.000999434
0.000800081
0.000889647
0.001141
0.000851681
0.000733084
0.000928041
0.000949351
0.000846224
0.000775393
0.000742862
0.000754217
0.0085778
0.00829372
0.00794283
0.00816191
0.0081359
0.0085852
0.00875858
0.00931638
0.00952685
0.00981187
0.00984786
0.00950811
0.00926048
0.00854291
0.00822919
0.0079498
0.00741357
0.00719797
0.00747675
0.00790316
0.00796899
0.0076363
0.00741639
0.00737045
0.00753797
0.00778926
0.00832204
0.00844154
0.0086948
0.00877665
0.00875847
0.00859018
0.00827474
0.00779972
0.00740514
0.007096
0.00675776
0.00661112
0.00675445
0.00691017
0.00697379
0.00684065
0.00643391
0.0065267
0.00649778
0.00667325
0.00702948
0.00750437
0.00775201
0.00754579
0.00775219
0.00739835
0.00722732
0.00667906
0.0065379
0.0060869
0.00579173
0.00560403
0.00584636
0.00588542
0.00583998
0.00567499
0.00549506
0.00563623
0.0056198
0.00578247
0.00604545
0.00624607
0.00655574
0.00684669
0.00666426
0.00629836
0.0062217
0.00602482
0.00543552
0.00538413
0.00482828
0.00491941
0.00499739
0.0050449
0.00447939
0.00467149
0.00445936
0.0043705
0.00453897
0.00454809
0.00461625
0.005229
0.00513272
0.0052423
0.00518774
0.00511148
0.00488204
0.00472361
0.00431496
0.00420554
0.00391455
0.00409798
0.00405395
0.00422957
0.00344907
0.00340354
0.00348069
0.0033316
0.00340102
0.00331286
0.00365552
0.00358827
0.00371709
0.0038128
0.0036836
0.00364345
0.00371542
0.00322814
0.00323538
0.00317097
0.00305076
0.00282839
0.00283778
0.00283347
0.00215217
0.00211725
0.00203681
0.00220088
0.0020405
0.00221298
0.00212469
0.00238192
0.00242207
0.00251867
0.00217485
0.00233734
0.00227523
0.00212421
0.00206364
0.00178264
0.00190642
0.00170455
0.00157011
0.00182156
0.000655014
0.000672084
0.000774283
0.000464747
0.000836999
0.000715823
0.000595302
0.000658646
0.000794824
0.000806198
0.000970098
0.000686734
0.000674267
0.000624832
0.000689856
0.000814382
0.000426531
0.000884097
0.000479343
0.000547092
0.00716574
0.00636379
0.00605143
0.0059489
0.00610265
0.00638653
0.00657399
0.00707924
0.00709768
0.00720174
0.00712884
0.00683667
0.00643693
0.00615775
0.00563782
0.0054669
0.00522935
0.00524528
0.00534737
0.00592405
0.00650123
0.00595532
0.00573316
0.00549013
0.00570775
0.00580592
0.00598843
0.00613661
0.00662461
0.00662367
0.0064277
0.00619306
0.00601624
0.00572435
0.00529035
0.00513692
0.00470032
0.00488879
0.00498747
0.00523116
0.00541765
0.00532896
0.00514616
0.00497391
0.00491502
0.00511892
0.00522733
0.00562443
0.00582838
0.00589668
0.00587812
0.00572568
0.00533041
0.00495722
0.00460803
0.00448003
0.00427041
0.00409983
0.00436989
0.00468332
0.00472274
0.00455122
0.00430189
0.00424885
0.00441119
0.00435164
0.00472636
0.00486379
0.00507921
0.00495169
0.00497903
0.0047938
0.004625
0.0043553
0.00396714
0.00368664
0.00368778
0.00355145
0.00357726
0.00393012
0.00380652
0.00360409
0.00335503
0.00362897
0.00346754
0.00357898
0.00377032
0.00398529
0.00389579
0.00390278
0.00416504
0.00416839
0.00361115
0.00352354
0.00334651
0.00306817
0.00295188
0.00275579
0.00281252
0.00320621
0.00275749
0.00272248
0.00276421
0.0025618
0.0023835
0.00252451
0.00296446
0.002842
0.00293341
0.0029857
0.00297508
0.0030075
0.00280017
0.0027832
0.00253439
0.00234587
0.00194424
0.00217515
0.00242008
0.00256953
0.00176956
0.0016038
0.00163731
0.00159537
0.00172365
0.00176735
0.00155275
0.00178653
0.00182691
0.00160442
0.00181295
0.00177999
0.00164945
0.00177445
0.00156492
0.00159255
0.0012786
0.00146113
0.00150086
0.00153221
0.000811695
0.000402709
0.000589379
0.000536299
0.000546538
0.000547474
0.000620579
0.000582533
0.000694777
0.000595971
0.000754935
0.000605055
0.000586502
0.000644585
0.000593178
0.000568943
0.000446909
0.00057007
0.000531901
0.000406872
0.00553819
0.00500733
0.00452471
0.00413243
0.00417794
0.0042089
0.00455769
0.00478943
0.00476209
0.00495375
0.00474757
0.00477768
0.00434878
0.00406089
0.00387528
0.00331591
0.00336132
0.00353221
0.00386896
0.00453167
0.00511603
0.00494445
0.00426197
0.00400062
0.0040579
0.00412455
0.00427843
0.00437502
0.00443395
0.00453239
0.00442263
0.00440611
0.0038375
0.00380239
0.00340867
0.00315909
0.0031441
0.00327798
0.00362842
0.00379853
0.00476127
0.00414392
0.0037306
0.0037135
0.0036829
0.00347647
0.00381794
0.00390783
0.0042689
0.00407755
0.00411145
0.00400089
0.00356155
0.0032818
0.0030839
0.00286615
0.00295198
0.00286665
0.00328006
0.00340018
0.00376419
0.00347933
0.00353377
0.00318112
0.00333533
0.00356233
0.00341296
0.00347969
0.00346568
0.00343887
0.00342421
0.00347634
0.00328195
0.00280357
0.00270687
0.00267508
0.00252851
0.00260709
0.00270721
0.00299461
0.00314015
0.00272209
0.00273322
0.00237714
0.002613
0.0023464
0.00248928
0.00287837
0.00294891
0.00306718
0.00300975
0.00260356
0.00240144
0.0023493
0.00224345
0.00209004
0.00197632
0.00189481
0.00210231
0.00243344
0.00218543
0.00227262
0.0019165
0.00189238
0.00199778
0.00180712
0.00190313
0.00208612
0.00200447
0.00221519
0.00221251
0.00210567
0.00207947
0.00157522
0.00164507
0.00155912
0.00155341
0.00164593
0.00174732
0.00161333
0.00147543
0.00135956
0.00102494
0.00136961
0.00101303
0.00125544
0.0011901
0.00123194
0.0015284
0.00126203
0.00156063
0.00126727
0.00129926
0.00132279
0.00108762
0.00096409
0.000879108
0.000985503
0.000850599
0.00111421
0.000504974
0.000574101
0.00053363
0.000191164
0.000156362
0.000285774
0.00060586
0.00042789
0.000477468
0.000354615
0.000430764
0.000385322
0.000483223
0.000380731
0.000388139
0.000429861
0.000140477
0.000309468
0.000362343
0.000323662
0.00459068
0.00388421
0.00338205
0.00300617
0.00271141
0.00261988
0.00249666
0.00294282
0.00305974
0.00284134
0.00303898
0.00266103
0.00226387
0.00227276
0.00205427
0.00178284
0.00178355
0.00204288
0.00262364
0.00308297
0.00433877
0.00367093
0.00320355
0.00283104
0.00267819
0.00249061
0.00281582
0.00273151
0.00278663
0.00303864
0.00288678
0.00266131
0.00239354
0.00223953
0.00179989
0.00179348
0.0015464
0.001959
0.00248941
0.00295542
0.00377097
0.00328973
0.00298708
0.00273742
0.00257436
0.00248473
0.00270373
0.00253769
0.00247154
0.00247593
0.00271329
0.00232535
0.00222456
0.00207144
0.00173989
0.00173274
0.00165751
0.00177266
0.00208299
0.00240932
0.00314233
0.00273244
0.00251005
0.00231134
0.00215775
0.00223901
0.00224674
0.00239887
0.00221216
0.00231096
0.00244781
0.00213558
0.00209276
0.00172224
0.00164192
0.00149045
0.00169991
0.00155082
0.00199983
0.00192096
0.00282928
0.00215412
0.0022753
0.00197525
0.00189487
0.00162938
0.00197372
0.00190182
0.00215004
0.00215978
0.00183725
0.00166478
0.00164037
0.00152925
0.00139858
0.00129783
0.00134494
0.0014628
0.00133756
0.00157343
0.00196248
0.00179243
0.00168387
0.00121456
0.00143342
0.00120531
0.00152505
0.00151076
0.00152943
0.00173147
0.00147447
0.00140891
0.00128314
0.00140573
0.00103739
0.000736927
0.000616292
0.00117018
0.00140612
0.00132378
0.00124022
0.00108125
0.00103822
0.000919495
0.000852785
0.00107535
0.000583153
0.000856844
0.000986008
0.00097819
0.00098784
0.000935686
0.000655968
0.000575037
0.0006355
0.000451162
0.000708145
0.000521885
0.000703798
0.000873961
0.000499285
0.000485172
0.000465638
0.000527883
0.000231862
0.000304736
0.000379268
0.000233119
0.000488765
0.000178627
0.000468954
0.000363889
0.000248015
0.000230386
0.000183752
7.18718e-05
0.0004612
0.000267447
0.000143909
0.000381849
0.00405487
0.00316713
0.00262064
0.00189115
0.001661
0.00154965
0.0015155
0.00135237
0.00125144
0.00125017
0.00116412
0.00102837
0.000732105
0.000660552
0.000776188
0.000387845
0.000587309
0.00100252
0.00166988
0.00242909
0.00372306
0.00310864
0.00263044
0.00193525
0.00167992
0.00162163
0.00166929
0.00149539
0.00140488
0.00142715
0.00139259
0.00119669
0.00109383
0.000969857
0.000621603
0.000734259
0.000581798
0.00120187
0.00162687
0.00208779
0.00333098
0.00277118
0.00226999
0.00170818
0.00184492
0.00147051
0.0016752
0.00141507
0.00133305
0.00141416
0.00149117
0.00117621
0.0010817
0.00073309
0.000847634
0.000895936
0.000859971
0.00120741
0.00139675
0.00199246
0.00271291
0.00238458
0.00197879
0.00174266
0.00148988
0.00135805
0.00136839
0.00139154
0.00145085
0.00165672
0.00110047
0.00113454
0.00118831
0.000931476
0.000638937
0.000603222
0.000885258
0.000829757
0.00127281
0.00180774
0.00250283
0.00192793
0.00181073
0.0014386
0.00127544
0.00130357
0.00133725
0.00101146
0.00119302
0.00116891
0.00113503
0.00129611
0.000929656
0.000760326
0.00069764
0.000642332
0.000905234
0.000781901
0.000882362
0.00155665
0.00184878
0.00164221
0.00109756
0.00127153
0.000912689
0.00111483
0.000758285
0.00098085
0.000949602
0.000746815
0.000862844
0.000924511
0.000711113
0.000364057
0.000650651
0.000487389
0.000489664
0.00053339
0.000921988
0.000930285
0.000815885
0.000930178
0.000853527
0.000447847
0.00053782
0.000590494
0.000824181
0.000458409
0.00079008
0.000378374
0.000346809
0.000481123
0.000622583
0.000354401
0.000513465
0.000327061
0.000515379
0.000498242
0.000552654
0.000719293
0.000352965
0.000235937
0.000385254
0.000123758
0.00029349
6.0362e-05
2.82059e-05
0.00034019
0.000409986
0.000171283
0.000166565
0.000277164
0.000163989
3.46148e-05
0.000198075
3.94193e-05
0.000268568
0.00013165
0.000140915
5.94975e-05
0.00374631
0.00295315
0.00207844
0.00130258
0.000918076
0.000724438
0.00051827
0.000433893
1.74403e-05
7.23408e-05
0.000201122
4.41283e-05
8.96733e-05
0.000202826
0.000333139
0.000419408
0.000105068
0.000613565
0.00123847
0.00199887
0.00334584
0.00295447
0.00223883
0.00143002
0.00109838
0.000830122
0.000754981
0.000582589
0.000497216
0.00039481
0.000351107
0.000361546
0.000235048
5.29494e-05
0.000159253
6.96359e-05
8.22813e-05
0.000319916
0.00114052
0.00198764
0.00325551
0.00249811
0.00206172
0.00147334
0.00100353
0.0010163
0.000896519
0.000667499
0.000740498
0.000562205
0.000621862
0.000507426
0.00021812
0.000121943
0.000182262
7.69494e-05
0.000115709
0.000728691
0.00120568
0.00163593
0.00277547
0.00228369
0.0018025
0.00141413
0.00118263
0.000895516
0.000986563
0.000818384
0.000751683
0.000986496
0.000608695
0.000497341
0.00050091
8.48159e-05
0.000153997
0.000260632
0.000360431
0.000825483
0.000977056
0.00159989
0.00233564
0.00198296
0.00151736
0.00141499
0.000994146
0.000955938
0.000716662
0.000658938
0.000718106
0.000543946
0.000224176
0.00063741
0.000537022
0.000470964
0.00017275
0.000393901
0.000500908
0.000534288
0.00097766
0.00113875
0.00182964
0.0014134
0.00122385
0.000745824
0.000709484
0.000862714
0.000616781
0.000454953
0.000404755
0.00048112
0.000670137
0.000507163
0.000131004
0.00036098
0.00014858
0.000403283
0.000216979
0.000341331
0.000355421
0.000909313
0.00105944
0.000783836
0.000644226
0.000540459
0.000393949
0.000572144
0.000553382
0.000362456
0.000501474
0.00019078
0.000321877
0.000281548
0.000260709
0.00017797
3.70322e-05
4.56484e-05
0.000237967
0.000202391
0.00033405
0.000644535
0.000222567
0.000283332
9.39107e-05
0.00027113
0.000149194
8.61149e-05
0.000170032
0.000145185
1.99447e-05
0.000220396
6.33844e-05
0.000212411
7.80325e-05
0.000237447
6.68206e-06
9.50836e-05
0.000170625
0.000135105
6.5231e-05
4.68022e-05
0.00425448
0.00301877
0.00233779
0.00134376
0.000599433
0.000167455
3.21155e-05
0.000267336
0.000359014
0.000444572
0.000799324
0.000709026
0.000710822
0.000824064
0.000888504
0.000673514
0.000239259
0.00034053
0.00118806
0.00204314
0.00392589
0.002821
0.00211253
0.00115889
0.000833707
0.000479306
0.000226143
8.30435e-05
0.000115111
0.000257569
0.000222248
0.000444695
0.000445389
0.000693216
0.000555099
0.00052604
7.39246e-05
0.000465573
0.0010581
0.00192741
0.00329268
0.00282399
0.00198807
0.0014825
0.00109905
0.000573919
0.000530128
0.000192539
0.000194357
5.73351e-05
7.92444e-05
0.000140378
0.000176744
0.000256587
0.000138438
0.00012438
0.000276859
0.000599343
0.00117144
0.00179358
0.00283175
0.00224948
0.00179629
0.001135
0.00088724
0.000582195
0.000244573
0.000323877
0.000264698
0.000256212
1.56842e-05
0.000100807
0.000222608
5.24832e-05
2.20353e-05
6.05719e-05
0.000252942
0.000791167
0.000993982
0.00145602
0.00240883
0.00188014
0.00175996
0.00115844
0.000665584
0.000675557
0.000539167
0.000220545
0.000460477
0.000237371
0.000203236
0.0001586
4.19076e-05
2.30802e-05
4.29554e-05
0.000176325
0.000174014
0.00063958
0.000877229
0.000973578
0.00181067
0.00139416
0.00109117
0.000699984
0.000712882
0.000524956
0.00030921
0.00021174
0.000128741
9.40518e-05
0.000326415
0.000147625
7.27769e-06
0.000188333
5.15507e-05
8.42747e-05
0.000146178
0.000455042
0.000622528
0.000836726
0.00106089
0.00102621
0.000559568
0.000552849
0.00010936
0.000456851
0.000269609
4.95035e-05
0.000206614
0.000158441
5.09152e-05
0.000170852
0.000284961
0.000121727
1.64709e-05
0.00025684
0.000358318
0.000183544
0.000335091
0.000608731
0.000362778
0.000104339
0.000301778
0.00027637
0.000232944
0.000284233
0.000138691
1.88747e-05
0.000101668
6.10955e-05
0.000178549
0.000149201
0.00025605
0.000294161
0.000172917
5.73684e-05
4.62638e-05
0.000192273
0.000443978
0.00019076
0.00494532
0.00370004
0.00250929
0.00153829
0.00115983
0.000143935
0.000192498
0.000392633
0.00051155
0.00050513
0.00102233
0.00102239
0.000866917
0.000970602
0.00100984
0.000371188
0.000205675
0.000611969
0.00167804
0.00239922
0.00447519
0.00355305
0.00262748
0.00175262
0.00112355
0.000649713
0.000129586
8.6056e-06
0.000229804
0.000471432
0.000562168
0.000783306
0.000609484
0.000739018
0.000812075
0.000382331
0.000266063
0.000684845
0.00156966
0.00238055
0.00393349
0.00322025
0.00237939
0.00165418
0.00109766
0.000512026
0.00029682
0.000355328
0.000116855
0.000215227
0.000145975
0.000274838
0.000462379
0.000468592
0.000260571
3.81614e-05
0.000114868
0.000716664
0.00136414
0.00201669
0.00331608
0.0027499
0.0019685
0.00154473
0.00092634
0.000429868
0.000244546
0.000242129
0.00026656
6.94856e-05
9.48463e-05
0.000286443
0.000315835
0.000258897
9.96855e-05
0.000193085
0.000398465
0.000781932
0.00117492
0.00190245
0.00300311
0.00229807
0.00173921
0.00136164
0.000838366
0.000819295
0.000435246
0.000460443
0.000337406
4.77364e-05
3.52003e-05
9.17529e-05
4.56648e-05
6.6283e-06
2.79481e-05
0.000224262
0.000396543
0.000825004
0.00111177
0.00139217
0.0022586
0.00160274
0.0011528
0.000857147
0.000676681
0.000307222
0.000538377
0.000115162
0.000215637
0.000238168
6.9031e-05
1.33514e-05
0.000105454
1.46141e-05
9.5514e-05
0.000248546
5.52524e-05
0.000383644
0.000692246
0.0010298
0.00119385
0.000864091
0.0006548
0.000520832
0.000421217
0.000338301
0.000133257
0.000220915
1.51144e-05
2.02093e-05
4.87781e-05
0.000213706
1.58689e-05
0.000191733
7.44177e-05
4.56189e-05
0.000278412
0.000426747
0.000543378
0.000712991
0.000528481
0.000327985
0.000455193
0.000173823
2.05691e-05
0.000263336
4.31989e-05
6.1996e-05
0.000199599
2.65469e-06
2.59077e-06
1.24508e-05
2.84007e-05
1.46977e-05
1.30252e-05
0.000141332
0.000213728
1.28907e-05
0.000474041
0.000340788
0.00614
0.00491111
0.00348952
0.00233704
0.00153643
0.000871869
0.000340199
0.000148739
0.00027143
0.000236357
0.000454217
0.000668239
0.000922746
0.000514054
0.000503258
0.000117673
0.000607754
0.00133092
0.00262344
0.00368968
0.0055714
0.00448092
0.00339374
0.00244069
0.00172396
0.00107495
0.000576674
0.000268022
0.00019779
9.16855e-06
0.000482369
0.000421838
0.000630679
0.000371937
0.000186553
0.00016781
0.000872297
0.00135353
0.0023377
0.00337556
0.00483979
0.00377741
0.00317724
0.00218484
0.0016029
0.00109396
0.000713197
0.000448145
0.000271322
0.000195237
6.37824e-05
9.71861e-05
8.85528e-05
0.000117892
6.94218e-05
0.000532554
0.000749378
0.00132142
0.00214044
0.00273138
0.0041213
0.00337786
0.00243206
0.00170073
0.00149548
0.000888691
0.000692803
0.000476123
0.000498149
3.62561e-05
1.19162e-05
0.000127654
0.000195682
0.000229556
0.000201004
0.000283093
0.000807699
0.00108267
0.00198162
0.00247253
0.00343048
0.00268604
0.00214776
0.00170626
0.00124842
0.00097614
0.000619885
0.000337196
0.000304106
0.000382232
0.000176941
0.000169429
9.52455e-05
1.80673e-05
0.000176378
0.000163521
0.000447818
0.000971938
0.00132114
0.00184832
0.00230447
0.00201183
0.00171767
0.0015351
0.000985209
0.000683442
0.000443156
0.000331944
0.000333637
0.000214742
0.000149789
0.000166749
3.62903e-05
8.17919e-05
0.000312503
0.000353662
0.000384124
0.000713416
0.00107927
0.00152654
0.00127195
0.00143367
0.000971157
0.000839256
0.000521774
0.000443002
0.000328862
0.000380971
4.44298e-05
0.00011871
0.00011755
0.000143748
0.000246035
6.8722e-05
0.000248325
0.000186043
0.00016612
0.000524762
0.000835709
0.00114142
0.00044715
0.000624876
0.000485483
0.000571598
2.67794e-06
6.73197e-05
0.00010751
2.98252e-05
0.000400778
9.58219e-05
0.000254519
7.42649e-05
0.000141817
0.000130013
2.76817e-05
0.000219089
7.41172e-05
0.000261122
0.000294597
0.000229832
0.00758833
0.0064424
0.00499109
0.00383703
0.00286709
0.00204386
0.00118583
0.000924532
0.000708946
0.000258793
0.000182032
1.0648e-06
4.92847e-06
0.000553632
0.000783751
0.0010148
0.00186293
0.00289817
0.00397028
0.00502721
0.00689979
0.00588508
0.00484437
0.00338657
0.00269016
0.00211272
0.00144627
0.000957395
0.00079189
0.000355063
0.000190365
0.000259365
0.000278545
0.000508548
0.000808871
0.00122913
0.00179951
0.00280126
0.00360956
0.00474442
0.00603172
0.0050069
0.00412164
0.00327011
0.00251948
0.00182089
0.00161131
0.00106732
0.000880985
0.000636683
0.000449156
0.0003166
0.000599361
0.00048934
0.000783179
0.00118359
0.00150791
0.00242281
0.00303096
0.00387428
0.00519509
0.0043474
0.00368098
0.00276903
0.00227425
0.0016795
0.00142785
0.00097417
0.000840354
0.000639187
0.000687683
0.000516072
0.000569486
0.000589288
0.000484618
0.00115803
0.00155623
0.00215128
0.00289414
0.00334982
0.00404257
0.00375904
0.00295758
0.00204796
0.00163075
0.0015868
0.00123693
0.000670379
0.000606924
0.00063349
0.000649427
0.000575072
0.000433919
0.000458753
0.000502776
0.000862216
0.00136438
0.00139369
0.00238662
0.00247173
0.00317963
0.00256712
0.00219388
0.00168351
0.00131007
0.00115381
0.0010439
0.000664879
0.000670784
0.000496473
0.000489833
0.0002328
0.000425354
0.000386131
0.000420781
0.000767571
0.000788816
0.00123641
0.00171278
0.00213948
0.0018282
0.00159425
0.00119353
0.00103722
0.000735257
0.00071198
0.000737318
0.000601808
0.00033199
0.000247738
0.000387548
0.000194123
0.000281287
0.000127903
0.000182102
0.000513372
0.000493582
0.000682841
0.00107489
0.00112428
0.000638964
0.000668191
0.0005134
0.000361807
9.9862e-05
0.000313658
0.000138298
6.11254e-05
3.71918e-05
0.000106602
0.000148881
7.07515e-06
6.00582e-05
0.000272597
1.70766e-05
0.000116186
0.00029296
0.000351637
0.000233346
0.000420318
0.00999208
0.00868763
0.00705218
0.00580907
0.00439224
0.00344345
0.00280688
0.00247385
0.00210415
0.00152243
0.00157639
0.00139661
0.00135515
0.00165659
0.00211827
0.00281775
0.00351944
0.00448249
0.00580356
0.00711782
0.00892506
0.00783264
0.00612763
0.0052019
0.00422041
0.00339003
0.00277745
0.00243459
0.00194223
0.00179073
0.00159035
0.00141382
0.00156236
0.00174079
0.00220228
0.00240497
0.00339151
0.00407918
0.00504342
0.0063072
0.00776168
0.0066275
0.00561901
0.00467209
0.00395384
0.00325542
0.00268482
0.00204856
0.00174727
0.00166237
0.00158701
0.00128027
0.00132425
0.00157714
0.00147423
0.00211891
0.0028261
0.00349224
0.00460526
0.00557957
0.00654119
0.0057271
0.00461135
0.00380396
0.00313009
0.00269436
0.00220251
0.00182522
0.00149514
0.00176609
0.00125788
0.00133382
0.00134145
0.0015142
0.0014141
0.00182425
0.00246935
0.00312698
0.00376409
0.00451381
0.00523007
0.00441125
0.00397775
0.00322623
0.0027178
0.00185675
0.00187485
0.0015289
0.00133917
0.0011496
0.00122202
0.00114343
0.00104937
0.00110439
0.00114165
0.00175513
0.00192342
0.00248809
0.00309322
0.00353259
0.0038051
0.00329546
0.00294488
0.00231708
0.00198103
0.00161391
0.00145143
0.00125452
0.000979663
0.000867733
0.000909465
0.00085764
0.000774581
0.000972924
0.000999608
0.00105908
0.00125808
0.00174343
0.00249772
0.002642
0.00225578
0.00204806
0.00163695
0.00148776
0.00150209
0.0011692
0.000785912
0.000737186
0.000526363
0.000586027
0.000387466
0.000391042
0.000468512
0.000573462
0.000624402
0.000962164
0.00108756
0.00116237
0.00115581
0.00150134
0.000645192
0.000614513
0.000693288
0.000632163
0.000292466
0.00031162
0.000333578
0.000362945
0.000407837
0.00044894
0.000100809
0.000228624
0.000242071
0.000374838
0.000267867
0.000217374
0.000270189
0.000309612
0.000484206
0.000545887
0.0124124
0.0110904
0.00956498
0.00799131
0.00666593
0.00600405
0.00490715
0.0042968
0.00412058
0.00356259
0.00331963
0.00344046
0.00348442
0.00361261
0.00420148
0.00491052
0.00565977
0.00683369
0.00863205
0.00965981
0.0110223
0.00972339
0.00822511
0.00727372
0.00617783
0.00513356
0.00453788
0.00397736
0.00350952
0.00328154
0.00313797
0.00305763
0.00313971
0.00338359
0.00390014
0.00439472
0.00516891
0.00630001
0.00729386
0.00845567
0.00977242
0.00854125
0.00729358
0.00624888
0.00560243
0.0045238
0.00406354
0.00367544
0.00327647
0.00295036
0.00265195
0.00287511
0.00302895
0.00304428
0.00324202
0.00384945
0.00473546
0.00534509
0.0064729
0.007362
0.00797324
0.00727197
0.00613927
0.00534544
0.00466868
0.00396289
0.00367466
0.00302354
0.00277814
0.00259157
0.00243814
0.00243886
0.00253346
0.00259677
0.00289735
0.00332862
0.00355913
0.00458968
0.00543442
0.00610341
0.0064323
0.00587165
0.00513153
0.00422366
0.00370629
0.00348828
0.00282362
0.00263938
0.00232389
0.00206609
0.00200214
0.00179594
0.00194292
0.00223819
0.00246543
0.00275928
0.00316105
0.00357845
0.00410328
0.00479679
0.00466761
0.00409849
0.00376601
0.00328489
0.0026679
0.00230156
0.0021467
0.0020044
0.00171174
0.00151116
0.00164329
0.00147512
0.00154327
0.00161914
0.00162799
0.00182646
0.00205062
0.00252875
0.00310199
0.00354083
0.00279701
0.00269805
0.00215426
0.00186301
0.00164247
0.00132128
0.00121925
0.00107625
0.000994451
0.00106031
0.00099217
0.00110163
0.00113768
0.00105274
0.00116197
0.00116103
0.00129906
0.0014427
0.00180641
0.00222506
0.00088815
0.000817631
0.000737281
0.000563924
0.000572834
0.000422365
0.000438271
0.000476847
0.000236644
0.000158123
0.000299972
0.000473559
0.000110024
0.000179553
0.000388632
0.00038694
0.000491217
0.000642951
0.000664363
0.000591995
0.0155456
0.0138723
0.0125881
0.0105895
0.00961333
0.00844863
0.00760333
0.00682846
0.00634977
0.00597181
0.00583185
0.00582552
0.00585934
0.00619676
0.00650977
0.00740598
0.00844264
0.0097852
0.0112931
0.0125684
0.0136408
0.0124877
0.0110692
0.00988958
0.00865613
0.0075828
0.00657557
0.00616614
0.00590184
0.00546223
0.00517145
0.00525746
0.00519051
0.00556068
0.00615722
0.00662693
0.00734837
0.0084
0.00986968
0.0110579
0.0121093
0.0108584
0.00946787
0.00842343
0.00760804
0.00648068
0.00611749
0.00529607
0.00490751
0.00489153
0.00475034
0.00442969
0.00447452
0.00502946
0.00524403
0.00580406
0.006359
0.00745312
0.00835773
0.00938245
0.0100353
0.00894023
0.0080193
0.00709831
0.0063202
0.00538503
0.00517886
0.00473014
0.00399992
0.0042181
0.00381546
0.0037527
0.00410122
0.0041271
0.00455778
0.00498816
0.00536414
0.0062377
0.00695747
0.00798801
0.00810338
0.00729214
0.00640087
0.0056547
0.00501451
0.00454291
0.00410031
0.00356192
0.00373289
0.00325821
0.00330075
0.00324997
0.00289102
0.00331392
0.00333768
0.00384868
0.00458803
0.00484009
0.00577204
0.00619914
0.00581246
0.00531888
0.00467436
0.00396648
0.00373645
0.00314879
0.00288737
0.00266654
0.00260652
0.00252845
0.00259315
0.00220416
0.00225847
0.00245589
0.00267457
0.00291004
0.00325411
0.00352116
0.00414398
0.00426607
0.00336161
0.00333324
0.00286547
0.00242676
0.00229505
0.00218887
0.00169845
0.00171813
0.00122254
0.00175399
0.00149246
0.00148408
0.00150134
0.0015183
0.00163085
0.00164307
0.00209306
0.00216383
0.00240149
0.00285309
0.00114595
0.00111731
0.000967064
0.00121259
0.000838657
0.00072961
0.000412125
0.000428566
0.000670868
0.00049295
0.00037981
0.000577155
0.00062401
0.000501748
0.000576803
0.000662652
0.000841782
0.000828107
0.000810706
0.000807517
0.019281
0.0174925
0.0157971
0.0141827
0.0125393
0.0115212
0.0104634
0.0098308
0.00920639
0.00882898
0.00861929
0.00865936
0.00878981
0.00901226
0.00978236
0.0104381
0.0116479
0.012929
0.0146488
0.01614
0.0169264
0.0154807
0.0139265
0.0124754
0.0112842
0.0102762
0.00921566
0.00883682
0.00815372
0.00785063
0.0077732
0.00786559
0.0077606
0.00799598
0.00867899
0.0096046
0.010393
0.0114018
0.0127902
0.0139355
0.0144245
0.0133297
0.0121877
0.0108217
0.0100039
0.00893464
0.00822491
0.00751551
0.00710227
0.00691686