/*--------------------------------*- C++ -*----------------------------------*\
| =========                 |                                                 |
| \\      /  F ield         | OpenFOAM: The Open Source CFD Toolbox           |
|  \\    /   O peration     | Version:  2212                                  |
|   \\  /    A nd           | Website:  www.openfoam.com                      |
|    \\/     M anipulation  |                                                 |
\*---------------------------------------------------------------------------*/
FoamFile
{
    version     2.0;
    format      ascii;
    arch        "LSB;label=32;scalar=64";
    class       volScalarField;
    location    "0";
    object      relativeErrorField;
}
// * * * * * * * * * * * * * * * * * * * * * * * * * * * * * * * * * * * * * //

dimensions      [0 0 0 1 0 0 0];

internalField   nonuniform List<scalar> 
3200
(
0.00649796
0.00692753
0.00758952
0.00815198
0.00901157
0.00999154
0.0110649
0.011895
0.0126698
0.0131498
0.0136123
0.0139193
0.0137689
0.0136931
0.0131762
0.0129746
0.0125777
0.0124277
0.0122989
0.012098
0.00559039
0.00573758
0.00613367
0.00668183
0.00760404
0.00827916
0.00914259
0.00991887
0.0106711
0.0112154
0.011427
0.0117304
0.0118745
0.0114037
0.0111847
0.0109594
0.0106669
0.0103623
0.0104525
0.0102342
0.00447786
0.00473662
0.00504448
0.00556822
0.00630424
0.00670889
0.00773438
0.00843083
0.00864014
0.00927723
0.00955933
0.00960441
0.00964436
0.0094897
0.00915695
0.00920763
0.00885243
0.00867672
0.00870768
0.00888344
0.00366886
0.00373485
0.00412446
0.00420478
0.00505563
0.00541934
0.00603054
0.00671357
0.00712239
0.00742127
0.0077424
0.00788635
0.00751554
0.00745927
0.00762683
0.00735194
0.00737717
0.00684208
0.0068735
0.00679036
0.00278308
0.00276482
0.00305729
0.0035586
0.00393979
0.0041576
0.00465925
0.00504101
0.00559777
0.00565936
0.00597696
0.0059675
0.00589992
0.00586031
0.00550185
0.0056149
0.00543519
0.00524126
0.00509742
0.00511818
0.00203074
0.00209662
0.00217842
0.00235917
0.00264247
0.00310293
0.00340719
0.00373384
0.00372111
0.0041132
0.0040648
0.00415468
0.00417606
0.00420403
0.00399181
0.00402674
0.00378523
0.00386222
0.00395071
0.00381773
0.00125336
0.00121395
0.00136302
0.00148268
0.00173468
0.00183522
0.00205445
0.00216941
0.00239496
0.00262184
0.00240664
0.00268447
0.00249339
0.00248855
0.00259275
0.0024588
0.0023962
0.00210418
0.00243979
0.00237143
0.000508156
0.000578531
0.000513888
0.000512047
0.000562993
0.00066846
0.000591437
0.000803421
0.000579276
0.00101553
0.000852571
0.000979045
0.000704599
0.00100899
0.000726619
0.000688796
0.0008455
0.000745287
0.000681215
0.000584931
0.00467958
0.00462293
0.00525777
0.00594033
0.00674259
0.00762369
0.00836423
0.00938445
0.0103209
0.0109025
0.0111526
0.0112508
0.0112758
0.0111191
0.0110357
0.0105467
0.0105399
0.010299
0.010233
0.0102422
0.00371544
0.00406957
0.00431526
0.00501815
0.00561395
0.00659899
0.0070966
0.00798546
0.00867779
0.00927292
0.00942736
0.00976719
0.00967915
0.00949839
0.00945832
0.00912307
0.00884427
0.00871592
0.00845339
0.00867481
0.00303437
0.00322222
0.00365572
0.00404347
0.00465242
0.00535428
0.00609125
0.0066607
0.00714924
0.00762912
0.00795956
0.00802174
0.00797008
0.00787659
0.00747848
0.00734607
0.00739605
0.00733603
0.00714875
0.00719808
0.00257886
0.00258204
0.00315891
0.00317832
0.00387821
0.00436952
0.00493651
0.00518946
0.00591205
0.00627426
0.00630426
0.00650593
0.00650054
0.00615494
0.00612444
0.00580787
0.00577629
0.00573037
0.00570979
0.00571329
0.00215542
0.00193855
0.00207908
0.00274437
0.00299604
0.00318521
0.00377459
0.0041233
0.00438995
0.00486015
0.00477865
0.00515415
0.00495239
0.00491041
0.00476462
0.00463748
0.00441846
0.00472137
0.00465017
0.00426501
0.00133823
0.00144695
0.00138105
0.00176785
0.00202402
0.0024475
0.00257155
0.00287006
0.0032898
0.00365037
0.00342034
0.00347782
0.00347987
0.00339175
0.00323805
0.00298902
0.00319637
0.00314855
0.00311278
0.00336463
0.00092229
0.00116018
0.00105383
0.00109165
0.00156634
0.0015843
0.00159192
0.0017991
0.0017479
0.00196005
0.00210344
0.0025059
0.00206919
0.00211251
0.00179956
0.00196466
0.00184179
0.00202273
0.00183581
0.00158456
0.000449634
0.000405904
0.000288495
0.00030912
0.000262004
0.000466171
0.000564086
0.000556794
0.000482694
0.000745013
0.00065017
0.000689565
0.000871906
0.000681651
0.000691323
0.000638865
0.000550595
0.000591677
0.000472584
0.000749469
0.00170826
0.00202791
0.00238751
0.00324094
0.00385328
0.00471717
0.00571147
0.00625995
0.00695138
0.00764426
0.00791814
0.00816411
0.00827139
0.00778951
0.00789168
0.00794587
0.00751905
0.00747337
0.00746935
0.00747762
0.00140143
0.00150837
0.00204509
0.0026449
0.00303486
0.00364812
0.00461124
0.00531296
0.00603488
0.00654655
0.00672017
0.00670215
0.00679207
0.00668827
0.00658944
0.00648386
0.00635895
0.00608224
0.00632155
0.00614101
0.00113121
0.00148603
0.00169328
0.00201089
0.00238263
0.00309377
0.00382774
0.00439969
0.00485733
0.00531602
0.005842
0.00547214
0.0057147
0.00551154
0.00543448
0.00526674
0.00502789
0.00529903
0.00526739
0.00502304
0.000755901
0.00120331
0.00127585
0.00171628
0.00195139
0.00267966
0.00308151
0.00358899
0.00411469
0.00439184
0.00443927
0.00474853
0.00443775
0.00442335
0.00425883
0.00420724
0.00413896
0.00406578
0.00421031
0.00411482
0.000502141
0.00073006
0.000969402
0.0011012
0.00164685
0.00197142
0.00223527
0.00282305
0.00282208
0.00307923
0.00309014
0.00359859
0.00377176
0.00351578
0.00350894
0.00338688
0.00320208
0.00337474
0.00307345
0.00314815
0.000591798
0.000415838
0.000919917
0.0010277
0.00119291
0.00149186
0.00145765
0.00195025
0.00218161
0.00233487
0.0023081
0.00246753
0.00253411
0.0024599
0.00235253
0.00221635
0.0022171
0.00222447
0.00255467
0.00233646
0.000461765
0.000299131
0.000391641
0.000651286
0.00061885
0.000684909
0.00103807
0.0012988
0.00116758
0.00127095
0.00142637
0.00171109
0.00152673
0.00144363
0.0014175
0.00121667
0.00120642
0.00147001
0.00117396
0.00117336
0.000259291
2.82243e-05
0.000204468
9.42344e-05
4.18647e-05
0.000270677
0.000303419
0.000478606
0.000689712
0.000472564
0.000404479
0.000453051
0.000569761
0.000358434
0.000491823
0.000565276
0.000255976
0.000324655
0.000471321
0.00057733
0.000751627
0.00057813
0.000324349
0.000243219
0.000630807
0.00141222
0.00219904
0.00310032
0.00374982
0.0045032
0.00465262
0.00465777
0.00494183
0.00465123
0.00458643
0.00446637
0.00453933
0.0044546
0.00464852
0.00480892
0.000857715
0.000885401
0.000255941
0.000140272
0.000507321
0.00100649
0.00190239
0.00217747
0.0030161
0.00357009
0.00369812
0.0038751
0.00412382
0.00396857
0.00392761
0.00387998
0.0036265
0.00337529
0.00374359
0.00380078
0.000821624
0.000816713
0.000348689
0.000251747
0.000391797
0.000725997
0.00109454
0.00191508
0.00228474
0.00289919
0.00311182
0.00338939
0.00321587
0.00307774
0.00294003
0.00287823
0.00285352
0.00290767
0.00302257
0.00319128
0.000564637
0.000650291
0.00048601
0.000110315
0.000111135
0.000280172
0.000883354
0.001488
0.00188284
0.00212628
0.00221899
0.00255213
0.00215261
0.00238085
0.00254433
0.00243796
0.00203987
0.00229162
0.00223363
0.00253404
0.000431363
0.000537576
0.000340434
2.55724e-05
0.000167071
0.000433322
0.000769001
0.00111712
0.00140154
0.00150938
0.0019409
0.0018547
0.00205612
0.00176789
0.00154122
0.00179355
0.00175636
0.00152105
0.00179114
0.00187664
7.18202e-05
0.000508546
0.000324668
0.000273495
0.000134924
0.000263468
0.000442782
0.000795454
0.000946038
0.00131759
0.00119308
0.00133379
0.00124688
0.00119218
0.00132857
0.00133227
0.00126448
0.00138521
0.00122437
0.00136401
0.000208044
0.000204875
7.93814e-05
0.000148102
0.00014416
0.000105013
0.000261767
0.000347192
0.000791485
0.000637609
0.000759925
0.000959753
0.000928767
0.000577747
0.000724544
0.000517381
0.000776006
0.000696292
0.00076346
0.000903776
2.71387e-05
6.14061e-05
0.000101243
9.10313e-05
0.00015203
4.86397e-05
1.54563e-08
5.55894e-05
0.000247825
0.000184719
0.00020642
5.18544e-05
0.000316878
0.000232742
0.000219164
0.000300665
0.000376865
0.000407339
0.000299802
0.000444833
0.00341561
0.0034073
0.00305048
0.00285294
0.00213996
0.00162951
0.000930446
0.000184754
0.00032428
0.000955677
0.00126742
0.0015089
0.00158225
0.00125096
0.00157352
0.00156579
0.00152294
0.00160198
0.00172511
0.00206264
0.00297341
0.00307225
0.0028974
0.00252152
0.002243
0.00155863
0.00104477
0.000400009
5.13194e-05
0.000740511
0.00090131
0.000972283
0.00112811
0.000946869
0.00118144
0.00110362
0.000949859
0.00121107
0.00120985
0.00136427
0.00273564
0.0026029
0.00232615
0.00230081
0.00185865
0.00146355
0.00127098
0.000459695
4.21294e-05
0.000187444
0.000648262
0.000598273
0.000770865
0.000831245
0.000824546
0.000525323
0.000578678
0.000758065
0.000967736
0.00132727
0.00219772
0.00212549
0.00216803
0.00197995
0.00163787
0.00143302
0.000855913
0.00055498
0.000288105
0.000400885
0.000404113
0.000427198
0.000594523
0.000463341
0.000367688
0.000507381
0.000496384
0.000601388
0.000581546
0.000507173
0.00188829
0.00166404
0.00181386
0.00153855
0.00140496
0.00106574
0.000949317
0.00055285
0.000113709
0.000111664
0.000191235
0.000284398
0.000367287
0.000503197
0.000265764
0.000290499
0.000331217
0.000447146
0.000608917
0.000642622
0.00136027
0.00110237
0.00104193
0.00131922
0.00088221
0.00073321
0.000447263
0.000281288
1.92948e-05
1.32183e-05
0.000123575
5.53916e-05
0.00048588
9.64537e-05
0.000187187
0.000106895
0.000209849
0.000152751
0.000536712
0.000353748
0.000748664
0.000559459
0.00062808
0.000625887
0.000543337
0.000514641
0.000412684
0.000138663
0.000491052
5.75313e-05
0.000287009
0.000201801
0.000204343
0.000252579
2.47106e-05
4.95711e-05
3.20893e-06
9.68641e-05
0.000275286
0.000321101
0.000511822
0.000307404
0.000256736
0.000231291
0.000379816
0.000187312
5.95643e-06
1.52993e-05
0.000133238
0.000138563
4.12805e-05
0.000271477
4.6255e-05
4.57772e-05
2.13323e-05
1.46555e-05
4.67247e-05
8.23362e-05
0.000108827
0.000165916
0.00584047
0.00592915
0.00580271
0.00534293
0.00517434
0.00464631
0.00395459
0.0032948
0.00253678
0.00241414
0.0017426
0.001478
0.00158427
0.0015396
0.00155296
0.0013419
0.00132765
0.00112311
0.000709536
0.000430056
0.00497881
0.00508562
0.00504233
0.00480327
0.00463619
0.00422188
0.00352433
0.00289122
0.00273825
0.00217134
0.00187828
0.00183301
0.00189085
0.00147696
0.00178062
0.00167379
0.00158379
0.00122319
0.000861646
0.000440235
0.00434954
0.004517
0.00442636
0.00445054
0.00409492
0.00360975
0.00322879
0.00277226
0.00241329
0.00228982
0.00181932
0.00156718
0.00172471
0.00141199
0.00169483
0.00140226
0.00148312
0.00129453
0.00095826
0.000662191
0.00381898
0.00377352
0.00381119
0.003841
0.00316671
0.00301576
0.00274089
0.00246737
0.00224847
0.0019122
0.00159832
0.0014859
0.00140917
0.00143001
0.00148057
0.00142674
0.00132314
0.00125486
0.000959276
0.000576983
0.00298108
0.00322124
0.00296315
0.00273639
0.00252532
0.00258798
0.00203862
0.00199671
0.0014095
0.00161144
0.00145523
0.00143716
0.00143756
0.00108397
0.00104637
0.00102965
0.00107602
0.000921238
0.000954554
0.000443182
0.0023669
0.00206423
0.0021162
0.00214922
0.00190239
0.00182621
0.00173696
0.00151042
0.00143784
0.00112057
0.000839433
0.000995635
0.000725388
0.0011051
0.000990109
0.000773392
0.000728617
0.000489731
0.000723122
0.000488933
0.00113938
0.00143854
0.00150228
0.00122219
0.00125142
0.00127919
0.00106215
0.000811629
0.000790056
0.000837988
0.00072018
0.000752604
0.000535657
0.0006151
0.000414373
0.000677673
0.000520275
0.000284151
0.000374948
0.000273905
0.000211445
0.000519317
0.000469643
0.000589373
0.000378888
0.000341974
0.000309184
0.000215756
0.000416536
0.000262862
0.000139733
0.00025176
0.00020046
0.000126664
0.000151245
0.000132886
0.000161905
0.000304623
0.000400996
0.000100205
0.00802963
0.00807666
0.00784814
0.00802034
0.00742721
0.00719125
0.00655415
0.00623887
0.00560822
0.00513604
0.00481345
0.00464057
0.00458419
0.00426534
0.00413358
0.00395471
0.00392042
0.00369918
0.00314937
0.00247772
0.00694298
0.00685235
0.00702317
0.00715812
0.00684115
0.00654395
0.00604138
0.00551489
0.00525739
0.00471524
0.00447035
0.00436279
0.00418395
0.00395196
0.0041505
0.00367922
0.0035747
0.0033615
0.00298213
0.00237958
0.00593412
0.00602122
0.00619399
0.00628646
0.00589085
0.00575689
0.00519892
0.00477842
0.00448518
0.00423321
0.00414477
0.00385691
0.00395417
0.00369787
0.00367999
0.00330927
0.00330311
0.00308834
0.00284558
0.00256868
0.00500709
0.00508595
0.00512467
0.00511313
0.00497775
0.00460033
0.0045038
0.00419176
0.00394593
0.00361592
0.00351466
0.00332708
0.00313144
0.00303362
0.00301146
0.0029043
0.00292246
0.00272482
0.00218839
0.00203094
0.00379057
0.00429148
0.00386427
0.00428077
0.00378566
0.00390232
0.00332842
0.00326753
0.00334274
0.00290398
0.00294193
0.00254589
0.00254349
0.00230425
0.00253568
0.00230469
0.00201808
0.00230698
0.00185837
0.00165557
0.00290671
0.00302344
0.0029334
0.00313748
0.00295492
0.00268511
0.00260913
0.00243767
0.00212699
0.00209289
0.00185957
0.00200128
0.0018785
0.00187611
0.0019185
0.00191959
0.00152049
0.00147026
0.00139726
0.00112005
0.0016714
0.00191522
0.00147721
0.00169432
0.00172193
0.0016839
0.0015462
0.00144951
0.00151391
0.00148853
0.00102266
0.0011957
0.00131448
0.00125437
0.00129654
0.00092918
0.00114718
0.000776988
0.000684305
0.000834416
0.000640348
0.000550273
0.000537461
0.0006611
0.000703283
0.000500087
0.000463064
0.00050919
0.00070937
0.000562175
0.000429705
0.000331595
0.000515404
0.000324639
0.000322911
0.000369669
0.000316142
0.000215243
0.000302499
0.000411912
0.00940547
0.00974188
0.00994156
0.00999532
0.00988143
0.00964116
0.00908521
0.00867047
0.00830138
0.00760034
0.00752048
0.00742402
0.00727513
0.00676781
0.00678534
0.0065326
0.00620167
0.00569359
0.00492804
0.00469523
0.00857533
0.00861771
0.00888712
0.00884187
0.00879322
0.00850096
0.00831397
0.00810047
0.00743208
0.00699856
0.00683953
0.00644963
0.00654784
0.00613368
0.0060755
0.00584283
0.00558939
0.00515369
0.00492287
0.0043461
0.00727313
0.00747972
0.00760265
0.00774018
0.00742462
0.00720344
0.00715654
0.00685018
0.00650332
0.00621796
0.00586002
0.00587698
0.00555587
0.00567607
0.00553734
0.00535282
0.00510469
0.00465203
0.00422708
0.0039453
0.00604349
0.00640606
0.0063045
0.0063614
0.00618573
0.00642666
0.00595415
0.00559076
0.00563581
0.00529042
0.00508647
0.00498043
0.00480729
0.00468751
0.0043889
0.00439784
0.00427489
0.00388081
0.00380738
0.00325353
0.00467199
0.00482381
0.00507006
0.00501702
0.00515741
0.00505264
0.00486522
0.00464909
0.00449039
0.00421154
0.00415934
0.00390509
0.00406641
0.00396245
0.0036867
0.00358519
0.00346112
0.00323325
0.00288144
0.00255148
0.00343162
0.00351481
0.00354529
0.00369264
0.00369783
0.00364931
0.00348063
0.00342371
0.00294746
0.00311246
0.00306205
0.00300882
0.00296639
0.00279109
0.00275339
0.00263623
0.00257455
0.00222566
0.00202264
0.00188077
0.00215865
0.00224421
0.00225994
0.00209015
0.00214444
0.00227748
0.0022124
0.0020267
0.00186169
0.00203423
0.00197446
0.00177917
0.0016316
0.0018019
0.00165223
0.00159967
0.00148392
0.00135049
0.00125544
0.00130935
0.000754396
0.000937497
0.000894532
0.000731084
0.000693322
0.000763289
0.000754363
0.000714223
0.000780728
0.000593893
0.000602781
0.000667795
0.000628778
0.000463373
0.000380278
0.000672422
0.000559081
0.000545084
0.000450183
0.000569326
0.0110143
0.0114395
0.0118636
0.0119181
0.0115257
0.0116423
0.0114976
0.0108153
0.0104564
0.0101199
0.00992217
0.00966172
0.00950989
0.00919983
0.00887627
0.00851655
0.00821127
0.00744431
0.00698098
0.00601161
0.0097415
0.0100662
0.0103567
0.0104224
0.0105752
0.0101949
0.0100522
0.00984194
0.00950625
0.00908235
0.00887381
0.00869819
0.00844395
0.00827701
0.00823392
0.00777291
0.00722639
0.00671313
0.00613768
0.00567091
0.00828652
0.00861377
0.0087573
0.00895004
0.00888539
0.00898386
0.00866416
0.00857027
0.00821539
0.00798841
0.00789951
0.00739246
0.00735031
0.00732087
0.00715352
0.00671064
0.0063031
0.00600603
0.00549073
0.00506446
0.0069286
0.00713543
0.00730274
0.00736937
0.00729547
0.00744851
0.00726336
0.00712903
0.00708692
0.00673629
0.00634039
0.00613596
0.00632915
0.00598882
0.00609813
0.00571362
0.00535693
0.00506377
0.00482984
0.00437516
0.00549967
0.00588429
0.00580166
0.00584657
0.00580759
0.00582113
0.00585981
0.00570926
0.00559377
0.00534819
0.00520724
0.00504137
0.0051641
0.00488857
0.00463609
0.00445181
0.00429859
0.00413919
0.00396897
0.00330948
0.00374573
0.00413674
0.00413436
0.00452308
0.00453151
0.00413565
0.00432297
0.00400955
0.00417465
0.00384868
0.00374449
0.00362277
0.00351857
0.00348528
0.00341567
0.00321646
0.00296213
0.00283682
0.0029655
0.00249781
0.00222849
0.00254122
0.00258615
0.00266305
0.00262361
0.00249472
0.00268047
0.00249642
0.00249031
0.00241771
0.00243486
0.00207478
0.00230584
0.00205344
0.00213496
0.00210216
0.00185992
0.00160201
0.00167398
0.00158952
0.000820547
0.000764708
0.000826448
0.000673632
0.000976326
0.000831559
0.000872452
0.000925323
0.000810843
0.000625276
0.000851382
0.00100581
0.000975091
0.000845577
0.000786828
0.000788434
0.000596162
0.000577299
0.000593798
0.000511795
0.0119098
0.0125869
0.0130937
0.0130283
0.0132124
0.0132705
0.0131115
0.0128236
0.0126557
0.0121632
0.011845
0.0114925
0.0113645
0.0109571
0.0106419
0.0102369
0.0096912
0.00886408
0.00830916
0.00749438
0.0107104
0.011131
0.0115606
0.011447
0.0117757
0.0116946
0.0117597
0.0115208
0.0110396
0.0109655
0.0103361
0.0103682
0.0102221
0.00984691
0.0095375
0.00922284
0.00866485
0.00818526
0.00757911
0.00673711
0.00909417
0.00956172
0.00993429
0.0100791
0.0101604
0.0102998
0.010099
0.0100275
0.00952801
0.00953665
0.00908467
0.00887241
0.00878279
0.00872982
0.00837961
0.0080222
0.00755853
0.00723883
0.00635275
0.00587813
0.00756273
0.0079306
0.00822383
0.00849292
0.00851474
0.00848726
0.00835116
0.00827094
0.00814697
0.00788735
0.00780927
0.00761305
0.00737747
0.00722163
0.00706652
0.00671331
0.00617663
0.00601469
0.00540404
0.00482145
0.00607436
0.00638626
0.00639019
0.00695275
0.00681217
0.00670492
0.00670274
0.00656594
0.0064828
0.00638783
0.00619221
0.00601445
0.00612321
0.00570645
0.00547783
0.00529662
0.00515619
0.00467306
0.00431539
0.00400842
0.0042944
0.00448079
0.00467656
0.00465046
0.00497806
0.00479076
0.00490017
0.00475835
0.00471889
0.00476031
0.00441228
0.00445658
0.00428457
0.00422149
0.00407059
0.00391484
0.0036729
0.0034726
0.00302143
0.00307516
0.00263998
0.00281326
0.0029196
0.00285643
0.00291637
0.0029484
0.00287695
0.00297813
0.00295747
0.00280407
0.00283912
0.00271025
0.00247813
0.00241656
0.00257633
0.00252939
0.00230166
0.00196837
0.00211238
0.00186
0.00102628
0.000845917
0.000749618
0.000924736
0.00105967
0.00101288
0.00080321
0.0008654
0.000855032
0.000810072
0.000984029
0.000940453
0.000831138
0.00103268
0.000871192
0.000930711
0.00079772
0.000895585
0.000782379
0.000779619
0.0129058
0.0132499
0.0140218
0.0141364
0.0145267
0.0146636
0.0146169
0.0140745
0.0140043
0.013688
0.0134991
0.0132345
0.0130172
0.0125994
0.0121602
0.0114496
0.0108199
0.00995025
0.0093149
0.00825289
0.0112784
0.0119296
0.0124407
0.0125645
0.0126756
0.0129639
0.0128785
0.012556
0.0125682
0.0122886
0.0120133
0.0117085
0.0114727
0.0111215
0.0108827
0.0101934
0.00971541
0.00909299
0.00811602
0.00758775
0.0097791
0.0101496
0.010526
0.0106867
0.0112198
0.0110283
0.0110962
0.0111578
0.0107102
0.0103726
0.010415
0.0100757
0.0100606
0.00952338
0.00926233
0.00899879
0.00856335
0.00807307
0.00735759
0.00668795
0.00793148
0.0083017
0.00878427
0.0090088
0.00924806
0.00943283
0.009034
0.00896239
0.00902634
0.0088569
0.00863793
0.0085375
0.0083554
0.00819118
0.00800022
0.00761287
0.00710081
0.00649391
0.00614067
0.00538767
0.00613166
0.00663008
0.00692861
0.00723912
0.00719708
0.00722261
0.0072298
0.00722435
0.00702512
0.00686587
0.00686756
0.00668204
0.00665245
0.00631695
0.00637744
0.00587908
0.00554813
0.00543496
0.00472657
0.00452258
0.00478764
0.0047663
0.00510343
0.00515303
0.0052269
0.00536914
0.00524029
0.00520246
0.00504678
0.00499231
0.00471756
0.00493628
0.00469559
0.00473821
0.00458545
0.00425319
0.00418029
0.00410389
0.00350127
0.00324227
0.00250391
0.00291646
0.00302413
0.00310674
0.00335149
0.00327152
0.00314584
0.00328802
0.00311541
0.00317276
0.00314899
0.00296477
0.00292363
0.00280351
0.00271512
0.0025674
0.00266993
0.00235416
0.00198656
0.00175789
0.000788551
0.000958972
0.00112278
0.00106249
0.00112175
0.00116868
0.00101096
0.00100998
0.00109432
0.000994784
0.00103685
0.00111991
0.000893059
0.000965116
0.00109742
0.00101507
0.000642634
0.000681141
0.00071554
0.000567077
0.0129605
0.0138068
0.0144714
0.0149529
0.0152926
0.0154923
0.0156207
0.0153298
0.0153048
0.0149698
0.0147652
0.014281
0.0140523
0.0137789
0.0129568
0.0123154
0.011615
0.0107712
0.0097941
0.00879409
0.0113812
0.0121592
0.0127288
0.0131149
0.0135856
0.0136129
0.0137282
0.0134684
0.0136139
0.0134473
0.0128833
0.012722
0.0123878
0.0121792
0.0116714
0.0111528
0.0104125
0.00969835
0.00885003
0.00784703
0.00972539
0.0103828
0.0109139
0.0113983
0.0116672
0.011806
0.0120103
0.011784
0.0115175
0.0116435
0.0114254
0.0110345
0.0106222
0.0105551
0.0102354
0.00967204
0.00913399
0.00835806
0.00764335
0.00687407
0.00806958
0.00850613
0.00899275
0.00945743
0.00977207
0.00988986
0.00978225
0.00985091
0.00975519
0.00987936
0.00949011
0.00920326
0.00905122
0.00880974
0.00851445
0.00805711
0.00758203
0.00704199
0.00632439
0.00592291
0.00645959
0.00697557
0.00729142
0.00755167
0.00759155
0.00756553
0.00778038
0.00787683
0.00798396
0.00757172
0.00750178
0.00740743
0.00722652
0.00703692
0.00665526
0.00657741
0.00606449
0.00543661
0.0050676
0.00466569
0.00469911
0.00503939
0.00501977
0.00544557
0.00553161
0.00542436
0.00547224
0.00565918
0.00562849
0.00545662
0.00536213
0.0054106
0.00523355
0.00517216
0.0049383
0.00469324
0.00445098
0.00418254
0.00367322
0.00333946
0.00267402
0.00289691
0.00305884
0.00334599
0.00338411
0.00321675
0.00336482
0.00343298
0.00342793
0.00345923
0.00327089
0.00326303
0.00322134
0.0031421
0.00279445
0.00287098
0.00272476
0.00233502
0.0021537
0.0020981
0.000899743
0.000919426
0.00124961
0.00119404
0.000908567
0.00121664
0.00139025
0.00123977
0.00117458
0.00102646
0.00128291
0.00126042
0.00103453
0.00106536
0.00104853
0.00101732
0.00112756
0.000889131
0.000836158
0.000718358
0.0129755
0.0137214
0.0145273
0.0153604
0.0158559
0.0161278
0.016046
0.0162505
0.0160008
0.0157068
0.0153049
0.0152215
0.0149216
0.0143796
0.0135516
0.0130717
0.0118316
0.0112264
0.00992871
0.00895814
0.0115505
0.0121697
0.0126702
0.0135511
0.0139637
0.014147
0.0141686
0.0142381
0.0141936
0.0139198
0.0138667
0.0135184
0.0131257
0.0126897
0.0122272
0.0115462
0.0109191
0.00995971
0.00888555
0.00781808
0.00980908
0.0105089
0.010753
0.0112294
0.011968
0.0123455
0.0120901
0.0122651
0.0122444
0.0123201
0.0118834
0.0114135
0.0113417
0.0110748
0.0106501
0.0102351
0.00933114
0.00857202
0.00798344
0.00723928
0.00798514
0.00880053
0.0090747
0.00941527
0.00992165
0.00996945
0.0102528
0.0101496
0.0102973
0.0102554
0.00985735
0.00976344
0.00947806
0.00928345
0.00887011
0.0085437
0.00773766
0.00743042
0.00657023
0.00609821
0.00628224
0.00690935
0.00723946
0.00733603
0.00788156
0.00788258
0.00813082
0.00815203
0.00801111
0.00803951
0.00808909
0.0076059
0.0075086
0.00730489
0.00705636
0.00681676
0.00621539
0.00554435
0.00500945
0.00453071
0.00466782
0.00505718
0.00511704
0.00526297
0.00562316
0.00571212
0.00600393
0.00579171
0.00585998
0.00594338
0.00569367
0.00553987
0.00546728
0.00521488
0.00513943
0.00478371
0.00450327
0.00414572
0.00384922
0.00337791
0.00257556
0.00292127
0.00301517
0.00319444
0.00366334
0.00348393
0.00349886
0.00371081
0.00338925
0.00353056
0.0034775
0.00340262
0.00336083
0.00320445
0.00295712
0.00298455
0.00255744
0.00244794
0.00215332
0.0019953
0.00108379
0.000972123
0.000806505
0.00104187
0.00128955
0.000984724
0.00101667
0.00125899
0.00112687
0.00110099
0.00124758
0.00106891
0.000936097
0.00111361
0.00100848
0.000984074
0.000701093
0.000885471
0.000769106
0.000830268
0.0124792
0.0134557
0.0143133
0.0152748
0.0157015
0.0162071
0.0163344
0.0163993
0.0163284
0.0159635
0.015685
0.0156215
0.0150501
0.0145091
0.0138754
0.0131341
0.0120646
0.0109662
0.00995928
0.00870378
0.0108772
0.0119099
0.0125172
0.0134166
0.0137824
0.0140816
0.0143702
0.0144979
0.0146704
0.0142526
0.0139255
0.014118
0.0133237
0.0130934
0.0124406
0.0115638
0.0108738
0.00975483
0.00895108
0.00785489
0.00914615
0.0103263
0.0108632
0.0114062
0.011911
0.0121697
0.0121705
0.0124851
0.0121762
0.0123442
0.0121162
0.0119553
0.0117158
0.0111828
0.0106979
0.0100137
0.00937387
0.00854893
0.00745549
0.00638599
0.00759251
0.0084114
0.00890631
0.00944307
0.00981993
0.01022
0.0103411
0.010339
0.0104722
0.0104185
0.00998783
0.0100183
0.00978554
0.00940083
0.0089302
0.00854543
0.00774378
0.00709864
0.00630533
0.00577101
0.00622172
0.00649477
0.00715172
0.00755021
0.00769482
0.00802287
0.0080458
0.00815352
0.00821977
0.00796599
0.00821927
0.00773872
0.00764397
0.00740767
0.00708137
0.00662572
0.00636554
0.00556646
0.00503382
0.00465943
0.00466449
0.00480848
0.00497354
0.00533951
0.00571762
0.00576296
0.00591557
0.00595241
0.00580286
0.00589096
0.00594118
0.00573689
0.00555433
0.00515766
0.00512007
0.00502656
0.00443957
0.00400468
0.00366303
0.00325845
0.00271713
0.00276356
0.00311881
0.00335217
0.00341182
0.00346715
0.00341526
0.0038099
0.00365823
0.00355406
0.00359964
0.00356572
0.00329143
0.00328748
0.00323282
0.00277074
0.00255764
0.00254913
0.00234287
0.00213348
0.00097107
0.00107726
0.00119358
0.000968713
0.00118781
0.0011684
0.00127986
0.00137044
0.00112151
0.00106221
0.00105152
0.0012995
0.00103618
0.00111585
0.00103256
0.00102856
0.000796809
0.00092552
0.000701282
0.000629699
0.0114501
0.0124884
0.0138129
0.0146496
0.0151621
0.015684
0.0158241
0.0160705
0.0159679
0.015887
0.0158204
0.0152386
0.0150212
0.0142867
0.0137834
0.0128354
0.0116704
0.0106143
0.00907823
0.00797211
0.0102115
0.0110327
0.0118253
0.012664
0.0132432
0.0137663
0.0140312
0.0141044
0.0140284
0.0141775
0.0138121
0.013341
0.0130595
0.0126899
0.0121698
0.0115285
0.0103192
0.00921918
0.00818658
0.00735536
0.00864895
0.00954204
0.0103175
0.010951
0.0117104
0.0119832
0.0121222
0.0122347
0.0121377
0.0122007
0.0119032
0.011982
0.011425
0.0110503
0.0106053
0.00967343
0.00895171
0.00802788
0.00727723
0.00600869
0.00708807
0.00763495
0.00838635
0.00899302
0.00937371
0.00981255
0.0100714
0.0100334
0.0101387
0.0100271
0.00986247
0.00983478
0.00980662
0.00918146
0.00876597
0.00817211
0.00738325
0.00664392
0.00598251
0.00538721
0.00594944
0.00601867
0.00683544
0.00716065
0.00731033
0.00770647
0.00818141
0.00828347
0.00805095
0.00815112
0.00784599
0.00750382
0.00769617
0.00742722
0.00678147
0.0066595
0.00580267
0.00549379
0.0045829
0.00412389
0.00400463
0.00423857
0.00477014
0.00516797
0.00550032
0.00583906
0.00547587
0.00597226
0.00570778
0.00592899
0.00571385
0.00565496
0.00533846
0.00535457
0.00483488
0.00470282
0.00431295
0.00405426
0.00352281
0.00304609
0.00230744
0.00258806
0.00295308
0.00305308
0.00341148
0.00336358
0.00336613
0.00365466
0.00343703
0.00352915
0.00342
0.00351796
0.00319895
0.00321911
0.00283005
0.00276988
0.0024971
0.00215815
0.00214096
0.00164692
0.00105997
0.00111124
0.00089897
0.001147
0.00109115
0.00116665
0.0011701
0.000942814
0.00108567
0.00126405
0.00128208
0.00106896
0.00114834
0.00108182
0.00116507
0.000944966
0.000799772
0.00102895
0.000667851
0.0005428
0.0100421
0.0112391
0.0123759
0.0132692
0.0143031
0.0148315
0.0152376
0.0155655
0.0155023
0.015309
0.0151554
0.014752
0.0142578
0.0137042
0.01305
0.0119149
0.0107807
0.00945523
0.00804551
0.00687014
0.0088777
0.009924
0.0108397
0.0117736
0.0126014
0.0130962
0.0133609
0.0133394
0.0135343
0.0138083
0.013303
0.0130187
0.0128789
0.0121193
0.011427
0.0106495
0.0096492
0.00839707
0.00731823
0.00629895
0.00765052
0.0084652
0.00946722
0.0100787
0.0107452
0.0113622
0.0113593
0.011855
0.0116456
0.0117506
0.0116345
0.0111858
0.0110939
0.0105523
0.00990368
0.00919837
0.00834321
0.00737173
0.00649652
0.00540199
0.00638856
0.00687744
0.00781099
0.00838279
0.00894502
0.00929864
0.00980022
0.00962039
0.00980007
0.00997608
0.00939885
0.00921844
0.00902538
0.00878493
0.00819055
0.00764504
0.00668349
0.00609604
0.00516678
0.00454586
0.00501738
0.0053395
0.00601402
0.00668619
0.00687474
0.00715926
0.00733122
0.00771087
0.00768993
0.00778039
0.00744785
0.00735885
0.00716664
0.00694945
0.00656477
0.00616937
0.0054755
0.00494548
0.00413103
0.00354272
0.00343874
0.00410495
0.00449252
0.00464738
0.00511569
0.00541553
0.00546421
0.00556647
0.00578021
0.00564963
0.00572422
0.00512203
0.00530923
0.00488379
0.00483833
0.00443432
0.00378799
0.00376458
0.00290135
0.00243764
0.00212525
0.00236998
0.00268086
0.00292614
0.00329492
0.00329362
0.00338765
0.00334188
0.00330956
0.00336968
0.00330636
0.00355568
0.00317544
0.00295574
0.00307559
0.00266833
0.00258443
0.00211971
0.00179486
0.00150722
0.00078003
0.000639474
0.000891956
0.000843299
0.000949197
0.00132445
0.00109814
0.00140375
0.000993506
0.0014763
0.000867857
0.00106303
0.00126861
0.000795757
0.000861672
0.000826063
0.000966
0.000638796
0.000835269
0.000579425
0.0085178
0.00960565
0.0109593
0.0119666
0.01277
0.0133761
0.0139462
0.0143376
0.0142446
0.0142363
0.0140905
0.0135725
0.0132153
0.012719
0.0118729
0.0109492
0.00942898
0.00819715
0.00652045
0.00533424
0.00748475
0.00824286
0.00972317
0.0104827
0.0111604
0.0118588
0.0123143
0.0125275
0.0126399
0.0126639
0.0125936
0.0120847
0.0116532
0.0111411
0.0104047
0.00961187
0.00851488
0.00730242
0.00577886
0.00472341
0.00622485
0.00714153
0.00805796
0.00890851
0.00985029
0.0104419
0.0107639
0.0108756
0.0108417
0.0110039
0.0107007
0.0104257
0.0100869
0.00954372
0.00909041
0.00826361
0.00738177
0.00632255
0.00542016
0.0041447
0.0051485
0.00607247
0.00699122
0.00751178
0.00807257
0.00831712
0.0086684
0.00884962
0.00916515
0.0091056
0.00880446
0.00863295
0.00831265
0.00805479
0.00747463
0.00685418
0.00605677
0.00531209
0.00437326
0.00357108
0.00409318
0.00456625
0.00535943
0.00604095
0.00626341
0.00674253
0.00700316
0.00712729
0.00709209
0.00726719
0.00722041
0.00697283
0.00658528
0.00634526
0.00598574
0.00546058
0.00491834
0.00408319
0.00335621
0.00268473
0.00285584
0.00320772
0.00369703
0.00418853
0.00451913