/*--------------------------------*- C++ -*----------------------------------*\
| =========                 |                                                 |
| \\      /  F ield         | OpenFOAM: The Open Source CFD Toolbox           |
|  \\    /   O peration     | Version:  2212                                  |
|   \\  /    A nd           | Website:  www.openfoam.com                      |
|    \\/     M anipulation  |                                                 |
\*---------------------------------------------------------------------------*/
FoamFile
{
    version     2.0;
    format      ascii;
    arch        "LSB;label=32;scalar=64";
    class       volScalarField;
    location    "0";
    object      stateMean;
}
// * * * * * * * * * * * * * * * * * * * * * * * * * * * * * * * * * * * * * //

dimensions      [0 0 0 1 0 0 0];

internalField   nonuniform List<scalar> 
3200
(
318.266
318.33
318.374
318.473
318.486
318.453
318.368
318.32
318.23
318.16
318.011
317.828
317.716
317.522
317.429
317.212
317.052
316.822
316.609
316.472
315.995
316.119
316.214
316.282
316.238
316.268
316.217
316.16
316.058
315.957
315.89
315.72
315.535
315.496
315.341
315.169
315.014
314.869
314.62
314.519
313.726
313.786
313.876
313.915
313.895
313.973
313.84
313.78
313.831
313.691
313.601
313.526
313.396
313.285
313.2
312.977
312.879
312.73
312.534
312.337
311.308
311.402
311.432
311.574
311.481
311.536
311.501
311.419
311.386
311.343
311.242
311.147
311.168
311.053
310.845
310.762
310.582
310.582
310.421
310.332
308.869
308.962
308.99
308.966
308.982
309.046
309.011
308.995
308.897
308.917
308.818
308.782
308.729
308.639
308.629
308.462
308.384
308.314
308.24
308.146
306.354
306.395
306.455
306.492
306.502
306.454
306.447
306.42
306.477
306.385
306.399
306.344
306.284
306.202
306.181
306.077
306.054
305.938
305.826
305.805
303.819
303.868
303.873
303.893
303.874
303.9
303.885
303.894
303.858
303.805
303.871
303.769
303.796
303.753
303.67
303.654
303.615
303.648
303.495
303.479
301.256
301.248
301.284
301.304
301.307
301.294
301.336
301.286
301.364
301.239
301.288
301.244
301.316
301.21
301.277
301.269
301.203
301.214
301.217
301.233
318.925
319.143
319.194
319.253
319.281
319.277
319.297
319.186
319.043
318.938
318.858
318.743
318.577
318.41
318.179
318.058
317.776
317.576
317.344
317.142
316.656
316.713
316.856
316.872
316.93
316.858
316.923
316.828
316.743
316.624
316.575
316.395
316.287
316.156
315.946
315.811
315.653
315.455
315.319
315.08
314.237
314.318
314.368
314.448
314.465
314.449
314.404
314.383
314.344
314.253
314.148
314.068
313.969
313.839
313.778
313.614
313.39
313.206
313.08
312.924
311.694
311.807
311.778
311.938
311.891
311.904
311.881
311.932
311.8
311.736
311.726
311.613
311.521
311.499
311.354
311.287
311.125
310.974
310.829
310.715
309.099
309.254
309.329
309.251
309.307
309.378
309.315
309.308
309.298
309.191
309.216
309.061
309.051
308.962
308.888
308.797
308.732
308.51
308.414
308.446
306.592
306.621
306.725
306.698
306.715
306.678
306.725
306.705
306.629
306.546
306.617
306.571
306.518
306.473
306.435
306.418
306.259
306.182
306.109
305.97
303.935
303.899
303.982
304.026
303.939
303.99
304.038
304.019
304.066
304.018
303.974
303.835
303.937
303.88
303.924
303.818
303.797
303.687
303.693
303.734
301.279
301.305
301.357
301.369
301.403
301.359
301.348
301.364
301.397
301.323
301.352
301.335
301.269
301.312
301.292
301.289
301.296
301.266
301.285
301.189
320.027
320.123
320.26
320.259
320.343
320.339
320.271
320.308
320.239
320.097
320.009
319.848
319.66
319.602
319.317
319.027
318.884
318.627
318.377
318.178
317.524
317.657
317.704
317.749
317.868
317.911
317.822
317.782
317.685
317.592
317.537
317.472
317.309
317.158
316.972
316.769
316.566
316.419
316.126
316.017
314.949
314.976
315.094
315.194
315.282
315.259
315.211
315.185
315.154
315.068
314.902
314.959
314.769
314.678
314.518
314.371
314.241
313.955
313.783
313.722
312.357
312.329
312.456
312.482
312.576
312.512
312.537
312.505
312.432
312.394
312.379
312.233
312.239
312.116
312.017
311.869
311.723
311.583
311.388
311.307
309.684
309.7
309.741
309.827
309.789
309.816
309.852
309.768
309.84
309.798
309.795
309.599
309.473
309.454
309.339
309.249
309.176
308.996
308.973
308.865
306.873
306.988
306.915
306.973
307.016
307.015
307.11
307.029
307.009
306.989
306.997
306.921
306.849
306.801
306.751
306.702
306.608
306.515
306.331
306.338
304.107
304.192
304.214
304.189
304.255
304.289
304.233
304.195
304.266
304.251
304.203
304.101
304.126
304.109
304.066
304.073
304.02
303.886
303.926
303.89
301.503
301.446
301.392
301.444
301.504
301.427
301.435
301.397
301.343
301.413
301.434
301.414
301.369
301.418
301.361
301.321
301.395
301.356
301.295
301.251
321.045
321.183
321.347
321.431
321.58
321.595
321.586
321.502
321.441
321.278
321.229
321.148
320.908
320.796
320.573
320.346
320.05
319.812
319.505
319.261
318.442
318.615
318.627
318.82
318.85
318.922
318.847
318.938
318.799
318.689
318.648
318.524
318.316
318.187
317.989
317.774
317.619
317.47
317.141
316.96
315.735
315.87
315.9
316.065
316.061
316.151
316.214
316.104
316.096
315.958
315.891
315.746
315.692
315.586
315.451
315.275
315.083
314.872
314.658
314.469
312.91
313.045
313.14
313.182
313.276
313.383
313.34
313.273
313.238
313.209
313.18
313.028
313.065
312.87
312.673
312.547
312.508
312.271
312.143
311.941
310.083
310.2
310.252
310.278
310.345
310.386
310.396
310.383
310.364
310.367
310.233
310.224
310.091
310.086
310.042
309.84
309.725
309.674
309.478
309.367
307.155
307.349
307.373
307.446
307.493
307.46
307.486
307.445
307.449
307.36
307.399
307.33
307.306
307.255
307.132
307.042
306.973
306.847
306.817
306.714
304.357
304.391
304.402
304.476
304.441
304.571
304.507
304.522
304.417
304.48
304.442
304.366
304.345
304.411
304.318
304.327
304.195
304.166
304.097
304.019
301.449
301.434
301.5
301.514
301.459
301.508
301.539
301.57
301.488
301.512
301.506
301.547
301.457
301.469
301.457
301.414
301.373
301.346
301.363
301.307
322.206
322.391
322.515
322.709
322.743
322.835
322.844
322.801
322.779
322.65
322.55
322.397
322.23
322.141
321.803
321.55
321.301
321.019
320.742
320.447
319.383
319.573
319.723
319.826
319.965
319.969
320.008
319.972
319.951
319.795
319.744
319.656
319.483
319.371
319.094
318.897
318.719
318.413
318.209
318.002
316.567
316.657
316.742
316.924
316.976
317.038
317.15
317.036
317.007
316.99
316.843
316.804
316.646
316.484
316.314
316.222
316.013
315.767
315.529
315.284
313.608
313.691
313.846
313.941
313.991
314.08
314.04
314.062
314.063
313.892
313.891
313.839
313.701
313.626
313.516
313.319
313.165
312.979
312.844
312.761
310.681
310.693
310.849
310.883
310.964
310.978
311.05
311.019
310.948
310.912
310.888
310.825
310.733
310.599
310.564
310.438
310.302
310.147
309.988
309.896
307.656
307.634
307.693
307.865
307.817
307.857
307.847
307.861
307.815
307.842
307.808
307.804
307.624
307.679
307.573
307.579
307.394
307.326
307.13
307.129
304.585
304.561
304.629
304.68
304.707
304.75
304.765
304.721
304.857
304.704
304.635
304.646
304.617
304.562
304.585
304.557
304.488
304.409
304.307
304.259
301.616
301.567
301.566
301.576
301.639
301.597
301.555
301.575
301.539
301.626
301.596
301.497
301.556
301.571
301.547
301.528
301.52
301.514
301.507
301.412
323.369
323.579
323.768
323.867
324.064
324.138
324.138
324.111
324.001
324.032
323.815
323.659
323.559
323.358
323.14
322.829
322.574
322.262
321.9
321.629
320.357
320.545
320.728
320.866
321.03
321.11
321.08
321.038
321.105
320.984
320.891
320.815
320.717
320.425
320.329
320.084
319.838
319.509
319.198
318.91
317.362
317.543
317.681
317.869
317.941
317.966
318.007
317.998
317.983
317.995
317.846
317.714
317.666
317.432
317.359
317.088
316.93
316.69
316.418
316.197
314.351
314.439
314.586
314.743
314.682
314.78
314.828
314.852
314.863
314.8
314.701
314.624
314.52
314.416
314.299
314.137
313.954
313.785
313.557
313.336
311.204
311.357
311.382
311.426
311.478
311.61
311.543
311.616
311.495
311.59
311.542
311.504
311.442
311.246
311.131
311.013
310.91
310.748
310.653
310.417
308.097
308.06
308.151
308.242
308.249
308.307
308.354
308.345
308.367
308.293
308.207
308.231
308.103
308.159
308.05
307.902
307.805
307.651
307.647
307.519
304.783
304.907
304.971
304.935
304.994
305.052
305.03
304.99
305.01
305.038
305.002
304.998
304.906
304.893
304.788
304.819
304.721
304.601
304.583
304.519
301.553
301.657
301.657
301.709
301.662
301.667
301.672
301.656
301.726
301.684
301.647
301.676
301.651
301.617
301.61
301.588
301.58
301.607
301.621
301.519
324.538
324.727
324.873
325.163
325.211
325.365
325.369
325.441
325.363
325.276
325.172
325.049
324.906
324.629
324.377
324.09
323.841
323.535
323.139
322.751
321.389
321.507
321.751
321.998
322.103
322.207
322.227
322.209
322.235
322.119
322.04
321.948
321.783
321.558
321.441
321.091
320.852
320.581
320.271
319.932
318.209
318.358
318.572
318.772
318.822
318.948
318.923
318.918
318.916
318.884
318.856
318.717
318.656
318.447
318.289
318.004
317.827
317.589
317.353
317.145
315.006
315.13
315.271
315.408
315.508
315.527
315.621
315.628
315.625
315.56
315.528
315.43
315.294
315.159
315.028
314.857
314.72
314.519
314.221
314.074
311.677
311.907
311.875
312.113
312.07
312.213
312.131
312.194
312.275
312.169
312.181
312.027
311.968
311.813
311.788
311.61
311.41
311.391
311.151
311.014
308.422
308.511
308.554
308.695
308.718
308.711
308.756
308.762
308.707
308.719
308.647
308.668
308.59
308.531
308.475
308.399
308.198
308.104
308.011
307.872
305.041
305.146
305.056
305.168
305.225
305.258
305.258
305.263
305.308
305.313
305.171
305.211
305.222
305.169
305.14
304.983
305.001
304.843
304.771
304.786
301.714
301.697
301.708
301.76
301.789
301.743
301.746
301.772
301.84
301.8
301.76
301.726
301.773
301.704
301.689
301.688
301.656
301.611
301.622
301.645
325.527
325.801
326.073
326.312
326.5
326.638
326.653
326.681
326.679
326.512
326.486
326.394
326.229
325.903
325.714
325.417
325.087
324.701
324.248
324.008
322.387
322.54
322.806
322.983
323.162
323.255
323.363
323.435
323.321
323.234
323.183
323.006
322.937
322.664
322.477
322.217
321.941
321.611
321.358
321.035
319.038
319.219
319.409
319.615
319.678
319.766
319.893
319.915
319.889
319.842
319.729
319.69
319.503
319.423
319.237
319.021
318.779
318.474
318.188
317.984
315.665
315.872
315.963
316.113
316.192
316.396
316.364
316.346
316.429
316.358
316.294
316.223
316.099
315.965
315.756
315.63
315.458
315.202
315.056
314.79
312.211
312.329
312.5
312.587
312.735
312.802
312.834
312.842
312.847
312.788
312.772
312.664
312.66
312.553
312.376
312.245
312.104
311.929
311.726
311.552
308.769
308.846
308.922
309.041
309.117
309.173
309.185
309.222
309.113
309.184
309.169
309.132
309.081
308.973
308.897
308.79
308.697
308.516
308.386
308.292
305.301
305.357
305.403
305.395
305.456
305.539
305.558
305.533
305.506
305.57
305.552
305.481
305.413
305.432
305.349
305.29
305.21
305.126
305.055
305.042
301.785
301.851
301.852
301.817
301.82
301.856
301.867
301.864
301.893
301.84
301.843
301.858
301.839
301.779
301.741
301.814
301.766
301.746
301.704
301.73
326.674
326.968
327.3
327.527
327.609
327.847
327.981
327.909
327.899
327.847
327.782
327.641
327.486
327.236
326.951
326.634
326.327
325.871
325.527
325.057
323.307
323.543
323.805
324.007
324.237
324.289
324.398
324.46
324.445
324.356
324.289
324.186
324.011
323.828
323.659
323.338
322.982
322.637
322.285
322.004
319.825
320.038
320.226
320.44
320.571
320.749
320.779
320.858
320.824
320.792
320.764
320.562
320.47
320.352
320.167
319.88
319.599
319.353
319.047
318.803
316.326
316.479
316.647
316.792
316.894
317.061
317.111
317.158
317.208
317.131
317.006
316.909
316.906
316.709
316.636
316.397
316.16
315.943
315.755
315.523
312.767
312.954
313.018
313.128
313.213
313.31
313.406
313.427
313.442
313.39
313.346
313.269
313.257
313.103
312.941
312.79
312.646
312.5
312.358
312.085
309.08
309.248
309.312
309.5
309.571
309.516
309.633
309.585
309.672
309.59
309.558
309.502
309.434
309.375
309.294
309.166
309.019
308.912
308.887
308.696
305.451
305.575
305.626
305.691
305.721
305.721
305.814
305.786
305.806
305.795
305.8
305.679
305.728
305.622
305.611
305.562
305.446
305.326
305.31
305.256
301.848
301.842
301.873
301.84
301.946
301.915
301.939
301.965
301.938
301.886
301.954
301.996
301.98
301.931
301.901
301.889
301.817
301.798
301.79
301.755
327.675
328.041
328.388
328.562
328.816
329.019
329.134
329.177
329.219
329.11
329.006
328.841
328.703
328.434
328.166
327.85
327.479
327.017
326.655
326.245
324.238
324.497
324.794
324.925
325.199
325.333
325.497
325.538
325.468
325.487
325.285
325.252
325.12
324.882
324.639
324.378
324.032
323.71
323.357
322.963
320.609
320.861
321.112
321.3
321.467
321.647
321.704
321.782
321.693
321.733
321.589
321.484
321.385
321.268
321.036
320.787
320.498
320.255
319.841
319.588
316.959
317.157
317.358
317.558
317.681
317.782
317.838
317.895
317.914
317.862
317.838
317.746
317.613
317.482
317.335
317.114
316.829
316.662
316.362
316.097
313.284
313.444
313.53
313.795
313.84
313.893
313.969
313.989
314.009
314.003
313.942
313.862
313.851
313.659
313.51
313.368
313.235
312.995
312.799
312.64
309.491
309.594
309.714
309.77
309.935
309.938
310.027
310.028
310.048
310.077
309.97
309.967
309.882
309.817
309.716
309.607
309.468
309.343
309.144
309.116
305.722
305.802
305.869
305.889
305.946
305.992
306.003
306.061
306.074
306.037
306.047
305.998
305.908
305.862
305.878
305.828
305.72
305.579
305.588
305.484
301.96
301.914
301.897
301.963
302.017
302.015
301.962
301.99
301.993
301.983
302.036
302.019
301.98
302.032
301.972
301.978
301.925
301.941
301.895
301.885
328.792
329.042
329.463
329.681
329.986
330.201
330.337
330.284
330.35
330.293
330.231
330.1
329.94
329.68
329.386
328.985
328.602
328.14
327.764
327.282
325.114
325.44
325.752
325.947
326.137
326.377
326.481
326.485
326.564
326.515
326.426
326.287
326.135
325.915
325.706
325.338
325.029
324.675
324.213
323.927
321.417
321.631
321.875
322.057
322.358
322.421
322.553
322.663
322.585
322.511
322.524
322.383
322.313
322.051
321.858
321.65
321.381
321.093
320.742
320.433
317.559
317.753
318.006
318.185
318.366
318.527
318.49
318.543
318.615
318.589
318.52
318.461
318.351
318.224
318.074
317.85
317.583
317.284
317.072
316.757
313.68
313.894
314.066
314.246
314.316
314.403
314.474
314.53
314.509
314.48
314.481
314.402
314.351
314.189
314.139
313.905
313.718
313.6
313.301
313.178
309.914
309.949
310.109
310.183
310.265
310.365
310.376
310.406
310.387
310.385
310.3
310.352
310.249
310.221
310.124
309.965
309.883
309.8
309.559
309.437
305.843
305.994
306.06
306.121
306.231
306.241
306.231
306.3
306.264
306.291
306.283
306.218
306.189
306.127
306.071
305.992
305.988
305.855
305.71
305.615
301.942
302.002
302.063
302.057
302.086
302.112
302.074
302.082
302.113
302.086
302.099
302.121
302.047
302.06
302.09
302.054
301.93
301.93
301.929
301.875
329.689
330.092
330.467
330.79
331.066
331.286
331.465
331.483
331.555
331.486
331.419
331.221
331.066
330.864
330.459
330.095
329.703
329.262
328.786
328.333
325.914
326.273
326.593
326.861
327.155
327.299
327.454
327.468
327.584
327.565
327.383
327.296
327.119
326.954
326.672
326.37
325.989
325.616
325.206
324.775
322.052
322.352
322.635
322.911
323.117
323.275
323.441
323.45
323.424
323.494
323.425
323.269
323.079
322.975
322.773
322.48
322.188
321.819
321.478
321.142
318.139
318.348
318.596
318.841
319.038
319.169
319.216
319.306
319.323
319.386
319.263
319.148
319.053
318.909
318.734
318.497
318.249
317.98
317.659
317.461
314.2
314.416
314.587
314.745
314.834
314.897
315.028
315.111
315.181
315.072
315.05
315.001
314.907
314.796
314.613
314.517
314.28
314.008
313.82
313.64
310.186
310.33
310.375
310.562
310.643
310.661
310.721
310.816
310.833
310.794
310.764
310.765
310.685
310.628
310.511
310.384
310.255
310.117
309.908
309.766
306.074
306.166
306.246
306.367
306.411
306.39
306.463
306.506
306.52
306.538
306.48
306.47
306.441
306.395
306.261
306.255
306.177
306.025
305.939
305.898
302.037
302.049
302.16
302.154
302.079
302.182
302.244
302.205
302.192
302.149
302.226
302.217
302.143
302.146
302.131
302.112
302.134
302.051
302.024
301.982
330.657
331.02
331.43
331.854
332.167
332.396
332.494
332.662
332.652
332.593
332.462
332.397
332.227
331.949
331.553
331.256
330.701
330.351
329.781
329.346
326.809
327.109
327.397
327.814
328.077
328.259
328.374
328.483
328.531
328.475
328.457
328.312
328.123
327.895
327.638
327.295
326.963
326.521
326.048
325.603
322.793
323.1
323.284
323.548
323.895
324.118
324.127
324.257
324.303
324.354
324.215
324.037
323.961
323.802
323.575
323.34
322.941
322.587
322.293
321.971
318.699
319.024
319.197
319.395
319.645
319.744
319.909
319.937
320.026
320.035
319.909
319.857
319.724
319.602
319.396
319.209
318.864
318.676
318.319
318.102
314.602
314.849
315.02
315.121
315.361
315.427
315.562
315.615
315.604
315.63
315.646
315.477
315.414
315.304
315.168
315.028
314.77
314.49
314.255
314.054
310.504
310.66
310.727
310.822
310.983
311.058
311.188
311.157
311.201
311.239
311.162
311.102
311.056
310.944
310.881
310.723
310.587
310.427
310.287
310.105
306.242
306.368
306.426
306.511
306.684
306.657
306.686
306.771
306.687
306.737
306.721
306.691
306.664
306.596
306.496
306.477
306.316
306.253
306.134
306.064
302.158
302.131
302.09
302.171
302.256
302.174
302.192
302.272
302.236
302.231
302.276
302.219
302.175
302.221
302.181
302.164
302.069
302.114
302.07
302.082
331.542
331.972
332.387
332.843
333.12
333.412
333.567
333.679
333.72
333.633
333.542
333.487
333.236
332.968
332.647
332.278
331.79
331.291
330.826
330.306
327.504
327.932
328.245
328.657
328.894
329.101
329.292
329.413
329.524
329.417
329.311
329.345
329.031
328.877
328.568
328.175
327.832
327.349
326.973
326.525
323.358
323.813
324.082
324.358
324.62
324.796
324.878
325.046
324.994
325.072
324.999
324.923
324.799
324.561
324.324
324.011
323.706
323.34
322.893
322.473
319.212
319.533
319.77
320.024
320.225
320.428
320.533
320.587
320.667
320.67
320.534
320.523
320.411
320.234
320.019
319.821
319.485
319.197
318.866
318.635
315.081
315.214
315.481
315.671
315.779
315.942
316.001
316.076
316.127
316.063
316.142
315.976
315.917
315.801
315.646
315.444
315.299
314.985
314.756
314.592
310.859
310.937
311.032
311.192
311.354
311.41
311.494
311.535
311.51
311.549
311.564
311.49
311.412
311.259
311.211
311.14
310.913
310.732
310.583
310.424
306.499
306.533
306.667
306.767
306.812
306.854
306.86
306.999
306.966
306.94
306.954
306.938
306.841
306.821
306.783
306.616
306.524
306.493
306.404
306.32
302.195
302.234
302.278
302.219
302.295
302.297
302.338
302.372
302.301
302.285
302.282
302.354
302.271
302.289
302.256
302.247
302.168
302.197
302.121
302.092
332.333
332.776
333.335
333.738
334.03
334.317
334.464
334.627
334.651
334.654
334.632
334.41
334.281
333.958
333.692
333.264
332.758
332.283
331.655
331.19
328.271
328.624
328.988
329.371
329.667
329.937
330.111
330.206
330.23
330.304
330.185
330.006
329.865
329.674
329.418
329.109
328.608
328.141
327.699
327.343
324.034
324.392
324.73
325.028
325.362
325.535
325.653
325.748
325.76
325.801
325.705
325.709
325.488
325.308
325.091
324.707
324.385
323.994
323.664
323.185
319.739
319.969
320.282
320.55
320.745
320.954
321.096
321.133
321.2
321.183
321.13
321.103
321.061
320.813
320.621
320.363
320.039
319.728
319.445
319.199
315.531
315.597
315.91
316.07
316.176
316.353
316.549
316.619
316.572
316.618
316.522
316.401
316.435
316.312
316.063
315.971
315.644
315.489
315.147
314.959
311.039
311.141
311.346
311.512
311.656
311.799
311.72
311.901
311.838
311.916
311.85
311.821
311.704
311.682
311.488
311.409
311.247
311.124
310.919
310.742
306.604
306.708
306.843
306.899
307.034
307.042
307.063
307.168
307.112
307.146
307.113
307.137
307.028
307.018
306.879
306.838
306.729
306.6
306.571
306.402
302.299
302.321
302.264
302.348
302.34
302.37
302.377
302.315
302.362
302.418
302.423
302.357
302.377
302.351
302.37
302.295
302.244
302.304
302.187
302.143
333.073
333.56
334.049
334.46
334.914
335.192
335.416
335.598
335.628
335.59
335.539
335.38
335.166
334.91
334.603
334.125
333.638
333.085
332.507
332.027
328.885
329.305
329.702
330.106
330.475
330.725
330.891
330.947
331.055
331.167
331.002
330.886
330.796
330.485
330.18
329.838
329.413
328.905
328.455
328.044
324.604
324.931
325.336
325.618
325.915
326.19
326.255
326.469
326.439
326.492
326.454
326.29
326.223
325.995
325.719
325.416
325.059
324.661
324.296
323.879
320.248
320.456
320.819
321.071
321.317
321.492
321.706
321.692
321.78
321.852
321.668
321.595
321.503
321.383
321.139
320.903
320.53
320.274
319.911
319.662
315.809
315.95
316.213
316.479
316.591
316.728
316.825
316.977
316.995
317.036
316.931
316.891
316.806
316.705
316.541
316.369
316.098
315.877
315.57
315.345
311.271
311.505
311.663
311.749
311.932
312.059
312.104
312.16
312.243
312.211
312.234
312.039
312.08
311.924
311.88
311.72
311.482
311.437
311.132
310.96
306.793
306.885
307.002
307.1
307.235
307.256
307.303
307.303
307.303
307.327
307.308
307.378
307.252
307.17
307.189
307.043
306.995
306.83
306.709
306.603
302.297
302.26
302.343
302.337
302.376
302.496
302.434
302.531
302.411
302.558
302.374
302.432
302.49
302.342
302.356
302.339
302.374
302.267
302.319
302.236
333.831
334.277
334.829
335.269
335.636
335.931
336.201
336.396
336.411
336.431
336.383
336.188
336.024
335.794
335.433
335.033
334.428
333.914
333.256
332.778
329.529
329.849
330.423
330.762
331.072
331.383
331.602
331.728
331.805
331.833
331.81
331.623
331.442
331.217
330.907
330.565
330.118
329.631
329.043
328.626
325.075
325.431
325.801
326.154
326.533
326.793
326.957
327.041
327.063
327.133
327.034
326.928
326.785
326.562
326.356
326.02
325.66
325.24
324.874
324.403
320.616
320.958
321.313
321.542
321.782
321.916
322.077
322.174
322.302
322.297
322.201
322.132
322.003
321.881
321.647
321.393
321.078
320.777
320.416
320.113
316.113
316.299
316.596
316.859
316.977
317.171
317.291
317.36
317.371
317.436
317.421
317.333
317.189
317.083
316.933
316.724
316.505
316.194
315.918
315.669
311.514
311.649
311.836
312.023
312.159
312.262
312.349
312.504
312.406
312.463
312.415
312.423
312.371
312.254
312.123
311.99
311.808
311.659
311.422
311.251
307
307.06
307.149
307.249
307.36
307.448
307.419
307.492
307.438
307.531
307.484
307.418
307.391
307.28
307.256
307.182
307.086
306.948
306.875
306.822
302.315
302.389
302.397
302.484
302.451
302.496
302.518
302.499
302.5
302.491
302.56
302.502
302.509
302.498
302.415
302.433
302.344
302.371
302.327
302.305
334.36
334.963
335.469
335.975
336.301
336.669
336.945
337.107
337.199
337.221
337.196
337.003
336.791
336.522
336.118
335.659
335.169
334.619
334.038
333.501
330.001
330.453
330.929
331.373
331.704
331.99
332.216
332.412
332.459
332.513
332.507
332.292
332.119
331.916
331.579
331.216
330.739
330.228
329.636
329.22
325.556
325.862
326.308
326.638
326.987
327.252
327.44
327.66
327.617
327.702
327.67
327.485
327.359
327.181
326.898
326.562
326.153
325.718
325.36
324.977
320.986
321.232
321.62
321.935
322.207
322.451
322.59
322.688
322.756
322.742
322.78
322.615
322.442
322.333
322.114
321.956
321.531
321.234
320.872
320.528
316.398
316.612
316.892
317.066
317.27
317.536
317.636
317.729
317.749
317.833
317.726
317.69
317.642
317.505
317.277
317.039
316.82
316.606
316.332
316.003
311.787
311.905
312.074
312.2
312.424
312.542
312.616
312.67
312.743
312.8
312.782
312.653
312.581
312.539
312.343
312.174
312.06
311.886
311.634
311.495
307.133
307.12
307.288
307.327
307.439
307.554
307.601
307.582
307.554
307.559
307.642
307.633
307.577
307.541
307.422
307.384
307.231
307.182
307.073
306.903
302.316
302.431
302.456
302.474
302.451
302.553
302.566
302.577
302.546
302.554
302.528
302.538
302.56
302.524
302.487
302.445
302.44
302.438
302.31
302.309
334.963
335.399
335.982
336.521
336.974
337.358
337.623
337.714
337.824
337.813
337.796
337.653
337.453
337.126
336.7
336.329
335.853
335.161
334.559
334.051
330.443
330.876
331.364
331.817
332.237
332.479
332.749
332.97
332.964
333.02
332.926
332.89
332.668
332.445
332.093
331.736
331.248
330.775
330.201
329.704
325.928
326.254
326.691
327.097
327.365
327.674
327.911
328.032
328.03
328.119
328.024
327.984
327.807
327.668
327.308
326.973
326.574
326.109
325.696
325.347
321.273
321.585
321.92
322.253
322.525
322.732
322.922
323.069
323.109
323.138
323.095
323.014
322.878
322.658
322.468
322.181
321.923
321.524
321.139
320.841
316.603
316.818
317.137
317.393
317.566
317.705
317.843
317.973
318.001
318.095
318.07
317.816
317.891
317.67
317.51
317.348
317.111
316.789
316.542
316.291
311.84
312.073
312.282
312.363
312.642
312.76
312.805
312.847
312.86
312.868
312.916
312.88
312.769
312.724
312.634
312.362
312.225
312.04
311.828
311.699
307.129
307.272
307.39
307.505
307.576
307.574
307.746
307.736
307.787
307.803
307.839
307.83
307.606
307.625
307.519
307.518
307.388
307.237
307.147
307.057
302.452
302.381
302.454
302.515
302.571
302.575
302.656
302.557
302.613
302.657
302.61
302.665
302.568
302.58
302.502
302.46
302.474
302.482
302.384
302.4
335.221
335.762
336.363
336.893
337.345
337.738
337.96
338.157
338.381
338.359
338.192
338.128
337.904
337.602
337.191
336.685
336.308
335.681
334.979
334.433
330.732
331.134
331.633
332.125
332.565
332.914
333.12
333.292
333.294
333.418
333.392
333.265
333.087
332.795
332.431
332.049
331.638
331.103
330.531
330.021
326.113
326.446
326.94
327.299
327.673
327.907
328.214
328.339
328.366
328.413
328.407
328.284
328.087
327.967
327.576
327.299
327.001
326.49
325.99
325.575
321.488
321.813
322.174
322.419
322.757
322.973
323.152
323.217
323.342
323.412
323.357
323.282
323.137
322.93
322.711
322.391
322.134
321.744
321.34
320.963
316.71
316.933
317.156
317.556
317.703
317.913
318.035
318.128
318.217
318.199
318.183
318.132
318.106
317.895
317.704
317.486
317.256
316.966
316.693
316.434
311.941
312.161
312.401
312.507
312.715
312.856
312.938
312.968
313.086
313.09
313.051
312.978
312.938
312.823
312.686
312.486
312.342
312.221
311.942
311.781
307.186
307.31
307.47
307.552
307.546
307.771
307.817
307.817
307.844
307.819
307.765
307.878
307.806
307.655
307.678
307.58
307.457
307.234
307.157
307.136
302.471
302.422
302.502
302.535
302.562
302.543
302.588
302.637
302.645
302.628
302.634
302.619
302.578
302.629
302.573
302.537
302.495
302.511
302.443
302.37
)
;

boundaryField
{
    hotSide
    {
        type            fixedGradient;
        gradient        nonuniform List<scalar> 
400
(
321.511
322.87
325.591
329.677
335.133
341.965
350.181
359.788
370.794
383.208
397.037
412.289
428.971
447.088
466.647
487.651
510.105
534.011
559.372
586.191
323.738
325.08
327.767
331.802
337.194
343.949
352.078
361.591
372.498
384.81
398.537
413.687
430.268
448.289
467.755
488.672
511.043
534.872
560.161
586.913
326.149
327.47
330.116
334.091
339.406
346.071
354.099
363.503
374.296
386.491
400.101
415.136
431.606
449.52
468.885
489.706
511.988
535.735
560.948
587.63
328.704
330
332.597
336.503
341.73
348.292
356.205
365.485
376.15
388.215
401.695
416.604
432.954
450.753
470.009
490.73
512.919
536.579
561.714
588.325
331.33
332.599
335.142
338.97
344.099
350.546
358.332
367.477
378.003
389.928
403.271
418.047
434.27
451.949
471.095
491.712
513.807
537.382
562.439
588.978
333.918
335.158
337.643
341.389
346.414
352.74
360.392
369.397
379.779
391.562
404.765
419.407
435.503
453.065
472.101
492.618
514.622
538.114
563.096
589.569
336.321
337.531
339.959
343.622
348.544
354.751
362.274
371.142
381.385
393.031
406.101
420.618
436.595
454.047
472.983
493.409
515.33
538.747
563.663
590.076
338.36
339.543
341.92
345.509
350.339
356.44
363.847
372.595
382.718
394.244
407.2
421.608
437.485
454.844
473.695
494.045
515.897
539.253
564.114
590.478
339.852
341.015
343.352
346.885
351.645
357.665
364.985
373.643
383.675
395.113
407.984
422.312
438.116
455.407
474.197
494.491
516.294
539.606
564.428
590.758
340.643
341.795
344.11
347.613
352.334
358.311
365.584
374.193
384.176
395.567
408.393
422.679
438.443
455.699
474.456
494.722
516.498
539.788
564.589
590.901
340.643
341.795
344.11
347.613
352.334
358.311
365.584
374.193
384.176
395.567
408.393
422.679
438.443
455.699
474.456
494.722
516.498
539.788
564.589
590.901
339.852
341.015
343.352
346.885
351.645
357.665
364.985
373.643
383.675
395.113
407.984
422.312
438.116
455.407
474.197
494.491
516.294
539.606
564.428
590.758
338.36
339.543
341.92
345.509
350.339
356.44
363.847
372.595
382.718
394.244
407.2
421.608
437.485
454.844
473.695
494.045
515.897
539.253
564.114
590.478
336.321
337.531
339.959
343.622
348.544
354.751
362.274
371.142
381.385
393.031
406.101
420.618
436.595
454.047
472.983
493.409
515.33
538.747
563.663
590.076
333.918
335.158
337.643
341.389
346.414
352.74
360.392
369.397
379.779
391.562
404.765
419.407
435.503
453.065
472.101
492.618
514.622
538.114
563.096
589.569
331.33
332.599
335.142
338.97
344.099
350.546
358.332
367.477
378.003
389.928
403.271
418.047
434.27
451.949
471.095
491.712
513.807
537.382
562.439
588.978
328.704
330
332.597
336.503
341.73
348.292
356.205
365.485
376.15
388.215
401.695
416.604
432.954
450.753
470.009
490.73
512.919
536.579
561.714
588.325
326.149
327.47
330.116
334.091
339.406
346.071
354.099
363.503
374.296
386.491
400.101
415.136
431.606
449.52
468.885
489.706
511.988
535.735
560.948
587.63
323.738
325.08
327.767
331.802
337.194
343.949
352.078
361.591
372.498
384.81
398.537
413.687
430.268
448.289
467.755
488.672
511.043
534.872
560.161
586.913
321.511
322.87
325.591
329.677
335.133
341.965
350.181
359.788
370.794
383.208
397.037
412.289
428.971
447.088
466.647
487.651
510.105
534.011
559.372
586.191
)
;
    }
    coldSide
    {
        type            mixed;
        refValue        uniform 300;
        refGradient     uniform 0;
        valueFraction   uniform 0.991591;
        source          uniform 0;
        value           nonuniform List<scalar> 
400
(
300.011
300.011
300.013
300.012
300.014
300.013
300.014
300.015
300.016
300.016
300.016
300.017
300.018
300.018
300.019
300.019
300.019
300.019
300.021
300.021
300.01
300.011
300.012
300.012
300.013
300.014
300.014
300.016
300.015
300.016
300.017
300.017
300.018
300.019
300.02
300.019
300.02
300.02