/*--------------------------------*- C++ -*----------------------------------*\
| =========                 |                                                 |
| \\      /  F ield         | OpenFOAM: The Open Source CFD Toolbox           |
|  \\    /   O peration     | Version:  2212                                  |
|   \\  /    A nd           | Website:  www.openfoam.com                      |
|    \\/     M anipulation  |                                                 |
\*---------------------------------------------------------------------------*/
FoamFile
{
    version     2.0;
    format      ascii;
    arch        "LSB;label=32;scalar=64";
    class       volScalarField;
    location    "./ITHACAoutput/true/18.2";
    object      trueState;
}
// * * * * * * * * * * * * * * * * * * * * * * * * * * * * * * * * * * * * * //

dimensions      [0 0 0 1 0 0 0];

internalField   nonuniform List<scalar> 
3200
(
320.348
320.551
320.809
321.091
321.382
321.667
321.93
322.152
322.314
322.4
322.4
322.314
322.152
321.93
321.667
321.382
321.091
320.809
320.551
320.348
317.771
317.943
318.166
318.41
318.661
318.908
319.135
319.327
319.467
319.541
319.541
319.467
319.327
319.135
318.908
318.661
318.41
318.166
317.943
317.771
315.137
315.279
315.467
315.673
315.886
316.094
316.286
316.448
316.566
316.628
316.628
316.566
316.448
316.286
316.094
315.886
315.673
315.467
315.279
315.137
312.454
312.569
312.722
312.89
313.064
313.234
313.391
313.524
313.62
313.671
313.671
313.62
313.524
313.391
313.234
313.064
312.89
312.722
312.569
312.454
309.731
309.819
309.938
310.069
310.204
310.336
310.458
310.561
310.636
310.675
310.675
310.636
310.561
310.458
310.336
310.204
310.069
309.938
309.819
309.731
306.977
307.039
307.124
307.217
307.314
307.408
307.495
307.568
307.622
307.65
307.65
307.622
307.568
307.495
307.408
307.314
307.217
307.124
307.039
306.977
304.2
304.237
304.288
304.344
304.402
304.459
304.511
304.555
304.587
304.604
304.604
304.587
304.555
304.511
304.459
304.402
304.344
304.288
304.237
304.2
301.409
301.422
301.439
301.458
301.477
301.496
301.514
301.528
301.539
301.545
301.545
301.539
301.528
301.514
301.496
301.477
301.458
301.439
301.422
301.409
320.424
320.625
320.881
321.161
321.448
321.73
321.99
322.21
322.37
322.454
322.454
322.37
322.21
321.99
321.73
321.448
321.161
320.881
320.625
320.424
317.837
318.007
318.229
318.47
318.719
318.963
319.188
319.378
319.516
319.588
319.588
319.516
319.378
319.188
318.963
318.719
318.47
318.229
318.007
317.837
315.193
315.334
315.521
315.725
315.935
316.142
316.331
316.491
316.608
316.669
316.669
316.608
316.491
316.331
316.142
315.935
315.725
315.521
315.334
315.193
312.5
312.614
312.766
312.933
313.105
313.273
313.428
313.559
313.654
313.704
313.704
313.654
313.559
313.428
313.273
313.105
312.933
312.766
312.614
312.5
309.767
309.855
309.973
310.102
310.236
310.367
310.487
310.589
310.662
310.701
310.701
310.662
310.589
310.487
310.367
310.236
310.102
309.973
309.855
309.767
307.003
307.065
307.149
307.241
307.337
307.43
307.516
307.588
307.641
307.669
307.669
307.641
307.588
307.516
307.43
307.337
307.241
307.149
307.065
307.003
304.216
304.252
304.303
304.358
304.416
304.472
304.523
304.567
304.598
304.615
304.615
304.598
304.567
304.523
304.472
304.416
304.358
304.303
304.252
304.216
301.415
301.427
301.444
301.462
301.482
301.5
301.518
301.532
301.543
301.548
301.548
301.543
301.532
301.518
301.5
301.482
301.462
301.444
301.427
301.415
320.575
320.773
321.026
321.3
321.582
321.857
322.111
322.326
322.481
322.563
322.563
322.481
322.326
322.111
321.857
321.582
321.3
321.026
320.773
320.575
317.97
318.137
318.355
318.592
318.836
319.075
319.294
319.479
319.614
319.685
319.685
319.614
319.479
319.294
319.075
318.836
318.592
318.355
318.137
317.97
315.306
315.445
315.628
315.829
316.035
316.237
316.422
316.578
316.692
316.752
316.752
316.692
316.578
316.422
316.237
316.035
315.829
315.628
315.445
315.306
312.593
312.705
312.855
313.019
313.187
313.352
313.503
313.631
313.723
313.772
313.772
313.723
313.631
313.503
313.352
313.187
313.019
312.855
312.705
312.593
309.84
309.926
310.042
310.169
310.3
310.428
310.546
310.645
310.717
310.755
310.755
310.717
310.645
310.546
310.428
310.3
310.169
310.042
309.926
309.84
307.055
307.116
307.198
307.289
307.383
307.474
307.558
307.629
307.68
307.707
307.707
307.68
307.629
307.558
307.474
307.383
307.289
307.198
307.116
307.055
304.247
304.283
304.333
304.387
304.443
304.498
304.549
304.591
304.622
304.638
304.638
304.622
304.591
304.549
304.498
304.443
304.387
304.333
304.283
304.247
301.425
301.437
301.454
301.472
301.491
301.509
301.526
301.541
301.551
301.556
301.556
301.551
301.541
301.526
301.509
301.491
301.472
301.454
301.437
301.425
320.804
320.997
321.243
321.509
321.783
322.05
322.295
322.502
322.651
322.731
322.731
322.651
322.502
322.295
322.05
321.783
321.509
321.243
320.997
320.804
318.169
318.333
318.545
318.775
319.012
319.243
319.455
319.634
319.763
319.831
319.831
319.763
319.634
319.455
319.243
319.012
318.775
318.545
318.333
318.169
315.476
315.612
315.79
315.985
316.185
316.381
316.56
316.711
316.82
316.877
316.877
316.82
316.711
316.56
316.381
316.185
315.985
315.79
315.612
315.476
312.733
312.842
312.988
313.147
313.311
313.471
313.617
313.74
313.829
313.876
313.876
313.829
313.74
313.617
313.471
313.311
313.147
312.988
312.842
312.733
309.949
310.033
310.146
310.27
310.397
310.521
310.635
310.73
310.8
310.836
310.836
310.8
310.73
310.635
310.521
310.397
310.27
310.146
310.033
309.949
307.133
307.193
307.273
307.362
307.452
307.541
307.622
307.69
307.74
307.766
307.766
307.74
307.69
307.622
307.541
307.452
307.362
307.273
307.193
307.133
304.294
304.329
304.378
304.431
304.485
304.539
304.587
304.628
304.658
304.674
304.674
304.658
304.628
304.587
304.539
304.485
304.431
304.378
304.329
304.294
301.441
301.453
301.469
301.487
301.505
301.523
301.539
301.553
301.563
301.568
301.568
301.563
301.553
301.539
301.523
301.505
301.487
301.469
301.453
301.441
321.109
321.296
321.534
321.791
322.054
322.31
322.544
322.741
322.884
322.959
322.959
322.884
322.741
322.544
322.31
322.054
321.791
321.534
321.296
321.109
318.436
318.594
318.799
319.022
319.249
319.471
319.674
319.844
319.967
320.032
320.032
319.967
319.844
319.674
319.471
319.249
319.022
318.799
318.594
318.436
315.703
315.835
316.007
316.196
316.388
316.575
316.747
316.89
316.994
317.049
317.049
316.994
316.89
316.747
316.575
316.388
316.196
316.007
315.835
315.703
312.92
313.026
313.167
313.321
313.478
313.631
313.771
313.888
313.973
314.018
314.018
313.973
313.888
313.771
313.631
313.478
313.321
313.167
313.026
312.92
310.095
310.177
310.286
310.405
310.528
310.647
310.755
310.847
310.913
310.947
310.947
310.913
310.847
310.755
310.647
310.528
310.405
310.286
310.177
310.095
307.238
307.295
307.373
307.459
307.546
307.631
307.709
307.774
307.821
307.846
307.846
307.821
307.774
307.709
307.631
307.546
307.459
307.373
307.295
307.238
304.357
304.391
304.438
304.489
304.542
304.593
304.639
304.679
304.707
304.722
304.722
304.707
304.679
304.639
304.593
304.542
304.489
304.438
304.391
304.357
301.462
301.474
301.489
301.506
301.524
301.541
301.557
301.57
301.579
301.584
301.584
301.579
301.57
301.557
301.541
301.524
301.506
301.489
301.474
301.462
321.491
321.672
321.9
322.146
322.396
322.639
322.861
323.047
323.181
323.252
323.252
323.181
323.047
322.861
322.639
322.396
322.146
321.9
321.672
321.491
318.77
318.923
319.119
319.332
319.549
319.76
319.952
320.112
320.228
320.289
320.289
320.228
320.112
319.952
319.76
319.549
319.332
319.119
318.923
318.77
315.988
316.115
316.281
316.461
316.644
316.822
316.984
317.119
317.217
317.269
317.269
317.217
317.119
316.984
316.822
316.644
316.461
316.281
316.115
315.988
313.155
313.257
313.392
313.539
313.689
313.834
313.967
314.077
314.157
314.199
314.199
314.157
314.077
313.967
313.834
313.689
313.539
313.392
313.257
313.155
310.279
310.357
310.462
310.576
310.693
310.806
310.909
310.995
311.057
311.089
311.089
311.057
310.995
310.909
310.806
310.693
310.576
310.462
310.357
310.279
307.369
307.425
307.5
307.581
307.664
307.745
307.819
307.88
307.924
307.948
307.948
307.924
307.88
307.819
307.745
307.664
307.581
307.5
307.425
307.369
304.436
304.469
304.514
304.563
304.613
304.662
304.706
304.743
304.769
304.783
304.783
304.769
304.743
304.706
304.662
304.613
304.563
304.514
304.469
304.436
301.489
301.5
301.515
301.531
301.548
301.564
301.579
301.591
301.6
301.605
301.605
301.6
301.591
301.579
301.564
301.548
301.531
301.515
301.5
301.489
321.953
322.125
322.343
322.576
322.813
323.042
323.25
323.423
323.548
323.614
323.614
323.548
323.423
323.25
323.042
322.813
322.576
322.343
322.125
321.953
319.173
319.319
319.507
319.709
319.914
320.112
320.292
320.442
320.55
320.607
320.607
320.55
320.442
320.292
320.112
319.914
319.709
319.507
319.319
319.173
316.332
316.453
316.611
316.781
316.955
317.122
317.274
317.401
317.492
317.54
317.54
317.492
317.401
317.274
317.122
316.955
316.781
316.611
316.453
316.332
313.437
313.535
313.664
313.803
313.945
314.082
314.206
314.31
314.384
314.423
314.423
314.384
314.31
314.206
314.082
313.945
313.803
313.664
313.535
313.437
310.5
310.574
310.674
310.783
310.893
310.999
311.096
311.177
311.235
311.265
311.265
311.235
311.177
311.096
310.999
310.893
310.783
310.674
310.574
310.5
307.528
307.581
307.652
307.73
307.808
307.884
307.953
308.011
308.052
308.074
308.074
308.052
308.011
307.953
307.884
307.808
307.73
307.652
307.581
307.528
304.532
304.563
304.606
304.652
304.7
304.745
304.787
304.821
304.846
304.859
304.859
304.846
304.821
304.787
304.745
304.7
304.652
304.606
304.563
304.532
301.521
301.531
301.546
301.561
301.577
301.592
301.606
301.618
301.626
301.63
301.63
301.626
301.618
301.606
301.592
301.577
301.561
301.546
301.531
301.521
322.494
322.658
322.863
323.083
323.305
323.519
323.712
323.873
323.989
324.049
324.049
323.989
323.873
323.712
323.519
323.305
323.083
322.863
322.658
322.494
319.646
319.784
319.962
320.152
320.345
320.53
320.697
320.836
320.936
320.988
320.988
320.936
320.836
320.697
320.53
320.345
320.152
319.962
319.784
319.646
316.734
316.849
316.999
317.16
317.322
317.479
317.62
317.738
317.822
317.866
317.866
317.822
317.738
317.62
317.479
317.322
317.16
316.999
316.849
316.734
313.769
313.861
313.983
314.115
314.248
314.376
314.491
314.587
314.656
314.693
314.693
314.656
314.587
314.491
314.376
314.248
314.115
313.983
313.861
313.769
310.759
310.83
310.924
311.027
311.13
311.229
311.319
311.394
311.448
311.476
311.476
311.448
311.394
311.319
311.229
311.13
311.027
310.924
310.83
310.759
307.713
307.764
307.831
307.904
307.978
308.049
308.113
308.167
308.205
308.225
308.225
308.205
308.167
308.113
308.049
307.978
307.904
307.831
307.764
307.713
304.643
304.673
304.714
304.758
304.802
304.845
304.883
304.915
304.938
304.95
304.95
304.938
304.915
304.883
304.845
304.802
304.758
304.714
304.673
304.643
301.558
301.568
301.582
301.597
301.611
301.626
301.639
301.649
301.657
301.661
301.661
301.657
301.649
301.639
301.626
301.611
301.597
301.582
301.568
301.558
323.115
323.27
323.463
323.669
323.876
324.074
324.253
324.401
324.506
324.562
324.562
324.506
324.401
324.253
324.074
323.876
323.669
323.463
323.27
323.115
320.188
320.319
320.486
320.665
320.844
321.016
321.17
321.298
321.39
321.437
321.437
321.39
321.298
321.17
321.016
320.844
320.665
320.486
320.319
320.188
317.197
317.305
317.446
317.597
317.748
317.893
318.024
318.132
318.21
318.25
318.25
318.21
318.132
318.024
317.893
317.748
317.597
317.446
317.305
317.197
314.149
314.237
314.351
314.475
314.599
314.717
314.824
314.913
314.976
315.009
315.009
314.976
314.913
314.824
314.717
314.599
314.475
314.351
314.237
314.149
311.056
311.123
311.212
311.308
311.404
311.497
311.58
311.648
311.698
311.723
311.723
311.698
311.648
311.58
311.497
311.404
311.308
311.212
311.123
311.056
307.927
307.974
308.038
308.106
308.175
308.241
308.3
308.349
308.385
308.403
308.403
308.385
308.349
308.3
308.241
308.175
308.106
308.038
307.974
307.927
304.772
304.8
304.838
304.879
304.921
304.96
304.996
305.025
305.046
305.057
305.057
305.046
305.025
304.996
304.96
304.921
304.879
304.838
304.8
304.772
301.601
301.611
301.624
301.637
301.651
301.664
301.676
301.686
301.693
301.697
301.697
301.693
301.686
301.676
301.664
301.651
301.637
301.624
301.611
301.601
323.818
323.963
324.144
324.336
324.528
324.71
324.874
325.009
325.105
325.155
325.155
325.105
325.009
324.874
324.71
324.528
324.336
324.144
323.963
323.818
320.802
320.925
321.082
321.248
321.414
321.572
321.714
321.83
321.914
321.957
321.957
321.914
321.83
321.714
321.572
321.414
321.248
321.082
320.925
320.802
317.72
317.822
317.953
318.094
318.234
318.368
318.488
318.587
318.657
318.694
318.694
318.657
318.587
318.488
318.368
318.234
318.094
317.953
317.822
317.72
314.58
314.662
314.769
314.884
314.999
315.108
315.206
315.287
315.345
315.375
315.375
315.345
315.287
315.206
315.108
314.999
314.884
314.769
314.662
314.58
311.392
311.455
311.539
311.628
311.717
311.802
311.879
311.941
311.986
312.01
312.01
311.986
311.941
311.879
311.802
311.717
311.628
311.539
311.455
311.392
308.168
308.213
308.272
308.336
308.4
308.46
308.515
308.56
308.592
308.608
308.608
308.592
308.56
308.515
308.46
308.4
308.336
308.272
308.213
308.168
304.917
304.944
304.979
305.018
305.056
305.092
305.125
305.152
305.171
305.181
305.181
305.171
305.152
305.125
305.092
305.056
305.018
304.979
304.944
304.917
301.65
301.659
301.671
301.684
301.697
301.709
301.72
301.729
301.735
301.739
301.739
301.735
301.729
301.72
301.709
301.697
301.684
301.671
301.659
301.65
324.603
324.739
324.907
325.085
325.261
325.429
325.578
325.7
325.788
325.833
325.833
325.788
325.7
325.578
325.429
325.261
325.085
324.907
324.739
324.603
321.488
321.603
321.749
321.902
322.055
322.2
322.33
322.436
322.511
322.551
322.551
322.511
322.436
322.33
322.2
322.055
321.902
321.749
321.603
321.488
318.304
318.399
318.522
318.652
318.781
318.904
319.013
319.103
319.167
319.2
319.2
319.167
319.103
319.013
318.904
318.781
318.652
318.522
318.399
318.304
315.06
315.137
315.237
315.344
315.449
315.55
315.639
315.713
315.765
315.792
315.792
315.765
315.713
315.639
315.55
315.449
315.344
315.237
315.137
315.06
311.768
311.827
311.905
311.987
312.07
312.148
312.217
312.274
312.315
312.336
312.336
312.315
312.274
312.217
312.148
312.07
311.987
311.905
311.827
311.768
308.437
308.479
308.534
308.593
308.652
308.708
308.758
308.799
308.828
308.843
308.843
308.828
308.799
308.758
308.708
308.652
308.593
308.534
308.479
308.437
305.079
305.104
305.137
305.173
305.208
305.242
305.271
305.296
305.313
305.322
305.322
305.313
305.296
305.271
305.242
305.208
305.173
305.137
305.104
305.079
301.704
301.713
301.724
301.736
301.748
301.759
301.769
301.777
301.783
301.786
301.786
301.783
301.777
301.769
301.759
301.748
301.736
301.724
301.713
301.704
325.471
325.597
325.753
325.917
326.079
326.232
326.367
326.478
326.557
326.597
326.597
326.557
326.478
326.367
326.232
326.079
325.917
325.753
325.597
325.471
322.246
322.353
322.488
322.63
322.77
322.903
323.02
323.116
323.184
323.219
323.219
323.184
323.116
323.02
322.903
322.77
322.63
322.488
322.353
322.246
318.95
319.039
319.152
319.272
319.391
319.503
319.602
319.683
319.741
319.771
319.771
319.741
319.683
319.602
319.503
319.391
319.272
319.152
319.039
318.95
315.592
315.663
315.756
315.854
315.951
316.043
316.124
316.191
316.238
316.262
316.262
316.238
316.191
316.124
316.043
315.951
315.854
315.756
315.663
315.592
312.183
312.238
312.31
312.386
312.462
312.533
312.596
312.648
312.685
312.704
312.704
312.685
312.648
312.596
312.533
312.462
312.386
312.31
312.238
312.183
308.735
308.774
308.825
308.88
308.934
308.985
309.03
309.067
309.093
309.107
309.107
309.093
309.067
309.03
308.985
308.934
308.88
308.825
308.774
308.735
305.258
305.282
305.312
305.345
305.378
305.408
305.435
305.457
305.473
305.481
305.481
305.473
305.457
305.435
305.408
305.378
305.345
305.312
305.282
305.258
301.765
301.772
301.783
301.794
301.805
301.815
301.824
301.831
301.837
301.839
301.839
301.837
301.831
301.824
301.815
301.805
301.794
301.783
301.772
301.765
326.422
326.539
326.684
326.834
326.982
327.12
327.243
327.343
327.413
327.45
327.45
327.413
327.343
327.243
327.12
326.982
326.834
326.684
326.539
326.422
323.077
323.176
323.301
323.431
323.559
323.68
323.786
323.872
323.933
323.965
323.965
323.933
323.872
323.786
323.68
323.559
323.431
323.301
323.176
323.077
319.657
319.74
319.845
319.955
320.064
320.165
320.255
320.328
320.38
320.407
320.407
320.38
320.328
320.255
320.165
320.064
319.955
319.845
319.74
319.657
316.174
316.241
316.326
316.416
316.505
316.588
316.662
316.722
316.764
316.786
316.786
316.764
316.722
316.662
316.588
316.505
316.416
316.326
316.241
316.174
312.638
312.689
312.756
312.826
312.895
312.96
313.017
313.063
313.096
313.113
313.113
313.096
313.063
313.017
312.96
312.895
312.826
312.756
312.689
312.638
309.061
309.097
309.145
309.195
309.244
309.291
309.331
309.365
309.388
309.4
309.4
309.388
309.365
309.331
309.291
309.244
309.195
309.145
309.097
309.061
305.455
305.476
305.505
305.535
305.565
305.592
305.617
305.637
305.651
305.658
305.658
305.651
305.637
305.617
305.592
305.565
305.535
305.505
305.476
305.455
301.831
301.838
301.847
301.857
301.867
301.877
301.885
301.892
301.896
301.899
301.899
301.896
301.892
301.885
301.877
301.867
301.857
301.847
301.838
301.831
327.456
327.564
327.697
327.835
327.97
328.095
328.206
328.295
328.358
328.391
328.391
328.358
328.295
328.206
328.095
327.97
327.835
327.697
327.564
327.456
323.98
324.072
324.187
324.306
324.423
324.531
324.627
324.705
324.76
324.788
324.788
324.76
324.705
324.627
324.531
324.423
324.306
324.187
324.072
323.98
320.427
320.503
320.599
320.7
320.799
320.891
320.972
321.038
321.084
321.108
321.108
321.084
321.038
320.972
320.891
320.799
320.7
320.599
320.503
320.427
316.807
316.868
316.947
317.03
317.111
317.186
317.252
317.306
317.344
317.364
317.364
317.344
317.306
317.252
317.186
317.111
317.03
316.947
316.868
316.807
313.133
313.18
313.241
313.305
313.368
313.427
313.479
313.52
313.55
313.565
313.565
313.55
313.52
313.479
313.427
313.368
313.305
313.241
313.18
313.133
309.416
309.449
309.493
309.539
309.584
309.626
309.662
309.692
309.713
309.724
309.724
309.713
309.692
309.662
309.626
309.584
309.539
309.493
309.449
309.416
305.668
305.688
305.714
305.742
305.769
305.794
305.816
305.834
305.847
305.853
305.853
305.847
305.834
305.816
305.794
305.769
305.742
305.714
305.688
305.668
301.902
301.909
301.918
301.927
301.936
301.944
301.952
301.958
301.962
301.964
301.964
301.962
301.958
301.952
301.944
301.936
301.927
301.918
301.909
301.902
328.571
328.671
328.793
328.919
329.041
329.155
329.254
329.334
329.391
329.42
329.42
329.391
329.334
329.254
329.155
329.041
328.919
328.793
328.671
328.571
324.953
325.038
325.143
325.252
325.358
325.457
325.543
325.613
325.661
325.687
325.687
325.661
325.613
325.543
325.457
325.358
325.252
325.143
325.038
324.953
321.255
321.326
321.414
321.507
321.596
321.68
321.753
321.811
321.853
321.874
321.874
321.853
321.811
321.753
321.68
321.596
321.507
321.414
321.326
321.255
317.489
317.545
317.618
317.693
317.766
317.835
317.894
317.943
317.976
317.994
317.994
317.976
317.943
317.894
317.835
317.766
317.693
317.618
317.545
317.489
313.665
313.709
313.765
313.823
313.881
313.934
313.98
314.018
314.044
314.058
314.058
314.044
314.018
313.98
313.934
313.881
313.823
313.765
313.709
313.665
309.798
309.828
309.868
309.91
309.951
309.989
310.022
310.049
310.068
310.078
310.078
310.068
310.049
310.022
309.989
309.951
309.91
309.868
309.828
309.798
305.898
305.916
305.94
305.965
305.99
306.013
306.033
306.049
306.06
306.066
306.066
306.06
306.049
306.033
306.013
305.99
305.965
305.94
305.916
305.898
301.979
301.985
301.993
302.002
302.01
302.018
302.024
302.03
302.034
302.036
302.036
302.034
302.03
302.024
302.018
302.01
302.002
301.993
301.985
301.979
329.761
329.853
329.965
330.08
330.191
330.293
330.382
330.454
330.504
330.53
330.53
330.504
330.454
330.382
330.293
330.191
330.08
329.965
329.853
329.761
325.991
326.069
326.166
326.265
326.362
326.45
326.528
326.59
326.634
326.656
326.656
326.634
326.59
326.528
326.45
326.362
326.265
326.166
326.069
325.991
322.139
322.203
322.285
322.369
322.45
322.525
322.591
322.644
322.681
322.7
322.7
322.681
322.644
322.591
322.525
322.45
322.369
322.285
322.203
322.139
318.215
318.267
318.333
318.402
318.468
318.53
318.584
318.627
318.657
318.673
318.673
318.657
318.627
318.584
318.53
318.468
318.402
318.333
318.267
318.215
314.232
314.272
314.323
314.377
314.429
314.477
314.519
314.552
314.576
314.588
314.588
314.576
314.552
314.519
314.477
314.429
314.377
314.323
314.272
314.232
310.204
310.232
310.269
310.307
310.344
310.378
310.408
310.432
310.449
310.457
310.457
310.449
310.432
310.408
310.378
310.344
310.307
310.269
310.232
310.204
306.142
306.159
306.181
306.204
306.226
306.247
306.265
306.279
306.289
306.295
306.295
306.289
306.279
306.265
306.247
306.226
306.204
306.181
306.159
306.142
302.061
302.067
302.074
302.082
302.089
302.096
302.102
302.107
302.111
302.112
302.112
302.111
302.107
302.102
302.096
302.089
302.082
302.074
302.067
302.061
331.012
331.097
331.199
331.304
331.404
331.497
331.577
331.641
331.686
331.709
331.709
331.686
331.641
331.577
331.497
331.404
331.304
331.199
331.097
331.012
327.081
327.152
327.241
327.331
327.418
327.499
327.568
327.624
327.663
327.683
327.683
327.663
327.624
327.568
327.499
327.418
327.331
327.241
327.152
327.081
323.064
323.123
323.197
323.274
323.348
323.416
323.475
323.522
323.555
323.572
323.572
323.555
323.522
323.475
323.416
323.348
323.274
323.197
323.123
323.064
318.974
319.021
319.082
319.145
319.205
319.261
319.309
319.348
319.375
319.389
319.389
319.375
319.348
319.309
319.261
319.205
319.145
319.082
319.021
318.974
314.824
314.861
314.908
314.956
315.004
315.047
315.084
315.114
315.136
315.146
315.146
315.136
315.114
315.084
315.047
315.004
314.956
314.908
314.861
314.824
310.627
310.653
310.687
310.722
310.755
310.786
310.813
310.835
310.85
310.857
310.857
310.85
310.835
310.813
310.786
310.755
310.722
310.687
310.653
310.627
306.397
306.413
306.433
306.454
306.474
306.492
306.509
306.522
306.531
306.535
306.535
306.531
306.522
306.509
306.492
306.474
306.454
306.433
306.413
306.397
302.147
302.152
302.159
302.166
302.172
302.179
302.184
302.188
302.191
302.193
302.193
302.191
302.188
302.184
302.179
302.172
302.166
302.159
302.152
302.147
332.289
332.367
332.461
332.556
332.647
332.731
332.803
332.861
332.901
332.922
332.922
332.901
332.861
332.803
332.731
332.647
332.556
332.461
332.367
332.289
328.187
328.253
328.334
328.416
328.496
328.568
328.631
328.681
328.716
328.734
328.734
328.716
328.681
328.631
328.568
328.496
328.416
328.334
328.253
328.187
323.999
324.054
324.122
324.192
324.259
324.321
324.374
324.416
324.446
324.461
324.461
324.446
324.416
324.374
324.321
324.259
324.192
324.122
324.054
323.999
319.739
319.783
319.838
319.896
319.951
320.001
320.044
320.079
320.103
320.116
320.116
320.103
320.079
320.044
320.001
319.951
319.896
319.838
319.783
319.739
315.418
315.452
315.496
315.54
315.583
315.622
315.656
315.683
315.702
315.712
315.712
315.702
315.683
315.656
315.622
315.583
315.54
315.496
315.452
315.418
311.052
311.076
311.107
311.139
311.169
311.197
311.221
311.241
311.254
311.261
311.261
311.254
311.241
311.221
311.197
311.169
311.139
311.107
311.076
311.052
306.652
306.666
306.685
306.704
306.722
306.739
306.754
306.765
306.773
306.778
306.778
306.773
306.765
306.754
306.739
306.722
306.704
306.685
306.666
306.652
302.232
302.237
302.243
302.249
302.256
302.261
302.266
302.27
302.273
302.274
302.274
302.273
302.27
302.266
302.261
302.256
302.249
302.243
302.237
302.232
333.506
333.578
333.665
333.752
333.836
333.912
333.977
334.03
334.066
334.085
334.085
334.066
334.03
333.977
333.912
333.836
333.752
333.665
333.578
333.506
329.228
329.289
329.364
329.44
329.513
329.579
329.636
329.681
329.713
329.729
329.729
329.713
329.681
329.636
329.579
329.513
329.44
329.364
329.289
329.228
324.87
324.921
324.984
325.049
325.11
325.166
325.215
325.253
325.28
325.294
325.294
325.28
325.253
325.215
325.166
325.11
325.049
324.984
324.921
324.87
320.445
320.485
320.537
320.59
320.64
320.686
320.726
320.757
320.779
320.791
320.791
320.779
320.757
320.726
320.686
320.64
320.59
320.537
320.485
320.445
315.963
315.995
316.035
316.076
316.115
316.151
316.182
316.207
316.224
316.232
316.232
316.224
316.207
316.182
316.151
316.115
316.076
316.035
315.995
315.963
311.439
311.461
311.49
311.519
311.547
311.573
311.595
311.613
311.625
311.631
311.631
311.625
311.613
311.595
311.573
311.547
311.519
311.49
311.461
311.439
306.883
306.897
306.914
306.932
306.948
306.964
306.977
306.988
306.995
306.999
306.999
306.995
306.988
306.977
306.964
306.948
306.932
306.914
306.897
306.883
302.31
302.314
302.32
302.326
302.331
302.336
302.341
302.344
302.347
302.348
302.348
302.347
302.344
302.341
302.336
302.331
302.326
302.32
302.314
302.31
334.447
334.515
334.597
334.679
334.757
334.828
334.889
334.937
334.971
334.988
334.988
334.971
334.937
334.889
334.828
334.757
334.679
334.597
334.515
334.447
330.004
330.061
330.132
330.203
330.272
330.333
330.387
330.429
330.458
330.473
330.473
330.458
330.429
330.387
330.333
330.272
330.203
330.132
330.061
330.004
325.499
325.547
325.607
325.668
325.726
325.778
325.824
325.86
325.885
325.898
325.898
325.885
325.86
325.824
325.778
325.726
325.668
325.607
325.547
325.499
320.942
320.981
321.03
321.08
321.127
321.17
321.208
321.237
321.258
321.268
321.268
321.258
321.237
321.208
321.17
321.127
321.08
321.03
320.981
320.942
316.34
316.37
316.408
316.447
316.484
316.518
316.547
316.57
316.586
316.594
316.594
316.586
316.57
316.547
316.518
316.484
316.447
316.408
316.37
316.34
311.703
311.724
311.751
311.779
311.806
311.83
311.851
311.867
311.879
311.885
311.885
311.879
311.867
311.851
311.83
311.806
311.779
311.751
311.724
311.703
307.04
307.053
307.069
307.086
307.102
307.116
307.129
307.139
307.146
307.149
307.149
307.146
307.139
307.129
307.116
307.102
307.086
307.069
307.053
307.04
302.362
302.366
302.371
302.377
302.382
302.387
302.391
302.395
302.397
302.398
302.398
302.397
302.395
302.391
302.387
302.382
302.377
302.371
302.366
302.362
)
;

boundaryField
{
    hotSide
    {
        type            fixedGradient;
        gradient        nonuniform List<scalar> 
400
(
200.948
201.693
203.186
205.43
208.432
212.199
216.74
222.064
228.18
235.1
242.831
251.383
260.765
270.982
282.043
293.951
306.713
320.331
334.809
350.148
203.615
204.34
205.791
207.975
210.899
214.574
219.011
224.223
230.221
237.018
244.626
253.056
262.318
272.42
283.37
295.173
307.836
321.362
335.753
351.013
206.502
207.201
208.603
210.715
213.548
217.115
221.431
226.512
232.373
239.031
246.499
254.791
263.92
273.894
284.722
296.412
308.968
322.395
336.695
351.872
209.56
210.23
211.574
213.603
216.33
219.774
223.952
228.884
234.592
241.094
248.408
256.55
265.533
275.369
286.068
297.637
310.082
323.406
337.613
352.703
212.704
213.341
214.62
216.556
219.166
222.472
226.498
231.27
236.811
243.145
250.295
258.277
267.109
276.802
287.368
298.814
311.145
324.367
338.48
353.485
215.803
216.404
217.615
219.452
221.937
225.098
228.965
233.568
238.938
245.101
252.083
259.905
268.585
278.137
288.572
299.899
312.121
325.243
339.267
354.193
218.679
219.245
220.387
222.126
224.488
227.506
231.217
235.657
240.861
246.86
253.683
261.354
269.893
279.314
289.628
300.845
312.968
326.002
339.946
354.8
221.121
221.655
222.735
224.385
226.637
229.528
233.101
237.397
242.455
248.312
254.998
262.54
270.958
280.268
290.481
301.606
313.648
326.607
340.485
355.281
222.907
223.417
224.45
226.032
228.2
230.995
234.464
238.652
243.602
249.352
255.937
263.383
271.713
280.942
291.082
302.141
314.123
327.03
340.861
355.616
223.854
224.35
225.358
226.903
229.025
231.769
235.181
239.31
244.202
249.896
256.426
263.822
272.105
281.291
291.392
302.417
314.368
327.247
341.054
355.787
223.854
224.35
225.358
226.903
229.025
231.769
235.181
239.31
244.202
249.896
256.426
263.822
272.105
281.291
291.392
302.417
314.368
327.247
341.054
355.787
222.907
223.417
224.45
226.032
228.2
230.995
234.464
238.652
243.602
249.352
255.937
263.383
271.713
280.942
291.082
302.141
314.123
327.03
340.861
355.616
221.121
221.655
222.735
224.385
226.637
229.528
233.101
237.397
242.455
248.312
254.998
262.54
270.958
280.268
290.481
301.606
313.648
326.607
340.485
355.281
218.679
219.245
220.387
222.126
224.488
227.506
231.217
235.657
240.861
246.86
253.683
261.354
269.893
279.314
289.628
300.845
312.968
326.002
339.946
354.8
215.803
216.404
217.615
219.452
221.937
225.098
228.965
233.568
238.938
245.101
252.083
259.905
268.585
278.137
288.572
299.899
312.121
325.243
339.267
354.193
212.704
213.341
214.62
216.556
219.166
222.472
226.498
231.27
236.811
243.145
250.295
258.277
267.109
276.802
287.368
298.814
311.145
324.367
338.48
353.485
209.56
210.23
211.574
213.603
216.33
219.774
223.952
228.884
234.592
241.094
248.408
256.55
265.533
275.369
286.068
297.637
310.082
323.406
337.613
352.703
206.502
207.201
208.603
210.715
213.548
217.115
221.431
226.512
232.373
239.031
246.499
254.791
263.92
273.894
284.722
296.412
308.968
322.395
336.695
351.872
203.615
204.34
205.791
207.975
210.899
214.574
219.011
224.223
230.221
237.018
244.626
253.056
262.318
272.42
283.37
295.173
307.836
321.362
335.753
351.013
200.948
201.693
203.186
205.43
208.432
212.199
216.74
222.064
228.18
235.1
242.831
251.383
260.765
270.982
282.043
293.951
306.713
320.331
334.809
350.148
)
;
    }
    coldSide
    {
        type            mixed;
        refValue        uniform 300;
        refGradient     uniform 0;
        valueFraction   uniform 0.991591;
        source          uniform 0;
        value           nonuniform List<scalar> 
400
(
300.012
300.012
300.012
300.012
300.012
300.013
300.013
300.013
300.013
300.014
300.014
300.015
300.015
300.016
300.017
300.017
300.018
300.019
300.019
300.02
300.012
300.012
300.012
300.012
300.012
300.013
300.013
300.013
300.014
300.014
300.014
300.015