/*--------------------------------*- C++ -*----------------------------------*\
| =========                 |                                                 |
| \\      /  F ield         | OpenFOAM: The Open Source CFD Toolbox           |
|  \\    /   O peration     | Version:  2212                                  |
|   \\  /    A nd           | Website:  www.openfoam.com                      |
|    \\/     M anipulation  |                                                 |
\*---------------------------------------------------------------------------*/
FoamFile
{
    version     2.0;
    format      ascii;
    arch        "LSB;label=32;scalar=64";
    class       volScalarField;
    location    "0";
    object      Ttrue;
}
// * * * * * * * * * * * * * * * * * * * * * * * * * * * * * * * * * * * * * //

dimensions      [0 0 0 1 0 0 0];

internalField   nonuniform List<scalar> 
3200
(
349.945
350.585
351.402
352.293
353.21
354.111
354.942
355.644
356.155
356.425
356.425
356.155
355.644
354.942
354.111
353.21
352.293
351.402
350.585
349.945
343.318
343.859
344.564
345.335
346.129
346.908
347.626
348.233
348.674
348.907
348.907
348.674
348.233
347.626
346.908
346.129
345.335
344.564
343.859
343.318
336.678
337.127
337.721
338.373
339.043
339.702
340.308
340.82
341.192
341.389
341.389
341.192
340.82
340.308
339.702
339.043
338.373
337.721
337.127
336.678
330.028
330.39
330.874
331.406
331.955
332.492
332.988
333.406
333.71
333.87
333.87
333.71
333.406
332.988
332.492
331.955
331.406
330.874
330.39
330.028
323.37
323.648
324.023
324.437
324.863
325.281
325.666
325.99
326.226
326.351
326.351
326.226
325.99
325.666
325.281
324.863
324.437
324.023
323.648
323.37
316.705
316.902
317.17
317.465
317.769
318.068
318.343
318.574
318.742
318.831
318.831
318.742
318.574
318.343
318.068
317.769
317.465
317.17
316.902
316.705
310.036
310.154
310.314
310.491
310.674
310.853
311.018
311.157
311.258
311.312
311.312
311.258
311.157
311.018
310.853
310.674
310.491
310.314
310.154
310.036
303.365
303.404
303.458
303.517
303.578
303.638
303.694
303.74
303.774
303.792
303.792
303.774
303.74
303.694
303.638
303.578
303.517
303.458
303.404
303.365
350.116
350.751
351.561
352.443
353.352
354.242
355.064
355.756
356.261
356.527
356.527
356.261
355.756
355.064
354.242
353.352
352.443
351.561
350.751
350.116
343.466
344.003
344.702
345.465
346.251
347.022
347.732
348.331
348.766
348.996
348.996
348.766
348.331
347.732
347.022
346.251
345.465
344.702
344.003
343.466
336.803
337.249
337.838
338.483
339.147
339.798
340.398
340.903
341.271
341.465
341.465
341.271
340.903
340.398
339.798
339.147
338.483
337.838
337.249
336.803
330.13
330.489
330.969
331.497
332.039
332.571
333.061
333.474
333.774
333.932
333.932
333.774
333.474
333.061
332.571
332.039
331.497
330.969
330.489
330.13
323.449
323.725
324.097
324.507
324.929
325.342
325.723
326.043
326.276
326.399
326.399
326.276
326.043
325.723
325.342
324.929
324.507
324.097
323.725
323.449
316.762
316.957
317.223
317.515
317.817
318.112
318.383
318.612
318.778
318.866
318.866
318.778
318.612
318.383
318.112
317.817
317.515
317.223
316.957
316.762
310.07
310.187
310.346
310.522
310.703
310.88
311.043
311.18
311.28
311.332
311.332
311.28
311.18
311.043
310.88
310.703
310.522
310.346
310.187
310.07
303.376
303.415
303.468
303.527
303.588
303.647
303.702
303.748
303.781
303.799
303.799
303.781
303.748
303.702
303.647
303.588
303.527
303.468
303.415
303.376
350.458
351.083
351.88
352.746
353.636
354.507
355.31
355.986
356.477
356.737
356.737
356.477
355.986
355.31
354.507
353.636
352.746
351.88
351.083
350.458
343.762
344.291
344.978
345.728
346.498
347.252
347.945
348.53
348.954
349.178
349.178
348.954
348.53
347.945
347.252
346.498
345.728
344.978
344.291
343.762
337.054
337.493
338.072
338.705
339.356
339.993
340.578
341.072
341.43
341.619
341.619
341.43
341.072
340.578
339.993
339.356
338.705
338.072
337.493
337.054
330.335
330.689
331.161
331.678
332.21
332.731
333.209
333.612
333.904
334.059
334.059
333.904
333.612
333.209
332.731
332.21
331.678
331.161
330.689
330.335
323.609
323.88
324.246
324.648
325.062
325.466
325.838
326.151
326.378
326.498
326.498
326.378
326.151
325.838
325.466
325.062
324.648
324.246
323.88
323.609
316.876
317.068
317.329
317.616
317.911
318.2
318.466
318.689
318.851
318.936
318.936
318.851
318.689
318.466
318.2
317.911
317.616
317.329
317.068
316.876
310.139
310.253
310.41
310.582
310.76
310.933
311.092
311.226
311.324
311.375
311.375
311.324
311.226
311.092
310.933
310.76
310.582
310.41
310.253
310.139
303.399
303.437
303.49
303.547
303.607
303.665
303.718
303.763
303.796
303.813
303.813
303.796
303.763
303.718
303.665
303.607
303.547
303.49
303.437
303.399
350.974
351.585
352.361
353.203
354.067
354.91
355.686
356.337
356.81
357.06
357.06
356.81
356.337
355.686
354.91
354.067
353.203
352.361
351.585
350.974
344.209
344.725
345.395
346.124
346.871
347.601
348.272
348.835
349.244
349.459
349.459
349.244
348.835
348.272
347.601
346.871
346.124
345.395
344.725
344.209
337.431
337.86
338.424
339.04
339.672
340.289
340.855
341.33
341.675
341.857
341.857
341.675
341.33
340.855
340.289
339.672
339.04
338.424
337.86
337.431
330.644
330.989
331.449
331.952
332.469
332.973
333.435
333.824
334.106
334.254
334.254
334.106
333.824
333.435
332.973
332.469
331.952
331.449
330.989
330.644
323.849
324.114
324.47
324.862
325.263
325.655
326.014
326.316
326.535
326.65
326.65
326.535
326.316
326.014
325.655
325.263
324.862
324.47
324.114
323.849
317.047
317.235
317.489
317.769
318.055
318.335
318.592
318.807
318.963
319.045
319.045
318.963
318.807
318.592
318.335
318.055
317.769
317.489
317.235
317.047
310.242
310.354
310.506
310.674
310.846
311.014
311.168
311.297
311.391
311.44
311.44
311.391
311.297
311.168
311.014
310.846
310.674
310.506
310.354
310.242
303.433
303.471
303.522
303.578
303.636
303.692
303.744
303.787
303.818
303.835
303.835
303.818
303.787
303.744
303.692
303.636
303.578
303.522
303.471
303.433
351.665
352.256
353.007
353.82
354.65
355.458
356.199
356.82
357.27
357.507
357.507
357.27
356.82
356.199
355.458
354.65
353.82
353.007
352.256
351.665
344.807
345.307
345.955
346.658
347.377
348.076
348.717
349.254
349.643
349.848
349.848
349.643
349.254
348.717
348.076
347.377
346.658
345.955
345.307
344.807
337.937
338.352
338.898
339.492
340.099
340.691
341.232
341.685
342.014
342.187
342.187
342.014
341.685
341.232
340.691
340.099
339.492
338.898
338.352
337.937
331.057
331.392
331.837
332.322
332.819
333.302
333.744
334.115
334.383
334.524
334.524
334.383
334.115
333.744
333.302
332.819
332.322
331.837
331.392
331.057
324.17
324.427
324.772
325.149
325.535
325.911
326.255
326.542
326.751
326.86
326.86
326.751
326.542
326.255
325.911
325.535
325.149
324.772
324.427
324.17
317.277
317.459
317.705
317.974
318.25
318.518
318.763
318.969
319.118
319.196
319.196
319.118
318.969
318.763
318.518
318.25
317.974
317.705
317.459
317.277
310.379
310.488
310.635
310.797
310.963
311.124
311.271
311.394
311.484
311.531
311.531
311.484
311.394
311.271
311.124
310.963
310.797
310.635
310.488
310.379
303.48
303.516
303.565
303.619
303.675
303.729
303.778
303.82
303.85
303.865
303.865
303.85
303.82
303.778
303.729
303.675
303.619
303.565
303.516
303.48
352.533
353.102
353.823
354.6
355.391
356.158
356.859
357.445
357.869
358.092
358.092
357.869
357.445
356.859
356.158
355.391
354.6
353.823
353.102
352.533
345.558
346.04
346.662
347.334
348.019
348.683
349.29
349.796
350.163
350.355
350.355
350.163
349.796
349.29
348.683
348.019
347.334
346.662
346.04
345.558
338.572
338.972
339.496
340.064
340.643
341.204
341.717
342.145
342.454
342.616
342.616
342.454
342.145
341.717
341.204
340.643
340.064
339.496
338.972
338.572
331.576
331.898
332.325
332.79
333.263
333.722
334.141
334.491
334.743
334.876
334.876
334.743
334.491
334.141
333.722
333.263
332.79
332.325
331.898
331.576
324.574
324.821
325.152
325.513
325.881
326.238
326.563
326.835
327.031
327.134
327.134
327.031
326.835
326.563
326.238
325.881
325.513
325.152
324.821
324.574
317.565
317.74
317.976
318.234
318.497
318.752
318.984
319.178
319.318
319.392
319.392
319.318
319.178
318.984
318.752
318.497
318.234
317.976
317.74
317.565
310.553
310.657
310.799
310.953
311.111
311.264
311.404
311.52
311.604
311.648
311.648
311.604
311.52
311.404
311.264
311.111
310.953
310.799
310.657
310.553
303.538
303.573
303.62
303.672
303.725
303.776
303.823
303.862
303.89
303.905
303.905
303.89
303.862
303.823
303.776
303.725
303.672
303.62
303.573
303.538
353.581
354.125
354.812
355.549
356.297
357.019
357.676
358.224
358.619
358.826
358.826
358.619
358.224
357.676
357.019
356.297
355.549
354.812
354.125
353.581
346.465
346.926
347.518
348.156
348.804
349.429
349.998
350.471
350.813
350.992
350.992
350.813
350.471
349.998
349.429
348.804
348.156
347.518
346.926
346.465
339.339
339.721
340.22
340.76
341.307
341.836
342.316
342.716
343.005
343.156
343.156
343.005
342.716
342.316
341.836
341.307
340.76
340.22
339.721
339.339
332.203
332.511
332.918
333.359
333.807
334.239
334.632
334.959
335.194
335.318
335.318
335.194
334.959
334.632
334.239
333.807
333.359
332.918
332.511
332.203
325.061
325.297
325.613
325.956
326.304
326.64
326.945
327.199
327.382
327.478
327.478
327.382
327.199
326.945
326.64
326.304
325.956
325.613
325.297
325.061
317.913
318.081
318.306
318.55
318.799
319.039
319.257
319.439
319.569
319.638
319.638
319.569
319.439
319.257
319.039
318.799
318.55
318.306
318.081
317.913
310.762
310.861
310.996
311.143
311.293
311.437
311.568
311.677
311.755
311.796
311.796
311.755
311.677
311.568
311.437
311.293
311.143
310.996
310.861
310.762
303.608
303.641
303.686
303.736
303.786
303.834
303.878
303.914
303.941
303.954
303.954
303.941
303.914
303.878
303.834
303.786
303.736
303.686
303.641
303.608
354.811
355.328
355.978
356.673
357.375
358.049
358.66
359.167
359.532
359.723
359.723
359.532
359.167
358.66
358.049
357.375
356.673
355.978
355.328
354.811
347.53
347.968
348.529
349.131
349.738
350.322
350.851
351.29
351.605
351.771
351.771
351.605
351.29
350.851
350.322
349.738
349.131
348.529
347.968
347.53
340.239
340.603
341.075
341.584
342.097
342.591
343.038
343.409
343.676
343.815
343.815
343.676
343.409
343.038
342.591
342.097
341.584
341.075
340.603
340.239
332.94
333.232
333.618
334.033
334.453
334.857
335.223
335.526
335.744
335.858
335.858
335.744
335.526
335.223
334.857
334.453
334.033
333.618
333.232
332.94
325.634
325.858
326.157
326.48
326.807
327.121
327.405
327.641
327.81
327.899
327.899
327.81
327.641
327.405
327.121
326.807
326.48
326.157
325.858
325.634
318.322
318.481
318.694
318.925
319.158
319.383
319.586
319.754
319.875
319.938
319.938
319.875
319.754
319.586
319.383
319.158
318.925
318.694
318.481
318.322
311.007
311.102
311.23
311.368
311.509
311.643
311.765
311.866
311.939
311.977
311.977
311.939
311.866
311.765
311.643
311.509
311.368
311.23
311.102
311.007
303.69
303.722
303.764
303.811
303.858
303.903
303.944
303.978
304.002
304.015
304.015
304.002
303.978
303.944
303.903
303.858
303.811
303.764
303.722
303.69
356.228
356.716
357.328
357.978
358.632
359.257
359.821
360.288
360.622
360.797
360.797
360.622
360.288
359.821
359.257
358.632
357.978
357.328
356.716
356.228
348.757
349.17
349.698
350.261
350.827
351.369
351.857
352.261
352.55
352.701
352.701
352.55
352.261
351.857
351.369
350.827
350.261
349.698
349.17
348.757
341.276
341.619
342.064
342.54
343.019
343.477
343.89
344.231
344.475
344.603
344.603
344.475
344.231
343.89
343.477
343.019
342.54
342.064
341.619
341.276
333.788
334.064
334.426
334.816
335.207
335.582
335.92
336.199
336.398
336.503
336.503
336.398
336.199
335.92
335.582
335.207
334.816
334.426
334.064
333.788
326.293
326.505
326.786
327.089
327.393
327.685
327.947
328.164
328.319
328.4
328.4
328.319
328.164
327.947
327.685
327.393
327.089
326.786
326.505
326.293
318.793
318.943
319.144
319.36
319.577
319.786
319.973
320.128
320.239
320.297
320.297
320.239
320.128
319.973
319.786
319.577
319.36
319.144
318.943
318.793
311.29
311.38
311.5
311.63
311.76
311.885
311.998
312.091
312.157
312.192
312.192
312.157
312.091
311.998
311.885
311.76
311.63
311.5
311.38
311.29
303.785
303.815
303.855
303.898
303.942
303.984
304.022
304.053
304.075
304.087
304.087
304.075
304.053
304.022
303.984
303.942
303.898
303.855
303.815
303.785
357.833
358.292
358.864
359.47
360.075
360.652
361.169
361.595
361.899
362.058
362.058
361.899
361.595
361.169
360.652
360.075
359.47
358.864
358.292
357.833
350.147
350.535
351.029
351.553
352.078
352.577
353.025
353.394
353.657
353.795
353.795
353.657
353.394
353.025
352.577
352.078
351.553
351.029
350.535
350.147
342.452
342.774
343.19
343.633
344.077
344.499
344.878
345.19
345.412
345.528
345.528
345.412
345.19
344.878
344.499
344.077
343.633
343.19
342.774
342.452
334.749
335.008
335.347
335.71
336.073
336.418
336.728
336.983
337.165
337.26
337.26
337.165
336.983
336.728
336.418
336.073
335.71
335.347
335.008
334.749
327.04
327.239
327.502
327.784
328.067
328.335
328.576
328.774
328.916
328.99
328.99
328.916
328.774
328.576
328.335
328.067
327.784
327.502
327.239
327.04
319.327
319.468
319.655
319.857
320.058
320.25
320.422
320.564
320.665
320.718
320.718
320.665
320.564
320.422
320.25
320.058
319.857
319.655
319.468
319.327
311.611
311.695
311.807
311.928
312.049
312.164
312.268
312.353
312.413
312.445
312.445
312.413
312.353
312.268
312.164
312.049
311.928
311.807
311.695
311.611
303.892
303.92
303.958
303.999
304.039
304.078
304.112
304.141
304.161
304.172
304.172
304.161
304.141
304.112
304.078
304.039
303.999
303.958
303.92
303.892
359.63
360.06
360.592
361.153
361.711
362.239
362.71
363.097
363.373
363.516
363.516
363.373
363.097
362.71
362.239
361.711
361.153
360.592
360.06
359.63
351.703
352.066
352.526
353.012
353.495
353.952
354.361
354.696
354.934
355.059
355.059
354.934
354.696
354.361
353.952
353.495
353.012
352.526
352.066
351.703
343.767
344.068
344.456
344.867
345.275
345.662
346.008
346.291
346.493
346.598
346.598
346.493
346.291
346.008
345.662
345.275
344.867
344.456
344.068
343.767
335.825
336.067
336.383
336.719
337.053
337.37
337.653
337.884
338.049
338.135
338.135
338.049
337.884
337.653
337.37
337.053
336.719
336.383
336.067
335.825
327.877
328.063
328.308
328.569
328.829
329.075
329.295
329.475
329.604
329.671
329.671
329.604
329.475
329.295
329.075
328.829
328.569
328.308
328.063
327.877
319.924
320.056
320.231
320.417
320.603
320.779
320.936
321.065
321.157
321.204
321.204
321.157
321.065
320.936
320.779
320.603
320.417
320.231
320.056
319.924
311.969
312.048
312.153
312.265
312.376
312.482
312.576
312.654
312.709
312.737
312.737
312.709
312.654
312.576
312.482
312.376
312.265
312.153
312.048
311.969
304.012
304.039
304.074
304.111
304.149
304.184
304.216
304.242
304.26
304.27
304.27
304.26
304.242
304.216
304.184
304.149
304.111
304.074
304.039
304.012
361.621
362.021
362.515
363.032
363.544
364.025
364.453
364.803
365.051
365.18
365.18
365.051
364.803
364.453
364.025
363.544
363.032
362.515
362.021
361.621
353.427
353.765
354.191
354.639
355.082
355.5
355.871
356.174
356.389
356.501
356.501
356.389
356.174
355.871
355.5
355.082
354.639
354.191
353.765
353.427
345.225
345.506
345.865
346.243
346.618
346.972
347.285
347.542
347.724
347.818
347.818
347.724
347.542
347.285
346.972
346.618
346.243
345.865
345.506
345.225
337.017
337.242
337.535
337.845
338.152
338.441
338.698
338.907
339.056
339.133
339.133
339.056
338.907
338.698
338.441
338.152
337.845
337.535
337.242
337.017
328.804
328.977
329.204
329.445
329.684
329.908
330.108
330.271
330.387
330.447
330.447
330.387
330.271
330.108
329.908
329.684
329.445
329.204
328.977
328.804
320.587
320.709
320.871
321.043
321.214
321.374
321.517
321.634
321.716
321.759
321.759
321.716
321.634
321.517
321.374
321.214
321.043
320.871
320.709
320.587
312.367
312.44
312.537
312.641
312.743
312.84
312.925
312.995
313.045
313.071
313.071
313.045
312.995
312.925
312.84
312.743
312.641
312.537
312.44
312.367
304.146
304.17
304.203
304.237
304.272
304.304
304.333
304.356
304.373
304.382
304.382
304.373
304.356
304.333
304.304
304.272
304.237
304.203
304.17
304.146
363.809
364.18
364.635
365.111
365.578
366.015
366.403
366.717
366.94
367.056
367.056
366.94
366.717
366.403
366.015
365.578
365.111
364.635
364.18
363.809
355.321
355.635
356.028
356.44
356.844
357.224
357.559
357.832
358.025
358.125
358.125
358.025
357.832
357.559
357.224
356.844
356.44
356.028
355.635
355.321
346.826
347.086
347.418
347.766
348.109
348.43
348.714
348.945
349.108
349.193
349.193
349.108
348.945
348.714
348.43
348.109
347.766
347.418
347.086
346.826
338.326
338.535
338.806
339.091
339.371
339.634
339.866
340.055
340.189
340.258
340.258
340.189
340.055
339.866
339.634
339.371
339.091
338.806
338.535
338.326
329.822
329.982
330.192
330.413
330.632
330.836
331.017
331.164
331.268
331.322
331.322
331.268
331.164
331.017
330.836
330.632
330.413
330.192
329.982
329.822
321.314
321.427
321.577
321.735
321.891
322.037
322.166
322.271
322.346
322.384
322.384
322.346
322.271
322.166
322.037
321.891
321.735
321.577
321.427
321.314
312.804
312.871
312.961
313.056
313.15
313.238
313.315
313.378
313.423
313.446
313.446
313.423
313.378
313.315
313.238
313.15
313.056
312.961
312.871
312.804
304.292
304.315
304.345
304.377
304.408
304.437
304.463
304.485
304.5
304.507
304.507
304.5
304.485
304.463
304.437
304.408
304.377
304.345
304.315
304.292
366.192
366.535
366.955
367.39
367.815
368.212
368.561
368.843
369.043
369.146
369.146
369.043
368.843
368.561
368.212
367.815
367.39
366.955
366.535
366.192
357.384
357.674
358.037
358.413
358.782
359.126
359.428
359.673
359.846
359.936
359.936
359.846
359.673
359.428
359.126
358.782
358.413
358.037
357.674
357.384
348.571
348.811
349.116
349.435
349.747
350.038
350.294
350.502
350.648
350.724
350.724
350.648
350.502
350.294
350.038
349.747
349.435
349.116
348.811
348.571
339.752
339.946
340.195
340.456
340.711
340.949
341.159
341.329
341.448
341.51
341.51
341.448
341.329
341.159
340.949
340.711
340.456
340.195
339.946
339.752
330.931
331.079
331.272
331.475
331.674
331.859
332.022
332.154
332.247
332.295
332.295
332.247
332.154
332.022
331.859
331.674
331.475
331.272
331.079
330.931
322.106
322.211
322.349
322.494
322.636
322.768
322.885
322.979
323.045
323.08
323.08
323.045
322.979
322.885
322.768
322.636
322.494
322.349
322.211
322.106
313.279
313.342
313.425
313.512
313.597
313.676
313.746
313.803
313.843
313.864
313.864
313.843
313.803
313.746
313.676
313.597
313.512
313.425
313.342
313.279
304.451
304.472
304.5
304.529
304.558
304.585
304.608
304.627
304.64
304.647
304.647
304.64
304.627
304.608
304.585
304.558
304.529
304.5
304.472
304.451
368.768
369.085
369.47
369.868
370.254
370.612
370.926
371.179
371.358
371.45
371.45
371.358
371.179
370.926
370.612
370.254
369.868
369.47
369.085
368.768
359.614
359.882
360.214
360.559
360.894
361.204
361.477
361.696
361.851
361.93
361.93
361.851
361.696
361.477
361.204
360.894
360.559
360.214
359.882
359.614
350.455
350.677
350.958
351.249
351.532
351.795
352.026
352.212
352.343
352.41
352.41
352.343
352.212
352.026
351.795
351.532
351.249
350.958
350.677
350.455
341.293
341.472
341.7
341.939
342.171
342.386
342.575
342.727
342.834
342.889
342.889
342.834
342.727
342.575
342.386
342.171
341.939
341.7
341.472
341.293
332.128
332.265
332.443
332.628
332.808
332.976
333.123
333.241
333.324
333.367
333.367
333.324
333.241
333.123
332.976
332.808
332.628
332.443
332.265
332.128
322.961
323.058
323.185
323.317
323.446
323.566
323.671
323.755
323.815
323.846
323.846
323.815
323.755
323.671
323.566
323.446
323.317
323.185
323.058
322.961
313.793
313.851
313.926
314.006
314.084
314.155
314.218
314.269
314.305
314.324
314.324
314.305
314.269
314.218
314.155
314.084
314.006
313.926
313.851
313.793
304.624
304.643
304.668
304.695
304.721
304.745
304.766
304.783
304.795
304.801
304.801
304.795
304.783
304.766
304.745
304.721
304.695
304.668
304.643
304.624
371.528
371.819
372.172
372.534
372.885
373.208
373.49
373.717
373.876
373.958
373.958
373.876
373.717
373.49
373.208
372.885
372.534
372.172
371.819
371.528
362.001
362.247
362.552
362.866
363.169
363.45
363.694
363.891
364.029
364.1
364.1
364.029
363.891
363.694
363.45
363.169
362.866
362.552
362.247
362.001
352.471
352.675
352.932
353.198
353.455
353.692
353.9
354.066
354.183
354.243
354.243
354.183
354.066
353.9
353.692
353.455
353.198
352.932
352.675
352.471
342.94
343.104
343.314
343.531
343.742
343.936
344.105
344.242
344.337
344.387
344.387
344.337
344.242
344.105
343.936
343.742
343.531
343.314
343.104
342.94
333.408
333.534
333.696
333.865
334.029
334.18
334.312
334.418
334.493
334.531
334.531
334.493
334.418
334.312
334.18
334.029
333.865
333.696
333.534
333.408
323.875
323.964
324.08
324.2
324.318
324.426
324.52
324.596
324.649
324.676
324.676
324.649
324.596
324.52
324.426
324.318
324.2
324.08
323.964
323.875
314.341
314.394
314.464
314.536
314.607
314.672
314.728
314.774
314.806
314.822
314.822
314.806
314.774
314.728
314.672
314.607
314.536
314.464
314.394
314.341
304.807
304.825
304.848
304.873
304.896
304.918
304.937
304.952
304.963
304.969
304.969
304.963
304.952
304.937
304.918
304.896
304.873
304.848
304.825
304.807
374.441
374.708
375.031
375.361
375.679
375.971
376.224
376.427
376.569
376.642
376.642
376.569
376.427
376.224
375.971
375.679
375.361
375.031
374.708
374.441
364.515
364.742
365.021
365.307
365.582
365.835
366.055
366.231
366.354
366.417
366.417
366.354
366.231
366.055
365.835
365.582
365.307
365.021
364.742
364.515
354.592
354.779
355.014
355.256
355.49
355.704
355.89
356.039
356.143
356.197
356.197
356.143
356.039
355.89
355.704
355.49
355.256
355.014
354.779
354.592
344.67
344.821
345.013
345.211
345.402
345.577
345.73
345.852
345.937
345.981
345.981
345.937
345.852
345.73
345.577
345.402
345.211
345.013
344.821
344.67
334.75
334.866
335.015
335.169
335.317
335.454
335.573
335.668
335.734
335.768
335.768
335.734
335.668
335.573
335.454
335.317
335.169
335.015
334.866
334.75
324.832
324.914
325.02
325.13
325.237
325.334
325.419
325.487
325.534
325.559
325.559
325.534
325.487
325.419
325.334
325.237
325.13
325.02
324.914
324.832
314.915
314.964
315.028
315.094
315.158
315.217
315.268
315.308
315.337
315.352
315.352
315.337
315.308
315.268
315.217
315.158
315.094
315.028
314.964
314.915
305
305.016
305.037
305.06
305.081
305.101
305.118
305.131
305.141
305.146
305.146
305.141
305.131
305.118
305.101
305.081
305.06
305.037
305.016
305
377.431
377.678
377.974
378.275
378.563
378.827
379.055
379.237
379.364
379.429
379.429
379.364
379.237
379.055
378.827
378.563
378.275
377.974
377.678
377.431
367.085
367.294
367.55
367.811
368.061
368.29
368.488
368.646
368.756
368.813
368.813
368.756
368.646
368.488
368.29
368.061
367.811
367.55
367.294
367.085
356.75
356.923
357.138
357.359
357.572
357.766
357.933
358.067
358.161
358.209
358.209
358.161
358.067
357.933
357.766
357.572
357.359
357.138
356.923
356.75
346.424
346.563
346.739
346.92
347.094
347.253
347.39
347.5
347.577
347.616
347.616
347.577
347.5
347.39
347.253
347.094
346.92
346.739
346.563
346.424
336.107
336.214
336.351
336.492
336.627
336.751
336.858
336.943
337.003
337.033
337.033
337.003
336.943
336.858
336.751
336.627
336.492
336.351
336.214
336.107
325.798
325.873
325.971
326.072
326.168
326.257
326.333
326.394
326.437
326.459
326.459
326.437
326.394
326.333
326.257
326.168
326.072
325.971
325.873
325.798
315.494
315.539
315.598
315.658
315.716
315.769
315.815
315.852
315.878
315.891
315.891
315.878
315.852
315.815
315.769
315.716
315.658
315.598
315.539
315.494
305.193
305.208
305.228
305.248
305.268
305.286
305.301
305.313
305.322
305.326
305.326
305.322
305.313
305.301
305.286
305.268
305.248
305.228
305.208
305.193
380.308
380.536
380.809
381.086
381.349
381.59
381.797
381.962
382.076
382.135
382.135
382.076
381.962
381.797
381.59
381.349
381.086
380.809
380.536
380.308
369.528
369.721
369.957
370.197
370.426
370.635
370.815
370.958
371.058
371.109
371.109
371.058
370.958
370.815
370.635
370.426
370.197
369.957
369.721
369.528
358.779
358.939
359.138
359.342
359.536
359.714
359.866
359.988
360.073
360.116
360.116
360.073
359.988
359.866
359.714
359.536
359.342
359.138
358.939
358.779
348.058
348.187
348.35
348.517
348.676
348.822
348.947
349.047
349.116
349.152
349.152
349.116
349.047
348.947
348.822
348.676
348.517
348.35
348.187
348.058
337.362
337.461
337.588
337.718
337.842
337.955
338.053
338.131
338.185
338.213
338.213
338.185
338.131
338.053
337.955
337.842
337.718
337.588
337.461
337.362
326.686
326.756
326.846
326.939
327.028
327.109
327.179
327.235
327.273
327.293
327.293
327.273
327.235
327.179
327.109
327.028
326.939
326.846
326.756
326.686
316.024
316.066
316.12
316.176
316.229
316.278
316.32
316.353
316.377
316.389
316.389
316.377
316.353
316.32
316.278
316.229
316.176
316.12
316.066
316.024
305.37
305.384
305.403
305.421
305.439
305.456
305.47
305.481
305.489
305.493
305.493
305.489
305.481
305.47
305.456
305.439
305.421
305.403
305.384
305.37
382.565
382.779
383.035
383.295
383.542
383.766
383.958
384.111
384.218
384.272
384.272
384.218
384.111
383.958
383.766
383.542
383.295
383.035
382.779
382.565
371.37
371.552
371.775
372.001
372.216
372.412
372.58
372.713
372.806
372.854
372.854
372.806
372.713
372.58
372.412
372.216
372.001
371.775
371.552
371.37
360.262
360.414
360.602
360.794
360.977
361.144
361.287
361.4
361.479
361.52
361.52
361.479
361.4
361.287
361.144
360.977
360.794
360.602
360.414
360.262
349.224
349.346
349.5
349.658
349.808
349.945
350.063
350.156
350.221
350.254
350.254
350.221
350.156
350.063
349.945
349.808
349.658
349.5
349.346
349.224
338.241
338.334
338.454
338.577
338.695
338.802
338.893
338.966
339.017
339.043
339.043
339.017
338.966
338.893
338.802
338.695
338.577
338.454
338.334
338.241
327.299
327.365
327.451
327.539
327.623
327.7
327.765
327.818
327.854
327.873
327.873
327.854
327.818
327.765
327.7
327.623
327.539
327.451
327.365
327.299
316.386
316.426
316.477
316.53
316.581
316.627
316.667
316.698
316.72
316.731
316.731
316.72
316.698
316.667
316.627
316.581
316.53
316.477
316.426
316.386
305.491
305.504
305.521
305.539
305.556
305.572
305.585
305.595
305.603
305.607
305.607
305.603
305.595
305.585
305.572
305.556
305.539
305.521
305.504
305.491
)
;

boundaryField
{
    hotSide
    {
        type            fixedGradient;
        gradient        nonuniform List<scalar> 
400
(
528.992
530.839
534.539
540.106
547.56
556.923
568.222
581.488
596.752
614.044
633.393
654.828
678.375
704.056
731.893
761.901
794.096
828.489
865.091
903.907
537.416
539.196
542.765
548.142
555.351
564.424
575.397
588.308
603.197
620.103
639.063
660.112
683.281
708.597
736.083
765.76
797.643
831.744
868.074
906.639
546.532
548.232
551.646
556.796
563.716
572.448
583.038
595.537
609.994
626.459
644.978
665.592
688.339
713.251
740.354
769.671
801.217
835.007
871.049
909.349
556.189
557.797
561.029
565.917
572.504
580.845
590.999
603.03
617.002
632.976
651.006
671.145
693.434
717.911
744.606
773.541
804.735
838.201
873.946
911.976
566.119
567.622
570.651
575.245
581.461
589.367
599.042
610.563
624.009
639.453
656.964
676.6
698.41
722.436
748.71
777.257
808.094
841.234
876.684
914.446
575.906
577.298
580.109
584.39
590.212
597.661
606.833
617.823
630.726
645.629
662.612
681.742
703.074
726.653
752.515
780.683
811.176
844.003
879.172
916.681
584.99
586.271
588.864
592.834
598.267
605.266
613.946
624.419
636.799
651.184
667.666
686.318
707.203
730.369
755.85
783.672
813.852
846.398
881.314
918.598
592.7
593.88
596.279
599.969
605.053
611.652
619.895
629.915
641.836
655.771
671.82
690.063
710.567
733.382
758.543
786.077
815.997
848.31
883.019
920.119
598.343
599.445
601.694
605.172
609.99
616.285
624.199
633.877
645.455
659.056
674.784
692.726
712.951
735.51
760.44
787.765
817.498
849.645
884.206
921.175
601.333
602.393
604.561
607.922
612.597
618.727
626.463
635.957
647.351
660.773
676.33
694.112
714.189
736.613
761.421
788.636
818.271
850.331
884.815
921.716
601.333
602.393
604.561
607.922
612.597
618.727
626.463
635.957
647.351
660.773
676.33
694.112
714.189
736.613
761.421
788.636
818.271
850.331
884.815
921.716
598.343
599.445
601.694
605.172
609.99
616.285
624.199
633.877
645.455
659.056
674.784
692.726
712.951
735.51
760.44
787.765
817.498
849.645
884.206
921.175
592.7
593.88
596.279
599.969
605.053
611.652
619.895
629.915
641.836
655.771
671.82
690.063
710.567
733.382
758.543
786.077
815.997
848.31
883.019
920.119
584.99
586.271
588.864
592.834
598.267
605.266
613.946
624.419
636.799
651.184
667.666
686.318
707.203
730.369
755.85
783.672
813.852
846.398
881.314
918.598
575.906
577.298
580.109
584.39
590.212
597.661
606.833
617.823
630.726
645.629
662.612
681.742
703.074
726.653
752.515
780.683
811.176
844.003
879.172
916.681
566.119
567.622
570.651
575.245
581.461
589.367
599.042
610.563
624.009
639.453
656.964
676.6
698.41
722.436
748.71
777.257
808.094
841.234
876.684
914.446
556.189
557.797
561.029
565.917
572.504
580.845
590.999
603.03
617.002
632.976
651.006
671.145
693.434
717.911
744.606
773.541
804.735
838.201
873.946
911.976
546.532
548.232
551.646
556.796
563.716
572.448
583.038
595.537
609.994
626.459
644.978
665.592
688.339
713.251
740.354
769.671
801.217
835.007
871.049
909.349
537.416
539.196
542.765
548.142
555.351
564.424
575.397
588.308
603.197
620.103
639.063
660.112
683.281
708.597
736.083
765.76
797.643
831.744
868.074
906.639
528.992
530.839
534.539
540.106
547.56
556.923
568.222
581.488
596.752
614.044
633.393
654.828
678.375
704.056
731.893
761.901
794.096
828.489
865.091
903.907
)
;
    }
    coldSide
    {
        type            mixed;
        refValue        uniform 300;
        refGradient     uniform 0;
        valueFraction   uniform 0.991591;
        source          uniform 0;
        value           nonuniform List<scalar> 
400
(
300.028
300.028
300.029
300.029
300.029
300.03
300.03
300.031
300.032
300.033
300.034
300.035
300.036
300.037
300.039
300.04
300.042
300.044
300.045
300.046
300.029
300.029
300.029
300.029
300.03
300.03
300.031
300.031
300.032
300.033
300.034
300.035
300.036
300.038
300.039