/*--------------------------------*- C++ -*----------------------------------*\
| =========                 |                                                 |
| \\      /  F ield         | OpenFOAM: The Open Source CFD Toolbox           |
|  \\    /   O peration     | Version:  2212                                  |
|   \\  /    A nd           | Website:  www.openfoam.com                      |
|    \\/     M anipulation  |                                                 |
\*---------------------------------------------------------------------------*/
FoamFile
{
    version     2.0;
    format      ascii;
    arch        "LSB;label=32;scalar=64";
    class       volScalarField;
    location    "./ITHACAoutput/true/9.9";
    object      error;
}
// * * * * * * * * * * * * * * * * * * * * * * * * * * * * * * * * * * * * * //

dimensions      [0 0 0 1 0 0 0];

internalField   nonuniform List<scalar> 
3200
(
3.24556
3.00858
2.99413
3.0177
3.14636
3.35154
3.59454
3.90788
4.10996
4.13835
4.21645
4.1133
3.96473
3.80803
3.48754
3.28853
3.2505
3.22465
3.31598
3.43008
2.76271
2.67251
2.53907
2.57741
2.6664
2.93989
3.05957
3.3406
3.46777
3.60652
3.59078
3.53389
3.42938
3.16983
3.02619
2.85541
2.82815
2.77729
2.90593
3.00413
2.23574
2.17916
2.12681
2.10459
2.30412
2.45817
2.61908
2.75494
2.93594
3.07179
3.0198
3.00814
2.82794
2.6609
2.56663
2.44311
2.37388
2.36377
2.43604
2.49904
1.77485
1.80693
1.73342
1.82633
1.84782
1.93368
2.12848
2.20809
2.38998
2.48303
2.40393
2.46996
2.25713
2.24263
2.10796
1.96814
1.95325
1.88088
1.95973
2.09323
1.33108
1.3454
1.26834
1.31574
1.36672
1.56992
1.64552
1.76245
1.85992
1.85482
1.87336
1.85834
1.75904
1.75454
1.66866
1.51817
1.50841
1.4996
1.56211
1.60992
0.98853
0.942562
0.912739
0.897292
0.985744
1.12742
1.13112
1.21483
1.32187
1.31405
1.33581
1.3348
1.35712
1.23551
1.20583
1.09185
1.06773
1.11685
1.05804
1.1456
0.632116
0.600552
0.565987
0.595354
0.547534
0.614465
0.757849
0.774194
0.771875
0.813487
0.788954
0.719
0.796112
0.729061
0.732761
0.651719
0.680374
0.574631
0.665022
0.677477
0.205471
0.160428
0.201468
0.173919
0.154384
0.148585
0.232092
0.268505
0.286412
0.309873
0.239893
0.267962
0.264832
0.242195
0.250384
0.210272
0.163106
0.198021
0.200144
0.246377
2.43906
2.26297
2.13449
2.11944
2.1837
2.4619
2.72216
2.94598
3.13894
3.26926
3.25106
3.1867
3.08552
2.84503
2.62367
2.44801
2.30873
2.36093
2.50487
2.6575
2.10517
1.95671
1.84338
1.83403
2.01273
2.10792
2.28383
2.54598
2.79851
2.79477
2.88927
2.73201
2.64186
2.48575
2.2824
2.12694
2.08637
2.13857
2.20526
2.34731
1.72565
1.57692
1.62441
1.62603
1.66907
1.83413
1.99274
2.14684
2.27128
2.40263
2.45537
2.35054
2.24694
1.98291
1.90664
1.83543
1.74596
1.84023
1.91648
2.04595
1.42205
1.37905
1.26321
1.27952
1.35841
1.54301
1.64681
1.79389
1.85588
1.91861
1.97545
1.986
1.86769
1.73285
1.62533
1.51872
1.44311
1.46588
1.58989
1.67145
1.09179
1.01058
0.970267
1.0009
1.01006
1.11458
1.28206
1.41183
1.44083
1.61087
1.57699
1.50425
1.39812
1.32276
1.25479
1.24076
1.23607
1.15354
1.22078
1.30026
0.801269
0.696497
0.72009
0.679449
0.773286
0.815892
0.865859
0.970144
1.00558
1.07471
1.0704
1.07139
1.00191
1.01656
0.978538
0.84633
0.794728
0.870113
0.845224
0.97161
0.507698
0.416222
0.452958
0.443801
0.464006
0.413244
0.547892
0.607191
0.638053
0.597289
0.670647
0.642003
0.586095
0.590877
0.512993
0.520897
0.443129
0.555524
0.506032
0.58825
0.228898
0.131478
0.150525
0.156454
0.0729003
0.104706
0.233046
0.148511
0.185913
0.277151
0.219862
0.19014
0.222857
0.155506
0.177055
0.16819
0.189378
0.138425
0.224454
0.203597
1.45347
1.28628
1.08866
1.11927
1.21136
1.30713
1.47217
1.70112
1.88991
2.01281
1.95571
1.94747
1.84526
1.64708
1.46201
1.32251
1.26911
1.31779
1.52282
1.63063
1.29931
1.11209
1.02988
1.00337
1.08272
1.12886
1.34989
1.4793
1.63351
1.80001
1.7523
1.74991
1.55901
1.41601
1.35789
1.18877
1.20452
1.21769
1.34512
1.55269
1.05146
1.00065
0.887548
0.83703
0.917239
0.927547
1.12138
1.28001
1.42681
1.51091
1.50231
1.47161
1.42693
1.28479
1.05819
1.0033
0.965848
1.06874
1.22849
1.35413
0.86338
0.81169
0.737678
0.681342
0.702747
0.846305
0.942343
1.06439
1.16215
1.30841
1.26117
1.34795
1.13069
1.10804
0.98182
0.913589
0.845516
0.938446
1.00199
1.103
0.69987
0.621153
0.518464
0.506583
0.550403
0.644456
0.743083
0.84621
0.876338
0.94656
0.96446
0.945753
0.928502
0.819909
0.845529
0.754566
0.652146
0.782589
0.789757
0.914889
0.48615
0.461559
0.405574
0.432823
0.417576
0.403145
0.493702
0.581582
0.648208
0.692024
0.701416
0.713193
0.630903
0.590426
0.561789
0.491454
0.526872
0.519327
0.587267
0.607236
0.3216
0.276197
0.308386
0.200064
0.274468
0.222799
0.355515
0.296652
0.390547
0.455007
0.368919
0.473854
0.427716
0.368365
0.417051
0.294343
0.256873
0.265242
0.429054
0.388254
0.0476257
0.0589366
0.0506623
0.0722777
0.097843
0.117379
0.0943374
0.130731
0.0768766
0.171392
0.0803227
0.194517
0.0705818
0.10894
0.139024
0.131936
0.111289
0.131282
0.150221
0.174687
0.571407
0.32391
0.0426974
0.0473347
0.0690848
0.162451
0.271134
0.510203
0.637075
0.723276
0.795944
0.687938
0.595244
0.42645
0.265258
0.223624
0.127904
0.258571
0.537343
0.739391
0.49475
0.237911
0.177147
0.0310209
0.0472896
0.180301
0.30268
0.481918
0.637193
0.760814
0.666476
0.704975
0.622406
0.396799
0.319722
0.185627
0.317996
0.385852
0.452048
0.713113
0.397356
0.30508
0.0495642
0.096765
0.0312456
0.192334
0.320478
0.47816
0.564711
0.59584
0.66247
0.529158
0.46244
0.461345
0.311452
0.278352
0.22596
0.351284
0.53563
0.659695
0.328818
0.217055
0.0907098
0.0628432
0.0925613
0.164676
0.245661
0.373172
0.454385
0.560891
0.530829
0.527529
0.478095
0.31098
0.31268
0.285391
0.297777
0.288856
0.415755
0.552898
0.253536
0.198335
0.0915185
-0.00721874
0.0814803
0.160566
0.180131
0.216651
0.28117
0.445684
0.417394
0.407893
0.391075
0.312999
0.241075
0.188419
0.19556
0.304757
0.376096
0.464168
0.19223
0.138196
0.129742
0.009321
0.014445
0.084554
0.16872
0.241862
0.277269
0.253967
0.3204
0.318187
0.230109
0.246218
0.259693
0.20128
0.180999
0.150035
0.219634
0.308892
0.148096
0.10534
0.0626718
0.0704414
0.0372423
0.128053
0.148315
0.189164
0.13607
0.227368
0.177546
0.26074
0.169793
0.154286
0.0931297
0.195313
0.0704173
0.123588
0.194837
0.300915
-0.0492144
0.0585023
0.023734
0.0350182
-0.00688374
0.0368424
-0.0162024
0.0160791
-0.00300862
0.13408
0.0764394
0.0558288
0.0235674
0.0959101
0.0976413
0.0717671
0.0937698
0.111711
0.0741232
0.0649164
-0.286347
-0.524249
-0.904717
-0.891125
-0.920982
-0.93089
-0.82556
-0.645657
-0.588261
-0.490662
-0.464023
-0.469285
-0.652279
-0.67086
-0.844861
-0.80397
-0.767492
-0.669635
-0.39858
-0.129294
-0.234026
-0.528679
-0.656397
-0.776846
-0.866717
-0.717686
-0.741369
-0.511924
-0.418127
-0.359381
-0.368317
-0.376872
-0.471172
-0.555305
-0.637944
-0.594096
-0.644351
-0.460901
-0.294793
0.0122587
-0.211073
-0.356194
-0.546115
-0.61075
-0.667918
-0.630927
-0.488812
-0.502963
-0.317222
-0.30016
-0.248882
-0.26998
-0.371951
-0.431015
-0.447882
-0.501788
-0.502441
-0.287533
-0.167625
0.0420583
-0.208914
-0.29287
-0.428155
-0.575212
-0.507093
-0.446378
-0.344903
-0.369111
-0.239346
-0.180107
-0.208166
-0.227651
-0.24326
-0.344766
-0.367996
-0.413562
-0.351093
-0.270288
-0.120006
0.119599
-0.0796737
-0.245436
-0.373082
-0.435417
-0.438943
-0.418105
-0.311333
-0.29674
-0.268907
-0.155053
-0.0643196
-0.160343
-0.211063
-0.274325
-0.299649
-0.277101
-0.261405
-0.169238
-0.0537697
0.0981176
-0.0170295
-0.187135
-0.218518
-0.315391
-0.322781
-0.204543
-0.203169
-0.209058
-0.141461
-0.10709
-0.0559323
-0.0991565
-0.100936
-0.135105
-0.183437
-0.176912
-0.130405
-0.0975188
0.0558479
0.0561355
-0.088531
-0.058524
-0.14253
-0.130804
-0.147454
-0.0963261
-0.122512
-0.0515093
-0.053299
0.00249178
-0.040584
-0.0239
-0.066476
-0.0799542
-0.123448
-0.0663243
-0.0803591
-0.0376578
0.00791059
0.0695595
-0.0510227
-0.00970742
-0.0580986
-0.0366064
-0.100831
-0.0206406
-0.0178046
0.0258824
-0.0250823
-0.0569428
-0.039365
0.00905239
-0.0696717
-0.0616181
-0.0525285
-0.0710003
-0.103976
-0.00302604
0.046677
0.0176072
-0.964095
-1.35364
-1.53611
-1.8136
-1.85816
-1.83653
-1.87297
-1.76406
-1.56246
-1.54462
-1.49092
-1.56983
-1.58643
-1.64446
-1.71121
-1.76077
-1.69126
-1.3884
-1.18023
-0.767705
-0.870688
-1.12063
-1.29282
-1.46861
-1.54857
-1.57609
-1.58578
-1.39144
-1.33161
-1.29701
-1.29387
-1.30133
-1.34355
-1.34152
-1.40602
-1.40451
-1.38558
-1.20282
-0.814174
-0.596603
-0.634344
-0.90869
-1.08618
-1.27813
-1.29592
-1.27581
-1.24142
-1.17141
-1.12529
-1.07927
-0.980789
-1.11212
-1.13454
-1.11373
-1.1751
-1.15472
-1.08848
-0.841282
-0.709663
-0.458805
-0.551264
-0.758575
-0.986302
-1.01887
-1.09408
-1.11065
-1.09747
-0.939484
-0.925849
-0.86554
-0.854431
-0.878487
-0.825887
-0.907673
-0.926573
-0.912259
-0.822726
-0.74007
-0.602873
-0.318112
-0.433663
-0.576612
-0.686098
-0.824603
-0.856976
-0.833711
-0.755029
-0.695661
-0.719324
-0.620891
-0.640456
-0.691403
-0.647681
-0.705229
-0.747843
-0.696718
-0.622176
-0.529186
-0.312046
-0.296867
-0.250119
-0.403476
-0.498691
-0.5175
-0.538671
-0.552238
-0.58035
-0.514596
-0.477112
-0.491933
-0.373441
-0.428297
-0.480504
-0.506708
-0.492599
-0.445412
-0.510384
-0.434204
-0.280812
-0.184729
-0.186715
-0.303601
-0.362768
-0.366451
-0.355043
-0.309135
-0.280446
-0.304437
-0.281831
-0.292014
-0.27888
-0.240583
-0.285182
-0.272046
-0.286417
-0.316918
-0.308723
-0.19675
-0.0696754
-0.0762401
-0.0394238
-0.0854336
-0.0113351
-0.116835
-0.095983
-0.10265
-0.10998
-0.10586
-0.054588
-0.0664218
-0.0883787
-0.0994202
-0.0952756
-0.101343
-0.140506
-0.119021
-0.149831
-0.0788993
-0.0290835
-0.00162692
-1.50054
-1.85928
-2.209
-2.42539
-2.56017
-2.71555
-2.63882
-2.64634
-2.55956
-2.53963
-2.49252
-2.50899
-2.51402
-2.63679
-2.61119
-2.5148
-2.3125
-2.1027
-1.73382
-1.35004
-1.2849
-1.57245
-1.82982
-2.1324
-2.27286
-2.2019
-2.29289
-2.19284
-2.18722
-2.21326
-2.1566
-2.0695
-2.05817
-2.13893
-2.18782
-2.14505
-1.962
-1.73661
-1.37365
-1.17897
-0.976019
-1.37942
-1.5865
-1.78387
-1.85761
-1.92115
-1.86465
-1.85248
-1.75089
-1.74742
-1.76297
-1.8241
-1.81082
-1.81712
-1.81477
-1.73374
-1.56879
-1.36971
-1.10614
-0.873041
-0.877479
-1.10372
-1.29411
-1.4648
-1.50327
-1.57692
-1.53464
-1.53663
-1.43764
-1.42635
-1.37726
-1.43196
-1.45025
-1.46226
-1.42546
-1.40648
-1.22664
-1.15108
-0.891199
-0.621902
-0.702477
-0.80369
-0.955359
-1.09372
-1.21093
-1.24361
-1.22203
-1.18403
-1.11208
-1.08485
-1.13854
-1.10341
-1.1305
-1.10352
-1.11946
-1.08024
-0.957745
-0.863439
-0.734271
-0.511171
-0.450617
-0.567966
-0.644658
-0.816887
-0.861267
-0.813574
-0.824686
-0.825243
-0.770836
-0.825456
-0.765778
-0.740645
-0.759209
-0.789002
-0.822685
-0.679418
-0.700091
-0.585518
-0.490109
-0.278581
-0.31976
-0.344226
-0.447573
-0.473703
-0.537211
-0.471975
-0.485465
-0.49397
-0.417396
-0.490776
-0.50058
-0.486343
-0.466974
-0.420494
-0.531759
-0.462119
-0.455625
-0.358689
-0.27688
-0.156428
-0.0900943
-0.0800572
-0.131119
-0.157807
-0.199372
-0.120013
-0.181522
-0.183292
-0.126445
-0.137373
-0.152333
-0.185781
-0.207977
-0.158671
-0.189872
-0.128326
-0.107212
-0.146917
-0.0377864
-0.0206775
-1.87547
-2.24179
-2.65405
-3.06242
-3.22922
-3.31911
-3.33573
-3.37247
-3.39213
-3.32075
-3.28759
-3.26197
-3.26612
-3.25805
-3.23801
-3.03676
-2.86324
-2.51255
-2.15249
-1.7011
-1.65537
-1.92741
-2.29964
-2.54045
-2.73089
-2.81686
-2.8626
-2.84988
-2.86073
-2.8053
-2.79167
-2.80599
-2.78518
-2.77469
-2.6671
-2.63067
-2.43869
-2.10102
-1.80739
-1.41746
-1.33851
-1.64891
-1.92511
-2.13343
-2.31953
-2.37732
-2.31907
-2.38915
-2.40053
-2.32619
-2.37385
-2.31281
-2.26678
-2.34354
-2.25951
-2.12126
-2.0489
-1.77128
-1.4351
-1.06678
-1.0823
-1.31493
-1.48781
-1.79049
-1.86843
-1.8691
-1.92851
-1.9408
-1.93654
-1.93252
-1.84704
-1.91116
-1.83416
-1.82817
-1.75445
-1.68789
-1.64777
-1.38385
-1.16485
-0.829583
-0.857528
-0.997671
-1.20903
-1.38689
-1.45181
-1.53621
-1.53482
-1.52
-1.4513
-1.4498
-1.39646
-1.433
-1.44514
-1.38796
-1.44121
-1.35029
-1.26403
-1.12674
-0.809784
-0.646604
-0.566719
-0.695509
-0.845959
-0.949939
-0.996215
-1.0832
-0.984146
-1.02543
-1.03358
-1.0218
-1.01343
-1.01961
-1.02891
-1.00501
-0.944028
-0.978162
-0.807498
-0.722619
-0.596579
-0.426579
-0.348511
-0.40288
-0.50941
-0.544083
-0.609725
-0.642819
-0.65873
-0.706491
-0.667582
-0.648749
-0.608955
-0.586918
-0.544454
-0.595525
-0.542693
-0.552299
-0.479699
-0.396401
-0.317742
-0.309812
-0.0981478
-0.106388
-0.18141
-0.219574
-0.152785
-0.149934
-0.159599
-0.198679
-0.164693
-0.238147
-0.234862
-0.194186
-0.280436
-0.183283
-0.123478
-0.270011
-0.131118
-0.100809
-0.123341
-0.0390221
-1.9928
-2.48627
-2.99992
-3.32638
-3.64965
-3.77221
-3.86562
-3.94901
-3.93889
-3.8946
-3.96033
-3.9387
-3.89699
-3.82202
-3.68815
-3.53713
-3.31032
-2.80778
-2.43546
-1.90932
-1.76639
-2.15699
-2.55181
-2.89597
-3.08857
-3.22707
-3.29912
-3.30488
-3.3443
-3.31358
-3.25706
-3.33298
-3.25749
-3.25702
-3.15306
-2.99877
-2.69598
-2.37862
-1.956
-1.47406
-1.43914
-1.83277
-2.13588
-2.36467
-2.58725
-2.68882
-2.82394
-2.78424
-2.71206
-2.77883
-2.81077
-2.73423
-2.69472
-2.66755
-2.59894
-2.45736
-2.18643
-1.9348
-1.59526
-1.303
-1.16251
-1.43385
-1.67735
-1.95276
-2.07901
-2.23356
-2.21861
-2.24667
-2.26945
-2.19652
-2.20656
-2.20657
-2.17361
-2.1041
-2.11374
-1.97248
-1.70413
-1.60197
-1.28063
-0.998579
-0.921269
-1.1564
-1.31102
-1.49311
-1.61691
-1.71163
-1.7404
-1.75483
-1.75409
-1.73874
-1.76054
-1.80735
-1.6351
-1.69015
-1.61703
-1.44702
-1.31578
-1.13039
-0.935742
-0.765684
-0.632044
-0.815716
-0.941764
-1.03487
-1.12092
-1.20365
-1.18555
-1.23174
-1.18796
-1.26464
-1.22368
-1.18588
-1.18614
-1.13371
-1.13105
-1.07193
-0.935503
-0.852886
-0.711187
-0.563598
-0.390365
-0.447331
-0.498723
-0.710797
-0.72017
-0.675666
-0.734466
-0.746442
-0.700496
-0.788558
-0.691885
-0.774477
-0.755041
-0.705328
-0.718619
-0.635197
-0.578179
-0.483435
-0.349229
-0.234528
-0.102813
-0.201674
-0.218243
-0.231896
-0.225679
-0.289604
-0.225719
-0.277655
-0.271041
-0.22055
-0.173772
-0.190255
-0.203863
-0.274733
-0.238149
-0.17491
-0.193641
-0.146115
-0.137388
-0.170091
-2.01032
-2.54671
-3.02121
-3.48196
-3.91155
-4.05507
-4.1416
-4.26775
-4.28444
-4.31376
-4.31625
-4.29938
-4.28732
-4.12183
-3.99166
-3.71117
-3.41057
-2.91217
-2.44422
-1.91556
-1.7044
-2.19031
-2.70558
-2.99156
-3.22321
-3.48881
-3.62715
-3.66392
-3.67721
-3.65059
-3.67731
-3.58713
-3.56656
-3.52673
-3.3613
-3.13783
-2.84876
-2.47504
-2.00694
-1.59121
-1.49992
-1.78627
-2.15497
-2.5477
-2.73857
-2.90149
-2.92829
-3.0715
-3.06073
-3.04536
-3.06171
-2.93918
-2.99107
-2.91376
-2.76653
-2.62503
-2.41399
-2.03608
-1.68107
-1.29671
-1.18053
-1.49553
-1.78612
-2.02931
-2.23935
-2.42181
-2.45023
-2.46335
-2.53439
-2.47671
-2.46929
-2.45075
-2.40648
-2.33963
-2.22834
-2.08408
-1.85137
-1.63589
-1.33245
-0.976556
-0.946934
-1.10534
-1.41728
-1.56493
-1.6999
-1.84228
-1.91633
-1.8895
-1.86435
-1.95879
-1.84739
-1.93301
-1.80849
-1.7366
-1.70191
-1.58012
-1.44417
-1.23889
-0.980425
-0.740621
-0.627555
-0.834955
-0.985077
-1.1232
-1.2248
-1.27214
-1.31824
-1.34225
-1.36611
-1.33696
-1.32752
-1.27939
-1.30655
-1.2336
-1.2285
-1.08611
-0.995084
-0.876753
-0.6876
-0.451703
-0.347459
-0.499018
-0.636751
-0.632088
-0.73846
-0.784364
-0.828806
-0.777049
-0.857453
-0.816143
-0.816077
-0.762039
-0.767817
-0.713414
-0.782956
-0.70585
-0.554664
-0.456231
-0.400248
-0.285637
-0.09345
-0.199826
-0.196895
-0.269335
-0.200073
-0.299618
-0.281379
-0.314641
-0.257432
-0.261176
-0.281807
-0.183711
-0.215915
-0.336423
-0.245361
-0.198951
-0.21791
-0.197197
-0.161675
-0.0987492
-1.79396
-2.3372
-2.89136
-3.51585
-3.78096
-4.14451
-4.30454
-4.43889
-4.4475
-4.48167
-4.51239
-4.47125
-4.44697
-4.30216
-4.02977
-3.78359
-3.39286
-2.82325
-2.3075
-1.74624
-1.50682
-2.00314
-2.56018
-2.91898
-3.32426
-3.56362
-3.62514
-3.73054
-3.79917
-3.84699
-3.85273
-3.7868
-3.72381
-3.54857
-3.43042
-3.19425
-2.82
-2.4567
-1.8309
-1.37957
-1.2823
-1.66501
-2.09021
-2.46168
-2.76162
-3.00173
-3.06306
-3.14734
-3.15655
-3.21318
-3.13583
-3.10691
-3.09591
-2.99021
-2.77221
-2.64921
-2.28862
-1.94551
-1.50339
-1.08727
-1.05332
-1.36689
-1.70399
-2.0263
-2.25284
-2.45112
-2.46896
-2.53184
-2.58579
-2.59062
-2.61805
-2.56911
-2.52421
-2.3418
-2.19649
-2.11616
-1.83611
-1.54567
-1.17894
-0.902221
-0.834843
-0.974186
-1.26342
-1.51944
-1.72386
-1.79991
-1.91229
-1.9181
-2.04458
-1.95607
-1.98472
-1.98877
-1.88265
-1.85655
-1.73634
-1.62086
-1.40941
-1.15388
-0.837805
-0.665564
-0.573173
-0.756605
-0.879682
-1.06356
-1.21359
-1.29207
-1.3077
-1.34998
-1.45535
-1.41923
-1.45496
-1.41419
-1.34361
-1.3151
-1.209
-1.1193
-1.00866
-0.797565
-0.562551
-0.435694
-0.364521
-0.482568
-0.541565
-0.668985
-0.74568
-0.803013
-0.805703
-0.853353
-0.866906
-0.810979
-0.809514
-0.838549
-0.854138
-0.846041
-0.725899
-0.621075
-0.564129
-0.434522
-0.316089
-0.273892
-0.0523924
-0.162743
-0.1165
-0.200341
-0.178477
-0.217628
-0.323833
-0.293247
-0.184605
-0.289811
-0.238294
-0.24994
-0.209102
-0.239241
-0.237816
-0.152694
-0.180397
-0.128612
-0.108044
-0.133377
-1.36489
-1.95087
-2.61497
-3.19546
-3.67347
-3.97974
-4.19299
-4.38361
-4.49507
-4.47867
-4.49772
-4.39548
-4.28778
-4.15274
-3.81843
-3.53187
-3.13432
-2.52886
-1.97822
-1.33569
-1.06176
-1.72985
-2.2017
-2.66706
-3.08978
-3.47278
-3.48644
-3.72006
-3.73213
-3.84762
-3.84572
-3.74703
-3.67751
-3.52529
-3.27803
-2.97926
-2.59964
-2.09968
-1.51021
-1.05329
-0.947191
-1.42787
-1.86212
-2.23452
-2.52327
-2.74708
-2.98164
-3.06203
-3.16837
-3.20237
-3.11699
-3.12738
-3.03113
-2.90171
-2.69141
-2.49838
-2.01495
-1.64709
-1.20291
-0.78774
-0.781551
-1.09856
-1.53663
-1.81548
-2.06547
-2.26219
-2.39277
-2.46577
-2.56435
-2.62723
-2.50596
-2.52375
-2.42728
-2.31321
-2.14991
-1.93016
-1.64025
-1.30381
-0.940893
-0.642622
-0.645198
-0.874352
-1.11395
-1.39546
-1.64698
-1.77719
-1.8652
-1.95131
-1.96615
-1.97004
-1.99649
-1.96782
-1.87136
-1.81126
-1.72365
-1.4387
-1.26151
-1.03618
-0.725792
-0.441354
-0.428128
-0.63644
-0.793953
-0.952513
-1.11105
-1.2984
-1.3493
-1.3616
-1.38078
-1.3791
-1.42455
-1.38289
-1.34448
-1.23995
-1.19487
-1.02977
-0.901254
-0.682057
-0.477504
-0.279784
-0.288542
-0.327358
-0.494715
-0.604412
-0.607528
-0.782533
-0.794304
-0.84183
-0.888064
-0.835061
-0.795756
-0.80012
-0.749356
-0.782334
-0.648852
-0.638143
-0.470258
-0.428112
-0.287749
-0.164264
-0.0499138
-0.107336
-0.138013
-0.244987
-0.167811
-0.243528
-0.251423
-0.195077
-0.326849
-0.323937
-0.25998
-0.286946
-0.25695
-0.19338
-0.318543
-0.255828
-0.176965
-0.141415
-0.0932875
-0.0263165
-0.733126
-1.35969
-2.09409
-2.6394
-3.25583
-3.56842
-3.86106
-4.04837
-4.18471
-4.20821
-4.25702
-4.16473
-4.05977
-3.85025
-3.60264
-3.14998
-2.66994
-2.0155
-1.27213
-0.714089
-0.606543
-1.07236
-1.66666
-2.29904
-2.68229
-2.97452
-3.21267
-3.42534
-3.4868
-3.59063
-3.5515
-3.53827
-3.41654
-3.25639
-2.99129
-2.61642
-2.16037
-1.66477
-1.04003
-0.460674
-0.489935
-0.967685
-1.50351
-1.83665
-2.23983
-2.48043
-2.68986
-2.88185
-2.96249
-2.9342
-3.01274
-2.91362
-2.81969
-2.61357
-2.43216
-2.12251
-1.76318
-1.29109
-0.712641
-0.32627
-0.395533
-0.762154
-1.16934
-1.57361
-1.76896
-2.00591
-2.1292
-2.30155
-2.38632
-2.43413
-2.42048
-2.34935
-2.20076
-2.12064
-1.92097
-1.71261
-1.46801
-1.02708
-0.596524
-0.186975
-0.231102
-0.546311
-0.904414
-1.06409
-1.39373
-1.51432
-1.70627
-1.77116
-1.86048
-1.73674
-1.85698
-1.86574
-1.66452
-1.59677
-1.45621
-1.27137
-1.09281
-0.762134
-0.446333
-0.20923
-0.232736
-0.372143
-0.626244
-0.805194
-0.997209
-1.05983
-1.18427
-1.2128
-1.24087
-1.33153
-1.28102
-1.27273
-1.24433
-1.24418
-1.00334
-0.879871
-0.700792
-0.481706
-0.329803
-0.0558539
-0.113724
-0.249245
-0.365019
-0.477013
-0.574164
-0.67059
-0.777029
-0.720128
-0.816867
-0.747842
-0.807233
-0.773692
-0.686274
-0.662972
-0.609018
-0.529033
-0.401344
-0.362426
-0.14336
-0.00966937
-0.0460278
-0.0472703
-0.127782
-0.168982
-0.206958
-0.261701
-0.258513
-0.305782
-0.260468
-0.300428
-0.253737
-0.249919
-0.244078
-0.264974
-0.183126
-0.164051
-0.182225
-0.0880316
-0.0977481
0.0263554
0.154304
-0.573222
-1.31285
-2.0495
-2.52955
-2.98892
-3.307
-3.54799
-3.58385
-3.81552
-3.76615
-3.62706
-3.42775
-3.32825
-2.90893
-2.53774
-1.93267
-1.32614
-0.475551
0.206929
0.0835294
-0.460926
-1.0774
-1.63899
-2.12408
-2.54348
-2.76628
-2.99955
-3.11961
-3.10387
-3.13116
-3.07877
-2.93202
-2.72935
-2.41094
-2.10198
-1.53047
-0.999445
-0.391482
0.291857
0.184368
-0.302225
-0.8809
-1.32755
-1.66245
-2.09476
-2.30128
-2.47465
-2.5657
-2.63116
-2.52132
-2.45921
-2.41322
-2.2556
-2.02508
-1.65297
-1.28021
-0.760171
-0.160453
0.288331
0.111012
-0.251865
-0.670393
-1.06922
-1.42467
-1.68208
-1.83979
-1.98911
-2.10357
-2.12705
-2.0453
-2.02816
-1.93034
-1.74719
-1.5246
-1.2975
-0.990724
-0.53138
-0.129866
0.240152
0.0955775
-0.172328
-0.48078
-0.844324
-1.09984
-1.27285
-1.42839
-1.51443
-1.52568
-1.67043
-1.67926
-1.51785
-1.52714
-1.43256
-1.14185
-1.03261
-0.72961
-0.392245
-0.117528
0.289406
0.00793944
-0.0651624
-0.378702
-0.578496
-0.73312
-0.895327
-1.02806
-1.07815
-1.12413
-1.12889
-1.14773
-1.06661
-1.08976
-0.955528
-0.816165
-0.683572
-0.43467
-0.257221
-0.0239894
0.185133
0.0633115
-0.0427278
-0.162938
-0.353581
-0.481802
-0.4908
-0.578596
-0.668476
-0.753528
-0.687007
-0.600018
-0.65196
-0.587713
-0.501329
-0.501522
-0.430809
-0.26283
-0.124125
0.012161
0.155232
0.0201091
0.0336756
-0.122267
-0.129834
-0.115556
-0.215493
-0.263291
-0.194959
-0.233703
-0.285549
-0.189004
-0.210119
-0.201856
-0.192331
-0.123619
-0.143857
-0.117389
0.0184564
-0.0152635
-0.0216027
1.22003
0.421773
-0.317776
-1.06841
-1.61554
-2.04616
-2.48059
-2.69802
-2.81059
-3.09678
-2.95658
-2.90102
-2.7255
-2.47035
-2.07925
-1.59465
-1.05478
-0.257654
0.524361
1.19289
1.08059
0.449533
-0.301758
-0.768068
-1.36452
-1.70839
-1.98678
-2.31978
-2.36676
-2.51242
-2.53179
-2.43884
-2.2892
-2.0531
-1.70223
-1.29935
-0.739186
-0.144183
0.568378
1.17666
0.956185
0.428024
-0.127571
-0.716553
-1.13986
-1.47502
-1.66571
-1.89061
-1.97747
-2.02632
-2.02754
-1.93327
-1.87601
-1.56393
-1.28995
-1.02107
-0.535273
-0.0163741
0.594693
1.16917
0.83889
0.371628
-0.12552
-0.548057
-0.860101
-1.13341
-1.36731
-1.5052
-1.52994
-1.61901
-1.62211
-1.50801
-1.4237
-1.2294
-1.04065
-0.760296
-0.428993
-0.00330885
0.512909
0.969564
0.641128
0.291654
-0.0808775
-0.369276
-0.671724
-0.883327
-1.02227
-1.10004
-1.22255
-1.1399
-1.24383
-1.16305
-1.12742
-0.997321
-0.736468
-0.54872
-0.281112
0.0270921
0.469426
0.815293
0.408067
0.27231
-0.058142
-0.224354
-0.403914
-0.649337
-0.756226
-0.779341
-0.805333
-0.858867
-0.810468
-0.839476
-0.819887
-0.652608
-0.501833
-0.352565
-0.24285
0.074307
0.347696
0.548981
0.277924
0.080395
0.0158269
-0.147836
-0.268834
-0.432635
-0.535817
-0.497746
-0.503558
-0.556572
-0.502066
-0.520922
-0.498327
-0.41894
-0.297401
-0.165431
-0.0647637
0.00889307
0.252674
0.380389
0.136008
0.0239315
0.0289528
-0.0761491
-0.0536464
-0.134364
-0.141974
-0.181638
-0.142751
-0.166763
-0.152091
-0.128485
-0.102371
-0.0953007
-0.101558
-0.14966
-0.0393243
-0.0288163
0.134261
0.0830496
2.49438
1.76108
0.86888
0.172163
-0.540804
-1.05988
-1.44959
-1.77802
-1.93943
-1.98397
-1.94096
-1.84866
-1.70301
-1.39614
-0.97772
-0.513221
0.143836
0.909298
1.71327
2.54898
2.22297
1.58131
0.870487
0.151477
-0.322316
-0.781347
-1.175
-1.46902
-1.57041
-1.67444
-1.62129
-1.57059
-1.32305
-1.18701
-0.763846
-0.277605
0.245816
0.930165
1.58224
2.27471
1.92829
1.35366
0.727378
0.168445
-0.255016
-0.553141
-0.936686
-1.10724
-1.23159
-1.32776
-1.27941
-1.25045
-1.06673
-0.854762
-0.543207
-0.153558
0.300876
0.918759
1.44232
2.0168
1.5769
1.0917
0.717345
0.246161
-0.109916
-0.464421
-0.649113
-0.799927
-0.941483
-0.949064
-1.04554
-0.948338
-0.894987
-0.680051
-0.456246
-0.0912684
0.316903
0.781922
1.27612
1.72835
1.29453
0.944992
0.554729
0.212986
-0.11654
-0.34796
-0.518262
-0.616354
-0.701906
-0.787397
-0.763511
-0.703652
-0.63759
-0.43844
-0.327286
-0.00343398
0.256926
0.649136
1.04202
1.38755
0.905915
0.657933
0.371942
0.145661
-0.0705952
-0.241746
-0.39349
-0.47654
-0.478399
-0.524814
-0.522549
-0.512914
-0.428289
-0.37812
-0.180239
-0.0149721
0.271932
0.482836
0.771463
0.972335
0.504785
0.385309
0.228525
0.0720047
-0.0327419
-0.155014
-0.152784
-0.239342
-0.330615
-0.304475
-0.292667
-0.250939
-0.263479
-0.104724
-0.127907
0.048918
0.206719
0.278752
0.464447
0.601587
0.172996
0.205317
0.0754488
0.0469243
-0.0255183
-0.103824
-0.0919004
0.00710221
-0.0748355
-0.0868848
-0.0835218
-0.10699
-0.0408191
-0.0558348
-0.0389427
-0.0302428
0.0247208
0.0510763
0.150275
0.170178
4.04101
3.21139
2.40632
1.52653
0.850718
0.208752
-0.106068
-0.441929
-0.654258
-0.768635
-0.756385
-0.632087
-0.469565
-0.232899
0.300398
0.80248
1.4712
2.38061
3.18211
4.02217
3.5648
2.80653
2.00204
1.3866
0.785444
0.381143
-0.0166817
-0.296338
-0.52024
-0.545925
-0.591112
-0.44804
-0.268004
-0.0059118
0.394435
0.809848
1.41851
2.08558
2.8789
3.57034
3.1014
2.4355
1.85314
1.25738
0.79408
0.312687
0.042962
-0.267916
-0.321461
-0.399337
-0.389645
-0.325748
-0.196278
0.133415
0.421293
0.746531
1.29705
1.88061
2.48475
3.07341
2.48634
2.03677
1.49399
1.02889
0.65791
0.289528
0.0936581
-0.160907
-0.199028
-0.335102
-0.268085
-0.213485
-0.116517
0.192165
0.370924
0.76994
1.14576
1.57702
2.1904
2.60939
1.90926
1.60515
1.22882
0.804686
0.571253
0.31078
0.0329771
-0.0763045
-0.17116
-0.12448
-0.270309
-0.0725926
-0.029347
0.140614
0.365138
0.645001
0.893053
1.32817
1.71271
1.99103
1.34834
1.12984
0.848944
0.630311
0.414614
0.232049
0.015569
-0.0572928
-0.127128
-0.136433
-0.101105
-0.0608417
0.0171712
0.106029
0.261646
0.443137
0.751457
0.900336
1.23224
1.52404
0.842582
0.749275
0.503932
0.305566
0.287546
0.142845
0.0447937
-0.0716799
-0.0252891
-0.129919
-0.0410226
-0.0298973
0.00470601
0.0289567
0.18731
0.291633
0.438159
0.557748
0.7438
0.97479
0.288143
0.318331
0.272576
0.150599
0.108417
-0.00367026
0.0492097
-0.0105805
-0.0233746
-0.0540135
0.0312943
-0.022672
0.000197025
0.0741633
0.0361141
0.116515
0.21252
0.191643
0.264069
0.314873
5.76617
4.85804
3.91914
3.04103
2.3804
1.73323
1.25594
0.921277
0.804689
0.616687
0.608307
0.756142
0.97406
1.27179
1.77485
2.30355
3.08214
3.85727
4.8211
5.65836
4.9498
4.28895
3.48358
2.68557
2.08456
1.59258
1.20915
0.968458
0.694174
0.659723
0.651418
0.759239
0.9232
1.27174
1.73208
2.06728
2.74941
3.54438
4.28107
4.91565
4.15796
3.64155
2.94721
2.37562
1.83813
1.44832
1.06963
0.846938
0.681556
0.645422
0.650376
0.664646
0.888464
1.13781
1.48318
1.90135
2.4567
3.07625
3.75158
4.27846
3.45913
2.98516
2.48852
1.9264
1.56333
1.16991
0.94797
0.777662
0.566478
0.545357
0.570465
0.570666
0.786613
0.957612
1.32198
1.64911
2.0341
2.60107
3.07175
3.54357
2.72495
2.3082
1.92246
1.62341
1.21842
0.967465
0.68739
0.575692
0.54047
0.490484
0.468123
0.550901
0.567898
0.734739
1.0374
1.31249
1.65707
1.98012
2.40579
2.86502
1.96576
1.68493
1.35376
1.08692
0.889727
0.655858
0.595497
0.41048
0.384676
0.300882
0.329863
0.42449
0.471147
0.614449
0.728484
0.989682
1.14592
1.43425
1.7625
1.99201
1.14938
0.993888
0.798507
0.623706
0.485317
0.418079
0.312716
0.256172
0.282059
0.169459
0.245063
0.285778
0.287495
0.391567
0.470949
0.599457
0.74936
0.854071
1.01833
1.20045
0.452511
0.283817
0.259879
0.224186
0.14701
0.136184
0.114009
0.0560149
0.0697241
0.113745
0.0837812
0.0899931
0.0847178
0.097455
0.186977
0.184561
0.231691
0.26186
0.416605
0.364187
7.41138
6.49641
5.48451
4.66884
3.95363
3.3511
2.81496
2.40949
2.23349
2.14736
2.10726
2.21256
2.41875
2.80941
3.31788
3.86452
4.63047
5.47598
6.40273
7.30094
6.38284
5.64735
4.84929
4.12933
3.48585
2.93184
2.50772
2.22901
2.09186
1.92905
1.92667
2.0449
2.23299
2.50517
2.94606
3.4659
4.11374
4.83394
5.7024
6.41821
5.45936
4.76837
4.04403
3.47411
2.93161
2.4962
2.1672
1.90105
1.73164
1.66675
1.64516
1.7066
1.94754
2.21258
2.53456
2.99064
3.59961
4.21675
4.86154
5.48093
4.41066
3.92911
3.33826
2.80713
2.46446
2.09196
1.76478
1.63486
1.47194
1.42073
1.38067
1.52123
1.64624
1.81392
2.17668
2.56507
2.93159
3.52087
4.00385
4.52137
3.48625
3.02461
2.63769
2.24483
1.94901
1.58967
1.3735
1.22982
1.13665
1.09482
1.11669
1.13685
1.29708
1.47348
1.64431
1.9523
2.3374
2.76368
3.16085
3.53949
2.47166
2.15778
1.86487
1.60735
1.30539
1.14171
1.04106
0.875487
0.816217
0.807624
0.732331
0.854688
0.91337
1.05826
1.169
1.45092
1.69782
2.01338
2.26737
2.57933
1.42305
1.33015
1.11628
1.02446
0.796857
0.72922
0.622842
0.502074
0.496549
0.527353
0.484157
0.549865
0.615535
0.714223
0.791905
0.90867
0.998911
1.11573
1.42009
1.5347
0.494075
0.400788
0.307535
0.305587
0.291267
0.27956
0.170697
0.178232
0.166471
0.19863
0.139272
0.150939
0.131698
0.240649
0.256144
0.29085
0.444339
0.347235
0.426013
0.526407
8.80685
7.79763
6.8101
6.01266
5.18102
4.59564
3.9959
3.68809
3.49106
3.36355
3.34546
3.4567
3.70451
4.04737
4.52694
5.18548
5.92515
6.79494
7.78684
8.67251
7.55568
6.77553
5.93717
5.14942
4.50142
3.93152
3.51404
3.19523
3.00081
2.88302
2.85204
3.03204
3.18021
3.55186
3.96134
4.54792
5.1705
5.93177
6.75208
7.51672
6.33645
5.63801
4.93156
4.41668
3.77175
3.36058
3.03453
2.72865
2.57807
2.45147
2.46024
2.58818
2.71902
3.00053
3.40986
3.78353
4.37616
5.04525
5.76936
6.33748
5.10576
4.55292
4.12803
3.59847
3.08542
2.7189
2.38599
2.32085
2.09162
1.95091
2.01503
2.06803
2.25791
2.47428
2.79814
3.16709
3.67354
4.13744
4.72382
5.22506
3.99814
3.63982
3.14605
2.79179
2.37879
2.12925
1.88178
1.77179
1.62234
1.58542
1.65448
1.69392
1.71347
1.92984
2.24088
2.44286
2.88043
3.20381
3.71173
4.06787
2.83947
2.52876
2.22374
2.03075
1.71112
1.49774
1.34046
1.20185
1.16054
1.13558
1.15643
1.22131
1.2885
1.37997
1.63069
1.81532
2.02984
2.26281
2.65371
2.91751
1.68724
1.60031
1.3032
1.18722
1.06196
0.866604
0.774041
0.689633
0.71974
0.719934
0.670884
0.706275
0.759005
0.898871
0.944765
1.04381
1.25568
1.41137
1.5994
1.70643
0.48382
0.451785
0.484385
0.360783
0.345962
0.229448
0.285211
0.255256
0.305423
0.272335
0.236636
0.225215
0.247624
0.214553
0.301387
0.403101
0.41191
0.492787
0.55184
0.641198
)
;

boundaryField
{
    hotSide
    {
        type            calculated;
        value           nonuniform List<scalar> 
400
(
3.53689
2.72979
1.74303
0.859256
-0.000691467