/*--------------------------------*- C++ -*----------------------------------*\
| =========                 |                                                 |
| \\      /  F ield         | OpenFOAM: The Open Source CFD Toolbox           |
|  \\    /   O peration     | Version:  2212                                  |
|   \\  /    A nd           | Website:  www.openfoam.com                      |
|    \\/     M anipulation  |                                                 |
\*---------------------------------------------------------------------------*/
FoamFile
{
    version     2.0;
    format      ascii;
    arch        "LSB;label=32;scalar=64";
    class       volScalarField;
    location    "./ITHACAoutput/true/9.9";
    object      trueState;
}
// * * * * * * * * * * * * * * * * * * * * * * * * * * * * * * * * * * * * * //

dimensions      [0 0 0 1 0 0 0];

internalField   nonuniform List<scalar> 
3200
(
335.88
336.345
336.938
337.585
338.251
338.905
339.509
340.018
340.39
340.586
340.586
340.39
340.018
339.509
338.905
338.251
337.585
336.938
336.345
335.88
331.219
331.612
332.124
332.684
333.26
333.826
334.348
334.788
335.108
335.278
335.278
335.108
334.788
334.348
333.826
333.26
332.684
332.124
331.612
331.219
326.506
326.832
327.264
327.736
328.224
328.701
329.142
329.514
329.784
329.927
329.927
329.784
329.514
329.142
328.701
328.224
327.736
327.264
326.832
326.506
321.749
322.012
322.364
322.75
323.148
323.539
323.899
324.202
324.423
324.539
324.539
324.423
324.202
323.899
323.539
323.148
322.75
322.364
322.012
321.749
316.958
317.159
317.432
317.732
318.042
318.345
318.625
318.86
319.032
319.122
319.122
319.032
318.86
318.625
318.345
318.042
317.732
317.432
317.159
316.958
312.138
312.281
312.475
312.69
312.911
313.127
313.327
313.495
313.617
313.682
313.682
313.617
313.495
313.327
313.127
312.911
312.69
312.475
312.281
312.138
307.299
307.384
307.501
307.629
307.762
307.892
308.012
308.113
308.186
308.225
308.225
308.186
308.113
308.012
307.892
307.762
307.629
307.501
307.384
307.299
302.448
302.477
302.516
302.559
302.603
302.647
302.687
302.721
302.745
302.758
302.758
302.745
302.721
302.687
302.647
302.603
302.559
302.516
302.477
302.448
336.002
336.463
337.052
337.693
338.352
338.999
339.595
340.098
340.465
340.658
340.658
340.465
340.098
339.595
338.999
338.352
337.693
337.052
336.463
336.002
331.325
331.715
332.223
332.777
333.348
333.907
334.423
334.858
335.174
335.341
335.341
335.174
334.858
334.423
333.907
333.348
332.777
332.223
331.715
331.325
326.596
326.92
327.348
327.816
328.298
328.771
329.206
329.573
329.84
329.981
329.981
329.84
329.573
329.206
328.771
328.298
327.816
327.348
326.92
326.596
321.823
322.084
322.433
322.815
323.21
323.596
323.952
324.251
324.469
324.584
324.584
324.469
324.251
323.952
323.596
323.21
322.815
322.433
322.084
321.823
317.015
317.215
317.486
317.783
318.09
318.39
318.666
318.899
319.068
319.157
319.157
319.068
318.899
318.666
318.39
318.09
317.783
317.486
317.215
317.015
312.179
312.321
312.514
312.726
312.945
313.159
313.357
313.523
313.643
313.707
313.707
313.643
313.523
313.357
313.159
312.945
312.726
312.514
312.321
312.179
307.324
307.408
307.524
307.651
307.783
307.911
308.03
308.13
308.202
308.24
308.24
308.202
308.13
308.03
307.911
307.783
307.651
307.524
307.408
307.324
302.456
302.485
302.523
302.566
302.61
302.653
302.693
302.726
302.751
302.763
302.763
302.751
302.726
302.693
302.653
302.61
302.566
302.523
302.485
302.456
336.247
336.701
337.28
337.909
338.555
339.187
339.77
340.261
340.618
340.806
340.806
340.618
340.261
339.77
339.187
338.555
337.909
337.28
336.701
336.247
331.538
331.922
332.421
332.965
333.525
334.072
334.576
335
335.308
335.471
335.471
335.308
335
334.576
334.072
333.525
332.965
332.421
331.922
331.538
326.777
327.096
327.516
327.976
328.448
328.911
329.336
329.694
329.955
330.092
330.092
329.955
329.694
329.336
328.911
328.448
327.976
327.516
327.096
326.777
321.972
322.228
322.571
322.947
323.333
323.711
324.059
324.351
324.563
324.675
324.675
324.563
324.351
324.059
323.711
323.333
322.947
322.571
322.228
321.972
317.131
317.328
317.594
317.886
318.186
318.48
318.75
318.977
319.142
319.229
319.229
319.142
318.977
318.75
318.48
318.186
317.886
317.594
317.328
317.131
312.262
312.402
312.591
312.799
313.014
313.224
313.416
313.579
313.696
313.758
313.758
313.696
313.579
313.416
313.224
313.014
312.799
312.591
312.402
312.262
307.374
307.457
307.57
307.696
307.824
307.95
308.066
308.163
308.234
308.271
308.271
308.234
308.163
308.066
307.95
307.824
307.696
307.57
307.457
307.374
302.473
302.501
302.539
302.581
302.624
302.666
302.705
302.738
302.761
302.774
302.774
302.761
302.738
302.705
302.666
302.624
302.581
302.539
302.501
302.473
336.616
337.06
337.623
338.235
338.862
339.475
340.038
340.511
340.854
341.036
341.036
340.854
340.511
340.038
339.475
338.862
338.235
337.623
337.06
336.616
331.859
332.234
332.721
333.25
333.793
334.323
334.809
335.218
335.515
335.672
335.672
335.515
335.218
334.809
334.323
333.793
333.25
332.721
332.234
331.859
327.049
327.36
327.77
328.217
328.676
329.124
329.535
329.88
330.131
330.263
330.263
330.131
329.88
329.535
329.124
328.676
328.217
327.77
327.36
327.049
322.195
322.446
322.78
323.145
323.52
323.886
324.222
324.504
324.709
324.816
324.816
324.709
324.504
324.222
323.886
323.52
323.145
322.78
322.446
322.195
317.305
317.497
317.756
318.04
318.332
318.616
318.877
319.096
319.255
319.339
319.339
319.255
319.096
318.877
318.616
318.332
318.04
317.756
317.497
317.305
312.387
312.523
312.707
312.91
313.119
313.322
313.508
313.664
313.778
313.837
313.837
313.778
313.664
313.508
313.322
313.119
312.91
312.707
312.523
312.387
307.448
307.53
307.64
307.762
307.887
308.009
308.121
308.215
308.283
308.319
308.319
308.283
308.215
308.121
308.009
307.887
307.762
307.64
307.53
307.448
302.498
302.525
302.562
302.603
302.645
302.686
302.723
302.755
302.778
302.79
302.79
302.778
302.755
302.723
302.686
302.645
302.603
302.562
302.525
302.498
337.11
337.54
338.085
338.675
339.278
339.865
340.403
340.854
341.181
341.353
341.353
341.181
340.854
340.403
339.865
339.278
338.675
338.085
337.54
337.11
332.288
332.652
333.123
333.633
334.155
334.663
335.128
335.518
335.801
335.949
335.949
335.801
335.518
335.128
334.663
334.155
333.633
333.123
332.652
332.288
327.414
327.715
328.112
328.543
328.984
329.413
329.806
330.136
330.374
330.5
330.5
330.374
330.136
329.806
329.413
328.984
328.543
328.112
327.715
327.414
322.494
322.737
323.06
323.412
323.773
324.124
324.445
324.714
324.909
325.011
325.011
324.909
324.714
324.445
324.124
323.773
323.412
323.06
322.737
322.494
317.538
317.724
317.975
318.249
318.529
318.802
319.052
319.26
319.412
319.491
319.491
319.412
319.26
319.052
318.802
318.529
318.249
317.975
317.724
317.538
312.553
312.685
312.864
313.06
313.26
313.455
313.633
313.782
313.89
313.947
313.947
313.89
313.782
313.633
313.455
313.26
313.06
312.864
312.685
312.553
307.549
307.627
307.734
307.852
307.972
308.089
308.196
308.286
308.35
308.385
308.385
308.35
308.286
308.196
308.089
307.972
307.852
307.734
307.627
307.549
302.532
302.558
302.594
302.633
302.674
302.713
302.749
302.779
302.8
302.812
302.812
302.8
302.779
302.749
302.713
302.674
302.633
302.594
302.558
302.532
337.731
338.145
338.668
339.232
339.807
340.364
340.873
341.298
341.606
341.768
341.768
341.606
341.298
340.873
340.364
339.807
339.232
338.668
338.145
337.731
332.828
333.178
333.63
334.118
334.615
335.098
335.538
335.906
336.172
336.312
336.312
336.172
335.906
335.538
335.098
334.615
334.118
333.63
333.178
332.828
327.872
328.162
328.542
328.955
329.375
329.783
330.155
330.466
330.691
330.809
330.809
330.691
330.466
330.155
329.783
329.375
328.955
328.542
328.162
327.872
322.87
323.103
323.413
323.751
324.094
324.428
324.732
324.986
325.169
325.266
325.266
325.169
324.986
324.732
324.428
324.094
323.751
323.413
323.103
322.87
317.831
318.01
318.251
318.513
318.78
319.039
319.275
319.473
319.615
319.69
319.69
319.615
319.473
319.275
319.039
318.78
318.513
318.251
318.01
317.831
312.763
312.89
313.061
313.249
313.439
313.624
313.793
313.934
314.036
314.089
314.089
314.036
313.934
313.793
313.624
313.439
313.249
313.061
312.89
312.763
307.675
307.75
307.853
307.966
308.08
308.191
308.293
308.377
308.438
308.47
308.47
308.438
308.377
308.293
308.191
308.08
307.966
307.853
307.75
307.675
302.574
302.599
302.634
302.671
302.71
302.747
302.781
302.809
302.83
302.841
302.841
302.83
302.809
302.781
302.747
302.71
302.671
302.634
302.599
302.574
338.481
338.876
339.375
339.91
340.453
340.978
341.455
341.852
342.139
342.29
342.29
342.139
341.852
341.455
340.978
340.453
339.91
339.375
338.876
338.481
333.48
333.815
334.245
334.708
335.178
335.633
336.045
336.389
336.637
336.767
336.767
336.637
336.389
336.045
335.633
335.178
334.708
334.245
333.815
333.48
328.425
328.702
329.065
329.456
329.854
330.238
330.587
330.877
331.087
331.197
331.197
331.087
330.877
330.587
330.238
329.854
329.456
329.065
328.702
328.425
323.323
323.547
323.842
324.162
324.487
324.801
325.087
325.324
325.495
325.585
325.585
325.495
325.324
325.087
324.801
324.487
324.162
323.842
323.547
323.323
318.184
318.356
318.585
318.834
319.087
319.331
319.552
319.737
319.87
319.939
319.939
319.87
319.737
319.552
319.331
319.087
318.834
318.585
318.356
318.184
313.016
313.137
313.301
313.478
313.659
313.833
313.992
314.123
314.218
314.268
314.268
314.218
314.123
313.992
313.833
313.659
313.478
313.301
313.137
313.016
307.827
307.899
307.997
308.104
308.212
308.317
308.412
308.491
308.548
308.578
308.578
308.548
308.491
308.412
308.317
308.212
308.104
307.997
307.899
307.827
302.625
302.649
302.682
302.718
302.754
302.789
302.821
302.848
302.867
302.877
302.877
302.867
302.848
302.821
302.789
302.754
302.718
302.682
302.649
302.625
339.361
339.737
340.209
340.713
341.223
341.713
342.156
342.525
342.789
342.928
342.928
342.789
342.525
342.156
341.713
341.223
340.713
340.209
339.737
339.361
334.246
334.564
334.971
335.408
335.849
336.273
336.657
336.975
337.205
337.325
337.325
337.205
336.975
336.657
336.273
335.849
335.408
334.971
334.564
334.246
329.074
329.338
329.681
330.05
330.423
330.782
331.107
331.376
331.569
331.671
331.671
331.569
331.376
331.107
330.782
330.423
330.05
329.681
329.338
329.074
323.856
324.068
324.348
324.65
324.955
325.248
325.514
325.734
325.892
325.975
325.975
325.892
325.734
325.514
325.248
324.955
324.65
324.348
324.068
323.856
318.599
318.762
318.979
319.214
319.451
319.679
319.886
320.057
320.18
320.244
320.244
320.18
320.057
319.886
319.679
319.451
319.214
318.979
318.762
318.599
313.313
313.428
313.583
313.751
313.92
314.083
314.23
314.352
314.44
314.486
314.486
314.44
314.352
314.23
314.083
313.92
313.751
313.583
313.428
313.313
308.005
308.074
308.167
308.268
308.369
308.467
308.556
308.629
308.682
308.709
308.709
308.682
308.629
308.556
308.467
308.369
308.268
308.167
308.074
308.005
302.685
302.708
302.739
302.773
302.807
302.84
302.869
302.894
302.912
302.921
302.921
302.912
302.894
302.869
302.84
302.807
302.773
302.739
302.708
302.685
340.375
340.73
341.174
341.646
342.121
342.575
342.984
343.323
343.566
343.693
343.693
343.566
343.323
342.984
342.575
342.121
341.646
341.174
340.73
340.375
335.127
335.427
335.81
336.219
336.63
337.024
337.378
337.671
337.881
337.991
337.991
337.881
337.671
337.378
337.024
336.63
336.219
335.81
335.427
335.127
329.822
330.071
330.394
330.74
331.088
331.42
331.72
331.968
332.145
332.238
332.238
332.145
331.968
331.72
331.42
331.088
330.74
330.394
330.071
329.822
324.469
324.67
324.933
325.216
325.5
325.772
326.017
326.22
326.365
326.441
326.441
326.365
326.22
326.017
325.772
325.5
325.216
324.933
324.67
324.469
319.077
319.231
319.436
319.655
319.876
320.088
320.279
320.436
320.549
320.608
320.608
320.549
320.436
320.279
320.088
319.876
319.655
319.436
319.231
319.077
313.655
313.764
313.91
314.067
314.225
314.376
314.512
314.624
314.705
314.747
314.747
314.705
314.624
314.512
314.376
314.225
314.067
313.91
313.764
313.655
308.211
308.276
308.363
308.458
308.552
308.643
308.725
308.793
308.841
308.866
308.866
308.841
308.793
308.725
308.643
308.552
308.458
308.363
308.276
308.211
302.754
302.776
302.805
302.836
302.868
302.899
302.926
302.949
302.965
302.973
302.973
302.965
302.949
302.926
302.899
302.868
302.836
302.805
302.776
302.754
341.524
341.857
342.272
342.712
343.152
343.57
343.946
344.255
344.476
344.591
344.591
344.476
344.255
343.946
343.57
343.152
342.712
342.272
341.857
341.524
336.126
336.408
336.766
337.147
337.528
337.891
338.216
338.483
338.675
338.775
338.775
338.675
338.483
338.216
337.891
337.528
337.147
336.766
336.408
336.126
330.67
330.904
331.206
331.528
331.85
332.157
332.432
332.658
332.82
332.904
332.904
332.82
332.658
332.432
332.157
331.85
331.528
331.206
330.904
330.67
325.165
325.353
325.599
325.863
326.126
326.377
326.602
326.787
326.919
326.988
326.988
326.919
326.787
326.602
326.377
326.126
325.863
325.599
325.353
325.165
319.619
319.764
319.955
320.16
320.365
320.56
320.735
320.879
320.981
321.035
321.035
320.981
320.879
320.735
320.56
320.365
320.16
319.955
319.764
319.619
314.043
314.145
314.281
314.428
314.574
314.713
314.838
314.941
315.015
315.053
315.053
315.015
314.941
314.838
314.713
314.574
314.428
314.281
314.145
314.043
308.444
308.505
308.587
308.675
308.763
308.846
308.921
308.983
309.027
309.05
309.05
309.027
308.983
308.921
308.846
308.763
308.675
308.587
308.505
308.444
302.832
302.852
302.88
302.909
302.939
302.967
302.992
303.013
303.027
303.035
303.035
303.027
303.013
302.992
302.967
302.939
302.909
302.88
302.852
302.832
342.81
343.122
343.508
343.916
344.321
344.704
345.046
345.327
345.527
345.632
345.632
345.527
345.327
345.046
344.704
344.321
343.916
343.508
343.122
342.81
337.244
337.508
337.842
338.194
338.545
338.878
339.174
339.417
339.591
339.681
339.681
339.591
339.417
339.174
338.878
338.545
338.194
337.842
337.508
337.244
331.619
331.838
332.119
332.417
332.714
332.995
333.246
333.452
333.598
333.674
333.674
333.598
333.452
333.246
332.995
332.714
332.417
332.119
331.838
331.619
325.943
326.119
326.348
326.592
326.835
327.065
327.27
327.439
327.558
327.621
327.621
327.558
327.439
327.27
327.065
326.835
326.592
326.348
326.119
325.943
320.226
320.361
320.539
320.729
320.918
321.096
321.256
321.387
321.48
321.529
321.529
321.48
321.387
321.256
321.096
320.918
320.729
320.539
320.361
320.226
314.477
314.573
314.699
314.835
314.97
315.098
315.212
315.305
315.372
315.406
315.406
315.372
315.305
315.212
315.098
314.97
314.835
314.699
314.573
314.477
308.705
308.762
308.838
308.92
309.001
309.077
309.146
309.202
309.242
309.263
309.263
309.242
309.202
309.146
309.077
309.001
308.92
308.838
308.762
308.705
302.92
302.939
302.964
302.991
303.019
303.044
303.067
303.086
303.1
303.106
303.106
303.1
303.086
303.067
303.044
303.019
302.991
302.964
302.939
302.92
344.235
344.525
344.884
345.259
345.631
345.98
346.291
346.545
346.725
346.819
346.819
346.725
346.545
346.291
345.98
345.631
345.259
344.884
344.525
344.235
338.483
338.729
339.038
339.364
339.685
339.989
340.258
340.478
340.634
340.715
340.715
340.634
340.478
340.258
339.989
339.685
339.364
339.038
338.729
338.483
332.67
332.874
333.135
333.41
333.682
333.939
334.167
334.353
334.485
334.553
334.553
334.485
334.353
334.167
333.939
333.682
333.41
333.135
332.874
332.67
326.805
326.969
327.182
327.407
327.63
327.84
328.026
328.178
328.286
328.342
328.342
328.286
328.178
328.026
327.84
327.63
327.407
327.182
326.969
326.805
320.898
321.024
321.189
321.364
321.537
321.7
321.845
321.964
322.048
322.092
322.092
322.048
321.964
321.845
321.7
321.537
321.364
321.189
321.024
320.898
314.958
315.047
315.165
315.29
315.413
315.53
315.634
315.718
315.778
315.81
315.81
315.778
315.718
315.634
315.53
315.413
315.29
315.165
315.047
314.958
308.994
309.047
309.118
309.193
309.267
309.338
309.4
309.451
309.487
309.505
309.505
309.487
309.451
309.4
309.338
309.267
309.193
309.118
309.047
308.994
303.017
303.034
303.058
303.083
303.108
303.132
303.152
303.169
303.182
303.188
303.188
303.182
303.169
303.152
303.132
303.108
303.083
303.058
303.034
303.017
345.8
346.07
346.401
346.746
347.085
347.403
347.684
347.913
348.074
348.158
348.158
348.074
347.913
347.684
347.403
347.085
346.746
346.401
346.07
345.8
339.844
340.072
340.358
340.657
340.951
341.226
341.47
341.668
341.808
341.881
341.881
341.808
341.668
341.47
341.226
340.951
340.657
340.358
340.072
339.844
333.825
334.014
334.255
334.508
334.757
334.99
335.196
335.363
335.482
335.544
335.544
335.482
335.363
335.196
334.99
334.757
334.508
334.255
334.014
333.825
327.753
327.905
328.101
328.308
328.511
328.702
328.871
329.008
329.105
329.155
329.155
329.105
329.008
328.871
328.702
328.511
328.308
328.101
327.905
327.753
321.636
321.753
321.905
322.066
322.225
322.373
322.504
322.611
322.686
322.726
322.726
322.686
322.611
322.504
322.373
322.225
322.066
321.905
321.753
321.636
315.486
315.569
315.677
315.792
315.905
316.012
316.105
316.182
316.235
316.263
316.263
316.235
316.182
316.105
316.012
315.905
315.792
315.677
315.569
315.486
309.312
309.361
309.426
309.495
309.563
309.627
309.683
309.729
309.762
309.778
309.778
309.762
309.729
309.683
309.627
309.563
309.495
309.426
309.361
309.312
303.123
303.14
303.161
303.185
303.207
303.229
303.248
303.263
303.274
303.279
303.279
303.274
303.263
303.248
303.229
303.207
303.185
303.161
303.14
303.123
347.506
347.755
348.06
348.376
348.685
348.973
349.226
349.431
349.576
349.651
349.651
349.576
349.431
349.226
348.973
348.685
348.376
348.06
347.755
347.506
341.327
341.538
341.801
342.075
342.342
342.592
342.812
342.99
343.115
343.18
343.18
343.115
342.99
342.812
342.592
342.342
342.075
341.801
341.538
341.327
335.083
335.258
335.48
335.711
335.938
336.149
336.335
336.486
336.592
336.647
336.647
336.592
336.486
336.335
336.149
335.938
335.711
335.48
335.258
335.083
328.784
328.925
329.106
329.295
329.48
329.653
329.806
329.929
330.016
330.061
330.061
330.016
329.929
329.806
329.653
329.48
329.295
329.106
328.925
328.784
322.44
322.548
322.688
322.836
322.98
323.115
323.233
323.329
323.396
323.431
323.431
323.396
323.329
323.233
323.115
322.98
322.836
322.688
322.548
322.44
316.061
316.138
316.238
316.343
316.446
316.542
316.627
316.695
316.744
316.769
316.769
316.744
316.695
316.627
316.542
316.446
316.343
316.238
316.138
316.061
309.658
309.703
309.763
309.826
309.888
309.946
309.997
310.038
310.067
310.082
310.082
310.067
310.038
309.997
309.946
309.888
309.826
309.763
309.703
309.658
303.239
303.254
303.274
303.296
303.316
303.336
303.353
303.367
303.376
303.381
303.381
303.376
303.367
303.353
303.336
303.316
303.296
303.274
303.254
303.239
349.35
349.579
349.859
350.148
350.428
350.688
350.916
351.1
351.23
351.297
351.297
351.23
351.1
350.916
350.688
350.428
350.148
349.859
349.579
349.35
342.929
343.124
343.365
343.615
343.858
344.084
344.282
344.441
344.553
344.611
344.611
344.553
344.441
344.282
344.084
343.858
343.615
343.365
343.124
342.929
336.442
336.603
336.807
337.018
337.224
337.415
337.583
337.717
337.812
337.861
337.861
337.812
337.717
337.583
337.415
337.224
337.018
336.807
336.603
336.442
329.898
330.028
330.194
330.367
330.535
330.692
330.829
330.939
331.017
331.057
331.057
331.017
330.939
330.829
330.692
330.535
330.367
330.194
330.028
329.898
323.308
323.408
323.537
323.671
323.802
323.924
324.03
324.116
324.177
324.208
324.208
324.177
324.116
324.03
323.924
323.802
323.671
323.537
323.408
323.308
316.682
316.753
316.845
316.941
317.035
317.121
317.198
317.259
317.302
317.325
317.325
317.302
317.259
317.198
317.121
317.035
316.941
316.845
316.753
316.682
310.031
310.073
310.128
310.186
310.242
310.294
310.34
310.377
310.403
310.416
310.416
310.403
310.377
310.34
310.294
310.242
310.186
310.128
310.073
310.031
303.364
303.378
303.397
303.416
303.435
303.452
303.468
303.48
303.489
303.493
303.493
303.489
303.48
303.468
303.452
303.435
303.416
303.397
303.378
303.364
351.323
351.534
351.791
352.054
352.308
352.543
352.748
352.912
353.028
353.087
353.087
353.028
352.912
352.748
352.543
352.308
352.054
351.791
351.534
351.323
344.643
344.822
345.043
345.271
345.492
345.695
345.873
346.016
346.116
346.167
346.167
346.116
346.016
345.873
345.695
345.492
345.271
345.043
344.822
344.643
337.894
338.043
338.229
338.422
338.609
338.781
338.932
339.052
339.137
339.181
339.181
339.137
339.052
338.932
338.781
338.609
338.422
338.229
338.043
337.894
331.088
331.208
331.36
331.517
331.67
331.811
331.935
332.033
332.103
332.139
332.139
332.103
332.033
331.935
331.811
331.67
331.517
331.36
331.208
331.088
324.235
324.326
324.444
324.567
324.686
324.796
324.892
324.969
325.023
325.051
325.051
325.023
324.969
324.892
324.796
324.686
324.567
324.444
324.326
324.235
317.345
317.41
317.494
317.582
317.667
317.745
317.814
317.869
317.907
317.927
317.927
317.907
317.869
317.814
317.745
317.667
317.582
317.494
317.41
317.345
310.429
310.468
310.518
310.571
310.622
310.669
310.71
310.743
310.767
310.779
310.779
310.767
310.743
310.71
310.669
310.622
310.571
310.518
310.468
310.429
303.498
303.511
303.528
303.545
303.562
303.578
303.592
303.603
303.611
303.615
303.615
303.611
303.603
303.592
303.578
303.562
303.545
303.528
303.511
303.498
353.404
353.598
353.833
354.072
354.303
354.515
354.699
354.846
354.949
355.002
355.002
354.949
354.846
354.699
354.515
354.303
354.072
353.833
353.598
353.404
346.446
346.611
346.813
347.021
347.221
347.405
347.565
347.692
347.782
347.828
347.828
347.782
347.692
347.565
347.405
347.221
347.021
346.813
346.611
346.446
339.42
339.557
339.727
339.903
340.073
340.228
340.363
340.472
340.547
340.586
340.586
340.547
340.472
340.363
340.228
340.073
339.903
339.727
339.557
339.42
332.337
332.446
332.586
332.729
332.868
332.995
333.106
333.195
333.257
333.289
333.289
333.257
333.195
333.106
332.995
332.868
332.729
332.586
332.446
332.337
325.206
325.29
325.398
325.51
325.618
325.717
325.803
325.872
325.92
325.945
325.945
325.92
325.872
325.803
325.717
325.618
325.51
325.398
325.29
325.206
318.039
318.098
318.175
318.255
318.332
318.403
318.465
318.514
318.549
318.567
318.567
318.549
318.514
318.465
318.403
318.332
318.255
318.175
318.098
318.039
310.846
310.881
310.928
310.976
311.022
311.065
311.102
311.131
311.152
311.163
311.163
311.152
311.131
311.102
311.065
311.022
310.976
310.928
310.881
310.846
303.637
303.649
303.665
303.681
303.696
303.711
303.723
303.733
303.74
303.744
303.744
303.74
303.733
303.723
303.711
303.696
303.681
303.665
303.649
303.637
355.536
355.715
355.93
356.149
356.358
356.55
356.715
356.847
356.94
356.987
356.987
356.94
356.847
356.715
356.55
356.358
356.149
355.93
355.715
355.536
348.286
348.437
348.623
348.813
348.994
349.161
349.304
349.419
349.499
349.54
349.54
349.499
349.419
349.304
349.161
348.994
348.813
348.623
348.437
348.286
340.97
341.096
341.252
341.413
341.567
341.708
341.83
341.927
341.995
342.03
342.03
341.995
341.927
341.83
341.708
341.567
341.413
341.252
341.096
340.97
333.6
333.701
333.829
333.96
334.086
334.202
334.301
334.381
334.437
334.465
334.465
334.437
334.381
334.301
334.202
334.086
333.96
333.829
333.701
333.6
326.185
326.263
326.362
326.464
326.563
326.653
326.73
326.792
326.836
326.858
326.858
326.836
326.792
326.73
326.653
326.563
326.464
326.362
326.263
326.185
318.737
318.792
318.863
318.936
319.006
319.07
319.126
319.17
319.201
319.217
319.217
319.201
319.17
319.126
319.07
319.006
318.936
318.863
318.792
318.737
311.265
311.297
311.34
311.384
311.426
311.464
311.498
311.525
311.543
311.553
311.553
311.543
311.525
311.498
311.464
311.426
311.384
311.34
311.297
311.265
303.778
303.789
303.803
303.817
303.832
303.845
303.856
303.865
303.871
303.874
303.874
303.871
303.865
303.856
303.845
303.832
303.817
303.803
303.789
303.778
357.58
357.745
357.944
358.145
358.336
358.511
358.661
358.781
358.864
358.907
358.907
358.864
358.781
358.661
358.511
358.336
358.145
357.944
357.745
357.58
350.028
350.168
350.339
350.514
350.68
350.832
350.963
351.067
351.139
351.176
351.176
351.139
351.067
350.963
350.832
350.68
350.514
350.339
350.168
350.028
342.422
342.538
342.683
342.831
342.972
343.101
343.212
343.3
343.362
343.393
343.393
343.362
343.3
343.212
343.101
342.972
342.831
342.683
342.538
342.422
334.773
334.866
334.984
335.105
335.221
335.327
335.418
335.49
335.541
335.567
335.567
335.541
335.49
335.418
335.327
335.221
335.105
334.984
334.866
334.773
327.088
327.16
327.252
327.346
327.436
327.519
327.59
327.646
327.685
327.705
327.705
327.685
327.646
327.59
327.519
327.436
327.346
327.252
327.16
327.088
319.377
319.428
319.493
319.561
319.625
319.684
319.735
319.775
319.803
319.818
319.818
319.803
319.775
319.735
319.684
319.625
319.561
319.493
319.428
319.377
311.647
311.677
311.716
311.757
311.796
311.831
311.862
311.886
311.903
311.912
311.912
311.903
311.886
311.862
311.831
311.796
311.757
311.716
311.677
311.647
303.905
303.916
303.929
303.942
303.955
303.967
303.977
303.986
303.991
303.994
303.994
303.991
303.986
303.977
303.967
303.955
303.942
303.929
303.916
303.905
359.174
359.329
359.516
359.704
359.883
360.046
360.186
360.297
360.374
360.414
360.414
360.374
360.297
360.186
360.046
359.883
359.704
359.516
359.329
359.174
351.335
351.467
351.628
351.793
351.949
352.091
352.213
352.31
352.377
352.412
352.412
352.377
352.31
352.213
352.091
351.949
351.793
351.628
351.467
351.335
343.478
343.588
343.725
343.864
343.997
344.118
344.222
344.304
344.362
344.391
344.391
344.362
344.304
344.222
344.118
343.997
343.864
343.725
343.588
343.478
335.605
335.693
335.805
335.92
336.029
336.128
336.214
336.282
336.329
336.353
336.353
336.329
336.282
336.214
336.128
336.029
335.92
335.805
335.693
335.605
327.717
327.785
327.872
327.961
328.047
328.124
328.191
328.244
328.28
328.299
328.299
328.28
328.244
328.191
328.124
328.047
327.961
327.872
327.785
327.717
319.816
319.865
319.927
319.991
320.052
320.107
320.155
320.193
320.22
320.233
320.233
320.22
320.193
320.155
320.107
320.052
319.991
319.927
319.865
319.816
311.907
311.936
311.973
312.012
312.048
312.082
312.111
312.133
312.149
312.157
312.157
312.149
312.133
312.111
312.082
312.048
312.012
311.973
311.936
311.907
303.992
304.002
304.014
304.027
304.039
304.051
304.06
304.068
304.073
304.076
304.076
304.073
304.068
304.06
304.051
304.039
304.027
304.014
304.002
303.992
)
;

boundaryField
{
    hotSide
    {
        type            fixedGradient;
        gradient        nonuniform List<scalar> 
400
(
368.122
369.387
371.92
375.733
380.838
387.253
394.997
404.093
414.562
426.428
439.71
454.431
470.608
488.259
507.397
528.036
550.186
573.855
599.051
625.779
374.239
375.455
377.893
381.567
386.495
392.7
400.207
409.045
419.242
430.828
443.828
458.268
474.171
491.556
510.44
530.838
552.761
576.219
601.218
627.763
380.859
382.017
384.342
387.851
392.57
398.526
405.756
414.294
424.178
435.443
448.123
462.247
477.844
494.935
513.542
533.678
555.357
578.588
603.378
629.731
387.872
388.963
391.156
394.475
398.951
404.623
411.536
419.735
429.267
440.175
452.5
466.279
481.544
498.32
516.629
536.489
557.912
580.907
605.482
631.638
395.082
396.097
398.143
401.248
405.455
410.812
417.377
425.205
434.355
444.879
456.827
470.241
485.157
501.605
519.609
539.187
560.351
583.11
607.47
633.432
402.189
403.123
405.01
407.889
411.809
416.835
423.034
430.477
439.232
449.364
460.928
473.974
488.543
504.668
522.372
541.675
562.588
585.121
609.276
635.055
408.785
409.638
411.368
414.021
417.659
422.357
428.199
435.267
443.642
453.397
464.598
477.298
491.542
507.365
524.794
543.845
564.532
586.86
610.832
636.447
414.384
415.164
416.752
419.202
422.587
426.994
432.519
439.258
447.3
456.728
467.614
480.017
493.985
509.553
526.75
545.591
566.089
588.248
612.07
637.551
418.481
419.205
420.685
422.98
426.172
430.359
435.645
442.135
449.928
459.113
469.767
481.951
495.716
511.099
528.127
546.817
567.179
589.218
612.932
638.318
420.652
421.346
422.766
424.977
428.064
432.132
437.289
443.645
451.305
460.36
470.889
482.957
496.615
511.9
528.839
547.449
567.741
589.716
613.374
638.711
420.652
421.346
422.766
424.977
428.064
432.132
437.289
443.645
451.305
460.36
470.889
482.957
496.615
511.9
528.839
547.449
567.741
589.716
613.374
638.711
418.481
419.205
420.685
422.98
426.172
430.359
435.645
442.135
449.928
459.113
469.767
481.951
495.716
511.099
528.127
546.817
567.179
589.218
612.932
638.318
414.384
415.164
416.752
419.202
422.587
426.994
432.519
439.258
447.3
456.728
467.614
480.017
493.985
509.553
526.75
545.591
566.089
588.248
612.07
637.551
408.785
409.638
411.368
414.021
417.659
422.357
428.199
435.267
443.642
453.397
464.598
477.298
491.542
507.365
524.794
543.845
564.532
586.86
610.832
636.447
402.189
403.123
405.01
407.889
411.809
416.835
423.034
430.477
439.232
449.364
460.928
473.974
488.543
504.668
522.372
541.675
562.588
585.121
609.276
635.055
395.082
396.097
398.143
401.248
405.455
410.812
417.377
425.205
434.355
444.879
456.827
470.241
485.157
501.605
519.609
539.187
560.351
583.11
607.47
633.432
387.872
388.963
391.156
394.475
398.951
404.623
411.536
419.735
429.267
440.175
452.5
466.279
481.544
498.32
516.629
536.489
557.912
580.907
605.482
631.638
380.859
382.017
384.342
387.851
392.57
398.526
405.756
414.294
424.178
435.443
448.123
462.247
477.844
494.935
513.542
533.678
555.357
578.588
603.378
629.731
374.239
375.455
377.893
381.567
386.495
392.7
400.207
409.045
419.242
430.828
443.828
458.268
474.171
491.556
510.44
530.838
552.761
576.219
601.218
627.763
368.122
369.387
371.92
375.733
380.838
387.253
394.997
404.093
414.562
426.428
439.71
454.431
470.608
488.259
507.397
528.036
550.186
573.855
599.051
625.779
)
;
    }
    coldSide
    {
        type            mixed;
        refValue        uniform 300;
        refGradient     uniform 0;
        valueFraction   uniform 0.991591;
        source          uniform 0;
        value           nonuniform List<scalar> 
400
(
300.021
300.021
300.021
300.021
300.021
300.022
300.022
300.023
300.023
300.024
300.025
300.025
300.026
300.027
300.028
300.029
300.031
300.032
300.033
300.034
300.021
300.021
300.021
300.021
300.022
300.022
300.022
300.023
300.023
300.024
300.025