/*--------------------------------*- C++ -*----------------------------------*\
| =========                 |                                                 |
| \\      /  F ield         | OpenFOAM: The Open Source CFD Toolbox           |
|  \\    /   O peration     | Version:  2212                                  |
|   \\  /    A nd           | Website:  www.openfoam.com                      |
|    \\/     M anipulation  |                                                 |
\*---------------------------------------------------------------------------*/
FoamFile
{
    version     2.0;
    format      ascii;
    arch        "LSB;label=32;scalar=64";
    class       volScalarField;
    location    "0";
    object      Tdirect;
}
// * * * * * * * * * * * * * * * * * * * * * * * * * * * * * * * * * * * * * //

dimensions      [0 0 0 1 0 0 0];

internalField   nonuniform List<scalar> 
3200
(
325.467
325.678
325.947
326.241
326.543
326.84
327.114
327.345
327.513
327.602
327.602
327.513
327.345
327.114
326.84
326.543
326.241
325.947
325.678
325.467
322.245
322.423
322.656
322.91
323.171
323.428
323.665
323.865
324.01
324.087
324.087
324.01
323.865
323.665
323.428
323.171
322.91
322.656
322.423
322.245
318.949
319.098
319.293
319.508
319.729
319.946
320.146
320.314
320.437
320.502
320.502
320.437
320.314
320.146
319.946
319.729
319.508
319.293
319.098
318.949
315.592
315.711
315.871
316.046
316.227
316.404
316.567
316.705
316.805
316.858
316.858
316.805
316.705
316.567
316.404
316.227
316.046
315.871
315.711
315.592
312.183
312.275
312.399
312.535
312.675
312.813
312.94
313.047
313.125
313.166
313.166
313.125
313.047
312.94
312.813
312.675
312.535
312.399
312.275
312.183
308.735
308.8
308.888
308.985
309.086
309.184
309.275
309.351
309.406
309.436
309.436
309.406
309.351
309.275
309.184
309.086
308.985
308.888
308.8
308.735
305.258
305.297
305.35
305.408
305.469
305.528
305.582
305.628
305.661
305.679
305.679
305.661
305.628
305.582
305.528
305.469
305.408
305.35
305.297
305.258
301.765
301.778
301.795
301.815
301.835
301.855
301.873
301.888
301.899
301.905
301.905
301.899
301.888
301.873
301.855
301.835
301.815
301.795
301.778
301.765
325.566
325.775
326.042
326.333
326.632
326.926
327.197
327.425
327.591
327.679
327.679
327.591
327.425
327.197
326.926
326.632
326.333
326.042
325.775
325.566
322.331
322.509
322.739
322.991
323.25
323.503
323.738
323.935
324.078
324.154
324.154
324.078
323.935
323.738
323.503
323.25
322.991
322.739
322.509
322.331
319.023
319.17
319.364
319.577
319.796
320.01
320.208
320.374
320.496
320.56
320.56
320.496
320.374
320.208
320.01
319.796
319.577
319.364
319.17
319.023
315.653
315.771
315.929
316.103
316.282
316.457
316.619
316.755
316.853
316.906
316.906
316.853
316.755
316.619
316.457
316.282
316.103
315.929
315.771
315.653
312.231
312.322
312.444
312.579
312.718
312.855
312.98
313.086
313.163
313.203
313.203
313.163
313.086
312.98
312.855
312.718
312.579
312.444
312.322
312.231
308.769
308.833
308.921
309.017
309.117
309.214
309.303
309.379
309.434
309.462
309.462
309.434
309.379
309.303
309.214
309.117
309.017
308.921
308.833
308.769
305.279
305.317
305.37
305.428
305.487
305.546
305.599
305.645
305.677
305.695
305.695
305.677
305.645
305.599
305.546
305.487
305.428
305.37
305.317
305.279
301.771
301.784
301.802
301.821
301.841
301.861
301.879
301.894
301.905
301.911
301.911
301.905
301.894
301.879
301.861
301.841
301.821
301.802
301.784
301.771
325.765
325.971
326.233
326.519
326.812
327.099
327.364
327.586
327.748
327.834
327.834
327.748
327.586
327.364
327.099
326.812
326.519
326.233
325.971
325.765
322.505
322.68
322.906
323.153
323.407
323.655
323.884
324.076
324.216
324.29
324.29
324.216
324.076
323.884
323.655
323.407
323.153
322.906
322.68
322.505
319.171
319.316
319.507
319.715
319.93
320.14
320.333
320.495
320.614
320.676
320.676
320.614
320.495
320.333
320.14
319.93
319.715
319.507
319.316
319.171
315.775
315.891
316.046
316.217
316.392
316.564
316.722
316.854
316.951
317.002
317.002
316.951
316.854
316.722
316.564
316.392
316.217
316.046
315.891
315.775
312.326
312.415
312.536
312.669
312.805
312.938
313.061
313.164
313.239
313.278
313.278
313.239
313.164
313.061
312.938
312.805
312.669
312.536
312.415
312.326
308.837
308.901
308.987
309.081
309.179
309.274
309.361
309.435
309.488
309.516
309.516
309.488
309.435
309.361
309.274
309.179
309.081
308.987
308.901
308.837
305.32
305.358
305.409
305.466
305.525
305.582
305.634
305.678
305.71
305.727
305.727
305.71
305.678
305.634
305.582
305.525
305.466
305.409
305.358
305.32
301.785
301.798
301.815
301.834
301.854
301.873
301.891
301.905
301.916
301.922
301.922
301.916
301.905
301.891
301.873
301.854
301.834
301.815
301.798
301.785
326.064
326.265
326.521
326.798
327.083
327.361
327.616
327.831
327.987
328.069
328.069
327.987
327.831
327.616
327.361
327.083
326.798
326.521
326.265
326.064
322.766
322.937
323.157
323.398
323.644
323.884
324.105
324.291
324.426
324.497
324.497
324.426
324.291
324.105
323.884
323.644
323.398
323.157
322.937
322.766
319.394
319.535
319.721
319.924
320.132
320.335
320.522
320.679
320.792
320.852
320.852
320.792
320.679
320.522
320.335
320.132
319.924
319.721
319.535
319.394
315.958
316.071
316.223
316.389
316.559
316.725
316.878
317.006
317.098
317.147
317.147
317.098
317.006
316.878
316.725
316.559
316.389
316.223
316.071
315.958
312.469
312.556
312.674
312.803
312.935
313.064
313.183
313.282
313.354
313.392
313.392
313.354
313.282
313.183
313.064
312.935
312.803
312.674
312.556
312.469
308.94
309.002
309.086
309.178
309.272
309.364
309.449
309.52
309.571
309.598
309.598
309.571
309.52
309.449
309.364
309.272
309.178
309.086
309.002
308.94
305.382
305.419
305.469
305.524
305.581
305.636
305.687
305.73
305.76
305.777
305.777
305.76
305.73
305.687
305.636
305.581
305.524
305.469
305.419
305.382
301.806
301.818
301.835
301.854
301.873
301.891
301.908
301.923
301.933
301.938
301.938
301.933
301.923
301.908
301.891
301.873
301.854
301.835
301.818
301.806
326.463
326.658
326.906
327.173
327.447
327.713
327.957
328.162
328.311
328.389
328.389
328.311
328.162
327.957
327.713
327.447
327.173
326.906
326.658
326.463
323.115
323.28
323.494
323.725
323.962
324.193
324.404
324.581
324.709
324.777
324.777
324.709
324.581
324.404
324.193
323.962
323.725
323.494
323.28
323.115
319.691
319.828
320.008
320.204
320.404
320.599
320.777
320.927
321.035
321.092
321.092
321.035
320.927
320.777
320.599
320.404
320.204
320.008
319.828
319.691
316.202
316.313
316.459
316.619
316.783
316.942
317.088
317.21
317.298
317.345
317.345
317.298
317.21
317.088
316.942
316.783
316.619
316.459
316.313
316.202
312.66
312.745
312.859
312.983
313.11
313.234
313.347
313.442
313.511
313.547
313.547
313.511
313.442
313.347
313.234
313.11
312.983
312.859
312.745
312.66
309.077
309.137
309.218
309.307
309.398
309.486
309.567
309.635
309.684
309.71
309.71
309.684
309.635
309.567
309.486
309.398
309.307
309.218
309.137
309.077
305.464
305.5
305.549
305.602
305.657
305.71
305.758
305.799
305.828
305.844
305.844
305.828
305.799
305.758
305.71
305.657
305.602
305.549
305.5
305.464
301.834
301.846
301.862
301.88
301.898
301.916
301.932
301.946
301.956
301.961
301.961
301.956
301.946
301.932
301.916
301.898
301.88
301.862
301.846
301.834
326.964
327.152
327.389
327.645
327.906
328.159
328.39
328.583
328.723
328.796
328.796
328.723
328.583
328.39
328.159
327.906
327.645
327.389
327.152
326.964
323.553
323.712
323.917
324.138
324.364
324.583
324.783
324.95
325.07
325.134
325.134
325.07
324.95
324.783
324.583
324.364
324.138
323.917
323.712
323.553
320.064
320.196
320.368
320.556
320.746
320.931
321.1
321.241
321.343
321.397
321.397
321.343
321.241
321.1
320.931
320.746
320.556
320.368
320.196
320.064
316.509
316.615
316.756
316.909
317.065
317.216
317.354
317.47
317.553
317.596
317.596
317.553
317.47
317.354
317.216
317.065
316.909
316.756
316.615
316.509
312.9
312.982
313.091
313.21
313.331
313.449
313.556
313.645
313.71
313.744
313.744
313.71
313.645
313.556
313.449
313.331
313.21
313.091
312.982
312.9
309.249
309.307
309.385
309.469
309.556
309.64
309.717
309.781
309.827
309.851
309.851
309.827
309.781
309.717
309.64
309.556
309.469
309.385
309.307
309.249
305.568
305.602
305.649
305.7
305.752
305.802
305.848
305.887
305.914
305.929
305.929
305.914
305.887
305.848
305.802
305.752
305.7
305.649
305.602
305.568
301.868
301.88
301.896
301.913
301.93
301.947
301.962
301.975
301.985
301.989
301.989
301.985
301.975
301.962
301.947
301.93
301.913
301.896
301.88
301.868
327.567
327.746
327.973
328.216
328.462
328.7
328.917
329.097
329.227
329.296
329.296
329.227
329.097
328.917
328.7
328.462
328.216
327.973
327.746
327.567
324.08
324.232
324.427
324.637
324.85
325.057
325.244
325.4
325.513
325.572
325.572
325.513
325.4
325.244
325.057
324.85
324.637
324.427
324.232
324.08
320.513
320.639
320.803
320.981
321.161
321.336
321.494
321.626
321.721
321.771
321.771
321.721
321.626
321.494
321.336
321.161
320.981
320.803
320.639
320.513
316.878
316.98
317.114
317.259
317.407
317.549
317.679
317.787
317.864
317.905
317.905
317.864
317.787
317.679
317.549
317.407
317.259
317.114
316.98
316.878
313.189
313.267
313.371
313.484
313.598
313.709
313.81
313.894
313.954
313.985
313.985
313.954
313.894
313.81
313.709
313.598
313.484
313.371
313.267
313.189
309.456
309.511
309.585
309.666
309.748
309.827
309.899
309.959
310.002
310.024
310.024
310.002
309.959
309.899
309.827
309.748
309.666
309.585
309.511
309.456
305.692
305.725
305.77
305.818
305.867
305.915
305.958
305.994
306.02
306.033
306.033
306.02
305.994
305.958
305.915
305.867
305.818
305.77
305.725
305.692
301.91
301.921
301.936
301.952
301.969
301.985
301.999
302.011
302.02
302.024
302.024
302.02
302.011
301.999
301.985
301.969
301.952
301.936
301.921
301.91
328.273
328.444
328.658
328.887
329.118
329.34
329.542
329.709
329.829
329.892
329.892
329.829
329.709
329.542
329.34
329.118
328.887
328.658
328.444
328.273
324.697
324.841
325.026
325.224
325.424
325.617
325.791
325.936
326.04
326.094
326.094
326.04
325.936
325.791
325.617
325.424
325.224
325.026
324.841
324.697
321.039
321.158
321.314
321.481
321.651
321.814
321.961
322.083
322.171
322.217
322.217
322.171
322.083
321.961
321.814
321.651
321.481
321.314
321.158
321.039
317.311
317.407
317.534
317.671
317.81
317.943
318.063
318.163
318.235
318.273
318.273
318.235
318.163
318.063
317.943
317.81
317.671
317.534
317.407
317.311
313.527
313.601
313.699
313.806
313.914
314.017
314.111
314.188
314.244
314.273
314.273
314.244
314.188
314.111
314.017
313.914
313.806
313.699
313.601
313.527
309.698
309.751
309.821
309.897
309.974
310.048
310.115
310.17
310.21
310.231
310.231
310.21
310.17
310.115
310.048
309.974
309.897
309.821
309.751
309.698
305.838
305.87
305.912
305.957
306.004
306.048
306.088
306.121
306.145
306.158
306.158
306.145
306.121
306.088
306.048
306.004
305.957
305.912
305.87
305.838
301.959
301.97
301.984
301.999
302.015
302.029
302.043
302.054
302.062
302.066
302.066
302.062
302.054
302.043
302.029
302.015
301.999
301.984
301.97
301.959
329.084
329.245
329.446
329.661
329.876
330.082
330.268
330.422
330.532
330.589
330.589
330.532
330.422
330.268
330.082
329.876
329.661
329.446
329.245
329.084
325.405
325.541
325.715
325.9
326.087
326.266
326.426
326.559
326.655
326.705
326.705
326.655
326.559
326.426
326.266
326.087
325.9
325.715
325.541
325.405
321.642
321.755
321.901
322.058
322.216
322.367
322.503
322.615
322.696
322.738
322.738
322.696
322.615
322.503
322.367
322.216
322.058
321.901
321.755
321.642
317.808
317.899
318.018
318.146
318.275
318.399
318.51
318.602
318.668
318.702
318.702
318.668
318.602
318.51
318.399
318.275
318.146
318.018
317.899
317.808
313.915
313.985
314.077
314.177
314.277
314.374
314.46
314.531
314.583
314.609
314.609
314.583
314.531
314.46
314.374
314.277
314.177
314.077
313.985
313.915
309.977
310.026
310.092
310.163
310.235
310.304
310.365
310.417
310.453
310.472
310.472
310.453
310.417
310.365
310.304
310.235
310.163
310.092
310.026
309.977
306.006
306.035
306.075
306.118
306.161
306.202
306.239
306.27
306.292
306.303
306.303
306.292
306.27
306.239
306.202
306.161
306.118
306.075
306.035
306.006
302.015
302.025
302.039
302.053
302.067
302.081
302.094
302.104
302.111
302.115
302.115
302.111
302.104
302.094
302.081
302.067
302.053
302.039
302.025
302.015
329.999
330.151
330.339
330.539
330.738
330.928
331.098
331.239
331.339
331.391
331.391
331.339
331.239
331.098
330.928
330.738
330.539
330.339
330.151
329.999
326.205
326.333
326.495
326.668
326.841
327.005
327.153
327.275
327.361
327.407
327.407
327.361
327.275
327.153
327.005
326.841
326.668
326.495
326.333
326.205
322.323
322.429
322.567
322.713
322.859
322.998
323.123
323.226
323.299
323.337
323.337
323.299
323.226
323.123
322.998
322.859
322.713
322.567
322.429
322.323
318.368
318.454
318.566
318.685
318.805
318.919
319.021
319.105
319.165
319.196
319.196
319.165
319.105
319.021
318.919
318.805
318.685
318.566
318.454
318.368
314.353
314.419
314.505
314.598
314.691
314.78
314.859
314.925
314.971
314.996
314.996
314.971
314.925
314.859
314.78
314.691
314.598
314.505
314.419
314.353
310.291
310.337
310.399
310.465
310.532
310.595
310.652
310.699
310.732
310.749
310.749
310.732
310.699
310.652
310.595
310.532
310.465
310.399
310.337
310.291
306.195
306.223
306.26
306.3
306.34
306.378
306.412
306.44
306.46
306.47
306.47
306.46
306.44
306.412
306.378
306.34
306.3
306.26
306.223
306.195
302.079
302.088
302.101
302.114
302.127
302.14
302.151
302.161
302.168
302.171
302.171
302.168
302.161
302.151
302.14
302.127
302.114
302.101
302.088
302.079
331.021
331.162
331.338
331.523
331.706
331.881
332.036
332.163
332.254
332.301
332.301
332.254
332.163
332.036
331.881
331.706
331.523
331.338
331.162
331.021
327.097
327.217
327.368
327.528
327.688
327.838
327.973
328.083
328.162
328.203
328.203
328.162
328.083
327.973
327.838
327.688
327.528
327.368
327.217
327.097
323.084
323.183
323.311
323.446
323.581
323.708
323.822
323.915
323.982
324.017
324.017
323.982
323.915
323.822
323.708
323.581
323.446
323.311
323.183
323.084
318.994
319.074
319.178
319.289
319.399
319.503
319.596
319.673
319.727
319.756
319.756
319.727
319.673
319.596
319.503
319.399
319.289
319.178
319.074
318.994
314.842
314.903
314.984
315.07
315.156
315.237
315.31
315.369
315.411
315.433
315.433
315.411
315.369
315.31
315.237
315.156
315.07
314.984
314.903
314.842
310.641
310.685
310.742
310.804
310.865
310.923
310.975
311.017
311.048
311.063
311.063
311.048
311.017
310.975
310.923
310.865
310.804
310.742
310.685
310.641
306.406
306.432
306.466
306.503
306.54
306.575
306.606
306.632
306.65
306.659
306.659
306.65
306.632
306.606
306.575
306.54
306.503
306.466
306.432
306.406
302.15
302.158
302.17
302.182
302.195
302.206
302.217
302.225
302.231
302.235
302.235
302.231
302.225
302.217
302.206
302.195
302.182
302.17
302.158
302.15
332.149
332.281
332.444
332.614
332.783
332.941
333.082
333.198
333.279
333.322
333.322
333.279
333.198
333.082
332.941
332.783
332.614
332.444
332.281
332.149
328.083
328.194
328.335
328.482
328.628
328.766
328.888
328.988
329.059
329.096
329.096
329.059
328.988
328.888
328.766
328.628
328.482
328.335
328.194
328.083
323.923
324.016
324.134
324.259
324.383
324.499
324.602
324.687
324.747
324.778
324.778
324.747
324.687
324.602
324.499
324.383
324.259
324.134
324.016
323.923
319.685
319.759
319.856
319.958
320.059
320.154
320.239
320.308
320.357
320.383
320.383
320.357
320.308
320.239
320.154
320.059
319.958
319.856
319.759
319.685
315.382
315.439
315.514
315.593
315.672
315.746
315.812
315.866
315.904
315.924
315.924
315.904
315.866
315.812
315.746
315.672
315.593
315.514
315.439
315.382
311.029
311.069
311.122
311.179
311.235
311.288
311.335
311.374
311.401
311.415
311.415
311.401
311.374
311.335
311.288
311.235
311.179
311.122
311.069
311.029
306.639
306.663
306.695
306.729
306.763
306.795
306.823
306.846
306.863
306.871
306.871
306.863
306.846
306.823
306.795
306.763
306.729
306.695
306.663
306.639
302.228
302.236
302.247
302.258
302.269
302.28
302.29
302.297
302.303
302.306
302.306
302.303
302.297
302.29
302.28
302.269
302.258
302.247
302.236
302.228
333.384
333.507
333.657
333.814
333.967
334.112
334.239
334.343
334.417
334.455
334.455
334.417
334.343
334.239
334.112
333.967
333.814
333.657
333.507
333.384
329.162
329.265
329.395
329.53
329.664
329.789
329.9
329.989
330.053
330.086
330.086
330.053
329.989
329.9
329.789
329.664
329.53
329.395
329.265
329.162
324.843
324.928
325.038
325.152
325.265
325.371
325.465
325.541
325.594
325.622
325.622
325.594
325.541
325.465
325.371
325.265
325.152
325.038
324.928
324.843
320.441
320.51
320.599
320.693
320.786
320.872
320.949
321.011
321.055
321.078
321.078
321.055
321.011
320.949
320.872
320.786
320.693
320.599
320.51
320.441
315.973
316.026
316.095
316.168
316.24
316.307
316.367
316.415
316.45
316.467
316.467
316.45
316.415
316.367
316.307
316.24
316.168
316.095
316.026
315.973
311.452
311.49
311.539
311.591
311.643
311.691
311.733
311.768
311.792
311.805
311.805
311.792
311.768
311.733
311.691
311.643
311.591
311.539
311.49
311.452
306.894
306.917
306.946
306.977
307.008
307.037
307.063
307.084
307.098
307.106
307.106
307.098
307.084
307.063
307.037
307.008
306.977
306.946
306.917
306.894
302.314
302.321
302.331
302.341
302.352
302.361
302.37
302.377
302.382
302.384
302.384
302.382
302.377
302.37
302.361
302.352
302.341
302.331
302.321
302.314
334.726
334.839
334.977
335.121
335.261
335.392
335.507
335.6
335.666
335.7
335.7
335.666
335.6
335.507
335.392
335.261
335.121
334.977
334.839
334.726
330.333
330.429
330.548
330.673
330.794
330.907
331.007
331.088
331.145
331.174
331.174
331.145
331.088
331.007
330.907
330.794
330.673
330.548
330.429
330.333
325.841
325.92
326.02
326.125
326.228
326.324
326.409
326.477
326.525
326.55
326.55
326.525
326.477
326.409
326.324
326.228
326.125
326.02
325.92
325.841
321.262
321.326
321.408
321.494
321.578
321.657
321.726
321.782
321.821
321.842
321.842
321.821
321.782
321.726
321.657
321.578
321.494
321.408
321.326
321.262
316.615
316.663
316.727
316.794
316.859
316.921
316.974
317.018
317.048
317.064
317.064
317.048
317.018
316.974
316.921
316.859
316.794
316.727
316.663
316.615
311.912
311.947
311.992
312.04
312.087
312.13
312.169
312.2
312.222
312.233
312.233
312.222
312.2
312.169
312.13
312.087
312.04
311.992
311.947
311.912
307.171
307.192
307.219
307.248
307.276
307.302
307.325
307.344
307.357
307.364
307.364
307.357
307.344
307.325
307.302
307.276
307.248
307.219
307.192
307.171
302.406
302.413
302.422
302.432
302.442
302.45
302.458
302.464
302.469
302.471
302.471
302.469
302.464
302.458
302.45
302.442
302.432
302.422
302.413
302.406
336.171
336.276
336.403
336.534
336.661
336.779
336.883
336.966
337.025
337.055
337.055
337.025
336.966
336.883
336.779
336.661
336.534
336.403
336.276
336.171
331.595
331.684
331.793
331.907
332.017
332.119
332.209
332.281
332.332
332.359
332.359
332.332
332.281
332.209
332.119
332.017
331.907
331.793
331.684
331.595
326.915
326.988
327.08
327.176
327.27
327.356
327.432
327.494
327.537
327.559
327.559
327.537
327.494
327.432
327.356
327.27
327.176
327.08
326.988
326.915
322.146
322.205
322.28
322.359
322.435
322.506
322.568
322.618
322.654
322.672
322.672
322.654
322.618
322.568
322.506
322.435
322.359
322.28
322.205
322.146
317.305
317.35
317.408
317.469
317.529
317.584
317.632
317.671
317.699
317.713
317.713
317.699
317.671
317.632
317.584
317.529
317.469
317.408
317.35
317.305
312.407
312.439
312.481
312.524
312.567
312.606
312.641
312.669
312.688
312.698
312.698
312.688
312.669
312.641
312.606
312.567
312.524
312.481
312.439
312.407
307.469
307.488
307.513
307.539
307.565
307.588
307.609
307.626
307.638
307.644
307.644
307.638
307.626
307.609
307.588
307.565
307.539
307.513
307.488
307.469
302.506
302.513
302.521
302.53
302.538
302.546
302.553
302.559
302.563
302.565
302.565
302.563
302.559
302.553
302.546
302.538
302.53
302.521
302.513
302.506
337.713
337.809
337.925
338.045
338.16
338.267
338.36
338.435
338.487
338.514
338.514
338.487
338.435
338.36
338.267
338.16
338.045
337.925
337.809
337.713
332.94
333.021
333.122
333.225
333.325
333.418
333.498
333.563
333.608
333.632
333.632
333.608
333.563
333.498
333.418
333.325
333.225
333.122
333.021
332.94
328.059
328.126
328.211
328.298
328.383
328.461
328.53
328.585
328.623
328.643
328.643
328.623
328.585
328.53
328.461
328.383
328.298
328.211
328.126
328.059
323.086
323.141
323.21
323.281
323.351
323.415
323.471
323.515
323.547
323.563
323.563
323.547
323.515
323.471
323.415
323.351
323.281
323.21
323.141
323.086
318.039
318.08
318.134
318.19
318.244
318.294
318.337
318.372
318.396
318.409
318.409
318.396
318.372
318.337
318.294
318.244
318.19
318.134
318.08
318.039
312.933
312.962
313.001
313.04
313.079
313.115
313.146
313.171
313.188
313.197
313.197
313.188
313.171
313.146
313.115
313.079
313.04
313.001
312.962
312.933
307.785
307.803
307.826
307.85
307.873
307.894
307.913
307.928
307.938
307.944
307.944
307.938
307.928
307.913
307.894
307.873
307.85
307.826
307.803
307.785
302.613
302.618
302.626
302.634
302.642
302.649
302.655
302.66
302.664
302.666
302.666
302.664
302.66
302.655
302.649
302.642
302.634
302.626
302.618
302.613
339.333
339.421
339.527
339.636
339.741
339.837
339.92
339.987
340.034
340.058
340.058
340.034
339.987
339.92
339.837
339.741
339.636
339.527
339.421
339.333
334.35
334.425
334.516
334.611
334.702
334.785
334.857
334.915
334.956
334.977
334.977
334.956
334.915
334.857
334.785
334.702
334.611
334.516
334.425
334.35
329.256
329.318
329.396
329.475
329.552
329.623
329.684
329.733
329.768
329.786
329.786
329.768
329.733
329.684
329.623
329.552
329.475
329.396
329.318
329.256
324.069
324.119
324.182
324.247
324.31
324.368
324.418
324.459
324.487
324.501
324.501
324.487
324.459
324.418
324.368
324.31
324.247
324.182
324.119
324.069
318.805
318.843
318.892
318.943
318.992
319.037
319.076
319.107
319.129
319.141
319.141
319.129
319.107
319.076
319.037
318.992
318.943
318.892
318.843
318.805
313.481
313.508
313.543
313.58
313.615
313.647
313.675
313.697
313.713
313.721
313.721
313.713
313.697
313.675
313.647
313.615
313.58
313.543
313.508
313.481
308.115
308.131
308.152
308.174
308.195
308.214
308.231
308.245
308.254
308.259
308.259
308.254
308.245
308.231
308.214
308.195
308.174
308.152
308.131
308.115
302.723
302.729
302.736
302.743
302.75
302.756
302.762
302.767
302.77
302.771
302.771
302.77
302.767
302.762
302.756
302.75
302.743
302.736
302.729
302.723
340.985
341.066
341.163
341.263
341.358
341.445
341.52
341.58
341.622
341.643
341.643
341.622
341.58
341.52
341.445
341.358
341.263
341.163
341.066
340.985
335.781
335.85
335.934
336.02
336.103
336.178
336.243
336.295
336.332
336.35
336.35
336.332
336.295
336.243
336.178
336.103
336.02
335.934
335.85
335.781
330.467
330.524
330.595
330.668
330.738
330.802
330.857
330.901
330.932
330.948
330.948
330.932
330.901
330.857
330.802
330.738
330.668
330.595
330.524
330.467
325.059
325.105
325.163
325.222
325.28
325.332
325.377
325.413
325.439
325.452
325.452
325.439
325.413
325.377
325.332
325.28
325.222
325.163
325.105
325.059
319.574
319.61
319.655
319.701
319.746
319.786
319.822
319.85
319.87
319.88
319.88
319.87
319.85
319.822
319.786
319.746
319.701
319.655
319.61
319.574
314.031
314.056
314.088
314.121
314.153
314.182
314.207
314.227
314.241
314.249
314.249
314.241
314.227
314.207
314.182
314.153
314.121
314.088
314.056
314.031
308.445
308.46
308.479
308.499
308.518
308.536
308.551
308.563
308.571
308.576
308.576
308.571
308.563
308.551
308.536
308.518
308.499
308.479
308.46
308.445
302.834
302.839
302.845
302.852
302.858
302.864
302.869
302.873
302.876
302.878
302.878
302.876
302.873
302.869
302.864
302.858
302.852
302.845
302.839
302.834
342.558
342.633
342.723
342.814
342.901
342.981
343.049
343.103
343.141
343.16
343.16
343.141
343.103
343.049
342.981
342.901
342.814
342.723
342.633
342.558
337.128
337.192
337.27
337.349
337.424
337.493
337.552
337.6
337.633
337.649
337.649
337.633
337.6
337.552
337.493
337.424
337.349
337.27
337.192
337.128
331.594
331.647
331.712
331.779
331.843
331.902
331.952
331.992
332.02
332.034
332.034
332.02
331.992
331.952
331.902
331.843
331.779
331.712
331.647
331.594
325.972
326.014
326.068
326.123
326.176
326.224
326.265
326.298
326.321
326.332
326.332
326.321
326.298
326.265
326.224
326.176
326.123
326.068
326.014
325.972
320.279
320.312
320.353
320.396
320.437
320.475
320.507
320.532
320.55
320.559
320.559
320.55
320.532
320.507
320.475
320.437
320.396
320.353
320.312
320.279
314.531
314.554
314.584
314.615
314.644
314.671
314.694
314.712
314.725
314.732
314.732
314.725
314.712
314.694
314.671
314.644
314.615
314.584
314.554
314.531
308.744
308.758
308.776
308.794
308.812
308.828
308.842
308.853
308.861
308.865
308.865
308.861
308.853
308.842
308.828
308.812
308.794
308.776
308.758
308.744
302.934
302.938
302.944
302.951
302.957
302.962
302.967
302.97
302.973
302.974
302.974
302.973
302.97
302.967
302.962
302.957
302.951
302.944
302.938
302.934
343.775
343.845
343.93
344.016
344.097
344.171
344.234
344.285
344.32
344.338
344.338
344.32
344.285
344.234
344.171
344.097
344.016
343.93
343.845
343.775
338.131
338.191
338.264
338.338
338.409
338.474
338.529
338.573
338.604
338.619
338.619
338.604
338.573
338.529
338.474
338.409
338.338
338.264
338.191
338.131
332.407
332.457
332.519
332.583
332.643
332.698
332.745
332.782
332.808
332.822
332.822
332.808
332.782
332.745
332.698
332.643
332.583
332.519
332.457
332.407
326.615
326.656
326.707
326.759
326.808
326.853
326.892
326.923
326.944
326.955
326.955
326.944
326.923
326.892
326.853
326.808
326.759
326.707
326.656
326.615
320.767
320.798
320.837
320.878
320.916
320.952
320.982
321.006
321.023
321.031
321.031
321.023
321.006
320.982
320.952
320.916
320.878
320.837
320.798
320.767
314.873
314.895
314.923
314.952
314.98
315.005
315.027
315.044
315.056
315.062
315.062
315.056
315.044
315.027
315.005
314.98
314.952
314.923
314.895
314.873
308.947
308.96
308.977
308.994
309.011
309.026
309.039
309.05
309.057
309.061
309.061
309.057
309.05
309.039
309.026
309.011
308.994
308.977
308.96
308.947
303.001
303.006
303.011
303.017
303.023
303.028
303.032
303.036
303.038
303.039
303.039
303.038
303.036
303.032
303.028
303.023
303.017
303.011
303.006
303.001
)
;

boundaryField
{
    hotSide
    {
        type            fixedGradient;
        gradient        nonuniform List<scalar> 
400
(
251.008
251.984
253.939
256.878
260.805
265.73
271.661
278.607
286.58
295.589
305.644
316.754
328.928
342.173
356.496
371.903
388.398
405.985
424.668
444.449
253.784
254.738
256.65
259.526
263.373
268.202
274.025
280.855
288.704
297.586
307.513
318.495
330.545
343.669
357.877
373.175
389.567
407.058
425.652
445.349
256.788
257.716
259.577
262.378
266.13
270.846
276.543
283.237
290.944
299.681
309.462
320.301
332.212
345.203
359.285
374.463
390.745
408.133
426.632
446.243
259.971
260.869
262.67
265.384
269.026
273.614
279.167
285.707
293.254
301.828
311.449
322.131
333.891
346.739
360.686
375.739
391.904
409.186
427.587
447.108
263.243
264.107
265.84
268.458
271.977
276.422
281.817
288.189
295.563
303.963
313.412
323.929
335.531
348.23
362.038
376.963
393.011
410.186
428.489
447.922
266.469
267.295
268.957
271.472
274.862
279.156
284.385
290.582
297.776
305.998
315.273
325.624
337.068
349.62
363.292
378.093
394.027
411.098
429.309
448.659
269.463
270.252
271.843
274.255
277.516
281.662
286.729
292.756
299.778
307.829
316.939
327.132
338.428
350.844
364.391
379.078
394.909
411.887
430.015
449.291
272.003
272.76
274.286
276.606
279.753
283.766
288.69
294.567
301.438
309.341
318.308
328.366
339.537
351.837
365.279
379.87
395.615
412.518
430.577
449.792
273.863
274.594
276.071
278.32
281.38
285.293
290.108
295.873
302.631
310.423
319.285
329.244
340.323
352.539
365.904
380.426
396.11
412.957
430.968
450.14
274.848
275.566
277.016
279.227
282.239
286.098
290.854
296.558
303.256
310.989
319.794
329.7
340.731
352.902
366.227
380.713
396.365
413.184
431.169
450.318
274.848
275.566
277.016
279.227
282.239
286.098
290.854
296.558
303.256
310.989
319.794
329.7
340.731
352.902
366.227
380.713
396.365
413.184
431.169
450.318
273.863
274.594
276.071
278.32
281.38
285.293
290.108
295.873
302.631
310.423
319.285
329.244
340.323
352.539
365.904
380.426
396.11
412.957
430.968
450.14
272.003
272.76
274.286
276.606
279.753
283.766
288.69
294.567
301.438
309.341
318.308
328.366
339.537
351.837
365.279
379.87
395.615
412.518
430.577
449.792
269.463
270.252
271.843
274.255
277.516
281.662
286.729
292.756
299.778
307.829
316.939
327.132
338.428
350.844
364.391
379.078
394.909
411.887
430.015
449.291
266.469
267.295
268.957
271.472
274.862
279.156
284.385
290.582
297.776
305.998
315.273
325.624
337.068
349.62
363.292
378.093
394.027
411.098
429.309
448.659
263.243
264.107
265.84
268.458
271.977
276.422
281.817
288.189
295.563
303.963
313.412
323.929
335.531
348.23
362.038
376.963
393.011
410.186
428.489
447.922
259.971
260.869
262.67
265.384
269.026
273.614
279.167
285.707
293.254
301.828
311.449
322.131
333.891
346.739
360.686
375.739
391.904
409.186
427.587
447.108
256.788
257.716
259.577
262.378
266.13
270.846
276.543
283.237
290.944
299.681
309.462
320.301
332.212
345.203
359.285
374.463
390.745
408.133
426.632
446.243
253.784
254.738
256.65
259.526
263.373
268.202
274.025
280.855
288.704
297.586
307.513
318.495
330.545
343.669
357.877
373.175
389.567
407.058
425.652
445.349
251.008
251.984
253.939
256.878
260.805
265.73
271.661
278.607
286.58
295.589
305.644
316.754
328.928
342.173
356.496
371.903
388.398
405.985
424.668
444.449
)
;
    }
    coldSide
    {
        type            mixed;
        refValue        uniform 300;
        refGradient     uniform 0;
        valueFraction   uniform 0.991591;
        source          uniform 0;
        value           nonuniform List<scalar> 
400
(
300.015
300.015
300.015
300.015
300.015
300.016
300.016
300.016
300.017
300.017
300.018
300.019
300.019
300.02
300.021
300.022
300.023
300.024
300.025
300.025
300.015
300.015
300.015
300.015
300.016
300.016
300.016
300.017
300.017
300.018