/*--------------------------------*- C++ -*----------------------------------*\
| =========                 |                                                 |
| \\      /  F ield         | OpenFOAM: The Open Source CFD Toolbox           |
|  \\    /   O peration     | Version:  2212                                  |
|   \\  /    A nd           | Website:  www.openfoam.com                      |
|    \\/     M anipulation  |                                                 |
\*---------------------------------------------------------------------------*/
FoamFile
{
    version     2.0;
    format      ascii;
    arch        "LSB;label=32;scalar=64";
    class       volScalarField;
    location    "0";
    object      T;
}
// * * * * * * * * * * * * * * * * * * * * * * * * * * * * * * * * * * * * * //

dimensions      [0 0 0 1 0 0 0];

internalField   nonuniform List<scalar> 
3200
(
354.521
352.995
352.074
351.611
351.937
352.627
353.218
354.023
354.346
354.711
354.702
354.536
353.935
353.078
351.924
350.902
350.507
350.395
351.339
352.564
347.063
345.788
345.034
344.622
344.933
345.54
346.026
346.748
347.039
347.344
347.361
347.228
346.706
345.989
344.967
344.09
343.802
343.688
344.489
345.484
339.709
338.641
338.025
337.695
337.976
338.47
338.883
339.52
339.768
340.015
340.048
339.924
339.497
338.917
338.014
337.313
337.071
336.994
337.65
338.441
332.413
331.567
331.063
330.815
331.046
331.428
331.775
332.312
332.521
332.69
332.745
332.644
332.305
331.868
331.094
330.545
330.334
330.295
330.812
331.432
325.177
324.527
324.128
323.968
324.128
324.41
324.688
325.128
325.279
325.403
325.457
325.386
325.111
324.806
324.171
323.758
323.596
323.577
323.959
324.435
317.969
317.51
317.2
317.126
317.229
317.441
317.614
317.932
318.057
318.148
318.173
318.123
317.935
317.767
317.252
316.988
316.858
316.855
317.103
317.451
310.765
310.506
310.331
310.289
310.345
310.478
310.574
310.755
310.855
310.895
310.906
310.892
310.764
310.696
310.362
310.217
310.114
310.134
310.273
310.485
303.601
303.519
303.469
303.458
303.473
303.51
303.546
303.61
303.637
303.658
303.662
303.652
303.608
303.58
303.486
303.439
303.395
303.401
303.445
303.523
354.591
353.159
352.177
351.811
352.197
352.9
353.65
354.492
355.051
355.447
355.458
355.176
354.568
353.511
352.538
351.425
350.901
350.796
351.54
352.789
347.145
345.958
345.138
344.822
345.148
345.774
346.398
347.14
347.627
347.965
347.98
347.756
347.226
346.322
345.501
344.555
344.12
344.041
344.686
345.704
339.757
338.816
338.138
337.881
338.126
338.684
339.195
339.828
340.242
340.495
340.543
340.367
339.923
339.163
338.475
337.686
337.34
337.28
337.828
338.647
332.445
331.718
331.19
330.942
331.146
331.61
332.044
332.551
332.885
333.06
333.143
332.998
332.645
332.025
331.442
330.84
330.555
330.514
330.97
331.6
325.199
324.649
324.254
324.063
324.203
324.6
324.897
325.297
325.544
325.703
325.767
325.677
325.378
324.927
324.433
324.007
323.776
323.746
324.095
324.569
317.993
317.609
317.31
317.2
317.277
317.599
317.77
318.061
318.243
318.359
318.393
318.345
318.121
317.816
317.466
317.167
316.988
316.974
317.203
317.561
310.81
310.585
310.392
310.321
310.378
310.581
310.671
310.856
310.944
311.013
311.044
311.009
310.875
310.712
310.492
310.319
310.205
310.191
310.297
310.551
303.625
303.553
303.485
303.459
303.468
303.547
303.571
303.637
303.672
303.681
303.702
303.691
303.653
303.6
303.52
303.471
303.427
303.415
303.461
303.543
355.046
353.54
352.628
352.491
352.744
353.429
354.357
355.286
355.926
356.491
356.611
356.261
355.448
354.428
353.241
352.145
351.512
351.35
351.947
353.271
347.55
346.279
345.538
345.392
345.613
346.23
347.027
347.813
348.372
348.868
348.981
348.688
347.969
347.097
346.102
345.154
344.647
344.509
345.027
346.099
340.122
339.074
338.486
338.315
338.544
339.058
339.749
340.395
340.875
341.276
341.4
341.164
340.536
339.803
338.985
338.154
337.78
337.682
338.09
338.979
332.751
331.909
331.455
331.291
331.494
331.9
332.476
333.022
333.397
333.708
333.851
333.683
333.148
332.546
331.891
331.201
330.937
330.858
331.185
331.869
325.42
324.761
324.446
324.297
324.462
324.804
325.234
325.657
325.982
326.189
326.309
326.189
325.792
325.293
324.789
324.29
324.086
324.006
324.27
324.776
318.145
317.66
317.46
317.333
317.483
317.705
318.003
318.318
318.573
318.685
318.777
318.707
318.435
318.07
317.703
317.367
317.216
317.178
317.339
317.719
310.895
310.592
310.483
310.398
310.501
310.627
310.809
310.993
311.162
311.221
311.266
311.229
311.073
310.842
310.623
310.438
310.361
310.333
310.404
310.646
303.652
303.549
303.513
303.486
303.513
303.563
303.621
303.682
303.754
303.75
303.775
303.765
303.714
303.639
303.547
303.493
303.47
303.463
303.479
303.567
355.772
354.374
353.513
353.334
353.597
354.351
355.334
356.399
357.11
357.758
357.865
357.555
356.743
355.632
354.371
353.254
352.6
352.312
352.906
354.041
348.161
347.007
346.305
346.139
346.354
347.004
347.851
348.793
349.405
349.944
350.046
349.805
349.083
348.149
347.071
346.136
345.589
345.348
345.829
346.778
340.635
339.691
339.128
338.977
339.154
339.702
340.389
341.196
341.742
342.194
342.287
342.109
341.469
340.682
339.782
339.023
338.582
338.368
338.75
339.551
333.161
332.463
331.97
331.863
331.974
332.441
332.994
333.657
334.125
334.473
334.558
334.429
333.891
333.246
332.546
331.92
331.565
331.387
331.706
332.339
325.746
325.251
324.841
324.733
324.832
325.205
325.658
326.155
326.52
326.785
326.883
326.766
326.333
325.837
325.306
324.817
324.549
324.408
324.662
325.142
318.384
318.037
317.743
317.641
317.735
317.989
318.319
318.683
318.94
319.115
319.199
319.121
318.802
318.477
318.09
317.727
317.533
317.427
317.633
317.946
311.043
310.831
310.641
310.583
310.654
310.781
311
311.214
311.372
311.458
311.52
311.473
311.289
311.11
310.875
310.647
310.531
310.475
310.584
310.761
303.702
303.619
303.565
303.537
303.573
303.608
303.692
303.756
303.813
303.836
303.863
303.852
303.791
303.722
303.644
303.572
303.533
303.501
303.545
303.605
356.62
355.419
354.546
354.381
354.638
355.513
356.569
357.68
358.438
359.128
359.3
359.031
358.209
356.988
355.782
354.607
353.764
353.546
354.086
355.014
348.886
347.9
347.186
347.027
347.254
348.002
348.911
349.893
350.549
351.164
351.318
351.081
350.367
349.322
348.313
347.277
346.589
346.41
346.871
347.631
341.265
340.411
339.87
339.738
339.891
340.533
341.3
342.129
342.725
343.235
343.364
343.17
342.555
341.692
340.865
339.976
339.422
339.29
339.655
340.282
333.683
333.014
332.592
332.472
332.582
333.113
333.729
334.411
334.916
335.355
335.444
335.272
334.788
334.109
333.407
332.687
332.26
332.172
332.446
332.927
326.172
325.662
325.333
325.206
325.322
325.751
326.19
326.737
327.146
327.505
327.557
327.399
327.046
326.536
325.987
325.423
325.089
325.037
325.234
325.565
318.693
318.328
318.097
317.99
318.076
318.397
318.71
319.082
319.391
319.643
319.703
319.581
319.313
318.975
318.577
318.134
317.914
317.888
318.019
318.26
311.22
311.007
310.853
310.799
310.832
311.058
311.241
311.453
311.654
311.801
311.846
311.766
311.597
311.403
311.168
310.89
310.738
310.738
310.824
310.968
303.76
303.684
303.625
303.63
303.629
303.702
303.767
303.832
303.901
303.954
303.973
303.943
303.889
303.833
303.754
303.642
303.599
303.604
303.623
303.679
357.814
356.664
355.782
355.566
355.955
356.715
357.887
358.973
359.873
360.558
360.861
360.625
359.802
358.61
357.315
356.054
355.302
355.056
355.535
356.45
349.944
349.001
348.232
348.032
348.38
349.065
350.076
351.012
351.779
352.393
352.625
352.445
351.748
350.721
349.62
348.55
347.897
347.69
348.129
348.86
342.164
341.381
340.756
340.575
340.853
341.469
342.293
343.1
343.74
344.26
344.431
344.308
343.723
342.848
341.96
341.064
340.527
340.312
340.724
341.323
334.425
333.815
333.33
333.133
333.354
333.92
334.556
335.216
335.738
336.16
336.3
336.202
335.726
335.014
334.314
333.575
333.148
332.946
333.311
333.808
326.743
326.247
325.939
325.742
325.907
326.369
326.858
327.363
327.764
328.111
328.195
328.142
327.754
327.215
326.687
326.108
325.787
325.607
325.893
326.274
319.093
318.731
318.536
318.375
318.491
318.836
319.17
319.529
319.83
320.095
320.139
320.105
319.815
319.465
319.076
318.659
318.43
318.296
318.487
318.774
311.437
311.237
311.143
311.032
311.105
311.307
311.52
311.729
311.897
312.074
312.081
312.084
311.896
311.695
311.453
311.211
311.069
310.972
311.087
311.255
303.826
303.769
303.744
303.695
303.725
303.797
303.87
303.928
303.98
304.037
304.048
304.054
303.983
303.921
303.84
303.76
303.704
303.674
303.709
303.759
359.051
358.022
357.181
357.023
357.396
358.228
359.297
360.424
361.386
362.099
362.505
362.312
361.543
360.384
358.902
357.76
356.935
356.692
357.094
357.995
350.994
350.168
349.421
349.324
349.64
350.347
351.292
352.249
353.093
353.694
354.061
353.883
353.25
352.225
350.957
350.015
349.312
349.092
349.433
350.188
343.014
342.363
341.739
341.667
341.919
342.512
343.338
344.116
344.838
345.358
345.678
345.506
344.995
344.105
343.061
342.293
341.705
341.519
341.817
342.419
335.088
334.606
334.073
334.04
334.241
334.746
335.419
336.052
336.613
337.055
337.311
337.178
336.759
336.04
335.189
334.589
334.11
333.955
334.233
334.699
327.219
326.891
326.467
326.434
326.599
327.008
327.529
328.028
328.451
328.803
328.985
328.882
328.561
328.008
327.353
326.885
326.537
326.389
326.643
326.981
319.428
319.185
318.888
318.867
318.99
319.286
319.675
320.026
320.296
320.563
320.676
320.621
320.381
320.006
319.523
319.197
318.973
318.837
319.051
319.274
311.644
311.507
311.332
311.327
311.39
311.572
311.828
312.03
312.181
312.339
312.41
312.39
312.231
312.009
311.709
311.524
311.399
311.322
311.435
311.566
303.893
303.856
303.796
303.8
303.814
303.878
303.963
304.027
304.082
304.125
304.16
304.154
304.101
304.028
303.92
303.857
303.829
303.792
303.828
303.872
360.505
359.47
358.669
358.55
359.028
359.678
360.813
361.919
362.913
363.804
364.228
363.937
363.275
362.131
360.679
359.521
358.789
358.404
358.92
359.738
352.232
351.405
350.702
350.625
351.033
351.582
352.592
353.532
354.409
355.185
355.562
355.293
354.723
353.762
352.526
351.514
350.899
350.561
351.019
351.685
344.06
343.397
342.803
342.775
343.088
343.56
344.427
345.207
345.951
346.629
346.946
346.698
346.241
345.419
344.409
343.543
343.029
342.739
343.137
343.666
335.95
335.452
334.926
334.964
335.192
335.584
336.325
336.918
337.551
338.087
338.354
338.112
337.792
337.098
336.301
335.603
335.167
334.935
335.277
335.705
327.897
327.527
327.103
327.18
327.335
327.631
328.23
328.703
329.163
329.604
329.802
329.584
329.371
328.833
328.233
327.685
327.327
327.145
327.448
327.771
319.899
319.643
319.321
319.424
319.5
319.722
320.153
320.503
320.814
321.143
321.29
321.108
320.965
320.591
320.163
319.76
319.504
319.408
319.63
319.865
311.944
311.79
311.587
311.661
311.689
311.845
312.092
312.312
312.507
312.707
312.794
312.66
312.579
312.354
312.098
311.86
311.712
311.65
311.795
311.933
304.005
303.951
303.878
303.895
303.925
303.969
304.051
304.116
304.184
304.255
304.298
304.245
304.217
304.141
304.048
303.981
303.931
303.888
303.973
303.995
362.041
360.949
360.289
360.202
360.52
361.241
362.312
363.526
364.565
365.407
365.774
365.581
365.006
363.823
362.497
361.314
360.675
360.332
360.862
361.64
353.582
352.67
352.102
352.058
352.343
352.948
353.876
354.924
355.82
356.539
356.878
356.708
356.223
355.227
354.087
353.09
352.542
352.221
352.708
353.343
345.226
344.461
343.978
343.964
344.199
344.716
345.497
346.377
347.143
347.722
348.035
347.906
347.485
346.679
345.706
344.871
344.395
344.142
344.567
345.088
336.927
336.304
335.914
335.895
336.116
336.523
337.152
337.882
338.529
338.978
339.245
339.129
338.775
338.164
337.354
336.693
336.262
336.096
336.43
336.855
328.678
328.189
327.904
327.882
328.069
328.379
328.849
329.431
329.926
330.265
330.497
330.406
330.131
329.666
329.025
328.541
328.193
328.053
328.332
328.639
320.477
320.133
319.912
319.907
320.041
320.267
320.579
321.003
321.371
321.582
321.77
321.702
321.508
321.186
320.711
320.406
320.143
320.048
320.243
320.451
312.291
312.081
311.944
311.952
312.033
312.172
312.325
312.608
312.826
312.926
313.069
313.039
312.899
312.731
312.425
312.258
312.095
312.054
312.161
312.268
304.123
304.046
303.996
304.006
304.023
304.078
304.118
304.233
304.3
304.325
304.375
304.373
304.326
304.275
304.154
304.108
304.058
304.043
304.073
304.113
363.637
362.616
361.977
361.791
362.159
362.807
363.732
364.896
365.996
366.941
367.452
367.256
366.404
365.464
364.314
363.083
362.593
362.266
362.813
363.537
354.96
354.118
353.559
353.407
353.745
354.304
355.121
356.095
357.065
357.894
358.317
358.139
357.433
356.642
355.648
354.611
354.188
353.911
354.387
354.961
346.335
345.662
345.215
345.102
345.386
345.862
346.564
347.375
348.196
348.866
349.243
349.1
348.505
347.86
347.043
346.185
345.821
345.595
345.994
346.423
337.78
337.279
336.958
336.84
337.066
337.454
338.029
338.693
339.375
339.883
340.204
340.124
339.617
339.112
338.469
337.757
337.471
337.28
337.621
337.917
329.33
328.963
328.708
328.62
328.8
329.073
329.568
330.066
330.578
330.953
331.232
331.156
330.801
330.377
329.893
329.347
329.156
329.02
329.266
329.464
320.912
320.663
320.487
320.434
320.569
320.746
321.101
321.473
321.825
322.072
322.286
322.234
321.975
321.699
321.341
320.971
320.842
320.737
320.915
321.034
312.542
312.385
312.287
312.246
312.356
312.467
312.661
312.901
313.104
313.239
313.382
313.356
313.19
313.026
312.816
312.611
312.525
312.461
312.565
312.636
304.198
304.14
304.114
304.104
304.137
304.176
304.24
304.329
304.385
304.438
304.484
304.476
304.423
304.364
304.294
304.227
304.204
304.175
304.21
304.232
365.304
364.401
363.725
363.462
363.853
364.408
365.26
366.367
367.542
368.441
368.883
368.677
368.063
367.13
365.972
364.938
364.421
364.237
364.705
365.328
356.345
355.635
355.06
354.856
355.199
355.684
356.405
357.362
358.391
359.17
359.558
359.393
358.867
358.065
357.094
356.217
355.763
355.628
356.036
356.534
347.49
346.96
346.472
346.311
346.621
347.027
347.644
348.426
349.299
349.951
350.288
350.141
349.73
349.059
348.25
347.521
347.137
347.034
347.418
347.774
338.727
338.358
337.957
337.827
338.084
338.419
338.903
339.537
340.252
340.774
341.096
340.969
340.632
340.091
339.438
338.845
338.543
338.476
338.797
339.065
330.024
329.798
329.472
329.408
329.592
329.853
330.231
330.706
331.266
331.654
331.941
331.84
331.551
331.166
330.656
330.194
329.975
329.928
330.175
330.375
321.414
321.281
321.029
321.004
321.133
321.328
321.619
321.916
322.318
322.575
322.788
322.752
322.494
322.261
321.9
321.572
321.413
321.367
321.56
321.705
312.836
312.792
312.628
312.607
312.679
312.807
313.016
313.15
313.391
313.552
313.67
313.667
313.5
313.354
313.139
312.948
312.849
312.834
312.938
313.03
304.301
304.286
304.233
304.219
304.242
304.291
304.365
304.407
304.495
304.537
304.579
304.59
304.535
304.483
304.396
304.334
304.291
304.297
304.324
304.372
366.884
366.078
365.536
365.167
365.509
366.016
366.918
368.004
369.079
369.917
370.317
370.063
369.524
368.692
367.66
366.899
366.261
366.188
366.69
367.37
357.724
357.077
356.613
356.306
356.636
357.073
357.835
358.798
359.713
360.437
360.789
360.585
360.139
359.451
358.561
357.905
357.373
357.308
357.757
358.28
348.675
348.16
347.754
347.536
347.809
348.183
348.834
349.653
350.424
351.036
351.321
351.136
350.815
350.256
349.49
348.939
348.511
348.436
348.827
349.229
339.701
339.319
338.99
338.824
339.03
339.337
339.887
340.569
341.174
341.695
341.934
341.771
341.525
341.08
340.469
340.009
339.669
339.603
339.925
340.235
330.802
330.535
330.279
330.152
330.312
330.565
330.988
331.531
331.988
332.386
332.599
332.46
332.265
331.939
331.482
331.115
330.85
330.783
331.035
331.274
321.954
321.778
321.605
321.549
321.635
321.838
322.132
322.506
322.837
323.11
323.274
323.182
323.026
322.822
322.492
322.248
322.024
321.985
322.178
322.333
313.157
313.065
312.967
312.936
312.973
313.11
313.29
313.499
313.718
313.872
313.964
313.938
313.828
313.7
313.505
313.37
313.211
313.208
313.32
313.398
304.412
304.374
304.34
304.333
304.34
304.405
304.456
304.526
304.604
304.645
304.678
304.678
304.634
304.591
304.518
304.478
304.416
304.422
304.457
304.485
368.685
367.932
367.313
367.034
367.252
367.804
368.529
369.516
370.489
371.148
371.564
371.411
371.017
370.23
369.328
368.623
368.234
368.194
368.605
369.287
359.302
358.683
358.165
357.951
358.138
358.612
359.236
360.101
360.957
361.516
361.874
361.762
361.428
360.766
360.006
359.356
359.067
359.021
359.371
359.948
350.031
349.521
349.108
348.949
349.076
349.512
350.012
350.746
351.479
351.949
352.231
352.145
351.889
351.333
350.691
350.141
349.945
349.88
350.201
350.664
340.829
340.435
340.119
339.994
340.083
340.452
340.839
341.465
342.054
342.461
342.665
342.584
342.393
341.931
341.438
340.977
340.834
340.78
341.047
341.408
331.678
331.381
331.153
331.098
331.139
331.416
331.709
332.227
332.668
332.984
333.155
333.095
332.937
332.585
332.212
331.843
331.733
331.693
331.903
332.188
322.582
322.361
322.236
322.223
322.232
322.415
322.611
323.029
323.325
323.552
323.664
323.637
323.505
323.269
323.012
322.756
322.66
322.649
322.811
322.998
313.53
313.411
313.353
313.356
313.346
313.45
313.568
313.84
313.998
314.124
314.201
314.192
314.103
313.972
313.803
313.672
313.599
313.614
313.691
313.806
304.535
304.497
304.473
304.483
304.475
304.51
304.549
304.645
304.694
304.724
304.763
304.765
304.727
304.683
304.633
304.593
304.553
304.573
304.585
304.632
370.574
369.758
369.086
368.837
369.008
369.482
370.05
370.992
371.842
372.415
372.641
372.669
372.236
371.681
370.893
370.271
370.17
370.108
370.696
371.196
360.921
360.298
359.715
359.496
359.649
360.083
360.537
361.382
362.116
362.62
362.811
362.837
362.482
362.019
361.335
360.82
360.761
360.701
361.213
361.609
351.397
350.909
350.427
350.213
350.355
350.75
351.101
351.843
352.458
352.894
353.028
353.086
352.798
352.385
351.812
351.389
351.38
351.322
351.739
352.07
341.971
341.575
341.173
341.012
341.135
341.459
341.745
342.385
342.846
343.209
343.344
343.382
343.144
342.805
342.35
342.017
342.016
341.979
342.318
342.55
332.61
332.295
331.946
331.862
331.952
332.216
332.454
332.949
333.299
333.578
333.688
333.725
333.547
333.257
332.918
332.655
332.675
332.64
332.916
333.081
323.281
323.046
322.788
322.761
322.812
322.972
323.178
323.515
323.777
323.972
324.045
324.106
323.976
323.756
323.507
323.311
323.357
323.306
323.521
323.641
313.975
313.813
313.661
313.678
313.695
313.784
313.926
314.119
314.261
314.401
314.441
314.473
314.394
314.261
314.125
314.009
314.039
313.996
314.123
314.206
304.685
304.618
304.574
304.585
304.598
304.618
304.667
304.731
304.781
304.83
304.842
304.839
304.819
304.782
304.742
304.695
304.713
304.689
304.742
304.759
372.435
371.619
370.921
370.531
370.666
371.203
371.592
372.371
373.224
373.783
374.006
374.057
373.658
373.154
372.628
372.085
371.865
371.946
372.541
373.083
362.535
361.89
361.28
360.946
361.098
361.552
361.904
362.577
363.28
363.797
363.996
364.047
363.696
363.291
362.843
362.379
362.19
362.279
362.789
363.205
352.743
352.229
351.705
351.423
351.587
351.963
352.286
352.854
353.427
353.866
354.046
354.099
353.81
353.479
353.098
352.709
352.577
352.634
353.078
353.406
343.031
342.616
342.208
341.975
342.109
342.445
342.705
343.179
343.638
344.016
344.168
344.236
343.988
343.716
343.387
343.051
342.978
343.036
343.386
343.645
333.397
333.086
332.759
332.599
332.683
332.971
333.202
333.58
333.9
334.209
334.322
334.382
334.185
333.971
333.706
333.461
333.408
333.468
333.75
333.917
323.813
323.626
323.379
323.271
323.326
323.551
323.714
323.979
324.199
324.433
324.522
324.567
324.411
324.253
324.068
323.91
323.85
323.91
324.109
324.205
314.293
314.196
314.029
313.973
314.01
314.154
314.231
314.395
314.533
314.68
314.73
314.749
314.653
314.558
314.442
314.358
314.323
314.356
314.461
314.525
304.787
304.759
304.707
304.681
304.706
304.743
304.772
304.815
304.874
304.93
304.942
304.95
304.911
304.878
304.843
304.801
304.81
304.822
304.835
304.86
374.273
373.366
372.676
372.292
372.349
372.676
373.264
373.963
374.604
375.157
375.317
375.432
375.15
374.701
374.205
373.763
373.646
373.815
374.474
375.086
364.106
363.367
362.774
362.465
362.528
362.81
363.321
363.953
364.498
365
365.135
365.235
365.007
364.612
364.21
363.844
363.717
363.89
364.474
364.959
354.049
353.485
352.972
352.726
352.791
353.023
353.453
354.002
354.467
354.892
355.003
355.088
354.904
354.587
354.26
353.958
353.83
353.987
354.5
354.874
344.081
343.667
343.23
343.033
343.107
343.29
343.69
344.12
344.494
344.841
344.942
344.991
344.852
344.605
344.341
344.092
343.992
344.127
344.559
344.841
334.194
333.896
333.554
333.393
333.493
333.621
333.96
334.27
334.557
334.846
334.937
334.955
334.838
334.675
334.456
334.265
334.175
334.303
334.632
334.846
324.379
324.191
323.953
323.815
323.91
323.986
324.247
324.457
324.66
324.876
324.939
324.965
324.875
324.779
324.588
324.478
324.373
324.502
324.732
324.883
314.629
314.507
314.382
314.308
314.354
314.383
314.563
314.68
314.812
314.948
314.969
314.988
314.923
314.867
314.751
314.693
314.628
314.724
314.845
314.94
304.895
304.855
304.826
304.793
304.811
304.821
304.897
304.919
304.964
305.005
305.011
305.024
304.999
304.988
304.952
304.914
304.898
304.939
304.972
305.003
376.069
375.156
374.463
373.992
374.009
374.292
374.851
375.475
376.074
376.322
376.53
376.718
376.523
376.163
375.797
375.572
375.334
375.637
376.305
377.007
365.675
364.916
364.337
363.928
363.962
364.219
364.693
365.265
365.771
365.995
366.175
366.346
366.199
365.897
365.597
365.375
365.157
365.432
366.029
366.6
355.383
354.779
354.283
353.932
354.004
354.21
354.632
355.119
355.535
355.742
355.862
356.029
355.928
355.68
355.424
355.219
355.045
355.273
355.792
356.273
345.199
344.72
344.313
344.027
344.123
344.256
344.616
345.029
345.369
345.567
345.64
345.782
345.714
345.535
345.283
345.104
344.987
345.166
345.621
345.983
335.093
334.713
334.409
334.175
334.277
334.377
334.666
334.985
335.252
335.422
335.45
335.558
335.525
335.418
335.202
335.044
334.975
335.091
335.455
335.746
325.05
324.772
324.553
324.386
324.482
324.545
324.766
324.974
325.157
325.308
325.308
325.391
325.35
325.301
325.141
325.03
324.968
325.064
325.324
325.538
315.049
314.877
314.719
314.643
314.697
314.736
314.865
314.99
315.087
315.192
315.185
315.241
315.218
315.193
315.087
315.021
314.998
315.056
315.216
315.337
305.054
304.989
304.933
304.898
304.922
304.939
304.99
305.023
305.055
305.092
305.086
305.103
305.092
305.095
305.051
305.032
305.025
305.044
305.101
305.15
377.854
377.015
376.284
375.695
375.739
375.952
376.321
376.909
377.364
377.562
377.752
378.019
377.859
377.709
377.303
377.159
377.161
377.487
378.189
378.869
367.193
366.508
365.905
365.391
365.427
365.625
365.958
366.495
366.879
367.045
367.227
367.479
367.359
367.226
366.872
366.763
366.753
367.027
367.651
368.201
356.648
356.102
355.607
355.185
355.197
355.379
355.698
356.114
356.498
356.613
356.76
356.988
356.9
356.796
356.491
356.418
356.397
356.629
357.168
357.615
346.225
345.766
345.388
345.075
345.057
345.206
345.494
345.814
346.164
346.254
346.341
346.574
346.472
346.413
346.145
346.127
346.078
346.267
346.712
347.074
335.886
335.528
335.252
334.999
334.977
335.089
335.336
335.573
335.875
335.936
335.994
336.194
336.094
336.055
335.863
335.851
335.806
335.951
336.297
336.582
325.614
325.344
325.168
324.968
324.953
325.041
325.222
325.382
325.621
325.653
325.693
325.841
325.764
325.74
325.607
325.618
325.558
325.68
325.919
326.118
315.36
315.208
315.101
315
314.963
315.019
315.133
315.226
315.389
315.395
315.426
315.505
315.451
315.437
315.373
315.38
315.341
315.423
315.556
315.664
305.136
305.096
305.061
305.022
305.019
305.032
305.074
305.097
305.157
305.155
305.168
305.203
305.168
305.17
305.156
305.161
305.136
305.171
305.217
305.252
379.624
378.77
377.913
377.448
377.135
377.472
377.825
378.217
378.6
378.929
379.082
379.173
379.175
379.043
378.841
378.721
378.751
379.151
379.921
380.695
368.718
368.043
367.302
366.887
366.623
366.925
367.237
367.601
367.941
368.222
368.345
368.417
368.458
368.346
368.199
368.061
368.107
368.466
369.125
369.771
357.909
357.413
356.781
356.426
356.193
356.462
356.759
357.068
357.358
357.613
357.688
357.761
357.82
357.729
357.607
357.477
357.536
357.853
358.378
358.901
347.219
346.862
346.35
346.048
345.856
346.097
346.358
346.602
346.839
347.059
347.081
347.183
347.227
347.166
347.048
346.977
347.013
347.27
347.689
348.112
336.64
336.398
335.968
335.731
335.614
335.802
336.013
336.206
336.362
336.571
336.554
336.628
336.701
336.64
336.545
336.507
336.516
336.706
337.05
337.389
326.124
325.98
325.662
325.478
325.407
325.557
325.698
325.841
325.963
326.101
326.114
326.134
326.205
326.141
326.102
326.059
326.085
326.19
326.458
326.695
315.65
315.6
315.403
315.284
315.244
315.339
315.412
315.507
315.584
315.669
315.676
315.669
315.717
315.669
315.667
315.641
315.663
315.722
315.887
316.024
305.241
305.225
305.166
305.127
305.11
305.145
305.163
305.195
305.224
305.257
305.25
305.245
305.272
305.244
305.25
305.243
305.25
305.265
305.33
305.366
381.081
380.104
379.195
378.717
378.431
378.601
378.828
379.296
379.603
379.971
379.984
380.094
380.025
380.029
379.898
379.992
380.14
380.419
381.163
381.986
369.933
369.121
368.319
367.927
367.668
367.819
368.057
368.473
368.742
369.097
369.074
369.189
369.141
369.166
369.043
369.1
369.242
369.501
370.157
370.843
358.937
358.261
357.598
357.272
357.052
357.159
357.412
357.751
357.977
358.319
358.269
358.378
358.364
358.4
358.293
358.337
358.452
358.665
359.212
359.824
348.079
347.544
347.001
346.732
346.547
346.616
346.869
347.126
347.325
347.608
347.559
347.666
347.664
347.725
347.619
347.637
347.738
347.931
348.334
348.866
337.309
336.895
336.465
336.246
336.137
336.176
336.407
336.571
336.749
336.976
336.919
337.002
337.038
337.074
337.007
336.991
337.086
337.237
337.54
337.966
326.629
326.319
326.01
325.871
325.785
325.829
325.989
326.092
326.231
326.387
326.339
326.405
326.448
326.462
326.413
326.395
326.477
326.569
326.77
327.092
315.975
315.787
315.61
315.533
315.474
315.513
315.6
315.651
315.732
315.833
315.813
315.859
315.868
315.886
315.855
315.857
315.875
315.921
316.067
316.27
305.349
305.287
305.23
305.214
305.184
305.203
305.207
305.243
305.278
305.298
305.304
305.305
305.324
305.322
305.311
305.315
305.313
305.336
305.383
305.447
)
;

boundaryField
{
    hotSide
    {
        type            fixedGradient;
        gradient        nonuniform List<scalar> 
400
(
603.014
603.534
607.466
614.718
624.952
637.681
652.385
668.589
685.904
704.025
722.732
741.871
761.346
781.11
801.159
821.522
842.255
863.421
885.073
907.233
580.133
580.995
585.507
593.556
604.73
618.452
634.124
651.22
669.318
688.101
707.345
726.899
746.673
766.634
786.791
807.192
827.915
849.048
870.665
892.802
566.664
568.212
573.368
582.005
593.712
607.913
624.011
641.474
659.874
678.888
698.287
717.92
737.702
757.605
777.648
797.888
818.413
839.32
860.69
882.568
562.002
564.558
570.437
579.509
591.417
605.665
621.718
639.084
657.349
676.192
695.381
714.765
734.259
753.841
773.534
793.399
813.523
833.999
854.907
876.293
563.803
567.558
574.276
583.815
595.876
610.05
625.882
642.934
660.822
679.236
697.948
716.813
735.752
754.752
773.844
793.095
812.59
832.419
852.656
873.355
569.392
574.434
582.122
592.298
604.693
618.95
634.67
651.454
668.943
686.843
704.938
723.097
741.264
759.445
777.694
796.093
814.736
833.715
853.109
872.976
576.552
582.902
591.678
602.7
615.7
630.334
646.213
662.948
680.179
697.617
715.061
732.409
749.643
766.814
784.018
801.368
818.983
836.966
855.403
874.356
583.56
591.177
601.105
613.144
627.008
642.33
658.695
675.675
692.876
709.988
726.823
743.317
759.521
775.558
791.59
807.781
824.28
841.211
858.667
876.711
589.04
597.783
608.821
621.938
636.82
653.066
670.199
687.71
705.129
722.093
738.413
754.086
769.255
784.148
799.012
814.071
829.511
845.469
862.042
879.289
591.88
601.473
613.413
627.477
643.335
660.543
678.557
696.768
714.595
731.596
747.572
762.588
776.899
790.849
804.769
818.939
833.568
848.802
864.735
881.418
591.287
601.304
613.75
628.4
644.916
662.827
681.539
700.368
718.641
735.849
751.777
766.537
780.467
793.985
807.478
821.255
835.535
850.468
866.142
882.605
586.922
596.838
609.265
623.979
640.634
658.747
677.713
696.837
715.439
732.999
749.295
764.425
778.712
792.566
806.366
820.421
834.951
850.108
865.984
882.63
579.025
588.32
600.22
614.499
630.804
648.657
667.471
686.6
705.43
723.49
740.548
756.634
771.974
786.884
801.685
816.654
832.002
847.884
864.401
881.614
568.456
576.715
587.726
601.266
616.981
634.395
652.951
672.062
691.183
709.895
727.955
745.314
762.079
778.453
794.67
810.955
827.501
844.458
861.938
880.011
556.667
563.624
573.576
586.313
601.469
618.557
637.021
656.298
675.882
695.373
714.516
733.199
751.439
769.343
787.067
804.785
822.663
840.844
859.442
878.534
545.717
551.248
560.128
572.159
586.946
603.948
622.567
642.22
662.401
682.711
702.88
722.761
742.313
761.582
780.67
799.709
818.844
838.21
857.92
878.052
538.349
542.468
550.349
561.81
576.392
593.465
612.353
632.429
653.17
674.176
695.17
715.988
736.562
756.9
777.072
797.183
817.363
837.74
858.428
879.503
537.884
540.771
547.753
558.657
572.967
589.968
608.918
629.16
650.163
671.531
692.991
714.372
735.593
756.641
777.559
798.436
819.386
840.533
861.986
883.813
547.271
549.283
555.446
565.605
579.248
595.666
614.123
633.974
654.703
675.926
697.372
718.869
740.32
761.695
783.017
804.352
825.794
847.449
869.413
891.741
567.396
568.933
574.345
583.507
595.998
611.217
628.528
647.352
667.212
687.743
708.677
729.834
751.106
772.44
793.837
815.333
836.994
858.896
881.106
903.664
)
;
    }
    coldSide
    {
        type            mixed;
        refValue        uniform 300;
        refGradient     uniform 0;
        valueFraction   uniform 0.991591;
        source          uniform 0;
        value           nonuniform List<scalar> 
400
(
300.03
300.03
300.031
300.031
300.032
300.032
300.033
300.034
300.035
300.035
300.036
300.037
300.038
300.039
300.04
300.041
300.043
300.043
300.044
300.045
300.03
300.03
300.03
300.03
300.031
300.032
300.032
300.033
300.034
300.035
300.036
300.037
300.038
300.039
300.04
300.041
300.042