/*--------------------------------*- C++ -*----------------------------------*\
| =========                 |                                                 |
| \\      /  F ield         | OpenFOAM: The Open Source CFD Toolbox           |
|  \\    /   O peration     | Version:  2212                                  |
|   \\  /    A nd           | Website:  www.openfoam.com                      |
|    \\/     M anipulation  |                                                 |
\*---------------------------------------------------------------------------*/
FoamFile
{
    version     2.0;
    format      ascii;
    arch        "LSB;label=32;scalar=64";
    class       volScalarField;
    location    "0";
    object      T;
}
// * * * * * * * * * * * * * * * * * * * * * * * * * * * * * * * * * * * * * //

dimensions      [0 0 0 1 0 0 0];

internalField   nonuniform List<scalar> 
3200
(
349.337
348.163
347.318
346.97
347.294
347.86
348.561
349.215
349.628
349.926
349.867
349.288
348.522
347.468
346.539
345.403
344.56
344.28
344.709
345.72
342.794
341.813
341.065
340.794
341.041
341.575
342.14
342.729
343.095
343.339
343.291
342.778
342.138
341.241
340.466
339.486
338.758
338.524
338.909
339.762
336.238
335.428
334.788
334.593
334.778
335.265
335.699
336.214
336.532
336.735
336.694
336.24
335.728
334.979
334.345
333.502
332.887
332.699
333.065
333.757
329.666
329.026
328.485
328.359
328.508
328.882
329.257
329.673
329.938
330.107
330.062
329.684
329.274
328.678
328.192
327.485
326.952
326.842
327.154
327.698
323.071
322.584
322.176
322.074
322.185
322.483
322.78
323.134
323.31
323.434
323.397
323.093
322.794
322.331
322.012
321.449
321.006
320.945
321.172
321.591
316.481
316.139
315.866
315.788
315.841
316.069
316.291
316.569
316.67
316.734
316.725
316.492
316.306
315.974
315.805
315.328
315.045
314.985
315.149
315.436
309.901
309.71
309.544
309.478
309.507
309.649
309.785
309.952
310.012
310.039
310.04
309.897
309.792
309.609
309.528
309.222
309.046
309.015
309.1
309.274
303.321
303.26
303.213
303.183
303.186
303.241
303.279
303.333
303.345
303.369
303.369
303.317
303.283
303.224
303.202
303.096
303.016
303.021
303.058
303.101
349.417
348.24
347.426
347.318
347.611
348.294
348.967
349.783
350.171
350.484
350.488
349.997
349.21
348.169
347.055
345.856
344.941
344.582
344.921
345.947
342.859
341.884
341.2
341.1
341.33
341.929
342.499
343.195
343.543
343.811
343.826
343.387
342.718
341.837
340.891
339.884
339.112
338.806
339.099
339.959
336.269
335.498
334.912
334.829
335.002
335.523
336.004
336.6
336.898
337.123
337.14
336.762
336.196
335.482
334.682
333.839
333.197
332.962
333.204
333.919
329.701
329.092
328.624
328.547
328.669
329.116
329.472
329.972
330.223
330.436
330.427
330.097
329.644
329.084
328.438
327.751
327.245
327.055
327.217
327.825
323.111
322.667
322.311
322.247
322.333
322.667
322.938
323.342
323.53
323.697
323.701
323.411
323.09
322.655
322.145
321.631
321.238
321.127
321.201
321.686
316.536
316.222
315.98
315.904
315.999
316.217
316.404
316.694
316.849
316.947
316.945
316.72
316.519
316.211
315.831
315.484
315.217
315.154
315.159
315.504
309.942
309.748
309.627
309.56
309.639
309.757
309.853
310.036
310.132
310.167
310.183
310.055
309.923
309.741
309.511
309.322
309.145
309.109
309.114
309.316
303.339
303.271
303.236
303.214
303.235
303.269
303.303
303.368
303.4
303.414
303.414
303.382
303.325
303.267
303.186
303.119
303.069
303.05
303.049
303.123
349.544
348.646
347.946
347.744
348.178
348.853
349.615
350.493
351.01
351.422
351.348
351.045
350.213
349.006
347.794
346.627
345.583
345.184
345.531
346.45
342.972
342.255
341.662
341.446
341.849
342.412
343.041
343.85
344.262
344.611
344.551
344.285
343.596
342.566
341.548
340.544
339.64
339.319
339.626
340.371
336.389
335.815
335.345
335.106
335.466
335.952
336.451
337.181
337.482
337.793
337.728
337.505
336.943
336.105
335.243
334.4
333.628
333.407
333.655
334.252
329.818
329.356
328.989
328.762
329.054
329.462
329.862
330.458
330.681
330.946
330.885
330.708
330.239
329.606
328.889
328.212
327.588
327.432
327.631
328.098
323.244
322.882
322.599
322.411
322.621
322.968
323.23
323.701
323.891
324.092
324.041
323.903
323.531
323.048
322.512
321.997
321.524
321.427
321.543
321.908
316.63
316.385
316.167
316.03
316.169
316.417
316.623
316.925
317.074
317.217
317.173
317.082
316.825
316.49
316.117
315.722
315.426
315.357
315.426
315.678
309.994
309.84
309.721
309.639
309.718
309.862
309.996
310.167
310.253
310.334
310.316
310.276
310.11
309.914
309.696
309.436
309.273
309.239
309.271
309.419
303.348
303.294
303.258
303.234
303.269
303.302
303.352
303.404
303.425
303.459
303.459
303.447
303.383
303.334
303.249
303.166
303.111
303.111
303.11
303.157
349.989
349.091
348.495
348.441
348.894
349.535
350.502
351.498
352.088
352.519
352.566
352.275
351.222
350.048
348.73
347.518
346.428
346.068
346.257
347.231
343.362
342.615
342.11
342.054
342.433
342.986
343.817
344.695
345.187
345.545
345.588
345.357
344.466
343.456
342.319
341.327
340.372
340.097
340.267
341.073
336.72
336.129
335.697
335.662
335.95
336.432
337.128
337.875
338.262
338.558
338.601
338.441
337.669
336.82
335.878
335.06
334.27
334.052
334.188
334.857
330.071
329.62
329.26
329.227
329.457
329.862
330.405
331.021
331.32
331.563
331.613
331.487
330.854
330.153
329.384
328.73
328.122
327.949
328.078
328.593
323.387
323.076
322.799
322.777
322.953
323.275
323.65
324.141
324.393
324.555
324.621
324.513
324.006
323.477
322.862
322.386
321.931
321.791
321.917
322.285
316.723
316.515
316.311
316.292
316.421
316.656
316.896
317.25
317.439
317.552
317.605
317.517
317.167
316.804
316.34
316.026
315.691
315.605
315.714
315.954
310.054
309.926
309.81
309.801
309.855
310.023
310.154
310.366
310.472
310.553
310.576
310.515
310.318
310.095
309.819
309.621
309.436
309.382
309.454
309.599
303.372
303.328
303.302
303.278
303.31
303.37
303.4
303.479
303.516
303.531
303.544
303.526
303.457
303.385
303.292
303.22
303.156
303.155
303.163
303.221
350.805
349.864
349.308
349.272
349.826
350.491
351.48
352.44
353.284
353.774
353.935
353.627
352.531
351.267
349.886
348.657
347.598
347.203
347.303
348.205
344.053
343.3
342.813
342.8
343.267
343.838
344.677
345.498
346.193
346.622
346.762
346.526
345.59
344.516
343.328
342.298
341.393
341.061
341.153
341.925
337.287
336.709
336.292
336.28
336.679
337.165
337.85
338.538
339.097
339.473
339.576
339.392
338.612
337.727
336.735
335.85
335.128
334.849
334.936
335.571
330.504
330.091
329.731
329.735
330.051
330.47
330.977
331.532
332.007
332.334
332.402
332.232
331.619
330.912
330.116
329.39
328.821
328.586
328.672
329.168
323.721
323.447
323.153
323.164
323.388
323.736
324.096
324.537
324.918
325.161
325.211
325.072
324.604
324.074
323.474
322.876
322.452
322.277
322.353
322.733
316.931
316.771
316.556
316.563
316.725
316.98
317.217
317.523
317.832
317.963
318.035
317.914
317.58
317.219
316.803
316.363
316.062
315.932
316
316.267
310.175
310.079
309.957
309.966
310.04
310.197
310.315
310.522
310.717
310.792
310.836
310.748
310.566
310.337
310.101
309.818
309.648
309.577
309.621
309.792
303.401
303.365
303.339
303.347
303.364
303.42
303.454
303.521
303.608
303.619
303.632
303.609
303.545
303.459
303.382
303.285
303.231
303.213
303.228
303.283
351.783
350.81
350.048
350.135
350.764
351.56
352.609
353.637
354.548
355.074
355.414
354.956
354.108
352.764
351.36
350.129
348.984
348.535
348.641
349.336
344.948
344.119
343.44
343.503
344.055
344.723
345.641
346.52
347.294
347.774
348.041
347.648
346.953
345.792
344.579
343.547
342.575
342.207
342.296
342.875
338.077
337.384
336.811
336.875
337.341
337.865
338.676
339.405
340.058
340.457
340.684
340.351
339.755
338.793
337.805
336.919
336.115
335.825
335.891
336.345
331.182
330.625
330.159
330.226
330.599
331.003
331.665
332.271
332.816
333.123
333.306
333.041
332.529
331.788
330.994
330.231
329.598
329.396
329.466
329.789
324.287
323.858
323.489
323.523
323.801
324.139
324.639
325.119
325.557
325.781
325.936
325.721
325.313
324.752
324.127
323.536
323.065
322.9
322.976
323.193
317.348
317.073
316.797
316.802
317.012
317.268
317.634
317.981
318.279
318.422
318.532
318.378
318.096
317.71
317.268
316.813
316.499
316.381
316.451
316.573
310.435
310.261
310.093
310.088
310.212
310.382
310.605
310.813
311.004
311.081
311.12
311.016
310.863
310.651
310.401
310.092
309.914
309.836
309.894
309.968
303.508
303.444
303.384
303.383
303.418
303.48
303.547
303.625
303.694
303.706
303.735
303.682
303.647
303.565
303.491
303.379
303.329
303.293
303.325
303.348
352.759
351.805
351.343
351.405
351.969
352.685
353.786
354.941
355.939
356.545
356.885
356.478
355.486
354.291
352.887
351.559
350.609
350.044
350.1
350.72
345.754
344.946
344.551
344.603
345.077
345.723
346.641
347.674
348.507
349.016
349.32
348.978
348.14
347.128
345.924
344.807
343.981
343.517
343.59
344.092
338.753
338.067
337.756
337.774
338.168
338.719
339.53
340.382
341.062
341.485
341.736
341.474
340.76
339.926
338.922
337.961
337.292
336.912
336.969
337.412
331.722
331.178
330.92
330.912
331.245
331.701
332.381
333.064
333.598
333.962
334.154
333.952
333.358
332.709
331.893
331.092
330.575
330.259
330.304
330.688
324.706
324.272
324.087
324.057
324.32
324.669
325.209
325.725
326.149
326.42
326.566
326.424
325.965
325.482
324.851
324.196
323.815
323.569
323.624
323.917
317.663
317.372
317.205
317.191
317.39
317.637
318.052
318.411
318.698
318.891
318.978
318.885
318.566
318.238
317.771
317.285
317.033
316.867
316.907
317.1
310.6
310.449
310.337
310.338
310.454
310.593
310.843
311.078
311.237
311.349
311.4
311.34
311.154
310.978
310.681
310.382
310.243
310.144
310.178
310.281
303.551
303.509
303.465
303.462
303.502
303.545
303.638
303.702
303.768
303.81
303.814
303.802
303.745
303.687
303.574
303.477
303.435
303.395
303.416
303.456
353.805
353.095
352.551
352.567
353.176
354.032
354.994
356.263
357.156
358.052
358.292
357.956
357.143
355.902
354.477
353.119
352.027
351.59
351.674
352.234
346.661
346.097
345.613
345.6
346.127
346.852
347.687
348.806
349.574
350.336
350.543
350.255
349.589
348.514
347.288
346.141
345.202
344.853
344.905
345.399
339.538
339.081
338.649
338.602
339.07
339.662
340.37
341.342
341.975
342.613
342.781
342.556
341.993
341.099
340.059
339.12
338.347
338.044
338.092
338.502
332.39
332.011
331.656
331.604
331.991
332.472
333.066
333.871
334.399
334.885
334.99
334.834
334.375
333.667
332.787
332.04
331.454
331.206
331.256
331.55
325.233
324.932
324.65
324.588
324.888
325.26
325.73
326.379
326.79
327.146
327.203
327.129
326.767
326.217
325.507
324.954
324.52
324.331
324.361
324.575
318.05
317.827
317.632
317.578
317.787
318.063
318.405
318.882
319.173
319.395
319.452
319.404
319.139
318.758
318.242
317.848
317.532
317.427
317.452
317.587
310.849
310.717
310.593
310.547
310.696
310.848
311.067
311.358
311.543
311.627
311.688
311.659
311.502
311.279
310.959
310.72
310.544
310.476
310.496
310.561
303.632
303.589
303.554
303.537
303.597
303.629
303.709
303.802
303.867
303.886
303.918
303.911
303.85
303.768
303.677
303.605
303.539
303.518
303.518
303.533
355.084
354.312
353.926
353.942
354.5
355.312
356.285
357.491
358.502
359.351
359.664
359.424
358.633
357.42
355.99
354.783
353.712
353.222
353.361
353.91
347.757
347.129
346.793
346.819
347.291
347.996
348.816
349.831
350.689
351.461
351.724
351.52
350.843
349.816
348.601
347.587
346.682
346.264
346.397
346.821
340.446
339.963
339.641
339.667
340.03
340.668
341.328
342.176
342.881
343.553
343.782
343.615
343.046
342.202
341.184
340.316
339.6
339.253
339.362
339.697
333.132
332.757
332.455
332.503
332.769
333.295
333.829
334.512
335.083
335.619
335.835
335.706
335.246
334.559
333.727
333.013
332.47
332.187
332.279
332.569
325.81
325.513
325.262
325.328
325.499
325.923
326.337
326.871
327.275
327.721
327.89
327.797
327.438
326.898
326.247
325.699
325.298
325.093
325.166
325.401
318.467
318.247
318.08
318.113
318.238
318.545
318.836
319.228
319.474
319.801
319.91
319.872
319.632
319.212
318.753
318.367
318.098
317.967
318.001
318.171
311.098
310.959
310.869
310.885
310.952
311.153
311.321
311.564
311.688
311.877
311.944
311.939
311.796
311.515
311.27
311.023
310.88
310.79
310.801
310.927
303.712
303.672
303.633
303.644
303.667
303.733
303.799
303.876
303.912
303.972
304
303.997
303.954
303.842
303.773
303.699
303.647
303.619
303.626
303.654
356.427
355.753
355.268
355.369
355.803
356.532
357.533
358.583
359.769
360.591
361.069
360.759
359.984
358.68
357.422
356.343
355.389
354.87
355.025
355.593
348.926
348.378
347.974
348.073
348.417
349.04
349.911
350.78
351.81
352.51
352.94
352.658
352.031
350.93
349.839
348.949
348.132
347.671
347.846
348.316
341.411
340.977
340.653
340.737
341.006
341.532
342.273
342.978
343.834
344.417
344.81
344.554
344.084
343.136
342.22
341.506
340.831
340.43
340.594
340.988
333.899
333.591
333.299
333.374
333.564
333.998
334.603
335.178
335.884
336.343
336.666
336.462
336.116
335.311
334.598
334.011
333.475
333.133
333.302
333.609
326.41
326.166
325.957
325.975
326.11
326.458
326.911
327.376
327.922
328.287
328.541
328.368
328.121
327.481
326.925
326.49
326.085
325.807
325.949
326.208
318.911
318.712
318.582
318.583
318.667
318.901
319.216
319.569
319.959
320.227
320.402
320.272
320.122
319.646
319.245
318.92
318.661
318.46
318.537
318.764
311.35
311.24
311.181
311.167
311.228
311.356
311.543
311.752
311.999
312.155
312.266
312.179
312.101
311.788
311.548
311.36
311.215
311.089
311.135
311.286
303.811
303.768
303.749
303.737
303.778
303.804
303.869
303.929
304.029
304.082
304.115
304.081
304.053
303.943
303.881
303.809
303.763
303.713
303.743
303.786
357.652
356.915
356.586
356.585
356.98
357.827
358.766
359.8
360.996
361.837
362.295
361.985
361.185
360.124
358.922
357.945
357.086
356.58
356.748
357.247
349.978
349.393
349.081
349.086
349.447
350.16
350.966
351.843
352.883
353.631
354
353.733
353.05
352.174
351.138
350.336
349.603
349.161
349.332
349.733
342.285
341.871
341.582
341.568
341.876
342.461
343.167
343.893
344.752
345.4
345.708
345.458
344.916
344.184
343.32
342.671
342.059
341.689
341.852
342.19
334.632
334.31
334.084
334.051
334.255
334.769
335.347
335.928
336.641
337.141
337.409
337.206
336.765
336.181
335.493
334.961
334.479
334.177
334.322
334.594
326.95
326.737
326.538
326.512
326.63
327.063
327.519
327.961
328.502
328.903
329.144
328.932
328.605
328.156
327.651
327.234
326.856
326.621
326.76
326.956
319.278
319.142
318.994
318.965
319.033
319.344
319.67
319.999
320.373
320.652
320.851
320.673
320.453
320.13
319.78
319.481
319.206
319.057
319.147
319.301
311.597
311.519
311.425
311.395
311.44
311.616
311.815
312.017
312.234
312.384
312.529
312.404
312.291
312.09
311.895
311.701
311.561
311.448
311.507
311.604
303.891
303.861
303.827
303.826
303.831
303.9
303.964
304.024
304.099
304.153
304.195
304.15
304.117
304.056
303.99
303.922
303.889
303.832
303.864
303.891
359.071
358.384
357.848
357.875
358.307
358.993
360.036
361.06
362.206
362.916
363.398
363.161
362.454
361.462
360.38
359.439
358.746
358.383
358.54
359.036
351.223
350.653
350.173
350.222
350.603
351.17
352.061
352.967
353.933
354.531
354.981
354.771
354.178
353.317
352.429
351.616
351.056
350.764
350.909
351.3
343.39
342.904
342.499
342.539
342.877
343.339
344.103
344.874
345.663
346.153
346.554
346.372
345.904
345.174
344.411
343.76
343.321
343.055
343.199
343.509
335.535
335.122
334.809
334.837
335.131
335.478
336.131
336.731
337.377
337.788
338.118
337.961
337.584
337.001
336.378
335.874
335.532
335.301
335.397
335.657
327.675
327.333
327.112
327.13
327.367
327.606
328.139
328.593
329.073
329.403
329.678
329.538
329.229
328.806
328.309
327.937
327.692
327.485
327.579
327.783
319.793
319.551
319.409
319.398
319.574
319.737
320.118
320.433
320.771
320.997
321.214
321.097
320.873
320.599
320.243
319.955
319.836
319.652
319.733
319.845
311.888
311.758
311.678
311.652
311.772
311.853
312.082
312.274
312.484
312.602
312.754
312.673
312.531
312.39
312.187
311.985
311.917
311.804
311.861
311.941
303.978
303.946
303.927
303.9
303.946
303.963
304.051
304.118
304.187
304.221
304.272
304.242
304.2
304.16
304.084
304.02
303.994
303.954
303.966
304.003
360.425
359.79
359.354
359.23
359.646
360.257
361.24
362.31
363.215
363.908
364.314
364.19
363.552
362.715
361.76
360.918
360.288
360.076
360.223
360.73
352.398
351.872
351.484
351.379
351.751
352.262
353.118
354.027
354.828
355.421
355.782
355.66
355.126
354.413
353.631
352.889
352.376
352.217
352.328
352.777
344.359
343.938
343.6
343.519
343.813
344.28
344.991
345.742
346.416
346.92
347.241
347.112
346.7
346.085
345.438
344.824
344.419
344.288
344.363
344.739
336.316
336
335.708
335.654
335.86
336.258
336.837
337.454
338.003
338.413
338.696
338.574
338.259
337.748
337.24
336.723
336.425
336.291
336.379
336.647
328.263
328.048
327.822
327.753
327.911
328.244
328.684
329.162
329.555
329.902
330.119
330.019
329.779
329.414
329.005
328.603
328.384
328.27
328.346
328.543
320.206
320.06
319.92
319.834
319.939
320.194
320.514
320.856
321.127
321.387
321.52
321.438
321.286
321.049
320.754
320.458
320.315
320.217
320.276
320.414
312.131
312.061
311.966
311.912
311.986
312.143
312.334
312.54
312.677
312.859
312.912
312.89
312.779
312.648
312.461
312.284
312.214
312.145
312.177
312.266
304.058
304.049
304.01
304
304.026
304.074
304.153
304.204
304.249
304.308
304.323
304.322
304.282
304.249
304.174
304.115
304.086
304.057
304.072
304.111
361.855
361.192
360.782
360.709
360.95
361.637
362.54
363.46
364.259
364.943
365.322
365.22
364.641
363.901
363.171
362.389
361.88
361.792
361.919
362.322
353.657
353.117
352.736
352.673
352.88
353.485
354.248
355.056
355.723
356.299
356.657
356.561
356.102
355.466
354.842
354.184
353.747
353.675
353.814
354.147
345.457
345.018
344.638
344.631
344.783
345.306
345.952
346.653
347.152
347.667
347.963
347.882
347.525
347.001
346.449
345.924
345.558
345.503
345.612
345.891
337.236
336.886
336.539
336.564
336.647
337.104
337.647
338.219
338.582
339.044
339.267
339.193
338.944
338.496
338.026
337.653
337.356
337.299
337.366
337.598
328.991
328.732
328.432
328.455
328.514
328.882
329.311
329.744
329.997
330.397
330.569
330.488
330.317
329.977
329.583
329.327
329.119
329.058
329.092
329.263
320.74
320.529
320.325
320.333
320.366
320.635
320.941
321.274
321.417
321.732
321.86
321.78
321.665
321.451
321.137
320.965
320.824
320.78
320.785
320.907
312.454
312.339
312.216
312.208
312.211
312.387
312.574
312.778
312.853
313.076
313.128
313.08
313.013
312.908
312.676
312.606
312.517
312.489
312.481
312.552
304.171
304.125
304.094
304.087
304.094
304.151
304.214
304.276
304.309
304.393
304.397
304.378
304.363
304.331
304.247
304.224
304.201
304.183
304.166
304.209
363.297
362.668
362.136
362.124
362.282
362.898
363.683
364.525
365.396
365.866
366.116
366.062
365.727
365.079
364.533
363.858
363.452
363.361
363.48
363.853
354.907
354.396
353.934
353.922
354.048
354.579
355.252
355.962
356.725
357.141
357.344
357.306
357.022
356.471
355.995
355.483
355.134
355.051
355.179
355.48
346.495
346.108
345.696
345.713
345.773
346.24
346.806
347.408
348.017
348.397
348.576
348.523
348.309
347.837
347.429
347.027
346.764
346.686
346.789
347.064
338.059
337.763
337.425
337.462
337.473
337.872
338.333
338.834
339.309
339.634
339.76
339.725
339.572
339.161
338.845
338.543
338.342
338.269
338.339
338.576
329.654
329.413
329.122
329.164
329.171
329.489
329.835
330.249
330.594
330.847
330.93
330.908
330.812
330.481
330.24
330.035
329.856
329.795
329.869
330.037
321.209
321.033
320.816
320.869
320.844
321.093
321.324
321.62
321.85
322.05
322.12
322.086
322.027
321.804
321.632
321.494
321.361
321.281
321.367
321.464
312.738
312.648
312.5
312.534
312.519
312.667
312.812
312.993
313.112
313.239
313.296
313.275
313.229
313.117
313.005
312.943
312.854
312.778
312.842
312.907
304.265
304.234
304.195
304.205
304.199
304.249
304.287
304.357
304.392
304.438
304.457
304.453
304.441
304.396
304.362
304.338
304.301
304.283
304.303
304.322
364.738
364.079
363.614
363.539
363.732
364.182
364.844
365.572
366.366
366.771
367.082
367.113
366.871
366.356
365.806
365.177
364.86
364.79
365.052
365.594
356.165
355.624
355.182
355.134
355.301
355.678
356.263
356.885
357.56
357.894
358.184
358.215
358.019
357.586
357.113
356.584
356.33
356.29
356.534
357
347.583
347.115
346.743
346.707
346.846
347.161
347.657
348.185
348.742
349.013
349.262
349.309
349.133
348.786
348.411
347.952
347.769
347.737
347.95
348.341
338.978
338.578
338.272
338.246
338.356
338.632
339.036
339.476
339.887
340.132
340.32
340.371
340.24
339.933
339.665
339.301
339.15
339.138
339.319
339.608
330.364
330.034
329.784
329.786
329.857
330.093
330.404
330.729
331.044
331.24
331.384
331.434
331.334
331.087
330.893
330.614
330.496
330.471
330.647
330.859
321.736
321.458
321.289
321.304
321.353
321.52
321.754
321.986
322.195
322.33
322.432
322.483
322.413
322.215
322.098
321.883
321.803
321.769
321.914
322.089
313.071
312.878
312.79
312.803
312.835
312.927
313.081
313.203
313.343
313.418
313.481
313.514
313.491
313.34
313.283
313.152
313.097
313.076
313.16
313.287
304.381
304.319
304.286
304.295
304.301
304.341
304.385
304.425
304.48
304.494
304.527
304.532
304.527
304.465
304.454
304.418
304.391
304.386
304.407
304.458
366.233
365.491
365.019
364.91
365.04
365.473
366.086
366.728
367.316
367.75
368.061
368.093
367.904
367.488
367.13
366.542
366.399
366.436
366.752
367.242
357.45
356.823
356.424
356.328
356.441
356.801
357.321
357.877
358.387
358.778
359.032
359.092
358.934
358.548
358.266
357.768
357.668
357.713
358.007
358.416
348.653
348.146
347.77
347.689
347.818
348.125
348.54
349.01
349.464
349.778
349.995
350.057
349.931
349.572
349.366
348.954
348.878
348.946
349.181
349.534
339.822
339.443
339.115
339.048
339.172
339.415
339.75
340.128
340.503
340.756
340.935
340.966
340.888
340.583
340.431
340.121
340.082
340.126
340.306
340.585
330.985
330.723
330.449
330.39
330.504
330.691
330.947
331.246
331.544
331.715
331.862
331.9
331.832
331.592
331.479
331.251
331.219
331.259
331.399
331.597
322.151
321.988
321.77
321.719
321.808
321.94
322.137
322.34
322.547
322.672
322.764
322.8
322.75
322.599
322.517
322.347
322.307
322.366
322.456
322.588
313.312
313.211
313.096
313.049
313.105
313.201
313.299
313.435
313.543
313.641
313.664
313.713
313.663
313.595
313.537
313.441
313.41
313.442
313.5
313.567
304.47
304.428
304.396
304.386
304.396
304.423
304.457
304.502
304.544
304.581
304.575
304.606
304.573
304.556
304.54
304.506
304.505
304.513
304.52
304.548
367.784
367.041
366.505
366.287
366.514
366.716
367.241
367.964
368.415
368.796
368.956
369.032
368.931
368.659
368.277
367.927
367.842
367.921
368.282
368.83
358.808
358.164
357.707
357.506
357.712
357.887
358.329
358.938
359.33
359.696
359.819
359.914
359.816
359.559
359.257
358.979
358.947
359.025
359.339
359.788
349.819
349.271
348.892
348.706
348.891
349.044
349.409
349.897
350.253
350.579
350.662
350.746
350.648
350.444
350.19
349.983
349.987
350.054
350.317
350.686
340.806
340.352
340.04
339.895
340.026
340.175
340.464
340.846
341.158
341.425
341.47
341.557
341.474
341.293
341.104
340.947
340.975
341.045
341.261
341.544
331.763
331.406
331.161
331.06
331.143
331.275
331.478
331.803
332.047
332.241
332.286
332.343
332.303
332.117
332.005
331.895
331.906
332.021
332.177
332.356
322.695
322.445
322.264
322.208
322.251
322.374
322.5
322.742
322.926
323.07
323.081
323.137
323.12
322.96
322.88
322.808
322.824
322.922
323.039
323.134
313.643
313.48
313.368
313.354
313.365
313.459
313.528
313.668
313.765
313.872
313.881
313.894
313.891
313.803
313.737
313.71
313.735
313.783
313.859
313.888
304.578
304.513
304.475
304.469
304.483
304.51
304.534
304.584
304.621
304.644
304.64
304.665
304.656
304.632
304.617
304.593
304.604
304.623
304.655
304.659
369.119
368.415
367.931
367.61
367.718
368.04
368.5
368.963
369.379
369.787
369.947
369.982
370.008
369.743
369.467
369.356
369.298
369.528
369.929
370.424
359.933
359.337
358.937
358.637
358.724
359.012
359.428
359.796
360.162
360.533
360.678
360.697
360.776
360.504
360.264
360.204
360.161
360.378
360.767
361.142
350.733
350.221
349.92
349.643
349.708
349.966
350.324
350.621
350.946
351.256
351.392
351.398
351.483
351.24
351.027
351.012
350.967
351.175
351.532
351.826
341.52
341.139
340.879
340.66
340.688
340.891
341.198
341.447
341.729
341.962
342.081
342.071
342.153
341.954
341.786
341.785
341.715
341.925
342.246
342.489
332.316
332.014
331.808
331.65
331.659
331.84
332.069
332.266
332.488
332.671
332.757
332.715
332.821
332.653
332.536
332.543
332.478
332.63
332.912
333.108
323.104
322.892
322.738
322.632
322.617
322.781
322.915
323.086
323.236
323.353
323.423
323.375
323.474
323.368
323.25
323.283
323.213
323.321
323.528
323.675
313.854
313.776
313.66
313.614
313.577
313.71
313.761
313.896
313.973
314.024
314.084
314.035
314.111
314.039
313.976
314.008
313.938
314.004
314.134
314.229
304.646
304.622
304.578
304.575
304.563
304.603
304.607
304.651
304.683
304.699
304.714
304.705
304.729
304.695
304.686
304.698
304.675
304.69
304.741
304.767
370.019
369.345
368.909
368.551
368.651
368.885
369.336
369.853
370.11
370.563
370.551
370.846
370.892
370.547
370.285
370.254
370.319
370.657
371.022
371.569
360.629
360.088
359.709
359.398
359.489
359.721
360.096
360.541
360.78
361.159
361.16
361.43
361.467
361.172
360.983
360.94
361.006
361.34
361.653
362.095
351.292
350.845
350.516
350.243
350.343
350.554
350.863
351.22
351.463
351.767
351.77
352.003
352.037
351.782
351.647
351.61
351.688
351.984
352.265
352.584
341.963
341.608
341.34
341.103
341.193
341.393
341.625
341.899
342.121
342.39
342.366
342.556
342.6
342.422
342.303
342.272
342.328
342.592
342.827
343.065
332.647
332.403
332.151
331.972
332.032
332.212
332.39
332.623
332.786
333.006
332.971
333.111
333.134
333.046
332.924
332.882
332.956
333.166
333.33
333.528
323.33
323.16
322.976
322.835
322.883
323.03
323.132
323.327
323.444
323.585
323.556
323.684
323.669
323.639
323.524
323.496
323.571
323.723
323.825
323.989
314.013
313.923
313.813
313.705
313.744
313.839
313.89
314.007
314.097
314.159
314.162
314.245
314.223
314.217
314.112
314.128
314.167
314.257
314.317
314.419
304.693
304.681
304.627
304.595
304.6
304.633
304.658
304.697
304.734
304.743
304.755
304.779
304.76
304.774
304.731
304.729
304.749
304.775
304.804
304.829
)
;

boundaryField
{
    hotSide
    {
        type            fixedGradient;
        gradient        nonuniform List<scalar> 
400
(
522.586
522.744
525.592
531.048
538.83
548.535
559.737
572.049
585.154
598.811
612.849
627.158
641.68
656.405
671.367
686.631
702.293
718.452
735.186
752.53
505.374
505.918
509.339
515.536
524.164
534.747
546.79
559.863
573.622
587.813
602.262
616.86
631.558
646.356
661.301
676.484
692.021
708.042
724.652
741.898
495.911
497.149
501.227
508.03
517.21
528.288
540.769
554.214
568.272
582.685
597.272
611.928
626.605
641.313
656.107
671.088
686.382
702.126
718.433
735.36
493.659
495.883
500.716
508.037
517.538
528.8
541.376
554.855
568.897
583.241
597.707
612.189
626.642
641.082
655.571
670.209
685.121
700.435
716.257
732.649
496.645
500.043
505.761
513.664
523.487
534.876
547.444
560.82
574.682
588.778
602.932
617.042
631.071
645.045
659.034
673.141
687.486
702.188
717.347
733.027
502.61
507.28
514.022
522.682
533.014
544.699
557.387
570.732
584.428
598.229
611.968
625.558
638.982
652.287
665.564
678.927
692.503
706.412
720.753
735.596
509.635
515.616
523.505
533.126
544.225
556.484
569.552
583.078
596.744
610.306
623.604
636.575
649.244
661.697
674.066
686.497
699.137
712.115
725.537
739.478
516.184
523.449
532.551
543.294
555.398
568.52
582.268
596.243
610.088
623.527
636.409
648.709
660.513
671.982
683.31
694.694
706.309
718.304
730.79
743.846
520.98
529.4
539.673
551.585
564.832
579.023
593.701
608.382
622.621
636.086
648.62
660.255
671.17
681.626
691.903
702.256
712.896
723.985
735.636
747.926
522.96
532.265
543.498
556.437
570.758
586.029
601.719
617.239
632.027
645.669
657.994
669.099
679.276
688.898
698.332
707.884
717.79
728.218
739.279
751.042
521.349
531.115
542.904
556.493
571.548
587.608
604.09
620.328
635.668
649.621
662.001
672.95
682.84
692.122
701.214
710.45
720.077
730.263
741.115
752.697
515.803
525.505
537.317
551.015
566.257
582.572
599.365
615.959
631.693
646.069
658.89
670.284
680.607
690.299
699.77
709.353
719.293
729.761
740.867
752.674
506.544
515.662
526.979
540.267
555.182
571.255
587.916
604.539
620.529
635.441
649.069
661.472
672.906
683.717
694.251
704.81
715.627
726.876
738.674
751.095
494.393
502.514
512.965
525.524
539.843
555.467
571.856
588.449
604.728
620.3
634.95
648.659
661.56
673.883
685.887
697.819
709.891
722.271
735.084
748.416
480.736
487.597
497.005
508.753
522.489
537.748
554.004
570.725
587.439
603.776
619.51
634.559
648.965
662.858
676.418
689.836
703.296
716.957
730.944
745.349
467.511
472.993
481.342
492.366
505.688
520.804
537.154
554.197
571.466
588.598
605.352
621.609
637.353
652.65
667.62
682.415
697.191
712.098
727.259
742.765
457.275
461.392
468.754
479.183
492.251
507.376
523.934
541.349
559.143
576.953
594.533
611.746
628.545
644.958
661.068
676.996
692.884
708.873
725.083
741.6
453.094
456.016
462.489
472.348
485.113
500.131
516.722
534.285
552.338
570.523
588.598
606.415
623.914
641.098
658.026
674.796
691.534
708.373
725.429
742.78
457.682
459.742
465.411
474.541
486.661
501.121
517.253
534.469
552.3
570.401
588.531
606.54
624.352
641.951
659.373
676.694
694.019
711.461
729.122
747.067
471.877
473.449
478.387
486.572
497.618
510.976
526.068
542.367
559.443
576.965
594.697
612.481
630.227
647.899
665.508
683.103
700.758
718.556
736.572
754.853
)
;
    }
    coldSide
    {
        type            mixed;
        refValue        uniform 300;
        refGradient     uniform 0;
        valueFraction   uniform 0.991591;
        source          uniform 0;
        value           nonuniform List<scalar> 
400
(
300.028
300.028
300.028
300.028
300.029
300.029
300.03
300.031
300.031
300.032
300.033
300.033
300.034
300.035
300.036
300.037
300.038
300.038
300.039
300.039
300.027
300.028
300.028
300.028
300.028
300.029
300.03
300.03
300.031
300.032
300.032
300.033
300.034
300.035
300.036
300.036
300.037
300.038
300.039
300.039