/*--------------------------------*- C++ -*----------------------------------*\
| =========                 |                                                 |
| \\      /  F ield         | OpenFOAM: The Open Source CFD Toolbox           |
|  \\    /   O peration     | Version:  2212                                  |
|   \\  /    A nd           | Website:  www.openfoam.com                      |
|    \\/     M anipulation  |                                                 |
\*---------------------------------------------------------------------------*/
FoamFile
{
    version     2.0;
    format      ascii;
    arch        "LSB;label=32;scalar=64";
    class       volScalarField;
    location    "0";
    object      relativeErrorField;
}
// * * * * * * * * * * * * * * * * * * * * * * * * * * * * * * * * * * * * * //

dimensions      [0 0 0 1 0 0 0];

internalField   nonuniform List<scalar> 
3200
(
0.00327391
0.00336671
0.00413485
0.00547916
0.00705546
0.00883933
0.0109711
0.0129057
0.014728
0.0154695
0.0153921
0.0150961
0.0139199
0.0122348
0.0105264
0.00919183
0.00754579
0.00622739
0.00572185
0.00567349
0.00262644
0.00270453
0.00356141
0.00433949
0.00603949
0.00775553
0.00968005
0.0112826
0.0126138
0.0134964
0.0137256
0.0130662
0.0121596
0.0105329
0.0093494
0.00763855
0.00637154
0.00550254
0.00517236
0.0049726
0.00219393
0.00214243
0.00289391
0.00380833
0.00497574
0.00659472
0.0078479
0.00962681
0.0106907
0.0117541
0.0115938
0.0110926
0.0105108
0.00892667
0.00789367
0.00641768
0.00559584
0.00454894
0.00431863
0.00429748
0.00155568
0.00165705
0.00236799
0.00296141
0.00389025
0.00544886
0.00664116
0.00805896
0.00894796
0.00946624
0.00964187
0.00909006
0.00850171
0.00748723
0.00643
0.00531706
0.00460692
0.00381075
0.00347593
0.00323265
0.00120103
0.00127478
0.00175057
0.00234443
0.00326644
0.00411003
0.00521921
0.00615179
0.0069069
0.00723411
0.00753607
0.00711396
0.00667977
0.00596653
0.00511778
0.0040958
0.00346537
0.00303998
0.00265709
0.00274186
0.000708732
0.000768977
0.00109623
0.00166541
0.00213102
0.00316944
0.00385119
0.00437671
0.00498315
0.00555951
0.00544532
0.00540764
0.0050892
0.00433609
0.00367135
0.00312152
0.00249139
0.00225824
0.00208985
0.00197843
0.000428079
0.000439795
0.000700764
0.000763991
0.00160232
0.00189105
0.00220491
0.00267766
0.00284598
0.00314773
0.0032815
0.003189
0.00305718
0.00263211
0.00220261
0.00187432
0.00138874
0.00115754
0.00118307
0.00103997
0.000277622
0.000269562
0.000110458
0.000226825
0.000609521
0.000561913
0.000833283
0.0008367
0.0009059
0.00109785
0.00115581
0.00121787
0.00104636
0.000960265
0.000845674
0.000311385
0.000596655
0.000592192
0.000298185
0.000371862
0.0011939
0.00144825
0.00178945
0.00320618
0.00477558
0.00679867
0.00875481
0.0106617
0.0119895
0.0129317
0.013164
0.0127461
0.0114394
0.0100258
0.0083028
0.00646118
0.00531704
0.00443515
0.00365276
0.00404078
0.000973732
0.00119748
0.00151617
0.00275427
0.00404547
0.00602304
0.00770645
0.00915253
0.0104763
0.0115226
0.0113564
0.0108413
0.0099201
0.0086627
0.00744071
0.00574369
0.00472961
0.00375961
0.00316708
0.0035022
0.000759436
0.000776186
0.00120684
0.00250614
0.00354265
0.0048602
0.00646208
0.00800789
0.00910718
0.00955324
0.00975612
0.00924879
0.00861704
0.00742352
0.00626281
0.00513077
0.00402045
0.00309054
0.00283251
0.0028828
0.000887155
0.000656456
0.00107081
0.0018091
0.00293653
0.00413885
0.00529149
0.00650469
0.00755615
0.00814492
0.00813844
0.00768086
0.0071692
0.00634146
0.00518804
0.00434117
0.00344753
0.00264577
0.00243112
0.00229316
0.000343131
0.000448383
0.000707607
0.00161486
0.00209465
0.00330572
0.00420823
0.00529379
0.00593997
0.00645653
0.00651081
0.00629237
0.00555579
0.00494434
0.00420068
0.00325075
0.00261745
0.00216611
0.00179287
0.00170442
0.000101965
0.000221241
0.000683103
0.00114179
0.00146556
0.00220638
0.00335319
0.00375704
0.00441471
0.00473456
0.00463779
0.00459393
0.00407141
0.00360039
0.00301374
0.00240549
0.00173779
0.00152033
0.0013804
0.00132346
4.38615e-05
0.000278623
0.00046628
0.000496438
0.00108348
0.00151257
0.00193636
0.00233258
0.00261054
0.00298061
0.00289978
0.00277974
0.00246097
0.00236792
0.00169941
0.00178531
0.00118388
0.00103112
0.000679744
0.000927027
0.000205308
3.9048e-05
0.000254389
0.000207401
0.000282419
0.000523239
0.000622807
0.000780322
0.000972798
0.000992604
0.000804615
0.000914007
0.000806129
0.0008758
0.00046206
0.000413394
0.000542452
0.000207416
0.000361309
0.000413317
0.00123208
0.000975288
0.000626609
0.000649789
0.00189436
0.00383286
0.00582877
0.00752546
0.00876249
0.00970551
0.00997046
0.00936332
0.0081512
0.00694628
0.00537886
0.00377941
0.00280172
0.00174541
0.00141655
0.00145484
0.00102986
0.000781722
0.00042447
0.000307711
0.00189548
0.00321245
0.0051127
0.00636338
0.00774768
0.00855005
0.0088303
0.00811961
0.0071866
0.00585736
0.00475982
0.00334747
0.00240749
0.00173157
0.00135634
0.00145134
0.000895488
0.000916907
0.000647448
0.00030176
0.00147415
0.00290589
0.00419158
0.00559684
0.00660609
0.007633
0.00740208
0.00698325
0.00639152
0.00523085
0.00395108
0.00289855
0.0020462
0.00159078
0.00107267
0.0011694
0.000789561
0.000905986
0.00049187
0.000152636
0.00121716
0.00227219
0.00368315
0.00457354
0.00544485
0.00614554
0.00640986
0.00598381
0.00546349
0.00451262
0.0033325
0.00241359
0.00154793
0.00134269
0.00108129
0.00107019
0.00093929
0.000710932
0.000570615
0.000219353
0.000774264
0.00186603
0.00285062
0.00361383
0.00440732
0.0048751
0.0049961
0.00501184
0.00414857
0.00346867
0.00268202
0.00203295
0.00131516
0.000924882
0.000938738
0.000701043
0.000433855
0.000495808
0.000225815
0.000304328
0.000448026
0.00126722
0.00193341
0.00260526
0.00303641
0.00366461
0.00365078
0.00336715
0.00314379
0.00248935
0.00212601
0.00142585
0.000995017
0.000661123
0.000500847
0.000682485
0.000273412
0.000310846
0.000113791
0.000110627
0.000382075
0.00104975
0.00129063
0.00135252
0.00194769
0.00211629
0.00231091
0.0019973
0.00201423
0.00147651
0.00109691
0.000900049
0.000715434
0.000525115
0.000342546
0.0001843
0.000206258
0.000102508
0.000100522
9.21015e-05
9.12357e-05
0.000213496
0.000363165
0.000770808
0.000776256
0.00084662
0.000802857
0.000669194
0.000542139
0.000617867
0.000321773
9.49665e-05
0.000101204
2.71153e-05
1.05333e-05
0.000221641
0.00342638
0.0033269
0.00313697
0.0021005
0.000766526
0.000725066
0.00260926
0.00448264
0.00549513
0.00613822
0.0066844
0.00593781
0.00509781
0.00382302
0.00243164
0.000939098
5.84886e-05
0.00068128
0.000596367
0.000661344
0.00312025
0.0029586
0.00278971
0.00201003
0.000973814
0.000592746
0.00223786
0.00375399
0.00495713
0.00553583
0.00567942
0.00540629
0.0045127
0.0034192
0.00217916
0.000901497
1.06639e-05
0.000410529
0.000439791
0.000464333
0.00264895
0.0024622
0.00258722
0.00160186
0.000874772
0.000773975
0.00214059
0.00307243
0.00418481
0.00485565
0.00492546
0.00438713
0.00380706
0.0027536
0.00179142
0.000729814
8.0584e-05
0.000353506
0.000623784
0.000358888
0.00205211
0.00217295
0.0019533
0.00149833
0.000571072
0.000439607
0.00150479
0.00278357
0.00344233
0.00410886
0.0041375
0.00386557
0.00317283
0.00257191
0.00149131
0.000897558
0.000105458
0.000376062
0.000526032
0.00023653
0.00198074
0.00166366
0.00152037
0.00126128
0.000622934
0.000366944
0.00132595
0.00198624
0.00265896
0.00336707
0.00325807
0.00298603
0.00224742
0.00194792
0.00116743
0.000638201
2.99087e-05
0.000346613
0.000330853
0.000130538
0.00106062
0.00151876
0.00115659
0.000856889
0.000450295
0.000148512
0.000888632
0.00167673
0.00195092
0.0023027
0.00238614
0.00237767
0.00204757
0.00143066
0.000922663
0.000670744
0.000146443
7.72768e-05
0.000239245
4.12205e-05
0.00103981
0.00100801
0.000820088
0.000480067
0.000302988
0.0001467
0.00038944
0.00115668
0.00115028
0.00135104
0.00129971
0.00123632
0.00104582
0.000694556
0.000602317
0.00015807
0.000152274
0.000104048
4.16872e-05
4.13747e-05
0.000310158
0.00022251
0.000362631
0.000259168
0.000214874
5.17837e-07
0.000200429
0.000333743
0.000595964
0.000433288
0.000494063
0.000497757
0.000629231
8.07157e-05
0.000298375
0.000255816
3.44453e-05
9.61207e-05
8.09077e-05
5.93393e-05
0.00532671
0.00548248
0.00525257
0.00453355
0.003249
0.00210653
0.000422525
0.0010249
0.0021733
0.00311493
0.0032016
0.002655
0.00206581
0.000770861
0.000345361
0.00132876
0.00235049
0.00296098
0.00264489
0.0022889
0.00468643
0.00503347
0.00445472
0.00393142
0.00313564
0.00194683
0.000383006
0.000831115
0.00200182
0.00282885
0.00281127
0.00257533
0.00176454
0.000840097
0.000206458
0.00141821
0.00201949
0.0025823
0.00237343
0.00213401
0.00412345
0.00433191
0.00408837
0.00349874
0.0024843
0.00156605
0.000300605
0.000754194
0.00178465
0.00228772
0.00260197
0.00220758
0.00134799
0.000737559
0.000311978
0.0011629
0.0017966
0.00211468
0.00199446
0.001849
0.00322502
0.00359645
0.00333145
0.00284212
0.00212792
0.00133935
0.000135571
0.000628588
0.00131149
0.00181072
0.00200905
0.0018933
0.00138116
0.000468287
0.000220086
0.00100032
0.00121612
0.00165889
0.00170396
0.00148559
0.00268557
0.00274435
0.0026413
0.00236148
0.00178304
0.00107907
3.79284e-06
0.000622527
0.00123777
0.00150802
0.0015016
0.00132825
0.00104875
0.000351202
0.000123935
0.000743223
0.000943277
0.00122629
0.00133842
0.00135185
0.00190279
0.00207911
0.00204199
0.00170741
0.00119073
0.000842888
1.05118e-05
0.000390094
0.000882475
0.00115897
0.00119092
0.00105966
0.000773946
0.000314788
8.23192e-05
0.000531498
0.000737752
0.000934046
0.00113565
0.000932404
0.0010653
0.00117347
0.00123453
0.00122713
0.000849869
0.000328879
8.34701e-08
0.000260093
0.000486755
0.000625037
0.000737841
0.000595991
0.000796245
2.96604e-05
4.95143e-05
0.000178334
0.000703534
0.000463092
0.000587119
0.000332014
0.000363284
0.000457722
0.000417984
0.00035647
0.000355788
0.000336655
0.000100159
0.000215713
0.000160854
0.000397192
6.55458e-05
0.000240458
0.000111414
0.00015807
8.74967e-05
0.00015193
0.000194347
0.000401492
0.000182873
0.000201871
0.0066402
0.00705338
0.00722346
0.00662646
0.00543158
0.00453832
0.00306169
0.00175334
0.00048838
1.81751e-05
0.00026128
9.96464e-05
0.000889333
0.00154516
0.00266375
0.00374411
0.00423109
0.00440352
0.00419876
0.00364038
0.00591196
0.0063145
0.00619175
0.00577461
0.00509854
0.00393544
0.00272137
0.00147007
0.000618514
0.000158454
0.000404801
0.000149024
0.000706111
0.00139597
0.00224331
0.00314795
0.00377723
0.00373961
0.00394512
0.00312289
0.00522113
0.00562187
0.00543271
0.00487895
0.00438405
0.00343262
0.00235194
0.00112665
0.000502625
4.14923e-05
0.000230265
4.08664e-05
0.000544124
0.00124586
0.00211518
0.00297964
0.00301222
0.00315807
0.00315557
0.0026086
0.0042267
0.00445719
0.00440706
0.00425539
0.00350523
0.00299378
0.00187677
0.0011573
0.000302308
0.000159496
0.000219001
8.29188e-05
0.000454597
0.000997827
0.00176931
0.00219438
0.0028773
0.00288992
0.00257395
0.00216343
0.00333572
0.00361252
0.00366563
0.00341685
0.00275974
0.00218476
0.00177238
0.000697871
0.000452736
6.25711e-05
8.52307e-05
8.29893e-05
0.000397752
0.00094544
0.00152859
0.00173688
0.00207926
0.00237318
0.00198329
0.00189206
0.00252938
0.00294376
0.00265032
0.00250533
0.00219863
0.0016247
0.00113808
0.000693521
0.000182313
0.00035879
0.000166339
9.59525e-05
0.00024814
0.000527638
0.000760018
0.00126907
0.00170182
0.00152788
0.00150831
0.00153185
0.00163863
0.00150799
0.00140092
0.00143792
0.00139718
0.00104918
0.000654956
0.000337717
1.70888e-05
1.81464e-05
2.63392e-05
0.000167582
0.000260097
0.000241554
0.000772859
0.000590213
0.000742558
0.000939674
0.00113025
0.00104367
0.000617544
0.000489543
0.000518393
0.000422379
0.000381259
0.000334605
0.000294618
0.000117115
9.1241e-05
4.70521e-05
0.000107742
2.64013e-05
4.41524e-05
0.000126368
0.000348149
0.000456591
0.000386287
0.00031875
0.000215136
0.000367736
0.00770404
0.00806602
0.00845578
0.00802267
0.00734509
0.0064611
0.00517117
0.00400701
0.00305583
0.00249083
0.00235679
0.00250921
0.00311559
0.00411417
0.0048048
0.00538557
0.00556613
0.00585202
0.00518933
0.00456371
0.00685739
0.00744687
0.00731988
0.00712742
0.00641047
0.00561848
0.00469466
0.00346489
0.00275434
0.00234088
0.00198032
0.00228154
0.00280838
0.00339212
0.00414147
0.00470423
0.00499487
0.00492051
0.00477555
0.00389689
0.00598878
0.00635355
0.00630705
0.00615957
0.0056538
0.00495757
0.00388205
0.00322174
0.00227847
0.00169786
0.00178497
0.00211095
0.00216252
0.00293944
0.00371826
0.00397333
0.00443867
0.00437105
0.00415659
0.00347019
0.0048878
0.00542871
0.0053843
0.00509983
0.00476771
0.00417262
0.00349112
0.00264223
0.00205787
0.00158191
0.00145169
0.00156913
0.00197987
0.00247014
0.00292986
0.00344171
0.00366259
0.003638
0.00314751
0.00290781
0.00410977
0.00402079
0.00418088
0.00398477
0.00395011
0.00339747
0.00260672
0.00199533
0.00134579
0.00136921
0.00118253
0.00143861
0.0014359
0.00191247
0.00222756
0.0024818
0.0026596
0.00278276
0.00249097
0.00224239
0.00304668
0.0030694
0.00309074
0.00303989
0.00276327
0.00273773
0.0019185
0.00156667
0.00100537
0.000890648
0.00067601
0.000841511
0.000881408
0.00150946
0.00153133
0.00190789
0.00195775
0.00187979
0.00177689
0.00176823
0.00173129
0.00184072
0.00173676
0.00180219
0.00177363
0.00136744
0.00117302
0.00111019
0.000655967
0.000516682
0.000550086
0.000678182
0.000718741
0.000776552
0.00115076
0.00133305
0.0010293
0.00111683
0.00095863
0.000820985
0.000444305
0.000645216
0.00046011
0.000657137
0.000626174
0.000557367
0.000371477
0.000379379
0.000383519
0.000201315
0.000296995
0.00040527
0.000276417
0.000264101
0.000313673
0.00041569
0.000277949
0.000615167
0.000267571
0.000409526
0.00806419
0.00881903
0.00924056
0.0092533
0.00874409
0.0080607
0.00691042
0.00598717
0.00533154
0.00471697
0.00446028
0.00462238
0.0050843
0.00561044
0.0063663
0.00656748
0.0066698
0.0064867
0.00589559
0.00476459
0.00721625
0.00767043
0.00807523
0.00821611
0.00772563
0.00682237
0.0064594
0.00547779
0.00472141
0.00416054
0.00410871
0.00404486
0.00430649
0.00482172
0.00551085
0.0057184
0.0059779
0.00574236
0.00506825
0.00417791
0.00629122
0.00676217
0.00719576
0.00707876
0.0068267
0.00611561
0.00537655
0.00473975
0.00416188
0.00374217
0.00333242
0.00355182
0.00389823
0.00429793
0.00462177
0.00485731
0.00510897
0.00476352
0.0044538
0.00378698
0.00517265
0.00556069
0.00587208
0.00594907
0.00542265
0.00516976
0.00441446
0.00399477
0.00353847
0.00302331
0.00280929
0.00281136
0.00315965
0.00354417
0.0038902
0.00417392
0.00438015
0.00404366
0.00366521
0.00313562
0.00447437
0.00450932
0.00487538
0.00465085
0.00447104
0.00388366
0.00364492
0.00327828
0.00249641
0.0024075
0.0022784
0.00227528
0.00263467
0.00272333
0.00321185
0.00307025
0.00326182
0.00332195
0.0027934
0.00222089
0.00292772
0.00315107
0.00336474
0.00352187
0.00339914
0.00274331
0.00255352
0.00231257
0.00194561
0.00173784
0.00168266
0.00160853
0.00156105
0.00207936
0.0023358
0.00221042
0.0025636
0.0022406
0.00201375
0.00197663
0.00207491
0.00188628
0.00215483
0.00189387
0.00200832
0.00170398
0.00152622
0.00144175
0.00115893
0.00110466
0.000895737
0.000963248
0.00106917
0.00112161
0.00130532
0.00134306
0.00133625
0.00136407
0.00126891
0.0010856
0.000493346
0.000544839
0.000719059
0.000752322
0.000683062
0.000671865
0.000377129
0.000585224
0.000498964
0.000364088
0.000399477
0.000294908
0.000664465
0.000354109
0.000367577
0.000439249
0.000394471
0.000517775
0.000292428
0.000531797
0.00787647
0.00870903
0.00941516
0.00953621
0.00945113
0.00878827
0.00836567
0.00757957
0.00672723
0.00633002
0.00623273
0.00633966
0.00655264
0.00686088
0.00721977
0.00725648
0.00719567
0.00668781
0.00570166
0.00469332
0.00710666
0.0077138
0.00836645
0.00861817
0.00817177
0.00806911
0.00732375
0.00651502
0.00623961
0.00548568
0.0055172
0.00538245
0.00585886
0.00596612
0.00626801
0.00645501
0.00621941
0.00592135
0.00506309
0.00406086
0.00617425
0.00673929
0.0072399
0.00740917
0.00733757
0.00680855
0.00639211
0.00569049
0.0052621
0.00482592
0.00478158
0.00463641
0.00511105
0.00508186
0.00551195
0.00562066
0.00536685
0.00509949
0.00423902
0.00369138
0.00521149
0.00581217
0.00603576
0.00615875
0.00591764
0.00573102
0.00536471
0.00483493
0.00437926
0.00409998
0.00393554
0.00366266
0.00394251
0.0042523
0.00456831
0.00459172
0.00434738
0.0040496
0.00371915
0.00277513
0.00416346
0.00448589
0.0048055
0.00483649
0.0047558
0.00467744
0.00413229
0.00377053
0.0035595
0.00318371
0.00323616
0.00306905
0.00320726
0.00325333
0.00365629
0.00366802
0.00354966
0.00322905
0.00265423
0.00237447
0.00300208
0.00338119
0.00343074
0.00336046
0.00335799
0.00312299
0.00305787
0.00280884
0.00233939
0.00226893
0.0023758
0.00232476
0.00234561
0.0024535
0.0025423
0.00270962
0.00251725
0.00230071
0.00230707
0.00174155
0.00183876
0.00209261
0.00221599
0.00212728
0.00218483
0.00227921
0.00191898
0.00165285
0.00171431
0.00155314
0.00139221
0.00150868
0.00136547
0.00135069
0.00168897
0.00155528
0.00141264
0.00148525
0.00119476
0.000910856
0.000609132
0.000578189
0.000846468
0.000780245
0.000671347
0.000549407
0.000382858
0.00063018
0.000465947
0.000397216
0.000616117
0.000428082
0.000509666
0.000543253
0.000628593
0.000485838
0.000505296
0.000455353
0.00027575
0.000264782
0.00721337
0.00832493
0.00913825
0.00953075
0.00961687
0.00939158
0.00916956
0.00828196
0.00787684
0.00745613
0.00706419
0.00707813
0.00724846
0.00740582
0.00758725
0.00758002
0.00712207
0.00611977
0.00524435
0.00384613
0.00636452
0.0072192
0.00801635
0.00861152
0.0085065
0.00819599
0.00788144
0.00725901
0.00680339
0.00652518
0.00650287
0.00629639
0.00657431
0.00657596
0.00648839
0.00662141
0.00619479
0.00555279
0.00453179
0.00357887
0.00553053
0.00609333
0.00702676
0.00714352
0.00739352
0.00706196
0.00669437
0.0064416
0.00589439
0.00552815
0.00548641
0.00554344
0.00545017
0.005767
0.00560736
0.00570432
0.00540526
0.00477923
0.00391513
0.00310232
0.00467587
0.00528323
0.00562799
0.00613685
0.00620347
0.00596721
0.00553619
0.00523124
0.00504778
0.00451121
0.0045194
0.0045018
0.00457964
0.00468859
0.00470978
0.00456017
0.00453834
0.00404852
0.0033028
0.00250554
0.00376995
0.00423688
0.00476532
0.0046264
0.00470268
0.00484144
0.00438227
0.00419978
0.0039986
0.00390123
0.00359487
0.00351269
0.00384127
0.00365446
0.00393235
0.00378567
0.00351135
0.00320884
0.00257319
0.00201619
0.00288598
0.00305995
0.00354235
0.00373602
0.00365868
0.00335517
0.00328082
0.00320949
0.00285314
0.00277126
0.00256114
0.00270121
0.00286206
0.00269225
0.00282315
0.00253086
0.00241592
0.00206496
0.0017268
0.00125495
0.00164505
0.00195147
0.00198789
0.00224884
0.00226498
0.00212314
0.00190802
0.00183519
0.00185923
0.00161621
0.00165278
0.00151194
0.0016794
0.00163203
0.00177381
0.00163255
0.00150805
0.00145562
0.00111685
0.000887369
0.000594931
0.000568999
0.000446394
0.000668457
0.000768737
0.000615657
0.000802723
0.000704781
0.00077064
0.000718506
0.000586584
0.000679888
0.000678902
0.000580495
0.00064579
0.000542783
0.00054617
0.000451488
0.000399612
0.000433353
0.00579618
0.0070112
0.00802461
0.00866013
0.009096
0.0090821
0.00901377
0.00866989
0.00809394
0.00782109
0.00781615
0.00754258
0.0075516
0.00745425
0.00736052
0.00701468
0.00626088
0.00543174
0.00406067
0.00259743
0.00520205
0.00636201
0.0070351
0.00763841
0.00817532
0.00805365
0.00783559
0.00743197
0.00719907
0.00689443
0.0065986
0.00673839
0.00648185
0.00649371
0.00646322
0.00619606
0.00556943
0.0045296
0.00345438
0.00222872
0.00453512
0.00541796
0.00616651
0.00671863
0.00701996
0.00695226
0.00685356
0.00633416
0.00622764
0.00599762
0.00568801
0.00581896
0.00567103
0.00565992
0.00571599
0.00526942
0.00475715
0.00392142
0.00286264
0.0018954
0.00379204
0.00457939
0.00518742
0.00563481
0.00584761
0.00568544
0.00588929
0.00526322
0.00529916
0.00496942
0.00459523
0.00460598
0.00463392
0.0044891
0.00472615
0.00425468
0.00388337
0.00317308
0.00242689
0.00137284
0.00331157
0.00370316
0.00404204
0.00454771
0.00485053
0.00449989
0.00468539
0.00434096
0.0041487
0.00379176
0.0038961
0.00404592
0.00367445
0.00382221
0.0035636
0.00333999
0.00289992
0.00259802
0.00204336
0.00117766
0.00221545
0.00270144
0.00306409
0.00332205
0.00343325
0.00336556
0.00324866
0.00319267
0.00310104
0.00286669
0.00253426
0.00273141
0.00268674
0.00283443
0.00265735
0.00255647
0.00221736
0.00191618
0.00114428
0.00113092
0.00141483
0.00174777
0.00191365
0.00201689
0.00221168
0.00209575
0.00190747
0.00196866
0.00180789
0.00170583
0.0018227
0.00164046
0.00191402
0.00143584
0.00160353
0.0014503
0.00136898
0.0012815
0.000984261
0.000462859
0.000719123
0.000504261
0.00058495
0.000878331
0.000627429
0.0006238
0.000661713
0.000772194
0.000578253
0.000630416
0.000377259
0.000624018
0.000470517
0.000621948
0.000594168
0.000529786
0.00048647
0.000310342
0.00040896
0.000200795
0.00391387
0.00519115
0.00658507
0.00750314
0.00808405
0.00819731
0.00811018
0.00825574
0.00775077
0.00747895
0.00740326
0.00708504
0.00711526
0.00671517
0.00634949
0.00585873
0.0050588
0.00374682
0.00215635
0.000642701
0.00348615
0.00448563
0.00564187
0.0065011
0.00703855
0.00733806
0.00725338
0.00716032
0.00668083
0.00652792
0.00656427
0.0063359
0.00611709
0.00582815
0.00556048
0.00496752
0.00426206
0.00325913
0.00193735
0.000671913
0.0031783
0.00413485
0.0052697
0.00569119
0.00627729
0.00627631
0.00615664
0.00601724
0.0061403
0.00564685
0.00592242
0.00555566
0.0053821
0.00518887
0.00480817
0.00429506
0.00378107
0.00281957
0.00146822
0.000509371
0.00269809
0.00341436
0.00421287
0.00479882
0.00505797
0.00529828
0.00526193
0.00507593
0.00503709
0.00467234
0.00441884
0.00437102
0.00424168
0.0041755
0.00412554
0.00372943
0.00289646
0.00239946
0.00138655
0.000345998
0.00231289
0.00273615
0.00332323
0.00389896
0.0041866
0.004164
0.00423157
0.00423211
0.00376573
0.0037973
0.00342355
0.00357248
0.00348132
0.00338211
0.00298351
0.00274688
0.00234511
0.00199468
0.00114028
0.00033938
0.00157157
0.00214749
0.00240838
0.00291881
0.00309486
0.00318991
0.00315725
0.00299464
0.00276435
0.00284044
0.00254815
0.00295563
0.00250818
0.00251061
0.00261682
0.00202095
0.00167519
0.00146333
0.000805304
0.000162617
0.0009196
0.00124661
0.00168632
0.00165162
0.00170937
0.00183
0.00194841
0.00192247
0.00157472
0.00150679
0.00162063
0.00168125
0.00147518
0.00147591
0.00146678
0.00125649
0.00106354
0.000902319
0.000539801
1.71389e-05
0.000222157
0.000492111
0.000467984
0.00076769
0.000500433
0.000434095
0.000301322
0.000694587
0.000541434
0.000614639
0.000622953
0.000588766
0.000652219
0.000319672
0.00051934
0.000418864
0.000455881
0.000167642
4.99228e-05
0.000235484
0.00114704
0.00273409
0.00415774
0.00569151
0.00619457
0.00677781
0.00684355
0.00679081
0.0067353
0.00654104
0.00633764
0.00604762
0.00547625
0.00538557
0.00481402
0.00407023
0.00275487
0.00135914
0.000251672
0.00197984
0.00114211
0.0022932
0.0037101
0.00483454
0.00556776
0.00589244
0.0060503
0.00622697
0.00585298
0.00564437
0.00555711
0.00537075
0.00526368
0.00464346
0.00415842
0.00339862
0.00237116
0.0011092
0.000337705
0.00186973
0.000945969
0.00205262
0.00337046
0.00411015
0.00454963
0.00506761
0.00515933
0.00510382
0.00518815
0.00488367
0.00460981
0.00459096
0.00424783
0.00392485
0.00378827
0.00314489
0.00217817
0.000890499
0.000474555
0.00166733
0.000970558
0.00187505
0.00278625
0.00361271
0.00422268
0.00427015
0.00435733
0.00433578
0.00426449
0.00406207
0.00391742
0.00384544
0.00364787
0.00325549
0.0028209
0.00243279
0.00165865
0.000757449
0.000262875
0.00123621
0.000482238
0.00130847
0.00218656
0.00278023
0.00322149
0.00327185
0.00365547
0.00347002
0.00356303
0.00335417
0.00324246
0.00292221
0.00280948
0.00260957
0.00235371
0.00185756
0.00152797
0.000651752
0.000380447
0.00105233
0.000683188
0.00103982
0.00169206
0.00198999
0.00244829
0.00259355
0.00261868
0.00240422
0.00232044
0.00248431
0.00230045
0.00201155
0.00201162
0.00192187
0.00175434
0.00128614
0.000918792
0.000375656
0.000303021
0.000665204
0.000432644
0.000817629
0.000921639
0.00139782
0.00145122
0.00145485
0.00151253
0.00136535
0.00124806
0.00159068
0.00128562
0.00133706
0.00133958
0.00138388
0.0010599
0.000837727
0.000480012
0.000177204
0.000256005
0.000504806
0.000215779
0.000514844
0.000400488
0.000197321
0.000441283
0.000581593
0.00058641
0.000563175
0.00050861
0.000581765
0.000607041
0.000569167
0.000415987
0.000248236
0.000387529
0.000467306
0.000198905
2.06442e-05
8.44158e-05
0.000117662
0.00209373
0.000206015
0.0013396
0.0028949
0.003926
0.00454388
0.00459455
0.00476816
0.00491816
0.00449962
0.00436872
0.00414479
0.00378311
0.00313305
0.00263539
0.00148353
0.000349978
0.00148653
0.00350651
0.00530263
0.00170212
0.000164032
0.00118609
0.00252875
0.00330662
0.00383631
0.00432887
0.00423821
0.00428171
0.00404654
0.00394514
0.00366642
0.00336288
0.00300339
0.00205257
0.00129773
4.26689e-05
0.00129998
0.00307062
0.00464555
0.00139509
0.000198712
0.000947699
0.0021479
0.0028295
0.0033358
0.00346377
0.00394407
0.00375138
0.00339258
0.00339853
0.00316455
0.00285502
0.00245709
0.00188502
0.00105208
1.38782e-06
0.00122177
0.00266267
0.00403211
0.00107868
0.000144505
0.000956315
0.00161824
0.0024199
0.00307201
0.00292334
0.00305832
0.00320085
0.00291796
0.00290021
0.00259777
0.00244875
0.00194819
0.0015221
0.000824597
0.000151312
0.00119799
0.00226732
0.00330104
0.00099469
1.36248e-05
0.000698478
0.00148419
0.00199584
0.00226934
0.00231734
0.00263385
0.00238447
0.0023153
0.00226735
0.00214959
0.00200071
0.00157526
0.00114874
0.00066254
0.000106557
0.000822189
0.00188105
0.00288154
0.0006174
3.85657e-06
0.000496492
0.00097203
0.00146412
0.00159234
0.00176534
0.00183963
0.00175718
0.00164958
0.00141796
0.00145482
0.00135989
0.00120101
0.00098123
0.000506046
6.66191e-05
0.00043878
0.00112811
0.0021112
0.000244239
2.49875e-05
0.000486063
0.000483727
0.000690927
0.000939998
0.00112199
0.000892752
0.00113781
0.00103019
0.00091831
0.00097694
0.00070668
0.000651151
0.000468992
0.000267042
1.74563e-05
0.000425615
0.000776611
0.0010931
5.25568e-05
4.25728e-05
0.00024708
0.00030402
0.000272672
0.000226302
0.000340031
0.000352456
0.000579102
0.000267509
0.000227321
0.000268393
0.000320092
0.00033018
0.000293919
0.000119669
2.33479e-05
0.000102573
0.000283882
0.000120358
0.00585551
0.00410224
0.00233468
0.000484633
0.000688995
0.00137032
0.00184984
0.00225191
0.00234576
0.00217531
0.00188252
0.00154237
0.00115504
0.000406553
0.000623064
0.00161362
0.00319725
0.00491353
0.00712455
0.00905648
0.0051658
0.00348139
0.00181026
0.000519781
0.000772843
0.00129904
0.00183644
0.00164798
0.00206199
0.0021904
0.00181917
0.00142915
0.000991847
0.000300235
0.000415556
0.0014736
0.00302497
0.00438157
0.00637083
0.00819169
0.00428215
0.00304514
0.00174667
0.000385764
0.000479687
0.00115569
0.0013717
0.00165114
0.00155596
0.00154563
0.00156045
0.00127082
0.000792669
0.000336446
0.000242449
0.00147872
0.00241547
0.00392599
0.00551767
0.00699406
0.0035881
0.0025847
0.00138414
6.53913e-05
0.000508716
0.000830175
0.00145385
0.00125577
0.00164362
0.00147861
0.000967087
0.000820615
0.000593034
0.00023063
0.000542181
0.00102161
0.00243758
0.003296
0.00479072
0.00567494
0.00287521
0.00179214
0.000995853
0.000140147
0.000437141
0.000803448
0.000846556
0.0010441
0.00113239
0.00106461
0.000748803
0.000700504
0.000463124
4.4798e-06
0.000427967
0.000698559
0.00164693
0.00266343
0.00357068
0.00468628
0.00214762
0.00144084
0.00061459
0.000204581
0.000153252
0.00052441
0.000567643
0.000727777
0.000789876
0.000780277
0.000818195
0.000465741
0.000417477
0.000236202
8.88139e-07
0.000771828
0.00121544
0.00190769
0.002751
0.0030805
0.00110841
0.000993144
0.000381166
3.98949e-05
0.000246085
0.000219503
0.000217731
0.000532008
0.000462408
0.000443786
0.000195459
0.000279568
0.000178791
1.54374e-05
0.000113213
0.000509243
0.000805839
0.000981325
0.00168928
0.00211058
0.000438365
0.000322976
0.000222138
2.91635e-05
1.73443e-05
0.00022931
0.000291678
0.000168392
0.000428581
6.38001e-05
7.85458e-05
0.00010568
0.000149711
2.29468e-06
3.04306e-05
1.09304e-05
0.000222225
0.000337325
0.000677871
0.000818846
0.0103401
0.00846741
0.00609037
0.00456728
0.00322484
0.00238751
0.00163775
0.00119946
0.001062
0.00117375
0.00134386
0.00153638
0.00229364
0.00298474
0.00390647
0.00543393
0.00720121
0.00919545
0.0113943
0.013679
0.00887713
0.00726878
0.00558621
0.00399756
0.00291846
0.00214423
0.00161255
0.00128964
0.00101321
0.000863981
0.00132068
0.00153142
0.00197873
0.00270854
0.00381342
0.00489868
0.00640978
0.00806269
0.0102113
0.0119869
0.0077392
0.00628731
0.00483183
0.00370641
0.00236194
0.00149699
0.00128555
0.000837389
0.00062481
0.000909703
0.00116121
0.00145503
0.00188376
0.00216188
0.00324981
0.00434254
0.00553482
0.00701426
0.00880664
0.0103512
0.00637337
0.00525059
0.00396054
0.00275215
0.00193567
0.00135084
0.000975302
0.000627542
0.000751552
0.000475033
0.00107394
0.00123087
0.00146596
0.00189222
0.00277003
0.00364317
0.00452868
0.00590103
0.00737602
0.00875997
0.00495117
0.00422385
0.0030579
0.00226751
0.00147844
0.000988245
0.000616137
0.000643463
0.000579167
0.000439923
0.000746334
0.000731831
0.00127619
0.00169287
0.00241806
0.00294674
0.00368682
0.0047494
0.00589228
0.00679586
0.00379425
0.00276024
0.00248288
0.00157839
0.000965911
0.000490911
0.000665351
0.000358983
0.000469304
0.000465579
0.00061005
0.000748179
0.000736872
0.00108066
0.00159356
0.00234593
0.00251202
0.00363874
0.0041485
0.00485721
0.00238524
0.00185484
0.00142331
0.00100103
0.00089921
0.000458539
0.000253796
0.000475487
0.000198064
0.000341281
0.000479984
0.000169404
0.000648617
0.000747765
0.00128807
0.00149258
0.00182873
0.00217316
0.00277095
0.00318135
0.000760895
0.000786125
0.000488231
0.000238308
0.000182836
8.74695e-05
2.52415e-05
0.000126562
3.46113e-05
0.000166911
0.000205876
0.000191698
0.000243972
0.000403922
0.000327728
0.00037455
0.000595166
0.000682282
0.000963056
0.00107381
0.0151856
0.0130967
0.0109715
0.00914296
0.00772434
0.0065807
0.00590056
0.00539137
0.00501038
0.00501282
0.00534539
0.00571455
0.00630112
0.0073305
0.00845279
0.00976285
0.0117503
0.0139346
0.0161608
0.0185079
0.0135309
0.0116156
0.00964688
0.00816559
0.0066593
0.00581605
0.00496534
0.00474104
0.00450336
0.00469401
0.00475077
0.00483286
0.00555455
0.00647511
0.00756609
0.00878472
0.0104506
0.012359
0.0145064
0.0166122
0.0113822
0.00995523
0.00826802
0.00707641
0.00564967
0.00512169
0.00441628
0.00390771