/*--------------------------------*- C++ -*----------------------------------*\
| =========                 |                                                 |
| \\      /  F ield         | OpenFOAM: The Open Source CFD Toolbox           |
|  \\    /   O peration     | Version:  2212                                  |
|   \\  /    A nd           | Website:  www.openfoam.com                      |
|    \\/     M anipulation  |                                                 |
\*---------------------------------------------------------------------------*/
FoamFile
{
    version     2.0;
    format      ascii;
    arch        "LSB;label=32;scalar=64";
    class       volScalarField;
    location    "./ITHACAoutput/true/2.7";
    object      trueState;
}
// * * * * * * * * * * * * * * * * * * * * * * * * * * * * * * * * * * * * * //

dimensions      [0 0 0 1 0 0 0];

internalField   nonuniform List<scalar> 
3200
(
342.952
343.907
345.126
346.455
347.824
349.167
350.407
351.454
352.217
352.619
352.619
352.217
351.454
350.407
349.167
347.824
346.455
345.126
343.907
342.952
337.256
338.064
339.116
340.266
341.45
342.612
343.684
344.588
345.247
345.595
345.595
345.247
344.588
343.684
342.612
341.45
340.266
339.116
338.064
337.256
331.548
332.218
333.104
334.076
335.077
336.058
336.963
337.727
338.282
338.576
338.576
338.282
337.727
336.963
336.058
335.077
334.076
333.104
332.218
331.548
325.829
326.369
327.092
327.885
328.703
329.506
330.245
330.868
331.322
331.561
331.561
331.322
330.868
330.245
329.506
328.703
327.885
327.092
326.369
325.829
320.103
320.518
321.078
321.695
322.331
322.954
323.528
324.012
324.364
324.55
324.55
324.364
324.012
323.528
322.954
322.331
321.695
321.078
320.518
320.103
314.371
314.664
315.063
315.504
315.958
316.403
316.813
317.159
317.41
317.542
317.542
317.41
317.159
316.813
316.403
315.958
315.504
315.063
314.664
314.371
308.634
308.809
309.049
309.313
309.586
309.853
310.099
310.306
310.457
310.536
310.536
310.457
310.306
310.099
309.853
309.586
309.313
309.049
308.809
308.634
302.894
302.953
303.033
303.122
303.213
303.303
303.385
303.455
303.505
303.532
303.532
303.505
303.455
303.385
303.303
303.213
303.122
303.033
302.953
302.894
343.057
344.004
345.213
346.529
347.884
349.213
350.438
351.472
352.224
352.622
352.622
352.224
351.472
350.438
349.213
347.884
346.529
345.213
344.004
343.057
337.346
338.148
339.191
340.33
341.502
342.651
343.711
344.604
345.254
345.597
345.597
345.254
344.604
343.711
342.651
341.502
340.33
339.191
338.148
337.346
331.624
332.289
333.167
334.13
335.121
336.092
336.986
337.74
338.288
338.578
338.578
338.288
337.74
336.986
336.092
335.121
334.13
333.167
332.289
331.624
325.892
326.427
327.143
327.93
328.739
329.533
330.264
330.879
331.327
331.563
331.563
331.327
330.879
330.264
329.533
328.739
327.93
327.143
326.427
325.892
320.151
320.563
321.118
321.729
322.359
322.975
323.543
324.021
324.369
324.552
324.552
324.369
324.021
323.543
322.975
322.359
321.729
321.118
320.563
320.151
314.405
314.696
315.092
315.529
315.978
316.418
316.824
317.165
317.413
317.544
317.544
317.413
317.165
316.824
316.418
315.978
315.529
315.092
314.696
314.405
308.655
308.828
309.066
309.328
309.598
309.862
310.105
310.31
310.459
310.537
310.537
310.459
310.31
310.105
309.862
309.598
309.328
309.066
308.828
308.655
302.901
302.959
303.039
303.127
303.217
303.306
303.387
303.456
303.506
303.532
303.532
303.506
303.456
303.387
303.306
303.217
303.127
303.039
302.959
302.901
343.267
344.199
345.387
346.679
348.007
349.307
350.504
351.512
352.246
352.633
352.633
352.246
351.512
350.504
349.307
348.007
346.679
345.387
344.199
343.267
337.528
338.317
339.342
340.46
341.609
342.733
343.768
344.64
345.273
345.607
345.607
345.273
344.64
343.768
342.733
341.609
340.46
339.342
338.317
337.528
331.777
332.432
333.295
334.24
335.211
336.161
337.035
337.771
338.305
338.587
338.587
338.305
337.771
337.035
336.161
335.211
334.24
333.295
332.432
331.777
326.017
326.544
327.248
328.019
328.813
329.59
330.304
330.904
331.341
331.571
331.571
331.341
330.904
330.304
329.59
328.813
328.019
327.248
326.544
326.017
320.248
320.653
321.199
321.799
322.416
323.02
323.574
324.041
324.38
324.558
324.558
324.38
324.041
323.574
323.02
322.416
321.799
321.199
320.653
320.248
314.474
314.761
315.15
315.578
316.019
316.45
316.846
317.179
317.421
317.548
317.548
317.421
317.179
316.846
316.45
316.019
315.578
315.15
314.761
314.474
308.696
308.867
309.101
309.358
309.622
309.881
310.119
310.319
310.464
310.54
310.54
310.464
310.319
310.119
309.881
309.622
309.358
309.101
308.867
308.696
302.915
302.972
303.051
303.137
303.225
303.312
303.392
303.459
303.507
303.533
303.533
303.507
303.459
303.392
303.312
303.225
303.137
303.051
302.972
302.915
343.584
344.495
345.653
346.91
348.198
349.456
350.613
351.585
352.291
352.663
352.663
352.291
351.585
350.613
349.456
348.198
346.91
345.653
344.495
343.584
337.802
338.573
339.572
340.659
341.774
342.863
343.863
344.703
345.313
345.635
345.635
345.313
344.703
343.863
342.863
341.774
340.659
339.572
338.573
337.802
332.008
332.648
333.49
334.408
335.351
336.271
337.115
337.825
338.34
338.611
338.611
338.34
337.825
337.115
336.271
335.351
334.408
333.49
332.648
332.008
326.206
326.72
327.407
328.158
328.928
329.68
330.37
330.949
331.37
331.591
331.591
331.37
330.949
330.37
329.68
328.928
328.158
327.407
326.72
326.206
320.395
320.79
321.323
321.906
322.505
323.09
323.626
324.076
324.402
324.574
324.574
324.402
324.076
323.626
323.09
322.505
321.906
321.323
320.79
320.395
314.579
314.859
315.238
315.655
316.083
316.5
316.883
317.204
317.437
317.56
317.56
317.437
317.204
316.883
316.5
316.083
315.655
315.238
314.859
314.579
308.759
308.926
309.154
309.404
309.661
309.911
310.141
310.334
310.473
310.547
310.547
310.473
310.334
310.141
309.911
309.661
309.404
309.154
308.926
308.759
302.936
302.992
303.068
303.152
303.238
303.322
303.399
303.464
303.511
303.535
303.535
303.511
303.464
303.399
303.322
303.238
303.152
303.068
302.992
302.936
344.012
344.894
346.015
347.226
348.465
349.671
350.776
351.703
352.374
352.728
352.728
352.374
351.703
350.776
349.671
348.465
347.226
346.015
344.894
344.012
338.171
338.918
339.885
340.933
342.005
343.049
344.005
344.806
345.387
345.692
345.692
345.387
344.806
344.005
343.049
342.005
340.933
339.885
338.918
338.171
332.32
332.94
333.754
334.64
335.547
336.429
337.236
337.913
338.402
338.66
338.66
338.402
337.913
337.236
336.429
335.547
334.64
333.754
332.94
332.32
326.46
326.959
327.623
328.347
329.088
329.809
330.469
331.021
331.421
331.632
331.632
331.421
331.021
330.469
329.809
329.088
328.347
327.623
326.959
326.46
320.593
320.976
321.491
322.054
322.63
323.19
323.703
324.132
324.443
324.606
324.606
324.443
324.132
323.703
323.19
322.63
322.054
321.491
320.976
320.593
314.72
314.991
315.358
315.76
316.172
316.572
316.938
317.245
317.466
317.583
317.583
317.466
317.245
316.938
316.572
316.172
315.76
315.358
314.991
314.72
308.844
309.006
309.226
309.467
309.714
309.954
310.174
310.358
310.491
310.561
310.561
310.491
310.358
310.174
309.954
309.714
309.467
309.226
309.006
308.844
302.965
303.019
303.093
303.173
303.256
303.337
303.41
303.472
303.517
303.54
303.54
303.517
303.472
303.41
303.337
303.256
303.173
303.093
303.019
302.965
344.553
345.403
346.478
347.637
348.817
349.962
351.007
351.882
352.514
352.846
352.846
352.514
351.882
351.007
349.962
348.817
347.637
346.478
345.403
344.553
338.639
339.358
340.286
341.289
342.31
343.301
344.206
344.962
345.508
345.796
345.796
345.508
344.962
344.206
343.301
342.31
341.289
340.286
339.358
338.639
332.715
333.312
334.093
334.941
335.805
336.642
337.407
338.045
338.506
338.749
338.749
338.506
338.045
337.407
336.642
335.805
334.941
334.093
333.312
332.715
326.783
327.263
327.9
328.593
329.299
329.984
330.609
331.13
331.507
331.705
331.705
331.507
331.13
330.609
329.984
329.299
328.593
327.9
327.263
326.783
320.843
321.212
321.706
322.245
322.794
323.326
323.812
324.217
324.51
324.664
324.664
324.51
324.217
323.812
323.326
322.794
322.245
321.706
321.212
320.843
314.899
315.16
315.512
315.897
316.289
316.669
317.016
317.305
317.514
317.624
317.624
317.514
317.305
317.016
316.669
316.289
315.897
315.512
315.16
314.899
308.951
309.107
309.318
309.549
309.784
310.013
310.221
310.395
310.52
310.586
310.586
310.52
310.395
310.221
310.013
309.784
309.549
309.318
309.107
308.951
303.001
303.053
303.124
303.201
303.28
303.356
303.426
303.484
303.526
303.548
303.548
303.526
303.484
303.426
303.356
303.28
303.201
303.124
303.053
303.001
345.212
346.024
347.049
348.149
349.264
350.342
351.322
352.139
352.728
353.037
353.037
352.728
352.139
351.322
350.342
349.264
348.149
347.049
346.024
345.212
339.209
339.896
340.78
341.732
342.698
343.631
344.479
345.186
345.695
345.962
345.962
345.695
345.186
344.479
343.631
342.698
341.732
340.78
339.896
339.209
333.196
333.766
334.511
335.316
336.132
336.921
337.638
338.235
338.665
338.891
338.891
338.665
338.235
337.638
336.921
336.132
335.316
334.511
333.766
333.196
327.175
327.634
328.241
328.899
329.567
330.212
330.798
331.286
331.637
331.822
331.822
331.637
331.286
330.798
330.212
329.567
328.899
328.241
327.634
327.175
321.148
321.501
321.972
322.483
323.002
323.504
323.959
324.338
324.611
324.755
324.755
324.611
324.338
323.959
323.504
323.002
322.483
321.972
321.501
321.148
315.117
315.366
315.702
316.067
316.438
316.796
317.121
317.392
317.587
317.689
317.689
317.587
317.392
317.121
316.796
316.438
316.067
315.702
315.366
315.117
309.082
309.231
309.432
309.651
309.874
310.089
310.284
310.447
310.564
310.625
310.625
310.564
310.447
310.284
310.089
309.874
309.651
309.432
309.231
309.082
303.045
303.094
303.162
303.235
303.31
303.382
303.447
303.502
303.541
303.562
303.562
303.541
303.502
303.447
303.382
303.31
303.235
303.162
303.094
303.045
345.993
346.765
347.735
348.771
349.818
350.824
351.736
352.492
353.036
353.321
353.321
353.036
352.492
351.736
350.824
349.818
348.771
347.735
346.765
345.993
339.884
340.537
341.374
342.271
343.177
344.049
344.838
345.492
345.963
346.21
346.21
345.963
345.492
344.838
344.049
343.177
342.271
341.374
340.537
339.884
333.766
334.308
335.013
335.771
336.538
337.274
337.941
338.495
338.892
339.1
339.1
338.892
338.495
337.941
337.274
336.538
335.771
335.013
334.308
333.766
327.641
328.077
328.652
329.272
329.899
330.501
331.046
331.499
331.824
331.994
331.994
331.824
331.499
331.046
330.501
329.899
329.272
328.652
328.077
327.641
321.51
321.845
322.291
322.773
323.26
323.729
324.153
324.504
324.757
324.889
324.889
324.757
324.504
324.153
323.729
323.26
322.773
322.291
321.845
321.51
315.375
315.612
315.93
316.274
316.622
316.957
317.26
317.511
317.691
317.785
317.785
317.691
317.511
317.26
316.957
316.622
316.274
315.93
315.612
315.375
309.237
309.378
309.569
309.775
309.984
310.185
310.367
310.518
310.626
310.683
310.683
310.626
310.518
310.367
310.185
309.984
309.775
309.569
309.378
309.237
303.096
303.144
303.208
303.277
303.347
303.414
303.475
303.526
303.562
303.581
303.581
303.562
303.526
303.475
303.414
303.347
303.277
303.208
303.144
303.096
346.901
347.63
348.542
349.513
350.488
351.421
352.262
352.958
353.457
353.717
353.717
353.457
352.958
352.262
351.421
350.488
349.513
348.542
347.63
346.901
340.669
341.286
342.073
342.913
343.758
344.566
345.294
345.896
346.328
346.553
346.553
346.328
345.896
345.294
344.566
343.758
342.913
342.073
341.286
340.669
334.429
334.94
335.604
336.314
337.028
337.712
338.328
338.837
339.201
339.392
339.392
339.201
338.837
338.328
337.712
337.028
336.314
335.604
334.94
334.429
328.182
328.594
329.135
329.716
330.3
330.859
331.362
331.779
332.077
332.232
332.232
332.077
331.779
331.362
330.859
330.3
329.716
329.135
328.594
328.182
321.931
322.247
322.666
323.118
323.572
324.007
324.398
324.722
324.954
325.075
325.075
324.954
324.722
324.398
324.007
323.572
323.118
322.666
322.247
321.931
315.675
315.899
316.198
316.52
316.845
317.156
317.435
317.666
317.832
317.918
317.918
317.832
317.666
317.435
317.156
316.845
316.52
316.198
315.899
315.675
309.417
309.55
309.73
309.923
310.118
310.305
310.473
310.611
310.711
310.763
310.763
310.711
310.611
310.473
310.305
310.118
309.923
309.73
309.55
309.417
303.157
303.201
303.262
303.326
303.392
303.454
303.511
303.557
303.59
303.608
303.608
303.59
303.557
303.511
303.454
303.392
303.326
303.262
303.201
303.157
347.94
348.625
349.479
350.382
351.285
352.145
352.916
353.552
354.006
354.243
354.243
354.006
353.552
352.916
352.145
351.285
350.382
349.479
348.625
347.94
341.567
342.147
342.883
343.666
344.448
345.193
345.861
346.411
346.804
347.009
347.009
346.804
346.411
345.861
345.193
344.448
343.666
342.883
342.147
341.567
335.187
335.668
336.289
336.95
337.612
338.242
338.807
339.272
339.604
339.777
339.777
339.604
339.272
338.807
338.242
337.612
336.95
336.289
335.668
335.187
328.802
329.189
329.695
330.236
330.777
331.292
331.754
332.135
332.406
332.548
332.548
332.406
332.135
331.754
331.292
330.777
330.236
329.695
329.189
328.802
322.412
322.709
323.102
323.522
323.943
324.344
324.703
324.999
325.21
325.32
325.32
325.21
324.999
324.703
324.344
323.943
323.522
323.102
322.709
322.412
316.019
316.229
316.509
316.809
317.11
317.396
317.653
317.864
318.015
318.094
318.094
318.015
317.864
317.653
317.396
317.11
316.809
316.509
316.229
316.019
309.623
309.749
309.916
310.097
310.277
310.449
310.604
310.73
310.821
310.868
310.868
310.821
310.73
310.604
310.449
310.277
310.097
309.916
309.749
309.623
303.226
303.268
303.324
303.385
303.445
303.503
303.554
303.597
303.627
303.643
303.643
303.627
303.597
303.554
303.503
303.445
303.385
303.324
303.268
303.226
349.115
349.755
350.55
351.387
352.219
353.007
353.71
354.287
354.698
354.912
354.912
354.698
354.287
353.71
353.007
352.219
351.387
350.55
349.755
349.115
342.583
343.125
343.81
344.535
345.256
345.939
346.548
347.048
347.404
347.589
347.589
347.404
347.048
346.548
345.939
345.256
344.535
343.81
343.125
342.583
336.045
336.494
337.072
337.685
338.295
338.872
339.388
339.811
340.112
340.268
340.268
340.112
339.811
339.388
338.872
338.295
337.685
337.072
336.494
336.045
329.503
329.864
330.335
330.837
331.335
331.808
332.23
332.575
332.821
332.95
332.95
332.821
332.575
332.23
331.808
331.335
330.837
330.335
329.864
329.503
322.956
323.234
323.6
323.989
324.377
324.745
325.073
325.342
325.533
325.633
325.633
325.533
325.342
325.073
324.745
324.377
323.989
323.6
323.234
322.956
316.407
316.604
316.865
317.143
317.42
317.683
317.917
318.109
318.246
318.317
318.317
318.246
318.109
317.917
317.683
317.42
317.143
316.865
316.604
316.407
309.856
309.974
310.13
310.297
310.464
310.621
310.762
310.877
310.959
311.002
311.002
310.959
310.877
310.762
310.621
310.464
310.297
310.13
309.974
309.856
303.304
303.343
303.396
303.452
303.507
303.56
303.608
303.646
303.674
303.688
303.688
303.674
303.646
303.608
303.56
303.507
303.452
303.396
303.343
303.304
350.429
351.025
351.762
352.534
353.296
354.015
354.654
355.175
355.546
355.738
355.738
355.546
355.175
354.654
354.015
353.296
352.534
351.762
351.025
350.429
343.719
344.224
344.859
345.528
346.189
346.811
347.365
347.817
348.137
348.304
348.304
348.137
347.817
347.365
346.811
346.189
345.528
344.859
344.224
343.719
337.005
337.423
337.959
338.524
339.083
339.61
340.079
340.461
340.732
340.873
340.873
340.732
340.461
340.079
339.61
339.083
338.524
337.959
337.423
337.005
330.287
330.623
331.06
331.522
331.98
332.411
332.794
333.107
333.329
333.444
333.444
333.329
333.107
332.794
332.411
331.98
331.522
331.06
330.623
330.287
323.566
323.824
324.163
324.522
324.878
325.214
325.512
325.755
325.928
326.017
326.017
325.928
325.755
325.512
325.214
324.878
324.522
324.163
323.824
323.566
316.842
317.025
317.267
317.524
317.778
318.018
318.231
318.404
318.528
318.592
318.592
318.528
318.404
318.231
318.018
317.778
317.524
317.267
317.025
316.842
310.117
310.227
310.372
310.526
310.679
310.822
310.95
311.055
311.129
311.167
311.167
311.129
311.055
310.95
310.822
310.679
310.526
310.372
310.227
310.117
303.392
303.428
303.477
303.528
303.58
303.628
303.671
303.706
303.73
303.743
303.743
303.73
303.706
303.671
303.628
303.58
303.528
303.477
303.428
303.392
351.885
352.439
353.119
353.828
354.525
355.178
355.755
356.225
356.557
356.73
356.73
356.557
356.225
355.755
355.178
354.525
353.828
353.119
352.439
351.885
344.979
345.447
346.034
346.648
347.252
347.818
348.318
348.725
349.013
349.163
349.163
349.013
348.725
348.318
347.818
347.252
346.648
346.034
345.447
344.979
338.069
338.457
338.951
339.471
339.982
340.461
340.884
341.229
341.473
341.599
341.599
341.473
341.229
340.884
340.461
339.982
339.471
338.951
338.457
338.069
331.156
331.468
331.872
332.296
332.715
333.107
333.453
333.735
333.934
334.038
334.038
333.934
333.735
333.453
333.107
332.715
332.296
331.872
331.468
331.156
324.241
324.481
324.794
325.124
325.449
325.754
326.024
326.243
326.398
326.479
326.479
326.398
326.243
326.024
325.754
325.449
325.124
324.794
324.481
324.241
317.325
317.494
317.717
317.953
318.186
318.404
318.596
318.753
318.864
318.921
318.921
318.864
318.753
318.596
318.404
318.186
317.953
317.717
317.494
317.325
310.407
310.508
310.642
310.784
310.923
311.054
311.17
311.264
311.331
311.365
311.365
311.331
311.264
311.17
311.054
310.923
310.784
310.642
310.508
310.407
303.489
303.522
303.567
303.615
303.662
303.705
303.744
303.776
303.798
303.81
303.81
303.798
303.776
303.744
303.705
303.662
303.615
303.567
303.522
303.489
353.487
353.998
354.624
355.274
355.908
356.5
357.02
357.442
357.74
357.894
357.894
357.74
357.442
357.02
356.5
355.908
355.274
354.624
353.998
353.487
346.363
346.796
347.337
347.899
348.449
348.962
349.413
349.779
350.037
350.17
350.17
350.037
349.779
349.413
348.962
348.449
347.899
347.337
346.796
346.363
339.238
339.597
340.052
340.528
340.994
341.428
341.81
342.119
342.337
342.45
342.45
342.337
342.119
341.81
341.428
340.994
340.528
340.052
339.597
339.238
332.111
332.4
332.772
333.161
333.542
333.897
334.209
334.463
334.641
334.734
334.734
334.641
334.463
334.209
333.897
333.542
333.161
332.772
332.4
332.111
324.983
325.205
325.493
325.796
326.092
326.369
326.612
326.809
326.948
327.02
327.02
326.948
326.809
326.612
326.369
326.092
325.796
325.493
325.205
324.983
317.855
318.011
318.217
318.433
318.645
318.842
319.016
319.157
319.256
319.308
319.308
319.256
319.157
319.016
318.842
318.645
318.433
318.217
318.011
317.855
310.725
310.819
310.942
311.072
311.199
311.318
311.422
311.507
311.566
311.597
311.597
311.566
311.507
311.422
311.318
311.199
311.072
310.942
310.819
310.725
303.595
303.626
303.668
303.711
303.754
303.794
303.829
303.857
303.877
303.887
303.887
303.877
303.857
303.829
303.794
303.754
303.711
303.668
303.626
303.595
355.232
355.704
356.279
356.872
357.448
357.983
358.451
358.829
359.095
359.232
359.232
359.095
358.829
358.451
357.983
357.448
356.872
356.279
355.704
355.232
347.872
348.272
348.768
349.281
349.781
350.245
350.651
350.978
351.209
351.328
351.328
351.209
350.978
350.651
350.245
349.781
349.281
348.768
348.272
347.872
340.512
340.843
341.262
341.696
342.119
342.511
342.855
343.132
343.327
343.428
343.428
343.327
343.132
342.855
342.511
342.119
341.696
341.262
340.843
340.512
333.152
333.419
333.76
334.115
334.461
334.782
335.064
335.291
335.45
335.533
335.533
335.45
335.291
335.064
334.782
334.461
334.115
333.76
333.419
333.152
325.792
325.996
326.261
326.537
326.807
327.057
327.276
327.452
327.576
327.641
327.641
327.576
327.452
327.276
327.057
326.807
326.537
326.261
325.996
325.792
318.432
318.576
318.765
318.962
319.155
319.334
319.49
319.616
319.705
319.751
319.751
319.705
319.616
319.49
319.334
319.155
318.962
318.765
318.576
318.432
311.072
311.158
311.271
311.39
311.505
311.613
311.707
311.782
311.836
311.863
311.863
311.836
311.782
311.707
311.613
311.505
311.39
311.271
311.158
311.072
303.711
303.74
303.778
303.818
303.857
303.893
303.924
303.949
303.967
303.977
303.977
303.967
303.949
303.924
303.893
303.857
303.818
303.778
303.74
303.711
357.116
357.55
358.077
358.617
359.14
359.622
360.043
360.381
360.618
360.741
360.741
360.618
360.381
360.043
359.622
359.14
358.617
358.077
357.55
357.116
349.5
349.867
350.322
350.79
351.243
351.662
352.027
352.32
352.526
352.632
352.632
352.526
352.32
352.027
351.662
351.243
350.79
350.322
349.867
349.5
341.886
342.19
342.574
342.97
343.353
343.708
344.017
344.265
344.439
344.529
344.529
344.439
344.265
344.017
343.708
343.353
342.97
342.574
342.19
341.886
334.273
334.519
334.831
335.155
335.469
335.759
336.012
336.215
336.358
336.431
336.431
336.358
336.215
336.012
335.759
335.469
335.155
334.831
334.519
334.273
326.663
326.851
327.093
327.345
327.59
327.815
328.012
328.17
328.281
328.339
328.339
328.281
328.17
328.012
327.815
327.59
327.345
327.093
326.851
326.663
319.053
319.186
319.359
319.539
319.714
319.875
320.016
320.129
320.208
320.249
320.249
320.208
320.129
320.016
319.875
319.714
319.539
319.359
319.186
319.053
311.444
311.524
311.627
311.736
311.841
311.938
312.022
312.09
312.138
312.162
312.162
312.138
312.09
312.022
311.938
311.841
311.736
311.627
311.524
311.444
303.836
303.863
303.897
303.934
303.969
304.001
304.03
304.053
304.068
304.077
304.077
304.068
304.053
304.03
304.001
303.969
303.934
303.897
303.863
303.836
359.119
359.518
360
360.492
360.966
361.401
361.779
362.082
362.293
362.402
362.402
362.293
362.082
361.779
361.401
360.966
360.492
360
359.518
359.119
351.227
351.565
351.981
352.408
352.819
353.196
353.524
353.787
353.97
354.065
354.065
353.97
353.787
353.524
353.196
352.819
352.408
351.981
351.565
351.227
343.341
343.621
343.972
344.333
344.681
345.001
345.278
345.501
345.656
345.736
345.736
345.656
345.501
345.278
345.001
344.681
344.333
343.972
343.621
343.341
335.46
335.685
335.971
336.267
336.552
336.813
337.041
337.223
337.35
337.416
337.416
337.35
337.223
337.041
336.813
336.552
336.267
335.971
335.685
335.46
327.583
327.756
327.978
328.207
328.429
328.633
328.81
328.952
329.051
329.102
329.102
329.051
328.952
328.81
328.633
328.429
328.207
327.978
327.756
327.583
319.709
319.831
319.99
320.154
320.312
320.458
320.585
320.686
320.757
320.793
320.793
320.757
320.686
320.585
320.458
320.312
320.154
319.99
319.831
319.709
311.838
311.911
312.006
312.104
312.2
312.287
312.363
312.424
312.467
312.489
312.489
312.467
312.424
312.363
312.287
312.2
312.104
312.006
311.911
311.838
303.968
303.992
304.024
304.057
304.089
304.119
304.144
304.164
304.179
304.186
304.186
304.179
304.164
304.144
304.119
304.089
304.057
304.024
303.992
303.968
361.188
361.556
361.998
362.447
362.877
363.27
363.611
363.882
364.072
364.169
364.169
364.072
363.882
363.611
363.27
362.877
362.447
361.998
361.556
361.188
353.004
353.315
353.696
354.086
354.459
354.801
355.096
355.332
355.496
355.581
355.581
355.496
355.332
355.096
354.801
354.459
354.086
353.696
353.315
353.004
344.832
345.09
345.411
345.741
346.058
346.347
346.597
346.797
346.936
347.008
347.008
346.936
346.797
346.597
346.347
346.058
345.741
345.411
345.09
344.832
336.671
336.878
337.141
337.411
337.67
337.907
338.112
338.276
338.39
338.449
338.449
338.39
338.276
338.112
337.907
337.67
337.411
337.141
336.878
336.671
328.519
328.678
328.882
329.092
329.294
329.479
329.638
329.766
329.855
329.9
329.9
329.855
329.766
329.638
329.479
329.294
329.092
328.882
328.678
328.519
320.375
320.488
320.633
320.783
320.927
321.06
321.174
321.265
321.328
321.361
321.361
321.328
321.265
321.174
321.06
320.927
320.783
320.633
320.488
320.375
312.237
312.304
312.391
312.481
312.568
312.647
312.716
312.771
312.809
312.828
312.828
312.809
312.771
312.716
312.647
312.568
312.481
312.391
312.304
312.237
304.101
304.124
304.153
304.183
304.212
304.239
304.262
304.28
304.293
304.3
304.3
304.293
304.28
304.262
304.239
304.212
304.183
304.153
304.124
304.101
363.192
363.531
363.938
364.351
364.745
365.103
365.412
365.658
365.829
365.917
365.917
365.829
365.658
365.412
365.103
364.745
364.351
363.938
363.531
363.192
354.703
354.99
355.342
355.701
356.043
356.355
356.623
356.837
356.986
357.062
357.062
356.986
356.837
356.623
356.355
356.043
355.701
355.342
354.99
354.703
346.242
346.48
346.778
347.081
347.372
347.636
347.864
348.045
348.172
348.237
348.237
348.172
348.045
347.864
347.636
347.372
347.081
346.778
346.48
346.242
337.805
337.997
338.24
338.489
338.727
338.944
339.131
339.28
339.383
339.437
339.437
339.383
339.28
339.131
338.944
338.727
338.489
338.24
337.997
337.805
329.39
329.537
329.726
329.92
330.105
330.274
330.42
330.536
330.617
330.658
330.658
330.617
330.536
330.42
330.274
330.105
329.92
329.726
329.537
329.39
320.991
321.095
321.23
321.369
321.501
321.622
321.726
321.809
321.867
321.897
321.897
321.867
321.809
321.726
321.622
321.501
321.369
321.23
321.095
320.991
312.604
312.666
312.747
312.83
312.91
312.983
313.046
313.095
313.13
313.148
313.148
313.13
313.095
313.046
312.983
312.91
312.83
312.747
312.666
312.604
304.224
304.245
304.272
304.3
304.327
304.351
304.372
304.389
304.401
304.407
304.407
304.401
304.389
304.372
304.351
304.327
304.3
304.272
304.245
304.224
364.771
365.091
365.474
365.861
366.229
366.564
366.851
367.079
367.238
367.319
367.319
367.238
367.079
366.851
366.564
366.229
365.861
365.474
365.091
364.771
355.991
356.262
356.595
356.932
357.253
357.545
357.795
357.995
358.133
358.204
358.204
358.133
357.995
357.795
357.545
357.253
356.932
356.595
356.262
355.991
347.278
347.503
347.785
348.071
348.344
348.592
348.806
348.975
349.093
349.153
349.153
349.093
348.975
348.806
348.592
348.344
348.071
347.785
347.503
347.278
338.618
338.801
339.031
339.266
339.49
339.694
339.87
340.009
340.106
340.155
340.155
340.106
340.009
339.87
339.694
339.49
339.266
339.031
338.801
338.618
330.002
330.142
330.321
330.504
330.68
330.839
330.976
331.084
331.16
331.199
331.199
331.16
331.084
330.976
330.839
330.68
330.504
330.321
330.142
330.002
321.418
321.517
321.645
321.776
321.902
322.016
322.114
322.192
322.246
322.274
322.274
322.246
322.192
322.114
322.016
321.902
321.776
321.645
321.517
321.418
312.856
312.915
312.992
313.071
313.147
313.215
313.274
313.321
313.354
313.371
313.371
313.354
313.321
313.274
313.215
313.147
313.071
312.992
312.915
312.856
304.308
304.328
304.354
304.38
304.405
304.428
304.448
304.464
304.475
304.481
304.481
304.475
304.464
304.448
304.428
304.405
304.38
304.354
304.328
304.308
)
;

boundaryField
{
    hotSide
    {
        type            fixedGradient;
        gradient        nonuniform List<scalar> 
400
(
454.573
455.723
458.033
461.523
466.222
472.164
479.391
487.946
497.876
509.227
522.042
536.363
552.23
569.676
588.732
609.423
631.772
655.794
681.506
708.916
467.139
468.19
470.305
473.51
477.845
483.355
490.094
498.119
507.491
518.266
530.5
544.246
559.549
576.45
594.984
615.18
637.063
660.65
685.957
712.992
480.739
481.671
483.553
486.421
490.324
495.325
501.494
508.904
517.631
527.748
539.324
552.421
567.095
583.393
601.356
621.015
642.395
665.517
690.394
717.036
495.146
495.94
497.552
500.028
503.434
507.852
513.369
520.083
528.086
537.47
548.318
560.705
574.696
590.346
607.698
626.789
647.644
670.282
694.716
720.954
509.959
510.597
511.905
513.943
516.796
520.566
525.368
531.32
538.538
547.134
557.206
568.843
582.12
597.096
613.821
632.332
652.655
674.807
698.801
724.639
524.56
525.032
526.015
527.586
529.851
532.939
536.991
542.15
548.559
556.347
565.632
576.514
589.077
603.387
619.497
637.443
657.252
678.939
702.512
727.973
538.112
538.417
539.077
540.184
541.868
544.285
547.602
551.992
557.619
564.634
573.171
583.341
595.237
608.93
624.472
641.902
661.244
682.511
705.708
730.833
549.614
549.769
550.137
550.828
551.992
553.81
556.478
560.19
565.133
571.477
579.368
588.928
600.256
613.425
628.491
645.489
664.443
685.363
708.251
733.101
558.032
558.072
558.217
558.589
559.357
560.722
562.899
566.101
570.533
576.377
583.79
592.901
603.812
616.6
631.32
648.007
666.683
687.355
710.022
734.677
562.492
562.469
562.493
562.692
563.246
564.365
566.276
569.204
573.361
578.938
586.096
594.968
605.659
618.246
632.783
649.307
667.836
688.379
710.931
735.485
562.492
562.469
562.493
562.692
563.246
564.365
566.276
569.204
573.361
578.938
586.096
594.968
605.659
618.246
632.783
649.307
667.836
688.379
710.931
735.485
558.032
558.072
558.217
558.589
559.357
560.722
562.899
566.101
570.533
576.377
583.79
592.901
603.812
616.6
631.32
648.007
666.683
687.355
710.022
734.677
549.614
549.769
550.137
550.828
551.992
553.81
556.478
560.19
565.133
571.477
579.368
588.928
600.256
613.425
628.491
645.489
664.443
685.363
708.251
733.101
538.112
538.417
539.077
540.184
541.868
544.285
547.602
551.992
557.619
564.634
573.171
583.341
595.237
608.93
624.472
641.902
661.244
682.511
705.708
730.833
524.56
525.032
526.015
527.586
529.851
532.939
536.991
542.15
548.559
556.347
565.632
576.514
589.077
603.387
619.497
637.443
657.252
678.939
702.512
727.973
509.959
510.597
511.905
513.943
516.796
520.566
525.368
531.32
538.538
547.134
557.206
568.843
582.12
597.096
613.821
632.332
652.655
674.807
698.801
724.639
495.146
495.94
497.552
500.028
503.434
507.852
513.369
520.083
528.086
537.47
548.318
560.705
574.696
590.346
607.698
626.789
647.644
670.282
694.716
720.954
480.739
481.671
483.553
486.421
490.324
495.325
501.494
508.904
517.631
527.748
539.324
552.421
567.095
583.393
601.356
621.015
642.395
665.517
690.394
717.036
467.139
468.19
470.305
473.51
477.845
483.355
490.094
498.119
507.491
518.266
530.5
544.246
559.549
576.45
594.984
615.18
637.063
660.65
685.957
712.992
454.573
455.723
458.033
461.523
466.222
472.164
479.391
487.946
497.876
509.227
522.042
536.363
552.23
569.676
588.732
609.423
631.772
655.794
681.506
708.916
)
;
    }
    coldSide
    {
        type            mixed;
        refValue        uniform 300;
        refGradient     uniform 0;
        valueFraction   uniform 0.991591;
        source          uniform 0;
        value           nonuniform List<scalar> 
400
(
300.024
300.024
300.025
300.025
300.025
300.025
300.026
300.026
300.027
300.027
300.028
300.029
300.029
300.03
300.031
300.032
300.033
300.034
300.036
300.036
300.025
300.025
300.025
300.025
300.025
300.026
300.026
300.026
300.027