/*--------------------------------*- C++ -*----------------------------------*\
| =========                 |                                                 |
| \\      /  F ield         | OpenFOAM: The Open Source CFD Toolbox           |
|  \\    /   O peration     | Version:  2212                                  |
|   \\  /    A nd           | Website:  www.openfoam.com                      |
|    \\/     M anipulation  |                                                 |
\*---------------------------------------------------------------------------*/
FoamFile
{
    version     2.0;
    format      ascii;
    arch        "LSB;label=32;scalar=64";
    class       volScalarField;
    location    "0";
    object      Ttrue;
}
// * * * * * * * * * * * * * * * * * * * * * * * * * * * * * * * * * * * * * //

dimensions      [0 0 0 1 0 0 0];

internalField   nonuniform List<scalar> 
3200
(
324.052
324.261
324.528
324.818
325.118
325.411
325.683
325.912
326.078
326.166
326.166
326.078
325.912
325.683
325.411
325.118
324.818
324.528
324.261
324.052
321.012
321.189
321.419
321.67
321.929
322.184
322.418
322.616
322.76
322.836
322.836
322.76
322.616
322.418
322.184
321.929
321.67
321.419
321.189
321.012
317.902
318.048
318.242
318.455
318.674
318.888
319.086
319.253
319.375
319.439
319.439
319.375
319.253
319.086
318.888
318.674
318.455
318.242
318.048
317.902
314.731
314.85
315.008
315.181
315.36
315.535
315.697
315.834
315.933
315.985
315.985
315.933
315.834
315.697
315.535
315.36
315.181
315.008
314.85
314.731
311.512
311.603
311.725
311.86
311.999
312.136
312.261
312.367
312.444
312.485
312.485
312.444
312.367
312.261
312.136
311.999
311.86
311.725
311.603
311.512
308.254
308.319
308.406
308.502
308.602
308.699
308.789
308.864
308.919
308.948
308.948
308.919
308.864
308.789
308.699
308.602
308.502
308.406
308.319
308.254
304.969
305.008
305.06
305.118
305.177
305.236
305.29
305.335
305.368
305.385
305.385
305.368
305.335
305.29
305.236
305.177
305.118
305.06
305.008
304.969
301.668
301.68
301.698
301.717
301.737
301.757
301.775
301.79
301.801
301.807
301.807
301.801
301.79
301.775
301.757
301.737
301.717
301.698
301.68
301.668
324.145
324.352
324.616
324.904
325.201
325.491
325.759
325.985
326.15
326.237
326.237
326.15
325.985
325.759
325.491
325.201
324.904
324.616
324.352
324.145
321.093
321.269
321.497
321.746
322.002
322.254
322.485
322.681
322.823
322.898
322.898
322.823
322.681
322.485
322.254
322.002
321.746
321.497
321.269
321.093
317.971
318.116
318.308
318.519
318.736
318.948
319.144
319.309
319.428
319.492
319.492
319.428
319.309
319.144
318.948
318.736
318.519
318.308
318.116
317.971
314.788
314.905
315.062
315.234
315.411
315.585
315.745
315.879
315.977
316.029
316.029
315.977
315.879
315.745
315.585
315.411
315.234
315.062
314.905
314.788
311.557
311.646
311.768
311.902
312.039
312.174
312.298
312.403
312.479
312.519
312.519
312.479
312.403
312.298
312.174
312.039
311.902
311.768
311.646
311.557
308.286
308.35
308.436
308.532
308.63
308.727
308.815
308.89
308.944
308.973
308.973
308.944
308.89
308.815
308.727
308.63
308.532
308.436
308.35
308.286
304.988
305.026
305.078
305.136
305.195
305.252
305.306
305.35
305.383
305.4
305.4
305.383
305.35
305.306
305.252
305.195
305.136
305.078
305.026
304.988
301.674
301.687
301.704
301.723
301.743
301.762
301.78
301.795
301.806
301.812
301.812
301.806
301.795
301.78
301.762
301.743
301.723
301.704
301.687
301.674
324.331
324.535
324.794
325.077
325.367
325.652
325.914
326.134
326.294
326.379
326.379
326.294
326.134
325.914
325.652
325.367
325.077
324.794
324.535
324.331
321.256
321.428
321.652
321.897
322.148
322.394
322.62
322.811
322.95
323.023
323.023
322.95
322.811
322.62
322.394
322.148
321.897
321.652
321.428
321.256
318.109
318.252
318.441
318.648
318.86
319.068
319.259
319.42
319.537
319.599
319.599
319.537
319.42
319.259
319.068
318.86
318.648
318.441
318.252
318.109
314.902
315.018
315.171
315.34
315.514
315.684
315.84
315.971
316.067
316.117
316.117
316.067
315.971
315.84
315.684
315.514
315.34
315.171
315.018
314.902
311.646
311.734
311.853
311.985
312.12
312.252
312.373
312.475
312.549
312.588
312.588
312.549
312.475
312.373
312.252
312.12
311.985
311.853
311.734
311.646
308.35
308.413
308.498
308.592
308.688
308.782
308.869
308.942
308.994
309.022
309.022
308.994
308.942
308.869
308.782
308.688
308.592
308.498
308.413
308.35
305.027
305.064
305.115
305.172
305.229
305.286
305.338
305.382
305.413
305.43
305.43
305.413
305.382
305.338
305.286
305.229
305.172
305.115
305.064
305.027
301.687
301.699
301.717
301.735
301.755
301.774
301.791
301.806
301.816
301.822
301.822
301.816
301.806
301.791
301.774
301.755
301.735
301.717
301.699
301.687
324.61
324.809
325.062
325.337
325.619
325.894
326.147
326.36
326.514
326.596
326.596
326.514
326.36
326.147
325.894
325.619
325.337
325.062
324.809
324.61
321.5
321.668
321.887
322.125
322.368
322.607
322.825
323.009
323.142
323.213
323.213
323.142
323.009
322.825
322.607
322.368
322.125
321.887
321.668
321.5
318.317
318.457
318.641
318.842
319.048
319.249
319.434
319.589
319.702
319.761
319.761
319.702
319.589
319.434
319.249
319.048
318.842
318.641
318.457
318.317
315.073
315.186
315.336
315.5
315.669
315.833
315.984
316.111
316.203
316.251
316.251
316.203
316.111
315.984
315.833
315.669
315.5
315.336
315.186
315.073
311.779
311.866
311.982
312.11
312.241
312.369
312.486
312.584
312.656
312.693
312.693
312.656
312.584
312.486
312.369
312.241
312.11
311.982
311.866
311.779
308.446
308.507
308.59
308.681
308.775
308.866
308.95
309.02
309.071
309.098
309.098
309.071
309.02
308.95
308.866
308.775
308.681
308.59
308.507
308.446
305.085
305.121
305.171
305.226
305.282
305.337
305.387
305.429
305.46
305.476
305.476
305.46
305.429
305.387
305.337
305.282
305.226
305.171
305.121
305.085
301.706
301.719
301.735
301.754
301.772
301.791
301.808
301.822
301.832
301.837
301.837
301.832
301.822
301.808
301.791
301.772
301.754
301.735
301.719
301.706
324.983
325.176
325.421
325.686
325.957
326.221
326.463
326.665
326.812
326.89
326.89
326.812
326.665
326.463
326.221
325.957
325.686
325.421
325.176
324.983
321.826
321.989
322.201
322.43
322.664
322.893
323.102
323.277
323.404
323.471
323.471
323.404
323.277
323.102
322.893
322.664
322.43
322.201
321.989
321.826
318.595
318.731
318.909
319.103
319.301
319.494
319.67
319.818
319.925
319.982
319.982
319.925
319.818
319.67
319.494
319.301
319.103
318.909
318.731
318.595
315.302
315.411
315.556
315.715
315.877
316.035
316.179
316.3
316.387
316.433
316.433
316.387
316.3
316.179
316.035
315.877
315.715
315.556
315.411
315.302
311.958
312.042
312.155
312.278
312.404
312.526
312.638
312.732
312.8
312.836
312.836
312.8
312.732
312.638
312.526
312.404
312.278
312.155
312.042
311.958
308.574
308.634
308.714
308.802
308.892
308.979
309.059
309.126
309.175
309.2
309.2
309.175
309.126
309.059
308.979
308.892
308.802
308.714
308.634
308.574
305.162
305.197
305.245
305.298
305.352
305.405
305.453
305.493
305.522
305.537
305.537
305.522
305.493
305.453
305.405
305.352
305.298
305.245
305.197
305.162
301.732
301.744
301.76
301.778
301.796
301.814
301.83
301.843
301.853
301.858
301.858
301.853
301.843
301.83
301.814
301.796
301.778
301.76
301.744
301.732
325.451
325.637
325.872
326.126
326.384
326.634
326.863
327.054
327.192
327.265
327.265
327.192
327.054
326.863
326.634
326.384
326.126
325.872
325.637
325.451
322.235
322.392
322.595
322.814
323.038
323.255
323.452
323.618
323.737
323.8
323.8
323.737
323.618
323.452
323.255
323.038
322.814
322.595
322.392
322.235
318.944
319.074
319.245
319.431
319.619
319.803
319.97
320.109
320.21
320.263
320.263
320.21
320.109
319.97
319.803
319.619
319.431
319.245
319.074
318.944
315.589
315.694
315.833
315.985
316.139
316.289
316.426
316.54
316.622
316.666
316.666
316.622
316.54
316.426
316.289
316.139
315.985
315.833
315.694
315.589
312.182
312.263
312.371
312.489
312.609
312.725
312.832
312.92
312.984
313.018
313.018
312.984
312.92
312.832
312.725
312.609
312.489
312.371
312.263
312.182
308.735
308.792
308.869
308.953
309.039
309.122
309.198
309.261
309.307
309.331
309.331
309.307
309.261
309.198
309.122
309.039
308.953
308.869
308.792
308.735
305.259
305.293
305.339
305.389
305.441
305.491
305.536
305.574
305.602
305.616
305.616
305.602
305.574
305.536
305.491
305.441
305.389
305.339
305.293
305.259
301.765
301.776
301.792
301.809
301.826
301.843
301.858
301.87
301.88
301.885
301.885
301.88
301.87
301.858
301.843
301.826
301.809
301.792
301.776
301.765
326.015
326.193
326.417
326.657
326.901
327.137
327.351
327.53
327.659
327.726
327.726
327.659
327.53
327.351
327.137
326.901
326.657
326.417
326.193
326.015
322.728
322.878
323.071
323.279
323.491
323.695
323.88
324.035
324.146
324.205
324.205
324.146
324.035
323.88
323.695
323.491
323.279
323.071
322.878
322.728
319.364
319.488
319.651
319.827
320.006
320.178
320.335
320.466
320.56
320.609
320.609
320.56
320.466
320.335
320.178
320.006
319.827
319.651
319.488
319.364
315.935
316.035
316.168
316.312
316.458
316.599
316.727
316.834
316.911
316.951
316.951
316.911
316.834
316.727
316.599
316.458
316.312
316.168
316.035
315.935
312.452
312.53
312.633
312.744
312.858
312.968
313.067
313.15
313.21
313.241
313.241
313.21
313.15
313.067
312.968
312.858
312.744
312.633
312.53
312.452
308.929
308.983
309.057
309.137
309.218
309.296
309.367
309.426
309.469
309.491
309.491
309.469
309.426
309.367
309.296
309.218
309.137
309.057
308.983
308.929
305.375
305.408
305.452
305.5
305.549
305.596
305.638
305.674
305.699
305.713
305.713
305.699
305.674
305.638
305.596
305.549
305.5
305.452
305.408
305.375
301.804
301.815
301.829
301.846
301.862
301.878
301.892
301.904
301.912
301.917
301.917
301.912
301.904
301.892
301.878
301.862
301.846
301.829
301.815
301.804
326.675
326.844
327.056
327.283
327.512
327.732
327.931
328.097
328.216
328.278
328.278
328.216
328.097
327.931
327.732
327.512
327.283
327.056
326.844
326.675
323.305
323.447
323.63
323.827
324.025
324.215
324.388
324.531
324.634
324.688
324.688
324.634
324.531
324.388
324.215
324.025
323.827
323.63
323.447
323.305
319.855
319.974
320.128
320.294
320.462
320.623
320.769
320.89
320.976
321.022
321.022
320.976
320.89
320.769
320.623
320.462
320.294
320.128
319.974
319.855
316.339
316.435
316.561
316.696
316.833
316.965
317.084
317.183
317.254
317.291
317.291
317.254
317.183
317.084
316.965
316.833
316.696
316.561
316.435
316.339
312.769
312.842
312.94
313.045
313.152
313.254
313.347
313.424
313.479
313.508
313.508
313.479
313.424
313.347
313.254
313.152
313.045
312.94
312.842
312.769
309.156
309.207
309.277
309.352
309.428
309.502
309.568
309.623
309.662
309.683
309.683
309.662
309.623
309.568
309.502
309.428
309.352
309.277
309.207
309.156
305.512
305.543
305.584
305.63
305.675
305.719
305.759
305.792
305.816
305.828
305.828
305.816
305.792
305.759
305.719
305.675
305.63
305.584
305.543
305.512
301.85
301.86
301.874
301.889
301.904
301.919
301.933
301.944
301.952
301.956
301.956
301.952
301.944
301.933
301.919
301.904
301.889
301.874
301.86
301.85
327.433
327.593
327.792
328.005
328.218
328.422
328.606
328.758
328.867
328.924
328.924
328.867
328.758
328.606
328.422
328.218
328.005
327.792
327.593
327.433
323.967
324.102
324.274
324.458
324.643
324.819
324.979
325.11
325.205
325.254
325.254
325.205
325.11
324.979
324.819
324.643
324.458
324.274
324.102
323.967
320.42
320.532
320.677
320.832
320.988
321.138
321.273
321.384
321.464
321.505
321.505
321.464
321.384
321.273
321.138
320.988
320.832
320.677
320.532
320.42
316.804
316.894
317.012
317.139
317.267
317.389
317.5
317.591
317.656
317.69
317.69
317.656
317.591
317.5
317.389
317.267
317.139
317.012
316.894
316.804
313.132
313.201
313.293
313.392
313.491
313.586
313.672
313.742
313.793
313.82
313.82
313.793
313.742
313.672
313.586
313.491
313.392
313.293
313.201
313.132
309.416
309.465
309.53
309.601
309.672
309.74
309.801
309.852
309.888
309.907
309.907
309.888
309.852
309.801
309.74
309.672
309.601
309.53
309.465
309.416
305.669
305.698
305.737
305.779
305.822
305.863
305.9
305.93
305.952
305.963
305.963
305.952
305.93
305.9
305.863
305.822
305.779
305.737
305.698
305.669
301.902
301.912
301.925
301.939
301.954
301.967
301.98
301.99
301.997
302.001
302.001
301.997
301.99
301.98
301.967
301.954
301.939
301.925
301.912
301.902
328.29
328.44
328.626
328.824
329.022
329.21
329.378
329.517
329.617
329.668
329.668
329.617
329.517
329.378
329.21
329.022
328.824
328.626
328.44
328.29
324.715
324.842
325.003
325.174
325.346
325.508
325.655
325.775
325.861
325.906
325.906
325.861
325.775
325.655
325.508
325.346
325.174
325.003
324.842
324.715
321.058
321.163
321.298
321.443
321.588
321.726
321.849
321.951
322.024
322.062
322.062
322.024
321.951
321.849
321.726
321.588
321.443
321.298
321.163
321.058
317.329
317.414
317.524
317.643
317.761
317.874
317.975
318.058
318.117
318.148
318.148
318.117
318.058
317.975
317.874
317.761
317.643
317.524
317.414
317.329
313.542
313.607
313.693
313.785
313.877
313.965
314.043
314.108
314.154
314.178
314.178
314.154
314.108
314.043
313.965
313.877
313.785
313.693
313.607
313.542
309.71
309.756
309.817
309.883
309.949
310.012
310.068
310.114
310.147
310.164
310.164
310.147
310.114
310.068
310.012
309.949
309.883
309.817
309.756
309.71
305.846
305.873
305.91
305.949
305.989
306.026
306.06
306.088
306.108
306.118
306.118
306.108
306.088
306.06
306.026
305.989
305.949
305.91
305.873
305.846
301.962
301.971
301.983
301.996
302.01
302.022
302.034
302.043
302.05
302.053
302.053
302.05
302.043
302.034
302.022
302.01
301.996
301.983
301.971
301.962
329.246
329.386
329.56
329.743
329.925
330.097
330.251
330.377
330.467
330.514
330.514
330.467
330.377
330.251
330.097
329.925
329.743
329.56
329.386
329.246
325.551
325.669
325.819
325.978
326.135
326.285
326.418
326.527
326.605
326.646
326.646
326.605
326.527
326.418
326.285
326.135
325.978
325.819
325.669
325.551
321.769
321.868
321.994
322.128
322.262
322.388
322.501
322.593
322.659
322.693
322.693
322.659
322.593
322.501
322.388
322.262
322.128
321.994
321.868
321.769
317.915
317.994
318.097
318.207
318.316
318.419
318.511
318.587
318.641
318.669
318.669
318.641
318.587
318.511
318.419
318.316
318.207
318.097
317.994
317.915
314
314.061
314.141
314.226
314.311
314.391
314.463
314.522
314.564
314.585
314.585
314.564
314.522
314.463
314.391
314.311
314.226
314.141
314.061
314
310.039
310.082
310.139
310.199
310.26
310.318
310.369
310.411
310.441
310.456
310.456
310.441
310.411
310.369
310.318
310.26
310.199
310.139
310.082
310.039
306.043
306.069
306.103
306.14
306.176
306.211
306.242
306.267
306.285
306.294
306.294
306.285
306.267
306.242
306.211
306.176
306.14
306.103
306.069
306.043
302.028
302.037
302.048
302.06
302.073
302.084
302.094
302.103
302.109
302.112
302.112
302.109
302.103
302.094
302.084
302.073
302.06
302.048
302.037
302.028
330.302
330.433
330.594
330.763
330.929
331.087
331.226
331.34
331.421
331.463
331.463
331.421
331.34
331.226
331.087
330.929
330.763
330.594
330.433
330.302
326.474
326.584
326.723
326.869
327.014
327.15
327.271
327.37
327.44
327.476
327.476
327.44
327.37
327.271
327.15
327.014
326.869
326.723
326.584
326.474
322.556
322.647
322.764
322.888
323.01
323.126
323.228
323.312
323.371
323.402
323.402
323.371
323.312
323.228
323.126
323.01
322.888
322.764
322.647
322.556
318.562
318.636
318.731
318.832
318.932
319.027
319.11
319.179
319.227
319.253
319.253
319.227
319.179
319.11
319.027
318.932
318.832
318.731
318.636
318.562
314.506
314.562
314.637
314.715
314.793
314.866
314.932
314.985
315.023
315.042
315.042
315.023
314.985
314.932
314.866
314.793
314.715
314.637
314.562
314.506
310.401
310.441
310.494
310.55
310.606
310.658
310.705
310.743
310.77
310.784
310.784
310.77
310.743
310.705
310.658
310.606
310.55
310.494
310.441
310.401
306.262
306.286
306.317
306.351
306.384
306.416
306.444
306.467
306.483
306.491
306.491
306.483
306.467
306.444
306.416
306.384
306.351
306.317
306.286
306.262
302.101
302.109
302.12
302.131
302.142
302.153
302.162
302.17
302.175
302.178
302.178
302.175
302.17
302.162
302.153
302.142
302.131
302.12
302.109
302.101
331.459
331.58
331.729
331.884
332.036
332.179
332.305
332.408
332.481
332.518
332.518
332.481
332.408
332.305
332.179
332.036
331.884
331.729
331.58
331.459
327.484
327.586
327.715
327.849
327.981
328.105
328.215
328.304
328.367
328.399
328.399
328.367
328.304
328.215
328.105
327.981
327.849
327.715
327.586
327.484
323.417
323.502
323.61
323.723
323.835
323.94
324.033
324.108
324.161
324.189
324.189
324.161
324.108
324.033
323.94
323.835
323.723
323.61
323.502
323.417
319.27
319.339
319.427
319.52
319.611
319.697
319.773
319.835
319.878
319.901
319.901
319.878
319.835
319.773
319.697
319.611
319.52
319.427
319.339
319.27
315.06
315.112
315.18
315.253
315.324
315.391
315.45
315.497
315.531
315.549
315.549
315.531
315.497
315.45
315.391
315.324
315.253
315.18
315.112
315.06
310.798
310.835
310.884
310.936
310.987
311.034
311.076
311.111
311.135
311.147
311.147
311.135
311.111
311.076
311.034
310.987
310.936
310.884
310.835
310.798
306.501
306.523
306.552
306.583
306.614
306.642
306.668
306.688
306.703
306.71
306.71
306.703
306.688
306.668
306.642
306.614
306.583
306.552
306.523
306.501
302.182
302.189
302.199
302.209
302.219
302.229
302.237
302.244
302.249
302.252
302.252
302.249
302.244
302.237
302.229
302.219
302.209
302.199
302.189
302.182
332.715
332.827
332.964
333.106
333.245
333.374
333.488
333.58
333.645
333.679
333.679
333.645
333.58
333.488
333.374
333.245
333.106
332.964
332.827
332.715
328.582
328.676
328.794
328.917
329.038
329.15
329.249
329.329
329.385
329.414
329.414
329.385
329.329
329.249
329.15
329.038
328.917
328.794
328.676
328.582
324.352
324.43
324.53
324.634
324.736
324.831
324.914
324.982
325.029
325.054
325.054
325.029
324.982
324.914
324.831
324.736
324.634
324.53
324.43
324.352
320.04
320.103
320.184
320.269
320.353
320.43
320.499
320.554
320.593
320.613
320.613
320.593
320.554
320.499
320.43
320.353
320.269
320.184
320.103
320.04
315.661
315.709
315.772
315.838
315.903
315.964
316.017
316.06
316.09
316.106
316.106
316.09
316.06
316.017
315.964
315.903
315.838
315.772
315.709
315.661
311.229
311.264
311.308
311.356
311.402
311.445
311.483
311.514
311.536
311.547
311.547
311.536
311.514
311.483
311.445
311.402
311.356
311.308
311.264
311.229
306.76
306.781
306.808
306.836
306.864
306.89
306.913
306.931
306.944
306.951
306.951
306.944
306.931
306.913
306.89
306.864
306.836
306.808
306.781
306.76
302.269
302.275
302.285
302.294
302.303
302.312
302.32
302.326
302.33
302.333
302.333
302.33
302.326
302.32
302.312
302.303
302.294
302.285
302.275
302.269
334.069
334.172
334.298
334.428
334.554
334.671
334.773
334.856
334.914
334.944
334.944
334.914
334.856
334.773
334.671
334.554
334.428
334.298
334.172
334.069
329.764
329.851
329.96
330.072
330.181
330.283
330.371
330.443
330.493
330.519
330.519
330.493
330.443
330.371
330.283
330.181
330.072
329.96
329.851
329.764
325.358
325.431
325.522
325.617
325.71
325.796
325.871
325.931
325.974
325.996
325.996
325.974
325.931
325.871
325.796
325.71
325.617
325.522
325.431
325.358
320.868
320.926
321.001
321.078
321.154
321.224
321.286
321.336
321.37
321.389
321.389
321.37
321.336
321.286
321.224
321.154
321.078
321.001
320.926
320.868
316.308
316.352
316.41
316.471
316.53
316.584
316.632
316.671
316.698
316.712
316.712
316.698
316.671
316.632
316.584
316.53
316.471
316.41
316.352
316.308
311.693
311.725
311.766
311.809
311.851
311.89
311.924
311.952
311.971
311.981
311.981
311.971
311.952
311.924
311.89
311.851
311.809
311.766
311.725
311.693
307.039
307.058
307.083
307.109
307.134
307.158
307.178
307.195
307.206
307.213
307.213
307.206
307.195
307.178
307.158
307.134
307.109
307.083
307.058
307.039
302.362
302.369
302.377
302.386
302.394
302.402
302.409
302.414
302.418
302.42
302.42
302.418
302.414
302.409
302.402
302.394
302.386
302.377
302.369
302.362
335.513
335.608
335.723
335.842
335.956
336.061
336.153
336.227
336.279
336.306
336.306
336.279
336.227
336.153
336.061
335.956
335.842
335.723
335.608
335.513
331.024
331.104
331.203
331.306
331.405
331.497
331.576
331.64
331.685
331.709
331.709
331.685
331.64
331.576
331.497
331.405
331.306
331.203
331.104
331.024
326.43
326.497
326.581
326.668
326.751
326.829
326.897
326.951
326.989
327.009
327.009
326.989
326.951
326.897
326.829
326.751
326.668
326.581
326.497
326.43
321.749
321.803
321.871
321.942
322.011
322.074
322.13
322.174
322.205
322.221
322.221
322.205
322.174
322.13
322.074
322.011
321.942
321.871
321.803
321.749
316.996
317.037
317.09
317.145
317.199
317.248
317.291
317.326
317.35
317.362
317.362
317.35
317.326
317.291
317.248
317.199
317.145
317.09
317.037
316.996
312.186
312.215
312.253
312.292
312.331
312.366
312.397
312.421
312.439
312.448
312.448
312.439
312.421
312.397
312.366
312.331
312.292
312.253
312.215
312.186
307.336
307.353
307.376
307.4
307.423
307.444
307.462
307.477
307.488
307.493
307.493
307.488
307.477
307.462
307.444
307.423
307.4
307.376
307.353
307.336
302.462
302.468
302.475
302.483
302.491
302.498
302.504
302.509
302.513
302.514
302.514
302.513
302.509
302.504
302.498
302.491
302.483
302.475
302.468
302.462
337.03
337.118
337.223
337.331
337.435
337.53
337.612
337.679
337.725
337.749
337.749
337.725
337.679
337.612
337.53
337.435
337.331
337.223
337.118
337.03
332.345
332.419
332.51
332.603
332.693
332.775
332.847
332.905
332.945
332.965
332.965
332.945
332.905
332.847
332.775
332.693
332.603
332.51
332.419
332.345
327.553
327.614
327.691
327.77
327.846
327.916
327.976
328.025
328.059
328.077
328.077
328.059
328.025
327.976
327.916
327.846
327.77
327.691
327.614
327.553
322.67
322.72
322.782
322.847
322.909
322.966
323.016
323.056
323.084
323.098
323.098
323.084
323.056
323.016
322.966
322.909
322.847
322.782
322.72
322.67
317.714
317.752
317.8
317.851
317.899
317.944
317.982
318.013
318.035
318.046
318.046
318.035
318.013
317.982
317.944
317.899
317.851
317.8
317.752
317.714
312.7
312.727
312.762
312.798
312.832
312.864
312.892
312.914
312.929
312.937
312.937
312.929
312.914
312.892
312.864
312.832
312.798
312.762
312.727
312.7
307.645
307.661
307.682
307.704
307.724
307.744
307.76
307.773
307.783
307.788
307.788
307.783
307.773
307.76
307.744
307.724
307.704
307.682
307.661
307.645
302.566
302.571
302.578
302.585
302.592
302.598
302.604
302.609
302.612
302.613
302.613
302.612
302.609
302.604
302.598
302.592
302.585
302.578
302.571
302.566
338.578
338.658
338.755
338.853
338.947
339.034
339.108
339.167
339.209
339.23
339.23
339.209
339.167
339.108
339.034
338.947
338.853
338.755
338.658
338.578
333.686
333.754
333.837
333.923
334.004
334.079
334.144
334.195
334.231
334.25
334.25
334.231
334.195
334.144
334.079
334.004
333.923
333.837
333.754
333.686
328.687
328.744
328.814
328.886
328.955
329.019
329.073
329.117
329.147
329.163
329.163
329.147
329.117
329.073
329.019
328.955
328.886
328.814
328.744
328.687
323.598
323.643
323.701
323.76
323.817
323.868
323.913
323.949
323.974
323.987
323.987
323.974
323.949
323.913
323.868
323.817
323.76
323.701
323.643
323.598
318.435
318.47
318.515
318.561
318.605
318.645
318.68
318.708
318.727
318.737
318.737
318.727
318.708
318.68
318.645
318.605
318.561
318.515
318.47
318.435
313.215
313.24
313.272
313.305
313.336
313.365
313.39
313.41
313.424
313.431
313.431
313.424
313.41
313.39
313.365
313.336
313.305
313.272
313.24
313.215
307.955
307.969
307.988
308.008
308.027
308.044
308.059
308.071
308.08
308.084
308.084
308.08
308.071
308.059
308.044
308.027
308.008
307.988
307.969
307.955
302.669
302.674
302.681
302.687
302.694
302.699
302.704
302.708
302.711
302.713
302.713
302.711
302.708
302.704
302.699
302.694
302.687
302.681
302.674
302.669
340.052
340.127
340.216
340.306
340.392
340.471
340.538
340.592
340.629
340.649
340.649
340.629
340.592
340.538
340.471
340.392
340.306
340.216
340.127
340.052
334.948
335.011
335.088
335.166
335.241
335.309
335.368
335.415
335.447
335.464
335.464
335.447
335.415
335.368
335.309
335.241
335.166
335.088
335.011
334.948
329.743
329.795
329.861
329.927
329.99
330.048
330.098
330.138
330.165
330.18
330.18
330.165
330.138
330.098
330.048
329.99
329.927
329.861
329.795
329.743
324.454
324.496
324.549
324.604
324.656
324.703
324.744
324.776
324.799
324.811
324.811
324.799
324.776
324.744
324.703
324.656
324.604
324.549
324.496
324.454
319.096
319.128
319.169
319.212
319.252
319.289
319.321
319.347
319.364
319.373
319.373
319.364
319.347
319.321
319.289
319.252
319.212
319.169
319.128
319.096
313.685
313.707
313.737
313.767
313.796
313.823
313.846
313.864
313.876
313.883
313.883
313.876
313.864
313.846
313.823
313.796
313.767
313.737
313.707
313.685
308.235
308.249
308.267
308.285
308.302
308.318
308.332
308.343
308.35
308.354
308.354
308.35
308.343
308.332
308.318
308.302
308.285
308.267
308.249
308.235
302.763
302.768
302.774
302.78
302.786
302.791
302.795
302.799
302.802
302.803
302.803
302.802
302.799
302.795
302.791
302.786
302.78
302.774
302.768
302.763
341.192
341.262
341.346
341.43
341.511
341.584
341.647
341.697
341.731
341.749
341.749
341.731
341.697
341.647
341.584
341.511
341.43
341.346
341.262
341.192
335.887
335.947
336.019
336.093
336.163
336.227
336.282
336.325
336.356
336.371
336.371
336.356
336.325
336.282
336.227
336.163
336.093
336.019
335.947
335.887
330.505
330.555
330.616
330.679
330.739
330.793
330.84
330.877
330.902
330.916
330.916
330.902
330.877
330.84
330.793
330.739
330.679
330.616
330.555
330.505
325.057
325.097
325.147
325.199
325.248
325.292
325.331
325.361
325.382
325.393
325.393
325.382
325.361
325.331
325.292
325.248
325.199
325.147
325.097
325.057
319.553
319.583
319.623
319.663
319.701
319.736
319.766
319.79
319.806
319.815
319.815
319.806
319.79
319.766
319.736
319.701
319.663
319.623
319.583
319.553
314.005
314.027
314.055
314.083
314.111
314.136
314.157
314.174
314.186
314.192
314.192
314.186
314.174
314.157
314.136
314.111
314.083
314.055
314.027
314.005
308.425
308.438
308.455
308.472
308.489
308.504
308.517
308.527
308.534
308.538
308.538
308.534
308.527
308.517
308.504
308.489
308.472
308.455
308.438
308.425
302.826
302.831
302.836
302.842
302.848
302.853
302.857
302.86
302.863
302.864
302.864
302.863
302.86
302.857
302.853
302.848
302.842
302.836
302.831
302.826
)
;

boundaryField
{
    hotSide
    {
        type            fixedGradient;
        gradient        nonuniform List<scalar> 
400
(
236.718
237.628
239.45
242.19
245.852
250.445
255.977
262.459
269.899
278.31
287.699
298.076
309.45
321.828
335.216
349.621
365.047
381.498
398.977
417.486
239.466
240.355
242.134
244.811
248.394
252.892
258.318
264.684
272.002
280.287
289.549
299.8
311.051
323.309
336.584
350.88
366.204
382.56
399.95
418.377
242.441
243.303
245.032
247.635
251.123
255.51
260.811
267.042
274.22
282.36
291.479
301.588
312.701
324.828
337.977
352.156
367.371
383.624
400.921
419.262
245.592
246.424
248.094
250.611
253.991
258.25
263.409
269.487
276.507
284.487
293.446
303.4
314.363
326.348
339.364
353.419
368.519
384.667
401.866
420.119
248.831
249.63
251.233
253.655
256.913
261.031
266.033
271.945
278.793
286.6
295.39
305.18
315.987
327.825
340.704
354.632
369.615
385.656
402.759
420.925
252.025
252.787
254.319
256.638
259.768
263.737
268.575
274.314
280.984
288.615
297.232
306.857
317.509
329.201
341.945
355.749
370.62
386.56
403.571
421.654
254.989
255.714
257.176
259.394
262.397
266.218
270.896
276.466
282.966
290.428
298.881
308.351
318.856
330.413
343.033
356.725
371.493
387.341
404.27
422.279
257.504
258.197
259.595
261.722
264.611
268.302
272.837
278.259
284.609
291.924
300.237
309.573
319.954
331.396
343.912
357.509
372.193
387.965
404.826
422.775
259.345
260.013
261.362
263.419
266.222
269.813
274.241
279.552
285.79
292.996
301.204
310.441
320.731
332.091
344.531
358.06
372.683
388.401
405.214
423.12
260.321
260.975
262.297
264.316
267.072
270.61
274.98
280.231
286.409
293.556
301.708
310.894
321.135
332.45
344.851
358.344
372.935
388.624
405.412
423.297
260.321
260.975
262.297
264.316
267.072
270.61
274.98
280.231
286.409
293.556
301.708
310.894
321.135
332.45
344.851
358.344
372.935
388.624
405.412
423.297
259.345
260.013
261.362
263.419
266.222
269.813
274.241
279.552
285.79
292.996
301.204
310.441
320.731
332.091
344.531
358.06
372.683
388.401
405.214
423.12
257.504
258.197
259.595
261.722
264.611
268.302
272.837
278.259
284.609
291.924
300.237
309.573
319.954
331.396
343.912
357.509
372.193
387.965
404.826
422.775
254.989
255.714
257.176
259.394
262.397
266.218
270.896
276.466
282.966
290.428
298.881
308.351
318.856
330.413
343.033
356.725
371.493
387.341
404.27
422.279
252.025
252.787
254.319
256.638
259.768
263.737
268.575
274.314
280.984
288.615
297.232
306.857
317.509
329.201
341.945
355.749
370.62
386.56
403.571
421.654
248.831
249.63
251.233
253.655
256.913
261.031
266.033
271.945
278.793
286.6
295.39
305.18
315.987
327.825
340.704
354.632
369.615
385.656
402.759
420.925
245.592
246.424
248.094
250.611
253.991
258.25
263.409
269.487
276.507
284.487
293.446
303.4
314.363
326.348
339.364
353.419
368.519
384.667
401.866
420.119
242.441
243.303
245.032
247.635
251.123
255.51
260.811
267.042
274.22
282.36
291.479
301.588
312.701
324.828
337.977
352.156
367.371
383.624
400.921
419.262
239.466
240.355
242.134
244.811
248.394
252.892
258.318
264.684
272.002
280.287
289.549
299.8
311.051
323.309
336.584
350.88
366.204
382.56
399.95
418.377
236.718
237.628
239.45
242.19
245.852
250.445
255.977
262.459
269.899
278.31
287.699
298.076
309.45
321.828
335.216
349.621
365.047
381.498
398.977
417.486
)
;
    }
    coldSide
    {
        type            mixed;
        refValue        uniform 300;
        refGradient     uniform 0;
        valueFraction   uniform 0.991591;
        source          uniform 0;
        value           nonuniform List<scalar> 
400
(
300.014
300.014
300.014
300.014
300.015
300.015
300.015
300.016
300.016
300.016
300.017
300.018
300.018
300.019
300.02
300.021
300.022
300.022
300.023
300.024
300.014
300.014
300.014
300.014
300.015
300.015
300.015
300.016
300.016
300.017
300.017
300.018
300.018
300.019
300.02
300.021
300.022
300.022