/*--------------------------------*- C++ -*----------------------------------*\
| =========                 |                                                 |
| \\      /  F ield         | OpenFOAM: The Open Source CFD Toolbox           |
|  \\    /   O peration     | Version:  2212                                  |
|   \\  /    A nd           | Website:  www.openfoam.com                      |
|    \\/     M anipulation  |                                                 |
\*---------------------------------------------------------------------------*/
FoamFile
{
    version     2.0;
    format      ascii;
    arch        "LSB;label=32;scalar=64";
    class       volScalarField;
    location    "0";
    object      Tdirect;
}
// * * * * * * * * * * * * * * * * * * * * * * * * * * * * * * * * * * * * * //

dimensions      [0 0 0 1 0 0 0];

internalField   nonuniform List<scalar> 
3200
(
345.233
346.063
347.123
348.279
349.469
350.636
351.714
352.624
353.287
353.638
353.638
353.287
352.624
351.714
350.636
349.469
348.279
347.123
346.063
345.233
339.22
339.923
340.837
341.837
342.866
343.877
344.809
345.595
346.167
346.47
346.47
346.167
345.595
344.809
343.877
342.866
341.837
340.837
339.923
339.22
333.201
333.784
334.554
335.399
336.269
337.122
337.909
338.573
339.056
339.311
339.311
339.056
338.573
337.909
337.122
336.269
335.399
334.554
333.784
333.201
327.176
327.645
328.273
328.963
329.675
330.372
331.015
331.557
331.951
332.159
332.159
331.951
331.557
331.015
330.372
329.675
328.963
328.273
327.645
327.176
321.147
321.507
321.994
322.531
323.083
323.625
324.125
324.545
324.851
325.013
325.013
324.851
324.545
324.125
323.625
323.083
322.531
321.994
321.507
321.147
315.115
315.37
315.717
316.1
316.494
316.881
317.238
317.538
317.757
317.872
317.872
317.757
317.538
317.238
316.881
316.494
316.1
315.717
315.37
315.115
309.08
309.232
309.44
309.67
309.907
310.139
310.353
310.534
310.665
310.734
310.734
310.665
310.534
310.353
310.139
309.907
309.67
309.44
309.232
309.08
303.044
303.095
303.164
303.241
303.321
303.399
303.47
303.531
303.575
303.598
303.598
303.575
303.531
303.47
303.399
303.321
303.241
303.164
303.095
303.044
345.362
346.185
347.236
348.381
349.558
350.713
351.779
352.677
353.332
353.677
353.677
353.332
352.677
351.779
350.713
349.558
348.381
347.236
346.185
345.362
339.331
340.029
340.935
341.925
342.944
343.944
344.865
345.641
346.206
346.505
346.505
346.206
345.641
344.865
343.944
342.944
341.925
340.935
340.029
339.331
333.295
333.873
334.637
335.473
336.335
337.179
337.956
338.612
339.089
339.34
339.34
339.089
338.612
337.956
337.179
336.335
335.473
334.637
333.873
333.295
327.253
327.718
328.341
329.024
329.728
330.418
331.054
331.589
331.978
332.183
332.183
331.978
331.589
331.054
330.418
329.728
329.024
328.341
327.718
327.253
321.206
321.564
322.047
322.578
323.125
323.661
324.155
324.57
324.873
325.032
325.032
324.873
324.57
324.155
323.661
323.125
322.578
322.047
321.564
321.206
315.157
315.41
315.754
316.134
316.524
316.907
317.259
317.556
317.772
317.885
317.885
317.772
317.556
317.259
316.907
316.524
316.134
315.754
315.41
315.157
309.105
309.256
309.463
309.691
309.925
310.155
310.366
310.544
310.674
310.742
310.742
310.674
310.544
310.366
310.155
309.925
309.691
309.463
309.256
309.105
303.052
303.103
303.172
303.248
303.327
303.404
303.475
303.534
303.578
303.601
303.601
303.578
303.534
303.475
303.404
303.327
303.248
303.172
303.103
303.052
345.62
346.43
347.463
348.586
349.741
350.871
351.911
352.788
353.426
353.762
353.762
353.426
352.788
351.911
350.871
349.741
348.586
347.463
346.43
345.62
339.554
340.24
341.131
342.103
343.102
344.08
344.98
345.737
346.288
346.579
346.579
346.288
345.737
344.98
344.08
343.102
342.103
341.131
340.24
339.554
333.483
334.052
334.803
335.624
336.468
337.294
338.054
338.693
339.158
339.403
339.403
339.158
338.693
338.054
337.294
336.468
335.624
334.803
334.052
333.483
327.406
327.864
328.476
329.148
329.838
330.513
331.133
331.656
332.035
332.235
332.235
332.035
331.656
331.133
330.513
329.838
329.148
328.476
327.864
327.406
321.326
321.678
322.152
322.674
323.21
323.735
324.217
324.623
324.917
325.073
325.073
324.917
324.623
324.217
323.735
323.21
322.674
322.152
321.678
321.326
315.242
315.491
315.83
316.202
316.585
316.96
317.304
317.593
317.804
317.914
317.914
317.804
317.593
317.304
316.96
316.585
316.202
315.83
315.491
315.242
309.156
309.305
309.508
309.732
309.962
310.186
310.393
310.567
310.693
310.76
310.76
310.693
310.567
310.393
310.186
309.962
309.732
309.508
309.305
309.156
303.07
303.119
303.187
303.262
303.339
303.415
303.484
303.542
303.584
303.607
303.607
303.584
303.542
303.484
303.415
303.339
303.262
303.187
303.119
303.07
346.009
346.8
347.807
348.9
350.02
351.114
352.119
352.964
353.578
353.901
353.901
353.578
352.964
352.119
351.114
350.02
348.9
347.807
346.8
346.009
339.89
340.561
341.429
342.375
343.344
344.29
345.16
345.89
346.421
346.7
346.7
346.421
345.89
345.16
344.29
343.344
342.375
341.429
340.561
339.89
333.767
334.323
335.054
335.853
336.673
337.472
338.207
338.823
339.271
339.507
339.507
339.271
338.823
338.207
337.472
336.673
335.853
335.054
334.323
333.767
327.638
328.086
328.682
329.335
330.005
330.659
331.258
331.762
332.127
332.32
332.32
332.127
331.762
331.258
330.659
330.005
329.335
328.682
328.086
327.638
321.506
321.849
322.312
322.82
323.34
323.848
324.314
324.706
324.989
325.139
325.139
324.989
324.706
324.314
323.848
323.34
322.82
322.312
321.849
321.506
315.371
315.614
315.944
316.306
316.678
317.041
317.374
317.653
317.855
317.962
317.962
317.855
317.653
317.374
317.041
316.678
316.306
315.944
315.614
315.371
309.234
309.379
309.577
309.794
310.017
310.235
310.435
310.603
310.724
310.788
310.788
310.724
310.603
310.435
310.235
310.017
309.794
309.577
309.379
309.234
303.095
303.144
303.21
303.283
303.358
303.431
303.498
303.554
303.595
303.616
303.616
303.595
303.554
303.498
303.431
303.358
303.283
303.21
303.144
303.095
346.531
347.299
348.272
349.326
350.403
351.451
352.412
353.217
353.801
354.109
354.109
353.801
353.217
352.412
351.451
350.403
349.326
348.272
347.299
346.531
340.342
340.992
341.832
342.743
343.675
344.583
345.414
346.11
346.615
346.88
346.88
346.615
346.11
345.414
344.583
343.675
342.743
341.832
340.992
340.342
334.148
334.687
335.395
336.165
336.953
337.72
338.422
339.01
339.436
339.66
339.66
339.436
339.01
338.422
337.72
336.953
336.165
335.395
334.687
334.148
327.95
328.383
328.96
329.59
330.234
330.861
331.434
331.915
332.263
332.446
332.446
332.263
331.915
331.434
330.861
330.234
329.59
328.96
328.383
327.95
321.748
322.081
322.528
323.018
323.518
324.006
324.451
324.825
325.095
325.237
325.237
325.095
324.825
324.451
324.006
323.518
323.018
322.528
322.081
321.748
315.543
315.779
316.098
316.448
316.805
317.153
317.471
317.738
317.931
318.032
318.032
317.931
317.738
317.471
317.153
316.805
316.448
316.098
315.779
315.543
309.337
309.478
309.669
309.879
310.094
310.303
310.494
310.654
310.769
310.83
310.83
310.769
310.654
310.494
310.303
310.094
309.879
309.669
309.478
309.337
303.13
303.177
303.241
303.312
303.383
303.453
303.518
303.571
303.61
303.63
303.63
303.61
303.571
303.518
303.453
303.383
303.312
303.241
303.177
303.13
347.19
347.929
348.864
349.871
350.897
351.893
352.801
353.561
354.111
354.4
354.4
354.111
353.561
352.801
351.893
350.897
349.871
348.864
347.929
347.19
340.912
341.537
342.343
343.215
344.104
344.965
345.752
346.409
346.884
347.134
347.134
346.884
346.409
345.752
344.965
344.104
343.215
342.343
341.537
340.912
334.629
335.148
335.827
336.564
337.315
338.043
338.708
339.263
339.664
339.875
339.875
339.664
339.263
338.708
338.043
337.315
336.564
335.827
335.148
334.629
328.342
328.76
329.314
329.916
330.53
331.125
331.668
332.122
332.45
332.622
332.622
332.45
332.122
331.668
331.125
330.53
329.916
329.314
328.76
328.342
322.053
322.373
322.803
323.271
323.749
324.211
324.633
324.986
325.24
325.374
325.374
325.24
324.986
324.633
324.211
323.749
323.271
322.803
322.373
322.053
315.761
315.988
316.294
316.629
316.97
317.3
317.602
317.853
318.035
318.13
318.13
318.035
317.853
317.602
317.3
316.97
316.629
316.294
315.988
315.761
309.468
309.603
309.787
309.988
310.193
310.391
310.572
310.723
310.832
310.889
310.889
310.832
310.723
310.572
310.391
310.193
309.988
309.787
309.603
309.468
303.174
303.219
303.281
303.348
303.417
303.483
303.544
303.594
303.631
303.65
303.65
303.631
303.594
303.544
303.483
303.417
303.348
303.281
303.219
303.174
347.989
348.696
349.586
350.542
351.512
352.449
353.301
354.011
354.523
354.792
354.792
354.523
354.011
353.301
352.449
351.512
350.542
349.586
348.696
347.989
341.603
342.2
342.969
343.796
344.636
345.447
346.185
346.799
347.242
347.474
347.474
347.242
346.799
346.185
345.447
344.636
343.796
342.969
342.2
341.603
335.212
335.708
336.355
337.055
337.765
338.451
339.074
339.593
339.967
340.163
340.163
339.967
339.593
339.074
338.451
337.765
337.055
336.355
335.708
335.212
328.819
329.218
329.746
330.318
330.898
331.459
331.968
332.392
332.698
332.858
332.858
332.698
332.392
331.968
331.459
330.898
330.318
329.746
329.218
328.819
322.423
322.73
323.139
323.583
324.035
324.471
324.867
325.196
325.434
325.558
325.558
325.434
325.196
324.867
324.471
324.035
323.583
323.139
322.73
322.423
316.026
316.242
316.534
316.852
317.174
317.486
317.768
318.004
318.173
318.262
318.262
318.173
318.004
317.768
317.486
317.174
316.852
316.534
316.242
316.026
309.627
309.756
309.931
310.122
310.315
310.502
310.672
310.813
310.915
310.968
310.968
310.915
310.813
310.672
310.502
310.315
310.122
309.931
309.756
309.627
303.227
303.27
303.329
303.393
303.458
303.52
303.577
303.625
303.659
303.677
303.677
303.659
303.625
303.577
303.52
303.458
303.393
303.329
303.27
303.227
348.932
349.603
350.446
351.347
352.257
353.132
353.924
354.582
355.055
355.303
355.303
355.055
354.582
353.924
353.132
352.257
351.347
350.446
349.603
348.932
342.418
342.986
343.713
344.493
345.281
346.039
346.724
347.294
347.703
347.917
347.917
347.703
347.294
346.724
346.039
345.281
344.493
343.713
342.986
342.418
335.901
336.372
336.985
337.644
338.31
338.951
339.531
340.012
340.357
340.538
340.538
340.357
340.012
339.531
338.951
338.31
337.644
336.985
336.372
335.901
329.381
329.76
330.26
330.799
331.344
331.868
332.342
332.735
333.017
333.165
333.165
333.017
332.735
332.342
331.868
331.344
330.799
330.26
329.76
329.381
322.86
323.151
323.539
323.958
324.381
324.789
325.157
325.463
325.682
325.797
325.797
325.682
325.463
325.157
324.789
324.381
323.958
323.539
323.151
322.86
316.337
316.543
316.82
317.119
317.422
317.713
317.976
318.194
318.351
318.433
318.433
318.351
318.194
317.976
317.713
317.422
317.119
316.82
316.543
316.337
309.814
309.937
310.103
310.282
310.464
310.639
310.797
310.928
311.022
311.071
311.071
311.022
310.928
310.797
310.639
310.464
310.282
310.103
309.937
309.814
303.29
303.331
303.386
303.447
303.508
303.566
303.619
303.663
303.694
303.711
303.711
303.694
303.663
303.619
303.566
303.508
303.447
303.386
303.331
303.29
350.023
350.657
351.45
352.294
353.141
353.953
354.684
355.289
355.722
355.949
355.949
355.722
355.289
354.684
353.953
353.141
352.294
351.45
350.657
350.023
343.361
343.898
344.582
345.312
346.046
346.749
347.382
347.906
348.281
348.477
348.477
348.281
347.906
347.382
346.749
346.046
345.312
344.582
343.898
343.361
336.697
337.142
337.719
338.336
338.957
339.551
340.087
340.529
340.846
341.012
341.012
340.846
340.529
340.087
339.551
338.957
338.336
337.719
337.142
336.697
330.032
330.39
330.86
331.365
331.873
332.359
332.797
333.158
333.418
333.553
333.553
333.418
333.158
332.797
332.359
331.873
331.365
330.86
330.39
330.032
323.366
323.64
324.005
324.398
324.793
325.171
325.511
325.792
325.994
326.099
326.099
325.994
325.792
325.511
325.171
324.793
324.398
324.005
323.64
323.366
316.698
316.893
317.153
317.433
317.715
317.985
318.229
318.429
318.573
318.648
318.648
318.573
318.429
318.229
317.985
317.715
317.433
317.153
316.893
316.698
310.031
310.147
310.303
310.471
310.64
310.802
310.948
311.069
311.155
311.201
311.201
311.155
311.069
310.948
310.802
310.64
310.471
310.303
310.147
310.031
303.362
303.401
303.453
303.51
303.567
303.621
303.67
303.71
303.739
303.754
303.754
303.739
303.71
303.67
303.621
303.567
303.51
303.453
303.401
303.362
351.266
351.861
352.603
353.389
354.174
354.921
355.592
356.144
356.539
356.745
356.745
356.539
356.144
355.592
354.921
354.174
353.389
352.603
351.861
351.266
344.436
344.94
345.58
346.26
346.94
347.587
348.168
348.646
348.988
349.166
349.166
348.988
348.646
348.168
347.587
346.94
346.26
345.58
344.94
344.436
337.605
338.023
338.562
339.137
339.713
340.26
340.751
341.156
341.445
341.595
341.595
341.445
341.156
340.751
340.26
339.713
339.137
338.562
338.023
337.605
330.773
331.11
331.55
332.02
332.49
332.938
333.34
333.671
333.907
334.03
334.03
333.907
333.671
333.34
332.938
332.49
332.02
331.55
331.11
330.773
323.942
324.2
324.541
324.907
325.273
325.621
325.933
326.191
326.374
326.47
326.47
326.374
326.191
325.933
325.621
325.273
324.907
324.541
324.2
323.942
317.11
317.292
317.536
317.797
318.058
318.307
318.53
318.714
318.845
318.913
318.913
318.845
318.714
318.53
318.307
318.058
317.797
317.536
317.292
317.11
310.277
310.386
310.532
310.689
310.846
310.996
311.13
311.24
311.319
311.36
311.36
311.319
311.24
311.13
310.996
310.846
310.689
310.532
310.386
310.277
303.445
303.482
303.53
303.583
303.636
303.686
303.731
303.768
303.794
303.808
303.808
303.794
303.768
303.731
303.686
303.636
303.583
303.53
303.482
303.445
352.664
353.22
353.911
354.639
355.362
356.047
356.658
357.16
357.517
357.704
357.704
357.517
357.16
356.658
356.047
355.362
354.639
353.911
353.22
352.664
345.644
346.116
346.712
347.342
347.968
348.562
349.092
349.526
349.836
349.997
349.997
349.836
349.526
349.092
348.562
347.968
347.342
346.712
346.116
345.644
338.626
339.017
339.519
340.052
340.582
341.084
341.532
341.899
342.161
342.297
342.297
342.161
341.899
341.532
341.084
340.582
340.052
339.519
339.017
338.626
331.608
331.922
332.332
332.767
333.201
333.612
333.978
334.279
334.493
334.604
334.604
334.493
334.279
333.978
333.612
333.201
332.767
332.332
331.922
331.608
324.59
324.831
325.149
325.488
325.825
326.145
326.43
326.663
326.83
326.916
326.916
326.83
326.663
326.43
326.145
325.825
325.488
325.149
324.831
324.59
317.572
317.743
317.97
318.212
318.453
318.681
318.885
319.052
319.171
319.232
319.232
319.171
319.052
318.885
318.681
318.453
318.212
317.97
317.743
317.572
310.555
310.657
310.793
310.938
311.083
311.22
311.343
311.443
311.514
311.551
311.551
311.514
311.443
311.343
311.22
311.083
310.938
310.793
310.657
310.555
303.538
303.572
303.618
303.666
303.715
303.761
303.802
303.836
303.859
303.872
303.872
303.859
303.836
303.802
303.761
303.715
303.666
303.618
303.572
303.538
354.22
354.739
355.379
356.05
356.713
357.338
357.893
358.347
358.669
358.836
358.836
358.669
358.347
357.893
357.338
356.713
356.05
355.379
354.739
354.22
346.991
347.43
347.982
348.563
349.138
349.679
350.16
350.553
350.832
350.977
350.977
350.832
350.553
350.16
349.679
349.138
348.563
347.982
347.43
346.991
339.763
340.127
340.592
341.084
341.57
342.028
342.435
342.768
343.003
343.126
343.126
343.003
342.768
342.435
342.028
341.57
341.084
340.592
340.127
339.763
332.537
332.829
333.209
333.611
334.009
334.384
334.717
334.989
335.182
335.282
335.282
335.182
334.989
334.717
334.384
334.009
333.611
333.209
332.829
332.537
325.312
325.536
325.831
326.144
326.453
326.745
327.004
327.215
327.365
327.443
327.443
327.365
327.215
327.004
326.745
326.453
326.144
325.831
325.536
325.312
318.088
318.247
318.457
318.68
318.901
319.11
319.295
319.446
319.553
319.609
319.609
319.553
319.446
319.295
319.11
318.901
318.68
318.457
318.247
318.088
310.865
310.959
311.085
311.22
311.352
311.478
311.589
311.679
311.744
311.777
311.777
311.744
311.679
311.589
311.478
311.352
311.22
311.085
310.959
310.865
303.642
303.674
303.716
303.761
303.805
303.847
303.884
303.915
303.936
303.948
303.948
303.936
303.915
303.884
303.847
303.805
303.761
303.716
303.674
303.642
355.938
356.419
357.011
357.627
358.233
358.801
359.303
359.711
360
360.15
360.15
360
359.711
359.303
358.801
358.233
357.627
357.011
356.419
355.938
348.477
348.884
349.394
349.928
350.453
350.945
351.38
351.734
351.984
352.114
352.114
351.984
351.734
351.38
350.945
350.453
349.928
349.394
348.884
348.477
341.018
341.356
341.786
342.237
342.682
343.098
343.466
343.766
343.977
344.087
344.087
343.977
343.766
343.466
343.098
342.682
342.237
341.786
341.356
341.018
333.562
333.834
334.185
334.554
334.917
335.258
335.559
335.804
335.978
336.068
336.068
335.978
335.804
335.559
335.258
334.917
334.554
334.185
333.834
333.562
326.109
326.317
326.589
326.876
327.159
327.424
327.659
327.849
327.984
328.054
328.054
327.984
327.849
327.659
327.424
327.159
326.876
326.589
326.317
326.109
318.657
318.804
318.998
319.203
319.405
319.595
319.762
319.899
319.995
320.045
320.045
319.995
319.899
319.762
319.595
319.405
319.203
318.998
318.804
318.657
311.206
311.294
311.411
311.534
311.655
311.769
311.87
311.951
312.009
312.039
312.039
312.009
311.951
311.87
311.769
311.655
311.534
311.411
311.294
311.206
303.756
303.786
303.825
303.866
303.907
303.945
303.979
304.006
304.025
304.035
304.035
304.025
304.006
303.979
303.945
303.907
303.866
303.825
303.786
303.756
357.819
358.264
358.808
359.373
359.924
360.439
360.891
361.258
361.517
361.651
361.651
361.517
361.258
360.891
360.439
359.924
359.373
358.808
358.264
357.819
350.103
350.48
350.949
351.438
351.917
352.362
352.755
353.073
353.297
353.413
353.413
353.297
353.073
352.755
352.362
351.917
351.438
350.949
350.48
350.103
342.392
342.704
343.1
343.514
343.918
344.296
344.628
344.897
345.086
345.185
345.185
345.086
344.897
344.628
344.296
343.918
343.514
343.1
342.704
342.392
334.685
334.936
335.259
335.597
335.928
336.237
336.509
336.729
336.884
336.964
336.964
336.884
336.729
336.509
336.237
335.928
335.597
335.259
334.936
334.685
326.981
327.174
327.424
327.687
327.945
328.185
328.397
328.568
328.688
328.751
328.751
328.688
328.568
328.397
328.185
327.945
327.687
327.424
327.174
326.981
319.279
319.416
319.594
319.782
319.966
320.138
320.289
320.412
320.498
320.543
320.543
320.498
320.412
320.289
320.138
319.966
319.782
319.594
319.416
319.279
311.58
311.661
311.768
311.881
311.992
312.095
312.186
312.259
312.311
312.338
312.338
312.311
312.259
312.186
312.095
311.992
311.881
311.768
311.661
311.58
303.882
303.909
303.945
303.982
304.02
304.054
304.085
304.109
304.127
304.136
304.136
304.127
304.109
304.085
304.054
304.02
303.982
303.945
303.909
303.882
359.862
360.272
360.772
361.287
361.788
362.253
362.66
362.989
363.22
363.339
363.339
363.22
362.989
362.66
362.253
361.788
361.287
360.772
360.272
359.862
351.869
352.216
352.648
353.094
353.529
353.932
354.285
354.569
354.77
354.873
354.873
354.77
354.569
354.285
353.932
353.529
353.094
352.648
352.216
351.869
343.883
344.171
344.535
344.912
345.28
345.621
345.92
346.161
346.331
346.418
346.418
346.331
346.161
345.92
345.621
345.28
344.912
344.535
344.171
343.883
335.903
336.134
336.431
336.74
337.041
337.32
337.565
337.762
337.901
337.972
337.972
337.901
337.762
337.565
337.32
337.041
336.74
336.431
336.134
335.903
327.927
328.105
328.335
328.575
328.809
329.027
329.217
329.37
329.478
329.534
329.534
329.478
329.37
329.217
329.027
328.809
328.575
328.335
328.105
327.927
319.955
320.081
320.245
320.416
320.584
320.739
320.875
320.985
321.062
321.102
321.102
321.062
320.985
320.875
320.739
320.584
320.416
320.245
320.081
319.955
311.985
312.06
312.159
312.262
312.362
312.456
312.537
312.603
312.65
312.674
312.674
312.65
312.603
312.537
312.456
312.362
312.262
312.159
312.06
311.985
304.017
304.043
304.075
304.11
304.144
304.175
304.202
304.225
304.24
304.248
304.248
304.24
304.225
304.202
304.175
304.144
304.11
304.075
304.043
304.017
362.058
362.436
362.894
363.363
363.818
364.237
364.603
364.897
365.103
365.21
365.21
365.103
364.897
364.603
364.237
363.818
363.363
362.894
362.436
362.058
353.767
354.086
354.482
354.889
355.283
355.646
355.964
356.219
356.397
356.49
356.49
356.397
356.219
355.964
355.646
355.283
354.889
354.482
354.086
353.767
345.485
345.75
346.083
346.427
346.761
347.069
347.337
347.553
347.704
347.783
347.783
347.704
347.553
347.337
347.069
346.761
346.427
346.083
345.75
345.485
337.21
337.423
337.695
337.977
338.25
338.502
338.722
338.899
339.022
339.086
339.086
339.022
338.899
338.722
338.502
338.25
337.977
337.695
337.423
337.21
328.942
329.106
329.317
329.536
329.748
329.944
330.116
330.253
330.349
330.399
330.399
330.349
330.253
330.116
329.944
329.748
329.536
329.317
329.106
328.942
320.679
320.795
320.945
321.102
321.254
321.394
321.516
321.615
321.684
321.719
321.719
321.684
321.615
321.516
321.394
321.254
321.102
320.945
320.795
320.679
312.42
312.489
312.579
312.673
312.765
312.849
312.922
312.981
313.023
313.044
313.044
313.023
312.981
312.922
312.849
312.765
312.673
312.579
312.489
312.42
304.163
304.186
304.216
304.248
304.279
304.307
304.331
304.351
304.365
304.372
304.372
304.365
304.351
304.331
304.307
304.279
304.248
304.216
304.186
304.163
364.386
364.733
365.152
365.58
365.992
366.37
366.699
366.962
367.146
367.241
367.241
367.146
366.962
366.699
366.37
365.992
365.58
365.152
364.733
364.386
355.774
356.068
356.43
356.801
357.158
357.486
357.771
358
358.159
358.241
358.241
358.159
358
357.771
357.486
357.158
356.801
356.43
356.068
355.774
347.176
347.42
347.725
348.038
348.341
348.619
348.86
349.054
349.189
349.258
349.258
349.189
349.054
348.86
348.619
348.341
348.038
347.725
347.42
347.176
338.589
338.785
339.034
339.291
339.538
339.766
339.964
340.122
340.233
340.29
340.29
340.233
340.122
339.964
339.766
339.538
339.291
339.034
338.785
338.589
330.012
330.162
330.355
330.555
330.748
330.925
331.079
331.202
331.288
331.332
331.332
331.288
331.202
331.079
330.925
330.748
330.555
330.355
330.162
330.012
321.442
321.548
321.686
321.828
321.966
322.093
322.203
322.291
322.353
322.384
322.384
322.353
322.291
322.203
322.093
321.966
321.828
321.686
321.548
321.442
312.877
312.941
313.023
313.109
313.192
313.268
313.334
313.387
313.424
313.443
313.443
313.424
313.387
313.334
313.268
313.192
313.109
313.023
312.941
312.877
304.316
304.337
304.365
304.394
304.422
304.447
304.469
304.487
304.499
304.506
304.506
304.499
304.487
304.469
304.447
304.422
304.394
304.365
304.337
304.316
366.785
367.104
367.488
367.879
368.253
368.595
368.89
369.127
369.291
369.376
369.376
369.291
369.127
368.89
368.595
368.253
367.879
367.488
367.104
366.785
357.834
358.104
358.436
358.774
359.099
359.396
359.653
359.858
360.001
360.074
360.074
360.001
359.858
359.653
359.396
359.099
358.774
358.436
358.104
357.834
348.904
349.128
349.408
349.695
349.97
350.221
350.439
350.613
350.734
350.796
350.796
350.734
350.613
350.439
350.221
349.97
349.695
349.408
349.128
348.904
339.993
340.173
340.401
340.636
340.861
341.067
341.246
341.388
341.487
341.538
341.538
341.487
341.388
341.246
341.067
340.861
340.636
340.401
340.173
339.993
331.097
331.235
331.413
331.595
331.771
331.931
332.07
332.181
332.258
332.298
332.298
332.258
332.181
332.07
331.931
331.771
331.595
331.413
331.235
331.097
322.214
322.312
322.438
322.569
322.694
322.809
322.908
322.987
323.043
323.071
323.071
323.043
322.987
322.908
322.809
322.694
322.569
322.438
322.312
322.214
313.34
313.398
313.474
313.552
313.628
313.697
313.756
313.804
313.837
313.854
313.854
313.837
313.804
313.756
313.697
313.628
313.552
313.474
313.398
313.34
304.471
304.491
304.516
304.542
304.567
304.591
304.611
304.627
304.638
304.643
304.643
304.638
304.627
304.611
304.591
304.567
304.542
304.516
304.491
304.471
369.101
369.396
369.75
370.109
370.451
370.763
371.031
371.245
371.394
371.47
371.47
371.394
371.245
371.031
370.763
370.451
370.109
369.75
369.396
369.101
359.798
360.048
360.354
360.666
360.963
361.234
361.468
361.653
361.783
361.849
361.849
361.783
361.653
361.468
361.234
360.963
360.666
360.354
360.048
359.798
350.534
350.742
351
351.264
351.517
351.747
351.945
352.102
352.212
352.268
352.268
352.212
352.102
351.945
351.747
351.517
351.264
351
350.742
350.534
341.305
341.472
341.683
341.899
342.106
342.295
342.457
342.587
342.677
342.723
342.723
342.677
342.587
342.457
342.295
342.106
341.899
341.683
341.472
341.305
332.104
332.232
332.396
332.565
332.726
332.873
333
333.1
333.171
333.207
333.207
333.171
333.1
333
332.873
332.726
332.565
332.396
332.232
332.104
322.926
323.017
323.134
323.254
323.37
323.475
323.565
323.638
323.688
323.714
323.714
323.688
323.638
323.565
323.475
323.37
323.254
323.134
323.017
322.926
313.764
313.819
313.889
313.961
314.031
314.094
314.148
314.192
314.222
314.237
314.237
314.222
314.192
314.148
314.094
314.031
313.961
313.889
313.819
313.764
304.613
304.631
304.655
304.679
304.702
304.723
304.742
304.756
304.766
304.771
304.771
304.766
304.756
304.742
304.723
304.702
304.679
304.655
304.631
304.613
370.924
371.201
371.534
371.871
372.191
372.482
372.732
372.93
373.068
373.139
373.139
373.068
372.93
372.732
372.482
372.191
371.871
371.534
371.201
370.924
361.285
361.521
361.81
362.103
362.382
362.636
362.854
363.027
363.147
363.209
363.209
363.147
363.027
362.854
362.636
362.382
362.103
361.81
361.521
361.285
351.73
351.926
352.171
352.42
352.657
352.873
353.059
353.206
353.308
353.361
353.361
353.308
353.206
353.059
352.873
352.657
352.42
352.171
351.926
351.73
342.243
342.402
342.602
342.806
343.001
343.179
343.331
343.452
343.536
343.58
343.58
343.536
343.452
343.331
343.179
343.001
342.806
342.602
342.402
342.243
332.811
332.932
333.088
333.247
333.4
333.538
333.657
333.752
333.818
333.851
333.851
333.818
333.752
333.657
333.538
333.4
333.247
333.088
332.932
332.811
323.419
323.505
323.616
323.73
323.84
323.939
324.024
324.092
324.139
324.163
324.163
324.139
324.092
324.024
323.939
323.84
323.73
323.616
323.505
323.419
314.056
314.107
314.174
314.243
314.308
314.368
314.419
314.46
314.488
314.503
314.503
314.488
314.46
314.419
314.368
314.308
314.243
314.174
314.107
314.056
304.71
304.727
304.749
304.772
304.794
304.814
304.832
304.845
304.855
304.86
304.86
304.855
304.845
304.832
304.814
304.794
304.772
304.749
304.727
304.71
)
;

boundaryField
{
    hotSide
    {
        type            fixedGradient;
        gradient        nonuniform List<scalar> 
400
(
480.409
481.818
484.644
488.905
494.625
501.835
510.571
520.87
532.773
546.32
561.549
578.497
597.197
617.679
639.969
664.089
690.059
717.893
747.604
779.202
491.334
492.656
495.313
499.326
504.729
511.564
519.875
529.714
541.132
554.179
568.903
585.35
603.56
623.567
645.404
669.094
694.659
722.115
751.474
782.745
503.157
504.376
506.83
510.55
515.578
521.97
529.786
539.09
549.947
562.422
576.574
592.457
610.12
629.604
650.943
674.166
699.295
726.346
755.332
786.26
515.682
516.781
519
522.379
526.976
532.86
540.11
548.808
559.036
570.874
584.393
599.659
616.728
635.648
656.457
679.186
703.857
730.488
759.089
789.667
528.56
529.524
531.478
534.477
538.592
543.914
550.541
558.577
568.123
579.275
592.12
606.734
623.182
641.516
661.78
684.005
708.214
734.422
762.64
792.871
541.253
542.072
543.745
546.337
549.942
554.67
560.645
567.993
576.835
587.285
599.445
613.402
629.23
646.986
666.714
688.448
712.21
738.014
765.866
795.769
553.035
553.709
555.1
557.289
560.389
564.533
569.87
576.548
584.711
594.489
605.999
619.338
634.586
651.804
671.039
692.325
715.681
741.119
768.645
798.255
563.035
563.578
564.716
566.542
569.19
572.815
577.587
583.675
591.244
600.438
611.386
624.195
638.948
655.712
674.533
695.443
718.462
743.599
770.856
800.227
570.352
570.796
571.74
573.29
575.593
578.824
583.169
588.815
595.938
604.698
615.231
627.649
642.04
658.473
676.993
697.632
720.409
745.33
772.395
801.597
574.23
574.619
575.457
576.857
578.973
581.991
586.105
591.512
598.397
606.924
617.236
629.446
643.646
659.903
678.265
698.762
721.412
746.221
773.186
802.299
574.23
574.619
575.457
576.857
578.973
581.991
586.105
591.512
598.397
606.924
617.236
629.446
643.646
659.903
678.265
698.762
721.412
746.221
773.186
802.299
570.352
570.796
571.74
573.29
575.593
578.824
583.169
588.815
595.938
604.698
615.231
627.649
642.04
658.473
676.993
697.632
720.409
745.33
772.395
801.597
563.035
563.578
564.716
566.542
569.19
572.815
577.587
583.675
591.244
600.438
611.386
624.195
638.948
655.712
674.533
695.443
718.462
743.599
770.856
800.227
553.035
553.709
555.1
557.289
560.389
564.533
569.87
576.548
584.711
594.489
605.999
619.338
634.586
651.804
671.039
692.325
715.681
741.119
768.645
798.255
541.253
542.072
543.745
546.337
549.942
554.67
560.645
567.993
576.835
587.285
599.445
613.402
629.23
646.986
666.714
688.448
712.21
738.014
765.866
795.769
528.56
529.524
531.478
534.477
538.592
543.914
550.541
558.577
568.123
579.275
592.12
606.734
623.182
641.516
661.78
684.005
708.214
734.422
762.64
792.871
515.682
516.781
519
522.379
526.976
532.86
540.11
548.808
559.036
570.874
584.393
599.659
616.728
635.648
656.457
679.186
703.857
730.488
759.089
789.667
503.157
504.376
506.83
510.55
515.578
521.97
529.786
539.09
549.947
562.422
576.574
592.457
610.12
629.604
650.943
674.166
699.295
726.346
755.332
786.26
491.334
492.656
495.313
499.326
504.729
511.564
519.875
529.714
541.132
554.179
568.903
585.35
603.56
623.567
645.404
669.094
694.659
722.115
751.474
782.745
480.409
481.818
484.644
488.905
494.625
501.835
510.571
520.87
532.773
546.32
561.549
578.497
597.197
617.679
639.969
664.089
690.059
717.893
747.604
779.202
)
;
    }
    coldSide
    {
        type            mixed;
        refValue        uniform 300;
        refGradient     uniform 0;
        valueFraction   uniform 0.991591;
        source          uniform 0;
        value           nonuniform List<scalar> 
400
(
300.026
300.026
300.026
300.026
300.026
300.027
300.027
300.028
300.028
300.029
300.03
300.031
300.032
300.033
300.034
300.035
300.036
300.038
300.039
300.04
300.026
300.026
300.026
300.026
300.027
300.027
300.028
300.028
300.029
300.029
300.03
300.031
300.032
300.033
300.034
300.035
300.036
300.038
300.039
300.04
300.027
300.027