/*--------------------------------*- C++ -*----------------------------------*\
| =========                 |                                                 |
| \\      /  F ield         | OpenFOAM: The Open Source CFD Toolbox           |
|  \\    /   O peration     | Version:  2212                                  |
|   \\  /    A nd           | Website:  www.openfoam.com                      |
|    \\/     M anipulation  |                                                 |
\*---------------------------------------------------------------------------*/
FoamFile
{
    version     2.0;
    format      ascii;
    arch        "LSB;label=32;scalar=64";
    class       volScalarField;
    location    "0";
    object      stateMean;
}
// * * * * * * * * * * * * * * * * * * * * * * * * * * * * * * * * * * * * * //

dimensions      [0 0 0 1 0 0 0];

internalField   nonuniform List<scalar> 
3200
(
316.101
316.316
316.695
316.843
317.132
317.461
317.643
317.695
317.903
317.965
318.185
318.27
318.279
318.311
318.331
318.317
318.198
318.152
317.937
317.742
313.906
314.187
314.373
314.632
314.83
315.094
315.267
315.393
315.538
315.64
315.729
315.77
315.858
315.79
315.841
315.889
315.75
315.717
315.523
315.351
311.78
311.987
312.218
312.384
312.576
312.711
312.91
313.003
313.158
313.263
313.271
313.356
313.365
313.442
313.457
313.424
313.352
313.194
313.107
313.053
309.671
309.838
309.977
310.128
310.283
310.456
310.56
310.682
310.734
310.821
310.912
310.945
310.969
311.012
310.961
310.91
310.937
310.891
310.762
310.73
307.581
307.621
307.794
307.853
308.07
308.14
308.213
308.266
308.367
308.438
308.525
308.543
308.501
308.475
308.573
308.571
308.45
308.423
308.311
308.272
305.438
305.429
305.541
305.633
305.67
305.805
305.891
305.867
305.953
306.081
306.057
306.107
306.118
306.086
306.096
306.048
306.058
306.095
305.961
305.984
303.199
303.278
303.347
303.371
303.507
303.44
303.529
303.54
303.574
303.618
303.581
303.653
303.655
303.737
303.681
303.657
303.681
303.611
303.598
303.512
301.089
301.02
301.139
301.072
301.118
301.183
301.216
301.175
301.23
301.112
301.228
301.231
301.238
301.319
301.243
301.197
301.248
301.197
301.166
301.186
316.607
316.938
317.224
317.45
317.729
318.03
318.167
318.359
318.575
318.634
318.748
318.85
318.952
318.999
318.953
318.938
318.832
318.73
318.485
318.339
314.393
314.601
314.912
315.148
315.373
315.603
315.831
315.958
316.004
316.223
316.213
316.352
316.392
316.452
316.392
316.309
316.284
316.135
316.031
315.889
312.298
312.366
312.661
312.788
312.976
313.224
313.353
313.456
313.542
313.691
313.801
313.798
313.832
313.905
313.857
313.887
313.735
313.684
313.57
313.457
309.922
310.106
310.241
310.445
310.634
310.722
310.883
311.01
311.015
311.126
311.213
311.236
311.383
311.272
311.321
311.278
311.289
311.222
311.038
310.895
307.797
307.827
308.03
308.164
308.264
308.332
308.41
308.493
308.635
308.706
308.735
308.767
308.765
308.828
308.728
308.798
308.715
308.712
308.637
308.474
305.552
305.6
305.702
305.806
305.872
305.919
306.049
306.105
306.197
306.225
306.253
306.292
306.288
306.284
306.302
306.289
306.241
306.182
306.123
306.121
303.348
303.411
303.378
303.443
303.556
303.582
303.608
303.707
303.741
303.714
303.712
303.76
303.808
303.774
303.789
303.777
303.769
303.748
303.701
303.694
301.146
301.205
301.08
301.152
301.205
301.185
301.211
301.274
301.23
301.236
301.241
301.262
301.259
301.264
301.303
301.321
301.267
301.216
301.244
301.188
317.362
317.681
318.021
318.311
318.567
318.844
319.098
319.214
319.483
319.586
319.734
319.786
319.863
319.815
319.851
319.816
319.71
319.596
319.395
319.156
315.078
315.316
315.574
315.795
316.068
316.269
316.45
316.693
316.798
316.957
317.019
317.093
317.11
317.151
317.141
317.061
317.073
316.913
316.819
316.616
312.701
312.918
313.149
313.389
313.577
313.745
313.94
314.069
314.176
314.283
314.368
314.456
314.468
314.468
314.439
314.361
314.29
314.305
314.087
314.021
310.35
310.578
310.708
310.932
311.062
311.279
311.394
311.537
311.552
311.708
311.794
311.722
311.756
311.809
311.842
311.879
311.745
311.654
311.566
311.353
308.105
308.161
308.341
308.448
308.649
308.812
308.893
308.958
309.071
308.998
309.094
309.175
309.193
309.233
309.146
309.147
309.064
309.021
308.951
308.913
305.723
305.868
305.91
305.968
306.149
306.26
306.302
306.373
306.394
306.477
306.478
306.471
306.569
306.569
306.622
306.468
306.508
306.452
306.429
306.361
303.484
303.507
303.519
303.523
303.72
303.677
303.776
303.859
303.841
303.89
303.895
303.869
303.914
303.968
303.985
303.923
303.984
303.865
303.82
303.746
301.217
301.162
301.206
301.196
301.299
301.26
301.366
301.263
301.245
301.316
301.368
301.348
301.236
301.345
301.345
301.309
301.253
301.363
301.221
301.321
318.172
318.487
318.819
319.199
319.551
319.78
320.002
320.206
320.394
320.535
320.684
320.777
320.804
320.851
320.796
320.772
320.601
320.501
320.285
320.067
315.745
315.997
316.284
316.558
316.9
317.034
317.224
317.513
317.636
317.764
317.905
317.92
318.046
318.017
317.925
317.88
317.867
317.678
317.512
317.381
313.324
313.485
313.752
313.956
314.24
314.432
314.614
314.696
314.838
314.991
315.048
315.138
315.23
315.241
315.172
315.171
315.007
314.974
314.794
314.708
310.91
311.102
311.259
311.454
311.667
311.799
311.919
312.047
312.178
312.286
312.319
312.301
312.342
312.397
312.353
312.347
312.316
312.161
312.009
311.954
308.375
308.611
308.715
308.866
309.028
309.167
309.284
309.352
309.522
309.5
309.548
309.551
309.585
309.662
309.627
309.59
309.554
309.45
309.41
309.324
306.056
306.108
306.146
306.366
306.422
306.511
306.641
306.711
306.702
306.774
306.809
306.86
306.863
306.829
306.843
306.745
306.746
306.799
306.656
306.695
303.602
303.629
303.757
303.789
303.92
303.923
303.94
304.018
304.091
304.109
304.051
304.061
304.116
304.14
304.104
304.06
304.101
304.027
303.987
303.928
301.172
301.205
301.233
301.233
301.268
301.309
301.394
301.406
301.37
301.426
301.338
301.415
301.401
301.382
301.366
301.354
301.402
301.366
301.384
301.256
319.025
319.324
319.703
320.085
320.453
320.748
320.922
321.149
321.305
321.537
321.596
321.691
321.809
321.794
321.787
321.754
321.623
321.468
321.2
320.979
316.459
316.735
317.055
317.346
317.707
317.873
318.111
318.248
318.511
318.615
318.64
318.798
318.826
318.842
318.814
318.813
318.662
318.516
318.301
318.138
313.91
314.138
314.373
314.645
314.919
315.108
315.265
315.442
315.563
315.71
315.847
315.834
315.924
315.927
315.893
315.87
315.691
315.651
315.435
315.3
311.445
311.555
311.749
312.019
312.197
312.35
312.456
312.573
312.669
312.822
312.927
312.985
312.942
312.944
313.005
312.993
312.89
312.785
312.612
312.593
308.778
308.949
309.107
309.248
309.459
309.625
309.696
309.803
309.846
309.96
309.966
310.044
310.123
310.144
310.082
310.054
310.03
309.874
309.752
309.727
306.319
306.415
306.561
306.66
306.756
306.847
306.913
306.967
307.046
307.12
307.082
307.155
307.189
307.206
307.207
307.115
307.17
307.027
306.991
306.907
303.821
303.755
303.843
303.952
304.03
304.022
304.197
304.219
304.214
304.322
304.301
304.276
304.271
304.323
304.298
304.293
304.25
304.223
304.163
304.146
301.234
301.233
301.345
301.348
301.312
301.361
301.36
301.465
301.409
301.423
301.424
301.41
301.389
301.471
301.414
301.473
301.43
301.397
301.408
301.408
319.84
320.218
320.668
320.991
321.346
321.571
321.974
322.139
322.342
322.533
322.73
322.752
322.809
322.807
322.778
322.746
322.628
322.409
322.193
321.899
317.176
317.479
317.776
318.108
318.422
318.758
318.906
319.104
319.316
319.464
319.6
319.649
319.687
319.732
319.639
319.601
319.497
319.336
319.15
318.998
314.525
314.77
315.022
315.313
315.585
315.733
315.972
316.159
316.296
316.418
316.491
316.519
316.637
316.629
316.592
316.513
316.454
316.343
316.189
316.083
311.918
312.11
312.308
312.542
312.645
312.893
313.005
313.133
313.355
313.432
313.482
313.568
313.564
313.506
313.597
313.523
313.384
313.264
313.206
313.044
309.27
309.394
309.515
309.772
309.855
310.033
310.146
310.293
310.344
310.46
310.528
310.564
310.56
310.546
310.555
310.526
310.449
310.395
310.206
310.203
306.623
306.682
306.846
306.967
306.971
307.131
307.215
307.289
307.36
307.454
307.495
307.524
307.476
307.568
307.488
307.484
307.435
307.367
307.36
307.239
303.981
304.036
304.065
304.184
304.232
304.333
304.252
304.431
304.385
304.486
304.477
304.508
304.473
304.562
304.539
304.482
304.487
304.372
304.341
304.289
301.327
301.415
301.349
301.327
301.431
301.433
301.385
301.451
301.531
301.504
301.526
301.523
301.463
301.499
301.532
301.457
301.438
301.446
301.472
301.423
320.704
321.031
321.539
321.871
322.207
322.594
322.849
323.099
323.311
323.535
323.646
323.783
323.814
323.851
323.769
323.683
323.556
323.345
323.014
322.788
317.921
318.193
318.571
318.908
319.272
319.532
319.773
319.943
320.135
320.269
320.442
320.466
320.554
320.525
320.495
320.399
320.31
320.134
319.952
319.683
315.168
315.337
315.703
315.956
316.264
316.525
316.671
316.86
317.015
317.162
317.311
317.266
317.387
317.428
317.293
317.307
317.164
316.977
316.803
316.609
312.38
312.61
312.884
313.036
313.205
313.472
313.587
313.801
313.908
313.987
314.068
314.185
314.185
314.207
314.144
314.092
314.037
313.895
313.744
313.619
309.643
309.731
309.968
310.124
310.235
310.45
310.562
310.743
310.825
310.861
310.966
310.956
310.966
311.002
310.954
310.904
310.844
310.744
310.698
310.553
306.817
306.898
307.115
307.188
307.334
307.437
307.59
307.623
307.695
307.811
307.816
307.809
307.873
307.84
307.83
307.788
307.769
307.746
307.578
307.522
304.104
304.199
304.288
304.315
304.466
304.483
304.484
304.576
304.62
304.688
304.647
304.678
304.704
304.753
304.656
304.719
304.663
304.657
304.547
304.521
301.392
301.436
301.394
301.423
301.484
301.511
301.5
301.52
301.614
301.562
301.621
301.617
301.649
301.626
301.553
301.557
301.543
301.579
301.513
301.515
321.478
321.9
322.347
322.712
323.148
323.497
323.792
324.138
324.296
324.523
324.623
324.688
324.7
324.756
324.725
324.6
324.453
324.215
324.024
323.706
318.54
318.86
319.322
319.724
319.996
320.309
320.581
320.808
320.962
321.133
321.306
321.347
321.331
321.393
321.321
321.272
321.175
320.934
320.717
320.495
315.695
315.986
316.335
316.599
316.903
317.094
317.386
317.586
317.698
317.825
317.94
318.035
318
318.07
318.024
318.014
317.867
317.711
317.464
317.253
312.84
313.061
313.26
313.564
313.801
314.038
314.184
314.334
314.464
314.573
314.626
314.747
314.773
314.713
314.694
314.646
314.557
314.432
314.192
314.111
309.992
310.163
310.349
310.576
310.706
310.911
311.048
311.133
311.246
311.303
311.341
311.382
311.398
311.475
311.456
311.412
311.265
311.221
311.095
310.961
307.154
307.234
307.418
307.531
307.7
307.747
307.898
307.933
308.006
308.064
308.144
308.193
308.153
308.144
308.197
308.11
308.065
307.991
307.939
307.872
304.304
304.301
304.472
304.511
304.514
304.714
304.658
304.795
304.768
304.852
304.895
304.89
304.881
304.909
304.88
304.912
304.833
304.752
304.753
304.702
301.469
301.448
301.474
301.525
301.549
301.563
301.537
301.66
301.599
301.597
301.644
301.634
301.604
301.605
301.622
301.632
301.636
301.631
301.536
301.546
322.291
322.691
323.227
323.607
323.963
324.321
324.74
325.013
325.18
325.396
325.61
325.668
325.684
325.745
325.676
325.5
325.349
325.165
324.882
324.582
319.268
319.712
320.032
320.4
320.761
321.074
321.448
321.584
321.81
321.961
322.046
322.215
322.232
322.258
322.217
322.048
321.957
321.616
321.439
321.241
316.316
316.649
316.933
317.265
317.524
317.758
318.02
318.229
318.468
318.555
318.629
318.697
318.744
318.777
318.77
318.614
318.492
318.284
318.117
317.885
313.398
313.599
313.793
314.132
314.347
314.55
314.697
314.862
315.005
315.111
315.282
315.322
315.339
315.321
315.32
315.142
315.053
314.956
314.751
314.661
310.373
310.524
310.735
310.907
311.114
311.289
311.483
311.567
311.651
311.812
311.755
311.86
311.912
311.878
311.82
311.804
311.649
311.634
311.481
311.324
307.404
307.515
307.664
307.777
307.975
308.003
308.169
308.289
308.352
308.34
308.431
308.451
308.429
308.473
308.491
308.41
308.299
308.308
308.171
308.172
304.387
304.447
304.583
304.611
304.71
304.83
304.862
304.955
305.004
305.03
305.076
305.075
305.153
305.005
305.091
305.046
305.01
304.987
304.953
304.879
301.425
301.5
301.565
301.608
301.611
301.624
301.668
301.605
301.632
301.643
301.747
301.625
301.683
301.706
301.715
301.688
301.689
301.758
301.629
301.658
323.072
323.495
324.006
324.424
324.823
325.249
325.543
325.844
326.13
326.3
326.436
326.611
326.616
326.629
326.549
326.368
326.148
326.032
325.613
325.376
319.983
320.283
320.709
321.083
321.52
321.893
322.139
322.355
322.606
322.718
322.79
322.957
323.022
323.013
322.966
322.833
322.711
322.435
322.234
321.939
316.801
317.139
317.575
317.818
318.136
318.468
318.691
318.877
319.081
319.235
319.324
319.416
319.452
319.375
319.353
319.311
319.18
318.989
318.74
318.492
313.751
313.938
314.283
314.604
314.818
315.042
315.276
315.347
315.527
315.679
315.73
315.819
315.844
315.822
315.804
315.687
315.626
315.471
315.304
315.065
310.741
310.867
311.095
311.292
311.52
311.642
311.86
311.894
312.106
312.163
312.308
312.28
312.299
312.302
312.304
312.199
312.131
311.983
311.815
311.705
307.635
307.729
307.858
308.073
308.23
308.31
308.407
308.544
308.688
308.65
308.72
308.743
308.723
308.759
308.755
308.737
308.659
308.547
308.508
308.376
304.61
304.719
304.763
304.842
304.909
305.04
305.059
305.185
305.189
305.187
305.18
305.213
305.281
305.215
305.284
305.274
305.222
305.067
305.07
304.952
301.561
301.603
301.602
301.572
301.615
301.622
301.65
301.707
301.731
301.725
301.722
301.703
301.774
301.753
301.828
301.786
301.717
301.675
301.726
301.671
323.784
324.302
324.754
325.226
325.647
326.083
326.461
326.753
326.988
327.12
327.401
327.443
327.533
327.476
327.382
327.311
327.146
326.794
326.519
326.137
320.56
320.998
321.385
321.821
322.22
322.614
322.839
323.105
323.31
323.512
323.638
323.733
323.796
323.737
323.703
323.592
323.412
323.101
322.958
322.602
317.331
317.758
318.003
318.419
318.781
319.017
319.316
319.508
319.674
319.883
319.906
320.018
320.122
320.07
320.065
319.862
319.742
319.502
319.303
319.126
314.149
314.462
314.744
315.028
315.342
315.552
315.713
315.901
316.128
316.17
316.352
316.362
316.35
316.318
316.372
316.312
316.143
315.976
315.767
315.553
311.05
311.212
311.466
311.754
311.864
312.107
312.25
312.328
312.564
312.573
312.609
312.715
312.735
312.683
312.697
312.617
312.484
312.389
312.229
312.104
307.848
307.942
308.191
308.303
308.521
308.627
308.755
308.851
308.886
308.978
309.048
309.046
309.096
309.01
309.041
308.966
308.991
308.818
308.76
308.588
304.79
304.792
304.894
305.026
305.121
305.201
305.215
305.292
305.351
305.371
305.433
305.403
305.438
305.485
305.478
305.355
305.382
305.317
305.229
305.25
301.63
301.645
301.643
301.689
301.657
301.694
301.735
301.761
301.817
301.793
301.836
301.777
301.846
301.817
301.767
301.782
301.796
301.765
301.754
301.731
324.457
324.927
325.422
326.03
326.446
326.795
327.247
327.608
327.811
328.126
328.244
328.264
328.296
328.296
328.225
328.048
327.841
327.626
327.227
326.909
321.226
321.532
322.058
322.455
322.839
323.257
323.591
323.811
324.049
324.291
324.36
324.499
324.443
324.506
324.418
324.328
324.068
323.894
323.548
323.262
317.875
318.201
318.617
318.996
319.315
319.62
319.955
320.078
320.317
320.486
320.583
320.691
320.712
320.698
320.625
320.477
320.287
320.146
319.879
319.701
314.551
314.832
315.161
315.496
315.748
316.017
316.242
316.406
316.589
316.614
316.772
316.884
316.923
316.841
316.778
316.773
316.614
316.464
316.206
316.023
311.406
311.57
311.84
312.051
312.235
312.417
312.559
312.756
312.905
313.031
313.082
313.118
313.144
313.095
313.015
313.054
312.844
312.724
312.596
312.452
308.114
308.282
308.429
308.638
308.688
308.884
309.052
309.105
309.14
309.325
309.312
309.346
309.423
309.322
309.358
309.263
309.225
309.137
309.034
308.931
304.821
304.917
305.045
305.199
305.217
305.337
305.452
305.521
305.565
305.564
305.547
305.617
305.566
305.556
305.614
305.61
305.574
305.456
305.404
305.343
301.657
301.604
301.649
301.73
301.775
301.777
301.839
301.907
301.898
301.813
301.902
301.925
301.874
301.849
301.892
301.892
301.88
301.811
301.767
301.82
325.067
325.65
326.169
326.762
327.185
327.588
327.983
328.314
328.66
328.853
329.032
329.125
329.214
329.052
329.007
328.828
328.665
328.335
327.985
327.651
321.727
322.134
322.653
323.114
323.554
323.893
324.194
324.517
324.672
324.95
325.073
325.181
325.154
325.191
325.134
324.959
324.732
324.461
324.199
323.891
318.41
318.674
319.104
319.494
319.819
320.151
320.446
320.796
320.799
321.005
321.189
321.258
321.246
321.198
321.121
321.065
320.919
320.734
320.453
320.196
314.995
315.24
315.668
315.983
316.241
316.472
316.745
316.88
317.075
317.231
317.237
317.33
317.361
317.394
317.343
317.232
317.124
316.881
316.717
316.556
311.676
311.902
312.097
312.306
312.642
312.781
312.942
313.096
313.27
313.337
313.404
313.448
313.513
313.387
313.391
313.279
313.199
313.085
312.947
312.849
308.326
308.418
308.755
308.803
308.973
309.146
309.228
309.489
309.461
309.509
309.576
309.566
309.662
309.652
309.629
309.523
309.423
309.326
309.247
309.139
305.012
305.094
305.204
305.265
305.359
305.491
305.527
305.621
305.667
305.675
305.836
305.722
305.792
305.731
305.769
305.73
305.654
305.593
305.596
305.566
301.723
301.721
301.752
301.742
301.816
301.855
301.861
301.815
301.871
301.898
301.954
301.894
301.946
301.884
301.969
301.892
301.856
301.934
301.821
301.818
325.742
326.161
326.779
327.414
327.869
328.357
328.691
329.061
329.333
329.608
329.704
329.845
329.889
329.851
329.716
329.605
329.294
329.051
328.717
328.344
322.294
322.708
323.19
323.678
324.129
324.422
324.837
325.073
325.401
325.46
325.679
325.752
325.785
325.886
325.708
325.631
325.36
325.115
324.789
324.448
318.802
319.143
319.571
319.927
320.398
320.722
321.044
321.251
321.416
321.615
321.675
321.804
321.863
321.759
321.702
321.553
321.409
321.191
320.944
320.687
315.448
315.694
315.989
316.356
316.629
316.929
317.207
317.268
317.49
317.655
317.694
317.738
317.797
317.812
317.691
317.676
317.466
317.385
317.091
316.89
311.917
312.154
312.501
312.678
312.932
313.103
313.307
313.482
313.654
313.692
313.785
313.821
313.803
313.838
313.815
313.744
313.551
313.416
313.249
313.128
308.488
308.747
308.921
309.065
309.226
309.324
309.516
309.556
309.632
309.719
309.833
309.865
309.954
309.825
309.904
309.799
309.78
309.587
309.503
309.395
305.113
305.239
305.34
305.422
305.577
305.644
305.733
305.771
305.81
305.816
305.93
305.827
305.886
305.927
305.895
305.864
305.785
305.782
305.638
305.632
301.727
301.69
301.74
301.779
301.858
301.908
301.894
301.961
301.927
301.876
301.997
301.974
302.009
301.932
301.967
301.958
301.999
301.969
301.863
301.811
326.349
326.841
327.407
328.007
328.495
328.987
329.355
329.751
330.045
330.245
330.467
330.504
330.581
330.564
330.392
330.285
329.984
329.721
329.277
328.865
322.725
323.247
323.684
324.115
324.633
325.03
325.437
325.742
325.958
326.234
326.327
326.484
326.449
326.365
326.281
326.164
325.919
325.679
325.267
325.029
319.308
319.66
320.055
320.433
320.825
321.133
321.473
321.727
321.894
322.092
322.287
322.334
322.328
322.231
322.265
322.06
321.935
321.671
321.377
321.192
315.76
316.008
316.322
316.624
316.962
317.295
317.555
317.682
317.865
318.128
318.181
318.231
318.212
318.16
318.163
318.019
317.887
317.677
317.476
317.243
312.183
312.496
312.7
312.905
313.116
313.402
313.61
313.83
313.852
314.037
314.066
314.173
314.115
314.154
314.182
313.991
313.941
313.73
313.574
313.423
308.791
308.946
309.184
309.251
309.423
309.568
309.787
309.794
309.978
310.082
310.037
310.098
310.088
310.119
310.103
310.032
309.945
309.761
309.659
309.603
305.254
305.324
305.389
305.586
305.623
305.712
305.768
305.91
305.989
306.062
306.095
306.049
306.018
306.047
306.072
306.045
305.956
305.909
305.817
305.753
301.741
301.742
301.825
301.932
301.937
301.989
301.983
301.938
301.976
302.038
301.982
302.044
302.083
302.028
302.001
301.969
302.012
301.943
301.922
301.909
326.85
327.332
327.951
328.612
329.115
329.545
329.997
330.369
330.691
330.872
331.133
331.195
331.177
331.177
331.09
330.875
330.623
330.313
329.921
329.436
323.284
323.692
324.2
324.665
325.153
325.533
325.929
326.221
326.516
326.732
326.795
326.957
327.034
326.937
326.828
326.665
326.498
326.207
325.8
325.485
319.608
319.967
320.422
320.872
321.282
321.651
321.862
322.235
322.414
322.582
322.663
322.736
322.757
322.822
322.716
322.532
322.371
322.13
321.78
321.562
315.985
316.346
316.729
317.086
317.357
317.657
317.837
318.087
318.295
318.442
318.541
318.544
318.589
318.516
318.468
318.39
318.187
318.033
317.814
317.635
312.494
312.669
312.998
313.248
313.468
313.697
313.875
314.064
314.173
314.264
314.384
314.429
314.484
314.354
314.42
314.325
314.143
313.994
313.811
313.666
308.892
309.077
309.266
309.491
309.608
309.75
309.94
310.04
310.193
310.184
310.28
310.368
310.258
310.299
310.33
310.201
310.159
309.983
309.813
309.74
305.348
305.483
305.634
305.74
305.751
305.874
305.952
305.991
306.071
306.11
306.17
306.145
306.176
306.167
306.194
306.126
306.071
305.99
305.912
305.839
301.745
301.87
301.87
301.88
301.954
302.013
302.058
302.05
302.046
302.032
302.042
302.099
302.056
302.093
302.041
302.049
302.034
302.045
301.962
301.957
327.279
327.916
328.421
329.087
329.682
330.12
330.579
330.896
331.238
331.407
331.612
331.83
331.779
331.758
331.584
331.465
331.088
330.792
330.461
329.993
323.619
324.061
324.689
325.082
325.63
326.063
326.444
326.805
327.007
327.235
327.414
327.445
327.519
327.48
327.343
327.152
326.993
326.611
326.283
325.963
319.894
320.289
320.772
321.242
321.698
321.977
322.279
322.561
322.751
322.912
323.094
323.198
323.198
323.205
323.023
323.029
322.706
322.5
322.195
321.906
316.288
316.633
316.992
317.292
317.683
317.979
318.216
318.416
318.679
318.814
318.859
318.845
318.882
318.89
318.861
318.709
318.604
318.265
318.109
317.815
312.66
312.962
313.157
313.492
313.749
313.956
314.157
314.355
314.525
314.555
314.571
314.652
314.757
314.701
314.596
314.554
314.4
314.295
314.092
313.894
309.122
309.23
309.364
309.64
309.802
309.985
310.091
310.182
310.325
310.377
310.485
310.499
310.496
310.504
310.481
310.428
310.278
310.227
310.063
309.919
305.436
305.539
305.668
305.745
305.872
306.027
306.021
306.121
306.188
306.258
306.266
306.249
306.266
306.247
306.3
306.278
306.204
306.06
305.987
305.991
301.802
301.894
301.891
301.864
301.989
302.055
302.06
302.004
302.081
302.115
302.129
302.191
302.058
302.095
302.122
302.051
302.053
302.064
302.061
302.012
327.687
328.243
328.809
329.537
330.063
330.605
331.023
331.481
331.712
332.017
332.187
332.307
332.294
332.307
332.139
331.829
331.641
331.229
330.872
330.447
323.926
324.399
324.966
325.547
326.027
326.428
326.863
327.188
327.488
327.595
327.848
327.829
327.895
327.887
327.765
327.561
327.312
327.033
326.631
326.368
320.26
320.662
321.078
321.611
321.98
322.352
322.722
323.019
323.189
323.349
323.414
323.552
323.544
323.564
323.388
323.345
323.098
322.786
322.534
322.23
316.623
316.809
317.259
317.652
317.932
318.298
318.469
318.698
318.937
319.038
319.181
319.254
319.225
319.23
319.15
318.999
318.888
318.602
318.344
318.203
312.896
313.137
313.404
313.64
314.002
314.145
314.416
314.572
314.697
314.862
314.904
314.923
314.908
314.958
314.858
314.744
314.62
314.443
314.28
314.121
309.217
309.331
309.595
309.814
309.983
310.076
310.266
310.306
310.472
310.604
310.644
310.647
310.687
310.643
310.565
310.576
310.41
310.304
310.207
310.046
305.534
305.618
305.679
305.816
305.928
306.069
306.161
306.206
306.319
306.397
306.359
306.321
306.372
306.412
306.299
306.342
306.311
306.245
306.128
306.012
301.807
301.888
301.935
301.93
302.051
301.997
302.075
302.118
302.12
302.142
302.119
302.057
302.155
302.145
302.215
302.118
302.095
302.031
302.063
302.024
328.022
328.582
329.239
329.945
330.512
330.991
331.41
331.842
332.191
332.357
332.583
332.684
332.696
332.647
332.556
332.334
331.982
331.579
331.186
330.783
324.228
324.725
325.295
325.824
326.345
326.723
327.216
327.522
327.842
328.065
328.196
328.288
328.24
328.213
328.098
327.852
327.649
327.314
326.948
326.586
320.472
320.885
321.391
321.769
322.211
322.672
322.907
323.261
323.507
323.583
323.805
323.876
323.84
323.793
323.793
323.465
323.386
322.985
322.787
322.484
316.711
317.042
317.48
317.861
318.152
318.511
318.792
318.975
319.153
319.264
319.365
319.431
319.459
319.516
319.369
319.246
318.998
318.799
318.658
318.33
312.997
313.23
313.537
313.856
314.137
314.373
314.564
314.717
314.882
314.987
315.07
315.138
315.183
315.081
315.053
315
314.843
314.734
314.449
314.25
309.307
309.47
309.658
309.827
310.051
310.315
310.377
310.5
310.644
310.692
310.74
310.758
310.823
310.807
310.747
310.681
310.57
310.43
310.309
310.186
305.583
305.699
305.756
305.893
306.066
306.179
306.296
306.272
306.391
306.449
306.381
306.429
306.492
306.413
306.416
306.437
306.303
306.289
306.183
306.089
301.935
301.924
301.952
301.958
302.088
302.062
302.041
302.101
302.114
302.151
302.181
302.203
302.229
302.119
302.189
302.208
302.104
302.094
302.113
302.062
328.27
328.858
329.441
330.114
330.723
331.216
331.741
332.092
332.393
332.671
332.841
332.945
333.018
332.926
332.798
332.609
332.213
331.957
331.506
331.004
324.416
324.983
325.464
326.075
326.574
327.029
327.405
327.752
328.019
328.259
328.385
328.462
328.517
328.465
328.38
328.122
327.891
327.591
327.211
326.784
320.55
320.998
321.529
322.01
322.366
322.789
323.046
323.42
323.584
323.794
323.973
323.926
324.066
324.032
323.933
323.677
323.524
323.183
322.904
322.643
316.862
317.128
317.592
317.971
318.274
318.606
318.869
319.107
319.337
319.507
319.577
319.584
319.62
319.645
319.488
319.416
319.217
318.993
318.747
318.476
313.113
313.388
313.67
313.989
314.186
314.422
314.694
314.77
315.056
315.049
315.138
315.266
315.302
315.254
315.163
315.033
314.837
314.608
314.571
314.368
309.381
309.49
309.772
309.947
310.197
310.345
310.515
310.538
310.65
310.775
310.797
310.937
310.876
310.808
310.835
310.745
310.667
310.521
310.387
310.243
305.68
305.769
305.84
305.946
306.098
306.235
306.279
306.29
306.392
306.421
306.474
306.527
306.588
306.493
306.495
306.431
306.348
306.291
306.205
306.17
301.902
301.934
301.969
301.978
302.029
302.036
302.103
302.097
302.151
302.128
302.203
302.244
302.254
302.203
302.19
302.168
302.249
302.137
302.064
302.069
)
;

boundaryField
{
    hotSide
    {
        type            fixedGradient;
        gradient        nonuniform List<scalar> 
400
(
321.511
322.87
325.591
329.677
335.133
341.965
350.181
359.788
370.794
383.208
397.037
412.289
428.971
447.088
466.647
487.651
510.105
534.011
559.372
586.191
323.738
325.08
327.767
331.802
337.194
343.949
352.078
361.591
372.498
384.81
398.537
413.687
430.268
448.289
467.755
488.672
511.043
534.872
560.161
586.913
326.149
327.47
330.116
334.091
339.406
346.071
354.099
363.503
374.296
386.491
400.101
415.136
431.606
449.52
468.885
489.706
511.988
535.735
560.948
587.63
328.704
330
332.597
336.503
341.73
348.292
356.205
365.485
376.15
388.215
401.695
416.604
432.954
450.753
470.009
490.73
512.919
536.579
561.714
588.325
331.33
332.599
335.142
338.97
344.099
350.546
358.332
367.477
378.003
389.928
403.271
418.047
434.27
451.949
471.095
491.712
513.807
537.382
562.439
588.978
333.918
335.158
337.643
341.389
346.414
352.74
360.392
369.397
379.779
391.562
404.765
419.407
435.503
453.065
472.101
492.618
514.622
538.114
563.096
589.569
336.321
337.531
339.959
343.622
348.544
354.751
362.274
371.142
381.385
393.031
406.101
420.618
436.595
454.047
472.983
493.409
515.33
538.747
563.663
590.076
338.36
339.543
341.92
345.509
350.339
356.44
363.847
372.595
382.718
394.244
407.2
421.608
437.485
454.844
473.695
494.045
515.897
539.253
564.114
590.478
339.852
341.015
343.352
346.885
351.645
357.665
364.985
373.643
383.675
395.113
407.984
422.312
438.116
455.407
474.197
494.491
516.294
539.606
564.428
590.758
340.643
341.795
344.11
347.613
352.334
358.311
365.584
374.193
384.176
395.567
408.393
422.679
438.443
455.699
474.456
494.722
516.498
539.788
564.589
590.901
340.643
341.795
344.11
347.613
352.334
358.311
365.584
374.193
384.176
395.567
408.393
422.679
438.443
455.699
474.456
494.722
516.498
539.788
564.589
590.901
339.852
341.015
343.352
346.885
351.645
357.665
364.985
373.643
383.675
395.113
407.984
422.312
438.116
455.407
474.197
494.491
516.294
539.606
564.428
590.758
338.36
339.543
341.92
345.509
350.339
356.44
363.847
372.595
382.718
394.244
407.2
421.608
437.485
454.844
473.695
494.045
515.897
539.253
564.114
590.478
336.321
337.531
339.959
343.622
348.544
354.751
362.274
371.142
381.385
393.031
406.101
420.618
436.595
454.047
472.983
493.409
515.33
538.747
563.663
590.076
333.918
335.158
337.643
341.389
346.414
352.74
360.392
369.397
379.779
391.562
404.765
419.407
435.503
453.065
472.101
492.618
514.622
538.114
563.096
589.569
331.33
332.599
335.142
338.97
344.099
350.546
358.332
367.477
378.003
389.928
403.271
418.047
434.27
451.949
471.095
491.712
513.807
537.382
562.439
588.978
328.704
330
332.597
336.503
341.73
348.292
356.205
365.485
376.15
388.215
401.695
416.604
432.954
450.753
470.009
490.73
512.919
536.579
561.714
588.325
326.149
327.47
330.116
334.091
339.406
346.071
354.099
363.503
374.296
386.491
400.101
415.136
431.606
449.52
468.885
489.706
511.988
535.735
560.948
587.63
323.738
325.08
327.767
331.802
337.194
343.949
352.078
361.591
372.498
384.81
398.537
413.687
430.268
448.289
467.755
488.672
511.043
534.872
560.161
586.913
321.511
322.87
325.591
329.677
335.133
341.965
350.181
359.788
370.794
383.208
397.037
412.289
428.971
447.088
466.647
487.651
510.105
534.011
559.372
586.191
)
;
    }
    coldSide
    {
        type            mixed;
        refValue        uniform 300;
        refGradient     uniform 0;
        valueFraction   uniform 0.991591;
        source          uniform 0;
        value           nonuniform List<scalar> 
400
(
300.009
300.01
300.01
300.01
300.01
300.011
300.012
300.012
300.012
300.013
300.014
300.014
300.014
300.015
300.015
300.015
300.015
300.015
300.016
300.016
300.009
300.01
300.01
300.01
300.01
300.012
300.012
300.012
300.013
300.013
300.014
300.013
300.014