/*--------------------------------*- C++ -*----------------------------------*\
| =========                 |                                                 |
| \\      /  F ield         | OpenFOAM: The Open Source CFD Toolbox           |
|  \\    /   O peration     | Version:  2212                                  |
|   \\  /    A nd           | Website:  www.openfoam.com                      |
|    \\/     M anipulation  |                                                 |
\*---------------------------------------------------------------------------*/
FoamFile
{
    version     2.0;
    format      ascii;
    arch        "LSB;label=32;scalar=64";
    class       volScalarField;
    location    "./ITHACAoutput/true/13.2";
    object      trueState;
}
// * * * * * * * * * * * * * * * * * * * * * * * * * * * * * * * * * * * * * //

dimensions      [0 0 0 1 0 0 0];

internalField   nonuniform List<scalar> 
3200
(
321.367
321.701
322.128
322.593
323.072
323.542
323.976
324.342
324.609
324.75
324.75
324.609
324.342
323.976
323.542
323.072
322.593
322.128
321.701
321.367
318.471
318.754
319.122
319.524
319.939
320.345
320.72
321.037
321.267
321.389
321.389
321.267
321.037
320.72
320.345
319.939
319.524
319.122
318.754
318.471
315.596
315.831
316.141
316.481
316.831
317.175
317.491
317.759
317.953
318.056
318.056
317.953
317.759
317.491
317.175
316.831
316.481
316.141
315.831
315.596
312.739
312.928
313.181
313.459
313.745
314.026
314.284
314.502
314.661
314.745
314.745
314.661
314.502
314.284
314.026
313.745
313.459
313.181
312.928
312.739
309.896
310.041
310.237
310.453
310.676
310.894
311.095
311.264
311.387
311.452
311.452
311.387
311.264
311.095
310.894
310.676
310.453
310.237
310.041
309.896
307.064
307.167
307.307
307.461
307.62
307.776
307.919
308.04
308.128
308.174
308.174
308.128
308.04
307.919
307.776
307.62
307.461
307.307
307.167
307.064
304.24
304.302
304.385
304.478
304.573
304.667
304.753
304.825
304.878
304.906
304.906
304.878
304.825
304.753
304.667
304.573
304.478
304.385
304.302
304.24
301.421
301.441
301.469
301.5
301.532
301.564
301.593
301.617
301.635
301.644
301.644
301.635
301.617
301.593
301.564
301.532
301.5
301.469
301.441
301.421
321.434
321.765
322.188
322.649
323.123
323.588
324.017
324.378
324.642
324.781
324.781
324.642
324.378
324.017
323.588
323.123
322.649
322.188
321.765
321.434
318.529
318.809
319.174
319.573
319.983
320.385
320.756
321.068
321.296
321.416
321.416
321.296
321.068
320.756
320.385
319.983
319.573
319.174
318.809
318.529
315.645
315.877
316.185
316.522
316.868
317.208
317.521
317.785
317.977
318.078
318.078
317.977
317.785
317.521
317.208
316.868
316.522
316.185
315.877
315.645
312.779
312.966
313.216
313.492
313.775
314.053
314.308
314.524
314.681
314.763
314.763
314.681
314.524
314.308
314.053
313.775
313.492
313.216
312.966
312.779
309.927
310.071
310.265
310.479
310.699
310.915
311.114
311.281
311.403
311.467
311.467
311.403
311.281
311.114
310.915
310.699
310.479
310.265
310.071
309.927
307.086
307.188
307.327
307.479
307.637
307.791
307.932
308.052
308.139
308.184
308.184
308.139
308.052
307.932
307.791
307.637
307.479
307.327
307.188
307.086
304.253
304.314
304.397
304.489
304.583
304.676
304.761
304.833
304.885
304.912
304.912
304.885
304.833
304.761
304.676
304.583
304.489
304.397
304.314
304.253
301.425
301.446
301.473
301.504
301.536
301.567
301.595
301.619
301.637
301.646
301.646
301.637
301.619
301.595
301.567
301.536
301.504
301.473
301.446
301.425
321.568
321.894
322.31
322.762
323.226
323.681
324.1
324.453
324.71
324.845
324.845
324.71
324.453
324.1
323.681
323.226
322.762
322.31
321.894
321.568
318.644
318.92
319.279
319.67
320.072
320.466
320.828
321.133
321.354
321.471
321.471
321.354
321.133
320.828
320.466
320.072
319.67
319.279
318.92
318.644
315.742
315.971
316.273
316.604
316.943
317.276
317.582
317.839
318.026
318.125
318.125
318.026
317.839
317.582
317.276
316.943
316.604
316.273
315.971
315.742
312.858
313.042
313.288
313.558
313.836
314.108
314.358
314.568
314.721
314.801
314.801
314.721
314.568
314.358
314.108
313.836
313.558
313.288
313.042
312.858
309.988
310.13
310.321
310.531
310.747
310.958
311.152
311.315
311.434
311.496
311.496
311.434
311.315
311.152
310.958
310.747
310.531
310.321
310.13
309.988
307.13
307.23
307.366
307.516
307.67
307.821
307.96
308.076
308.161
308.205
308.205
308.161
308.076
307.96
307.821
307.67
307.516
307.366
307.23
307.13
304.279
304.339
304.421
304.511
304.604
304.694
304.777
304.847
304.898
304.925
304.925
304.898
304.847
304.777
304.694
304.604
304.511
304.421
304.339
304.279
301.434
301.454
301.481
301.512
301.543
301.573
301.601
301.624
301.641
301.65
301.65
301.641
301.624
301.601
301.573
301.543
301.512
301.481
301.454
301.434
321.77
322.088
322.494
322.933
323.384
323.825
324.229
324.569
324.816
324.947
324.947
324.816
324.569
324.229
323.825
323.384
322.933
322.494
322.088
321.77
318.818
319.087
319.437
319.818
320.208
320.589
320.939
321.233
321.446
321.559
321.559
321.446
321.233
320.939
320.589
320.208
319.818
319.437
319.087
318.818
315.888
316.112
316.406
316.728
317.058
317.38
317.675
317.923
318.103
318.198
318.198
318.103
317.923
317.675
317.38
317.058
316.728
316.406
316.112
315.888
312.977
313.157
313.397
313.66
313.929
314.192
314.434
314.637
314.784
314.861
314.861
314.784
314.637
314.434
314.192
313.929
313.66
313.397
313.157
312.977
310.08
310.219
310.405
310.609
310.819
311.023
311.211
311.368
311.483
311.543
311.543
311.483
311.368
311.211
311.023
310.819
310.609
310.405
310.219
310.08
307.196
307.293
307.426
307.572
307.722
307.868
308.002
308.114
308.196
308.239
308.239
308.196
308.114
308.002
307.868
307.722
307.572
307.426
307.293
307.196
304.319
304.377
304.457
304.545
304.634
304.722
304.802
304.87
304.919
304.945
304.945
304.919
304.87
304.802
304.722
304.634
304.545
304.457
304.377
304.319
301.447
301.467
301.493
301.523
301.553
301.582
301.609
301.632
301.648
301.657
301.657
301.648
301.632
301.609
301.582
301.553
301.523
301.493
301.467
301.447
322.04
322.349
322.741
323.165
323.599
324.021
324.407
324.732
324.967
325.09
325.09
324.967
324.732
324.407
324.021
323.599
323.165
322.741
322.349
322.04
319.051
319.312
319.65
320.017
320.393
320.758
321.092
321.373
321.576
321.683
321.683
321.576
321.373
321.092
320.758
320.393
320.017
319.65
319.312
319.051
316.084
316.301
316.586
316.896
317.213
317.522
317.804
318.041
318.212
318.303
318.303
318.212
318.041
317.804
317.522
317.213
316.896
316.586
316.301
316.084
313.136
313.311
313.543
313.797
314.056
314.308
314.539
314.733
314.873
314.946
314.946
314.873
314.733
314.539
314.308
314.056
313.797
313.543
313.311
313.136
310.204
310.338
310.518
310.715
310.917
311.113
311.292
311.443
311.551
311.609
311.609
311.551
311.443
311.292
311.113
310.917
310.715
310.518
310.338
310.204
307.284
307.379
307.507
307.648
307.792
307.932
308.06
308.167
308.245
308.286
308.286
308.245
308.167
308.06
307.932
307.792
307.648
307.507
307.379
307.284
304.372
304.428
304.505
304.59
304.676
304.76
304.837
304.902
304.948
304.973
304.973
304.948
304.902
304.837
304.76
304.676
304.59
304.505
304.428
304.372
301.465
301.484
301.51
301.538
301.567
301.595
301.621
301.642
301.658
301.666
301.666
301.658
301.642
301.621
301.595
301.567
301.538
301.51
301.484
301.465
322.381
322.678
323.055
323.46
323.873
324.274
324.64
324.946
325.167
325.283
325.283
325.167
324.946
324.64
324.274
323.873
323.46
323.055
322.678
322.381
319.344
319.596
319.92
320.271
320.629
320.976
321.292
321.557
321.748
321.849
321.849
321.748
321.557
321.292
320.976
320.629
320.271
319.92
319.596
319.344
316.331
316.54
316.813
317.11
317.412
317.705
317.973
318.196
318.358
318.442
318.442
318.358
318.196
317.973
317.705
317.412
317.11
316.813
316.54
316.331
313.337
313.506
313.728
313.971
314.218
314.458
314.676
314.859
314.991
315.06
315.06
314.991
314.859
314.676
314.458
314.218
313.971
313.728
313.506
313.337
310.36
310.489
310.662
310.85
311.043
311.229
311.399
311.541
311.643
311.697
311.697
311.643
311.541
311.399
311.229
311.043
310.85
310.662
310.489
310.36
307.395
307.486
307.609
307.744
307.881
308.014
308.136
308.237
308.31
308.348
308.348
308.31
308.237
308.136
308.014
307.881
307.744
307.609
307.486
307.395
304.438
304.493
304.567
304.648
304.73
304.81
304.883
304.944
304.987
305.011
305.011
304.987
304.944
304.883
304.81
304.73
304.648
304.567
304.493
304.438
301.487
301.505
301.53
301.557
301.585
301.612
301.636
301.656
301.671
301.679
301.679
301.671
301.656
301.636
301.612
301.585
301.557
301.53
301.505
301.487
322.793
323.078
323.436
323.821
324.211
324.588
324.932
325.217
325.423
325.532
325.532
325.423
325.217
324.932
324.588
324.211
323.821
323.436
323.078
322.793
319.699
319.94
320.249
320.582
320.92
321.247
321.544
321.791
321.969
322.063
322.063
321.969
321.791
321.544
321.247
320.92
320.582
320.249
319.94
319.699
316.63
316.829
317.09
317.371
317.657
317.933
318.184
318.393
318.544
318.623
318.623
318.544
318.393
318.184
317.933
317.657
317.371
317.09
316.829
316.63
313.581
313.741
313.954
314.184
314.418
314.644
314.849
315.019
315.142
315.207
315.207
315.142
315.019
314.849
314.644
314.418
314.184
313.954
313.741
313.581
310.549
310.672
310.837
311.016
311.197
311.373
311.532
311.665
311.76
311.811
311.811
311.76
311.665
311.532
311.373
311.197
311.016
310.837
310.672
310.549
307.529
307.617
307.734
307.862
307.992
308.117
308.231
308.325
308.394
308.43
308.43
308.394
308.325
308.231
308.117
307.992
307.862
307.734
307.617
307.529
304.519
304.571
304.642
304.718
304.796
304.872
304.94
304.997
305.038
305.059
305.059
305.038
304.997
304.94
304.872
304.796
304.718
304.642
304.571
304.519
301.514
301.532
301.555
301.581
301.607
301.632
301.655
301.674
301.688
301.695
301.695
301.688
301.674
301.655
301.632
301.607
301.581
301.555
301.532
301.514
323.279
323.549
323.888
324.251
324.617
324.969
325.288
325.553
325.743
325.843
325.843
325.743
325.553
325.288
324.969
324.617
324.251
323.888
323.549
323.279
320.117
320.346
320.638
320.952
321.27
321.575
321.851
322.08
322.244
322.331
322.331
322.244
322.08
321.851
321.575
321.27
320.952
320.638
320.346
320.117
316.981
317.171
317.418
317.683
317.951
318.209
318.443
318.636
318.775
318.848
318.848
318.775
318.636
318.443
318.209
317.951
317.683
317.418
317.171
316.981
313.867
314.02
314.221
314.438
314.657
314.868
315.059
315.217
315.331
315.391
315.391
315.331
315.217
315.059
314.868
314.657
314.438
314.221
314.02
313.867
310.771
310.888
311.044
311.213
311.383
311.547
311.695
311.818
311.907
311.953
311.953
311.907
311.818
311.695
311.547
311.383
311.213
311.044
310.888
310.771
307.688
307.77
307.882
308.002
308.124
308.241
308.347
308.435
308.498
308.531
308.531
308.498
308.435
308.347
308.241
308.124
308.002
307.882
307.77
307.688
304.614
304.663
304.73
304.802
304.876
304.946
305.01
305.062
305.1
305.12
305.12
305.1
305.062
305.01
304.946
304.876
304.802
304.73
304.663
304.614
301.546
301.563
301.585
301.609
301.634
301.657
301.679
301.696
301.709
301.716
301.716
301.709
301.696
301.679
301.657
301.634
301.609
301.585
301.563
301.546
323.839
324.094
324.413
324.753
325.094
325.42
325.715
325.958
326.133
326.224
326.224
326.133
325.958
325.715
325.42
325.094
324.753
324.413
324.094
323.839
320.599
320.815
321.091
321.385
321.68
321.963
322.218
322.429
322.58
322.659
322.659
322.58
322.429
322.218
321.963
321.68
321.385
321.091
320.815
320.599
317.387
317.566
317.798
318.047
318.297
318.536
318.752
318.93
319.057
319.124
319.124
319.057
318.93
318.752
318.536
318.297
318.047
317.798
317.566
317.387
314.198
314.342
314.531
314.735
314.939
315.135
315.311
315.457
315.561
315.615
315.615
315.561
315.457
315.311
315.135
314.939
314.735
314.531
314.342
314.198
311.027
311.138
311.285
311.443
311.602
311.754
311.891
312.004
312.085
312.127
312.127
312.085
312.004
311.891
311.754
311.602
311.443
311.285
311.138
311.027
307.87
307.949
308.053
308.166
308.28
308.388
308.486
308.567
308.625
308.655
308.655
308.625
308.567
308.486
308.388
308.28
308.166
308.053
307.949
307.87
304.723
304.77
304.833
304.901
304.969
305.034
305.093
305.142
305.176
305.194
305.194
305.176
305.142
305.093
305.034
304.969
304.901
304.833
304.77
304.723
301.583
301.598
301.619
301.642
301.665
301.687
301.706
301.723
301.734
301.74
301.74
301.734
301.723
301.706
301.687
301.665
301.642
301.619
301.598
301.583
324.475
324.714
325.013
325.329
325.645
325.946
326.216
326.438
326.597
326.68
326.68
326.597
326.438
326.216
325.946
325.645
325.329
325.013
324.714
324.475
321.147
321.35
321.608
321.882
322.155
322.416
322.65
322.842
322.98
323.051
323.051
322.98
322.842
322.65
322.416
322.155
321.882
321.608
321.35
321.147
317.849
318.017
318.234
318.465
318.697
318.917
319.115
319.278
319.394
319.455
319.455
319.394
319.278
319.115
318.917
318.697
318.465
318.234
318.017
317.849
314.574
314.709
314.886
315.076
315.265
315.445
315.607
315.74
315.835
315.885
315.885
315.835
315.74
315.607
315.445
315.265
315.076
314.886
314.709
314.574
311.318
311.422
311.56
311.707
311.854
311.994
312.12
312.224
312.298
312.336
312.336
312.298
312.224
312.12
311.994
311.854
311.707
311.56
311.422
311.318
308.078
308.151
308.249
308.354
308.46
308.56
308.65
308.724
308.776
308.804
308.804
308.776
308.724
308.65
308.56
308.46
308.354
308.249
308.151
308.078
304.848
304.892
304.951
305.014
305.077
305.137
305.191
305.235
305.267
305.284
305.284
305.267
305.235
305.191
305.137
305.077
305.014
304.951
304.892
304.848
301.624
301.639
301.659
301.68
301.701
301.721
301.739
301.754
301.765
301.77
301.77
301.765
301.754
301.739
301.721
301.701
301.68
301.659
301.639
301.624
325.188
325.412
325.69
325.983
326.274
326.55
326.796
326.998
327.142
327.217
327.217
327.142
326.998
326.796
326.55
326.274
325.983
325.69
325.412
325.188
321.762
321.952
322.192
322.445
322.697
322.936
323.15
323.324
323.449
323.514
323.514
323.449
323.324
323.15
322.936
322.697
322.445
322.192
321.952
321.762
318.366
318.523
318.726
318.94
319.153
319.356
319.536
319.684
319.789
319.844
319.844
319.789
319.684
319.536
319.356
319.153
318.94
318.726
318.523
318.366
314.995
315.122
315.287
315.462
315.637
315.802
315.95
316.071
316.157
316.202
316.202
316.157
316.071
315.95
315.802
315.637
315.462
315.287
315.122
314.995
311.645
311.743
311.87
312.007
312.143
312.271
312.386
312.48
312.547
312.582
312.582
312.547
312.48
312.386
312.271
312.143
312.007
311.87
311.743
311.645
308.311
308.38
308.471
308.568
308.665
308.757
308.839
308.906
308.954
308.979
308.979
308.954
308.906
308.839
308.757
308.665
308.568
308.471
308.38
308.311
304.988
305.029
305.083
305.142
305.2
305.255
305.305
305.345
305.374
305.389
305.389
305.374
305.345
305.305
305.255
305.2
305.142
305.083
305.029
304.988
301.671
301.685
301.703
301.723
301.742
301.761
301.777
301.791
301.801
301.806
301.806
301.801
301.791
301.777
301.761
301.742
301.723
301.703
301.685
301.671
325.981
326.19
326.447
326.717
326.984
327.236
327.459
327.642
327.771
327.839
327.839
327.771
327.642
327.459
327.236
326.984
326.717
326.447
326.19
325.981
322.445
322.622
322.844
323.078
323.309
323.527
323.721
323.879
323.991
324.049
324.049
323.991
323.879
323.721
323.527
323.309
323.078
322.844
322.622
322.445
318.941
319.088
319.275
319.473
319.668
319.853
320.017
320.15
320.245
320.295
320.295
320.245
320.15
320.017
319.853
319.668
319.473
319.275
319.088
318.941
315.464
315.582
315.735
315.896
316.057
316.207
316.342
316.451
316.529
316.569
316.569
316.529
316.451
316.342
316.207
316.057
315.896
315.735
315.582
315.464
312.009
312.099
312.218
312.343
312.468
312.585
312.69
312.775
312.835
312.867
312.867
312.835
312.775
312.69
312.585
312.468
312.343
312.218
312.099
312.009
308.57
308.634
308.718
308.808
308.897
308.981
309.056
309.116
309.16
309.182
309.182
309.16
309.116
309.056
308.981
308.897
308.808
308.718
308.634
308.57
305.143
305.181
305.232
305.286
305.339
305.39
305.434
305.471
305.497
305.51
305.51
305.497
305.471
305.434
305.39
305.339
305.286
305.232
305.181
305.143
301.723
301.736
301.753
301.771
301.789
301.806
301.821
301.833
301.842
301.846
301.846
301.842
301.833
301.821
301.806
301.789
301.771
301.753
301.736
301.723
326.854
327.047
327.285
327.533
327.777
328.006
328.208
328.372
328.488
328.549
328.549
328.488
328.372
328.208
328.006
327.777
327.533
327.285
327.047
326.854
323.197
323.361
323.566
323.781
323.992
324.19
324.365
324.508
324.609
324.661
324.661
324.609
324.508
324.365
324.19
323.992
323.781
323.566
323.361
323.197
319.574
319.71
319.883
320.065
320.244
320.411
320.559
320.68
320.765
320.81
320.81
320.765
320.68
320.559
320.411
320.244
320.065
319.883
319.71
319.574
315.98
316.089
316.23
316.379
316.525
316.662
316.784
316.882
316.952
316.988
316.988
316.952
316.882
316.784
316.662
316.525
316.379
316.23
316.089
315.98
312.409
312.492
312.602
312.718
312.831
312.938
313.032
313.109
313.163
313.192
313.192
313.163
313.109
313.032
312.938
312.831
312.718
312.602
312.492
312.409
308.855
308.914
308.992
309.075
309.156
309.233
309.3
309.355
309.394
309.414
309.414
309.394
309.355
309.3
309.233
309.156
309.075
308.992
308.914
308.855
305.314
305.349
305.396
305.446
305.495
305.54
305.581
305.614
305.637
305.649
305.649
305.637
305.614
305.581
305.54
305.495
305.446
305.396
305.349
305.314
301.78
301.792
301.808
301.825
301.841
301.856
301.87
301.881
301.889
301.893
301.893
301.889
301.881
301.87
301.856
301.841
301.825
301.808
301.792
301.78
327.807
327.986
328.205
328.432
328.654
328.861
329.043
329.191
329.295
329.349
329.349
329.295
329.191
329.043
328.861
328.654
328.432
328.205
327.986
327.807
324.018
324.17
324.359
324.555
324.748
324.927
325.085
325.213
325.303
325.35
325.35
325.303
325.213
325.085
324.927
324.748
324.555
324.359
324.17
324.018
320.265
320.391
320.55
320.717
320.88
321.032
321.165
321.274
321.35
321.39
321.39
321.35
321.274
321.165
321.032
320.88
320.717
320.55
320.391
320.265
316.543
316.644
316.774
316.91
317.044
317.168
317.277
317.366
317.428
317.461
317.461
317.428
317.366
317.277
317.168
317.044
316.91
316.774
316.644
316.543
312.845
312.923
313.024
313.13
313.233
313.33
313.415
313.484
313.533
313.558
313.558
313.533
313.484
313.415
313.33
313.233
313.13
313.024
312.923
312.845
309.166
309.221
309.293
309.369
309.443
309.512
309.573
309.622
309.657
309.675
309.675
309.657
309.622
309.573
309.512
309.443
309.369
309.293
309.221
309.166
305.501
305.533
305.577
305.622
305.666
305.708
305.745
305.774
305.795
305.806
305.806
305.795
305.774
305.745
305.708
305.666
305.622
305.577
305.533
305.501
301.843
301.854
301.868
301.884
301.899
301.912
301.925
301.935
301.942
301.945
301.945
301.942
301.935
301.925
301.912
301.899
301.884
301.868
301.854
301.843
328.84
329.005
329.206
329.413
329.615
329.802
329.966
330.098
330.191
330.239
330.239
330.191
330.098
329.966
329.802
329.615
329.413
329.206
329.005
328.84
324.908
325.047
325.221
325.401
325.576
325.738
325.88
325.995
326.075
326.117
326.117
326.075
325.995
325.88
325.738
325.576
325.401
325.221
325.047
324.908
321.014
321.13
321.277
321.429
321.577
321.714
321.834
321.931
322
322.035
322.035
322
321.931
321.834
321.714
321.577
321.429
321.277
321.13
321.014
317.153
317.247
317.366
317.49
317.611
317.724
317.822
317.902
317.957
317.986
317.986
317.957
317.902
317.822
317.724
317.611
317.49
317.366
317.247
317.153
313.318
313.39
313.482
313.579
313.673
313.761
313.837
313.899
313.943
313.965
313.965
313.943
313.899
313.837
313.761
313.673
313.579
313.482
313.39
313.318
309.503
309.554
309.62
309.689
309.756
309.819
309.874
309.918
309.949
309.965
309.965
309.949
309.918
309.874
309.819
309.756
309.689
309.62
309.554
309.503
305.703
305.733
305.773
305.814
305.855
305.892
305.925
305.952
305.97
305.98
305.98
305.97
305.952
305.925
305.892
305.855
305.814
305.773
305.733
305.703
301.911
301.921
301.934
301.948
301.962
301.974
301.985
301.994
302
302.004
302.004
302
301.994
301.985
301.974
301.962
301.948
301.934
301.921
301.911
329.948
330.1
330.285
330.474
330.657
330.826
330.973
331.091
331.174
331.217
331.217
331.174
331.091
330.973
330.826
330.657
330.474
330.285
330.1
329.948
325.862
325.991
326.15
326.314
326.472
326.619
326.746
326.849
326.921
326.958
326.958
326.921
326.849
326.746
326.619
326.472
326.314
326.15
325.991
325.862
321.817
321.924
322.058
322.197
322.331
322.455
322.563
322.65
322.711
322.742
322.742
322.711
322.65
322.563
322.455
322.331
322.197
322.058
321.924
321.817
317.807
317.893
318.002
318.116
318.226
318.327
318.416
318.487
318.537
318.562
318.562
318.537
318.487
318.416
318.327
318.226
318.116
318.002
317.893
317.807
313.825
313.891
313.976
314.064
314.149
314.228
314.297
314.353
314.391
314.411
314.411
314.391
314.353
314.297
314.228
314.149
314.064
313.976
313.891
313.825
309.864
309.911
309.971
310.034
310.096
310.152
310.201
310.241
310.269
310.283
310.283
310.269
310.241
310.201
310.152
310.096
310.034
309.971
309.911
309.864
305.919
305.947
305.983
306.021
306.058
306.092
306.121
306.145
306.162
306.17
306.17
306.162
306.145
306.121
306.092
306.058
306.021
305.983
305.947
305.919
301.983
301.992
302.005
302.017
302.03
302.041
302.051
302.059
302.064
302.067
302.067
302.064
302.059
302.051
302.041
302.03
302.017
302.005
301.992
301.983
331.122
331.262
331.431
331.603
331.769
331.921
332.053
332.159
332.233
332.272
332.272
332.233
332.159
332.053
331.921
331.769
331.603
331.431
331.262
331.122
326.871
326.989
327.135
327.284
327.428
327.56
327.675
327.767
327.831
327.864
327.864
327.831
327.767
327.675
327.56
327.428
327.284
327.135
326.989
326.871
322.665
322.763
322.885
323.012
323.134
323.245
323.343
323.42
323.475
323.503
323.503
323.475
323.42
323.343
323.245
323.134
323.012
322.885
322.763
322.665
318.496
318.575
318.675
318.778
318.878
318.97
319.049
319.113
319.158
319.18
319.18
319.158
319.113
319.049
318.97
318.878
318.778
318.675
318.575
318.496
314.358
314.419
314.496
314.577
314.654
314.726
314.788
314.837
314.872
314.89
314.89
314.872
314.837
314.788
314.726
314.654
314.577
314.496
314.419
314.358
310.244
310.287
310.342
310.4
310.455
310.506
310.55
310.586
310.611
310.623
310.623
310.611
310.586
310.55
310.506
310.455
310.4
310.342
310.287
310.244
306.147
306.172
306.205
306.24
306.273
306.304
306.33
306.352
306.367
306.374
306.374
306.367
306.352
306.33
306.304
306.273
306.24
306.205
306.172
306.147
302.059
302.068
302.079
302.09
302.102
302.112
302.121
302.128
302.133
302.136
302.136
302.133
302.128
302.121
302.112
302.102
302.09
302.079
302.068
302.059
332.332
332.461
332.615
332.773
332.923
333.061
333.18
333.275
333.341
333.375
333.375
333.341
333.275
333.18
333.061
332.923
332.773
332.615
332.461
332.332
327.906
328.015
328.148
328.284
328.415
328.535
328.638
328.721
328.778
328.808
328.808
328.778
328.721
328.638
328.535
328.415
328.284
328.148
328.015
327.906
323.53
323.62
323.733
323.848
323.959
324.061
324.148
324.218
324.267
324.292
324.292
324.267
324.218
324.148
324.061
323.959
323.848
323.733
323.62
323.53
319.197
319.27
319.362
319.456
319.547
319.63
319.702
319.759
319.799
319.82
319.82
319.799
319.759
319.702
319.63
319.547
319.456
319.362
319.27
319.197
314.899
314.955
315.026
315.1
315.17
315.235
315.291
315.336
315.367
315.383
315.383
315.367
315.336
315.291
315.235
315.17
315.1
315.026
314.955
314.899
310.628
310.668
310.719
310.771
310.822
310.868
310.908
310.94
310.962
310.973
310.973
310.962
310.94
310.908
310.868
310.822
310.771
310.719
310.668
310.628
306.376
306.4
306.43
306.462
306.492
306.52
306.544
306.563
306.577
306.584
306.584
306.577
306.563
306.544
306.52
306.492
306.462
306.43
306.4
306.376
302.136
302.144
302.154
302.165
302.175
302.184
302.192
302.199
302.203
302.206
302.206
302.203
302.199
302.192
302.184
302.175
302.165
302.154
302.144
302.136
333.502
333.621
333.763
333.908
334.045
334.171
334.279
334.365
334.425
334.456
334.456
334.425
334.365
334.279
334.171
334.045
333.908
333.763
333.621
333.502
328.894
328.995
329.118
329.244
329.363
329.473
329.566
329.641
329.693
329.72
329.72
329.693
329.641
329.566
329.473
329.363
329.244
329.118
328.995
328.894
324.348
324.432
324.536
324.642
324.744
324.836
324.916
324.979
325.024
325.046
325.046
325.024
324.979
324.916
324.836
324.744
324.642
324.536
324.432
324.348
319.854
319.921
320.006
320.093
320.177
320.253
320.318
320.37
320.406
320.425
320.425
320.406
320.37
320.318
320.253
320.177
320.093
320.006
319.921
319.854
315.402
315.454
315.52
315.588
315.653
315.712
315.763
315.803
315.832
315.846
315.846
315.832
315.803
315.763
315.712
315.653
315.588
315.52
315.454
315.402
310.983
311.02
311.067
311.116
311.162
311.204
311.241
311.27
311.29
311.3
311.3
311.29
311.27
311.241
311.204
311.162
311.116
311.067
311.02
310.983
306.588
306.61
306.638
306.667
306.695
306.721
306.743
306.76
306.772
306.778
306.778
306.772
306.76
306.743
306.721
306.695
306.667
306.638
306.61
306.588
302.207
302.214
302.224
302.233
302.243
302.251
302.259
302.264
302.269
302.271
302.271
302.269
302.264
302.259
302.251
302.243
302.233
302.224
302.214
302.207
334.426
334.538
334.672
334.808
334.936
335.054
335.154
335.234
335.289
335.318
335.318
335.289
335.234
335.154
335.054
334.936
334.808
334.672
334.538
334.426
329.646
329.741
329.857
329.975
330.087
330.189
330.277
330.347
330.395
330.42
330.42
330.395
330.347
330.277
330.189
330.087
329.975
329.857
329.741
329.646
324.95
325.029
325.128
325.228
325.324
325.411
325.485
325.544
325.586
325.607
325.607
325.586
325.544
325.485
325.411
325.324
325.228
325.128
325.029
324.95
320.325
320.389
320.47
320.552
320.63
320.702
320.763
320.812
320.846
320.863
320.863
320.846
320.812
320.763
320.702
320.63
320.552
320.47
320.389
320.325
315.756
315.805
315.868
315.932
315.993
316.049
316.097
316.135
316.162
316.175
316.175
316.162
316.135
316.097
316.049
315.993
315.932
315.868
315.805
315.756
311.23
311.265
311.309
311.355
311.399
311.439
311.473
311.501
311.52
311.529
311.529
311.52
311.501
311.473
311.439
311.399
311.355
311.309
311.265
311.23
306.734
306.754
306.781
306.809
306.835
306.859
306.88
306.896
306.908
306.914
306.914
306.908
306.896
306.88
306.859
306.835
306.809
306.781
306.754
306.734
302.255
302.262
302.271
302.28
302.289
302.297
302.304
302.31
302.314
302.316
302.316
302.314
302.31
302.304
302.297
302.289
302.28
302.271
302.262
302.255
)
;

boundaryField
{
    hotSide
    {
        type            fixedGradient;
        gradient        nonuniform List<scalar> 
400
(
233.651
234.411
235.935
238.23
241.305
245.173
249.849
255.347
261.684
268.876
276.938
285.885
295.73
306.486
318.163
330.771
344.315
358.804
374.241
390.63
238.048
238.774
240.229
242.424
245.372
249.089
253.594
258.907
265.048
272.039
279.898
288.643
298.291
308.857
320.351
332.785
346.167
360.503
375.798
392.057
242.807
243.491
244.865
246.942
249.739
253.278
257.583
262.681
268.597
275.357
282.985
291.504
300.932
311.287
322.581
334.827
348.033
362.206
377.351
393.472
247.849
248.485
249.764
251.704
254.327
257.662
261.739
266.593
272.255
278.759
286.133
294.403
303.592
313.719
324.8
336.847
349.869
363.873
378.864
394.843
253.033
253.614
254.787
256.573
259.003
262.111
265.938
270.525
275.913
282.141
289.243
297.251
306.19
316.082
326.943
338.787
351.623
365.457
380.293
396.132
258.142
258.665
259.724
261.347
263.571
266.441
270.005
274.315
279.42
285.365
292.192
299.935
308.624
318.283
328.929
340.576
353.232
366.903
381.592
397.299
262.884
263.349
264.295
265.756
267.776
270.411
273.718
277.759
282.59
288.265
294.83
302.324
310.78
320.223
330.67
342.136
354.629
368.153
382.71
398.3
266.909
267.322
268.166
269.481
271.319
273.744
276.824
280.628
285.22
290.659
296.998
304.279
312.536
321.796
332.076
343.391
355.748
369.151
383.6
399.094
269.855
270.227
270.993
272.197
273.897
276.163
279.071
282.696
287.109
292.374
298.546
305.67
313.781
322.907
333.067
344.273
356.532
369.848
384.22
399.645
271.416
271.766
272.489
273.632
275.257
277.438
280.253
283.782
288.099
293.27
299.353
306.393
314.427
323.483
333.579
344.727
356.936
370.206
384.538
399.927
271.416
271.766
272.489
273.632
275.257
277.438
280.253
283.782
288.099
293.27
299.353
306.393
314.427
323.483
333.579
344.727
356.936
370.206
384.538
399.927
269.855
270.227
270.993
272.197
273.897
276.163
279.071
282.696
287.109
292.374
298.546
305.67
313.781
322.907
333.067
344.273
356.532
369.848
384.22
399.645
266.909
267.322
268.166
269.481
271.319
273.744
276.824
280.628
285.22
290.659
296.998
304.279
312.536
321.796
332.076
343.391
355.748
369.151
383.6
399.094
262.884
263.349
264.295
265.756
267.776
270.411
273.718
277.759
282.59
288.265
294.83
302.324
310.78
320.223
330.67
342.136
354.629
368.153
382.71
398.3
258.142
258.665
259.724
261.347
263.571
266.441
270.005
274.315
279.42
285.365
292.192
299.935
308.624
318.283
328.929
340.576
353.232
366.903
381.592
397.299
253.033
253.614
254.787
256.573
259.003
262.111
265.938
270.525
275.913
282.141
289.243
297.251
306.19
316.082
326.943
338.787
351.623
365.457
380.293
396.132
247.849
248.485
249.764
251.704
254.327
257.662
261.739
266.593
272.255
278.759
286.133
294.403
303.592
313.719
324.8
336.847
349.869
363.873
378.864
394.843
242.807
243.491
244.865
246.942
249.739
253.278
257.583
262.681
268.597
275.357
282.985
291.504
300.932
311.287
322.581
334.827
348.033
362.206
377.351
393.472
238.048
238.774
240.229
242.424
245.372
249.089
253.594
258.907
265.048
272.039
279.898
288.643
298.291
308.857
320.351
332.785
346.167
360.503
375.798
392.057
233.651
234.411
235.935
238.23
241.305
245.173
249.849
255.347
261.684
268.876
276.938
285.885
295.73
306.486
318.163
330.771
344.315
358.804
374.241
390.63
)
;
    }
    coldSide
    {
        type            mixed;
        refValue        uniform 300;
        refGradient     uniform 0;
        valueFraction   uniform 0.991591;
        source          uniform 0;
        value           nonuniform List<scalar> 
400
(
300.012
300.012
300.012
300.012
300.012
300.013
300.013
300.013
300.013
300.014
300.014
300.014
300.015
300.015
300.016
300.017
300.017
300.018
300.019
300.019
300.012
300.012
300.012
300.012
300.012
300.013
300.013
300.013
300.013
300.014
300.014
300.015
300.015
300.016
300.016