/*--------------------------------*- C++ -*----------------------------------*\
| =========                 |                                                 |
| \\      /  F ield         | OpenFOAM: The Open Source CFD Toolbox           |
|  \\    /   O peration     | Version:  2212                                  |
|   \\  /    A nd           | Website:  www.openfoam.com                      |
|    \\/     M anipulation  |                                                 |
\*---------------------------------------------------------------------------*/
FoamFile
{
    version     2.0;
    format      ascii;
    arch        "LSB;label=32;scalar=64";
    class       volScalarField;
    location    "0";
    object      Tdirect;
}
// * * * * * * * * * * * * * * * * * * * * * * * * * * * * * * * * * * * * * //

dimensions      [0 0 0 1 0 0 0];

internalField   nonuniform List<scalar> 
3200
(
348.246
348.808
349.526
350.308
351.114
351.905
352.635
353.251
353.7
353.937
353.937
353.7
353.251
352.635
351.905
351.114
350.308
349.526
348.808
348.246
341.88
342.355
342.975
343.651
344.348
345.032
345.663
346.196
346.583
346.788
346.788
346.583
346.196
345.663
345.032
344.348
343.651
342.975
342.355
341.88
335.486
335.881
336.402
336.974
337.563
338.141
338.674
339.123
339.45
339.623
339.623
339.45
339.123
338.674
338.141
337.563
336.974
336.402
335.881
335.486
329.069
329.387
329.812
330.28
330.761
331.233
331.669
332.035
332.302
332.443
332.443
332.302
332.035
331.669
331.233
330.761
330.28
329.812
329.387
329.069
322.634
322.879
323.208
323.571
323.946
324.313
324.651
324.936
325.143
325.252
325.252
325.143
324.936
324.651
324.313
323.946
323.571
323.208
322.879
322.634
316.185
316.358
316.593
316.852
317.12
317.382
317.623
317.826
317.974
318.052
318.052
317.974
317.826
317.623
317.382
317.12
316.852
316.593
316.358
316.185
309.726
309.829
309.97
310.126
310.286
310.444
310.589
310.711
310.799
310.846
310.846
310.799
310.711
310.589
310.444
310.286
310.126
309.97
309.829
309.726
303.261
303.295
303.343
303.395
303.449
303.501
303.55
303.591
303.621
303.636
303.636
303.621
303.591
303.55
303.501
303.449
303.395
303.343
303.295
303.261
348.417
348.975
349.687
350.462
351.259
352.041
352.762
353.371
353.814
354.048
354.048
353.814
353.371
352.762
352.041
351.259
350.462
349.687
348.975
348.417
342.028
342.5
343.114
343.784
344.474
345.151
345.774
346.3
346.683
346.885
346.885
346.683
346.3
345.774
345.151
344.474
343.784
343.114
342.5
342.028
335.611
336.003
336.52
337.086
337.67
338.241
338.768
339.212
339.534
339.705
339.705
339.534
339.212
338.768
338.241
337.67
337.086
336.52
336.003
335.611
329.172
329.487
329.909
330.372
330.848
331.316
331.746
332.108
332.372
332.511
332.511
332.372
332.108
331.746
331.316
330.848
330.372
329.909
329.487
329.172
322.714
322.956
323.283
323.643
324.014
324.377
324.711
324.992
325.197
325.305
325.305
325.197
324.992
324.711
324.377
324.014
323.643
323.283
322.956
322.714
316.243
316.414
316.647
316.904
317.168
317.428
317.666
317.867
318.013
318.09
318.09
318.013
317.867
317.666
317.428
317.168
316.904
316.647
316.414
316.243
309.761
309.863
310.003
310.157
310.316
310.471
310.614
310.735
310.823
310.869
310.869
310.823
310.735
310.614
310.471
310.316
310.157
310.003
309.863
309.761
303.273
303.307
303.354
303.405
303.458
303.511
303.559
303.599
303.628
303.644
303.644
303.628
303.599
303.559
303.511
303.458
303.405
303.354
303.307
303.273
348.76
349.309
350.009
350.769
351.551
352.316
353.02
353.614
354.046
354.274
354.274
354.046
353.614
353.02
352.316
351.551
350.769
350.009
349.309
348.76
342.325
342.79
343.393
344.051
344.727
345.389
345.999
346.512
346.884
347.081
347.081
346.884
346.512
345.999
345.389
344.727
344.051
343.393
342.79
342.325
335.863
336.248
336.757
337.313
337.884
338.443
338.958
339.391
339.706
339.872
339.872
339.706
339.391
338.958
338.443
337.884
337.313
336.757
336.248
335.863
329.378
329.688
330.102
330.557
331.024
331.481
331.902
332.255
332.512
332.647
332.647
332.512
332.255
331.902
331.481
331.024
330.557
330.102
329.688
329.378
322.874
323.113
323.434
323.787
324.15
324.506
324.832
325.107
325.306
325.411
325.411
325.306
325.107
324.832
324.506
324.15
323.787
323.434
323.113
322.874
316.357
316.526
316.755
317.007
317.266
317.52
317.753
317.949
318.091
318.166
318.166
318.091
317.949
317.753
317.52
317.266
317.007
316.755
316.526
316.357
309.829
309.93
310.067
310.219
310.374
310.527
310.667
310.784
310.87
310.915
310.915
310.87
310.784
310.667
310.527
310.374
310.219
310.067
309.93
309.829
303.296
303.329
303.375
303.426
303.478
303.529
303.576
303.615
303.644
303.659
303.659
303.644
303.615
303.576
303.529
303.478
303.426
303.375
303.329
303.296
349.276
349.812
350.494
351.234
351.992
352.733
353.413
353.986
354.401
354.62
354.62
354.401
353.986
353.413
352.733
351.992
351.234
350.494
349.812
349.276
342.772
343.226
343.814
344.454
345.11
345.751
346.34
346.835
347.194
347.383
347.383
347.194
346.835
346.34
345.751
345.11
344.454
343.814
343.226
342.772
336.241
336.618
337.113
337.654
338.209
338.75
339.247
339.665
339.968
340.128
340.128
339.968
339.665
339.247
338.75
338.209
337.654
337.113
336.618
336.241
329.687
329.99
330.394
330.836
331.29
331.733
332.139
332.48
332.727
332.858
332.858
332.727
332.48
332.139
331.733
331.29
330.836
330.394
329.99
329.687
323.115
323.348
323.661
324.005
324.357
324.701
325.017
325.282
325.474
325.575
325.575
325.474
325.282
325.017
324.701
324.357
324.005
323.661
323.348
323.115
316.529
316.694
316.917
317.162
317.414
317.66
317.885
318.074
318.211
318.284
318.284
318.211
318.074
317.885
317.66
317.414
317.162
316.917
316.694
316.529
309.933
310.031
310.165
310.312
310.463
310.611
310.746
310.86
310.942
310.985
310.985
310.942
310.86
310.746
310.611
310.463
310.312
310.165
310.031
309.933
303.33
303.363
303.408
303.457
303.508
303.557
303.603
303.641
303.668
303.683
303.683
303.668
303.641
303.603
303.557
303.508
303.457
303.408
303.363
303.33
349.966
350.486
351.145
351.859
352.588
353.298
353.948
354.493
354.889
355.097
355.097
354.889
354.493
353.948
353.298
352.588
351.859
351.145
350.486
349.966
343.37
343.81
344.379
344.996
345.627
346.242
346.804
347.276
347.618
347.797
347.797
347.618
347.276
346.804
346.242
345.627
344.996
344.379
343.81
343.37
336.747
337.112
337.592
338.113
338.647
339.166
339.641
340.039
340.328
340.48
340.48
340.328
340.039
339.641
339.166
338.647
338.113
337.592
337.112
336.747
330.102
330.395
330.786
331.213
331.649
332.073
332.461
332.787
333.022
333.146
333.146
333.022
332.787
332.461
332.073
331.649
331.213
330.786
330.395
330.102
323.438
323.663
323.966
324.298
324.637
324.967
325.268
325.521
325.704
325.8
325.8
325.704
325.521
325.268
324.967
324.637
324.298
323.966
323.663
323.438
316.759
316.919
317.135
317.372
317.614
317.849
318.065
318.245
318.376
318.445
318.445
318.376
318.245
318.065
317.849
317.614
317.372
317.135
316.919
316.759
310.071
310.166
310.296
310.438
310.583
310.725
310.854
310.962
311.041
311.082
311.082
311.041
310.962
310.854
310.725
310.583
310.438
310.296
310.166
310.071
303.377
303.408
303.452
303.499
303.548
303.596
303.639
303.675
303.701
303.715
303.715
303.701
303.675
303.639
303.596
303.548
303.499
303.452
303.408
303.377
350.833
351.333
351.966
352.648
353.343
354.017
354.632
355.147
355.519
355.715
355.715
355.519
355.147
354.632
354.017
353.343
352.648
351.966
351.333
350.833
344.122
344.545
345.091
345.681
346.283
346.866
347.399
347.844
348.165
348.334
348.334
348.165
347.844
347.399
346.866
346.283
345.681
345.091
344.545
344.122
337.383
337.734
338.194
338.693
339.202
339.695
340.145
340.521
340.792
340.935
340.935
340.792
340.521
340.145
339.695
339.202
338.693
338.194
337.734
337.383
330.622
330.905
331.28
331.688
332.103
332.507
332.874
333.181
333.403
333.52
333.52
333.403
333.181
332.874
332.507
332.103
331.688
331.28
330.905
330.622
323.843
324.06
324.35
324.667
324.991
325.304
325.59
325.828
326.001
326.091
326.091
326.001
325.828
325.59
325.304
324.991
324.667
324.35
324.06
323.843
317.049
317.202
317.41
317.636
317.867
318.091
318.295
318.465
318.588
318.653
318.653
318.588
318.465
318.295
318.091
317.867
317.636
317.41
317.202
317.049
310.245
310.337
310.461
310.597
310.735
310.87
310.992
311.095
311.168
311.207
311.207
311.168
311.095
310.992
310.87
310.735
310.597
310.461
310.337
310.245
303.435
303.466
303.507
303.553
303.599
303.644
303.685
303.72
303.744
303.757
303.757
303.744
303.72
303.685
303.644
303.599
303.553
303.507
303.466
303.435
351.879
352.357
352.96
353.607
354.264
354.898
355.475
355.956
356.303
356.485
356.485
356.303
355.956
355.475
354.898
354.264
353.607
352.96
352.357
351.879
345.028
345.433
345.953
346.514
347.082
347.631
348.131
348.547
348.846
349.004
349.004
348.846
348.547
348.131
347.631
347.082
346.514
345.953
345.433
345.028
338.15
338.486
338.924
339.398
339.879
340.343
340.765
341.117
341.37
341.503
341.503
341.37
341.117
340.765
340.343
339.879
339.398
338.924
338.486
338.15
331.25
331.52
331.878
332.265
332.658
333.037
333.382
333.67
333.876
333.985
333.985
333.876
333.67
333.382
333.037
332.658
332.265
331.878
331.52
331.25
324.331
324.538
324.816
325.117
325.422
325.717
325.986
326.209
326.369
326.454
326.454
326.369
326.209
325.986
325.717
325.422
325.117
324.816
324.538
324.331
317.398
317.545
317.742
317.957
318.176
318.386
318.578
318.737
318.852
318.912
318.912
318.852
318.737
318.578
318.386
318.176
317.957
317.742
317.545
317.398
310.455
310.542
310.661
310.79
310.921
311.047
311.162
311.258
311.327
311.363
311.363
311.327
311.258
311.162
311.047
310.921
310.79
310.661
310.542
310.455
303.505
303.534
303.574
303.617
303.661
303.704
303.742
303.774
303.797
303.81
303.81
303.797
303.774
303.742
303.704
303.661
303.617
303.574
303.534
303.505
353.106
353.56
354.131
354.741
355.357
355.95
356.486
356.932
357.252
357.42
357.42
357.252
356.932
356.486
355.95
355.357
354.741
354.131
353.56
353.106
346.092
346.477
346.969
347.497
348.031
348.544
349.008
349.393
349.67
349.816
349.816
349.67
349.393
349.008
348.544
348.031
347.497
346.969
346.477
346.092
339.051
339.37
339.785
340.231
340.682
341.116
341.509
341.834
342.068
342.191
342.191
342.068
341.834
341.509
341.116
340.682
340.231
339.785
339.37
339.051
331.987
332.243
332.582
332.947
333.316
333.67
333.991
334.258
334.449
334.549
334.549
334.449
334.258
333.991
333.67
333.316
332.947
332.582
332.243
331.987
324.904
325.101
325.364
325.648
325.934
326.21
326.46
326.667
326.815
326.893
326.893
326.815
326.667
326.46
326.21
325.934
325.648
325.364
325.101
324.904
317.808
317.947
318.134
318.337
318.542
318.739
318.917
319.065
319.171
319.226
319.226
319.171
319.065
318.917
318.739
318.542
318.337
318.134
317.947
317.808
310.701
310.784
310.896
311.018
311.141
311.259
311.366
311.455
311.519
311.552
311.552
311.519
311.455
311.366
311.259
311.141
311.018
310.896
310.784
310.701
303.588
303.615
303.653
303.694
303.735
303.775
303.811
303.84
303.862
303.873
303.873
303.862
303.84
303.811
303.775
303.735
303.694
303.653
303.615
303.588
354.518
354.947
355.484
356.055
356.629
357.178
357.673
358.083
358.376
358.53
358.53
358.376
358.083
357.673
357.178
356.629
356.055
355.484
354.947
354.518
347.316
347.679
348.142
348.637
349.134
349.609
350.038
350.393
350.647
350.779
350.779
350.647
350.393
350.038
349.609
349.134
348.637
348.142
347.679
347.316
340.086
340.388
340.778
341.196
341.617
342.019
342.381
342.681
342.896
343.008
343.008
342.896
342.681
342.381
342.019
341.617
341.196
340.778
340.388
340.086
332.834
333.077
333.395
333.737
334.081
334.41
334.706
334.951
335.127
335.218
335.218
335.127
334.951
334.706
334.41
334.081
333.737
333.395
333.077
332.834
325.564
325.75
325.997
326.263
326.53
326.786
327.016
327.207
327.343
327.414
327.414
327.343
327.207
327.016
326.786
326.53
326.263
325.997
325.75
325.564
318.279
318.411
318.587
318.776
318.967
319.15
319.315
319.451
319.548
319.599
319.599
319.548
319.451
319.315
319.15
318.967
318.776
318.587
318.411
318.279
310.984
311.062
311.168
311.282
311.397
311.506
311.605
311.687
311.745
311.776
311.776
311.745
311.687
311.605
311.506
311.397
311.282
311.168
311.062
310.984
303.683
303.709
303.744
303.782
303.821
303.858
303.891
303.918
303.938
303.948
303.948
303.938
303.918
303.891
303.858
303.821
303.782
303.744
303.709
303.683
356.116
356.519
357.021
357.553
358.085
358.591
359.045
359.419
359.686
359.826
359.826
359.686
359.419
359.045
358.591
358.085
357.553
357.021
356.519
356.116
348.701
349.042
349.476
349.936
350.397
350.835
351.228
351.552
351.784
351.904
351.904
351.784
351.552
351.228
350.835
350.397
349.936
349.476
349.042
348.701
341.259
341.542
341.907
342.297
342.686
343.057
343.39
343.663
343.859
343.961
343.961
343.859
343.663
343.39
343.057
342.686
342.297
341.907
341.542
341.259
333.794
334.022
334.32
334.638
334.957
335.26
335.532
335.756
335.916
335.999
335.999
335.916
335.756
335.532
335.26
334.957
334.638
334.32
334.022
333.794
326.31
326.485
326.716
326.964
327.212
327.448
327.659
327.833
327.957
328.022
328.022
327.957
327.833
327.659
327.448
327.212
326.964
326.716
326.485
326.31
318.812
318.936
319.101
319.278
319.455
319.623
319.774
319.899
319.988
320.034
320.034
319.988
319.899
319.774
319.623
319.455
319.278
319.101
318.936
318.812
311.304
311.378
311.477
311.583
311.689
311.791
311.881
311.956
312.009
312.037
312.037
312.009
311.956
311.881
311.791
311.689
311.583
311.477
311.378
311.304
303.79
303.815
303.848
303.883
303.919
303.953
303.983
304.008
304.026
304.036
304.036
304.026
304.008
303.983
303.953
303.919
303.883
303.848
303.815
303.79
357.903
358.28
358.748
359.241
359.73
360.194
360.608
360.948
361.19
361.316
361.316
361.19
360.948
360.608
360.194
359.73
359.241
358.748
358.28
357.903
350.251
350.57
350.973
351.4
351.824
352.226
352.585
352.879
353.088
353.197
353.197
353.088
352.879
352.585
352.226
351.824
351.4
350.973
350.57
350.251
342.57
342.835
343.175
343.536
343.895
344.235
344.538
344.787
344.964
345.056
345.056
344.964
344.787
344.538
344.235
343.895
343.536
343.175
342.835
342.57
334.867
335.08
335.358
335.653
335.946
336.224
336.473
336.676
336.821
336.896
336.896
336.821
336.676
336.473
336.224
335.946
335.653
335.358
335.08
334.867
327.146
327.309
327.524
327.754
327.982
328.198
328.391
328.55
328.662
328.721
328.721
328.662
328.55
328.391
328.198
327.982
327.754
327.524
327.309
327.146
319.409
319.525
319.678
319.842
320.005
320.16
320.298
320.411
320.491
320.533
320.533
320.491
320.411
320.298
320.16
320.005
319.842
319.678
319.525
319.409
311.663
311.732
311.824
311.922
312.02
312.113
312.196
312.264
312.312
312.337
312.337
312.312
312.264
312.196
312.113
312.02
311.922
311.824
311.732
311.663
303.91
303.933
303.964
303.997
304.03
304.061
304.089
304.112
304.128
304.136
304.136
304.128
304.112
304.089
304.061
304.03
303.997
303.964
303.933
303.91
359.882
360.233
360.667
361.121
361.57
361.993
362.369
362.676
362.894
363.007
363.007
362.894
362.676
362.369
361.993
361.57
361.121
360.667
360.233
359.882
351.966
352.263
352.637
353.031
353.42
353.786
354.112
354.378
354.567
354.665
354.665
354.567
354.378
354.112
353.786
353.42
353.031
352.637
352.263
351.966
344.022
344.269
344.584
344.917
345.246
345.556
345.832
346.057
346.217
346.3
346.3
346.217
346.057
345.832
345.556
345.246
344.917
344.584
344.269
344.022
336.056
336.254
336.511
336.783
337.053
337.306
337.532
337.716
337.847
337.914
337.914
337.847
337.716
337.532
337.306
337.053
336.783
336.511
336.254
336.056
328.07
328.222
328.422
328.633
328.843
329.04
329.216
329.359
329.461
329.513
329.513
329.461
329.359
329.216
329.04
328.843
328.633
328.422
328.222
328.07
320.07
320.178
320.32
320.471
320.621
320.762
320.887
320.99
321.062
321.1
321.1
321.062
320.99
320.887
320.762
320.621
320.471
320.32
320.178
320.07
312.06
312.124
312.209
312.3
312.39
312.475
312.55
312.612
312.655
312.678
312.678
312.655
312.612
312.55
312.475
312.39
312.3
312.209
312.124
312.06
304.043
304.065
304.093
304.124
304.154
304.182
304.208
304.228
304.243
304.25
304.25
304.243
304.228
304.208
304.182
304.154
304.124
304.093
304.065
304.043
362.053
362.379
362.78
363.197
363.607
363.991
364.331
364.608
364.804
364.905
364.905
364.804
364.608
364.331
363.991
363.607
363.197
362.78
362.379
362.053
353.848
354.124
354.47
354.831
355.186
355.52
355.814
356.054
356.223
356.311
356.311
356.223
356.054
355.814
355.52
355.186
354.831
354.47
354.124
353.848
345.616
345.844
346.135
346.441
346.742
347.024
347.273
347.476
347.619
347.694
347.694
347.619
347.476
347.273
347.024
346.742
346.441
346.135
345.844
345.616
337.36
337.543
337.781
338.031
338.277
338.508
338.712
338.878
338.995
339.056
339.056
338.995
338.878
338.712
338.508
338.277
338.031
337.781
337.543
337.36
329.085
329.226
329.41
329.604
329.796
329.976
330.134
330.263
330.355
330.402
330.402
330.355
330.263
330.134
329.976
329.796
329.604
329.41
329.226
329.085
320.795
320.895
321.026
321.165
321.302
321.43
321.544
321.636
321.701
321.735
321.735
321.701
321.636
321.544
321.43
321.302
321.165
321.026
320.895
320.795
312.495
312.555
312.634
312.717
312.799
312.876
312.945
313
313.039
313.059
313.059
313.039
313
312.945
312.876
312.799
312.717
312.634
312.555
312.495
304.189
304.209
304.236
304.264
304.291
304.317
304.34
304.358
304.371
304.378
304.378
304.371
304.358
304.34
304.317
304.291
304.264
304.236
304.209
304.189
364.418
364.719
365.088
365.47
365.843
366.191
366.498
366.746
366.921
367.012
367.012
366.921
366.746
366.498
366.191
365.843
365.47
365.088
364.719
364.418
355.898
356.153
356.471
356.802
357.125
357.427
357.693
357.908
358.06
358.139
358.139
358.06
357.908
357.693
357.427
357.125
356.802
356.471
356.153
355.898
347.35
347.561
347.829
348.109
348.383
348.639
348.864
349.046
349.174
349.241
349.241
349.174
349.046
348.864
348.639
348.383
348.109
347.829
347.561
347.35
338.779
338.949
339.167
339.396
339.621
339.83
340.014
340.163
340.268
340.322
340.322
340.268
340.163
340.014
339.83
339.621
339.396
339.167
338.949
338.779
330.189
330.319
330.489
330.667
330.841
331.004
331.147
331.263
331.345
331.387
331.387
331.345
331.263
331.147
331.004
330.841
330.667
330.489
330.319
330.189
321.584
321.677
321.797
321.925
322.049
322.166
322.268
322.351
322.409
322.44
322.44
322.409
322.351
322.268
322.166
322.049
321.925
321.797
321.677
321.584
312.969
313.024
313.097
313.173
313.248
313.318
313.38
313.429
313.464
313.483
313.483
313.464
313.429
313.38
313.318
313.248
313.173
313.097
313.024
312.969
304.348
304.367
304.391
304.416
304.442
304.465
304.486
304.502
304.514
304.52
304.52
304.514
304.502
304.486
304.465
304.442
304.416
304.391
304.367
304.348
366.972
367.249
367.588
367.937
368.276
368.591
368.866
369.089
369.245
369.326
369.326
369.245
369.089
368.866
368.591
368.276
367.937
367.588
367.249
366.972
358.111
358.346
358.638
358.94
359.234
359.507
359.746
359.939
360.075
360.145
360.145
360.075
359.939
359.746
359.507
359.234
358.94
358.638
358.346
358.111
349.222
349.417
349.663
349.919
350.168
350.399
350.601
350.764
350.879
350.939
350.939
350.879
350.764
350.601
350.399
350.168
349.919
349.663
349.417
349.222
340.311
340.467
340.668
340.877
341.081
341.27
341.436
341.569
341.663
341.712
341.712
341.663
341.569
341.436
341.27
341.081
340.877
340.668
340.467
340.311
331.38
331.501
331.656
331.819
331.978
332.125
332.254
332.358
332.431
332.468
332.468
332.431
332.358
332.254
332.125
331.978
331.819
331.656
331.501
331.38
322.436
322.521
322.632
322.748
322.861
322.966
323.059
323.133
323.185
323.212
323.212
323.185
323.133
323.059
322.966
322.861
322.748
322.632
322.521
322.436
313.481
313.531
313.598
313.668
313.736
313.799
313.854
313.899
313.93
313.947
313.947
313.93
313.899
313.854
313.799
313.736
313.668
313.598
313.531
313.481
304.52
304.537
304.559
304.582
304.605
304.626
304.645
304.66
304.67
304.676
304.676
304.67
304.66
304.645
304.626
304.605
304.582
304.559
304.537
304.52
369.704
369.96
370.27
370.588
370.896
371.18
371.427
371.626
371.766
371.838
371.838
371.766
371.626
371.427
371.18
370.896
370.588
370.27
369.96
369.704
360.477
360.693
360.961
361.236
361.503
361.749
361.964
362.137
362.258
362.32
362.32
362.258
362.137
361.964
361.749
361.503
361.236
360.961
360.693
360.477
351.222
351.402
351.627
351.861
352.086
352.295
352.477
352.623
352.725
352.778
352.778
352.725
352.623
352.477
352.295
352.086
351.861
351.627
351.402
351.222
341.946
342.09
342.274
342.465
342.65
342.821
342.97
343.089
343.173
343.216
343.216
343.173
343.089
342.97
342.821
342.65
342.465
342.274
342.09
341.946
332.652
332.762
332.905
333.054
333.197
333.33
333.446
333.539
333.605
333.638
333.638
333.605
333.539
333.446
333.33
333.197
333.054
332.905
332.762
332.652
323.344
323.422
323.524
323.63
323.733
323.828
323.91
323.977
324.024
324.048
324.048
324.024
323.977
323.91
323.828
323.733
323.63
323.524
323.422
323.344
314.026
314.073
314.134
314.197
314.259
314.316
314.366
314.406
314.434
314.448
314.448
314.434
314.406
314.366
314.316
314.259
314.197
314.134
314.073
314.026
304.702
304.718
304.738
304.76
304.78
304.8
304.816
304.83
304.839
304.844
304.844
304.839
304.83
304.816
304.8
304.78
304.76
304.738
304.718
304.702
372.586
372.821
373.105
373.394
373.673
373.929
374.152
374.33
374.455
374.519
374.519
374.455
374.33
374.152
373.929
373.673
373.394
373.105
372.821
372.586
362.967
363.166
363.411
363.662
363.904
364.126
364.319
364.474
364.582
364.638
364.638
364.582
364.474
364.319
364.126
363.904
363.662
363.411
363.166
362.967
353.325
353.489
353.696
353.908
354.113
354.302
354.465
354.596
354.687
354.735
354.735
354.687
354.596
354.465
354.302
354.113
353.908
353.696
353.489
353.325
343.662
343.795
343.963
344.137
344.305
344.459
344.593
344.7
344.775
344.814
344.814
344.775
344.7
344.593
344.459
344.305
344.137
343.963
343.795
343.662
333.984
334.086
334.217
334.352
334.483
334.603
334.707
334.79
334.849
334.879
334.879
334.849
334.79
334.707
334.603
334.483
334.352
334.217
334.086
333.984
324.295
324.367
324.46
324.557
324.65
324.736
324.81
324.87
324.911
324.933
324.933
324.911
324.87
324.81
324.736
324.65
324.557
324.46
324.367
324.295
314.597
314.64
314.695
314.753
314.81
314.861
314.906
314.942
314.967
314.98
314.98
314.967
314.942
314.906
314.861
314.81
314.753
314.695
314.64
314.597
304.893
304.908
304.927
304.946
304.965
304.982
304.997
305.009
305.018
305.022
305.022
305.018
305.009
304.997
304.982
304.965
304.946
304.927
304.908
304.893
375.541
375.757
376.018
376.282
376.535
376.767
376.967
377.127
377.238
377.296
377.296
377.238
377.127
376.967
376.767
376.535
376.282
376.018
375.757
375.541
365.51
365.693
365.917
366.147
366.366
366.567
366.741
366.88
366.977
367.027
367.027
366.977
366.88
366.741
366.567
366.366
366.147
365.917
365.693
365.51
355.462
355.613
355.803
355.997
356.183
356.354
356.501
356.619
356.701
356.743
356.743
356.701
356.619
356.501
356.354
356.183
355.997
355.803
355.613
355.462
345.401
345.523
345.678
345.837
345.989
346.129
346.249
346.346
346.413
346.447
346.447
346.413
346.346
346.249
346.129
345.989
345.837
345.678
345.523
345.401
335.33
335.424
335.544
335.668
335.787
335.895
335.989
336.064
336.117
336.144
336.144
336.117
336.064
335.989
335.895
335.787
335.668
335.544
335.424
335.33
325.253
325.319
325.405
325.493
325.578
325.656
325.723
325.777
325.814
325.833
325.833
325.814
325.777
325.723
325.656
325.578
325.493
325.405
325.319
325.253
315.171
315.21
315.262
315.315
315.366
315.413
315.453
315.485
315.508
315.519
315.519
315.508
315.485
315.453
315.413
315.366
315.315
315.262
315.21
315.171
305.086
305.099
305.116
305.134
305.151
305.167
305.18
305.191
305.199
305.202
305.202
305.199
305.191
305.18
305.167
305.151
305.134
305.116
305.099
305.086
378.38
378.58
378.82
379.062
379.294
379.505
379.687
379.832
379.932
379.984
379.984
379.932
379.832
379.687
379.505
379.294
379.062
378.82
378.58
378.38
367.922
368.091
368.299
368.51
368.711
368.895
369.053
369.179
369.266
369.311
369.311
369.266
369.179
369.053
368.895
368.711
368.51
368.299
368.091
367.922
357.468
357.608
357.783
357.962
358.133
358.289
358.423
358.53
358.604
358.642
358.642
358.604
358.53
358.423
358.289
358.133
357.962
357.783
357.608
357.468
347.018
347.131
347.274
347.421
347.561
347.688
347.798
347.886
347.947
347.978
347.978
347.947
347.886
347.798
347.688
347.561
347.421
347.274
347.131
347.018
336.573
336.66
336.771
336.885
336.994
337.094
337.18
337.248
337.295
337.32
337.32
337.295
337.248
337.18
337.094
336.994
336.885
336.771
336.66
336.573
326.133
326.194
326.273
326.355
326.433
326.504
326.566
326.615
326.649
326.666
326.666
326.649
326.615
326.566
326.504
326.433
326.355
326.273
326.194
326.133
315.696
315.733
315.78
315.829
315.876
315.919
315.956
315.985
316.006
316.016
316.016
316.006
315.985
315.956
315.919
315.876
315.829
315.78
315.733
315.696
305.261
305.273
305.289
305.306
305.322
305.336
305.348
305.358
305.365
305.369
305.369
305.365
305.358
305.348
305.336
305.322
305.306
305.289
305.273
305.261
380.602
380.789
381.015
381.243
381.46
381.656
381.826
381.96
382.053
382.101
382.101
382.053
381.96
381.826
381.656
381.46
381.243
381.015
380.789
380.602
369.739
369.898
370.094
370.292
370.482
370.653
370.801
370.918
371
371.041
371.041
371
370.918
370.801
370.653
370.482
370.292
370.094
369.898
369.739
358.932
359.065
359.23
359.399
359.56
359.706
359.831
359.931
360
360.036
360.036
360
359.931
359.831
359.706
359.56
359.399
359.23
359.065
358.932
348.169
348.276
348.412
348.55
348.682
348.803
348.906
348.988
349.045
349.074
349.074
349.045
348.988
348.906
348.803
348.682
348.55
348.412
348.276
348.169
337.441
337.524
337.629
337.737
337.84
337.934
338.014
338.078
338.123
338.146
338.146
338.123
338.078
338.014
337.934
337.84
337.737
337.629
337.524
337.441
326.739
326.797
326.873
326.95
327.024
327.091
327.149
327.194
327.226
327.243
327.243
327.226
327.194
327.149
327.091
327.024
326.95
326.873
326.797
326.739
316.054
316.089
316.135
316.181
316.225
316.266
316.301
316.328
316.347
316.357
316.357
316.347
316.328
316.301
316.266
316.225
316.181
316.135
316.089
316.054
305.38
305.392
305.407
305.423
305.438
305.451
305.463
305.472
305.479
305.482
305.482
305.479
305.472
305.463
305.451
305.438
305.423
305.407
305.392
305.38
)
;

boundaryField
{
    hotSide
    {
        type            fixedGradient;
        gradient        nonuniform List<scalar> 
400
(
506.805
508.63
512.285
517.783
525.139
534.375
545.515
558.584
573.61
590.62
609.64
630.694
653.806
678.994
706.278
735.672
767.189
800.839
836.631
874.571
514.202
515.968
519.508
524.838
531.98
540.962
551.814
564.572
579.269
595.941
614.619
635.334
658.113
682.981
709.958
739.061
770.304
803.698
839.251
876.97
522.207
523.903
527.306
532.437
539.326
548.008
558.525
570.92
585.238
601.522
619.813
640.146
662.555
687.068
713.708
742.495
773.442
806.562
841.863
879.35
530.687
532.302
535.546
540.447
547.042
555.381
565.515
577.5
591.392
607.244
625.106
645.022
667.029
691.16
717.442
745.894
776.531
809.367
844.407
881.657
539.406
540.93
543.995
548.637
554.907
562.865
572.577
584.114
597.544
612.933
630.338
649.812
671.399
695.134
721.046
749.156
779.481
812.031
846.811
883.826
548
549.426
552.3
556.667
562.592
570.148
579.418
590.489
603.442
618.356
635.297
654.327
675.494
698.837
724.386
752.165
782.187
814.462
848.996
885.788
555.977
557.305
559.988
564.083
569.665
576.825
585.664
596.282
608.775
623.233
639.735
658.346
679.12
702.099
727.315
754.789
784.537
816.565
850.877
887.471
562.747
563.986
566.498
570.348
575.624
582.432
590.888
601.107
613.198
627.261
643.382
661.634
682.074
704.745
729.68
756.901
786.42
818.244
852.374
888.807
567.702
568.873
571.254
574.916
579.959
586.501
594.668
604.587
616.377
630.145
645.985
663.973
684.167
706.614
731.346
758.383
787.738
819.416
853.416
889.734
570.327
571.462
573.771
577.331
582.248
588.645
596.656
606.413
618.041
631.653
647.343
665.189
685.254
707.582
732.207
759.148
788.417
820.019
853.951
890.209
570.327
571.462
573.771
577.331
582.248
588.645
596.656
606.413
618.041
631.653
647.343
665.189
685.254
707.582
732.207
759.148
788.417
820.019
853.951
890.209
567.702
568.873
571.254
574.916
579.959
586.501
594.668
604.587
616.377
630.145
645.985
663.973
684.167
706.614
731.346
758.383
787.738
819.416
853.416
889.734
562.747
563.986
566.498
570.348
575.624
582.432
590.888
601.107
613.198
627.261
643.382
661.634
682.074
704.745
729.68
756.901
786.42
818.244
852.374
888.807
555.977
557.305
559.988
564.083
569.665
576.825
585.664
596.282
608.775
623.233
639.735
658.346
679.12
702.099
727.315
754.789
784.537
816.565
850.877
887.471
548
549.426
552.3
556.667
562.592
570.148
579.418
590.489
603.442
618.356
635.297
654.327
675.494
698.837
724.386
752.165
782.187
814.462
848.996
885.788
539.406
540.93
543.995
548.637
554.907
562.865
572.577
584.114
597.544
612.933
630.338
649.812
671.399
695.134
721.046
749.156
779.481
812.031
846.811
883.826
530.687
532.302
535.546
540.447
547.042
555.381
565.515
577.5
591.392
607.244
625.106
645.022
667.029
691.16
717.442
745.894
776.531
809.367
844.407
881.657
522.207
523.903
527.306
532.437
539.326
548.008
558.525
570.92
585.238
601.522
619.813
640.146
662.555
687.068
713.708
742.495
773.442
806.562
841.863
879.35
514.202
515.968
519.508
524.838
531.98
540.962
551.814
564.572
579.269
595.941
614.619
635.334
658.113
682.981
709.958
739.061
770.304
803.698
839.251
876.97
506.805
508.63
512.285
517.783
525.139
534.375
545.515
558.584
573.61
590.62
609.64
630.694
653.806
678.994
706.278
735.672
767.189
800.839
836.631
874.571
)
;
    }
    coldSide
    {
        type            mixed;
        refValue        uniform 300;
        refGradient     uniform 0;
        valueFraction   uniform 0.991591;
        source          uniform 0;
        value           nonuniform List<scalar> 
400
(
300.027
300.028
300.028
300.028
300.028
300.029
300.029
300.03
300.031
300.032
300.033
300.034
300.035
300.037
300.038
300.04
300.041
300.043
300.044
300.045
300.028
300.028
300.028
300.028
300.029
300.029
300.03
300.03
300.031
300.032
300.033
300.034
300.035
300.037
300.038
300.04
300.041
300.043
300.044