/*--------------------------------*- C++ -*----------------------------------*\
| =========                 |                                                 |
| \\      /  F ield         | OpenFOAM: The Open Source CFD Toolbox           |
|  \\    /   O peration     | Version:  2212                                  |
|   \\  /    A nd           | Website:  www.openfoam.com                      |
|    \\/     M anipulation  |                                                 |
\*---------------------------------------------------------------------------*/
FoamFile
{
    version     2.0;
    format      ascii;
    arch        "LSB;label=32;scalar=64";
    class       volScalarField;
    location    "0";
    object      T;
}
// * * * * * * * * * * * * * * * * * * * * * * * * * * * * * * * * * * * * * //

dimensions      [0 0 0 1 0 0 0];

internalField   nonuniform List<scalar> 
3200
(
321.902
322.043
322.398
322.836
323.176
323.335
323.677
323.592
323.589
323.59
323.775
323.551
323.554
323.329
323.448
323.375
322.648
322.411
322.586
321.961
318.797
318.849
319.185
319.574
319.878
320.032
320.319
320.211
320.226
320.213
320.369
320.195
320.169
320.037
320.147
320.066
319.412
319.227
319.422
318.85
315.752
315.799
316.09
316.372
316.681
316.811
317.017
316.95
317.011
316.935
317.094
316.95
316.88
316.815
316.901
316.858
316.319
316.135
316.312
315.854
312.775
312.795
313.021
313.275
313.551
313.678
313.843
313.797
313.828
313.736
313.93
313.773
313.713
313.695
313.736
313.691
313.296
313.139
313.272
312.922
309.866
309.869
310.026
310.217
310.491
310.63
310.734
310.713
310.715
310.595
310.794
310.647
310.584
310.586
310.64
310.598
310.338
310.203
310.28
309.973
307.007
307.022
307.115
307.28
307.447
307.613
307.657
307.628
307.611
307.558
307.682
307.588
307.52
307.514
307.608
307.563
307.357
307.283
307.306
307.103
304.19
304.241
304.261
304.372
304.427
304.557
304.567
304.573
304.565
304.531
304.609
304.546
304.516
304.433
304.58
304.52
304.43
304.363
304.371
304.249
301.398
301.415
301.398
301.478
301.471
301.542
301.538
301.566
301.541
301.521
301.538
301.519
301.517
301.46
301.517
301.508
301.483
301.485
301.445
301.422
322.55
322.684
323.141
323.453
323.64
324.078
324.294
324.284
324.181
324.51
324.456
324.454
324.263
324.357
324.26
323.98
323.466
323.241
323.118
322.507
319.316
319.431
319.772
320.053
320.274
320.603
320.794
320.781
320.669
320.942
320.932
320.915
320.772
320.865
320.823
320.546
320.09
319.908
319.847
319.273
316.158
316.313
316.528
316.801
316.961
317.19
317.42
317.428
317.298
317.479
317.561
317.486
317.439
317.503
317.419
317.279
316.83
316.744
316.629
316.176
313.095
313.21
313.435
313.624
313.732
313.902
314.142
314.201
314.029
314.188
314.27
314.194
314.203
314.219
314.159
314.053
313.665
313.637
313.52
313.158
310.102
310.22
310.402
310.523
310.574
310.766
310.932
311.024
310.847
310.963
311.046
310.969
311.013
310.981
310.977
310.87
310.597
310.54
310.438
310.181
307.199
307.262
307.391
307.514
307.501
307.699
307.78
307.846
307.696
307.781
307.856
307.826
307.842
307.837
307.796
307.746
307.595
307.516
307.434
307.255
304.302
304.347
304.413
304.475
304.468
304.648
304.634
304.736
304.605
304.683
304.697
304.67
304.67
304.676
304.689
304.655
304.569
304.516
304.433
304.348
301.444
301.467
301.482
301.487
301.506
301.583
301.544
301.597
301.545
301.572
301.563
301.556
301.544
301.567
301.589
301.552
301.544
301.511
301.458
301.458
323.389
323.622
324.092
324.351
324.524
325.095
325.238
325.319
325.41
325.349
325.508
325.524
325.49
325.374
324.906
324.837
324.584
324.261
324.044
323.517
320.046
320.206
320.602
320.868
320.997
321.437
321.542
321.673
321.693
321.669
321.78
321.792
321.793
321.747
321.318
321.256
321.067
320.786
320.609
320.155
316.782
316.921
317.241
317.465
317.643
317.956
318.036
318.175
318.147
318.08
318.217
318.239
318.233
318.179
317.869
317.858
317.675
317.457
317.306
316.878
313.564
313.725
313.972
314.191
314.372
314.577
314.63
314.773
314.746
314.656
314.81
314.782
314.799
314.743
314.479
314.524
314.362
314.217
314.058
313.722
310.432
310.603
310.779
311.002
311.133
311.251
311.333
311.406
311.402
311.322
311.476
311.43
311.42
311.382
311.182
311.23
311.137
310.99
310.851
310.655
307.377
307.515
307.683
307.856
307.898
308.034
308.077
308.113
308.095
308.025
308.143
308.107
308.134
308.118
307.934
308.003
307.898
307.826
307.684
307.587
304.407
304.472
304.598
304.709
304.727
304.837
304.842
304.868
304.849
304.777
304.855
304.822
304.872
304.889
304.74
304.787
304.699
304.688
304.574
304.565
301.46
301.494
301.54
301.583
301.578
301.634
301.628
301.628
301.612
301.594
301.622
301.604
301.64
301.643
301.59
301.595
301.567
301.57
301.52
301.535
324.186
324.619
325.009
325.298
325.731
326.034
326.243
326.484
326.646
326.716
326.641
326.629
326.517
326.582
326.237
326.09
325.759
325.259
325.099
324.43
320.697
321.054
321.398
321.602
321.995
322.278
322.493
322.646
322.807
322.839
322.777
322.799
322.68
322.731
322.461
322.352
322.078
321.657
321.51
320.904
317.339
317.613
317.876
318.079
318.449
318.695
318.924
318.965
319.091
319.11
319.099
319.102
318.961
319.02
318.798
318.741
318.505
318.194
318.016
317.512
314.051
314.273
314.496
314.675
314.994
315.21
315.426
315.389
315.474
315.455
315.502
315.496
315.378
315.432
315.289
315.185
315.012
314.773
314.616
314.213
310.876
311.045
311.191
311.353
311.627
311.799
312.006
311.895
311.961
311.879
311.971
311.996
311.873
311.917
311.817
311.692
311.601
311.468
311.275
311.014
307.753
307.84
307.921
308.058
308.283
308.433
308.539
308.445
308.506
308.432
308.508
308.513
308.449
308.507
308.368
308.292
308.276
308.214
308.002
307.854
304.658
304.697
304.701
304.798
304.957
305.07
305.101
305.046
305.067
305.051
305.105
305.102
305.065
305.07
304.99
304.945
304.975
304.968
304.813
304.707
301.574
301.549
301.567
301.602
301.65
301.699
301.695
301.668
301.708
301.714
301.704
301.705
301.691
301.694
301.662
301.654
301.66
301.684
301.62
301.584
325.324
325.504
325.999
326.295
326.564
327.232
327.52
327.694
327.543
327.729
327.719
327.769
327.519
327.468
327.416
327.101
326.744
326.569
326.078
325.671
321.708
321.853
322.248
322.457
322.765
323.302
323.584
323.727
323.552
323.722
323.719
323.756
323.582
323.489
323.47
323.27
322.912
322.762
322.432
322.028
318.222
318.282
318.618
318.769
319.07
319.526
319.788
319.878
319.722
319.84
319.877
319.903
319.776
319.675
319.65
319.516
319.19
319.051
318.871
318.523
314.83
314.815
315.115
315.225
315.497
315.853
316.04
316.161
316.019
316.062
316.147
316.171
316.052
315.956
315.895
315.839
315.58
315.506
315.376
315.076
311.465
311.476
311.597
311.767
311.979
312.246
312.378
312.507
312.436
312.409
312.491
312.52
312.409
312.334
312.299
312.221
312.031
312.064
311.932
311.658
308.153
308.156
308.22
308.346
308.514
308.702
308.803
308.891
308.845
308.82
308.907
308.906
308.789
308.781
308.769
308.643
308.541
308.596
308.508
308.27
304.871
304.917
304.948
305.038
305.104
305.201
305.281
305.339
305.292
305.276
305.353
305.328
305.254
305.261
305.264
305.171
305.095
305.13
305.102
304.969
301.637
301.669
301.654
301.711
301.71
301.73
301.754
301.819
301.779
301.764
301.8
301.798
301.766
301.767
301.769
301.72
301.671
301.713
301.723
301.687
326.156
326.491
327.101
327.353
327.974
328.139
328.558
328.54
328.592
328.894
328.786
328.847
328.849
328.493
328.35
328.293
327.819
327.502
327.073
326.907
322.421
322.647
323.169
323.399
323.967
324.086
324.42
324.443
324.494
324.7
324.666
324.695
324.687
324.395
324.32
324.248
323.803
323.569
323.201
323.101
318.827
318.954
319.365
319.624
320.058
320.188
320.434
320.452
320.5
320.654
320.687
320.729
320.704
320.457
320.433
320.349
319.912
319.79
319.477
319.421
315.29
315.392
315.715
315.907
316.261
316.406
316.592
316.58
316.656
316.83
316.766
316.868
316.779
316.629
316.641
316.53
316.153
316.095
315.828
315.818
311.82
311.88
312.178
312.277
312.546
312.689
312.861
312.812
312.923
313.068
312.984
313.059
312.982
312.871
312.896
312.754
312.493
312.497
312.269
312.283
308.422
308.482
308.693
308.736
308.891
309.036
309.185
309.096
309.237
309.35
309.213
309.275
309.245
309.145
309.19
309.052
308.878
308.894
308.737
308.784
305.029
305.081
305.201
305.231
305.303
305.419
305.51
305.446
305.535
305.604
305.533
305.534
305.543
305.48
305.509
305.402
305.307
305.34
305.23
305.285
301.693
301.714
301.737
301.743
301.767
301.833
301.862
301.815
301.867
301.887
301.863
301.839
301.845
301.843
301.839
301.812
301.766
301.769
301.759
301.763
327.012
327.428
327.979
328.355
329.05
328.929
329.455
329.879
329.667
330.08
329.926
330.025
329.777
329.443
329.379
329.265
328.752
328.364
328.102
327.927
323.207
323.459
323.947
324.247
324.907
324.786
325.185
325.578
325.42
325.771
325.613
325.699
325.503
325.23
325.146
325.086
324.632
324.313
324.066
323.966
319.437
319.617
320.057
320.292
320.918
320.789
321.126
321.39
321.308
321.61
321.419
321.507
321.406
321.147
321.081
321.038
320.637
320.415
320.177
320.112
315.775
315.908
316.297
316.444
317.021
316.887
317.146
317.352
317.278
317.573
317.371
317.452
317.39
317.166
317.112
317.08
316.771
316.606
316.422
316.36
312.238
312.243
312.574
312.689
313.162
313.123
313.236
313.386
313.357
313.598
313.439
313.456
313.439
313.274
313.213
313.206
312.995
312.856
312.721
312.682
308.684
308.702
308.924
308.992
309.354
309.383
309.396
309.496
309.466
309.691
309.551
309.561
309.556
309.464
309.378
309.424
309.287
309.17
309.044
309.035
305.187
305.23
305.33
305.355
305.572
305.643
305.592
305.684
305.663
305.808
305.731
305.746
305.747
305.69
305.628
305.643
305.6
305.499
305.406
305.436
301.747
301.741
301.779
301.792
301.876
301.9
301.869
301.925
301.892
301.952
301.92
301.911
301.93
301.912
301.881
301.883
301.881
301.841
301.805
301.82
327.919
328.436
328.783
329.161
329.898
330.251
330.473
330.682
330.71
331.047
331.074
330.816
331.063
330.732
330.397
330.202
329.874
329.418
329.053
328.749
323.928
324.317
324.606
324.915
325.567
325.923
326.134
326.289
326.332
326.646
326.655
326.373
326.628
326.357
326.052
325.875
325.592
325.183
324.931
324.725
320.01
320.361
320.602
320.845
321.397
321.729
321.906
322.08
322.078
322.375
322.366
322.132
322.359
322.105
321.848
321.742
321.464
321.071
320.949
320.782
316.199
316.522
316.748
316.904
317.365
317.636
317.786
317.925
317.904
318.161
318.173
317.993
318.185
317.908
317.743
317.628
317.425
317.099
317.05
316.912
312.497
312.828
312.922
313.056
313.43
313.649
313.724
313.908
313.828
314.002
314.026
313.923
314.062
313.812
313.736
313.641
313.467
313.241
313.213
313.106
308.907
309.15
309.181
309.297
309.525
309.703
309.746
309.907
309.859
309.943
309.97
309.896
309.997
309.793
309.765
309.73
309.595
309.433
309.417
309.346
305.334
305.508
305.473
305.59
305.718
305.778
305.79
305.935
305.922
305.938
305.974
305.949
305.974
305.836
305.847
305.823
305.766
305.66
305.702
305.62
301.787
301.857
301.819
301.866
301.9
301.952
301.939
301.992
301.991
301.993
302.005
302.022
301.983
301.93
301.961
301.951
301.94
301.891
301.925
301.872
328.767
329.081
329.698
330.147
330.766
331.188
331.459
331.837
331.79
331.915
332.194
331.851
332.003
331.704
331.469
331.305
330.966
330.499
329.746
329.513
324.623
324.9
325.458
325.777
326.316
326.736
326.929
327.262
327.215
327.33
327.596
327.249
327.452
327.151
326.977
326.831
326.561
326.11
325.545
325.355
320.617
320.864
321.327
321.542
322.002
322.404
322.514
322.857
322.818
322.911
323.149
322.817
323.047
322.771
322.641
322.472
322.232
321.895
321.448
321.278
316.683
316.939
317.348
317.454
317.853
318.137
318.214
318.563
318.513
318.616
318.808
318.508
318.718
318.481
318.382
318.249
318.05
317.797
317.461
317.284
312.838
313.116
313.373
313.503
313.74
313.982
314.041
314.39
314.377
314.447
314.585
314.291
314.456
314.211
314.199
314.113
314.002
313.742
313.563
313.4
309.122
309.326
309.502
309.634
309.687
309.912
309.966
310.243
310.242
310.303
310.389
310.188
310.266
310.091
310.055
310.066
309.959
309.756
309.657
309.566
305.443
305.58
305.678
305.786
305.815
305.945
305.953
306.119
306.157
306.166
306.254
306.09
306.158
306.018
306.064
306.064
305.958
305.827
305.798
305.8
301.818
301.841
301.895
301.933
301.963
301.999
301.991
302.045
302.059
302.054
302.102
302.041
302.058
301.994
302.026
302.039
302.006
301.974
301.948
301.971
329.52
330.061
330.658
331.103
331.635
331.876
332.299
332.911
332.861
333.013
333.128
332.934
332.933
332.852
332.447
332.194
331.841
331.212
330.787
330.311
325.298
325.744
326.257
326.617
327.087
327.276
327.674
328.218
328.177
328.261
328.387
328.228
328.194
328.189
327.81
327.614
327.316
326.803
326.415
326.045
321.237
321.58
322.016
322.285
322.697
322.863
323.225
323.69
323.628
323.682
323.775
323.662
323.629
323.645
323.357
323.193
322.877
322.499
322.162
321.948
317.188
317.476
317.888
318.055
318.392
318.555
318.877
319.244
319.18
319.239
319.305
319.224
319.191
319.196
319.009
318.863
318.551
318.297
318.023
317.9
313.256
313.466
313.828
313.956
314.23
314.323
314.589
314.909
314.863
314.869
314.965
314.868
314.834
314.878
314.694
314.6
314.349
314.153
313.943
313.863
309.41
309.556
309.837
309.959
310.141
310.209
310.384
310.597
310.615
310.57
310.679
310.597
310.542
310.58
310.443
310.355
310.234
310.024
309.899
309.874
305.631
305.703
305.893
305.987
306.072
306.139
306.211
306.307
306.388
306.315
306.373
306.369
306.315
306.346
306.267
306.196
306.146
305.979
305.893
305.885
301.889
301.901
301.977
302.004
302.031
302.059
302.079
302.135
302.149
302.117
302.122
302.133
302.103
302.119
302.093
302.078
302.037
302.02
301.978
301.966
330.095
330.899
331.439
332.04
332.258
332.911
333.271
333.753
333.766
333.994
333.78
334.109
333.863
333.855
333.518
333.01
332.602
332.31
331.667
331.393
325.803
326.481
326.917
327.462
327.61
328.196
328.541
328.975
328.933
329.152
328.95
329.278
328.979
329.05
328.755
328.304
327.97
327.711
327.173
326.982
321.659
322.172
322.565
323.047
323.122
323.577
323.946
324.321
324.284
324.448
324.272
324.559
324.279
324.426
324.119
323.742
323.51
323.266
322.811
322.651
317.63
318
318.352
318.695
318.756
319.108
319.486
319.778
319.715
319.83
319.714
319.924
319.715
319.852
319.583
319.31
319.134
318.886
318.518
318.43
313.681
313.939
314.214
314.452
314.467
314.788
315.078
315.298
315.226
315.286
315.231
315.389
315.265
315.369
315.128
314.954
314.797
314.602
314.309
314.266
309.753
309.917
310.138
310.278
310.316
310.515
310.731
310.884
310.821
310.858
310.838
310.955
310.88
310.955
310.764
310.652
310.558
310.4
310.165
310.189
305.869
305.951
306.101
306.166
306.167
306.258
306.403
306.537
306.47
306.488
306.508
306.562
306.529
306.556
306.449
306.41
306.348
306.247
306.067
306.148
301.969
302.019
302.055
302.064
302.052
302.077
302.122
302.202
302.15
302.177
302.168
302.197
302.19
302.211
302.181
302.143
302.12
302.087
302.041
302.051
330.993
331.586
332.206
332.918
333.227
333.932
334.334
334.67
334.697
334.806
334.896
334.889
334.73
334.45
334.425
334.084
333.423
333.051
332.376
332.318
326.539
327.026
327.592
328.228
328.447
329.059
329.443
329.729
329.733
329.828
329.886
329.927
329.774
329.583
329.519
329.21
328.686
328.34
327.799
327.745
322.2
322.663
323.162
323.688
323.822
324.353
324.697
324.947
324.962
325.003
325.027
325.084
324.964
324.876
324.776
324.496
324.086
323.804
323.37
323.29
318.039
318.39
318.837
319.282
319.319
319.785
320.081
320.27
320.26
320.285
320.356
320.377
320.31
320.268
320.121
319.92
319.551
319.263
319.035
318.957
313.964
314.198
314.573
314.904
314.934
315.304
315.535
315.678
315.663
315.711
315.758
315.725
315.677
315.696
315.565
315.422
315.116
314.86
314.762
314.7
309.923
310.085
310.389
310.586
310.6
310.874
311.096
311.17
311.107
311.196
311.259
311.166
311.17
311.169
311.072
310.958
310.76
310.561
310.525
310.478
305.922
306.029
306.226
306.323
306.34
306.503
306.648
306.727
306.624
306.718
306.749
306.647
306.706
306.677
306.614
306.557
306.436
306.331
306.308
306.269
301.972
302.012
302.097
302.105
302.11
302.186
302.218
302.254
302.225
302.248
302.258
302.234
302.24
302.22
302.211
302.188
302.146
302.111
302.105
302.106
331.664
332.298
333.092
333.701
334.03
334.799
334.892
335.11
335.558
335.718
335.692
335.657
335.618
335.466
335.25
335.04
334.342
333.921
333.233
332.767
327.192
327.678
328.329
328.861
329.182
329.819
329.854
330.068
330.5
330.631
330.588
330.558
330.541
330.428
330.212
330.045
329.44
329.112
328.478
328.182
322.806
323.179
323.74
324.192
324.474
324.975
325.046
325.316
325.586
325.703
325.652
325.574
325.599
325.516
325.331
325.226
324.7
324.449
323.964
323.708
318.549
318.808
319.235
319.632
319.871
320.279
320.377
320.6
320.809
320.864
320.825
320.775
320.811
320.731
320.54
320.512
320.049
319.83
319.556
319.329
314.313
314.563
314.863
315.177
315.353
315.69
315.762
315.978
316.082
316.131
316.071
316.043
316.131
316.029
315.863
315.847
315.515
315.352
315.185
315.008
310.166
310.331
310.581
310.762
310.9
311.193
311.212
311.383
311.427
311.501
311.47
311.431
311.514
311.399
311.267
311.27
311.048
310.885
310.829
310.733
306.138
306.197
306.327
306.444
306.552
306.717
306.708
306.83
306.823
306.876
306.874
306.858
306.89
306.806
306.759
306.702
306.625
306.497
306.49
306.45
302.069
302.088
302.138
302.14
302.21
302.239
302.223
302.292
302.273
302.308
302.296
302.32
302.288
302.289
302.275
302.219
302.237
302.169
302.173
302.157
332.429
333.03
333.66
334.474
334.821
335.304
335.643
335.816
336.393
336.53
336.41
336.299
336.435
336.364
336.071
335.716
335.191
334.843
334.12
333.561
327.822
328.305
328.844
329.585
329.827
330.261
330.534
330.721
331.197
331.348
331.168
331.141
331.292
331.213
330.968
330.63
330.218
329.86
329.326
328.869
323.371
323.754
324.205
324.816
324.975
325.399
325.62
325.8
326.121
326.286
326.121
326.129
326.219
326.184
325.997
325.694
325.4
325.075
324.66
324.264
318.984
319.288
319.69
320.17
320.252
320.641
320.831
321.009
321.225
321.35
321.145
321.198
321.31
321.257
321.174
320.876
320.633
320.413
320.09
319.732
314.676
314.868
315.162
315.601
315.658
315.962
316.129
316.28
316.417
316.527
316.3
316.384
316.502
316.492
316.425
316.176
315.899
315.782
315.559
315.261
310.447
310.528
310.744
311.124
311.131
311.377
311.464
311.624
311.697
311.729
311.572
311.672
311.757
311.741
311.692
311.54
311.286
311.229
311.076
310.883
306.287
306.311
306.416
306.662
306.685
306.772
306.864
306.948
306.979
307.042
306.949
307.025
307.052
307.06
307.031
306.937
306.759
306.74
306.652
306.524
302.117
302.117
302.153
302.226
302.24
302.246
302.291
302.327
302.339
302.344
302.338
302.364
302.359
302.377
302.377
302.311
302.266
302.27
302.231
302.157
333.223
333.863
334.192
335.075
335.446
335.981
336.532
336.669
337.094
337.197
337.064
337.294
337.141
336.976
336.698
336.27
336.029
335.494
334.652
334.273
328.525
329.046
329.29
330.114
330.386
330.836
331.285
331.474
331.848
331.926
331.804
331.976
331.814
331.737
331.488
331.069
330.942
330.447
329.79
329.448
323.926
324.37
324.567
325.293
325.458
325.88
326.263
326.409
326.782
326.794
326.708
326.788
326.667
326.638
326.457
326.054
325.964
325.551
325.036
324.727
319.439
319.815
319.992
320.592
320.675
321.024
321.374
321.473
321.781
321.804
321.678
321.808
321.67
321.648
321.487
321.161
321.11
320.769
320.403
320.102
315.013
315.335
315.485
315.948
315.991
316.291
316.548
316.59
316.893
316.84
316.796
316.933
316.763
316.795
316.582
316.377
316.373
316.064
315.848
315.565
310.662
310.897
311.047
311.348
311.417
311.64
311.771
311.765
312.034
311.952
311.986
312.064
311.891
311.946
311.776
311.675
311.65
311.431
311.307
311.11
306.39
306.523
306.64
306.784
306.872
306.966
307.06
307.04
307.227
307.13
307.191
307.237
307.128
307.165
307.046
306.982
306.936
306.833
306.802
306.653
302.14
302.181
302.23
302.26
302.287
302.326
302.376
302.372
302.416
302.39
302.412
302.424
302.403
302.391
302.36
302.346
302.33
302.262
302.282
302.243
333.637
334.232
334.723
335.618
336.257
336.631
337.088
337.23
337.828
337.961
337.788
337.99
337.854
337.602
337.335
336.981
336.461
335.864
335.124
334.8
328.891
329.345
329.785
330.602
331.127
331.405
331.828
331.921
332.445
332.609
332.422
332.627
332.446
332.265
332.03
331.784
331.288
330.791
330.186
329.874
324.259
324.602
325.031
325.718
326.151
326.341
326.652
326.745
327.203
327.356
327.173
327.432
327.207
327.109
326.869
326.711
326.287
325.862
325.393
325.089
319.722
320.008
320.363
320.914
321.281
321.392
321.624
321.711
322.09
322.226
322.064
322.342
322.085
322.054
321.833
321.754
321.371
321.058
320.616
320.396
315.294
315.521
315.759
316.215
316.51
316.579
316.735
316.809
317.062
317.181
317.048
317.328
317.112
317.096
316.912
316.85
316.591
316.344
315.937
315.805
310.875
311.086
311.206
311.548
311.787
311.812
311.898
311.973
312.128
312.244
312.133
312.364
312.226
312.198
312.037
311.995
311.811
311.657
311.362
311.241
306.51
306.642
306.731
306.94
307.061
307.103
307.146
307.16
307.269
307.299
307.278
307.421
307.333
307.35
307.195
307.167
307.081
306.964
306.819
306.729
302.16
302.231
302.259
302.329
302.376
302.405
302.394
302.387
302.428
302.463
302.451
302.453
302.464
302.456
302.402
302.417
302.362
302.334
302.274
302.246
333.944
334.621
335.263
336.063
336.69
337.221
337.381
337.86
338.325
338.363
338.485
338.407
338.24
338.291
337.845
337.458
336.953
336.532
335.683
335.283
329.152
329.692
330.236
330.979
331.46
331.887
332.146
332.446
332.813
332.921
332.985
332.939
332.825
332.823
332.534
332.156
331.757
331.364
330.704
330.352
324.509
324.926
325.342
326.052
326.427
326.752
327.026
327.244
327.512
327.648
327.662
327.645
327.572
327.536
327.378
327.05
326.67
326.384
325.813
325.558
319.967
320.276
320.615
321.181
321.532
321.712
322.012
322.138
322.326
322.453
322.515
322.479
322.4
322.371
322.287
322.044
321.691
321.478
321.029
320.867
315.464
315.706
315.981
316.413
316.668
316.828
317.002
317.148
317.227
317.351
317.424
317.4
317.356
317.311
317.252
317.127
316.791
316.605
316.309
316.218
311.036
311.164
311.414
311.708
311.856
311.968
312.079
312.199
312.241
312.346
312.434
312.422
312.338
312.311
312.247
312.254
311.963
311.806
311.638
311.563
306.623
306.701
306.866
307.047
307.076
307.189
307.226
307.313
307.331
307.389
307.458
307.466
307.384
307.378
307.34
307.337
307.177
307.073
306.985
306.922
302.252
302.261
302.326
302.358
302.368
302.405
302.426
302.451
302.452
302.485
302.526
302.509
302.472
302.45
302.451
302.468
302.413
302.357
302.33
302.32
334.512
335.063
335.441
336.727
337.088
337.584
337.852
338.412
338.63
338.942
338.998
338.782
338.745
338.615
338.353
337.889
337.411
336.813
336.221
335.949
329.613
330.087
330.352
331.54
331.825
332.271
332.505
332.95
333.167
333.407
333.484
333.258
333.255
333.083
332.965
332.539
332.105
331.595
331.13
330.979
324.845
325.25
325.461
326.479
326.682
327.086
327.265
327.653
327.83
328.062
328.145
327.917
327.916
327.746
327.663
327.329
326.941
326.535
326.163
326.132
320.182
320.529
320.732
321.532
321.697
321.979
322.197
322.468
322.612
322.775
322.865
322.709
322.665
322.564
322.469
322.248
321.913
321.563
321.349
321.377
315.608
315.923
316.056
316.688
316.844
317.032
317.165
317.444
317.454
317.596
317.738
317.593
317.53
317.485
317.362
317.198
316.97
316.684
316.585
316.628
311.099
311.347
311.425
311.849
311.982
312.156
312.189
312.446
312.368
312.5
312.665
312.519
312.48
312.409
312.374
312.24
312.108
311.867
311.848
311.901
306.638
306.822
306.862
307.063
307.181
307.31
307.297
307.449
307.388
307.476
307.58
307.475
307.437
307.397
307.443
307.35
307.233
307.113
307.15
307.113
302.223
302.283
302.306
302.344
302.399
302.444
302.46
302.509
302.484
302.494
302.53
302.487
302.488
302.477
302.498
302.455
302.431
302.366
302.385
302.359
334.773
335.546
336.091
336.906
337.527
337.94
338.282
338.756
339.109
339.405
339.346
339.468
339.297
339.246
338.772
338.269
337.811
337.281
336.833
336.083
329.855
330.529
330.962
331.634
332.228
332.577
332.839
333.249
333.562
333.817
333.803
333.878
333.767
333.71
333.278
332.882
332.478
332.03
331.613
331.087
325.067
325.613
325.988
326.553
327.042
327.343
327.558
327.89
328.143
328.401
328.408
328.447
328.367
328.284
327.926
327.627
327.3
326.942
326.553
326.176
320.36
320.838
321.133
321.64
321.955
322.214
322.423
322.682
322.865
323.114
323.122
323.127
323.054
323.006
322.703
322.493
322.199
321.939
321.614
321.337
315.755
316.142
316.312
316.797
316.997
317.181
317.339
317.598
317.691
317.855
317.908
317.89
317.839
317.844
317.575
317.394
317.215
316.989
316.744
316.549
311.247
311.504
311.603
311.986
312.09
312.214
312.335
312.557
312.582
312.703
312.786
312.76
312.725
312.727
312.515
312.366
312.269
312.12
311.937
311.795
306.78
306.899
306.938
307.186
307.27
307.321
307.39
307.503
307.524
307.612
307.655
307.635
307.621
307.649
307.475
307.411
307.379
307.288
307.186
307.071
302.296
302.311
302.328
302.403
302.44
302.443
302.484
302.508
302.518
302.565
302.569
302.569
302.547
302.56
302.508
302.482
302.469
302.443
302.429
302.369
335.101
335.832
336.502
336.683
337.768
338.269
338.58
338.999
339.379
339.466
339.723
339.62
339.483
339.402
339.107
338.387
337.885
337.482
336.914
336.185
330.159
330.754
331.352
331.478
332.39
332.845
333.054
333.481
333.776
333.89
334.108
334.022
333.879
333.859
333.541
332.991
332.564
332.194
331.75
331.136
325.352
325.789
326.346
326.447
327.201
327.567
327.687
328.128
328.338
328.463
328.637
328.604
328.419
328.423
328.201
327.711
327.369
327.052
326.726
326.209
320.652
320.936
321.419
321.541
322.113
322.379
322.472
322.913
323.048
323.133
323.301
323.294
323.081
323.152
322.95
322.499
322.263
321.981
321.776
321.329
316.002
316.179
316.525
316.664
317.111
317.314
317.358
317.774
317.868
317.88
318.058
318.021
317.867
317.957
317.775
317.379
317.209
317.005
316.918
316.518
311.396
311.485
311.739
311.88
312.178
312.326
312.342
312.708
312.76
312.712
312.852
312.837
312.711
312.765
312.627
312.382
312.256
312.125
312.082
311.747
306.845
306.875
307.002
307.153
307.316
307.383
307.379
307.613
307.659
307.595
307.673
307.69
307.6
307.623
307.539
307.438
307.331
307.255
307.279
307.04
302.296
302.286
302.347
302.395
302.458
302.497
302.467
302.559
302.569
302.572
302.569
302.594
302.538
302.538
302.522
302.495
302.454
302.429
302.455
302.359
)
;

boundaryField
{
    hotSide
    {
        type            fixedGradient;
        gradient        nonuniform List<scalar> 
400
(
256.845
268.169
279.392
290.464
301.335
311.956
322.275
332.242
341.808
350.925
359.546
367.627
375.124
381.999
388.216
393.74
398.544
402.601
405.889
408.393
262.155
273.819
285.383
296.799
308.012
318.973
329.628
339.925
349.815
359.246
368.171
376.543
384.319
391.457
397.92
403.674
408.687
412.934
416.392
419.043
266.842
278.819
290.699
302.43
313.959
325.234
336.199
346.803
356.991
366.714
375.922
384.566
392.601
399.985
406.68
412.648
417.86
422.286
425.904
428.696
270.908
283.167
295.333
307.351
319.167
330.727
341.975
352.858
363.32
373.31
382.776
391.669
399.943
407.554
414.462
420.63
426.025
430.618
434.387
437.311
274.356
286.867
299.286
311.559
323.632
335.447
346.948
358.08
368.788
379.018
388.717
397.835
406.324
414.14
421.241
427.59
433.152
437.899
441.805
444.851
277.194
289.923
302.563
315.058
327.354
339.391
351.114
362.465
373.388
383.828
393.732
403.048
411.727
419.725
426.997
433.507
439.218
444.102
448.132
451.288
279.43
292.342
305.168
317.852
330.336
342.562
354.473
366.01
377.116
387.735
397.814
407.299
416.142
424.295
431.715
438.363
444.204
449.207
453.345
456.598
281.074
294.134
307.111
319.946
332.583
344.962
357.025
368.714
379.969
390.735
400.957
410.582
419.558
427.84
435.383
442.146
448.095
453.197
457.426
460.761
282.135
295.307
308.396
321.347
334.099
346.594
358.774
370.578
381.948
392.827
403.159
412.891
421.971
430.353
437.991
444.845
450.879
456.06
460.362
463.763
282.622
295.867
309.031
322.058
334.888
347.462
359.72
371.603
383.051
394.008
404.416
414.223
423.376
431.828
439.534
446.452
452.547
457.785
462.141
465.59
282.539
295.819
309.02
322.085
334.954
347.567
359.866
371.789
383.279
394.277
404.727
414.574
423.768
432.26
440.005
446.961
453.092
458.365
462.754
466.234
281.89
295.166
308.364
321.427
334.296
346.91
359.21
371.137
382.63
393.633
404.089
413.943
423.145
431.645
439.4
446.366
452.508
457.794
462.194
465.688
280.674
293.907
307.064
320.086
332.914
345.49
357.753
369.644
381.103
392.074
402.5
412.327
421.503
429.981
437.715
444.665
450.793
456.067
460.459
463.948
278.889
292.041
305.116
318.058
330.807
343.304
355.491
367.307
378.696
389.598
399.958
409.723
418.842
427.266
434.951
441.856
447.944
453.184
457.547
461.013
276.531
289.563
302.518
315.339
327.97
340.35
352.422
364.126
375.406
386.203
396.462
406.131
415.16
423.499
431.106
437.939
443.963
449.146
453.46
456.884
273.595
286.468
299.264
311.927
324.4
336.625
348.544
360.099
371.233
381.889
392.013
401.554
410.46
418.684
426.185
432.92
438.856
443.959
448.205
451.571
270.074
282.751
295.351
307.817
320.095
332.127
343.856
355.225
366.178
376.659
386.615
395.994
404.747
412.828
420.195
426.807
432.631
437.635
441.794
445.085
265.964
278.408
290.775
303.009
315.055
326.858
338.361
349.509
360.247
370.519
380.274
389.461
398.032
405.942
413.149
419.615
425.305
430.19
434.244
437.446
261.262
273.438
285.536
297.502
309.282
320.821
332.065
342.959
353.448
363.48
373.004
381.97
390.331
398.044
405.068
411.364
416.9
421.648
425.581
428.679
255.968
267.843
279.639
291.304
302.784
314.027
324.979
335.586
345.797
355.559
364.824
373.542
381.668
389.159
395.977
402.083
407.447
412.04
415.838
418.822
)
;
    }
    coldSide
    {
        type            mixed;
        refValue        uniform 300;
        refGradient     uniform 0;
        valueFraction   uniform 0.991591;
        source          uniform 0;
        value           nonuniform List<scalar> 
400
(
300.012
300.012
300.012
300.013
300.014
300.014
300.015
300.015
300.015
300.016
300.017
300.017
300.017
300.018
300.018
300.018
300.019
300.019
300.019
300.019
300.012
300.012
300.013
300.013
300.014
300.014
300.015
300.016
300.015
300.016
300.017
300.017
300.018
300.018
300.018
300.019
300.019
300.019
300.019
300.019