/*--------------------------------*- C++ -*----------------------------------*\
| =========                 |                                                 |
| \\      /  F ield         | OpenFOAM: The Open Source CFD Toolbox           |
|  \\    /   O peration     | Version:  2212                                  |
|   \\  /    A nd           | Website:  www.openfoam.com                      |
|    \\/     M anipulation  |                                                 |
\*---------------------------------------------------------------------------*/
FoamFile
{
    version     2.0;
    format      ascii;
    arch        "LSB;label=32;scalar=64";
    class       volScalarField;
    location    "0";
    object      Tdirect;
}
// * * * * * * * * * * * * * * * * * * * * * * * * * * * * * * * * * * * * * //

dimensions      [0 0 0 1 0 0 0];

internalField   nonuniform List<scalar> 
3200
(
320.736
321.073
321.504
321.974
322.458
322.933
323.371
323.741
324.01
324.153
324.153
324.01
323.741
323.371
322.933
322.458
321.974
321.504
321.073
320.736
317.933
318.218
318.59
318.996
319.415
319.826
320.205
320.524
320.757
320.88
320.88
320.757
320.524
320.205
319.826
319.415
318.996
318.59
318.218
317.933
315.147
315.384
315.697
316.04
316.394
316.741
317.061
317.331
317.527
317.631
317.631
317.527
317.331
317.061
316.741
316.394
316.04
315.697
315.384
315.147
312.376
312.566
312.822
313.102
313.392
313.675
313.936
314.157
314.317
314.402
314.402
314.317
314.157
313.936
313.675
313.392
313.102
312.822
312.566
312.376
309.616
309.763
309.961
310.179
310.403
310.624
310.827
310.998
311.122
311.188
311.188
311.122
310.998
310.827
310.624
310.403
310.179
309.961
309.763
309.616
306.866
306.969
307.11
307.266
307.427
307.584
307.729
307.851
307.94
307.987
307.987
307.94
307.851
307.729
307.584
307.427
307.266
307.11
306.969
306.866
304.121
304.183
304.268
304.361
304.458
304.552
304.639
304.713
304.766
304.794
304.794
304.766
304.713
304.639
304.552
304.458
304.361
304.268
304.183
304.121
301.381
301.402
301.43
301.461
301.494
301.525
301.555
301.579
301.597
301.606
301.606
301.597
301.579
301.555
301.525
301.494
301.461
301.43
301.402
301.381
320.799
321.134
321.561
322.027
322.506
322.975
323.408
323.774
324.04
324.18
324.18
324.04
323.774
323.408
322.975
322.506
322.027
321.561
321.134
320.799
317.987
318.271
318.639
319.042
319.456
319.862
320.237
320.553
320.782
320.904
320.904
320.782
320.553
320.237
319.862
319.456
319.042
318.639
318.271
317.987
315.193
315.428
315.739
316.079
316.429
316.772
317.088
317.355
317.549
317.651
317.651
317.549
317.355
317.088
316.772
316.429
316.079
315.739
315.428
315.193
312.413
312.602
312.856
313.133
313.42
313.7
313.958
314.176
314.334
314.418
314.418
314.334
314.176
313.958
313.7
313.42
313.133
312.856
312.602
312.413
309.645
309.791
309.987
310.203
310.425
310.643
310.844
311.013
311.136
311.201
311.201
311.136
311.013
310.844
310.643
310.425
310.203
309.987
309.791
309.645
306.886
306.989
307.129
307.283
307.442
307.598
307.741
307.862
307.949
307.996
307.996
307.949
307.862
307.741
307.598
307.442
307.283
307.129
306.989
306.886
304.134
304.195
304.279
304.372
304.467
304.561
304.647
304.719
304.772
304.799
304.799
304.772
304.719
304.647
304.561
304.467
304.372
304.279
304.195
304.134
301.385
301.406
301.434
301.465
301.497
301.528
301.557
301.581
301.599
301.608
301.608
301.599
301.581
301.557
301.528
301.497
301.465
301.434
301.406
301.385
320.927
321.256
321.676
322.133
322.602
323.061
323.485
323.841
324.1
324.237
324.237
324.1
323.841
323.485
323.061
322.602
322.133
321.676
321.256
320.927
318.097
318.376
318.738
319.133
319.539
319.937
320.303
320.611
320.835
320.953
320.953
320.835
320.611
320.303
319.937
319.539
319.133
318.738
318.376
318.097
315.285
315.517
315.822
316.156
316.499
316.835
317.144
317.404
317.593
317.692
317.692
317.593
317.404
317.144
316.835
316.499
316.156
315.822
315.517
315.285
312.488
312.675
312.923
313.196
313.477
313.751
314.004
314.216
314.37
314.452
314.452
314.37
314.216
314.004
313.751
313.477
313.196
312.923
312.675
312.488
309.703
309.846
310.039
310.252
310.47
310.683
310.879
311.044
311.164
311.227
311.227
311.164
311.044
310.879
310.683
310.47
310.252
310.039
309.846
309.703
306.928
307.029
307.167
307.318
307.474
307.626
307.766
307.884
307.969
308.014
308.014
307.969
307.884
307.766
307.626
307.474
307.318
307.167
307.029
306.928
304.159
304.219
304.302
304.393
304.486
304.578
304.662
304.732
304.784
304.811
304.811
304.784
304.732
304.662
304.578
304.486
304.393
304.302
304.219
304.159
301.394
301.414
301.441
301.472
301.503
301.534
301.562
301.586
301.603
301.612
301.612
301.603
301.586
301.562
301.534
301.503
301.472
301.441
301.414
301.394
321.118
321.44
321.85
322.294
322.749
323.194
323.603
323.946
324.196
324.327
324.327
324.196
323.946
323.603
323.194
322.749
322.294
321.85
321.44
321.118
318.262
318.535
318.888
319.272
319.666
320.051
320.404
320.701
320.917
321.031
321.031
320.917
320.701
320.404
320.051
319.666
319.272
318.888
318.535
318.262
315.424
315.65
315.948
316.272
316.606
316.931
317.229
317.48
317.662
317.758
317.758
317.662
317.48
317.229
316.931
316.606
316.272
315.948
315.65
315.424
312.602
312.783
313.026
313.291
313.564
313.83
314.073
314.278
314.427
314.505
314.505
314.427
314.278
314.073
313.83
313.564
313.291
313.026
312.783
312.602
309.791
309.931
310.119
310.325
310.537
310.744
310.933
311.092
311.208
311.268
311.268
311.208
311.092
310.933
310.744
310.537
310.325
310.119
309.931
309.791
306.99
307.089
307.223
307.371
307.522
307.669
307.805
307.918
308.001
308.044
308.044
308.001
307.918
307.805
307.669
307.522
307.371
307.223
307.089
306.99
304.196
304.255
304.336
304.424
304.515
304.604
304.685
304.753
304.802
304.828
304.828
304.802
304.753
304.685
304.604
304.515
304.424
304.336
304.255
304.196
301.406
301.426
301.453
301.483
301.513
301.543
301.57
301.593
301.609
301.618
301.618
301.609
301.593
301.57
301.543
301.513
301.483
301.453
301.426
301.406
321.376
321.688
322.084
322.512
322.95
323.376
323.766
324.094
324.331
324.456
324.456
324.331
324.094
323.766
323.376
322.95
322.512
322.084
321.688
321.376
318.484
318.748
319.089
319.46
319.839
320.208
320.546
320.829
321.034
321.142
321.142
321.034
320.829
320.546
320.208
319.839
319.46
319.089
318.748
318.484
315.611
315.83
316.118
316.431
316.751
317.063
317.348
317.587
317.761
317.852
317.852
317.761
317.587
317.348
317.063
316.751
316.431
316.118
315.83
315.611
312.753
312.93
313.164
313.42
313.682
313.937
314.17
314.366
314.507
314.582
314.582
314.507
314.366
314.17
313.937
313.682
313.42
313.164
312.93
312.753
309.909
310.044
310.226
310.425
310.629
310.827
311.008
311.16
311.27
311.328
311.328
311.27
311.16
311.008
310.827
310.629
310.425
310.226
310.044
309.909
307.074
307.17
307.3
307.442
307.587
307.729
307.858
307.967
308.045
308.086
308.086
308.045
307.967
307.858
307.729
307.587
307.442
307.3
307.17
307.074
304.247
304.304
304.382
304.467
304.554
304.639
304.717
304.782
304.829
304.854
304.854
304.829
304.782
304.717
304.639
304.554
304.467
304.382
304.304
304.247
301.423
301.442
301.468
301.497
301.526
301.555
301.581
301.602
301.618
301.626
301.626
301.618
301.602
301.581
301.555
301.526
301.497
301.468
301.442
301.423
321.7
322
322.38
322.79
323.207
323.611
323.981
324.29
324.513
324.631
324.631
324.513
324.29
323.981
323.611
323.207
322.79
322.38
322
321.7
318.763
319.017
319.345
319.699
320.06
320.411
320.73
320.998
321.191
321.292
321.292
321.191
320.998
320.73
320.411
320.06
319.699
319.345
319.017
318.763
315.846
316.056
316.333
316.632
316.938
317.234
317.504
317.73
317.893
317.978
317.978
317.893
317.73
317.504
317.234
316.938
316.632
316.333
316.056
315.846
312.945
313.115
313.34
313.585
313.834
314.076
314.297
314.482
314.615
314.685
314.685
314.615
314.482
314.297
314.076
313.834
313.585
313.34
313.115
312.945
310.057
310.188
310.362
310.553
310.747
310.935
311.107
311.25
311.353
311.408
311.408
311.353
311.25
311.107
310.935
310.747
310.553
310.362
310.188
310.057
307.18
307.272
307.397
307.533
307.671
307.806
307.928
308.031
308.105
308.143
308.143
308.105
308.031
307.928
307.806
307.671
307.533
307.397
307.272
307.18
304.31
304.365
304.44
304.521
304.605
304.685
304.759
304.82
304.865
304.888
304.888
304.865
304.82
304.759
304.685
304.605
304.521
304.44
304.365
304.31
301.444
301.463
301.488
301.515
301.543
301.57
301.595
301.615
301.63
301.638
301.638
301.63
301.615
301.595
301.57
301.543
301.515
301.488
301.463
301.444
322.092
322.379
322.741
323.13
323.524
323.905
324.251
324.54
324.748
324.858
324.858
324.748
324.54
324.251
323.905
323.524
323.13
322.741
322.379
322.092
319.101
319.344
319.656
319.992
320.334
320.664
320.963
321.213
321.393
321.488
321.488
321.393
321.213
320.963
320.664
320.334
319.992
319.656
319.344
319.101
316.13
316.332
316.595
316.879
317.168
317.447
317.7
317.911
318.063
318.143
318.143
318.063
317.911
317.7
317.447
317.168
316.879
316.595
316.332
316.13
313.177
313.339
313.553
313.786
314.022
314.25
314.457
314.629
314.754
314.819
314.819
314.754
314.629
314.457
314.25
314.022
313.786
313.553
313.339
313.177
310.237
310.362
310.528
310.709
310.892
311.07
311.231
311.365
311.461
311.512
311.512
311.461
311.365
311.231
311.07
310.892
310.709
310.528
310.362
310.237
307.308
307.396
307.515
307.644
307.775
307.902
308.017
308.112
308.181
308.217
308.217
308.181
308.112
308.017
307.902
307.775
307.644
307.515
307.396
307.308
304.387
304.439
304.511
304.588
304.667
304.743
304.812
304.869
304.911
304.932
304.932
304.911
304.869
304.812
304.743
304.667
304.588
304.511
304.439
304.387
301.47
301.488
301.511
301.537
301.564
301.589
301.612
301.632
301.646
301.653
301.653
301.646
301.632
301.612
301.589
301.564
301.537
301.511
301.488
301.47
322.554
322.826
323.169
323.536
323.905
324.261
324.583
324.851
325.043
325.144
325.144
325.043
324.851
324.583
324.261
323.905
323.536
323.169
322.826
322.554
319.499
319.729
320.025
320.342
320.663
320.971
321.249
321.481
321.647
321.734
321.734
321.647
321.481
321.249
320.971
320.663
320.342
320.025
319.729
319.499
316.465
316.657
316.906
317.174
317.445
317.705
317.941
318.136
318.277
318.351
318.351
318.277
318.136
317.941
317.705
317.445
317.174
316.906
316.657
316.465
313.45
313.604
313.807
314.026
314.248
314.461
314.653
314.813
314.928
314.988
314.988
314.928
314.813
314.653
314.461
314.248
314.026
313.807
313.604
313.45
310.449
310.567
310.725
310.895
311.067
311.233
311.383
311.507
311.596
311.643
311.643
311.596
311.507
311.383
311.233
311.067
310.895
310.725
310.567
310.449
307.459
307.543
307.655
307.777
307.9
308.018
308.125
308.214
308.278
308.311
308.311
308.278
308.214
308.125
308.018
307.9
307.777
307.655
307.543
307.459
304.477
304.527
304.595
304.668
304.742
304.813
304.877
304.93
304.968
304.989
304.989
304.968
304.93
304.877
304.813
304.742
304.668
304.595
304.527
304.477
301.5
301.517
301.54
301.564
301.589
301.613
301.634
301.652
301.665
301.672
301.672
301.665
301.652
301.634
301.613
301.589
301.564
301.54
301.517
301.5
323.087
323.344
323.667
324.01
324.355
324.684
324.982
325.228
325.404
325.496
325.496
325.404
325.228
324.982
324.684
324.355
324.01
323.667
323.344
323.087
319.958
320.176
320.454
320.751
321.05
321.335
321.593
321.806
321.958
322.038
322.038
321.958
321.806
321.593
321.335
321.05
320.751
320.454
320.176
319.958
316.852
317.033
317.267
317.518
317.771
318.012
318.23
318.41
318.539
318.606
318.606
318.539
318.41
318.23
318.012
317.771
317.518
317.267
317.033
316.852
313.765
313.91
314.102
314.307
314.513
314.711
314.889
315.036
315.141
315.196
315.196
315.141
315.036
314.889
314.711
314.513
314.307
314.102
313.91
313.765
310.693
310.805
310.953
311.113
311.273
311.427
311.565
311.68
311.762
311.804
311.804
311.762
311.68
311.565
311.427
311.273
311.113
310.953
310.805
310.693
307.633
307.712
307.818
307.932
308.047
308.157
308.255
308.337
308.396
308.426
308.426
308.396
308.337
308.255
308.157
308.047
307.932
307.818
307.712
307.633
304.582
304.629
304.692
304.761
304.83
304.896
304.955
305.004
305.039
305.058
305.058
305.039
305.004
304.955
304.896
304.83
304.761
304.692
304.629
304.582
301.535
301.551
301.572
301.595
301.618
301.64
301.66
301.677
301.689
301.695
301.695
301.689
301.677
301.66
301.64
301.618
301.595
301.572
301.551
301.535
323.693
323.935
324.237
324.556
324.875
325.179
325.452
325.676
325.837
325.92
325.92
325.837
325.676
325.452
325.179
324.875
324.556
324.237
323.935
323.693
320.48
320.685
320.945
321.222
321.498
321.762
321.998
322.192
322.331
322.404
322.404
322.331
322.192
321.998
321.762
321.498
321.222
320.945
320.685
320.48
317.292
317.462
317.681
317.915
318.149
318.371
318.571
318.735
318.853
318.914
318.914
318.853
318.735
318.571
318.371
318.149
317.915
317.681
317.462
317.292
314.123
314.26
314.439
314.63
314.821
315.003
315.167
315.301
315.397
315.447
315.447
315.397
315.301
315.167
315.003
314.821
314.63
314.439
314.26
314.123
310.971
311.076
311.215
311.363
311.512
311.654
311.781
311.885
311.96
311.999
311.999
311.96
311.885
311.781
311.654
311.512
311.363
311.215
311.076
310.971
307.831
307.906
308.005
308.111
308.217
308.318
308.409
308.484
308.537
308.565
308.565
308.537
308.484
308.409
308.318
308.217
308.111
308.005
307.906
307.831
304.701
304.745
304.804
304.868
304.932
304.993
305.047
305.092
305.124
305.141
305.141
305.124
305.092
305.047
304.993
304.932
304.868
304.804
304.745
304.701
301.575
301.59
301.61
301.631
301.653
301.673
301.691
301.706
301.717
301.723
301.723
301.717
301.706
301.691
301.673
301.653
301.631
301.61
301.59
301.575
324.373
324.6
324.881
325.176
325.47
325.749
325.998
326.201
326.347
326.422
326.422
326.347
326.201
325.998
325.749
325.47
325.176
324.881
324.6
324.373
321.067
321.258
321.5
321.757
322.011
322.253
322.468
322.645
322.771
322.836
322.836
322.771
322.645
322.468
322.253
322.011
321.757
321.5
321.258
321.067
317.785
317.944
318.149
318.365
318.581
318.785
318.967
319.116
319.223
319.278
319.278
319.223
319.116
318.967
318.785
318.581
318.365
318.149
317.944
317.785
314.526
314.654
314.82
314.997
315.174
315.341
315.49
315.612
315.699
315.744
315.744
315.699
315.612
315.49
315.341
315.174
314.997
314.82
314.654
314.526
311.283
311.381
311.511
311.648
311.785
311.915
312.031
312.126
312.194
312.229
312.229
312.194
312.126
312.031
311.915
311.785
311.648
311.511
311.381
311.283
308.054
308.123
308.216
308.314
308.412
308.505
308.588
308.655
308.704
308.729
308.729
308.704
308.655
308.588
308.505
308.412
308.314
308.216
308.123
308.054
304.834
304.876
304.931
304.99
305.049
305.104
305.154
305.195
305.224
305.239
305.239
305.224
305.195
305.154
305.104
305.049
304.99
304.931
304.876
304.834
301.62
301.634
301.652
301.672
301.692
301.71
301.727
301.741
301.75
301.756
301.756
301.75
301.741
301.727
301.71
301.692
301.672
301.652
301.634
301.62
325.129
325.34
325.601
325.873
326.143
326.397
326.623
326.807
326.938
327.006
327.006
326.938
326.807
326.623
326.397
326.143
325.873
325.601
325.34
325.129
321.718
321.897
322.121
322.358
322.591
322.811
323.007
323.167
323.28
323.339
323.339
323.28
323.167
323.007
322.811
322.591
322.358
322.121
321.897
321.718
318.334
318.482
318.672
318.871
319.069
319.255
319.421
319.556
319.652
319.702
319.702
319.652
319.556
319.421
319.255
319.069
318.871
318.672
318.482
318.334
314.973
315.092
315.247
315.41
315.572
315.724
315.86
315.97
316.048
316.089
316.089
316.048
315.97
315.86
315.724
315.572
315.41
315.247
315.092
314.973
311.63
311.722
311.841
311.968
312.094
312.213
312.318
312.404
312.465
312.497
312.497
312.465
312.404
312.318
312.213
312.094
311.968
311.841
311.722
311.63
308.301
308.366
308.451
308.542
308.632
308.717
308.792
308.853
308.897
308.92
308.92
308.897
308.853
308.792
308.717
308.632
308.542
308.451
308.366
308.301
304.982
305.021
305.072
305.127
305.181
305.232
305.277
305.314
305.34
305.354
305.354
305.34
305.314
305.277
305.232
305.181
305.127
305.072
305.021
304.982
301.67
301.682
301.7
301.718
301.736
301.753
301.768
301.781
301.789
301.794
301.794
301.789
301.781
301.768
301.753
301.736
301.718
301.7
301.682
301.67
325.962
326.158
326.398
326.649
326.895
327.126
327.33
327.496
327.614
327.675
327.675
327.614
327.496
327.33
327.126
326.895
326.649
326.398
326.158
325.962
322.436
322.602
322.809
323.026
323.24
323.44
323.617
323.761
323.862
323.915
323.915
323.862
323.761
323.617
323.44
323.24
323.026
322.809
322.602
322.436
318.939
319.076
319.251
319.435
319.615
319.785
319.934
320.056
320.142
320.187
320.187
320.142
320.056
319.934
319.785
319.615
319.435
319.251
319.076
318.939
315.466
315.576
315.719
315.869
316.017
316.156
316.278
316.378
316.448
316.485
316.485
316.448
316.378
316.278
316.156
316.017
315.869
315.719
315.576
315.466
312.012
312.097
312.208
312.325
312.44
312.547
312.643
312.72
312.775
312.803
312.803
312.775
312.72
312.643
312.547
312.44
312.325
312.208
312.097
312.012
308.574
308.634
308.713
308.796
308.878
308.955
309.023
309.079
309.118
309.138
309.138
309.118
309.079
309.023
308.955
308.878
308.796
308.713
308.634
308.574
305.146
305.182
305.229
305.279
305.328
305.375
305.416
305.449
305.472
305.485
305.485
305.472
305.449
305.416
305.375
305.328
305.279
305.229
305.182
305.146
301.724
301.736
301.752
301.769
301.785
301.801
301.815
301.826
301.834
301.838
301.838
301.834
301.826
301.815
301.801
301.785
301.769
301.752
301.736
301.724
326.873
327.054
327.275
327.504
327.729
327.938
328.122
328.271
328.376
328.43
328.43
328.376
328.271
328.122
327.938
327.729
327.504
327.275
327.054
326.873
323.221
323.374
323.565
323.764
323.958
324.139
324.299
324.428
324.519
324.566
324.566
324.519
324.428
324.299
324.139
323.958
323.764
323.565
323.374
323.221
319.6
319.727
319.888
320.056
320.22
320.374
320.509
320.618
320.695
320.735
320.735
320.695
320.618
320.509
320.374
320.22
320.056
319.888
319.727
319.6
316.005
316.107
316.238
316.375
316.51
316.636
316.746
316.836
316.899
316.931
316.931
316.899
316.836
316.746
316.636
316.51
316.375
316.238
316.107
316.005
312.43
312.509
312.61
312.717
312.822
312.92
313.006
313.075
313.124
313.15
313.15
313.124
313.075
313.006
312.92
312.822
312.717
312.61
312.509
312.43
308.872
308.927
309
309.076
309.151
309.221
309.282
309.332
309.367
309.385
309.385
309.367
309.332
309.282
309.221
309.151
309.076
309
308.927
308.872
305.324
305.358
305.401
305.447
305.492
305.534
305.571
305.601
305.622
305.633
305.633
305.622
305.601
305.571
305.534
305.492
305.447
305.401
305.358
305.324
301.784
301.795
301.81
301.825
301.84
301.854
301.867
301.877
301.884
301.887
301.887
301.884
301.877
301.867
301.854
301.84
301.825
301.81
301.795
301.784
327.86
328.026
328.23
328.439
328.643
328.832
328.997
329.131
329.225
329.273
329.273
329.225
329.131
328.997
328.832
328.643
328.439
328.23
328.026
327.86
324.071
324.212
324.388
324.569
324.746
324.91
325.053
325.169
325.25
325.293
325.293
325.25
325.169
325.053
324.91
324.746
324.569
324.388
324.212
324.071
320.316
320.433
320.581
320.734
320.884
321.023
321.144
321.242
321.311
321.347
321.347
321.311
321.242
321.144
321.023
320.884
320.734
320.581
320.433
320.316
316.588
316.682
316.803
316.928
317.051
317.164
317.264
317.344
317.4
317.43
317.43
317.4
317.344
317.264
317.164
317.051
316.928
316.803
316.682
316.588
312.883
312.955
313.048
313.146
313.241
313.33
313.407
313.469
313.513
313.536
313.536
313.513
313.469
313.407
313.33
313.241
313.146
313.048
312.955
312.883
309.194
309.245
309.312
309.382
309.45
309.513
309.568
309.613
309.644
309.661
309.661
309.644
309.613
309.568
309.513
309.45
309.382
309.312
309.245
309.194
305.518
305.548
305.588
305.63
305.671
305.709
305.742
305.769
305.788
305.798
305.798
305.788
305.769
305.742
305.709
305.671
305.63
305.588
305.548
305.518
301.849
301.859
301.872
301.886
301.9
301.913
301.924
301.933
301.939
301.943
301.943
301.939
301.933
301.924
301.913
301.9
301.886
301.872
301.859
301.849
328.919
329.073
329.259
329.45
329.635
329.805
329.954
330.074
330.158
330.201
330.201
330.158
330.074
329.954
329.805
329.635
329.45
329.259
329.073
328.919
324.984
325.114
325.275
325.44
325.6
325.748
325.877
325.981
326.053
326.091
326.091
326.053
325.981
325.877
325.748
325.6
325.44
325.275
325.114
324.984
321.084
321.192
321.327
321.467
321.603
321.728
321.837
321.925
321.986
322.018
322.018
321.986
321.925
321.837
321.728
321.603
321.467
321.327
321.192
321.084
317.214
317.3
317.411
317.525
317.636
317.739
317.828
317.9
317.951
317.977
317.977
317.951
317.9
317.828
317.739
317.636
317.525
317.411
317.3
317.214
313.368
313.434
313.52
313.609
313.695
313.775
313.845
313.9
313.94
313.96
313.96
313.94
313.9
313.845
313.775
313.695
313.609
313.52
313.434
313.368
309.54
309.587
309.648
309.712
309.773
309.83
309.88
309.92
309.948
309.962
309.962
309.948
309.92
309.88
309.83
309.773
309.712
309.648
309.587
309.54
305.725
305.753
305.79
305.828
305.865
305.899
305.929
305.953
305.97
305.979
305.979
305.97
305.953
305.929
305.899
305.865
305.828
305.79
305.753
305.725
301.918
301.928
301.94
301.953
301.965
301.977
301.987
301.995
302
302.003
302.003
302
301.995
301.987
301.977
301.965
301.953
301.94
301.928
301.918
330.042
330.183
330.353
330.527
330.695
330.849
330.982
331.089
331.164
331.203
331.203
331.164
331.089
330.982
330.849
330.695
330.527
330.353
330.183
330.042
325.949
326.068
326.215
326.366
326.511
326.645
326.761
326.854
326.918
326.952
326.952
326.918
326.854
326.761
326.645
326.511
326.366
326.215
326.068
325.949
321.895
321.994
322.118
322.245
322.368
322.481
322.579
322.658
322.713
322.741
322.741
322.713
322.658
322.579
322.481
322.368
322.245
322.118
321.994
321.895
317.873
317.953
318.054
318.158
318.259
318.352
318.432
318.496
318.541
318.564
318.564
318.541
318.496
318.432
318.352
318.259
318.158
318.054
317.953
317.873
313.878
313.939
314.018
314.099
314.177
314.249
314.312
314.362
314.397
314.415
314.415
314.397
314.362
314.312
314.249
314.177
314.099
314.018
313.939
313.878
309.903
309.946
310.002
310.06
310.116
310.168
310.213
310.248
310.274
310.286
310.286
310.274
310.248
310.213
310.168
310.116
310.06
310.002
309.946
309.903
305.943
305.969
306.002
306.037
306.071
306.102
306.129
306.15
306.165
306.173
306.173
306.165
306.15
306.129
306.102
306.071
306.037
306.002
305.969
305.943
301.991
302
302.011
302.023
302.034
302.044
302.053
302.061
302.066
302.068
302.068
302.066
302.061
302.053
302.044
302.034
302.023
302.011
302
301.991
331.199
331.329
331.485
331.644
331.796
331.935
332.055
332.151
332.218
332.252
332.252
332.218
332.151
332.055
331.935
331.796
331.644
331.485
331.329
331.199
326.939
327.049
327.184
327.321
327.453
327.574
327.678
327.762
327.82
327.85
327.85
327.82
327.762
327.678
327.574
327.453
327.321
327.184
327.049
326.939
322.723
322.814
322.928
323.045
323.156
323.259
323.347
323.418
323.467
323.492
323.492
323.467
323.418
323.347
323.259
323.156
323.045
322.928
322.814
322.723
318.545
318.618
318.711
318.806
318.898
318.981
319.054
319.112
319.152
319.173
319.173
319.152
319.112
319.054
318.981
318.898
318.806
318.711
318.618
318.545
314.396
314.452
314.524
314.599
314.67
314.735
314.792
314.837
314.868
314.884
314.884
314.868
314.837
314.792
314.735
314.67
314.599
314.524
314.452
314.396
310.271
310.311
310.362
310.415
310.467
310.513
310.554
310.586
310.608
310.62
310.62
310.608
310.586
310.554
310.513
310.467
310.415
310.362
310.311
310.271
306.163
306.187
306.218
306.249
306.28
306.308
306.332
306.352
306.365
306.372
306.372
306.365
306.352
306.332
306.308
306.28
306.249
306.218
306.187
306.163
302.065
302.073
302.083
302.094
302.104
302.113
302.122
302.128
302.133
302.135
302.135
302.133
302.128
302.122
302.113
302.104
302.094
302.083
302.073
302.065
332.317
332.437
332.581
332.727
332.866
332.993
333.102
333.189
333.25
333.281
333.281
333.25
333.189
333.102
332.993
332.866
332.727
332.581
332.437
332.317
327.884
327.986
328.111
328.237
328.358
328.468
328.563
328.639
328.691
328.718
328.718
328.691
328.639
328.563
328.468
328.358
328.237
328.111
327.986
327.884
323.506
323.59
323.695
323.803
323.905
323.999
324.079
324.143
324.188
324.211
324.211
324.188
324.143
324.079
323.999
323.905
323.803
323.695
323.59
323.506
319.173
319.241
319.327
319.415
319.499
319.575
319.642
319.694
319.731
319.75
319.75
319.731
319.694
319.642
319.575
319.499
319.415
319.327
319.241
319.173
314.878
314.93
314.996
315.065
315.13
315.19
315.242
315.283
315.311
315.326
315.326
315.311
315.283
315.242
315.19
315.13
315.065
314.996
314.93
314.878
310.611
310.648
310.696
310.745
310.792
310.834
310.871
310.901
310.921
310.932
310.932
310.921
310.901
310.871
310.834
310.792
310.745
310.696
310.648
310.611
306.366
306.388
306.416
306.446
306.474
306.5
306.522
306.539
306.552
306.558
306.558
306.552
306.539
306.522
306.5
306.474
306.446
306.416
306.388
306.366
302.132
302.14
302.149
302.159
302.169
302.177
302.185
302.191
302.195
302.197
302.197
302.195
302.191
302.185
302.177
302.169
302.159
302.149
302.14
302.132
333.201
333.314
333.449
333.586
333.716
333.834
333.936
334.017
334.073
334.102
334.102
334.073
334.017
333.936
333.834
333.716
333.586
333.449
333.314
333.201
328.603
328.699
328.816
328.935
329.049
329.152
329.241
329.311
329.36
329.385
329.385
329.36
329.311
329.241
329.152
329.049
328.935
328.816
328.699
328.603
324.082
324.162
324.261
324.362
324.459
324.547
324.622
324.682
324.723
324.745
324.745
324.723
324.682
324.622
324.547
324.459
324.362
324.261
324.162
324.082
319.624
319.688
319.77
319.853
319.932
320.004
320.066
320.115
320.15
320.167
320.167
320.15
320.115
320.066
320.004
319.932
319.853
319.77
319.688
319.624
315.216
315.266
315.329
315.394
315.456
315.512
315.561
315.599
315.626
315.64
315.64
315.626
315.599
315.561
315.512
315.456
315.394
315.329
315.266
315.216
310.847
310.882
310.928
310.974
311.018
311.059
311.093
311.121
311.14
311.15
311.15
311.14
311.121
311.093
311.059
311.018
310.974
310.928
310.882
310.847
306.505
306.526
306.553
306.581
306.608
306.632
306.653
306.669
306.681
306.687
306.687
306.681
306.669
306.653
306.632
306.608
306.581
306.553
306.526
306.505
302.179
302.186
302.195
302.204
302.213
302.221
302.228
302.234
302.238
302.24
302.24
302.238
302.234
302.228
302.221
302.213
302.204
302.195
302.186
302.179
)
;

boundaryField
{
    hotSide
    {
        type            fixedGradient;
        gradient        nonuniform List<scalar> 
400
(
225.897
226.617
228.059
230.231
233.144
236.809
241.24
246.455
252.468
259.295
266.954
275.458
284.821
295.055
306.171
318.178
331.083
344.894
359.614
375.247
230.339
231.023
232.397
234.468
237.252
240.764
245.023
250.05
255.866
262.49
269.944
278.244
287.408
297.449
308.381
320.213
332.954
346.61
361.187
376.688
235.146
235.788
237.079
239.032
241.663
244.995
249.053
253.862
259.45
265.842
273.063
281.134
290.075
299.903
310.633
322.275
334.838
348.33
362.755
378.117
240.238
240.832
242.027
243.841
246.297
249.422
253.25
257.813
263.145
269.278
276.241
284.062
292.762
302.361
312.875
324.316
336.693
350.014
364.283
379.502
245.474
246.012
247.1
248.759
251.019
253.917
257.491
261.785
266.84
272.694
279.383
286.938
295.386
304.747
315.039
326.275
338.465
351.614
365.727
380.805
250.635
251.114
252.088
253.582
255.634
258.29
261.599
265.613
270.381
275.95
282.361
289.649
297.845
306.97
317.045
328.082
340.089
353.074
367.038
381.983
255.425
255.845
256.704
258.034
259.881
262.3
265.35
269.092
273.584
278.88
285.026
292.063
300.022
308.929
318.803
329.658
341.501
354.337
368.168
382.994
259.49
259.858
260.614
261.796
263.46
265.667
268.487
271.989
276.24
281.298
287.216
294.037
301.796
310.518
320.224
330.926
342.631
355.345
369.067
383.795
262.465
262.792
263.469
264.54
266.063
268.11
270.757
274.079
278.148
283.03
288.779
295.441
303.053
311.641
321.224
331.816
343.423
356.049
369.693
384.352
264.042
264.347
264.981
265.99
267.437
269.397
271.95
275.175
279.148
283.935
289.594
296.172
303.706
312.222
321.741
332.275
343.831
356.411
370.014
384.638
264.042
264.347
264.981
265.99
267.437
269.397
271.95
275.175
279.148
283.935
289.594
296.172
303.706
312.222
321.741
332.275
343.831
356.411
370.014
384.638
262.465
262.792
263.469
264.54
266.063
268.11
270.757
274.079
278.148
283.03
288.779
295.441
303.053
311.641
321.224
331.816
343.423
356.049
369.693
384.352
259.49
259.858
260.614
261.796
263.46
265.667
268.487
271.989
276.24
281.298
287.216
294.037
301.796
310.518
320.224
330.926
342.631
355.345
369.067
383.795
255.425
255.845
256.704
258.034
259.881
262.3
265.35
269.092
273.584
278.88
285.026
292.063
300.022
308.929
318.803
329.658
341.501
354.337
368.168
382.994
250.635
251.114
252.088
253.582
255.634
258.29
261.599
265.613
270.381
275.95
282.361
289.649
297.845
306.97
317.045
328.082
340.089
353.074
367.038
381.983
245.474
246.012
247.1
248.759
251.019
253.917
257.491
261.785
266.84
272.694
279.383
286.938
295.386
304.747
315.039
326.275
338.465
351.614
365.727
380.805
240.238
240.832
242.027
243.841
246.297
249.422
253.25
257.813
263.145
269.278
276.241
284.062
292.762
302.361
312.875
324.316
336.693
350.014
364.283
379.502
235.146
235.788
237.079
239.032
241.663
244.995
249.053
253.862
259.45
265.842
273.063
281.134
290.075
299.903
310.633
322.275
334.838
348.33
362.755
378.117
230.339
231.023
232.397
234.468
237.252
240.764
245.023
250.05
255.866
262.49
269.944
278.244
287.408
297.449
308.381
320.213
332.954
346.61
361.187
376.688
225.897
226.617
228.059
230.231
233.144
236.809
241.24
246.455
252.468
259.295
266.954
275.458
284.821
295.055
306.171
318.178
331.083
344.894
359.614
375.247
)
;
    }
    coldSide
    {
        type            mixed;
        refValue        uniform 300;
        refGradient     uniform 0;
        valueFraction   uniform 0.991591;
        source          uniform 0;
        value           nonuniform List<scalar> 
400
(
300.012
300.012
300.012
300.012
300.012
300.012
300.012
300.013
300.013
300.013
300.014
300.014
300.014
300.015
300.016
300.016
300.017
300.017
300.018
300.018
300.012
300.012
300.012
300.012
300.012
300.012
300.013
300.013
300.013
300.013
300.014
300.014
300.015
300.015
300.016
300.016
300.017
300.017
300.018
300.018
300.012