/*--------------------------------*- C++ -*----------------------------------*\
| =========                 |                                                 |
| \\      /  F ield         | OpenFOAM: The Open Source CFD Toolbox           |
|  \\    /   O peration     | Version:  2212                                  |
|   \\  /    A nd           | Website:  www.openfoam.com                      |
|    \\/     M anipulation  |                                                 |
\*---------------------------------------------------------------------------*/
FoamFile
{
    version     2.0;
    format      ascii;
    arch        "LSB;label=32;scalar=64";
    class       volScalarField;
    location    "./ITHACAoutput/true/12.3";
    object      trueState;
}
// * * * * * * * * * * * * * * * * * * * * * * * * * * * * * * * * * * * * * //

dimensions      [0 0 0 1 0 0 0];

internalField   nonuniform List<scalar> 
3200
(
318.764
319.13
319.597
320.105
320.629
321.144
321.619
322.019
322.311
322.466
322.466
322.311
322.019
321.619
321.144
320.629
320.105
319.597
319.13
318.764
316.296
316.605
317.008
317.448
317.901
318.346
318.757
319.103
319.355
319.488
319.488
319.355
319.103
318.757
318.346
317.901
317.448
317.008
316.605
316.296
313.814
314.07
314.41
314.782
315.165
315.541
315.887
316.18
316.392
316.505
316.505
316.392
316.18
315.887
315.541
315.165
314.782
314.41
314.07
313.814
311.32
311.527
311.803
312.107
312.421
312.728
313.011
313.249
313.423
313.515
313.515
313.423
313.249
313.011
312.728
312.421
312.107
311.803
311.527
311.32
308.817
308.976
309.19
309.426
309.67
309.909
310.129
310.314
310.449
310.52
310.52
310.449
310.314
310.129
309.909
309.67
309.426
309.19
308.976
308.817
306.306
306.419
306.572
306.74
306.914
307.085
307.242
307.374
307.47
307.521
307.521
307.47
307.374
307.242
307.085
306.914
306.74
306.572
306.419
306.306
303.79
303.857
303.949
304.05
304.155
304.257
304.351
304.431
304.488
304.519
304.519
304.488
304.431
304.351
304.257
304.155
304.05
303.949
303.857
303.79
301.271
301.293
301.324
301.358
301.393
301.427
301.459
301.485
301.505
301.515
301.515
301.505
301.485
301.459
301.427
301.393
301.358
301.324
301.293
301.271
318.815
319.178
319.641
320.145
320.663
321.172
321.641
322.037
322.325
322.478
322.478
322.325
322.037
321.641
321.172
320.663
320.145
319.641
319.178
318.815
316.34
316.647
317.046
317.482
317.931
318.371
318.777
319.119
319.368
319.499
319.499
319.368
319.119
318.777
318.371
317.931
317.482
317.046
316.647
316.34
313.851
314.106
314.442
314.811
315.19
315.562
315.904
316.193
316.403
316.514
316.514
316.403
316.193
315.904
315.562
315.19
314.811
314.442
314.106
313.851
311.351
311.556
311.83
312.131
312.441
312.745
313.025
313.261
313.432
313.522
313.522
313.432
313.261
313.025
312.745
312.441
312.131
311.83
311.556
311.351
308.841
308.998
309.211
309.445
309.686
309.922
310.14
310.323
310.456
310.526
310.526
310.456
310.323
310.14
309.922
309.686
309.445
309.211
308.998
308.841
306.323
306.435
306.587
306.754
306.926
307.094
307.249
307.38
307.475
307.525
307.525
307.475
307.38
307.249
307.094
306.926
306.754
306.587
306.435
306.323
303.801
303.867
303.958
304.058
304.162
304.263
304.356
304.434
304.491
304.521
304.521
304.491
304.434
304.356
304.263
304.162
304.058
303.958
303.867
303.801
301.274
301.297
301.327
301.361
301.395
301.429
301.46
301.487
301.506
301.516
301.516
301.506
301.487
301.46
301.429
301.395
301.361
301.327
301.297
301.274
318.918
319.275
319.73
320.224
320.733
321.23
321.689
322.075
322.356
322.504
322.504
322.356
322.075
321.689
321.23
320.733
320.224
319.73
319.275
318.918
316.429
316.731
317.123
317.551
317.991
318.422
318.818
319.152
319.394
319.522
319.522
319.394
319.152
318.818
318.422
317.991
317.551
317.123
316.731
316.429
313.926
314.177
314.508
314.869
315.241
315.605
315.939
316.221
316.426
316.534
316.534
316.426
316.221
315.939
315.605
315.241
314.869
314.508
314.177
313.926
311.412
311.614
311.884
312.179
312.483
312.78
313.054
313.284
313.451
313.539
313.539
313.451
313.284
313.054
312.78
312.483
312.179
311.884
311.614
311.412
308.889
309.044
309.253
309.482
309.719
309.95
310.162
310.341
310.471
310.539
310.539
310.471
310.341
310.162
309.95
309.719
309.482
309.253
309.044
308.889
306.358
306.467
306.616
306.78
306.949
307.114
307.266
307.393
307.486
307.535
307.535
307.486
307.393
307.266
307.114
306.949
306.78
306.616
306.467
306.358
303.821
303.887
303.976
304.074
304.176
304.275
304.366
304.442
304.498
304.527
304.527
304.498
304.442
304.366
304.275
304.176
304.074
303.976
303.887
303.821
301.281
301.303
301.333
301.366
301.4
301.433
301.464
301.489
301.508
301.518
301.518
301.508
301.489
301.464
301.433
301.4
301.366
301.333
301.303
301.281
319.072
319.421
319.865
320.346
320.839
321.321
321.764
322.136
322.406
322.549
322.549
322.406
322.136
321.764
321.321
320.839
320.346
319.865
319.421
319.072
316.563
316.858
317.24
317.657
318.084
318.501
318.883
319.205
319.439
319.562
319.562
319.439
319.205
318.883
318.501
318.084
317.657
317.24
316.858
316.563
314.04
314.284
314.607
314.959
315.319
315.672
315.995
316.267
316.464
316.568
316.568
316.464
316.267
315.995
315.672
315.319
314.959
314.607
314.284
314.04
311.505
311.702
311.965
312.252
312.547
312.835
313.1
313.321
313.482
313.567
313.567
313.482
313.321
313.1
312.835
312.547
312.252
311.965
311.702
311.505
308.961
309.112
309.316
309.54
309.769
309.993
310.198
310.37
310.495
310.561
310.561
310.495
310.37
310.198
309.993
309.769
309.54
309.316
309.112
308.961
306.409
306.516
306.662
306.821
306.985
307.145
307.291
307.414
307.504
307.55
307.55
307.504
307.414
307.291
307.145
306.985
306.821
306.662
306.516
306.409
303.852
303.916
304.003
304.099
304.197
304.293
304.381
304.455
304.509
304.537
304.537
304.509
304.455
304.381
304.293
304.197
304.099
304.003
303.916
303.852
301.292
301.313
301.342
301.374
301.407
301.439
301.469
301.494
301.512
301.521
301.521
301.512
301.494
301.469
301.439
301.407
301.374
301.342
301.313
301.292
319.28
319.618
320.047
320.511
320.985
321.447
321.87
322.225
322.482
322.618
322.618
322.482
322.225
321.87
321.447
320.985
320.511
320.047
319.618
319.28
316.743
317.029
317.399
317.8
318.211
318.611
318.977
319.283
319.506
319.623
319.623
319.506
319.283
318.977
318.611
318.211
317.8
317.399
317.029
316.743
314.192
314.429
314.741
315.08
315.427
315.765
316.074
316.333
316.521
316.62
316.62
316.521
316.333
316.074
315.765
315.427
315.08
314.741
314.429
314.192
311.63
311.821
312.075
312.352
312.636
312.912
313.165
313.376
313.529
313.61
313.61
313.529
313.376
313.165
312.912
312.636
312.352
312.075
311.821
311.63
309.058
309.205
309.402
309.617
309.838
310.052
310.249
310.413
310.532
310.595
310.595
310.532
310.413
310.249
310.052
309.838
309.617
309.402
309.205
309.058
306.479
306.582
306.723
306.877
307.034
307.188
307.328
307.445
307.53
307.575
307.575
307.53
307.445
307.328
307.188
307.034
306.877
306.723
306.582
306.479
303.894
303.956
304.04
304.132
304.227
304.319
304.403
304.474
304.525
304.551
304.551
304.525
304.474
304.403
304.319
304.227
304.132
304.04
303.956
303.894
301.306
301.326
301.355
301.386
301.417
301.448
301.476
301.5
301.517
301.526
301.526
301.517
301.5
301.476
301.448
301.417
301.386
301.355
301.326
301.306
319.543
319.868
320.28
320.724
321.175
321.614
322.014
322.349
322.591
322.718
322.718
322.591
322.349
322.014
321.614
321.175
320.724
320.28
319.868
319.543
316.97
317.246
317.601
317.985
318.376
318.756
319.102
319.391
319.601
319.711
319.711
319.601
319.391
319.102
318.756
318.376
317.985
317.601
317.246
316.97
314.385
314.613
314.912
315.237
315.568
315.888
316.181
316.425
316.602
316.695
316.695
316.602
316.425
316.181
315.888
315.568
315.237
314.912
314.613
314.385
311.787
311.971
312.215
312.48
312.751
313.013
313.252
313.452
313.596
313.672
313.672
313.596
313.452
313.252
313.013
312.751
312.48
312.215
311.971
311.787
309.181
309.322
309.511
309.717
309.927
310.131
310.317
310.472
310.584
310.643
310.643
310.584
310.472
310.317
310.131
309.927
309.717
309.511
309.322
309.181
306.566
306.666
306.801
306.948
307.098
307.244
307.377
307.488
307.568
307.61
307.61
307.568
307.488
307.377
307.244
307.098
306.948
306.801
306.666
306.566
303.946
304.006
304.087
304.175
304.265
304.353
304.433
304.499
304.547
304.572
304.572
304.547
304.499
304.433
304.353
304.265
304.175
304.087
304.006
303.946
301.323
301.343
301.37
301.4
301.43
301.459
301.486
301.508
301.525
301.533
301.533
301.525
301.508
301.486
301.459
301.43
301.4
301.37
301.343
301.323
319.862
320.173
320.565
320.986
321.413
321.826
322.201
322.514
322.739
322.858
322.858
322.739
322.514
322.201
321.826
321.413
320.986
320.565
320.173
319.862
317.247
317.51
317.848
318.213
318.583
318.94
319.265
319.535
319.73
319.833
319.833
319.73
319.535
319.265
318.94
318.583
318.213
317.848
317.51
317.247
314.618
314.837
315.122
315.43
315.743
316.045
316.319
316.548
316.712
316.799
316.799
316.712
316.548
316.319
316.045
315.743
315.43
315.122
314.837
314.618
311.979
312.154
312.387
312.639
312.894
313.141
313.366
313.552
313.687
313.758
313.758
313.687
313.552
313.366
313.141
312.894
312.639
312.387
312.154
311.979
309.329
309.464
309.645
309.84
310.039
310.231
310.406
310.551
310.655
310.71
310.71
310.655
310.551
310.406
310.231
310.039
309.84
309.645
309.464
309.329
306.673
306.768
306.897
307.036
307.178
307.316
307.44
307.544
307.618
307.658
307.658
307.618
307.544
307.44
307.316
307.178
307.036
306.897
306.768
306.673
304.01
304.067
304.144
304.228
304.314
304.396
304.471
304.533
304.578
304.601
304.601
304.578
304.533
304.471
304.396
304.314
304.228
304.144
304.067
304.01
301.345
301.364
301.39
301.418
301.446
301.474
301.499
301.52
301.535
301.543
301.543
301.535
301.52
301.499
301.474
301.446
301.418
301.39
301.364
301.345
320.238
320.534
320.905
321.302
321.702
322.088
322.437
322.727
322.935
323.044
323.044
322.935
322.727
322.437
322.088
321.702
321.302
320.905
320.534
320.238
317.573
317.823
318.143
318.487
318.834
319.168
319.47
319.72
319.901
319.995
319.995
319.901
319.72
319.47
319.168
318.834
318.487
318.143
317.823
317.573
314.894
315.102
315.372
315.662
315.956
316.238
316.493
316.705
316.857
316.937
316.937
316.857
316.705
316.493
316.238
315.956
315.662
315.372
315.102
314.894
312.205
312.372
312.592
312.829
313.069
313.3
313.508
313.682
313.806
313.871
313.871
313.806
313.682
313.508
313.3
313.069
312.829
312.592
312.372
312.205
309.505
309.633
309.804
309.989
310.175
310.355
310.517
310.651
310.748
310.799
310.799
310.748
310.651
310.517
310.355
310.175
309.989
309.804
309.633
309.505
306.798
306.889
307.011
307.142
307.276
307.404
307.52
307.616
307.685
307.721
307.721
307.685
307.616
307.52
307.404
307.276
307.142
307.011
306.889
306.798
304.086
304.14
304.213
304.292
304.372
304.449
304.519
304.576
304.618
304.639
304.639
304.618
304.576
304.519
304.449
304.372
304.292
304.213
304.14
304.086
301.37
301.388
301.412
301.439
301.466
301.492
301.515
301.534
301.548
301.555
301.555
301.548
301.534
301.515
301.492
301.466
301.439
301.412
301.388
301.37
320.674
320.953
321.303
321.674
322.048
322.405
322.727
322.993
323.184
323.284
323.284
323.184
322.993
322.727
322.405
322.048
321.674
321.303
320.953
320.674
317.951
318.187
318.488
318.81
319.134
319.443
319.722
319.952
320.118
320.204
320.204
320.118
319.952
319.722
319.443
319.134
318.81
318.488
318.187
317.951
315.214
315.41
315.664
315.936
316.21
316.471
316.707
316.902
317.042
317.115
317.115
317.042
316.902
316.707
316.471
316.21
315.936
315.664
315.41
315.214
312.466
312.624
312.831
313.053
313.277
313.491
313.684
313.843
313.957
314.017
314.017
313.957
313.843
313.684
313.491
313.277
313.053
312.831
312.624
312.466
309.709
309.83
309.991
310.163
310.337
310.504
310.654
310.778
310.866
310.913
310.913
310.866
310.778
310.654
310.504
310.337
310.163
309.991
309.83
309.709
306.944
307.029
307.144
307.267
307.392
307.511
307.618
307.706
307.769
307.803
307.803
307.769
307.706
307.618
307.511
307.392
307.267
307.144
307.029
306.944
304.173
304.224
304.293
304.367
304.442
304.513
304.577
304.631
304.669
304.688
304.688
304.669
304.631
304.577
304.513
304.442
304.367
304.293
304.224
304.173
301.399
301.416
301.439
301.464
301.489
301.513
301.535
301.553
301.565
301.572
301.572
301.565
301.553
301.535
301.513
301.489
301.464
301.439
301.416
301.399
321.172
321.434
321.761
322.107
322.452
322.782
323.077
323.32
323.494
323.585
323.585
323.494
323.32
323.077
322.782
322.452
322.107
321.761
321.434
321.172
318.382
318.604
318.886
319.185
319.485
319.77
320.026
320.237
320.387
320.466
320.466
320.387
320.237
320.026
319.77
319.485
319.185
318.886
318.604
318.382
315.579
315.763
316.001
316.254
316.507
316.749
316.965
317.143
317.27
317.337
317.337
317.27
317.143
316.965
316.749
316.507
316.254
316.001
315.763
315.579
312.765
312.913
313.107
313.314
313.521
313.719
313.895
314.041
314.145
314.199
314.199
314.145
314.041
313.895
313.719
313.521
313.314
313.107
312.913
312.765
309.941
310.055
310.205
310.366
310.527
310.681
310.818
310.932
311.013
311.055
311.055
311.013
310.932
310.818
310.681
310.527
310.366
310.205
310.055
309.941
307.11
307.19
307.297
307.412
307.528
307.637
307.736
307.816
307.874
307.904
307.904
307.874
307.816
307.736
307.637
307.528
307.412
307.297
307.19
307.11
304.273
304.321
304.385
304.454
304.523
304.589
304.648
304.697
304.732
304.75
304.75
304.732
304.697
304.648
304.589
304.523
304.454
304.385
304.321
304.273
301.433
301.449
301.47
301.493
301.517
301.539
301.558
301.575
301.586
301.592
301.592
301.586
301.575
301.558
301.539
301.517
301.493
301.47
301.449
301.433
321.732
321.977
322.281
322.602
322.92
323.222
323.491
323.712
323.87
323.952
323.952
323.87
323.712
323.491
323.222
322.92
322.602
322.281
321.977
321.732
318.868
319.075
319.338
319.615
319.891
320.152
320.386
320.577
320.713
320.784
320.784
320.713
320.577
320.386
320.152
319.891
319.615
319.338
319.075
318.868
315.99
316.162
316.384
316.618
316.852
317.073
317.27
317.432
317.547
317.607
317.607
317.547
317.432
317.27
317.073
316.852
316.618
316.384
316.162
315.99
313.101
313.24
313.42
313.612
313.803
313.984
314.146
314.278
314.372
314.421
314.421
314.372
314.278
314.146
313.984
313.803
313.612
313.42
313.24
313.101
310.203
310.309
310.449
310.598
310.747
310.888
311.013
311.116
311.189
311.228
311.228
311.189
311.116
311.013
310.888
310.747
310.598
310.449
310.309
310.203
307.297
307.372
307.472
307.578
307.685
307.785
307.875
307.948
308.001
308.028
308.028
308.001
307.948
307.875
307.785
307.685
307.578
307.472
307.372
307.297
304.385
304.43
304.49
304.554
304.618
304.678
304.732
304.776
304.808
304.824
304.824
304.808
304.776
304.732
304.678
304.618
304.554
304.49
304.43
304.385
301.47
301.485
301.505
301.527
301.548
301.568
301.587
301.601
301.612
301.617
301.617
301.612
301.601
301.587
301.568
301.548
301.527
301.505
301.485
301.47
322.357
322.585
322.867
323.162
323.454
323.73
323.974
324.174
324.316
324.389
324.389
324.316
324.174
323.974
323.73
323.454
323.162
322.867
322.585
322.357
319.409
319.602
319.846
320.102
320.355
320.593
320.805
320.978
321.101
321.165
321.165
321.101
320.978
320.805
320.593
320.355
320.102
319.846
319.602
319.409
316.448
316.609
316.814
317.03
317.244
317.446
317.625
317.772
317.876
317.93
317.93
317.876
317.772
317.625
317.446
317.244
317.03
316.814
316.609
316.448
313.476
313.605
313.773
313.95
314.125
314.29
314.437
314.556
314.641
314.685
314.685
314.641
314.556
314.437
314.29
314.125
313.95
313.773
313.605
313.476
310.495
310.594
310.723
310.861
310.997
311.126
311.24
311.333
311.399
311.433
311.433
311.399
311.333
311.24
311.126
310.997
310.861
310.723
310.594
310.495
307.505
307.575
307.668
307.766
307.864
307.955
308.037
308.104
308.151
308.175
308.175
308.151
308.104
308.037
307.955
307.864
307.766
307.668
307.575
307.505
304.511
304.552
304.608
304.667
304.725
304.781
304.83
304.869
304.898
304.913
304.913
304.898
304.869
304.83
304.781
304.725
304.667
304.608
304.552
304.511
301.512
301.526
301.545
301.565
301.584
301.603
301.619
301.633
301.642
301.647
301.647
301.642
301.633
301.619
301.603
301.584
301.565
301.545
301.526
301.512
323.047
323.259
323.519
323.79
324.057
324.307
324.528
324.708
324.836
324.902
324.902
324.836
324.708
324.528
324.307
324.057
323.79
323.519
323.259
323.047
320.007
320.187
320.411
320.646
320.878
321.094
321.286
321.442
321.552
321.609
321.609
321.552
321.442
321.286
321.094
320.878
320.646
320.411
320.187
320.007
316.955
317.103
317.293
317.492
317.687
317.871
318.033
318.165
318.258
318.307
318.307
318.258
318.165
318.033
317.871
317.687
317.492
317.293
317.103
316.955
313.891
314.01
314.165
314.327
314.488
314.638
314.77
314.878
314.955
314.994
314.994
314.955
314.878
314.77
314.638
314.488
314.327
314.165
314.01
313.891
310.817
310.909
311.029
311.155
311.28
311.397
311.5
311.584
311.643
311.674
311.674
311.643
311.584
311.5
311.397
311.28
311.155
311.029
310.909
310.817
307.736
307.801
307.886
307.977
308.066
308.149
308.223
308.283
308.325
308.347
308.347
308.325
308.283
308.223
308.149
308.066
307.977
307.886
307.801
307.736
304.649
304.688
304.739
304.793
304.847
304.897
304.941
304.977
305.003
305.016
305.016
305.003
304.977
304.941
304.897
304.847
304.793
304.739
304.688
304.649
301.559
301.572
301.589
301.607
301.625
301.642
301.657
301.669
301.677
301.682
301.682
301.677
301.669
301.657
301.642
301.625
301.607
301.589
301.572
301.559
323.803
323.999
324.239
324.487
324.73
324.957
325.156
325.318
325.431
325.49
325.49
325.431
325.318
325.156
324.957
324.73
324.487
324.239
323.999
323.803
320.663
320.829
321.035
321.251
321.461
321.658
321.831
321.971
322.069
322.12
322.12
322.069
321.971
321.831
321.658
321.461
321.251
321.035
320.829
320.663
317.51
317.647
317.821
318.003
318.182
318.348
318.494
318.613
318.696
318.739
318.739
318.696
318.613
318.494
318.348
318.182
318.003
317.821
317.647
317.51
314.345
314.455
314.598
314.747
314.892
315.028
315.148
315.245
315.313
315.349
315.349
315.313
315.245
315.148
315.028
314.892
314.747
314.598
314.455
314.345
311.17
311.255
311.366
311.481
311.595
311.701
311.794
311.869
311.923
311.95
311.95
311.923
311.869
311.794
311.701
311.595
311.481
311.366
311.255
311.17
307.988
308.048
308.127
308.21
308.291
308.367
308.433
308.487
308.525
308.545
308.545
308.525
308.487
308.433
308.367
308.291
308.21
308.127
308.048
307.988
304.801
304.837
304.884
304.933
304.982
305.028
305.068
305.1
305.123
305.135
305.135
305.123
305.1
305.068
305.028
304.982
304.933
304.884
304.837
304.801
301.61
301.622
301.637
301.654
301.67
301.686
301.699
301.71
301.718
301.722
301.722
301.718
301.71
301.699
301.686
301.67
301.654
301.637
301.622
301.61
324.625
324.806
325.026
325.253
325.473
325.678
325.857
326.002
326.104
326.157
326.157
326.104
326.002
325.857
325.678
325.473
325.253
325.026
324.806
324.625
321.375
321.528
321.718
321.914
322.106
322.283
322.439
322.564
322.652
322.698
322.698
322.652
322.564
322.439
322.283
322.106
321.914
321.718
321.528
321.375
318.112
318.239
318.399
318.565
318.727
318.878
319.009
319.115
319.19
319.229
319.229
319.19
319.115
319.009
318.878
318.727
318.565
318.399
318.239
318.112
314.838
314.94
315.07
315.206
315.339
315.462
315.57
315.657
315.718
315.749
315.749
315.718
315.657
315.57
315.462
315.339
315.206
315.07
314.94
314.838
311.554
311.632
311.733
311.839
311.942
312.038
312.122
312.19
312.237
312.262
312.262
312.237
312.19
312.122
312.038
311.942
311.839
311.733
311.632
311.554
308.262
308.318
308.39
308.466
308.539
308.608
308.668
308.716
308.75
308.768
308.768
308.75
308.716
308.668
308.608
308.539
308.466
308.39
308.318
308.262
304.965
304.998
305.042
305.087
305.131
305.172
305.208
305.237
305.258
305.268
305.268
305.258
305.237
305.208
305.172
305.131
305.087
305.042
304.998
304.965
301.665
301.676
301.69
301.706
301.72
301.734
301.746
301.756
301.763
301.766
301.766
301.763
301.756
301.746
301.734
301.72
301.706
301.69
301.676
301.665
325.509
325.676
325.877
326.084
326.284
326.469
326.63
326.76
326.85
326.897
326.897
326.85
326.76
326.63
326.469
326.284
326.084
325.877
325.676
325.509
322.141
322.281
322.455
322.635
322.808
322.968
323.108
323.22
323.299
323.34
323.34
323.299
323.22
323.108
322.968
322.808
322.635
322.455
322.281
322.141
318.759
318.876
319.023
319.174
319.321
319.457
319.575
319.67
319.737
319.771
319.771
319.737
319.67
319.575
319.457
319.321
319.174
319.023
318.876
318.759
315.367
315.461
315.581
315.705
315.825
315.936
316.033
316.111
316.165
316.193
316.193
316.165
316.111
316.033
315.936
315.825
315.705
315.581
315.461
315.367
311.965
312.037
312.13
312.227
312.32
312.407
312.482
312.543
312.585
312.607
312.607
312.585
312.543
312.482
312.407
312.32
312.227
312.13
312.037
311.965
308.556
308.607
308.673
308.742
308.809
308.871
308.925
308.968
308.999
309.014
309.014
308.999
308.968
308.925
308.871
308.809
308.742
308.673
308.607
308.556
305.142
305.172
305.212
305.253
305.294
305.331
305.363
305.389
305.407
305.417
305.417
305.407
305.389
305.363
305.331
305.294
305.253
305.212
305.172
305.142
301.724
301.734
301.747
301.761
301.775
301.787
301.798
301.807
301.813
301.816
301.816
301.813
301.807
301.798
301.787
301.775
301.761
301.747
301.734
301.724
326.446
326.599
326.784
326.972
327.154
327.32
327.465
327.581
327.662
327.704
327.704
327.662
327.581
327.465
327.32
327.154
326.972
326.784
326.599
326.446
322.951
323.08
323.239
323.403
323.56
323.705
323.83
323.931
324.001
324.037
324.037
324.001
323.931
323.83
323.705
323.56
323.403
323.239
323.08
322.951
319.443
319.55
319.685
319.823
319.956
320.079
320.185
320.27
320.33
320.36
320.36
320.33
320.27
320.185
320.079
319.956
319.823
319.685
319.55
319.443
315.925
316.012
316.121
316.234
316.343
316.444
316.531
316.6
316.649
316.674
316.674
316.649
316.6
316.531
316.444
316.343
316.234
316.121
316.012
315.925
312.399
312.465
312.55
312.638
312.723
312.801
312.869
312.923
312.961
312.981
312.981
312.961
312.923
312.869
312.801
312.723
312.638
312.55
312.465
312.399
308.866
308.912
308.973
309.036
309.097
309.152
309.201
309.24
309.267
309.281
309.281
309.267
309.24
309.201
309.152
309.097
309.036
308.973
308.912
308.866
305.327
305.355
305.392
305.429
305.466
305.499
305.529
305.552
305.568
305.577
305.577
305.568
305.552
305.529
305.499
305.466
305.429
305.392
305.355
305.327
301.786
301.795
301.808
301.82
301.833
301.844
301.854
301.861
301.867
301.87
301.87
301.867
301.861
301.854
301.844
301.833
301.82
301.808
301.795
301.786
327.412
327.552
327.722
327.894
328.058
328.209
328.339
328.443
328.516
328.553
328.553
328.516
328.443
328.339
328.209
328.058
327.894
327.722
327.552
327.412
323.781
323.9
324.046
324.195
324.338
324.469
324.582
324.672
324.735
324.768
324.768
324.735
324.672
324.582
324.469
324.338
324.195
324.046
323.9
323.781
320.141
320.24
320.363
320.489
320.61
320.721
320.817
320.893
320.947
320.974
320.974
320.947
320.893
320.817
320.721
320.61
320.489
320.363
320.24
320.141
316.493
316.572
316.673
316.776
316.876
316.966
317.045
317.108
317.151
317.174
317.174
317.151
317.108
317.045
316.966
316.876
316.776
316.673
316.572
316.493
312.838
312.899
312.977
313.058
313.135
313.206
313.267
313.316
313.35
313.367
313.367
313.35
313.316
313.267
313.206
313.135
313.058
312.977
312.899
312.838
309.179
309.222
309.277
309.335
309.39
309.441
309.484
309.519
309.544
309.556
309.556
309.544
309.519
309.484
309.441
309.39
309.335
309.277
309.222
309.179
305.515
305.541
305.574
305.609
305.642
305.672
305.698
305.719
305.734
305.742
305.742
305.734
305.719
305.698
305.672
305.642
305.609
305.574
305.541
305.515
301.849
301.858
301.869
301.88
301.891
301.902
301.91
301.917
301.922
301.925
301.925
301.922
301.917
301.91
301.902
301.891
301.88
301.869
301.858
301.849
328.342
328.472
328.628
328.786
328.937
329.074
329.192
329.287
329.352
329.386
329.386
329.352
329.287
329.192
329.074
328.937
328.786
328.628
328.472
328.342
324.571
324.682
324.816
324.954
325.085
325.204
325.307
325.389
325.446
325.475
325.475
325.446
325.389
325.307
325.204
325.085
324.954
324.816
324.682
324.571
320.798
320.89
321.003
321.12
321.231
321.332
321.419
321.489
321.537
321.562
321.562
321.537
321.489
321.419
321.332
321.231
321.12
321.003
320.89
320.798
317.023
317.096
317.189
317.285
317.376
317.459
317.53
317.587
317.627
317.647
317.647
317.627
317.587
317.53
317.459
317.376
317.285
317.189
317.096
317.023
313.245
313.302
313.374
313.448
313.519
313.584
313.64
313.684
313.715
313.731
313.731
313.715
313.684
313.64
313.584
313.519
313.448
313.374
313.302
313.245
309.467
309.507
309.558
309.611
309.662
309.708
309.748
309.78
309.802
309.814
309.814
309.802
309.78
309.748
309.708
309.662
309.611
309.558
309.507
309.467
305.687
305.711
305.742
305.774
305.804
305.832
305.856
305.875
305.888
305.895
305.895
305.888
305.875
305.856
305.832
305.804
305.774
305.742
305.711
305.687
301.906
301.914
301.925
301.935
301.946
301.955
301.963
301.969
301.974
301.976
301.976
301.974
301.969
301.963
301.955
301.946
301.935
301.925
301.914
301.906
329.073
329.195
329.342
329.49
329.631
329.759
329.869
329.956
330.017
330.048
330.048
330.017
329.956
329.869
329.759
329.631
329.49
329.342
329.195
329.073
325.168
325.272
325.4
325.529
325.652
325.763
325.859
325.936
325.989
326.016
326.016
325.989
325.936
325.859
325.763
325.652
325.529
325.4
325.272
325.168
321.279
321.366
321.473
321.583
321.688
321.783
321.864
321.929
321.974
321.997
321.997
321.974
321.929
321.864
321.783
321.688
321.583
321.473
321.366
321.279
317.401
317.471
317.559
317.649
317.735
317.813
317.88
317.933
317.97
317.989
317.989
317.97
317.933
317.88
317.813
317.735
317.649
317.559
317.471
317.401
313.53
313.584
313.653
313.723
313.79
313.851
313.903
313.945
313.974
313.989
313.989
313.974
313.945
313.903
313.851
313.79
313.723
313.653
313.584
313.53
309.666
309.704
309.753
309.803
309.851
309.895
309.932
309.962
309.983
309.993
309.993
309.983
309.962
309.932
309.895
309.851
309.803
309.753
309.704
309.666
305.805
305.827
305.857
305.887
305.916
305.942
305.965
305.983
305.995
306.002
306.002
305.995
305.983
305.965
305.942
305.916
305.887
305.857
305.827
305.805
301.946
301.953
301.963
301.973
301.983
301.992
301.999
302.005
302.009
302.012
302.012
302.009
302.005
301.999
301.992
301.983
301.973
301.963
301.953
301.946
)
;

boundaryField
{
    hotSide
    {
        type            fixedGradient;
        gradient        nonuniform List<scalar> 
400
(
196.282
196.829
197.927
199.583
201.809
204.617
208.024
212.047
216.702
222.008
227.981
234.638
241.992
250.059
258.848
268.37
278.633
289.644
301.408
313.93
201.094
201.603
202.626
204.173
206.259
208.902
212.122
215.942
220.383
225.469
231.22
237.656
244.795
252.652
261.242
270.574
280.659
291.504
303.113
315.491
206.301
206.765
207.699
209.117
211.038
213.486
216.487
220.071
224.266
229.099
234.598
240.786
247.684
255.311
263.682
272.808
282.701
293.367
304.812
317.039
211.818
212.228
213.059
214.327
216.057
218.282
221.035
224.351
228.269
232.822
238.042
243.958
250.595
257.973
266.11
275.019
284.711
295.192
306.467
318.539
217.489
217.84
218.554
219.655
221.174
223.15
225.629
228.654
232.271
236.522
241.445
247.074
253.437
260.558
268.455
277.142
286.629
296.924
308.031
319.95
223.08
223.367
223.957
224.878
226.172
227.888
230.079
232.801
236.108
240.05
244.671
250.011
256.101
262.967
270.628
279.099
288.389
298.506
309.452
321.227
228.269
228.492
228.958
229.702
230.773
232.232
234.142
236.569
239.577
243.223
247.558
252.625
258.46
265.089
272.533
280.806
289.918
299.874
310.675
322.322
232.673
232.839
233.193
233.777
234.65
235.879
237.54
239.708
242.454
245.843
249.931
254.764
260.381
266.81
274.071
282.18
291.143
300.966
311.649
323.19
235.896
236.018
236.287
236.749
237.47
238.526
239.999
241.972
244.522
247.719
251.624
256.285
261.743
268.026
275.155
283.144
292.001
301.729
312.327
323.794
237.604
237.702
237.924
238.32
238.959
239.921
241.292
243.16
245.605
248.7
252.507
257.077
262.45
268.656
275.715
283.641
292.442
302.121
312.675
324.103
237.604
237.702
237.924
238.32
238.959
239.921
241.292
243.16
245.605
248.7
252.507
257.077
262.45
268.656
275.715
283.641
292.442
302.121
312.675
324.103
235.896
236.018
236.287
236.749
237.47
238.526
239.999
241.972
244.522
247.719
251.624
256.285
261.743
268.026
275.155
283.144
292.001
301.729
312.327
323.794
232.673
232.839
233.193
233.777
234.65
235.879
237.54
239.708
242.454
245.843
249.931
254.764
260.381
266.81
274.071
282.18
291.143
300.966
311.649
323.19
228.269
228.492
228.958
229.702
230.773
232.232
234.142
236.569
239.577
243.223
247.558
252.625
258.46
265.089
272.533
280.806
289.918
299.874
310.675
322.322
223.08
223.367
223.957
224.878
226.172
227.888
230.079
232.801
236.108
240.05
244.671
250.011
256.101
262.967
270.628
279.099
288.389
298.506
309.452
321.227
217.489
217.84
218.554
219.655
221.174
223.15
225.629
228.654
232.271
236.522
241.445
247.074
253.437
260.558
268.455
277.142
286.629
296.924
308.031
319.95
211.818
212.228
213.059
214.327
216.057
218.282
221.035
224.351
228.269
232.822
238.042
243.958
250.595
257.973
266.11
275.019
284.711
295.192
306.467
318.539
206.301
206.765
207.699
209.117
211.038
213.486
216.487
220.071
224.266
229.099
234.598
240.786
247.684
255.311
263.682
272.808
282.701
293.367
304.812
317.039
201.094
201.603
202.626
204.173
206.259
208.902
212.122
215.942
220.383
225.469
231.22
237.656
244.795
252.652
261.242
270.574
280.659
291.504
303.113
315.491
196.282
196.829
197.927
199.583
201.809
204.617
208.024
212.047
216.702
222.008
227.981
234.638
241.992
250.059
258.848
268.37
278.633
289.644
301.408
313.93
)
;
    }
    coldSide
    {
        type            mixed;
        refValue        uniform 300;
        refGradient     uniform 0;
        valueFraction   uniform 0.991591;
        source          uniform 0;
        value           nonuniform List<scalar> 
400
(
300.011
300.011
300.011
300.011
300.011
300.011
300.011
300.012
300.012
300.012
300.012
300.013
300.013
300.014
300.014
300.014
300.015
300.016
300.016
300.016
300.011
300.011
300.011
300.011
300.011
300.011
300.011
300.012
300.012
300.012
300.012