/*--------------------------------*- C++ -*----------------------------------*\
| =========                 |                                                 |
| \\      /  F ield         | OpenFOAM: The Open Source CFD Toolbox           |
|  \\    /   O peration     | Version:  2212                                  |
|   \\  /    A nd           | Website:  www.openfoam.com                      |
|    \\/     M anipulation  |                                                 |
\*---------------------------------------------------------------------------*/
FoamFile
{
    version     2.0;
    format      ascii;
    arch        "LSB;label=32;scalar=64";
    class       volScalarField;
    location    "0";
    object      Ttrue;
}
// * * * * * * * * * * * * * * * * * * * * * * * * * * * * * * * * * * * * * //

dimensions      [0 0 0 1 0 0 0];

internalField   nonuniform List<scalar> 
3200
(
345.876
346.682
347.711
348.832
349.986
351.12
352.166
353.049
353.692
354.032
354.032
353.692
353.049
352.166
351.12
349.986
348.832
347.711
346.682
345.876
339.776
340.458
341.345
342.315
343.315
344.295
345.199
345.962
346.518
346.811
346.811
346.518
345.962
345.199
344.295
343.315
342.315
341.345
340.458
339.776
333.67
334.236
334.983
335.803
336.647
337.476
338.239
338.883
339.352
339.599
339.599
339.352
338.883
338.239
337.476
336.647
335.803
334.983
334.236
333.67
327.559
328.015
328.624
329.294
329.984
330.661
331.285
331.81
332.193
332.395
332.395
332.193
331.81
331.285
330.661
329.984
329.294
328.624
328.015
327.559
321.445
321.794
322.267
322.787
323.324
323.85
324.334
324.743
325.04
325.196
325.196
325.04
324.743
324.334
323.85
323.324
322.787
322.267
321.794
321.445
315.327
315.575
315.911
316.283
316.666
317.042
317.388
317.679
317.891
318.003
318.003
317.891
317.679
317.388
317.042
316.666
316.283
315.911
315.575
315.327
309.207
309.355
309.557
309.78
310.01
310.236
310.443
310.618
310.745
310.812
310.812
310.745
310.618
310.443
310.236
310.01
309.78
309.557
309.355
309.207
303.087
303.136
303.204
303.278
303.355
303.431
303.501
303.559
303.602
303.624
303.624
303.602
303.559
303.501
303.431
303.355
303.278
303.204
303.136
303.087
346.01
346.81
347.83
348.94
350.083
351.204
352.238
353.11
353.745
354.08
354.08
353.745
353.11
352.238
351.204
350.083
348.94
347.83
346.81
346.01
339.892
340.569
341.448
342.409
343.398
344.368
345.262
346.015
346.564
346.853
346.853
346.564
346.015
345.262
344.368
343.398
342.409
341.448
340.569
339.892
333.768
334.329
335.07
335.882
336.718
337.537
338.292
338.928
339.391
339.635
339.635
339.391
338.928
338.292
337.537
336.718
335.882
335.07
334.329
333.768
327.639
328.091
328.695
329.359
330.042
330.711
331.328
331.847
332.225
332.424
332.424
332.225
331.847
331.328
330.711
330.042
329.359
328.695
328.091
327.639
321.507
321.854
322.322
322.838
323.369
323.889
324.368
324.771
325.065
325.219
325.219
325.065
324.771
324.368
323.889
323.369
322.838
322.322
321.854
321.507
315.371
315.617
315.951
316.319
316.698
317.07
317.412
317.7
317.909
318.019
318.019
317.909
317.7
317.412
317.07
316.698
316.319
315.951
315.617
315.371
309.234
309.381
309.581
309.802
310.03
310.253
310.458
310.631
310.756
310.822
310.822
310.756
310.631
310.458
310.253
310.03
309.802
309.581
309.381
309.234
303.095
303.144
303.212
303.286
303.362
303.437
303.505
303.563
303.605
303.628
303.628
303.605
303.563
303.505
303.437
303.362
303.286
303.212
303.144
303.095
346.28
347.066
348.069
349.159
350.279
351.375
352.385
353.236
353.855
354.181
354.181
353.855
353.236
352.385
351.375
350.279
349.159
348.069
347.066
346.28
340.125
340.791
341.655
342.599
343.568
344.517
345.39
346.125
346.659
346.941
346.941
346.659
346.125
345.39
344.517
343.568
342.599
341.655
340.791
340.125
333.964
334.517
335.245
336.042
336.861
337.663
338.4
339.021
339.472
339.71
339.71
339.472
339.021
338.4
337.663
336.861
336.042
335.245
334.517
333.964
327.8
328.244
328.838
329.489
330.159
330.814
331.417
331.923
332.292
332.486
332.486
332.292
331.923
331.417
330.814
330.159
329.489
328.838
328.244
327.8
321.631
321.973
322.433
322.939
323.46
323.969
324.437
324.831
325.117
325.267
325.267
325.117
324.831
324.437
323.969
323.46
322.939
322.433
321.973
321.631
315.46
315.702
316.03
316.392
316.763
317.127
317.461
317.742
317.946
318.054
318.054
317.946
317.742
317.461
317.127
316.763
316.392
316.03
315.702
315.46
309.287
309.432
309.629
309.846
310.069
310.287
310.488
310.656
310.779
310.843
310.843
310.779
310.656
310.488
310.287
310.069
309.846
309.629
309.432
309.287
303.113
303.162
303.228
303.3
303.375
303.448
303.515
303.572
303.613
303.635
303.635
303.613
303.572
303.515
303.448
303.375
303.3
303.228
303.162
303.113
346.686
347.454
348.431
349.491
350.578
351.64
352.615
353.435
354.031
354.345
354.345
354.031
353.435
352.615
351.64
350.578
349.491
348.431
347.454
346.686
340.476
341.126
341.969
342.886
343.827
344.746
345.589
346.298
346.813
347.084
347.084
346.813
346.298
345.589
344.746
343.827
342.886
341.969
341.126
340.476
334.261
334.8
335.51
336.286
337.081
337.857
338.569
339.168
339.602
339.831
339.831
339.602
339.168
338.569
337.857
337.081
336.286
335.51
334.8
334.261
328.042
328.476
329.055
329.688
330.338
330.973
331.555
332.044
332.398
332.585
332.585
332.398
332.044
331.555
330.973
330.338
329.688
329.055
328.476
328.042
321.819
322.153
322.602
323.094
323.599
324.093
324.545
324.924
325.2
325.345
325.345
325.2
324.924
324.545
324.093
323.599
323.094
322.602
322.153
321.819
315.594
315.83
316.151
316.502
316.863
317.215
317.538
317.809
318.006
318.109
318.109
318.006
317.809
317.538
317.215
316.863
316.502
316.151
315.83
315.594
309.368
309.509
309.701
309.912
310.129
310.34
310.534
310.696
310.814
310.876
310.876
310.814
310.696
310.534
310.34
310.129
309.912
309.701
309.509
309.368
303.14
303.187
303.252
303.322
303.395
303.466
303.531
303.585
303.625
303.646
303.646
303.625
303.585
303.531
303.466
303.395
303.322
303.252
303.187
303.14
347.23
347.975
348.92
349.943
350.987
352.005
352.937
353.719
354.286
354.584
354.584
354.286
353.719
352.937
352.005
350.987
349.943
348.92
347.975
347.23
340.947
341.577
342.392
343.277
344.181
345.062
345.868
346.544
347.034
347.292
347.292
347.034
346.544
345.868
345.062
344.181
343.277
342.392
341.577
340.947
334.658
335.181
335.868
336.616
337.38
338.125
338.806
339.376
339.79
340.007
340.007
339.79
339.376
338.806
338.125
337.38
336.616
335.868
335.181
334.658
328.366
328.787
329.347
329.958
330.584
331.192
331.748
332.215
332.552
332.73
332.73
332.552
332.215
331.748
331.192
330.584
329.958
329.347
328.787
328.366
322.072
322.395
322.829
323.304
323.79
324.263
324.695
325.058
325.32
325.458
325.458
325.32
325.058
324.695
324.263
323.79
323.304
322.829
322.395
322.072
315.775
316.003
316.313
316.652
316.999
317.337
317.646
317.904
318.091
318.19
318.19
318.091
317.904
317.646
317.337
316.999
316.652
316.313
316.003
315.775
309.476
309.613
309.798
310.002
310.21
310.413
310.598
310.754
310.866
310.925
310.925
310.866
310.754
310.598
310.413
310.21
310.002
309.798
309.613
309.476
303.177
303.222
303.284
303.353
303.422
303.49
303.553
303.605
303.642
303.662
303.662
303.642
303.605
303.553
303.49
303.422
303.353
303.284
303.222
303.177
347.917
348.634
349.541
350.519
351.515
352.481
353.363
354.1
354.634
354.914
354.914
354.634
354.1
353.363
352.481
351.515
350.519
349.541
348.634
347.917
341.541
342.147
342.93
343.776
344.638
345.474
346.237
346.875
347.336
347.578
347.578
347.336
346.875
346.237
345.474
344.638
343.776
342.93
342.147
341.541
335.16
335.663
336.322
337.038
337.766
338.473
339.118
339.657
340.046
340.25
340.25
340.046
339.657
339.118
338.473
337.766
337.038
336.322
335.663
335.16
328.776
329.181
329.719
330.303
330.899
331.477
332.004
332.444
332.762
332.929
332.929
332.762
332.444
332.004
331.477
330.899
330.303
329.719
329.181
328.776
322.39
322.701
323.118
323.572
324.035
324.485
324.894
325.236
325.483
325.613
325.613
325.483
325.236
324.894
324.485
324.035
323.572
323.118
322.701
322.39
316.002
316.222
316.519
316.844
317.174
317.495
317.788
318.032
318.208
318.301
318.301
318.208
318.032
317.788
317.495
317.174
316.844
316.519
316.222
316.002
309.612
309.744
309.922
310.117
310.316
310.508
310.684
310.83
310.936
310.992
310.992
310.936
310.83
310.684
310.508
310.316
310.117
309.922
309.744
309.612
303.222
303.266
303.326
303.391
303.458
303.522
303.581
303.63
303.666
303.684
303.684
303.666
303.63
303.581
303.522
303.458
303.391
303.326
303.266
303.222
348.75
349.435
350.299
351.227
352.168
353.077
353.904
354.594
355.09
355.351
355.351
355.09
354.594
353.904
353.077
352.168
351.227
350.299
349.435
348.75
342.26
342.84
343.586
344.389
345.204
345.991
346.707
347.303
347.732
347.958
347.958
347.732
347.303
346.707
345.991
345.204
344.389
343.586
342.84
342.26
335.767
336.249
336.877
337.556
338.245
338.91
339.515
340.019
340.382
340.572
340.572
340.382
340.019
339.515
338.91
338.245
337.556
336.877
336.249
335.767
329.272
329.66
330.172
330.727
331.29
331.834
332.329
332.74
333.037
333.192
333.192
333.037
332.74
332.329
331.834
331.29
330.727
330.172
329.66
329.272
322.775
323.073
323.47
323.901
324.34
324.763
325.147
325.467
325.697
325.818
325.818
325.697
325.467
325.147
324.763
324.34
323.901
323.47
323.073
322.775
316.277
316.487
316.771
317.079
317.392
317.694
317.968
318.197
318.361
318.447
318.447
318.361
318.197
317.968
317.694
317.392
317.079
316.771
316.487
316.277
309.778
309.903
310.073
310.258
310.446
310.627
310.792
310.929
311.028
311.08
311.08
311.028
310.929
310.792
310.627
310.446
310.258
310.073
309.903
309.778
303.278
303.32
303.377
303.439
303.501
303.562
303.618
303.663
303.697
303.714
303.714
303.697
303.663
303.618
303.562
303.501
303.439
303.377
303.32
303.278
349.731
350.382
351.2
352.075
352.957
353.806
354.575
355.214
355.673
355.913
355.913
355.673
355.214
354.575
353.806
352.957
352.075
351.2
350.382
349.731
343.109
343.66
344.365
345.122
345.887
346.622
347.288
347.84
348.237
348.445
348.445
348.237
347.84
347.288
346.622
345.887
345.122
344.365
343.66
343.109
336.484
336.941
337.536
338.176
338.822
339.444
340.007
340.473
340.809
340.985
340.985
340.809
340.473
340.007
339.444
338.822
338.176
337.536
336.941
336.484
329.858
330.226
330.711
331.234
331.763
332.271
332.731
333.112
333.386
333.53
333.53
333.386
333.112
332.731
332.271
331.763
331.234
330.711
330.226
329.858
323.23
323.513
323.889
324.296
324.707
325.102
325.46
325.756
325.969
326.081
326.081
325.969
325.756
325.46
325.102
324.707
324.296
323.889
323.513
323.23
316.602
316.802
317.07
317.36
317.654
317.936
318.192
318.403
318.556
318.635
318.635
318.556
318.403
318.192
317.936
317.654
317.36
317.07
316.802
316.602
309.973
310.092
310.253
310.427
310.603
310.773
310.926
311.053
311.145
311.193
311.193
311.145
311.053
310.926
310.773
310.603
310.427
310.253
310.092
309.973
303.343
303.383
303.437
303.495
303.554
303.611
303.662
303.705
303.736
303.752
303.752
303.736
303.705
303.662
303.611
303.554
303.495
303.437
303.383
303.343
350.865
351.48
352.25
353.069
353.891
354.678
355.388
355.975
356.396
356.616
356.616
356.396
355.975
355.388
354.678
353.891
353.069
352.25
351.48
350.865
344.089
344.61
345.274
345.983
346.695
347.377
347.991
348.499
348.864
349.054
349.054
348.864
348.499
347.991
347.377
346.695
345.983
345.274
344.61
344.089
337.312
337.744
338.304
338.903
339.506
340.082
340.602
341.031
341.339
341.5
341.5
341.339
341.031
340.602
340.082
339.506
338.903
338.304
337.744
337.312
330.534
330.882
331.338
331.828
332.321
332.793
333.218
333.569
333.82
333.951
333.951
333.82
333.569
333.218
332.793
332.321
331.828
331.338
330.882
330.534
323.756
324.023
324.377
324.758
325.141
325.508
325.838
326.111
326.306
326.409
326.409
326.306
326.111
325.838
325.508
325.141
324.758
324.377
324.023
323.756
316.977
317.166
317.418
317.69
317.964
318.226
318.462
318.657
318.797
318.87
318.87
318.797
318.657
318.462
318.226
317.964
317.69
317.418
317.166
316.977
310.198
310.311
310.462
310.625
310.79
310.947
311.089
311.206
311.29
311.333
311.333
311.29
311.206
311.089
310.947
310.79
310.625
310.462
310.311
310.198
303.418
303.456
303.507
303.562
303.617
303.669
303.717
303.756
303.784
303.799
303.799
303.784
303.756
303.717
303.669
303.617
303.562
303.507
303.456
303.418
352.156
352.734
353.454
354.216
354.978
355.703
356.354
356.89
357.273
357.473
357.473
357.273
356.89
356.354
355.703
354.978
354.216
353.454
352.734
352.156
345.206
345.695
346.316
346.976
347.636
348.264
348.828
349.292
349.624
349.797
349.797
349.624
349.292
348.828
348.264
347.636
346.976
346.316
345.695
345.206
338.255
338.661
339.184
339.742
340.301
340.832
341.309
341.701
341.982
342.128
342.128
341.982
341.701
341.309
340.832
340.301
339.742
339.184
338.661
338.255
331.305
331.631
332.058
332.515
332.971
333.406
333.796
334.117
334.346
334.465
334.465
334.346
334.117
333.796
333.406
332.971
332.515
332.058
331.631
331.305
324.355
324.605
324.936
325.291
325.646
325.984
326.288
326.537
326.715
326.808
326.808
326.715
326.537
326.288
325.984
325.646
325.291
324.936
324.605
324.355
317.404
317.582
317.818
318.071
318.325
318.567
318.783
318.961
319.089
319.155
319.155
319.089
318.961
318.783
318.567
318.325
318.071
317.818
317.582
317.404
310.454
310.56
310.702
310.854
311.006
311.152
311.282
311.389
311.465
311.505
311.505
311.465
311.389
311.282
311.152
311.006
310.854
310.702
310.56
310.454
303.504
303.54
303.587
303.638
303.689
303.738
303.782
303.817
303.843
303.856
303.856
303.843
303.817
303.782
303.738
303.689
303.638
303.587
303.54
303.504
353.607
354.147
354.818
355.524
356.226
356.89
357.484
357.971
358.317
358.498
358.498
358.317
357.971
357.484
356.89
356.226
355.524
354.818
354.147
353.607
346.461
346.918
347.496
348.108
348.716
349.292
349.806
350.228
350.528
350.684
350.684
350.528
350.228
349.806
349.292
348.716
348.108
347.496
346.918
346.461
339.315
339.695
340.182
340.699
341.213
341.701
342.136
342.492
342.746
342.878
342.878
342.746
342.492
342.136
341.701
341.213
340.699
340.182
339.695
339.315
332.171
332.476
332.874
333.296
333.717
334.116
334.472
334.763
334.971
335.079
335.079
334.971
334.763
334.472
334.116
333.717
333.296
332.874
332.476
332.171
325.028
325.262
325.57
325.899
326.226
326.536
326.813
327.04
327.201
327.285
327.285
327.201
327.04
326.813
326.536
326.226
325.899
325.57
325.262
325.028
317.885
318.051
318.271
318.505
318.739
318.961
319.159
319.321
319.436
319.496
319.496
319.436
319.321
319.159
318.961
318.739
318.505
318.271
318.051
317.885
310.743
310.842
310.974
311.115
311.255
311.388
311.507
311.604
311.673
311.71
311.71
311.673
311.604
311.507
311.388
311.255
311.115
310.974
310.842
310.743
303.601
303.634
303.678
303.726
303.773
303.817
303.857
303.89
303.913
303.925
303.925
303.913
303.89
303.857
303.817
303.773
303.726
303.678
303.634
303.601
355.222
355.725
356.346
356.997
357.641
358.247
358.786
359.226
359.538
359.701
359.701
359.538
359.226
358.786
358.247
357.641
356.997
356.346
355.725
355.222
347.857
348.283
348.819
349.383
349.941
350.466
350.933
351.314
351.585
351.726
351.726
351.585
351.314
350.933
350.466
349.941
349.383
348.819
348.283
347.857
340.495
340.848
341.3
341.777
342.249
342.693
343.088
343.411
343.64
343.759
343.759
343.64
343.411
343.088
342.693
342.249
341.777
341.3
340.848
340.495
333.135
333.419
333.788
334.177
334.564
334.927
335.251
335.514
335.702
335.799
335.799
335.702
335.514
335.251
334.927
334.564
334.177
333.788
333.419
333.135
325.777
325.995
326.281
326.584
326.884
327.167
327.419
327.624
327.769
327.845
327.845
327.769
327.624
327.419
327.167
326.884
326.584
326.281
325.995
325.777
318.42
318.574
318.778
318.994
319.209
319.411
319.591
319.738
319.842
319.896
319.896
319.842
319.738
319.591
319.411
319.209
318.994
318.778
318.574
318.42
311.064
311.156
311.278
311.408
311.537
311.659
311.767
311.855
311.917
311.95
311.95
311.917
311.855
311.767
311.659
311.537
311.408
311.278
311.156
311.064
303.709
303.739
303.78
303.824
303.867
303.908
303.944
303.974
303.995
304.005
304.005
303.995
303.974
303.944
303.908
303.867
303.824
303.78
303.739
303.709
357.002
357.469
358.043
358.641
359.229
359.78
360.267
360.663
360.944
361.089
361.089
360.944
360.663
360.267
359.78
359.229
358.641
358.043
357.469
357.002
349.397
349.792
350.287
350.805
351.315
351.793
352.215
352.558
352.801
352.927
352.927
352.801
352.558
352.215
351.793
351.315
350.805
350.287
349.792
349.397
341.796
342.123
342.541
342.979
343.41
343.814
344.172
344.462
344.668
344.774
344.774
344.668
344.462
344.172
343.814
343.41
342.979
342.541
342.123
341.796
334.198
334.461
334.802
335.16
335.513
335.844
336.136
336.374
336.542
336.629
336.629
336.542
336.374
336.136
335.844
335.513
335.16
334.802
334.461
334.198
326.603
326.805
327.069
327.348
327.622
327.879
328.107
328.292
328.423
328.49
328.49
328.423
328.292
328.107
327.879
327.622
327.348
327.069
326.805
326.603
319.009
319.153
319.341
319.54
319.736
319.92
320.083
320.215
320.308
320.357
320.357
320.308
320.215
320.083
319.92
319.736
319.54
319.341
319.153
319.009
311.418
311.503
311.616
311.736
311.854
311.964
312.062
312.141
312.197
312.226
312.226
312.197
312.141
312.062
311.964
311.854
311.736
311.616
311.503
311.418
303.827
303.856
303.894
303.934
303.973
304.01
304.043
304.07
304.088
304.098
304.098
304.088
304.07
304.043
304.01
303.973
303.934
303.894
303.856
303.827
358.95
359.382
359.91
360.458
360.993
361.492
361.931
362.287
362.538
362.668
362.668
362.538
362.287
361.931
361.492
360.993
360.458
359.91
359.382
358.95
351.082
351.447
351.903
352.377
352.842
353.274
353.655
353.963
354.181
354.294
354.294
354.181
353.963
353.655
353.274
352.842
352.377
351.903
351.447
351.082
343.219
343.522
343.906
344.307
344.7
345.066
345.389
345.65
345.834
345.929
345.929
345.834
345.65
345.389
345.066
344.7
344.307
343.906
343.522
343.219
335.361
335.604
335.918
336.246
336.567
336.867
337.131
337.344
337.495
337.573
337.573
337.495
337.344
337.131
336.867
336.567
336.246
335.918
335.604
335.361
327.506
327.693
327.936
328.191
328.441
328.675
328.88
329.046
329.163
329.224
329.224
329.163
329.046
328.88
328.675
328.441
328.191
327.936
327.693
327.506
319.655
319.787
319.96
320.142
320.321
320.488
320.635
320.753
320.837
320.88
320.88
320.837
320.753
320.635
320.488
320.321
320.142
319.96
319.787
319.655
311.805
311.884
311.988
312.098
312.205
312.305
312.393
312.464
312.515
312.541
312.541
312.515
312.464
312.393
312.305
312.205
312.098
311.988
311.884
311.805
303.957
303.983
304.018
304.055
304.091
304.125
304.154
304.178
304.195
304.204
304.204
304.195
304.178
304.154
304.125
304.091
304.055
304.018
303.983
303.957
361.064
361.462
361.947
362.447
362.934
363.385
363.78
364.098
364.323
364.439
364.439
364.323
364.098
363.78
363.385
362.934
362.447
361.947
361.462
361.064
352.91
353.247
353.665
354.098
354.52
354.911
355.254
355.53
355.724
355.825
355.825
355.724
355.53
355.254
354.911
354.52
354.098
353.665
353.247
352.91
344.762
345.042
345.394
345.761
346.118
346.449
346.739
346.973
347.137
347.222
347.222
347.137
346.973
346.739
346.449
346.118
345.761
345.394
345.042
344.762
336.621
336.846
337.134
337.434
337.726
337.997
338.234
338.426
338.56
338.63
338.63
338.56
338.426
338.234
337.997
337.726
337.434
337.134
336.846
336.621
328.486
328.658
328.881
329.114
329.342
329.553
329.737
329.886
329.991
330.045
330.045
329.991
329.886
329.737
329.553
329.342
329.114
328.881
328.658
328.486
320.354
320.476
320.635
320.801
320.964
321.115
321.247
321.353
321.428
321.467
321.467
321.428
321.353
321.247
321.115
320.964
320.801
320.635
320.476
320.354
312.225
312.298
312.393
312.493
312.591
312.681
312.761
312.825
312.87
312.893
312.893
312.87
312.825
312.761
312.681
312.591
312.493
312.393
312.298
312.225
304.098
304.122
304.154
304.188
304.22
304.251
304.277
304.299
304.314
304.322
304.322
304.314
304.299
304.277
304.251
304.22
304.188
304.154
304.122
304.098
363.336
363.702
364.146
364.602
365.043
365.45
365.805
366.091
366.291
366.394
366.394
366.291
366.091
365.805
365.45
365.043
364.602
364.146
363.702
363.336
354.872
355.182
355.566
355.961
356.343
356.696
357.004
357.252
357.425
357.515
357.515
357.425
357.252
357.004
356.696
356.343
355.961
355.566
355.182
354.872
346.419
346.676
346.999
347.333
347.657
347.956
348.217
348.426
348.573
348.649
348.649
348.573
348.426
348.217
347.956
347.657
347.333
346.999
346.676
346.419
337.974
338.181
338.444
338.718
338.983
339.227
339.441
339.612
339.732
339.794
339.794
339.732
339.612
339.441
339.227
338.983
338.718
338.444
338.181
337.974
329.536
329.694
329.899
330.112
330.318
330.508
330.674
330.808
330.901
330.95
330.95
330.901
330.808
330.674
330.508
330.318
330.112
329.899
329.694
329.536
321.103
321.215
321.361
321.513
321.661
321.797
321.915
322.011
322.078
322.112
322.112
322.078
322.011
321.915
321.797
321.661
321.513
321.361
321.215
321.103
312.675
312.742
312.829
312.92
313.009
313.091
313.162
313.219
313.259
313.28
313.28
313.259
313.219
313.162
313.091
313.009
312.92
312.829
312.742
312.675
304.248
304.271
304.3
304.331
304.36
304.388
304.412
304.431
304.444
304.451
304.451
304.444
304.431
304.412
304.388
304.36
304.331
304.3
304.271
304.248
365.742
366.079
366.485
366.901
367.3
367.667
367.986
368.242
368.42
368.512
368.512
368.42
368.242
367.986
367.667
367.3
366.901
366.485
366.079
365.742
356.947
357.232
357.584
357.944
358.29
358.609
358.885
359.107
359.262
359.342
359.342
359.262
359.107
358.885
358.609
358.29
357.944
357.584
357.232
356.947
348.167
348.403
348.699
349.004
349.298
349.567
349.802
349.989
350.12
350.188
350.188
350.12
349.989
349.802
349.567
349.298
349.004
348.699
348.403
348.167
339.399
339.589
339.831
340.08
340.32
340.541
340.733
340.887
340.994
341.049
341.049
340.994
340.887
340.733
340.541
340.32
340.08
339.831
339.589
339.399
330.641
330.787
330.974
331.168
331.355
331.527
331.677
331.796
331.88
331.923
331.923
331.88
331.796
331.677
331.527
331.355
331.168
330.974
330.787
330.641
321.891
321.994
322.128
322.267
322.4
322.523
322.63
322.715
322.775
322.806
322.806
322.775
322.715
322.63
322.523
322.4
322.267
322.128
321.994
321.891
313.147
313.209
313.289
313.372
313.452
313.526
313.59
313.642
313.678
313.696
313.696
313.678
313.642
313.59
313.526
313.452
313.372
313.289
313.209
313.147
304.407
304.427
304.454
304.482
304.509
304.534
304.555
304.572
304.584
304.591
304.591
304.584
304.572
304.555
304.534
304.509
304.482
304.454
304.427
304.407
368.22
368.53
368.903
369.281
369.644
369.976
370.263
370.493
370.652
370.735
370.735
370.652
370.493
370.263
369.976
369.644
369.281
368.903
368.53
368.22
359.075
359.337
359.659
359.988
360.303
360.591
360.84
361.039
361.178
361.249
361.249
361.178
361.039
360.84
360.591
360.303
359.988
359.659
359.337
359.075
349.953
350.17
350.442
350.72
350.987
351.231
351.442
351.611
351.728
351.789
351.789
351.728
351.611
351.442
351.231
350.987
350.72
350.442
350.17
349.953
340.849
341.024
341.246
341.474
341.692
341.892
342.065
342.203
342.3
342.349
342.349
342.3
342.203
342.065
341.892
341.692
341.474
341.246
341.024
340.849
331.763
331.897
332.069
332.246
332.416
332.572
332.707
332.814
332.889
332.928
332.928
332.889
332.814
332.707
332.572
332.416
332.246
332.069
331.897
331.763
322.689
322.784
322.907
323.033
323.155
323.266
323.363
323.44
323.493
323.521
323.521
323.493
323.44
323.363
323.266
323.155
323.033
322.907
322.784
322.689
313.625
313.682
313.755
313.831
313.904
313.971
314.029
314.075
314.108
314.124
314.124
314.108
314.075
314.029
313.971
313.904
313.831
313.755
313.682
313.625
304.567
304.586
304.61
304.636
304.66
304.683
304.702
304.718
304.728
304.734
304.734
304.728
304.718
304.702
304.683
304.66
304.636
304.61
304.586
304.567
370.611
370.898
371.241
371.59
371.922
372.224
372.485
372.692
372.837
372.911
372.911
372.837
372.692
372.485
372.224
371.922
371.59
371.241
370.898
370.611
361.103
361.346
361.643
361.945
362.234
362.497
362.724
362.904
363.03
363.094
363.094
363.03
362.904
362.724
362.497
362.234
361.945
361.643
361.346
361.103
351.636
351.837
352.088
352.344
352.589
352.812
353.005
353.158
353.264
353.319
353.319
353.264
353.158
353.005
352.812
352.589
352.344
352.088
351.837
351.636
342.204
342.366
342.571
342.781
342.982
343.165
343.323
343.448
343.536
343.58
343.58
343.536
343.448
343.323
343.165
342.982
342.781
342.571
342.366
342.204
332.802
332.927
333.086
333.25
333.406
333.549
333.672
333.769
333.838
333.873
333.873
333.838
333.769
333.672
333.549
333.406
333.25
333.086
332.927
332.802
323.424
323.513
323.626
323.743
323.855
323.957
324.045
324.115
324.164
324.189
324.189
324.164
324.115
324.045
323.957
323.855
323.743
323.626
323.513
323.424
314.063
314.116
314.184
314.255
314.322
314.383
314.436
314.478
314.508
314.523
314.523
314.508
314.478
314.436
314.383
314.322
314.255
314.184
314.116
314.063
304.713
304.731
304.754
304.777
304.8
304.82
304.838
304.852
304.862
304.867
304.867
304.862
304.852
304.838
304.82
304.8
304.777
304.754
304.731
304.713
372.493
372.762
373.086
373.412
373.723
374.005
374.247
374.44
374.574
374.642
374.642
374.574
374.44
374.247
374.005
373.723
373.412
373.086
372.762
372.493
362.638
362.867
363.148
363.432
363.703
363.949
364.161
364.329
364.445
364.505
364.505
364.445
364.329
364.161
363.949
363.703
363.432
363.148
362.867
362.638
352.871
353.061
353.298
353.54
353.77
353.98
354.16
354.303
354.402
354.453
354.453
354.402
354.303
354.16
353.98
353.77
353.54
353.298
353.061
352.871
343.173
343.327
343.521
343.72
343.909
344.081
344.229
344.346
344.428
344.47
344.47
344.428
344.346
344.229
344.081
343.909
343.72
343.521
343.327
343.173
333.532
333.65
333.801
333.956
334.104
334.238
334.354
334.445
334.509
334.542
334.542
334.509
334.445
334.354
334.238
334.104
333.956
333.801
333.65
333.532
323.933
324.017
324.125
324.236
324.342
324.438
324.521
324.586
324.632
324.656
324.656
324.632
324.586
324.521
324.438
324.342
324.236
324.125
324.017
323.933
314.364
314.414
314.479
314.546
314.61
314.667
314.717
314.757
314.784
314.798
314.798
314.784
314.757
314.717
314.667
314.61
314.546
314.479
314.414
314.364
304.813
304.83
304.852
304.874
304.895
304.915
304.931
304.945
304.954
304.959
304.959
304.954
304.945
304.931
304.915
304.895
304.874
304.852
304.83
304.813
)
;

boundaryField
{
    hotSide
    {
        type            fixedGradient;
        gradient        nonuniform List<scalar> 
400
(
487.45
488.919
491.865
496.306
502.264
509.771
518.859
529.568
541.934
555.998
571.796
589.363
608.733
629.934
652.992
677.927
704.76
733.504
764.171
796.77
498.052
499.437
502.218
506.419
512.07
519.212
527.889
538.15
550.046
563.624
578.932
596.014
614.908
635.649
658.266
682.784
709.224
737.6
767.926
800.209
509.525
510.81
513.395
517.311
522.599
529.311
537.507
547.249
558.601
571.624
586.376
602.911
621.274
641.507
663.642
687.707
713.723
741.707
771.67
803.62
521.681
522.849
525.206
528.791
533.659
539.879
547.526
556.68
567.421
579.826
593.964
609.9
627.687
647.372
668.993
692.578
718.151
745.726
775.316
806.926
534.178
535.215
537.315
540.531
544.932
550.606
557.649
566.16
576.239
587.979
601.463
616.766
633.95
653.067
674.159
697.255
722.378
749.544
778.762
810.035
546.496
547.392
549.219
552.04
555.946
561.045
567.454
575.298
584.693
595.752
608.571
623.237
639.819
658.375
678.947
701.567
726.257
753.03
781.893
812.848
557.929
558.685
560.239
562.669
566.084
570.616
576.407
583.601
592.337
602.743
614.932
628.997
645.017
663.051
683.144
705.329
729.625
756.044
784.589
815.26
567.633
568.263
569.57
571.649
574.626
578.653
583.895
590.517
598.677
608.516
620.16
633.71
649.251
666.843
686.534
708.355
732.324
758.45
786.735
817.174
574.735
575.267
576.387
578.197
580.84
584.484
589.312
595.504
603.232
612.65
623.891
637.062
652.251
669.522
688.922
710.48
734.213
760.13
788.229
818.503
578.498
578.977
579.994
581.658
584.12
587.557
592.161
598.122
605.619
614.811
625.836
638.806
653.809
670.91
690.156
711.576
735.187
760.994
788.996
819.185
578.498
578.977
579.994
581.658
584.12
587.557
592.161
598.122
605.619
614.811
625.836
638.806
653.809
670.91
690.156
711.576
735.187
760.994
788.996
819.185
574.735
575.267
576.387
578.197
580.84
584.484
589.312
595.504
603.232
612.65
623.891
637.062
652.251
669.522
688.922
710.48
734.213
760.13
788.229
818.503
567.633
568.263
569.57
571.649
574.626
578.653
583.895
590.517
598.677
608.516
620.16
633.71
649.251
666.843
686.534
708.355
732.324
758.45
786.735
817.174
557.929
558.685
560.239
562.669
566.084
570.616
576.407
583.601
592.337
602.743
614.932
628.997
645.017
663.051
683.144
705.329
729.625
756.044
784.589
815.26
546.496
547.392
549.219
552.04
555.946
561.045
567.454
575.298
584.693
595.752
608.571
623.237
639.819
658.375
678.947
701.567
726.257
753.03
781.893
812.848
534.178
535.215
537.315
540.531
544.932
550.606
557.649
566.16
576.239
587.979
601.463
616.766
633.95
653.067
674.159
697.255
722.378
749.544
778.762
810.035
521.681
522.849
525.206
528.791
533.659
539.879
547.526
556.68
567.421
579.826
593.964
609.9
627.687
647.372
668.993
692.578
718.151
745.726
775.316
806.926
509.525
510.81
513.395
517.311
522.599
529.311
537.507
547.249
558.601
571.624
586.376
602.911
621.274
641.507
663.642
687.707
713.723
741.707
771.67
803.62
498.052
499.437
502.218
506.419
512.07
519.212
527.889
538.15
550.046
563.624
578.932
596.014
614.908
635.649
658.266
682.784
709.224
737.6
767.926
800.209
487.45
488.919
491.865
496.306
502.264
509.771
518.859
529.568
541.934
555.998
571.796
589.363
608.733
629.934
652.992
677.927
704.76
733.504
764.171
796.77
)
;
    }
    coldSide
    {
        type            mixed;
        refValue        uniform 300;
        refGradient     uniform 0;
        valueFraction   uniform 0.991591;
        source          uniform 0;
        value           nonuniform List<scalar> 
400
(
300.026
300.026
300.026
300.026
300.027
300.027
300.028
300.028
300.029
300.029
300.03
300.031
300.032
300.033
300.034
300.036
300.037
300.038
300.04
300.04
300.026
300.026
300.027
300.027
300.027
300.027
300.028
300.028
300.029
300.03
300.031
300.031
300.032
300.033
300.035
300.036
300.037
300.039