/*--------------------------------*- C++ -*----------------------------------*\
| =========                 |                                                 |
| \\      /  F ield         | OpenFOAM: The Open Source CFD Toolbox           |
|  \\    /   O peration     | Version:  2212                                  |
|   \\  /    A nd           | Website:  www.openfoam.com                      |
|    \\/     M anipulation  |                                                 |
\*---------------------------------------------------------------------------*/
FoamFile
{
    version     2.0;
    format      ascii;
    arch        "LSB;label=32;scalar=64";
    class       volScalarField;
    location    "0";
    object      Tdirect;
}
// * * * * * * * * * * * * * * * * * * * * * * * * * * * * * * * * * * * * * //

dimensions      [0 0 0 1 0 0 0];

internalField   nonuniform List<scalar> 
3200
(
319.447
319.824
320.305
320.829
321.369
321.899
322.388
322.801
323.102
323.261
323.261
323.102
322.801
322.388
321.899
321.369
320.829
320.305
319.824
319.447
316.915
317.234
317.649
318.103
318.57
319.029
319.452
319.808
320.068
320.205
320.205
320.068
319.808
319.452
319.029
318.57
318.103
317.649
317.234
316.915
314.358
314.623
314.972
315.356
315.751
316.138
316.495
316.796
317.015
317.131
317.131
317.015
316.796
316.495
316.138
315.751
315.356
314.972
314.623
314.358
311.779
311.992
312.277
312.591
312.913
313.23
313.522
313.768
313.947
314.041
314.041
313.947
313.768
313.522
313.23
312.913
312.591
312.277
311.992
311.779
309.183
309.346
309.567
309.811
310.062
310.308
310.534
310.725
310.864
310.938
310.938
310.864
310.725
310.534
310.308
310.062
309.811
309.567
309.346
309.183
306.572
306.688
306.846
307.02
307.199
307.374
307.536
307.672
307.772
307.824
307.824
307.772
307.672
307.536
307.374
307.199
307.02
306.846
306.688
306.572
303.952
304.021
304.116
304.22
304.327
304.433
304.53
304.612
304.671
304.703
304.703
304.671
304.612
304.53
304.433
304.327
304.22
304.116
304.021
303.952
301.325
301.349
301.38
301.415
301.451
301.487
301.519
301.546
301.566
301.577
301.577
301.566
301.546
301.519
301.487
301.451
301.415
301.38
301.349
301.325
319.5
319.874
320.351
320.87
321.405
321.929
322.412
322.82
323.117
323.274
323.274
323.117
322.82
322.412
321.929
321.405
320.87
320.351
319.874
319.5
316.961
317.278
317.689
318.139
318.601
319.055
319.473
319.825
320.082
320.217
320.217
320.082
319.825
319.473
319.055
318.601
318.139
317.689
317.278
316.961
314.397
314.66
315.006
315.386
315.777
316.16
316.513
316.811
317.027
317.141
317.141
317.027
316.811
316.513
316.16
315.777
315.386
315.006
314.66
314.397
311.811
312.023
312.305
312.616
312.935
313.248
313.537
313.78
313.956
314.049
314.049
313.956
313.78
313.537
313.248
312.935
312.616
312.305
312.023
311.811
309.208
309.37
309.589
309.83
310.079
310.322
310.546
310.735
310.872
310.944
310.944
310.872
310.735
310.546
310.322
310.079
309.83
309.589
309.37
309.208
306.59
306.705
306.861
307.034
307.211
307.385
307.545
307.679
307.777
307.829
307.829
307.777
307.679
307.545
307.385
307.211
307.034
306.861
306.705
306.59
303.963
304.031
304.125
304.228
304.335
304.439
304.535
304.616
304.675
304.706
304.706
304.675
304.616
304.535
304.439
304.335
304.228
304.125
304.031
303.963
301.329
301.352
301.383
301.418
301.454
301.489
301.521
301.548
301.568
301.578
301.578
301.568
301.548
301.521
301.489
301.454
301.418
301.383
301.352
301.329
319.607
319.975
320.443
320.953
321.477
321.99
322.462
322.86
323.15
323.302
323.302
323.15
322.86
322.462
321.99
321.477
320.953
320.443
319.975
319.607
317.054
317.365
317.77
318.211
318.664
319.108
319.516
319.86
320.11
320.242
320.242
320.11
319.86
319.516
319.108
318.664
318.211
317.77
317.365
317.054
314.476
314.734
315.075
315.448
315.831
316.206
316.551
316.841
317.052
317.163
317.163
317.052
316.841
316.551
316.206
315.831
315.448
315.075
314.734
314.476
311.876
312.084
312.362
312.666
312.979
313.286
313.568
313.805
313.977
314.068
314.068
313.977
313.805
313.568
313.286
312.979
312.666
312.362
312.084
311.876
309.258
309.418
309.633
309.87
310.113
310.351
310.57
310.754
310.888
310.959
310.959
310.888
310.754
310.57
310.351
310.113
309.87
309.633
309.418
309.258
306.626
306.739
306.893
307.062
307.236
307.406
307.562
307.693
307.789
307.839
307.839
307.789
307.693
307.562
307.406
307.236
307.062
306.893
306.739
306.626
303.984
304.052
304.144
304.245
304.35
304.452
304.546
304.624
304.682
304.712
304.712
304.682
304.624
304.546
304.452
304.35
304.245
304.144
304.052
303.984
301.336
301.359
301.39
301.424
301.459
301.493
301.524
301.551
301.57
301.58
301.58
301.57
301.551
301.524
301.493
301.459
301.424
301.39
301.359
301.336
319.768
320.127
320.584
321.08
321.588
322.085
322.541
322.924
323.203
323.35
323.35
323.203
322.924
322.541
322.085
321.588
321.08
320.584
320.127
319.768
317.194
317.498
317.892
318.321
318.761
319.191
319.585
319.917
320.158
320.284
320.284
320.158
319.917
319.585
319.191
318.761
318.321
317.892
317.498
317.194
314.594
314.847
315.179
315.541
315.913
316.276
316.61
316.89
317.093
317.2
317.2
317.093
316.89
316.61
316.276
315.913
315.541
315.179
314.847
314.594
311.973
312.176
312.447
312.743
313.047
313.344
313.616
313.845
314.011
314.098
314.098
314.011
313.845
313.616
313.344
313.047
312.743
312.447
312.176
311.973
309.334
309.49
309.7
309.93
310.166
310.397
310.609
310.786
310.915
310.983
310.983
310.915
310.786
310.609
310.397
310.166
309.93
309.7
309.49
309.334
306.68
306.791
306.941
307.105
307.274
307.438
307.589
307.716
307.808
307.857
307.857
307.808
307.716
307.589
307.438
307.274
307.105
306.941
306.791
306.68
304.017
304.083
304.173
304.271
304.373
304.471
304.562
304.638
304.693
304.722
304.722
304.693
304.638
304.562
304.471
304.373
304.271
304.173
304.083
304.017
301.347
301.369
301.399
301.432
301.466
301.499
301.53
301.555
301.574
301.584
301.584
301.574
301.555
301.53
301.499
301.466
301.432
301.399
301.369
301.347
319.984
320.332
320.774
321.252
321.741
322.217
322.653
323.019
323.284
323.423
323.423
323.284
323.019
322.653
322.217
321.741
321.252
320.774
320.332
319.984
317.382
317.677
318.058
318.472
318.895
319.307
319.684
320
320.229
320.349
320.349
320.229
320
319.684
319.307
318.895
318.472
318.058
317.677
317.382
314.754
314.998
315.32
315.669
316.027
316.375
316.694
316.961
317.154
317.256
317.256
317.154
316.961
316.694
316.375
316.027
315.669
315.32
314.998
314.754
312.104
312.301
312.563
312.848
313.141
313.425
313.686
313.904
314.062
314.145
314.145
314.062
313.904
313.686
313.425
313.141
312.848
312.563
312.301
312.104
309.436
309.587
309.79
310.012
310.239
310.461
310.663
310.832
310.955
311.019
311.019
310.955
310.832
310.663
310.461
310.239
310.012
309.79
309.587
309.436
306.753
306.86
307.005
307.164
307.326
307.484
307.628
307.749
307.837
307.883
307.883
307.837
307.749
307.628
307.484
307.326
307.164
307.005
306.86
306.753
304.061
304.125
304.211
304.307
304.404
304.499
304.586
304.658
304.711
304.738
304.738
304.711
304.658
304.586
304.499
304.404
304.307
304.211
304.125
304.061
301.362
301.383
301.412
301.444
301.477
301.509
301.538
301.562
301.58
301.589
301.589
301.58
301.562
301.538
301.509
301.477
301.444
301.412
301.383
301.362
320.257
320.592
321.017
321.474
321.94
322.391
322.804
323.149
323.398
323.529
323.529
323.398
323.149
322.804
322.391
321.94
321.474
321.017
320.592
320.257
317.619
317.903
318.269
318.665
319.068
319.459
319.816
320.114
320.33
320.443
320.443
320.33
320.114
319.816
319.459
319.068
318.665
318.269
317.903
317.619
314.955
315.191
315.499
315.833
316.174
316.505
316.806
317.058
317.24
317.336
317.336
317.24
317.058
316.806
316.505
316.174
315.833
315.499
315.191
314.955
312.269
312.458
312.71
312.983
313.262
313.532
313.779
313.984
314.133
314.211
314.211
314.133
313.984
313.779
313.532
313.262
312.983
312.71
312.458
312.269
309.564
309.71
309.905
310.117
310.334
310.544
310.736
310.895
311.011
311.072
311.072
311.011
310.895
310.736
310.544
310.334
310.117
309.905
309.71
309.564
306.845
306.948
307.087
307.239
307.394
307.544
307.681
307.795
307.877
307.921
307.921
307.877
307.795
307.681
307.544
307.394
307.239
307.087
306.948
306.845
304.116
304.177
304.261
304.352
304.445
304.535
304.617
304.686
304.735
304.761
304.761
304.735
304.686
304.617
304.535
304.445
304.352
304.261
304.177
304.116
301.38
301.401
301.429
301.459
301.491
301.521
301.548
301.571
301.588
301.597
301.597
301.588
301.571
301.548
301.521
301.491
301.459
301.429
301.401
301.38
320.589
320.909
321.313
321.748
322.188
322.613
323
323.322
323.554
323.676
323.676
323.554
323.322
323
322.613
322.188
321.748
321.313
320.909
320.589
317.907
318.179
318.527
318.903
319.284
319.652
319.987
320.266
320.467
320.572
320.572
320.467
320.266
319.987
319.652
319.284
318.903
318.527
318.179
317.907
315.2
315.425
315.718
316.036
316.358
316.669
316.952
317.188
317.358
317.447
317.447
317.358
317.188
316.952
316.669
316.358
316.036
315.718
315.425
315.2
312.469
312.65
312.89
313.149
313.413
313.667
313.899
314.091
314.23
314.303
314.303
314.23
314.091
313.899
313.667
313.413
313.149
312.89
312.65
312.469
309.72
309.859
310.045
310.247
310.452
310.65
310.829
310.979
311.087
311.143
311.143
311.087
310.979
310.829
310.65
310.452
310.247
310.045
309.859
309.72
306.957
307.055
307.188
307.332
307.478
307.62
307.748
307.855
307.932
307.972
307.972
307.932
307.855
307.748
307.62
307.478
307.332
307.188
307.055
306.957
304.183
304.242
304.321
304.408
304.496
304.581
304.658
304.722
304.768
304.792
304.792
304.768
304.722
304.658
304.581
304.496
304.408
304.321
304.242
304.183
301.403
301.423
301.449
301.478
301.508
301.536
301.562
301.583
301.599
301.607
301.607
301.599
301.583
301.562
301.536
301.508
301.478
301.449
301.423
301.403
320.98
321.285
321.668
322.077
322.489
322.886
323.246
323.545
323.759
323.872
323.872
323.759
323.545
323.246
322.886
322.489
322.077
321.668
321.285
320.98
318.248
318.505
318.835
319.19
319.547
319.891
320.202
320.461
320.646
320.744
320.744
320.646
320.461
320.202
319.891
319.547
319.19
318.835
318.505
318.248
315.488
315.702
315.98
316.279
316.582
316.872
317.136
317.354
317.511
317.593
317.593
317.511
317.354
317.136
316.872
316.582
316.279
315.98
315.702
315.488
312.706
312.878
313.105
313.349
313.597
313.834
314.05
314.228
314.356
314.423
314.423
314.356
314.228
314.05
313.834
313.597
313.349
313.105
312.878
312.706
309.905
310.037
310.213
310.403
310.595
310.78
310.947
311.086
311.186
311.238
311.238
311.186
311.086
310.947
310.78
310.595
310.403
310.213
310.037
309.905
307.089
307.182
307.308
307.444
307.581
307.713
307.833
307.932
308.003
308.04
308.04
308.003
307.932
307.833
307.713
307.581
307.444
307.308
307.182
307.089
304.262
304.318
304.393
304.475
304.557
304.637
304.708
304.768
304.811
304.833
304.833
304.811
304.768
304.708
304.637
304.557
304.475
304.393
304.318
304.262
301.43
301.448
301.473
301.501
301.528
301.555
301.579
301.599
301.613
301.621
301.621
301.613
301.599
301.579
301.555
301.528
301.501
301.473
301.448
301.43
321.434
321.722
322.082
322.465
322.849
323.217
323.549
323.824
324.021
324.123
324.123
324.021
323.824
323.549
323.217
322.849
322.465
322.082
321.722
321.434
318.642
318.885
319.196
319.527
319.86
320.179
320.467
320.704
320.875
320.964
320.964
320.875
320.704
320.467
320.179
319.86
319.527
319.196
318.885
318.642
315.822
316.024
316.286
316.566
316.848
317.118
317.361
317.562
317.706
317.781
317.781
317.706
317.562
317.361
317.118
316.848
316.566
316.286
316.024
315.822
312.98
313.142
313.356
313.585
313.816
314.036
314.235
314.399
314.517
314.578
314.578
314.517
314.399
314.235
314.036
313.816
313.585
313.356
313.142
312.98
310.118
310.243
310.409
310.587
310.766
310.938
311.092
311.22
311.311
311.359
311.359
311.311
311.22
311.092
310.938
310.766
310.587
310.409
310.243
310.118
307.242
307.33
307.448
307.575
307.703
307.826
307.936
308.027
308.093
308.127
308.127
308.093
308.027
307.936
307.826
307.703
307.575
307.448
307.33
307.242
304.354
304.407
304.478
304.554
304.631
304.705
304.771
304.826
304.865
304.885
304.885
304.865
304.826
304.771
304.705
304.631
304.554
304.478
304.407
304.354
301.46
301.478
301.502
301.527
301.553
301.578
301.6
301.618
301.631
301.638
301.638
301.631
301.618
301.6
301.578
301.553
301.527
301.502
301.478
301.46
321.951
322.221
322.558
322.915
323.271
323.61
323.915
324.165
324.344
324.438
324.438
324.344
324.165
323.915
323.61
323.271
322.915
322.558
322.221
321.951
319.091
319.32
319.61
319.919
320.228
320.522
320.785
321.002
321.157
321.238
321.238
321.157
321.002
320.785
320.522
320.228
319.919
319.61
319.32
319.091
316.204
316.393
316.638
316.899
317.16
317.409
317.632
317.815
317.946
318.015
318.015
317.946
317.815
317.632
317.409
317.16
316.899
316.638
316.393
316.204
313.292
313.445
313.645
313.858
314.072
314.275
314.457
314.608
314.715
314.771
314.771
314.715
314.608
314.457
314.275
314.072
313.858
313.645
313.445
313.292
310.362
310.479
310.634
310.8
310.966
311.124
311.266
311.383
311.466
311.509
311.509
311.466
311.383
311.266
311.124
310.966
310.8
310.634
310.479
310.362
307.416
307.499
307.609
307.728
307.846
307.959
308.061
308.144
308.204
308.235
308.235
308.204
308.144
308.061
307.959
307.846
307.728
307.609
307.499
307.416
304.459
304.508
304.575
304.646
304.717
304.785
304.846
304.896
304.932
304.95
304.95
304.932
304.896
304.846
304.785
304.717
304.646
304.575
304.508
304.459
301.495
301.512
301.534
301.558
301.582
301.605
301.625
301.642
301.654
301.66
301.66
301.654
301.642
301.625
301.605
301.582
301.558
301.534
301.512
301.495
322.534
322.786
323.1
323.43
323.758
324.069
324.347
324.575
324.737
324.821
324.821
324.737
324.575
324.347
324.069
323.758
323.43
323.1
322.786
322.534
319.597
319.811
320.082
320.368
320.652
320.921
321.162
321.359
321.5
321.573
321.573
321.5
321.359
321.162
320.921
320.652
320.368
320.082
319.811
319.597
316.633
316.81
317.038
317.28
317.521
317.749
317.952
318.119
318.238
318.299
318.299
318.238
318.119
317.952
317.749
317.521
317.28
317.038
316.81
316.633
313.644
313.787
313.973
314.171
314.368
314.554
314.721
314.857
314.954
315.005
315.005
314.954
314.857
314.721
314.554
314.368
314.171
313.973
313.787
313.644
310.636
310.746
310.89
311.044
311.197
311.342
311.471
311.577
311.653
311.692
311.692
311.653
311.577
311.471
311.342
311.197
311.044
310.89
310.746
310.636
307.612
307.69
307.792
307.902
308.012
308.115
308.208
308.284
308.338
308.366
308.366
308.338
308.284
308.208
308.115
308.012
307.902
307.792
307.69
307.612
304.577
304.623
304.685
304.751
304.817
304.879
304.934
304.98
305.012
305.029
305.029
305.012
304.98
304.934
304.879
304.817
304.751
304.685
304.623
304.577
301.535
301.55
301.571
301.593
301.615
301.636
301.655
301.67
301.681
301.686
301.686
301.681
301.67
301.655
301.636
301.615
301.593
301.571
301.55
301.535
323.183
323.418
323.709
324.014
324.314
324.598
324.85
325.056
325.202
325.278
325.278
325.202
325.056
324.85
324.598
324.314
324.014
323.709
323.418
323.183
320.162
320.361
320.612
320.875
321.136
321.382
321.6
321.779
321.905
321.971
321.971
321.905
321.779
321.6
321.382
321.136
320.875
320.612
320.361
320.162
317.112
317.277
317.488
317.711
317.932
318.14
318.324
318.475
318.582
318.638
318.638
318.582
318.475
318.324
318.14
317.932
317.711
317.488
317.277
317.112
314.037
314.17
314.342
314.524
314.705
314.875
315.026
315.15
315.237
315.283
315.283
315.237
315.15
315.026
314.875
314.705
314.524
314.342
314.17
314.037
310.942
311.044
311.178
311.319
311.46
311.592
311.71
311.806
311.874
311.909
311.909
311.874
311.806
311.71
311.592
311.46
311.319
311.178
311.044
310.942
307.831
307.903
307.998
308.1
308.2
308.295
308.379
308.447
308.496
308.521
308.521
308.496
308.447
308.379
308.295
308.2
308.1
307.998
307.903
307.831
304.708
304.752
304.809
304.87
304.93
304.987
305.037
305.078
305.108
305.123
305.123
305.108
305.078
305.037
304.987
304.93
304.87
304.809
304.752
304.708
301.579
301.593
301.613
301.633
301.653
301.672
301.689
301.703
301.713
301.718
301.718
301.713
301.703
301.689
301.672
301.653
301.633
301.613
301.593
301.579
323.9
324.119
324.387
324.667
324.942
325.199
325.427
325.613
325.744
325.812
325.812
325.744
325.613
325.427
325.199
324.942
324.667
324.387
324.119
323.9
320.785
320.97
321.201
321.444
321.682
321.905
322.103
322.263
322.377
322.436
322.436
322.377
322.263
322.103
321.905
321.682
321.444
321.201
320.97
320.785
317.64
317.793
317.989
318.194
318.395
318.584
318.751
318.887
318.983
319.033
319.033
318.983
318.887
318.751
318.584
318.395
318.194
317.989
317.793
317.64
314.47
314.594
314.753
314.92
315.085
315.24
315.377
315.488
315.567
315.607
315.607
315.567
315.488
315.377
315.24
315.085
314.92
314.753
314.594
314.47
311.28
311.374
311.498
311.628
311.756
311.877
311.983
312.07
312.131
312.163
312.163
312.131
312.07
311.983
311.877
311.756
311.628
311.498
311.374
311.28
308.073
308.139
308.228
308.321
308.412
308.498
308.574
308.636
308.68
308.703
308.703
308.68
308.636
308.574
308.498
308.412
308.321
308.228
308.139
308.073
304.854
304.894
304.946
305.002
305.057
305.109
305.155
305.192
305.218
305.232
305.232
305.218
305.192
305.155
305.109
305.057
305.002
304.946
304.894
304.854
301.628
301.641
301.659
301.678
301.696
301.713
301.729
301.741
301.75
301.755
301.755
301.75
301.741
301.729
301.713
301.696
301.678
301.659
301.641
301.628
324.686
324.888
325.135
325.392
325.642
325.875
326.081
326.247
326.365
326.425
326.425
326.365
326.247
326.081
325.875
325.642
325.392
325.135
324.888
324.686
321.468
321.639
321.852
322.074
322.291
322.493
322.671
322.816
322.917
322.97
322.97
322.917
322.816
322.671
322.493
322.291
322.074
321.852
321.639
321.468
318.219
318.361
318.541
318.728
318.912
319.083
319.234
319.356
319.442
319.487
319.487
319.442
319.356
319.234
319.083
318.912
318.728
318.541
318.361
318.219
314.945
315.059
315.206
315.359
315.509
315.65
315.773
315.873
315.943
315.98
315.98
315.943
315.873
315.773
315.65
315.509
315.359
315.206
315.059
314.945
311.649
311.737
311.851
311.97
312.087
312.196
312.292
312.37
312.425
312.453
312.453
312.425
312.37
312.292
312.196
312.087
311.97
311.851
311.737
311.649
308.337
308.399
308.48
308.565
308.649
308.727
308.796
308.851
308.89
308.91
308.91
308.89
308.851
308.796
308.727
308.649
308.565
308.48
308.399
308.337
305.013
305.05
305.098
305.15
305.2
305.247
305.288
305.321
305.345
305.357
305.357
305.345
305.321
305.288
305.247
305.2
305.15
305.098
305.05
305.013
301.681
301.693
301.71
301.727
301.744
301.759
301.773
301.784
301.792
301.796
301.796
301.792
301.784
301.773
301.759
301.744
301.727
301.71
301.693
301.681
325.54
325.727
325.953
326.187
326.415
326.626
326.81
326.96
327.064
327.119
327.119
327.064
326.96
326.81
326.626
326.415
326.187
325.953
325.727
325.54
322.21
322.367
322.563
322.766
322.963
323.146
323.306
323.435
323.526
323.573
323.573
323.526
323.435
323.306
323.146
322.963
322.766
322.563
322.367
322.21
318.848
318.979
319.144
319.315
319.482
319.637
319.773
319.882
319.959
319.999
319.999
319.959
319.882
319.773
319.637
319.482
319.315
319.144
318.979
318.848
315.46
315.565
315.7
315.84
315.977
316.104
316.215
316.304
316.367
316.4
316.4
316.367
316.304
316.215
316.104
315.977
315.84
315.7
315.565
315.46
312.051
312.132
312.236
312.345
312.451
312.55
312.636
312.706
312.755
312.78
312.78
312.755
312.706
312.636
312.55
312.451
312.345
312.236
312.132
312.051
308.624
308.681
308.756
308.834
308.91
308.98
309.042
309.092
309.127
309.145
309.145
309.127
309.092
309.042
308.98
308.91
308.834
308.756
308.681
308.624
305.185
305.219
305.264
305.311
305.356
305.399
305.436
305.466
305.487
305.498
305.498
305.487
305.466
305.436
305.399
305.356
305.311
305.264
305.219
305.185
301.739
301.75
301.765
301.781
301.796
301.811
301.823
301.833
301.84
301.844
301.844
301.84
301.833
301.823
301.811
301.796
301.781
301.765
301.75
301.739
326.459
326.63
326.838
327.051
327.257
327.448
327.614
327.747
327.841
327.889
327.889
327.841
327.747
327.614
327.448
327.257
327.051
326.838
326.63
326.459
323.007
323.152
323.331
323.516
323.695
323.86
324.004
324.119
324.2
324.242
324.242
324.2
324.119
324.004
323.86
323.695
323.516
323.331
323.152
323.007
319.523
319.644
319.795
319.951
320.102
320.242
320.364
320.462
320.531
320.566
320.566
320.531
320.462
320.364
320.242
320.102
319.951
319.795
319.644
319.523
316.013
316.11
316.233
316.361
316.485
316.6
316.699
316.78
316.836
316.865
316.865
316.836
316.78
316.699
316.6
316.485
316.361
316.233
316.11
316.013
312.481
312.556
312.651
312.751
312.847
312.936
313.014
313.076
313.12
313.143
313.143
313.12
313.076
313.014
312.936
312.847
312.751
312.651
312.556
312.481
308.932
308.985
309.053
309.124
309.193
309.256
309.312
309.357
309.388
309.404
309.404
309.388
309.357
309.312
309.256
309.193
309.124
309.053
308.985
308.932
305.37
305.402
305.443
305.485
305.527
305.565
305.598
305.625
305.644
305.654
305.654
305.644
305.625
305.598
305.565
305.527
305.485
305.443
305.402
305.37
301.801
301.811
301.825
301.84
301.853
301.866
301.877
301.886
301.893
301.896
301.896
301.893
301.886
301.877
301.866
301.853
301.84
301.825
301.811
301.801
327.431
327.589
327.779
327.973
328.16
328.332
328.481
328.601
328.684
328.727
328.727
328.684
328.601
328.481
328.332
328.16
327.973
327.779
327.589
327.431
323.849
323.982
324.147
324.315
324.477
324.626
324.755
324.859
324.931
324.969
324.969
324.931
324.859
324.755
324.626
324.477
324.315
324.147
323.982
323.849
320.236
320.346
320.485
320.627
320.765
320.891
321
321.088
321.149
321.181
321.181
321.149
321.088
321
320.891
320.765
320.627
320.485
320.346
320.236
316.596
316.685
316.798
316.914
317.027
317.13
317.22
317.292
317.342
317.368
317.368
317.342
317.292
317.22
317.13
317.027
316.914
316.798
316.685
316.596
312.934
313.003
313.09
313.181
313.268
313.349
313.419
313.475
313.514
313.534
313.534
313.514
313.475
313.419
313.349
313.268
313.181
313.09
313.003
312.934
309.256
309.304
309.366
309.431
309.494
309.551
309.601
309.641
309.669
309.684
309.684
309.669
309.641
309.601
309.551
309.494
309.431
309.366
309.304
309.256
305.565
305.593
305.631
305.67
305.707
305.742
305.772
305.796
305.813
305.821
305.821
305.813
305.796
305.772
305.742
305.707
305.67
305.631
305.593
305.565
301.866
301.876
301.888
301.901
301.914
301.926
301.936
301.944
301.949
301.952
301.952
301.949
301.944
301.936
301.926
301.914
301.901
301.888
301.876
301.866
328.432
328.577
328.751
328.928
329.098
329.253
329.388
329.495
329.57
329.608
329.608
329.57
329.495
329.388
329.253
329.098
328.928
328.751
328.577
328.432
324.712
324.834
324.985
325.139
325.286
325.421
325.537
325.63
325.695
325.728
325.728
325.695
325.63
325.537
325.421
325.286
325.139
324.985
324.834
324.712
320.962
321.064
321.191
321.321
321.446
321.56
321.659
321.738
321.793
321.821
321.821
321.793
321.738
321.659
321.56
321.446
321.321
321.191
321.064
320.962
317.188
317.27
317.373
317.48
317.582
317.676
317.757
317.821
317.866
317.889
317.889
317.866
317.821
317.757
317.676
317.582
317.48
317.373
317.27
317.188
313.393
313.456
313.536
313.619
313.699
313.772
313.835
313.885
313.92
313.938
313.938
313.92
313.885
313.835
313.772
313.699
313.619
313.536
313.456
313.393
309.583
309.627
309.684
309.744
309.801
309.853
309.898
309.934
309.959
309.972
309.972
309.959
309.934
309.898
309.853
309.801
309.744
309.684
309.627
309.583
305.761
305.787
305.822
305.857
305.891
305.923
305.95
305.971
305.986
305.994
305.994
305.986
305.971
305.95
305.923
305.891
305.857
305.822
305.787
305.761
301.932
301.941
301.952
301.964
301.976
301.986
301.995
302.002
302.007
302.01
302.01
302.007
302.002
301.995
301.986
301.976
301.964
301.952
301.941
301.932
329.394
329.528
329.689
329.852
330.007
330.149
330.271
330.368
330.435
330.47
330.47
330.435
330.368
330.271
330.149
330.007
329.852
329.689
329.528
329.394
325.531
325.645
325.784
325.925
326.06
326.183
326.289
326.373
326.432
326.462
326.462
326.432
326.373
326.289
326.183
326.06
325.925
325.784
325.645
325.531
321.645
321.739
321.856
321.976
322.091
322.195
322.285
322.357
322.406
322.432
322.432
322.406
322.357
322.285
322.195
322.091
321.976
321.856
321.739
321.645
317.739
317.815
317.911
318.009
318.103
318.188
318.262
318.321
318.362
318.383
318.383
318.362
318.321
318.262
318.188
318.103
318.009
317.911
317.815
317.739
313.817
313.875
313.95
314.026
314.1
314.166
314.224
314.27
314.301
314.318
314.318
314.301
314.27
314.224
314.166
314.1
314.026
313.95
313.875
313.817
309.883
309.924
309.977
310.032
310.085
310.132
310.173
310.206
310.229
310.241
310.241
310.229
310.206
310.173
310.132
310.085
310.032
309.977
309.924
309.883
305.94
305.965
305.997
306.029
306.061
306.09
306.114
306.134
306.148
306.155
306.155
306.148
306.134
306.114
306.09
306.061
306.029
305.997
305.965
305.94
301.992
302
302.011
302.022
302.032
302.042
302.05
302.057
302.061
302.064
302.064
302.061
302.057
302.05
302.042
302.032
302.022
302.011
302
301.992
330.148
330.274
330.425
330.577
330.723
330.855
330.968
331.058
331.121
331.153
331.153
331.121
331.058
330.968
330.855
330.723
330.577
330.425
330.274
330.148
326.148
326.255
326.386
326.519
326.646
326.761
326.86
326.939
326.993
327.021
327.021
326.993
326.939
326.86
326.761
326.646
326.519
326.386
326.255
326.148
322.143
322.232
322.343
322.456
322.564
322.662
322.746
322.813
322.859
322.883
322.883
322.859
322.813
322.746
322.662
322.564
322.456
322.343
322.232
322.143
318.131
318.203
318.294
318.387
318.475
318.556
318.625
318.68
318.718
318.738
318.738
318.718
318.68
318.625
318.556
318.475
318.387
318.294
318.203
318.131
314.113
314.169
314.239
314.312
314.381
314.444
314.498
314.541
314.57
314.586
314.586
314.57
314.541
314.498
314.444
314.381
314.312
314.239
314.169
314.113
310.09
310.129
310.18
310.232
310.281
310.326
310.365
310.396
310.417
310.428
310.428
310.417
310.396
310.365
310.326
310.281
310.232
310.18
310.129
310.09
306.063
306.086
306.116
306.147
306.177
306.204
306.228
306.246
306.259
306.266
306.266
306.259
306.246
306.228
306.204
306.177
306.147
306.116
306.086
306.063
302.033
302.04
302.051
302.061
302.071
302.08
302.088
302.094
302.098
302.101
302.101
302.098
302.094
302.088
302.08
302.071
302.061
302.051
302.04
302.033
)
;

boundaryField
{
    hotSide
    {
        type            fixedGradient;
        gradient        nonuniform List<scalar> 
400
(
200.221
200.774
201.886
203.564
205.818
208.663
212.115
216.191
220.91
226.289
232.346
239.098
246.56
254.745
263.665
273.33
283.749
294.929
306.875
319.592
205.179
205.693
206.728
208.293
210.404
213.078
216.338
220.205
224.703
229.856
235.684
242.208
249.447
257.417
266.131
275.601
285.837
296.845
308.632
321.201
210.545
211.012
211.955
213.387
215.328
217.801
220.836
224.46
228.704
233.597
239.165
245.434
252.425
260.157
268.645
277.903
287.941
298.765
310.382
322.796
216.229
216.642
217.478
218.756
220.5
222.744
225.521
228.871
232.829
237.433
242.714
248.702
255.424
262.9
271.148
280.181
290.011
300.645
312.088
324.342
222.074
222.425
223.142
224.246
225.772
227.76
230.255
233.304
236.953
241.245
246.221
251.913
258.353
265.563
273.564
282.369
291.989
302.431
313.699
325.796
227.834
228.12
228.709
229.629
230.923
232.642
234.841
237.578
240.907
244.881
249.545
254.94
261.098
268.045
275.803
284.385
293.802
304.061
315.164
327.111
233.181
233.402
233.862
234.599
235.664
237.118
239.028
241.461
244.481
248.15
252.52
257.634
263.528
270.232
277.766
286.144
295.377
305.47
316.425
328.24
237.72
237.881
238.226
238.799
239.659
240.877
242.53
244.695
247.446
250.85
254.965
259.838
265.508
272.006
279.351
287.56
296.64
306.596
317.428
329.135
241.041
241.157
241.414
241.861
242.565
243.604
245.063
247.027
249.577
252.784
256.709
261.405
266.912
273.259
280.468
288.553
297.523
307.381
318.127
329.756
242.801
242.892
243.101
243.48
244.099
245.041
246.396
248.252
250.693
253.794
257.619
262.221
267.64
273.908
281.045
289.066
297.979
307.785
318.485
330.075
242.801
242.892
243.101
243.48
244.099
245.041
246.396
248.252
250.693
253.794
257.619
262.221
267.64
273.908
281.045
289.066
297.979
307.785
318.485
330.075
241.041
241.157
241.414
241.861
242.565
243.604
245.063
247.027
249.577
252.784
256.709
261.405
266.912
273.259
280.468
288.553
297.523
307.381
318.127
329.756
237.72
237.881
238.226
238.799
239.659
240.877
242.53
244.695
247.446
250.85
254.965
259.838
265.508
272.006
279.351
287.56
296.64
306.596
317.428
329.135
233.181
233.402
233.862
234.599
235.664
237.118
239.028
241.461
244.481
248.15
252.52
257.634
263.528
270.232
277.766
286.144
295.377
305.47
316.425
328.24
227.834
228.12
228.709
229.629
230.923
232.642
234.841
237.578
240.907
244.881
249.545
254.94
261.098
268.045
275.803
284.385
293.802
304.061
315.164
327.111
222.074
222.425
223.142
224.246
225.772
227.76
230.255
233.304
236.953
241.245
246.221
251.913
258.353
265.563
273.564
282.369
291.989
302.431
313.699
325.796
216.229
216.642
217.478
218.756
220.5
222.744
225.521
228.871
232.829
237.433
242.714
248.702
255.424
262.9
271.148
280.181
290.011
300.645
312.088
324.342
210.545
211.012
211.955
213.387
215.328
217.801
220.836
224.46
228.704
233.597
239.165
245.434
252.425
260.157
268.645
277.903
287.941
298.765
310.382
322.796
205.179
205.693
206.728
208.293
210.404
213.078
216.338
220.205
224.703
229.856
235.684
242.208
249.447
257.417
266.131
275.601
285.837
296.845
308.632
321.201
200.221
200.774
201.886
203.564
205.818
208.663
212.115
216.191
220.91
226.289
232.346
239.098
246.56
254.745
263.665
273.33
283.749
294.929
306.875
319.592
)
;
    }
    coldSide
    {
        type            mixed;
        refValue        uniform 300;
        refGradient     uniform 0;
        valueFraction   uniform 0.991591;
        source          uniform 0;
        value           nonuniform List<scalar> 
400
(
300.011
300.011
300.011
300.011
300.011
300.012
300.012
300.012
300.012
300.013
300.013
300.013
300.014
300.014
300.015
300.015
300.016
300.016
300.017
300.017
300.011
300.011
300.011
300.012
300.012
300.012
300.012
300.012
300.012
300.013
300.013
300.013
300.014
300.014
300.015
300.015
300.016
300.016
300.017
300.017
300.012
300.012
300.012