/*--------------------------------*- C++ -*----------------------------------*\
| =========                 |                                                 |
| \\      /  F ield         | OpenFOAM: The Open Source CFD Toolbox           |
|  \\    /   O peration     | Version:  2212                                  |
|   \\  /    A nd           | Website:  www.openfoam.com                      |
|    \\/     M anipulation  |                                                 |
\*---------------------------------------------------------------------------*/
FoamFile
{
    version     2.0;
    format      ascii;
    arch        "LSB;label=32;scalar=64";
    class       volScalarField;
    location    "0";
    object      Tdirect;
}
// * * * * * * * * * * * * * * * * * * * * * * * * * * * * * * * * * * * * * //

dimensions      [0 0 0 1 0 0 0];

internalField   nonuniform List<scalar> 
3200
(
343.918
344.808
345.945
347.184
348.46
349.713
350.869
351.845
352.556
352.932
352.932
352.556
351.845
350.869
349.713
348.46
347.184
345.945
344.808
343.918
338.086
338.84
339.82
340.892
341.997
343.08
344.08
344.923
345.537
345.861
345.861
345.537
344.923
344.08
343.08
341.997
340.892
339.82
338.84
338.086
332.245
332.87
333.697
334.602
335.536
336.451
337.295
338.007
338.525
338.798
338.798
338.525
338.007
337.295
336.451
335.536
334.602
333.697
332.87
332.245
326.397
326.9
327.574
328.314
329.077
329.825
330.514
331.095
331.518
331.741
331.741
331.518
331.095
330.514
329.825
329.077
328.314
327.574
326.9
326.397
320.543
320.929
321.451
322.027
322.62
323.201
323.736
324.188
324.516
324.689
324.689
324.516
324.188
323.736
323.201
322.62
322.027
321.451
320.929
320.543
314.684
314.957
315.33
315.74
316.164
316.579
316.961
317.283
317.517
317.641
317.641
317.517
317.283
316.961
316.579
316.164
315.74
315.33
314.957
314.684
308.821
308.985
309.208
309.455
309.709
309.958
310.187
310.381
310.521
310.595
310.595
310.521
310.381
310.187
309.958
309.709
309.455
309.208
308.985
308.821
302.957
303.012
303.087
303.169
303.254
303.338
303.415
303.48
303.527
303.552
303.552
303.527
303.48
303.415
303.338
303.254
303.169
303.087
303.012
302.957
344.034
344.917
346.044
347.272
348.535
349.774
350.916
351.88
352.582
352.953
352.953
352.582
351.88
350.916
349.774
348.535
347.272
346.044
344.917
344.034
338.186
338.934
339.906
340.968
342.061
343.133
344.121
344.954
345.56
345.88
345.88
345.56
344.954
344.121
343.133
342.061
340.968
339.906
338.934
338.186
332.33
332.95
333.769
334.666
335.59
336.496
337.33
338.033
338.544
338.814
338.814
338.544
338.033
337.33
336.496
335.59
334.666
333.769
332.95
332.33
326.466
326.965
327.633
328.366
329.121
329.861
330.543
331.117
331.534
331.754
331.754
331.534
331.117
330.543
329.861
329.121
328.366
327.633
326.965
326.466
320.596
320.98
321.497
322.067
322.654
323.229
323.759
324.204
324.529
324.7
324.7
324.529
324.204
323.759
323.229
322.654
322.067
321.497
320.98
320.596
314.722
314.993
315.362
315.769
316.189
316.599
316.977
317.295
317.526
317.648
317.648
317.526
317.295
316.977
316.599
316.189
315.769
315.362
314.993
314.722
308.844
309.006
309.228
309.472
309.724
309.97
310.197
310.388
310.527
310.6
310.6
310.527
310.388
310.197
309.97
309.724
309.472
309.228
309.006
308.844
302.965
303.019
303.093
303.175
303.259
303.342
303.418
303.482
303.529
303.553
303.553
303.529
303.482
303.418
303.342
303.259
303.175
303.093
303.019
302.965
344.266
345.136
346.244
347.448
348.686
349.898
351.015
351.955
352.639
353
353
352.639
351.955
351.015
349.898
348.686
347.448
346.244
345.136
344.266
338.387
339.123
340.079
341.121
342.193
343.241
344.206
345.019
345.61
345.921
345.921
345.61
345.019
344.206
343.241
342.193
341.121
340.079
339.123
338.387
332.499
333.11
333.915
334.796
335.701
336.587
337.402
338.088
338.587
338.85
338.85
338.587
338.088
337.402
336.587
335.701
334.796
333.915
333.11
332.499
326.604
327.096
327.752
328.472
329.212
329.936
330.602
331.162
331.569
331.784
331.784
331.569
331.162
330.602
329.936
329.212
328.472
327.752
327.096
326.604
320.704
321.081
321.59
322.15
322.725
323.288
323.805
324.24
324.556
324.723
324.723
324.556
324.24
323.805
323.288
322.725
322.15
321.59
321.081
320.704
314.799
315.066
315.429
315.828
316.239
316.641
317.01
317.321
317.546
317.665
317.665
317.546
317.321
317.01
316.641
316.239
315.828
315.429
315.066
314.799
308.89
309.05
309.268
309.507
309.754
309.995
310.217
310.403
310.539
310.61
310.61
310.539
310.403
310.217
309.995
309.754
309.507
309.268
309.05
308.89
302.98
303.034
303.107
303.187
303.27
303.35
303.425
303.487
303.533
303.556
303.556
303.533
303.487
303.425
303.35
303.27
303.187
303.107
303.034
302.98
344.618
345.467
346.547
347.719
348.92
350.093
351.171
352.078
352.736
353.083
353.083
352.736
352.078
351.171
350.093
348.92
347.719
346.547
345.467
344.618
338.691
339.41
340.341
341.355
342.395
343.41
344.342
345.126
345.695
345.995
345.995
345.695
345.126
344.342
343.41
342.395
341.355
340.341
339.41
338.691
332.756
333.352
334.137
334.994
335.872
336.73
337.518
338.179
338.659
338.912
338.912
338.659
338.179
337.518
336.73
335.872
334.994
334.137
333.352
332.756
326.814
327.294
327.934
328.634
329.352
330.053
330.697
331.237
331.629
331.835
331.835
331.629
331.237
330.697
330.053
329.352
328.634
327.934
327.294
326.814
320.866
321.235
321.731
322.275
322.834
323.379
323.879
324.298
324.603
324.763
324.763
324.603
324.298
323.879
323.379
322.834
322.275
321.731
321.235
320.866
314.915
315.176
315.529
315.918
316.317
316.706
317.063
317.362
317.58
317.694
317.694
317.58
317.362
317.063
316.706
316.317
315.918
315.529
315.176
314.915
308.96
309.116
309.328
309.561
309.801
310.034
310.249
310.428
310.559
310.627
310.627
310.559
310.428
310.249
310.034
309.801
309.561
309.328
309.116
308.96
303.004
303.056
303.127
303.205
303.285
303.364
303.435
303.496
303.539
303.562
303.562
303.539
303.496
303.435
303.364
303.285
303.205
303.127
303.056
303.004
345.09
345.913
346.958
348.088
349.243
350.367
351.398
352.262
352.888
353.218
353.218
352.888
352.262
351.398
350.367
349.243
348.088
346.958
345.913
345.09
339.099
339.796
340.697
341.675
342.674
343.648
344.539
345.286
345.827
346.112
346.112
345.827
345.286
344.539
343.648
342.674
341.675
340.697
339.796
339.099
333.1
333.678
334.438
335.264
336.109
336.931
337.684
338.315
338.772
339.012
339.012
338.772
338.315
337.684
336.931
336.109
335.264
334.438
333.678
333.1
327.095
327.561
328.179
328.855
329.546
330.218
330.833
331.348
331.722
331.918
331.918
331.722
331.348
330.833
330.218
329.546
328.855
328.179
327.561
327.095
321.085
321.442
321.922
322.447
322.984
323.507
323.985
324.385
324.675
324.827
324.827
324.675
324.385
323.985
323.507
322.984
322.447
321.922
321.442
321.085
315.071
315.324
315.666
316.041
316.424
316.797
317.139
317.425
317.631
317.74
317.74
317.631
317.425
317.139
316.797
316.424
316.041
315.666
315.324
315.071
309.054
309.205
309.41
309.635
309.865
310.089
310.294
310.466
310.59
310.655
310.655
310.59
310.466
310.294
310.089
309.865
309.635
309.41
309.205
309.054
303.035
303.086
303.154
303.23
303.307
303.382
303.451
303.508
303.55
303.572
303.572
303.55
303.508
303.451
303.382
303.307
303.23
303.154
303.086
303.035
345.687
346.48
347.482
348.563
349.663
350.731
351.706
352.521
353.11
353.42
353.42
353.11
352.521
351.706
350.731
349.663
348.563
347.482
346.48
345.687
339.615
340.286
341.151
342.086
343.039
343.963
344.806
345.511
346.021
346.289
346.289
346.021
345.511
344.806
343.963
343.039
342.086
341.151
340.286
339.615
333.536
334.092
334.821
335.611
336.417
337.198
337.911
338.506
338.936
339.162
339.162
338.936
338.506
337.911
337.198
336.417
335.611
334.821
334.092
333.536
327.451
327.899
328.493
329.139
329.798
330.436
331.019
331.505
331.856
332.041
332.041
331.856
331.505
331.019
330.436
329.798
329.139
328.493
327.899
327.451
321.361
321.705
322.166
322.668
323.18
323.677
324.129
324.507
324.78
324.924
324.924
324.78
324.507
324.129
323.677
323.18
322.668
322.166
321.705
321.361
315.268
315.511
315.84
316.198
316.564
316.919
317.242
317.512
317.707
317.809
317.809
317.707
317.512
317.242
316.919
316.564
316.198
315.84
315.511
315.268
309.172
309.317
309.514
309.73
309.949
310.162
310.356
310.518
310.635
310.697
310.697
310.635
310.518
310.356
310.162
309.949
309.73
309.514
309.317
309.172
303.075
303.123
303.189
303.261
303.335
303.406
303.471
303.526
303.565
303.586
303.586
303.565
303.526
303.471
303.406
303.335
303.261
303.189
303.123
303.075
346.413
347.17
348.125
349.151
350.191
351.196
352.11
352.872
353.421
353.709
353.709
353.421
352.872
352.11
351.196
350.191
349.151
348.125
347.17
346.413
340.242
340.883
341.707
342.595
343.496
344.366
345.157
345.816
346.291
346.54
346.54
346.291
345.816
345.157
344.366
343.496
342.595
341.707
340.883
340.242
334.065
334.597
335.292
336.042
336.803
337.539
338.207
338.764
339.165
339.376
339.376
339.165
338.764
338.207
337.539
336.803
336.042
335.292
334.597
334.065
327.883
328.311
328.878
329.491
330.114
330.715
331.261
331.716
332.044
332.216
332.216
332.044
331.716
331.261
330.715
330.114
329.491
328.878
328.311
327.883
321.697
322.026
322.465
322.942
323.426
323.893
324.318
324.672
324.926
325.06
325.06
324.926
324.672
324.318
323.893
323.426
322.942
322.465
322.026
321.697
315.508
315.74
316.053
316.394
316.74
317.074
317.377
317.629
317.811
317.907
317.907
317.811
317.629
317.377
317.074
316.74
316.394
316.053
315.74
315.508
309.316
309.455
309.643
309.847
310.055
310.255
310.437
310.589
310.698
310.755
310.755
310.698
310.589
310.437
310.255
310.055
309.847
309.643
309.455
309.316
303.123
303.169
303.232
303.301
303.37
303.438
303.499
303.549
303.586
303.605
303.605
303.586
303.549
303.499
303.438
303.37
303.301
303.232
303.169
303.123
347.271
347.99
348.894
349.861
350.836
351.775
352.625
353.33
353.838
354.103
354.103
353.838
353.33
352.625
351.775
350.836
349.861
348.894
347.99
347.271
340.984
341.593
342.373
343.21
344.055
344.867
345.603
346.213
346.652
346.882
346.882
346.652
346.213
345.603
344.867
344.055
343.21
342.373
341.593
340.984
334.692
335.197
335.854
336.561
337.276
337.963
338.585
339.101
339.471
339.666
339.666
339.471
339.101
338.585
337.963
337.276
336.561
335.854
335.197
334.692
328.395
328.801
329.337
329.916
330.5
331.062
331.57
331.992
332.295
332.454
332.454
332.295
331.992
331.57
331.062
330.5
329.916
329.337
328.801
328.395
322.094
322.407
322.822
323.272
323.726
324.163
324.558
324.886
325.122
325.245
325.245
325.122
324.886
324.558
324.163
323.726
323.272
322.822
322.407
322.094
315.791
316.012
316.309
316.63
316.954
317.266
317.549
317.783
317.951
318.039
318.039
317.951
317.783
317.549
317.266
316.954
316.63
316.309
316.012
315.791
309.486
309.618
309.796
309.989
310.184
310.371
310.54
310.681
310.782
310.835
310.835
310.782
310.681
310.54
310.371
310.184
309.989
309.796
309.618
309.486
303.18
303.224
303.284
303.348
303.414
303.476
303.533
303.58
303.614
303.632
303.632
303.614
303.58
303.533
303.476
303.414
303.348
303.284
303.224
303.18
348.265
348.945
349.795
350.7
351.609
352.479
353.264
353.912
354.377
354.621
354.621
354.377
353.912
353.264
352.479
351.609
350.7
349.795
348.945
348.265
341.843
342.419
343.153
343.936
344.724
345.477
346.156
346.718
347.12
347.33
347.33
347.12
346.718
346.156
345.477
344.724
343.936
343.153
342.419
341.843
335.417
335.895
336.513
337.175
337.841
338.479
339.053
339.528
339.868
340.045
340.045
339.868
339.528
339.053
338.479
337.841
337.175
336.513
335.895
335.417
328.988
329.372
329.876
330.418
330.962
331.484
331.953
332.341
332.619
332.764
332.764
332.619
332.341
331.953
331.484
330.962
330.418
329.876
329.372
328.988
322.555
322.85
323.241
323.662
324.086
324.491
324.856
325.158
325.374
325.487
325.487
325.374
325.158
324.856
324.491
324.086
323.662
323.241
322.85
322.555
316.12
316.329
316.608
316.908
317.211
317.501
317.761
317.977
318.131
318.212
318.212
318.131
317.977
317.761
317.501
317.211
316.908
316.608
316.329
316.12
309.684
309.808
309.975
310.156
310.338
310.512
310.668
310.798
310.89
310.939
310.939
310.89
310.798
310.668
310.512
310.338
310.156
309.975
309.808
309.684
303.246
303.288
303.344
303.404
303.465
303.524
303.576
303.619
303.65
303.667
303.667
303.65
303.619
303.576
303.524
303.465
303.404
303.344
303.288
303.246
349.4
350.039
350.834
351.677
352.519
353.321
354.04
354.632
355.056
355.277
355.277
355.056
354.632
354.04
353.321
352.519
351.677
350.834
350.039
349.4
342.825
343.365
344.052
344.782
345.511
346.205
346.828
347.341
347.708
347.899
347.899
347.708
347.341
346.828
346.205
345.511
344.782
344.052
343.365
342.825
336.246
336.694
337.273
337.89
338.507
339.094
339.621
340.055
340.365
340.526
340.526
340.365
340.055
339.621
339.094
338.507
337.89
337.273
336.694
336.246
329.665
330.026
330.497
331.002
331.506
331.987
332.418
332.772
333.026
333.158
333.158
333.026
332.772
332.418
331.987
331.506
331.002
330.497
330.026
329.665
323.081
323.358
323.724
324.116
324.509
324.882
325.218
325.493
325.69
325.793
325.793
325.69
325.493
325.218
324.882
324.509
324.116
323.724
323.358
323.081
316.496
316.692
316.953
317.233
317.513
317.78
318.02
318.217
318.357
318.431
318.431
318.357
318.217
318.02
317.78
317.513
317.233
316.953
316.692
316.496
309.909
310.026
310.183
310.351
310.519
310.68
310.823
310.942
311.026
311.07
311.07
311.026
310.942
310.823
310.68
310.519
310.351
310.183
310.026
309.909
303.322
303.361
303.413
303.47
303.526
303.58
303.628
303.668
303.696
303.711
303.711
303.696
303.668
303.628
303.58
303.526
303.47
303.413
303.361
303.322
350.68
351.277
352.018
352.798
353.574
354.309
354.965
355.503
355.886
356.085
356.085
355.886
355.503
354.965
354.309
353.574
352.798
352.018
351.277
350.68
343.931
344.437
345.076
345.752
346.424
347.061
347.629
348.095
348.427
348.6
348.6
348.427
348.095
347.629
347.061
346.424
345.752
345.076
344.437
343.931
337.181
337.6
338.139
338.71
339.279
339.817
340.298
340.692
340.973
341.119
341.119
340.973
340.692
340.298
339.817
339.279
338.71
338.139
337.6
337.181
330.428
330.766
331.205
331.672
332.137
332.578
332.971
333.294
333.523
333.643
333.643
333.523
333.294
332.971
332.578
332.137
331.672
331.205
330.766
330.428
323.674
323.933
324.274
324.637
324.999
325.342
325.648
325.898
326.077
326.17
326.17
326.077
325.898
325.648
325.342
324.999
324.637
324.274
323.933
323.674
316.919
317.102
317.345
317.605
317.864
318.108
318.327
318.506
318.633
318.7
318.7
318.633
318.506
318.327
318.108
317.864
317.605
317.345
317.102
316.919
310.163
310.273
310.418
310.574
310.73
310.877
311.008
311.115
311.192
311.232
311.232
311.192
311.115
311.008
310.877
310.73
310.574
310.418
310.273
310.163
303.407
303.443
303.492
303.545
303.597
303.646
303.69
303.726
303.752
303.765
303.765
303.752
303.726
303.69
303.646
303.597
303.545
303.492
303.443
303.407
352.108
352.664
353.351
354.071
354.782
355.452
356.047
356.534
356.879
357.059
357.059
356.879
356.534
356.047
355.452
354.782
354.071
353.351
352.664
352.108
345.167
345.637
346.23
346.853
347.469
348.05
348.566
348.987
349.287
349.442
349.442
349.287
348.987
348.566
348.05
347.469
346.853
346.23
345.637
345.167
338.224
338.614
339.114
339.641
340.162
340.654
341.09
341.447
341.7
341.831
341.831
341.7
341.447
341.09
340.654
340.162
339.641
339.114
338.614
338.224
331.281
331.595
332.002
332.433
332.86
333.262
333.619
333.911
334.117
334.225
334.225
334.117
333.911
333.619
333.262
332.86
332.433
332.002
331.595
331.281
324.337
324.578
324.894
325.229
325.561
325.874
326.151
326.378
326.539
326.623
326.623
326.539
326.378
326.151
325.874
325.561
325.229
324.894
324.578
324.337
317.392
317.563
317.788
318.027
318.265
318.488
318.687
318.849
318.964
319.023
319.023
318.964
318.849
318.687
318.488
318.265
318.027
317.788
317.563
317.392
310.447
310.549
310.684
310.828
310.97
311.105
311.224
311.321
311.39
311.426
311.426
311.39
311.321
311.224
311.105
310.97
310.828
310.684
310.549
310.447
303.502
303.536
303.581
303.629
303.677
303.722
303.762
303.795
303.818
303.83
303.83
303.818
303.795
303.762
303.722
303.677
303.629
303.581
303.536
303.502
353.687
354.203
354.838
355.499
356.148
356.757
357.296
357.734
358.044
358.205
358.205
358.044
357.734
357.296
356.757
356.148
355.499
354.838
354.203
353.687
346.533
346.969
347.516
348.089
348.652
349.18
349.647
350.026
350.295
350.434
350.434
350.295
350.026
349.647
349.18
348.652
348.089
347.516
346.969
346.533
339.378
339.74
340.201
340.685
341.162
341.609
342.004
342.325
342.552
342.67
342.67
342.552
342.325
342.004
341.609
341.162
340.685
340.201
339.74
339.378
332.223
332.515
332.891
333.287
333.677
334.042
334.366
334.628
334.814
334.911
334.911
334.814
334.628
334.366
334.042
333.677
333.287
332.891
332.515
332.223
325.069
325.293
325.584
325.892
326.196
326.48
326.732
326.936
327.081
327.156
327.156
327.081
326.936
326.732
326.48
326.196
325.892
325.584
325.293
325.069
317.915
318.073
318.281
318.501
318.718
318.921
319.101
319.247
319.35
319.404
319.404
319.35
319.247
319.101
318.921
318.718
318.501
318.281
318.073
317.915
310.761
310.855
310.98
311.112
311.243
311.365
311.473
311.56
311.622
311.655
311.655
311.622
311.56
311.473
311.365
311.243
311.112
310.98
310.855
310.761
303.607
303.639
303.681
303.725
303.769
303.809
303.846
303.875
303.896
303.907
303.907
303.896
303.875
303.846
303.809
303.769
303.725
303.681
303.639
303.607
355.42
355.897
356.481
357.086
357.678
358.23
358.715
359.108
359.386
359.529
359.529
359.386
359.108
358.715
358.23
357.678
357.086
356.481
355.897
355.42
348.031
348.435
348.938
349.463
349.976
350.454
350.875
351.216
351.456
351.581
351.581
351.456
351.216
350.875
350.454
349.976
349.463
348.938
348.435
348.031
340.643
340.978
341.403
341.846
342.28
342.685
343.041
343.33
343.533
343.639
343.639
343.533
343.33
343.041
342.685
342.28
341.846
341.403
340.978
340.643
333.257
333.527
333.873
334.236
334.591
334.922
335.214
335.45
335.616
335.702
335.702
335.616
335.45
335.214
334.922
334.591
334.236
333.873
333.527
333.257
325.872
326.079
326.348
326.63
326.906
327.164
327.391
327.574
327.704
327.771
327.771
327.704
327.574
327.391
327.164
326.906
326.63
326.348
326.079
325.872
318.488
318.635
318.826
319.028
319.225
319.41
319.572
319.703
319.795
319.843
319.843
319.795
319.703
319.572
319.41
319.225
319.028
318.826
318.635
318.488
311.105
311.193
311.307
311.428
311.547
311.658
311.755
311.834
311.89
311.918
311.918
311.89
311.834
311.755
311.658
311.547
311.428
311.307
311.193
311.105
303.723
303.752
303.79
303.831
303.871
303.908
303.94
303.967
303.985
303.995
303.995
303.985
303.967
303.94
303.908
303.871
303.831
303.79
303.752
303.723
357.305
357.745
358.281
358.834
359.371
359.87
360.306
360.659
360.907
361.035
361.035
360.907
360.659
360.306
359.87
359.371
358.834
358.281
357.745
357.305
349.66
350.033
350.495
350.974
351.44
351.872
352.251
352.557
352.771
352.882
352.882
352.771
352.557
352.251
351.872
351.44
350.974
350.495
350.033
349.66
342.019
342.328
342.718
343.123
343.517
343.883
344.204
344.462
344.644
344.738
344.738
344.644
344.462
344.204
343.883
343.517
343.123
342.718
342.328
342.019
334.381
334.63
334.947
335.279
335.602
335.901
336.164
336.375
336.524
336.601
336.601
336.524
336.375
336.164
335.901
335.602
335.279
334.947
334.63
334.381
326.745
326.936
327.183
327.44
327.692
327.925
328.129
328.294
328.409
328.469
328.469
328.409
328.294
328.129
327.925
327.692
327.44
327.183
326.936
326.745
319.112
319.247
319.422
319.607
319.786
319.953
320.099
320.216
320.299
320.342
320.342
320.299
320.216
320.099
319.953
319.786
319.607
319.422
319.247
319.112
311.479
311.56
311.665
311.776
311.884
311.984
312.072
312.142
312.192
312.218
312.218
312.192
312.142
312.072
311.984
311.884
311.776
311.665
311.56
311.479
303.848
303.875
303.91
303.947
303.983
304.017
304.046
304.07
304.087
304.095
304.095
304.087
304.07
304.046
304.017
303.983
303.947
303.91
303.875
303.848
359.335
359.74
360.231
360.735
361.223
361.672
362.065
362.38
362.601
362.715
362.715
362.601
362.38
362.065
361.672
361.223
360.735
360.231
359.74
359.335
351.415
351.757
352.181
352.618
353.04
353.43
353.771
354.044
354.236
354.335
354.335
354.236
354.044
353.771
353.43
353.04
352.618
352.181
351.757
351.415
343.5
343.784
344.141
344.51
344.868
345.198
345.487
345.718
345.88
345.964
345.964
345.88
345.718
345.487
345.198
344.868
344.51
344.141
343.784
343.5
335.59
335.818
336.109
336.412
336.705
336.975
337.211
337.4
337.533
337.602
337.602
337.533
337.4
337.211
336.975
336.705
336.412
336.109
335.818
335.59
327.684
327.859
328.085
328.32
328.548
328.759
328.942
329.09
329.193
329.246
329.246
329.193
329.09
328.942
328.759
328.548
328.32
328.085
327.859
327.684
319.781
319.905
320.067
320.235
320.397
320.548
320.679
320.785
320.858
320.897
320.897
320.858
320.785
320.679
320.548
320.397
320.235
320.067
319.905
319.781
311.881
311.955
312.052
312.153
312.251
312.341
312.42
312.483
312.528
312.551
312.551
312.528
312.483
312.42
312.341
312.251
312.153
312.052
311.955
311.881
303.983
304.007
304.04
304.073
304.106
304.137
304.163
304.184
304.199
304.207
304.207
304.199
304.184
304.163
304.137
304.106
304.073
304.04
304.007
303.983
361.49
361.862
362.312
362.771
363.213
363.619
363.971
364.253
364.45
364.552
364.552
364.45
364.253
363.971
363.619
363.213
362.771
362.312
361.862
361.49
353.273
353.588
353.976
354.374
354.757
355.109
355.415
355.66
355.831
355.919
355.919
355.831
355.66
355.415
355.109
354.757
354.374
353.976
353.588
353.273
345.065
345.326
345.654
345.99
346.315
346.613
346.872
347.079
347.224
347.299
347.299
347.224
347.079
346.872
346.613
346.315
345.99
345.654
345.326
345.065
336.866
337.076
337.343
337.618
337.884
338.128
338.34
338.51
338.629
338.69
338.69
338.629
338.51
338.34
338.128
337.884
337.618
337.343
337.076
336.866
328.674
328.835
329.042
329.256
329.463
329.653
329.818
329.95
330.043
330.09
330.09
330.043
329.95
329.818
329.653
329.463
329.256
329.042
328.835
328.674
320.487
320.601
320.749
320.902
321.05
321.186
321.304
321.398
321.464
321.498
321.498
321.464
321.398
321.304
321.186
321.05
320.902
320.749
320.601
320.487
312.304
312.372
312.461
312.553
312.642
312.723
312.794
312.851
312.891
312.911
312.911
312.891
312.851
312.794
312.723
312.642
312.553
312.461
312.372
312.304
304.124
304.147
304.177
304.208
304.237
304.265
304.288
304.307
304.321
304.328
304.328
304.321
304.307
304.288
304.265
304.237
304.208
304.177
304.147
304.124
363.714
364.056
364.468
364.887
365.288
365.655
365.972
366.226
366.402
366.493
366.493
366.402
366.226
365.972
365.655
365.288
364.887
364.468
364.056
363.714
355.182
355.472
355.828
356.191
356.539
356.858
357.133
357.353
357.506
357.585
357.585
357.506
357.353
357.133
356.858
356.539
356.191
355.828
355.472
355.182
346.667
346.907
347.207
347.515
347.81
348.08
348.313
348.499
348.629
348.696
348.696
348.629
348.499
348.313
348.08
347.81
347.515
347.207
346.907
346.667
338.167
338.36
338.605
338.857
339.099
339.32
339.511
339.664
339.77
339.825
339.825
339.77
339.664
339.511
339.32
339.099
338.857
338.605
338.36
338.167
329.68
329.828
330.018
330.214
330.402
330.574
330.723
330.842
330.925
330.968
330.968
330.925
330.842
330.723
330.574
330.402
330.214
330.018
329.828
329.68
321.203
321.308
321.443
321.583
321.718
321.841
321.947
322.032
322.092
322.122
322.122
322.092
322.032
321.947
321.841
321.718
321.583
321.443
321.308
321.203
312.733
312.796
312.877
312.961
313.042
313.116
313.18
313.231
313.267
313.285
313.285
313.267
313.231
313.18
313.116
313.042
312.961
312.877
312.796
312.733
304.268
304.289
304.316
304.344
304.371
304.396
304.417
304.435
304.447
304.453
304.453
304.447
304.435
304.417
304.396
304.371
304.344
304.316
304.289
304.268
365.863
366.18
366.56
366.944
367.311
367.646
367.934
368.163
368.323
368.405
368.405
368.323
368.163
367.934
367.646
367.311
366.944
366.56
366.18
365.863
357.005
357.273
357.601
357.935
358.254
358.545
358.796
358.995
359.134
359.205
359.205
359.134
358.995
358.796
358.545
358.254
357.935
357.601
357.273
357.005
348.18
348.402
348.68
348.963
349.233
349.48
349.693
349.862
349.979
350.04
350.04
349.979
349.862
349.693
349.48
349.233
348.963
348.68
348.402
348.18
339.384
339.564
339.79
340.022
340.244
340.446
340.621
340.759
340.856
340.906
340.906
340.856
340.759
340.621
340.446
340.244
340.022
339.79
339.564
339.384
330.614
330.752
330.928
331.108
331.281
331.439
331.575
331.683
331.758
331.797
331.797
331.758
331.683
331.575
331.439
331.281
331.108
330.928
330.752
330.614
321.863
321.961
322.086
322.216
322.339
322.452
322.549
322.627
322.681
322.708
322.708
322.681
322.627
322.549
322.452
322.339
322.216
322.086
321.961
321.863
313.127
313.185
313.261
313.338
313.413
313.48
313.539
313.585
313.618
313.634
313.634
313.618
313.585
313.539
313.48
313.413
313.338
313.261
313.185
313.127
304.399
304.419
304.444
304.47
304.495
304.518
304.537
304.553
304.564
304.569
304.569
304.564
304.553
304.537
304.518
304.495
304.47
304.444
304.419
304.399
367.557
367.854
368.212
368.573
368.916
369.228
369.496
369.709
369.857
369.932
369.932
369.857
369.709
369.496
369.228
368.916
368.573
368.212
367.854
367.557
358.386
358.639
358.949
359.263
359.563
359.835
360.068
360.254
360.383
360.449
360.449
360.383
360.254
360.068
359.835
359.563
359.263
358.949
358.639
358.386
349.29
349.501
349.763
350.03
350.285
350.516
350.715
350.873
350.983
351.04
351.04
350.983
350.873
350.715
350.516
350.285
350.03
349.763
349.501
349.29
340.256
340.426
340.641
340.86
341.069
341.259
341.423
341.553
341.643
341.689
341.689
341.643
341.553
341.423
341.259
341.069
340.86
340.641
340.426
340.256
331.27
331.401
331.568
331.739
331.902
332.051
332.178
332.28
332.35
332.386
332.386
332.35
332.28
332.178
332.051
331.902
331.739
331.568
331.401
331.27
322.321
322.414
322.533
322.655
322.772
322.879
322.97
323.043
323.093
323.119
323.119
323.093
323.043
322.97
322.879
322.772
322.655
322.533
322.414
322.321
313.398
313.453
313.525
313.598
313.669
313.733
313.788
313.831
313.862
313.877
313.877
313.862
313.831
313.788
313.733
313.669
313.598
313.525
313.453
313.398
304.489
304.508
304.532
304.557
304.58
304.602
304.62
304.635
304.645
304.65
304.65
304.645
304.635
304.62
304.602
304.58
304.557
304.532
304.508
304.489
)
;

boundaryField
{
    hotSide
    {
        type            fixedGradient;
        gradient        nonuniform List<scalar> 
400
(
465.682
466.955
469.51
473.367
478.55
485.095
493.037
502.419
513.283
525.673
539.629
555.19
572.393
591.269
611.847
634.15
658.198
684.009
711.595
740.966
477.399
478.579
480.952
484.543
489.388
495.529
503.016
511.904
522.248
534.101
547.516
562.54
579.217
597.585
617.676
639.517
663.132
688.537
715.745
744.767
490.079
491.148
493.305
496.581
501.023
506.69
513.646
521.96
531.703
542.942
555.743
570.162
586.253
604.059
623.617
644.957
668.104
693.075
719.883
748.537
503.512
504.453
506.357
509.268
513.247
518.369
524.719
532.383
541.451
552.007
564.128
577.886
593.34
610.541
629.531
650.341
672.997
697.517
723.913
752.19
517.324
518.12
519.74
522.243
525.705
530.224
535.906
542.86
551.197
561.017
572.416
585.474
600.262
616.835
635.24
655.51
677.67
701.737
727.721
755.626
530.937
531.578
532.896
534.963
537.878
541.761
546.743
552.959
560.54
569.608
580.272
592.626
606.749
622.701
640.531
660.275
681.956
705.589
731.181
758.735
543.573
544.059
545.075
546.709
549.083
552.339
556.637
562.135
568.987
577.335
587.301
598.992
612.492
627.868
645.17
664.433
685.678
708.92
734.161
761.401
554.298
554.643
555.388
556.634
558.522
561.221
564.912
569.778
575.993
583.715
593.079
604.201
617.171
632.06
648.917
667.777
688.661
711.579
736.533
763.516
562.146
562.384
562.921
563.87
565.39
567.666
570.899
575.29
581.028
588.284
597.203
607.906
620.488
635.021
651.555
670.125
690.749
713.436
738.184
764.985
566.305
566.485
566.908
567.696
569.015
571.062
574.048
578.183
583.665
590.671
599.353
609.833
622.209
636.555
652.919
671.337
691.825
714.391
739.031
765.738
566.305
566.485
566.908
567.696
569.015
571.062
574.048
578.183
583.665
590.671
599.353
609.833
622.209
636.555
652.919
671.337
691.825
714.391
739.031
765.738
562.146
562.384
562.921
563.87
565.39
567.666
570.899
575.29
581.028
588.284
597.203
607.906
620.488
635.021
651.555
670.125
690.749
713.436
738.184
764.985
554.298
554.643
555.388
556.634
558.522
561.221
564.912
569.778
575.993
583.715
593.079
604.201
617.171
632.06
648.917
667.777
688.661
711.579
736.533
763.516
543.573
544.059
545.075
546.709
549.083
552.339
556.637
562.135
568.987
577.335
587.301
598.992
612.492
627.868
645.17
664.433
685.678
708.92
734.161
761.401
530.937
531.578
532.896
534.963
537.878
541.761
546.743
552.959
560.54
569.608
580.272
592.626
606.749
622.701
640.531
660.275
681.956
705.589
731.181
758.735
517.324
518.12
519.74
522.243
525.705
530.224
535.906
542.86
551.197
561.017
572.416
585.474
600.262
616.835
635.24
655.51
677.67
701.737
727.721
755.626
503.512
504.453
506.357
509.268
513.247
518.369
524.719
532.383
541.451
552.007
564.128
577.886
593.34
610.541
629.531
650.341
672.997
697.517
723.913
752.19
490.079
491.148
493.305
496.581
501.023
506.69
513.646
521.96
531.703
542.942
555.743
570.162
586.253
604.059
623.617
644.957
668.104
693.075
719.883
748.537
477.399
478.579
480.952
484.543
489.388
495.529
503.016
511.904
522.248
534.101
547.516
562.54
579.217
597.585
617.676
639.517
663.132
688.537
715.745
744.767
465.682
466.955
469.51
473.367
478.55
485.095
493.037
502.419
513.283
525.673
539.629
555.19
572.393
591.269
611.847
634.15
658.198
684.009
711.595
740.966
)
;
    }
    coldSide
    {
        type            mixed;
        refValue        uniform 300;
        refGradient     uniform 0;
        valueFraction   uniform 0.991591;
        source          uniform 0;
        value           nonuniform List<scalar> 
400
(
300.025
300.025
300.025
300.025
300.026
300.026
300.026
300.027
300.027
300.028
300.029
300.029
300.03
300.031
300.032
300.033
300.035
300.036
300.037
300.038
300.025
300.025
300.026
300.026
300.026
300.026
300.027
300.027
300.028
300.028
300.029
300.03
300.031
300.032
300.033
300.034
300.035
300.036
300.037
300.038
300.026
300.026