/*--------------------------------*- C++ -*----------------------------------*\
| =========                 |                                                 |
| \\      /  F ield         | OpenFOAM: The Open Source CFD Toolbox           |
|  \\    /   O peration     | Version:  2212                                  |
|   \\  /    A nd           | Website:  www.openfoam.com                      |
|    \\/     M anipulation  |                                                 |
\*---------------------------------------------------------------------------*/
FoamFile
{
    version     2.0;
    format      ascii;
    arch        "LSB;label=32;scalar=64";
    class       volScalarField;
    location    "0";
    object      Tdirect;
}
// * * * * * * * * * * * * * * * * * * * * * * * * * * * * * * * * * * * * * //

dimensions      [0 0 0 1 0 0 0];

internalField   nonuniform List<scalar> 
3200
(
357.376
358.445
359.777
361.217
362.698
364.152
365.496
366.632
367.46
367.897
367.897
367.46
366.632
365.496
364.152
362.698
361.217
359.777
358.445
357.376
351.202
352.092
353.221
354.445
355.704
356.939
358.08
359.043
359.746
360.117
360.117
359.746
359.043
358.08
356.939
355.704
354.445
353.221
352.092
351.202
344.516
345.243
346.179
347.197
348.243
349.269
350.217
351.017
351.6
351.908
351.908
351.6
351.017
350.217
349.269
348.243
347.197
346.179
345.243
344.516
337.331
337.908
338.661
339.481
340.324
341.151
341.914
342.558
343.027
343.275
343.275
343.027
342.558
341.914
341.151
340.324
339.481
338.661
337.908
337.331
329.674
330.112
330.689
331.319
331.966
332.601
333.187
333.681
334.041
334.231
334.231
334.041
333.681
333.187
332.601
331.966
331.319
330.689
330.112
329.674
321.587
321.895
322.303
322.748
323.206
323.655
324.07
324.419
324.674
324.808
324.808
324.674
324.419
324.07
323.655
323.206
322.748
322.303
321.895
321.587
313.142
313.324
313.567
313.833
314.106
314.374
314.621
314.83
314.981
315.062
315.062
314.981
314.83
314.621
314.374
314.106
313.833
313.567
313.324
313.142
304.441
304.501
304.582
304.671
304.763
304.852
304.935
305.004
305.055
305.082
305.082
305.055
305.004
304.935
304.852
304.763
304.671
304.582
304.501
304.441
357.445
358.505
359.826
361.252
362.718
364.156
365.484
366.605
367.422
367.854
367.854
367.422
366.605
365.484
364.156
362.718
361.252
359.826
358.505
357.445
351.26
352.143
353.263
354.475
355.721
356.942
358.07
359.021
359.715
360.081
360.081
359.715
359.021
358.07
356.942
355.721
354.475
353.263
352.143
351.26
344.565
345.285
346.214
347.222
348.257
349.273
350.209
350.999
351.575
351.878
351.878
351.575
350.999
350.209
349.273
348.257
347.222
346.214
345.285
344.565
337.37
337.943
338.689
339.501
340.336
341.153
341.908
342.544
343.007
343.251
343.251
343.007
342.544
341.908
341.153
340.336
339.501
338.689
337.943
337.37
329.704
330.138
330.711
331.334
331.975
332.603
333.182
333.67
334.025
334.213
334.213
334.025
333.67
333.182
332.603
331.975
331.334
330.711
330.138
329.704
321.609
321.913
322.318
322.759
323.213
323.657
324.066
324.411
324.663
324.795
324.795
324.663
324.411
324.066
323.657
323.213
322.759
322.318
321.913
321.609
313.154
313.335
313.576
313.839
314.11
314.375
314.619
314.825
314.975
315.054
315.054
314.975
314.825
314.619
314.375
314.11
313.839
313.576
313.335
313.154
304.445
304.505
304.586
304.673
304.764
304.852
304.934
305.003
305.053
305.079
305.079
305.053
305.003
304.934
304.852
304.764
304.673
304.586
304.505
304.445
357.583
358.626
359.925
361.325
362.761
364.168
365.464
366.558
367.354
367.774
367.774
367.354
366.558
365.464
364.168
362.761
361.325
359.925
358.626
357.583
351.378
352.247
353.347
354.537
355.758
356.953
358.054
358.982
359.657
360.014
360.014
359.657
358.982
358.054
356.953
355.758
354.537
353.347
352.247
351.378
344.662
345.372
346.284
347.273
348.288
349.281
350.196
350.967
351.527
351.823
351.823
351.527
350.967
350.196
349.281
348.288
347.273
346.284
345.372
344.662
337.449
338.012
338.746
339.543
340.361
341.161
341.897
342.518
342.969
343.207
343.207
342.969
342.518
341.897
341.161
340.361
339.543
338.746
338.012
337.449
329.764
330.192
330.754
331.366
331.994
332.609
333.174
333.651
333.997
334.179
334.179
333.997
333.651
333.174
332.609
331.994
331.366
330.754
330.192
329.764
321.651
321.951
322.349
322.782
323.226
323.661
324.061
324.398
324.643
324.772
324.772
324.643
324.398
324.061
323.661
323.226
322.782
322.349
321.951
321.651
313.18
313.358
313.595
313.853
314.118
314.378
314.616
314.817
314.963
315.04
315.04
314.963
314.817
314.616
314.378
314.118
313.853
313.595
313.358
313.18
304.453
304.513
304.592
304.678
304.767
304.853
304.933
305
305.049
305.075
305.075
305.049
305
304.933
304.853
304.767
304.678
304.592
304.513
304.453
357.793
358.812
360.078
361.44
362.833
364.194
365.446
366.5
367.266
367.67
367.67
367.266
366.5
365.446
364.194
362.833
361.44
360.078
358.812
357.793
351.556
352.405
353.478
354.635
355.819
356.976
358.039
358.934
359.584
359.926
359.926
359.584
358.934
358.039
356.976
355.819
354.635
353.478
352.405
351.556
344.81
345.503
346.393
347.355
348.34
349.301
350.185
350.928
351.467
351.752
351.752
351.467
350.928
350.185
349.301
348.34
347.355
346.393
345.503
344.81
337.568
338.118
338.834
339.609
340.402
341.177
341.889
342.487
342.921
343.15
343.15
342.921
342.487
341.889
341.177
340.402
339.609
338.834
338.118
337.568
329.856
330.273
330.822
331.417
332.027
332.622
333.168
333.627
333.96
334.136
334.136
333.96
333.627
333.168
332.622
332.027
331.417
330.822
330.273
329.856
321.716
322.009
322.397
322.818
323.249
323.67
324.057
324.381
324.617
324.741
324.741
324.617
324.381
324.057
323.67
323.249
322.818
322.397
322.009
321.716
313.218
313.392
313.623
313.875
314.132
314.383
314.614
314.807
314.948
315.022
315.022
314.948
314.807
314.614
314.383
314.132
313.875
313.623
313.392
313.218
304.466
304.524
304.601
304.685
304.771
304.855
304.932
304.997
305.044
305.068
305.068
305.044
304.997
304.932
304.855
304.771
304.685
304.601
304.524
304.466
358.078
359.066
360.29
361.603
362.941
364.246
365.442
366.446
367.174
367.558
367.558
367.174
366.446
365.442
364.246
362.941
361.603
360.29
359.066
358.078
351.798
352.621
353.658
354.774
355.912
357.021
358.037
358.889
359.507
359.833
359.833
359.507
358.889
358.037
357.021
355.912
354.774
353.658
352.621
351.798
345.011
345.683
346.543
347.471
348.418
349.339
350.183
350.891
351.405
351.675
351.675
351.405
350.891
350.183
349.339
348.418
347.471
346.543
345.683
345.011
337.73
338.263
338.955
339.703
340.466
341.208
341.888
342.458
342.871
343.089
343.089
342.871
342.458
341.888
341.208
340.466
339.703
338.955
338.263
337.73
329.98
330.385
330.915
331.489
332.075
332.646
333.168
333.605
333.923
334.09
334.09
333.923
333.605
333.168
332.646
332.075
331.489
330.915
330.385
329.98
321.804
322.088
322.463
322.869
323.284
323.687
324.057
324.366
324.591
324.709
324.709
324.591
324.366
324.057
323.687
323.284
322.869
322.463
322.088
321.804
313.271
313.439
313.663
313.905
314.153
314.393
314.614
314.798
314.932
315.003
315.003
314.932
314.798
314.614
314.393
314.153
313.905
313.663
313.439
313.271
304.484
304.54
304.614
304.695
304.778
304.859
304.932
304.994
305.039
305.062
305.062
305.039
304.994
304.932
304.859
304.778
304.695
304.614
304.54
304.484
358.441
359.392
360.567
361.822
363.097
364.335
365.466
366.413
367.098
367.458
367.458
367.098
366.413
365.466
364.335
363.097
361.822
360.567
359.392
358.441
352.107
352.899
353.894
354.961
356.046
357.098
358.059
358.863
359.444
359.75
359.75
359.444
358.863
358.059
357.098
356.046
354.961
353.894
352.899
352.107
345.268
345.914
346.74
347.627
348.529
349.404
350.202
350.87
351.353
351.607
351.607
351.353
350.87
350.202
349.404
348.529
347.627
346.74
345.914
345.268
337.937
338.45
339.114
339.829
340.556
341.261
341.904
342.442
342.831
343.035
343.035
342.831
342.442
341.904
341.261
340.556
339.829
339.114
338.45
337.937
330.139
330.528
331.037
331.586
332.145
332.686
333.18
333.593
333.892
334.049
334.049
333.892
333.593
333.18
332.686
332.145
331.586
331.037
330.528
330.139
321.916
322.189
322.549
322.938
323.333
323.716
324.066
324.358
324.569
324.68
324.68
324.569
324.358
324.066
323.716
323.333
322.938
322.549
322.189
321.916
313.338
313.5
313.714
313.946
314.182
314.411
314.619
314.794
314.919
314.986
314.986
314.919
314.794
314.619
314.411
314.182
313.946
313.714
313.5
313.338
304.506
304.56
304.632
304.709
304.788
304.864
304.934
304.992
305.034
305.056
305.056
305.034
304.992
304.934
304.864
304.788
304.709
304.632
304.56
304.506
358.888
359.797
360.916
362.107
363.312
364.476
365.536
366.42
367.058
367.393
367.393
367.058
366.42
365.536
364.476
363.312
362.107
360.916
359.797
358.888
352.486
353.243
354.191
355.204
356.229
357.219
358.119
358.87
359.412
359.696
359.696
359.412
358.87
358.119
357.219
356.229
355.204
354.191
353.243
352.486
345.583
346.201
346.988
347.83
348.682
349.505
350.254
350.878
351.328
351.564
351.564
351.328
350.878
350.254
349.505
348.682
347.83
346.988
346.201
345.583
338.19
338.681
339.314
339.992
340.679
341.343
341.946
342.449
342.811
343.001
343.001
342.811
342.449
341.946
341.343
340.679
339.992
339.314
338.681
338.19
330.333
330.706
331.191
331.712
332.24
332.75
333.213
333.599
333.877
334.023
334.023
333.877
333.599
333.213
332.75
332.24
331.712
331.191
330.706
330.333
322.054
322.315
322.658
323.027
323.401
323.761
324.089
324.362
324.559
324.662
324.662
324.559
324.362
324.089
323.761
323.401
323.027
322.658
322.315
322.054
313.42
313.575
313.779
313.999
314.222
314.438
314.633
314.796
314.914
314.975
314.975
314.914
314.796
314.633
314.438
314.222
313.999
313.779
313.575
313.42
304.534
304.585
304.653
304.727
304.801
304.873
304.939
304.993
305.032
305.053
305.053
305.032
304.993
304.939
304.873
304.801
304.727
304.653
304.585
304.534
359.421
360.285
361.344
362.466
363.596
364.683
365.668
366.486
367.075
367.384
367.384
367.075
366.486
365.668
364.683
363.596
362.466
361.344
360.285
359.421
352.939
353.658
354.556
355.51
356.471
357.395
358.233
358.928
359.428
359.69
359.69
359.428
358.928
358.233
357.395
356.471
355.51
354.556
353.658
352.939
345.959
346.547
347.291
348.085
348.884
349.653
350.349
350.927
351.343
351.56
351.56
351.343
350.927
350.349
349.653
348.884
348.085
347.291
346.547
345.959
338.494
338.96
339.559
340.198
340.843
341.462
342.023
342.489
342.824
342.999
342.999
342.824
342.489
342.023
341.462
340.843
340.198
339.559
338.96
338.494
330.567
330.92
331.38
331.871
332.366
332.842
333.273
333.631
333.888
334.022
334.022
333.888
333.631
333.273
332.842
332.366
331.871
331.38
330.92
330.567
322.219
322.467
322.792
323.139
323.49
323.827
324.132
324.385
324.567
324.662
324.662
324.567
324.385
324.132
323.827
323.49
323.139
322.792
322.467
322.219
313.518
313.666
313.859
314.067
314.276
314.477
314.659
314.81
314.918
314.975
314.975
314.918
314.81
314.659
314.477
314.276
314.067
313.859
313.666
313.518
304.566
304.615
304.68
304.749
304.819
304.886
304.947
304.998
305.034
305.053
305.053
305.034
304.998
304.947
304.886
304.819
304.749
304.68
304.615
304.566
360.047
360.863
361.86
362.91
363.962
364.97
365.878
366.63
367.169
367.451
367.451
367.169
366.63
365.878
364.97
363.962
362.91
361.86
360.863
360.047
353.471
354.15
354.995
355.888
356.783
357.64
358.412
359.051
359.51
359.749
359.749
359.51
359.051
358.412
357.64
356.783
355.888
354.995
354.15
353.471
346.401
346.956
347.657
348.4
349.145
349.857
350.499
351.031
351.412
351.611
351.611
351.412
351.031
350.499
349.857
349.145
348.4
347.657
346.956
346.401
338.85
339.29
339.854
340.453
341.053
341.628
342.145
342.573
342.88
343.041
343.041
342.88
342.573
342.145
341.628
341.053
340.453
339.854
339.29
338.85
330.84
331.174
331.606
332.066
332.528
332.969
333.367
333.696
333.932
334.055
334.055
333.932
333.696
333.367
332.969
332.528
332.066
331.606
331.174
330.84
322.413
322.647
322.952
323.278
323.605
323.917
324.198
324.431
324.598
324.685
324.685
324.598
324.431
324.198
323.917
323.605
323.278
322.952
322.647
322.413
313.634
313.773
313.955
314.149
314.344
314.531
314.699
314.838
314.937
314.989
314.989
314.937
314.838
314.699
314.531
314.344
314.149
313.955
313.773
313.634
304.605
304.651
304.712
304.777
304.842
304.904
304.961
305.007
305.04
305.058
305.058
305.04
305.007
304.961
304.904
304.842
304.777
304.712
304.651
304.605
360.77
361.537
362.469
363.447
364.421
365.349
366.181
366.867
367.358
367.614
367.614
367.358
366.867
366.181
365.349
364.421
363.447
362.469
361.537
360.77
354.086
354.724
355.514
356.346
357.174
357.963
358.671
359.255
359.672
359.889
359.889
359.672
359.255
358.671
357.963
357.174
356.346
355.514
354.724
354.086
346.912
347.434
348.089
348.781
349.47
350.127
350.716
351.201
351.548
351.728
351.728
351.548
351.201
350.716
350.127
349.47
348.781
348.089
347.434
346.912
339.262
339.675
340.203
340.76
341.316
341.846
342.32
342.711
342.991
343.136
343.136
342.991
342.711
342.32
341.846
341.316
340.76
340.203
339.675
339.262
331.156
331.47
331.875
332.303
332.73
333.137
333.502
333.802
334.017
334.129
334.129
334.017
333.802
333.502
333.137
332.73
332.303
331.875
331.47
331.156
322.636
322.857
323.142
323.445
323.748
324.036
324.294
324.507
324.659
324.738
324.738
324.659
324.507
324.294
324.036
323.748
323.445
323.142
322.857
322.636
313.768
313.898
314.068
314.249
314.43
314.602
314.756
314.883
314.973
315.021
315.021
314.973
314.883
314.756
314.602
314.43
314.249
314.068
313.898
313.768
304.65
304.693
304.75
304.81
304.871
304.928
304.98
305.022
305.052
305.068
305.068
305.052
305.022
304.98
304.928
304.871
304.81
304.75
304.693
304.65
361.595
362.312
363.18
364.085
364.983
365.832
366.591
367.214
367.658
367.889
367.889
367.658
367.214
366.591
365.832
364.983
364.085
363.18
362.312
361.595
354.787
355.384
356.119
356.889
357.653
358.375
359.021
359.551
359.928
360.124
360.124
359.928
359.551
359.021
358.375
357.653
356.889
356.119
355.384
354.787
347.495
347.983
348.593
349.234
349.869
350.47
351.007
351.448
351.762
351.925
351.925
351.762
351.448
351.007
350.47
349.869
349.234
348.593
347.983
347.495
339.732
340.118
340.609
341.126
341.638
342.123
342.556
342.911
343.164
343.296
343.296
343.164
342.911
342.556
342.123
341.638
341.126
340.609
340.118
339.732
331.517
331.811
332.187
332.584
332.978
333.351
333.683
333.956
334.15
334.252
334.252
334.15
333.956
333.683
333.351
332.978
332.584
332.187
331.811
331.517
322.892
323.098
323.364
323.645
323.923
324.187
324.423
324.616
324.753
324.825
324.825
324.753
324.616
324.423
324.187
323.923
323.645
323.364
323.098
322.892
313.92
314.042
314.201
314.368
314.535
314.692
314.833
314.948
315.03
315.073
315.073
315.03
314.948
314.833
314.692
314.535
314.368
314.201
314.042
313.92
304.701
304.741
304.794
304.85
304.906
304.958
305.005
305.044
305.071
305.086
305.086
305.071
305.044
305.005
304.958
304.906
304.85
304.794
304.741
304.701
362.526
363.194
363.998
364.833
365.656
366.43
367.119
367.681
368.081
368.288
368.288
368.081
367.681
367.119
366.43
365.656
364.833
363.998
363.194
362.526
355.578
356.134
356.816
357.526
358.226
358.885
359.471
359.949
360.289
360.466
360.466
360.289
359.949
359.471
358.885
358.226
357.526
356.816
356.134
355.578
348.153
348.607
349.173
349.764
350.346
350.895
351.382
351.78
352.063
352.21
352.21
352.063
351.78
351.382
350.895
350.346
349.764
349.173
348.607
348.153
340.262
340.622
341.077
341.553
342.023
342.466
342.859
343.18
343.408
343.526
343.526
343.408
343.18
342.859
342.466
342.023
341.553
341.077
340.622
340.262
331.925
332.198
332.547
332.913
333.274
333.614
333.916
334.163
334.338
334.429
334.429
334.338
334.163
333.916
333.614
333.274
332.913
332.547
332.198
331.925
323.18
323.372
323.619
323.878
324.133
324.374
324.588
324.762
324.886
324.951
324.951
324.886
324.762
324.588
324.374
324.133
323.878
323.619
323.372
323.18
314.092
314.206
314.353
314.507
314.66
314.804
314.931
315.035
315.109
315.148
315.148
315.109
315.035
314.931
314.804
314.66
314.507
314.353
314.206
314.092
304.758
304.796
304.845
304.897
304.948
304.996
305.038
305.073
305.098
305.111
305.111
305.098
305.073
305.038
304.996
304.948
304.897
304.845
304.796
304.758
363.567
364.187
364.93
365.696
366.447
367.151
367.773
368.279
368.638
368.824
368.824
368.638
368.279
367.773
367.151
366.447
365.696
364.93
364.187
363.567
356.463
356.979
357.609
358.261
358.9
359.499
360.028
360.459
360.764
360.922
360.922
360.764
360.459
360.028
359.499
358.9
358.261
357.609
356.979
356.463
348.89
349.311
349.833
350.376
350.908
351.406
351.847
352.205
352.459
352.59
352.59
352.459
352.205
351.847
351.406
350.908
350.376
349.833
349.311
348.89
340.855
341.19
341.61
342.047
342.476
342.878
343.234
343.523
343.727
343.833
343.833
343.727
343.523
343.234
342.878
342.476
342.047
341.61
341.19
340.855
332.381
332.634
332.956
333.293
333.623
333.932
334.205
334.427
334.584
334.666
334.666
334.584
334.427
334.205
333.932
333.623
333.293
332.956
332.634
332.381
323.503
323.681
323.908
324.146
324.38
324.599
324.792
324.95
325.061
325.119
325.119
325.061
324.95
324.792
324.599
324.38
324.146
323.908
323.681
323.503
314.285
314.39
314.526
314.668
314.807
314.938
315.053
315.147
315.214
315.248
315.248
315.214
315.147
315.053
314.938
314.807
314.668
314.526
314.39
314.285
304.822
304.858
304.903
304.95
304.997
305.041
305.079
305.111
305.133
305.144
305.144
305.133
305.111
305.079
305.041
304.997
304.95
304.903
304.858
304.822
364.722
365.295
365.978
366.68
367.364
368.001
368.561
369.016
369.336
369.502
369.502
369.336
369.016
368.561
368.001
367.364
366.68
365.978
365.295
364.722
357.445
357.922
358.501
359.098
359.68
360.222
360.7
361.086
361.359
361.5
361.5
361.359
361.086
360.7
360.222
359.68
359.098
358.501
357.922
357.445
349.706
350.095
350.576
351.073
351.557
352.009
352.406
352.728
352.955
353.072
353.072
352.955
352.728
352.406
352.009
351.557
351.073
350.576
350.095
349.706
341.513
341.822
342.209
342.61
343
343.365
343.685
343.944
344.128
344.222
344.222
344.128
343.944
343.685
343.365
343
342.61
342.209
341.822
341.513
332.886
333.121
333.417
333.725
334.026
334.305
334.552
334.751
334.892
334.965
334.965
334.892
334.751
334.552
334.305
334.026
333.725
333.417
333.121
332.886
323.861
324.025
324.235
324.453
324.665
324.864
325.038
325.179
325.279
325.331
325.331
325.279
325.179
325.038
324.864
324.665
324.453
324.235
324.025
323.861
314.498
314.596
314.721
314.851
314.978
315.096
315.2
315.284
315.344
315.375
315.375
315.344
315.284
315.2
315.096
314.978
314.851
314.721
314.596
314.498
304.894
304.926
304.968
305.011
305.054
305.093
305.128
305.156
305.176
305.187
305.187
305.176
305.156
305.128
305.093
305.054
305.011
304.968
304.926
304.894
365.991
366.52
367.147
367.788
368.409
368.984
369.488
369.895
370.181
370.329
370.329
370.181
369.895
369.488
368.984
368.409
367.788
367.147
366.52
365.991
358.524
358.964
359.496
360.041
360.569
361.059
361.488
361.835
362.078
362.204
362.204
362.078
361.835
361.488
361.059
360.569
360.041
359.496
358.964
358.524
350.603
350.962
351.404
351.857
352.297
352.705
353.062
353.351
353.553
353.658
353.658
353.553
353.351
353.062
352.705
352.297
351.857
351.404
350.962
350.603
342.237
342.522
342.877
343.242
343.597
343.926
344.215
344.447
344.611
344.695
344.695
344.611
344.447
344.215
343.926
343.597
343.242
342.877
342.522
342.237
333.442
333.658
333.93
334.212
334.485
334.737
334.959
335.138
335.263
335.328
335.328
335.263
335.138
334.959
334.737
334.485
334.212
333.93
333.658
333.442
324.254
324.406
324.598
324.797
324.99
325.17
325.326
325.453
325.542
325.588
325.588
325.542
325.453
325.326
325.17
324.99
324.797
324.598
324.406
324.254
314.733
314.823
314.938
315.056
315.172
315.279
315.372
315.448
315.501
315.528
315.528
315.501
315.448
315.372
315.279
315.172
315.056
314.938
314.823
314.733
304.972
305.002
305.04
305.08
305.119
305.154
305.186
305.211
305.229
305.238
305.238
305.229
305.211
305.186
305.154
305.119
305.08
305.04
305.002
304.972
367.374
367.861
368.436
369.019
369.582
370.101
370.553
370.917
371.172
371.304
371.304
371.172
370.917
370.553
370.101
369.582
369.019
368.436
367.861
367.374
359.699
360.104
360.592
361.088
361.567
362.009
362.394
362.704
362.921
363.033
363.033
362.921
362.704
362.394
362.009
361.567
361.088
360.592
360.104
359.699
351.581
351.911
352.315
352.729
353.128
353.495
353.816
354.074
354.255
354.348
354.348
354.255
354.074
353.816
353.495
353.128
352.729
352.315
351.911
351.581
343.024
343.286
343.612
343.945
344.267
344.564
344.822
345.03
345.176
345.251
345.251
345.176
345.03
344.822
344.564
344.267
343.945
343.612
343.286
343.024
334.047
334.246
334.495
334.751
334.999
335.227
335.426
335.586
335.698
335.756
335.756
335.698
335.586
335.426
335.227
334.999
334.751
334.495
334.246
334.047
324.682
324.821
324.998
325.179
325.354
325.516
325.657
325.77
325.85
325.891
325.891
325.85
325.77
325.657
325.516
325.354
325.179
324.998
324.821
324.682
314.988
315.071
315.176
315.284
315.389
315.485
315.57
315.637
315.685
315.709
315.709
315.685
315.637
315.57
315.485
315.389
315.284
315.176
315.071
314.988
305.058
305.085
305.12
305.156
305.191
305.224
305.252
305.274
305.29
305.298
305.298
305.29
305.274
305.252
305.224
305.191
305.156
305.12
305.085
305.058
368.862
369.309
369.835
370.367
370.876
371.344
371.75
372.075
372.302
372.419
372.419
372.302
372.075
371.75
371.344
370.876
370.367
369.835
369.309
368.862
360.962
361.334
361.78
362.232
362.666
363.064
363.41
363.687
363.881
363.98
363.98
363.881
363.687
363.41
363.064
362.666
362.232
361.78
361.334
360.962
352.629
352.933
353.303
353.679
354.04
354.372
354.66
354.89
355.052
355.135
355.135
355.052
354.89
354.66
354.372
354.04
353.679
353.303
352.933
352.629
343.868
344.109
344.406
344.71
345.002
345.269
345.502
345.688
345.818
345.885
345.885
345.818
345.688
345.502
345.269
345.002
344.71
344.406
344.109
343.868
334.694
334.877
335.105
335.339
335.563
335.769
335.947
336.09
336.191
336.242
336.242
336.191
336.09
335.947
335.769
335.563
335.339
335.105
334.877
334.694
325.14
325.268
325.429
325.594
325.753
325.899
326.026
326.127
326.198
326.234
326.234
326.198
326.127
326.026
325.899
325.753
325.594
325.429
325.268
325.14
315.261
315.337
315.433
315.532
315.627
315.714
315.789
315.85
315.892
315.914
315.914
315.892
315.85
315.789
315.714
315.627
315.532
315.433
315.337
315.261
305.149
305.174
305.206
305.239
305.271
305.3
305.325
305.345
305.359
305.367
305.367
305.359
305.345
305.325
305.3
305.271
305.239
305.206
305.174
305.149
370.424
370.835
371.316
371.8
372.262
372.684
373.049
373.34
373.543
373.648
373.648
373.543
373.34
373.049
372.684
372.262
371.8
371.316
370.835
370.424
362.282
362.624
363.033
363.445
363.838
364.198
364.509
364.757
364.93
365.019
365.019
364.93
364.757
364.509
364.198
363.838
363.445
363.033
362.624
362.282
353.721
354
354.339
354.682
355.01
355.31
355.569
355.775
355.92
355.994
355.994
355.92
355.775
355.569
355.31
355.01
354.682
354.339
354
353.721
344.744
344.965
345.238
345.515
345.78
346.022
346.231
346.397
346.514
346.574
346.574
346.514
346.397
346.231
346.022
345.78
345.515
345.238
344.965
344.744
335.364
335.533
335.742
335.955
336.158
336.344
336.505
336.634
336.723
336.769
336.769
336.723
336.634
336.505
336.344
336.158
335.955
335.742
335.533
335.364
325.613
325.731
325.878
326.029
326.174
326.305
326.419
326.51
326.574
326.606
326.606
326.574
326.51
326.419
326.305
326.174
326.029
325.878
325.731
325.613
315.543
315.613
315.701
315.791
315.877
315.956
316.024
316.078
316.116
316.136
316.136
316.116
316.078
316.024
315.956
315.877
315.791
315.701
315.613
315.543
305.243
305.266
305.295
305.325
305.354
305.381
305.403
305.421
305.434
305.441
305.441
305.434
305.421
305.403
305.381
305.354
305.325
305.295
305.266
305.243
371.968
372.347
372.79
373.233
373.655
374.038
374.368
374.631
374.813
374.907
374.907
374.813
374.631
374.368
374.038
373.655
373.233
372.79
372.347
371.968
363.572
363.888
364.264
364.642
365.002
365.329
365.61
365.834
365.99
366.07
366.07
365.99
365.834
365.61
365.329
365.002
364.642
364.264
363.888
363.572
354.777
355.035
355.348
355.663
355.962
356.235
356.47
356.657
356.787
356.854
356.854
356.787
356.657
356.47
356.235
355.962
355.663
355.348
355.035
354.777
345.583
345.788
346.04
346.294
346.537
346.757
346.947
347.098
347.203
347.257
347.257
347.203
347.098
346.947
346.757
346.537
346.294
346.04
345.788
345.583
336.002
336.158
336.351
336.547
336.733
336.903
337.049
337.165
337.246
337.288
337.288
337.246
337.165
337.049
336.903
336.733
336.547
336.351
336.158
336.002
326.06
326.169
326.306
326.444
326.577
326.697
326.801
326.883
326.941
326.97
326.97
326.941
326.883
326.801
326.697
326.577
326.444
326.306
326.169
326.06
315.808
315.873
315.954
316.037
316.116
316.188
316.25
316.299
316.334
316.351
316.351
316.334
316.299
316.25
316.188
316.116
316.037
315.954
315.873
315.808
305.331
305.353
305.38
305.408
305.434
305.458
305.479
305.495
305.507
305.512
305.512
305.507
305.495
305.479
305.458
305.434
305.408
305.38
305.353
305.331
373.222
373.578
373.992
374.407
374.799
375.155
375.46
375.703
375.872
375.958
375.958
375.872
375.703
375.46
375.155
374.799
374.407
373.992
373.578
373.222
364.58
364.877
365.231
365.585
365.921
366.225
366.487
366.695
366.839
366.913
366.913
366.839
366.695
366.487
366.225
365.921
365.585
365.231
364.877
364.58
355.576
355.819
356.113
356.41
356.691
356.945
357.164
357.338
357.459
357.521
357.521
357.459
357.338
357.164
356.945
356.691
356.41
356.113
355.819
355.576
346.202
346.396
346.633
346.873
347.1
347.307
347.484
347.625
347.723
347.773
347.773
347.723
347.625
347.484
347.307
347.1
346.873
346.633
346.396
346.202
336.463
336.61
336.793
336.977
337.153
337.312
337.449
337.557
337.633
337.672
337.672
337.633
337.557
337.449
337.312
337.153
336.977
336.793
336.61
336.463
326.378
326.482
326.611
326.742
326.867
326.98
327.077
327.154
327.208
327.235
327.235
327.208
327.154
327.077
326.98
326.867
326.742
326.611
326.482
326.378
315.995
316.057
316.134
316.212
316.287
316.354
316.412
316.458
316.49
316.507
316.507
316.49
316.458
316.412
316.354
316.287
316.212
316.134
316.057
315.995
305.393
305.413
305.439
305.465
305.49
305.513
305.532
305.548
305.559
305.564
305.564
305.559
305.548
305.532
305.513
305.49
305.465
305.439
305.413
305.393
)
;

boundaryField
{
    hotSide
    {
        type            fixedGradient;
        gradient        nonuniform List<scalar> 
400
(
452.367
453.24
454.999
457.668
461.284
465.89
471.539
478.285
486.187
495.302
505.687
517.392
530.468
544.958
560.899
578.323
597.259
617.727
639.747
663.33
468.183
468.931
470.444
472.755
475.912
479.975
485.01
491.089
498.288
506.679
516.333
527.313
539.68
553.483
568.767
585.569
603.918
623.839
645.349
668.46
485.3
485.898
487.118
489.004
491.619
495.041
499.358
504.663
511.051
518.614
527.438
537.603
549.178
562.222
576.787
592.912
610.63
629.965
650.934
673.549
503.433
503.858
504.737
506.13
508.12
510.807
514.304
518.732
524.209
530.849
538.758
548.029
558.744
570.973
584.77
600.179
617.235
635.961
656.373
678.481
522.077
522.305
522.803
523.644
524.936
526.809
529.406
532.875
537.364
543.012
549.944
558.272
568.087
579.468
592.476
607.156
623.542
641.657
661.514
683.119
540.453
540.472
540.561
540.815
541.368
542.382
544.034
546.507
549.976
554.608
560.549
567.926
576.844
587.387
599.619
613.589
629.328
646.857
666.185
687.315
557.51
557.32
557.001
556.67
556.492
556.661
557.389
558.893
561.379
565.038
570.038
576.519
584.597
594.362
605.881
619.201
634.353
651.353
670.208
690.915
571.987
571.607
570.921
570.067
569.234
568.651
568.561
569.211
570.837
573.651
577.837
583.55
590.913
600.02
610.939
623.716
638.379
654.943
673.409
693.77
582.581
582.057
581.09
579.835
578.504
577.35
576.642
576.651
577.633
579.818
583.403
588.551
595.39
604.016
614.5
626.885
641.198
657.449
675.637
695.753
588.195
587.592
586.472
584.999
583.398
581.934
580.893
580.556
581.193
583.041
586.305
591.152
597.714
606.087
616.341
628.521
642.65
658.738
676.781
696.769
588.195
587.592
586.472
584.999
583.398
581.934
580.893
580.556
581.193
583.041
586.305
591.152
597.714
606.087
616.341
628.521
642.65
658.738
676.781
696.769
582.581
582.057
581.09
579.835
578.504
577.35
576.642
576.651
577.633
579.818
583.403
588.551
595.39
604.016
614.5
626.885
641.198
657.449
675.637
695.753
571.987
571.607
570.921
570.067
569.234
568.651
568.561
569.211
570.837
573.651
577.837
583.55
590.913
600.02
610.939
623.716
638.379
654.943
673.409
693.77
557.51
557.32
557.001
556.67
556.492
556.661
557.389
558.893
561.379
565.038
570.038
576.519
584.597
594.362
605.881
619.201
634.353
651.353
670.208
690.915
540.453
540.472
540.561
540.815
541.368
542.382
544.034
546.507
549.976
554.608
560.549
567.926
576.844
587.387
599.619
613.589
629.328
646.857
666.185
687.315
522.077
522.305
522.803
523.644
524.936
526.809
529.406
532.875
537.364
543.012
549.944
558.272
568.087
579.468
592.476
607.156
623.542
641.657
661.514
683.119
503.433
503.858
504.737
506.13
508.12
510.807
514.304
518.732
524.209
530.849
538.758
548.029
558.744
570.973
584.77
600.179
617.235
635.961
656.373
678.481
485.3
485.898
487.118
489.004
491.619
495.041
499.358
504.663
511.051
518.614
527.438
537.603
549.178
562.222
576.787
592.912
610.63
629.965
650.934
673.549
468.183
468.931
470.444
472.755
475.912
479.975
485.01
491.089
498.288
506.679
516.333
527.313
539.68
553.483
568.767
585.569
603.918
623.839
645.349
668.46
452.367
453.24
454.999
457.668
461.284
465.89
471.539
478.285
486.187
495.302
505.687
517.392
530.468
544.958
560.899
578.323
597.259
617.727
639.747
663.33
)
;
    }
    coldSide
    {
        type            mixed;
        refValue        uniform 300;
        refGradient     uniform 0;
        valueFraction   uniform 0.991591;
        source          uniform 0;
        value           nonuniform List<scalar> 
400
(
300.037
300.037
300.037
300.038
300.038
300.038
300.038
300.038
300.039
300.039
300.04
300.04
300.041
300.041
300.042
300.043
300.043
300.044
300.045
300.045
300.038
300.038
300.038
300.038
300.038
300.038
300.039
300.039
300.039
300.039
300.04
300.04
300.041
300.041
300.042
300.043
300.044