/*--------------------------------*- C++ -*----------------------------------*\
| =========                 |                                                 |
| \\      /  F ield         | OpenFOAM: The Open Source CFD Toolbox           |
|  \\    /   O peration     | Version:  2212                                  |
|   \\  /    A nd           | Website:  www.openfoam.com                      |
|    \\/     M anipulation  |                                                 |
\*---------------------------------------------------------------------------*/
FoamFile
{
    version     2.0;
    format      ascii;
    arch        "LSB;label=32;scalar=64";
    class       volScalarField;
    location    "0";
    object      Ttrue;
}
// * * * * * * * * * * * * * * * * * * * * * * * * * * * * * * * * * * * * * //

dimensions      [0 0 0 1 0 0 0];

internalField   nonuniform List<scalar> 
3200
(
343.913
344.803
345.94
347.179
348.455
349.708
350.864
351.84
352.551
352.927
352.927
352.551
351.84
350.864
349.708
348.455
347.179
345.94
344.803
343.913
338.081
338.835
339.816
340.888
341.992
343.075
344.075
344.918
345.532
345.856
345.856
345.532
344.918
344.075
343.075
341.992
340.888
339.816
338.835
338.081
332.241
332.866
333.692
334.598
335.531
336.447
337.291
338.002
338.52
338.794
338.794
338.52
338.002
337.291
336.447
335.531
334.598
333.692
332.866
332.241
326.393
326.897
327.57
328.31
329.073
329.821
330.51
331.091
331.514
331.737
331.737
331.514
331.091
330.51
329.821
329.073
328.31
327.57
326.897
326.393
320.54
320.926
321.448
322.024
322.616
323.198
323.733
324.184
324.513
324.686
324.686
324.513
324.184
323.733
323.198
322.616
322.024
321.448
320.926
320.54
314.681
314.955
315.327
315.738
316.161
316.576
316.959
317.281
317.515
317.639
317.639
317.515
317.281
316.959
316.576
316.161
315.738
315.327
314.955
314.681
308.82
308.983
309.207
309.453
309.707
309.957
310.186
310.379
310.52
310.594
310.594
310.52
310.379
310.186
309.957
309.707
309.453
309.207
308.983
308.82
302.957
303.011
303.086
303.169
303.254
303.337
303.414
303.479
303.526
303.551
303.551
303.526
303.479
303.414
303.337
303.254
303.169
303.086
303.011
302.957
344.029
344.912
346.039
347.267
348.53
349.768
350.911
351.875
352.577
352.947
352.947
352.577
351.875
350.911
349.768
348.53
347.267
346.039
344.912
344.029
338.181
338.929
339.901
340.963
342.056
343.128
344.116
344.949
345.555
345.875
345.875
345.555
344.949
344.116
343.128
342.056
340.963
339.901
338.929
338.181
332.325
332.946
333.765
334.662
335.586
336.491
337.325
338.028
338.54
338.809
338.809
338.54
338.028
337.325
336.491
335.586
334.662
333.765
332.946
332.325
326.462
326.962
327.629
328.362
329.118
329.857
330.539
331.113
331.53
331.75
331.75
331.53
331.113
330.539
329.857
329.118
328.362
327.629
326.962
326.462
320.593
320.977
321.494
322.064
322.651
323.226
323.755
324.201
324.525
324.696
324.696
324.525
324.201
323.755
323.226
322.651
322.064
321.494
320.977
320.593
314.72
314.991
315.36
315.767
316.186
316.597
316.975
317.293
317.524
317.646
317.646
317.524
317.293
316.975
316.597
316.186
315.767
315.36
314.991
314.72
308.843
309.005
309.226
309.471
309.722
309.969
310.196
310.386
310.525
310.598
310.598
310.525
310.386
310.196
309.969
309.722
309.471
309.226
309.005
308.843
302.964
303.019
303.093
303.175
303.259
303.342
303.418
303.482
303.528
303.553
303.553
303.528
303.482
303.418
303.342
303.259
303.175
303.093
303.019
302.964
344.261
345.131
346.239
347.443
348.681
349.893
351.009
351.949
352.633
352.994
352.994
352.633
351.949
351.009
349.893
348.681
347.443
346.239
345.131
344.261
338.382
339.118
340.074
341.116
342.188
343.236
344.201
345.014
345.604
345.916
345.916
345.604
345.014
344.201
343.236
342.188
341.116
340.074
339.118
338.382
332.495
333.106
333.911
334.791
335.697
336.583
337.398
338.084
338.582
338.845
338.845
338.582
338.084
337.398
336.583
335.697
334.791
333.911
333.106
332.495
326.601
327.092
327.749
328.468
329.208
329.932
330.598
331.158
331.565
331.78
331.78
331.565
331.158
330.598
329.932
329.208
328.468
327.749
327.092
326.601
320.701
321.078
321.587
322.146
322.722
323.284
323.802
324.237
324.553
324.719
324.719
324.553
324.237
323.802
323.284
322.722
322.146
321.587
321.078
320.701
314.796
315.064
315.426
315.826
316.237
316.638
317.008
317.318
317.544
317.662
317.662
317.544
317.318
317.008
316.638
316.237
315.826
315.426
315.064
314.796
308.889
309.048
309.266
309.506
309.753
309.994
310.215
310.402
310.537
310.608
310.608
310.537
310.402
310.215
309.994
309.753
309.506
309.266
309.048
308.889
302.98
303.033
303.106
303.186
303.269
303.35
303.424
303.487
303.532
303.556
303.556
303.532
303.487
303.424
303.35
303.269
303.186
303.106
303.033
302.98
344.613
345.462
346.542
347.714
348.915
350.088
351.166
352.072
352.731
353.078
353.078
352.731
352.072
351.166
350.088
348.915
347.714
346.542
345.462
344.613
338.686
339.405
340.336
341.35
342.39
343.405
344.337
345.121
345.69
345.989
345.989
345.69
345.121
344.337
343.405
342.39
341.35
340.336
339.405
338.686
332.751
333.348
334.132
334.989
335.868
336.726
337.513
338.175
338.655
338.908
338.908
338.655
338.175
337.513
336.726
335.868
334.989
334.132
333.348
332.751
326.81
327.29
327.93
328.63
329.348
330.049
330.693
331.233
331.625
331.831
331.831
331.625
331.233
330.693
330.049
329.348
328.63
327.93
327.29
326.81
320.863
321.232
321.728
322.272
322.831
323.376
323.875
324.295
324.599
324.76
324.76
324.599
324.295
323.875
323.376
322.831
322.272
321.728
321.232
320.863
314.912
315.173
315.527
315.916
316.314
316.704
317.06
317.36
317.577
317.692
317.692
317.577
317.36
317.06
316.704
316.314
315.916
315.527
315.173
314.912
308.959
309.114
309.327
309.56
309.799
310.033
310.247
310.427
310.557
310.626
310.626
310.557
310.427
310.247
310.033
309.799
309.56
309.327
309.114
308.959
303.003
303.055
303.126
303.205
303.285
303.363
303.435
303.495
303.539
303.562
303.562
303.539
303.495
303.435
303.363
303.285
303.205
303.126
303.055
303.003
345.085
345.908
346.953
348.083
349.237
350.362
351.392
352.256
352.882
353.212
353.212
352.882
352.256
351.392
350.362
349.237
348.083
346.953
345.908
345.085
339.094
339.791
340.692
341.67
342.669
343.643
344.534
345.281
345.822
346.107
346.107
345.822
345.281
344.534
343.643
342.669
341.67
340.692
339.791
339.094
333.096
333.674
334.433
335.259
336.104
336.927
337.68
338.31
338.767
339.008
339.008
338.767
338.31
337.68
336.927
336.104
335.259
334.433
333.674
333.096
327.091
327.557
328.176
328.851
329.542
330.214
330.829
331.344
331.717
331.914
331.914
331.717
331.344
330.829
330.214
329.542
328.851
328.176
327.557
327.091
321.082
321.439
321.919
322.444
322.981
323.504
323.982
324.382
324.672
324.824
324.824
324.672
324.382
323.982
323.504
322.981
322.444
321.919
321.439
321.082
315.068
315.321
315.663
316.038
316.422
316.795
317.136
317.422
317.629
317.738
317.738
317.629
317.422
317.136
316.795
316.422
316.038
315.663
315.321
315.068
309.052
309.203
309.408
309.634
309.864
310.088
310.293
310.464
310.588
310.654
310.654
310.588
310.464
310.293
310.088
309.864
309.634
309.408
309.203
309.052
303.035
303.085
303.154
303.229
303.306
303.381
303.45
303.508
303.549
303.571
303.571
303.549
303.508
303.45
303.381
303.306
303.229
303.154
303.085
303.035
345.682
346.474
347.477
348.558
349.658
350.726
351.7
352.515
353.105
353.415
353.415
353.105
352.515
351.7
350.726
349.658
348.558
347.477
346.474
345.682
339.61
340.281
341.146
342.081
343.034
343.958
344.801
345.506
346.015
346.283
346.283
346.015
345.506
344.801
343.958
343.034
342.081
341.146
340.281
339.61
333.532
334.088
334.816
335.607
336.412
337.193
337.906
338.501
338.932
339.158
339.158
338.932
338.501
337.906
337.193
336.412
335.607
334.816
334.088
333.532
327.447
327.895
328.489
329.135
329.794
330.432
331.014
331.501
331.852
332.037
332.037
331.852
331.501
331.014
330.432
329.794
329.135
328.489
327.895
327.447
321.358
321.702
322.163
322.665
323.177
323.673
324.126
324.504
324.777
324.92
324.92
324.777
324.504
324.126
323.673
323.177
322.665
322.163
321.702
321.358
315.266
315.509
315.837
316.196
316.562
316.916
317.239
317.509
317.704
317.806
317.806
317.704
317.509
317.239
316.916
316.562
316.196
315.837
315.509
315.266
309.171
309.316
309.513
309.728
309.948
310.161
310.355
310.517
310.634
310.695
310.695
310.634
310.517
310.355
310.161
309.948
309.728
309.513
309.316
309.171
303.074
303.123
303.189
303.261
303.335
303.406
303.471
303.525
303.564
303.585
303.585
303.564
303.525
303.471
303.406
303.335
303.261
303.189
303.123
303.074
346.408
347.165
348.12
349.146
350.186
351.191
352.105
352.866
353.415
353.704
353.704
353.415
352.866
352.105
351.191
350.186
349.146
348.12
347.165
346.408
340.237
340.878
341.702
342.59
343.491
344.361
345.151
345.81
346.285
346.534
346.534
346.285
345.81
345.151
344.361
343.491
342.59
341.702
340.878
340.237
334.061
334.593
335.287
336.037
336.799
337.534
338.203
338.759
339.16
339.371
339.371
339.16
338.759
338.203
337.534
336.799
336.037
335.287
334.593
334.061
327.879
328.307
328.874
329.487
330.11
330.711
331.257
331.712
332.04
332.212
332.212
332.04
331.712
331.257
330.711
330.11
329.487
328.874
328.307
327.879
321.694
322.023
322.462
322.938
323.423
323.89
324.315
324.668
324.923
325.056
325.056
324.923
324.668
324.315
323.89
323.423
322.938
322.462
322.023
321.694
315.505
315.738
316.051
316.391
316.737
317.071
317.375
317.627
317.809
317.904
317.904
317.809
317.627
317.375
317.071
316.737
316.391
316.051
315.738
315.505
309.315
309.453
309.641
309.846
310.053
310.254
310.436
310.587
310.696
310.754
310.754
310.696
310.587
310.436
310.254
310.053
309.846
309.641
309.453
309.315
303.123
303.169
303.232
303.3
303.37
303.437
303.498
303.549
303.585
303.605
303.605
303.585
303.549
303.498
303.437
303.37
303.3
303.232
303.169
303.123
347.265
347.985
348.889
349.855
350.831
351.769
352.619
353.325
353.832
354.098
354.098
353.832
353.325
352.619
351.769
350.831
349.855
348.889
347.985
347.265
340.979
341.588
342.368
343.204
344.049
344.862
345.597
346.208
346.647
346.877
346.877
346.647
346.208
345.597
344.862
344.049
343.204
342.368
341.588
340.979
334.687
335.192
335.849
336.557
337.271
337.958
338.58
339.096
339.467
339.661
339.661
339.467
339.096
338.58
337.958
337.271
336.557
335.849
335.192
334.687
328.391
328.797
329.333
329.911
330.496
331.058
331.566
331.988
332.291
332.449
332.449
332.291
331.988
331.566
331.058
330.496
329.911
329.333
328.797
328.391
322.091
322.403
322.819
323.268
323.723
324.16
324.555
324.883
325.118
325.241
325.241
325.118
324.883
324.555
324.16
323.723
323.268
322.819
322.403
322.091
315.789
316.01
316.306
316.627
316.952
317.264
317.546
317.78
317.948
318.036
318.036
317.948
317.78
317.546
317.264
316.952
316.627
316.306
316.01
315.789
309.485
309.617
309.794
309.987
310.182
310.369
310.539
310.679
310.78
310.833
310.833
310.78
310.679
310.539
310.369
310.182
309.987
309.794
309.617
309.485
303.18
303.224
303.283
303.348
303.413
303.476
303.533
303.58
303.614
303.631
303.631
303.614
303.58
303.533
303.476
303.413
303.348
303.283
303.224
303.18
348.259
348.939
349.79
350.695
351.604
352.474
353.258
353.907
354.372
354.615
354.615
354.372
353.907
353.258
352.474
351.604
350.695
349.79
348.939
348.259
341.838
342.413
343.147
343.931
344.718
345.472
346.151
346.712
347.115
347.325
347.325
347.115
346.712
346.151
345.472
344.718
343.931
343.147
342.413
341.838
335.413
335.89
336.508
337.171
337.836
338.474
339.048
339.522
339.862
340.04
340.04
339.862
339.522
339.048
338.474
337.836
337.171
336.508
335.89
335.413
328.984
329.368
329.872
330.413
330.958
331.479
331.949
332.337
332.615
332.76
332.76
332.615
332.337
331.949
331.479
330.958
330.413
329.872
329.368
328.984
322.552
322.846
323.238
323.659
324.082
324.488
324.853
325.154
325.37
325.483
325.483
325.37
325.154
324.853
324.488
324.082
323.659
323.238
322.846
322.552
316.118
316.326
316.605
316.906
317.208
317.498
317.759
317.974
318.128
318.209
318.209
318.128
317.974
317.759
317.498
317.208
316.906
316.605
316.326
316.118
309.682
309.807
309.974
310.154
310.336
310.51
310.667
310.796
310.889
310.937
310.937
310.889
310.796
310.667
310.51
310.336
310.154
309.974
309.807
309.682
303.246
303.287
303.343
303.404
303.465
303.523
303.575
303.619
303.65
303.666
303.666
303.65
303.619
303.575
303.523
303.465
303.404
303.343
303.287
303.246
349.394
350.033
350.829
351.671
352.513
353.315
354.034
354.626
355.05
355.271
355.271
355.05
354.626
354.034
353.315
352.513
351.671
350.829
350.033
349.394
342.819
343.36
344.046
344.776
345.505
346.2
346.823
347.336
347.702
347.893
347.893
347.702
347.336
346.823
346.2
345.505
344.776
344.046
343.36
342.819
336.241
336.69
337.268
337.885
338.502
339.089
339.616
340.05
340.36
340.521
340.521
340.36
340.05
339.616
339.089
338.502
337.885
337.268
336.69
336.241
329.66
330.021
330.493
330.997
331.502
331.983
332.413
332.768
333.021
333.153
333.153
333.021
332.768
332.413
331.983
331.502
330.997
330.493
330.021
329.66
323.078
323.355
323.721
324.113
324.505
324.879
325.214
325.49
325.686
325.789
325.789
325.686
325.49
325.214
324.879
324.505
324.113
323.721
323.355
323.078
316.493
316.689
316.95
317.23
317.511
317.778
318.017
318.214
318.354
318.428
318.428
318.354
318.214
318.017
317.778
317.511
317.23
316.95
316.689
316.493
309.907
310.024
310.181
310.349
310.518
310.678
310.822
310.94
311.024
311.068
311.068
311.024
310.94
310.822
310.678
310.518
310.349
310.181
310.024
309.907
303.321
303.36
303.413
303.469
303.526
303.579
303.627
303.667
303.695
303.71
303.71
303.695
303.667
303.627
303.579
303.526
303.469
303.413
303.36
303.321
350.674
351.271
352.012
352.792
353.568
354.303
354.958
355.496
355.88
356.079
356.079
355.88
355.496
354.958
354.303
353.568
352.792
352.012
351.271
350.674
343.926
344.431
345.071
345.746
346.418
347.055
347.623
348.089
348.421
348.594
348.594
348.421
348.089
347.623
347.055
346.418
345.746
345.071
344.431
343.926
337.176
337.595
338.134
338.705
339.274
339.812
340.293
340.687
340.967
341.114
341.114
340.967
340.687
340.293
339.812
339.274
338.705
338.134
337.595
337.176
330.424
330.761
331.201
331.668
332.133
332.573
332.967
333.289
333.518
333.638
333.638
333.518
333.289
332.967
332.573
332.133
331.668
331.201
330.761
330.424
323.671
323.93
324.27
324.634
324.996
325.338
325.644
325.895
326.073
326.166
326.166
326.073
325.895
325.644
325.338
324.996
324.634
324.27
323.93
323.671
316.917
317.1
317.343
317.602
317.861
318.106
318.324
318.503
318.631
318.697
318.697
318.631
318.503
318.324
318.106
317.861
317.602
317.343
317.1
316.917
310.162
310.271
310.417
310.573
310.728
310.875
311.006
311.114
311.19
311.23
311.23
311.19
311.114
311.006
310.875
310.728
310.573
310.417
310.271
310.162
303.406
303.443
303.492
303.544
303.596
303.645
303.689
303.725
303.751
303.764
303.764
303.751
303.725
303.689
303.645
303.596
303.544
303.492
303.443
303.406
352.102
352.658
353.345
354.064
354.776
355.446
356.041
356.527
356.873
357.052
357.052
356.873
356.527
356.041
355.446
354.776
354.064
353.345
352.658
352.102
345.161
345.631
346.224
346.847
347.464
348.044
348.56
348.982
349.281
349.436
349.436
349.281
348.982
348.56
348.044
347.464
346.847
346.224
345.631
345.161
338.219
338.609
339.108
339.635
340.157
340.648
341.085
341.441
341.694
341.826
341.826
341.694
341.441
341.085
340.648
340.157
339.635
339.108
338.609
338.219
331.276
331.59
331.997
332.428
332.855
333.257
333.614
333.906
334.113
334.22
334.22
334.113
333.906
333.614
333.257
332.855
332.428
331.997
331.59
331.276
324.333
324.574
324.89
325.225
325.557
325.87
326.147
326.374
326.535
326.619
326.619
326.535
326.374
326.147
325.87
325.557
325.225
324.89
324.574
324.333
317.389
317.56
317.785
318.024
318.262
318.485
318.684
318.846
318.961
319.02
319.02
318.961
318.846
318.684
318.485
318.262
318.024
317.785
317.56
317.389
310.445
310.547
310.682
310.826
310.969
311.103
311.222
311.319
311.388
311.424
311.424
311.388
311.319
311.222
311.103
310.969
310.826
310.682
310.547
310.445
303.501
303.535
303.581
303.629
303.677
303.722
303.762
303.794
303.817
303.829
303.829
303.817
303.794
303.762
303.722
303.677
303.629
303.581
303.535
303.501
353.681
354.197
354.831
355.492
356.142
356.751
357.289
357.727
358.037
358.198
358.198
358.037
357.727
357.289
356.751
356.142
355.492
354.831
354.197
353.681
346.527
346.963
347.51
348.083
348.646
349.174
349.641
350.02
350.289
350.428
350.428
350.289
350.02
349.641
349.174
348.646
348.083
347.51
346.963
346.527
339.372
339.734
340.196
340.68
341.156
341.603
341.998
342.319
342.546
342.664
342.664
342.546
342.319
341.998
341.603
341.156
340.68
340.196
339.734
339.372
332.219
332.51
332.886
333.282
333.672
334.038
334.361
334.623
334.809
334.906
334.906
334.809
334.623
334.361
334.038
333.672
333.282
332.886
332.51
332.219
325.065
325.289
325.581
325.888
326.192
326.476
326.728
326.932
327.077
327.152
327.152
327.077
326.932
326.728
326.476
326.192
325.888
325.581
325.289
325.065
317.912
318.07
318.278
318.498
318.715
318.918
319.098
319.244
319.347
319.401
319.401
319.347
319.244
319.098
318.918
318.715
318.498
318.278
318.07
317.912
310.759
310.854
310.978
311.111
311.241
311.363
311.471
311.559
311.621
311.653
311.653
311.621
311.559
311.471
311.363
311.241
311.111
310.978
310.854
310.759
303.607
303.638
303.68
303.724
303.768
303.809
303.845
303.874
303.895
303.906
303.906
303.895
303.874
303.845
303.809
303.768
303.724
303.68
303.638
303.607
355.414
355.891
356.475
357.08
357.671
358.223
358.708
359.102
359.379
359.523
359.523
359.379
359.102
358.708
358.223
357.671
357.08
356.475
355.891
355.414
348.025
348.428
348.932
349.456
349.969
350.448
350.868
351.209
351.45
351.574
351.574
351.45
351.209
350.868
350.448
349.969
349.456
348.932
348.428
348.025
340.638
340.972
341.397
341.84
342.275
342.679
343.035
343.324
343.527
343.633
343.633
343.527
343.324
343.035
342.679
342.275
341.84
341.397
340.972
340.638
333.252
333.522
333.868
334.231
334.586
334.917
335.209
335.445
335.611
335.697
335.697
335.611
335.445
335.209
334.917
334.586
334.231
333.868
333.522
333.252
325.868
326.075
326.344
326.626
326.902
327.16
327.387
327.57
327.7
327.767
327.767
327.7
327.57
327.387
327.16
326.902
326.626
326.344
326.075
325.868
318.485
318.632
318.823
319.025
319.222
319.407
319.569
319.7
319.792
319.84
319.84
319.792
319.7
319.569
319.407
319.222
319.025
318.823
318.632
318.485
311.103
311.191
311.306
311.427
311.545
311.656
311.753
311.832
311.888
311.917
311.917
311.888
311.832
311.753
311.656
311.545
311.427
311.306
311.191
311.103
303.722
303.751
303.79
303.83
303.87
303.907
303.94
303.966
303.985
303.994
303.994
303.985
303.966
303.94
303.907
303.87
303.83
303.79
303.751
303.722
357.298
357.738
358.274
358.827
359.364
359.863
360.299
360.652
360.9
361.028
361.028
360.9
360.652
360.299
359.863
359.364
358.827
358.274
357.738
357.298
349.654
350.026
350.489
350.968
351.434
351.866
352.244
352.55
352.765
352.876
352.876
352.765
352.55
352.244
351.866
351.434
350.968
350.489
350.026
349.654
342.014
342.322
342.712
343.117
343.511
343.877
344.198
344.456
344.638
344.732
344.732
344.638
344.456
344.198
343.877
343.511
343.117
342.712
342.322
342.014
334.376
334.624
334.942
335.274
335.597
335.896
336.158
336.37
336.519
336.596
336.596
336.519
336.37
336.158
335.896
335.597
335.274
334.942
334.624
334.376
326.741
326.932
327.179
327.436
327.687
327.921
328.125
328.289
328.405
328.465
328.465
328.405
328.289
328.125
327.921
327.687
327.436
327.179
326.932
326.741
319.109
319.244
319.419
319.603
319.783
319.95
320.096
320.213
320.296
320.339
320.339
320.296
320.213
320.096
319.95
319.783
319.603
319.419
319.244
319.109
311.478
311.558
311.663
311.774
311.882
311.982
312.07
312.14
312.19
312.216
312.216
312.19
312.14
312.07
311.982
311.882
311.774
311.663
311.558
311.478
303.847
303.874
303.91
303.947
303.983
304.016
304.046
304.069
304.086
304.095
304.095
304.086
304.069
304.046
304.016
303.983
303.947
303.91
303.874
303.847
359.328
359.733
360.224
360.728
361.216
361.665
362.058
362.373
362.594
362.708
362.708
362.594
362.373
362.058
361.665
361.216
360.728
360.224
359.733
359.328
351.408
351.751
352.174
352.611
353.034
353.424
353.764
354.037
354.229
354.328
354.328
354.229
354.037
353.764
353.424
353.034
352.611
352.174
351.751
351.408
343.493
343.778
344.135
344.504
344.862
345.192
345.48
345.712
345.874
345.958
345.958
345.874
345.712
345.48
345.192
344.862
344.504
344.135
343.778
343.493
335.584
335.813
336.104
336.406
336.699
336.97
337.205
337.395
337.528
337.596
337.596
337.528
337.395
337.205
336.97
336.699
336.406
336.104
335.813
335.584
327.679
327.855
328.081
328.316
328.544
328.754
328.938
329.085
329.189
329.242
329.242
329.189
329.085
328.938
328.754
328.544
328.316
328.081
327.855
327.679
319.778
319.902
320.063
320.231
320.394
320.545
320.676
320.781
320.855
320.893
320.893
320.855
320.781
320.676
320.545
320.394
320.231
320.063
319.902
319.778
311.879
311.953
312.05
312.151
312.249
312.339
312.418
312.481
312.526
312.549
312.549
312.526
312.481
312.418
312.339
312.249
312.151
312.05
311.953
311.879
303.982
304.007
304.039
304.073
304.106
304.136
304.162
304.184
304.198
304.206
304.206
304.198
304.184
304.162
304.136
304.106
304.073
304.039
304.007
303.982
361.483
361.855
362.305
362.764
363.205
363.611
363.963
364.246
364.443
364.545
364.545
364.443
364.246
363.963
363.611
363.205
362.764
362.305
361.855
361.483
353.266
353.581
353.969
354.367
354.75
355.102
355.408
355.652
355.824
355.912
355.912
355.824
355.652
355.408
355.102
354.75
354.367
353.969
353.581
353.266
345.059
345.32
345.647
345.984
346.308
346.606
346.865
347.073
347.218
347.292
347.292
347.218
347.073
346.865
346.606
346.308
345.984
345.647
345.32
345.059
336.86
337.071
337.337
337.613
337.878
338.123
338.335
338.504
338.623
338.684
338.684
338.623
338.504
338.335
338.123
337.878
337.613
337.337
337.071
336.86
328.669
328.83
329.037
329.252
329.459
329.649
329.814
329.946
330.038
330.086
330.086
330.038
329.946
329.814
329.649
329.459
329.252
329.037
328.83
328.669
320.484
320.598
320.745
320.898
321.046
321.182
321.3
321.395
321.461
321.495
321.495
321.461
321.395
321.3
321.182
321.046
320.898
320.745
320.598
320.484
312.302
312.37
312.459
312.551
312.64
312.721
312.792
312.849
312.889
312.909
312.909
312.889
312.849
312.792
312.721
312.64
312.551
312.459
312.37
312.302
304.124
304.146
304.176
304.207
304.237
304.264
304.288
304.307
304.32
304.327
304.327
304.32
304.307
304.288
304.264
304.237
304.207
304.176
304.146
304.124
363.706
364.049
364.461
364.88
365.281
365.648
365.965
366.218
366.395
366.485
366.485
366.395
366.218
365.965
365.648
365.281
364.88
364.461
364.049
363.706
355.175
355.465
355.82
356.184
356.532
356.85
357.126
357.345
357.499
357.578
357.578
357.499
357.345
357.126
356.85
356.532
356.184
355.82
355.465
355.175
346.66
346.901
347.201
347.508
347.803
348.073
348.307
348.493
348.623
348.69
348.69
348.623
348.493
348.307
348.073
347.803
347.508
347.201
346.901
346.66
338.161
338.355
338.6
338.851
339.093
339.314
339.505
339.658
339.764
339.819
339.819
339.764
339.658
339.505
339.314
339.093
338.851
338.6
338.355
338.161
329.675
329.824
330.014
330.209
330.398
330.57
330.719
330.837
330.92
330.963
330.963
330.92
330.837
330.719
330.57
330.398
330.209
330.014
329.824
329.675
321.199
321.304
321.44
321.58
321.714
321.837
321.944
322.029
322.088
322.119
322.119
322.088
322.029
321.944
321.837
321.714
321.58
321.44
321.304
321.199
312.731
312.793
312.875
312.959
313.04
313.114
313.178
313.229
313.264
313.283
313.283
313.264
313.229
313.178
313.114
313.04
312.959
312.875
312.793
312.731
304.267
304.288
304.315
304.343
304.37
304.395
304.417
304.434
304.446
304.452
304.452
304.446
304.434
304.417
304.395
304.37
304.343
304.315
304.288
304.267
365.856
366.172
366.552
366.937
367.304
367.638
367.926
368.155
368.315
368.397
368.397
368.315
368.155
367.926
367.638
367.304
366.937
366.552
366.172
365.856
356.997
357.265
357.594
357.928
358.247
358.538
358.788
358.987
359.126
359.197
359.197
359.126
358.987
358.788
358.538
358.247
357.928
357.594
357.265
356.997
348.173
348.396
348.673
348.956
349.227
349.473
349.686
349.855
349.973
350.033
350.033
349.973
349.855
349.686
349.473
349.227
348.956
348.673
348.396
348.173
339.378
339.558
339.784
340.016
340.238
340.44
340.615
340.753
340.85
340.9
340.9
340.85
340.753
340.615
340.44
340.238
340.016
339.784
339.558
339.378
330.609
330.747
330.923
331.103
331.276
331.434
331.57
331.678
331.753
331.792
331.792
331.753
331.678
331.57
331.434
331.276
331.103
330.923
330.747
330.609
321.86
321.957
322.083
322.212
322.336
322.449
322.546
322.623
322.677
322.705
322.705
322.677
322.623
322.546
322.449
322.336
322.212
322.083
321.957
321.86
313.125
313.183
313.258
313.336
313.41
313.478
313.537
313.583
313.616
313.632
313.632
313.616
313.583
313.537
313.478
313.41
313.336
313.258
313.183
313.125
304.399
304.418
304.443
304.469
304.494
304.517
304.537
304.552
304.563
304.569
304.569
304.563
304.552
304.537
304.517
304.494
304.469
304.443
304.418
304.399
367.549
367.847
368.204
368.565
368.908
369.22
369.488
369.701
369.849
369.924
369.924
369.849
369.701
369.488
369.22
368.908
368.565
368.204
367.847
367.549
358.378
358.631
358.941
359.256
359.555
359.827
360.061
360.246
360.376
360.442
360.442
360.376
360.246
360.061
359.827
359.555
359.256
358.941
358.631
358.378
349.284
349.494
349.756
350.023
350.278
350.51
350.708
350.866
350.976
351.033
351.033
350.976
350.866
350.708
350.51
350.278
350.023
349.756
349.494
349.284
340.25
340.42
340.635
340.854
341.063
341.253
341.417
341.547
341.637
341.683
341.683
341.637
341.547
341.417
341.253
341.063
340.854
340.635
340.42
340.25
331.265
331.396
331.563
331.734
331.897
332.046
332.173
332.275
332.345
332.382
332.382
332.345
332.275
332.173
332.046
331.897
331.734
331.563
331.396
331.265
322.317
322.41
322.529
322.652
322.769
322.875
322.967
323.039
323.09
323.116
323.116
323.09
323.039
322.967
322.875
322.769
322.652
322.529
322.41
322.317
313.395
313.451
313.522
313.596
313.666
313.73
313.785
313.829
313.859
313.875
313.875
313.859
313.829
313.785
313.73
313.666
313.596
313.522
313.451
313.395
304.489
304.507
304.531
304.556
304.579
304.601
304.619
304.634
304.644
304.649
304.649
304.644
304.634
304.619
304.601
304.579
304.556
304.531
304.507
304.489
)
;

boundaryField
{
    hotSide
    {
        type            fixedGradient;
        gradient        nonuniform List<scalar> 
400
(
465.682
466.955
469.51
473.367
478.55
485.095
493.037
502.419
513.283
525.673
539.629
555.19
572.393
591.269
611.847
634.15
658.198
684.009
711.595
740.966
477.399
478.579
480.952
484.543
489.388
495.529
503.016
511.904
522.248
534.101
547.516
562.54
579.217
597.585
617.676
639.517
663.132
688.537
715.745
744.767
490.079
491.148
493.305
496.581
501.023
506.69
513.646
521.96
531.703
542.942
555.743
570.162
586.253
604.059
623.617
644.957
668.104
693.075
719.883
748.537
503.512
504.453
506.357
509.268
513.247
518.369
524.719
532.383
541.451
552.007
564.128
577.886
593.34
610.541
629.531
650.341
672.997
697.517
723.913
752.19
517.324
518.12
519.74
522.243
525.705
530.224
535.906
542.86
551.197
561.017
572.416
585.474
600.262
616.835
635.24
655.51
677.67
701.737
727.721
755.626
530.937
531.578
532.896
534.963
537.878
541.761
546.743
552.959
560.54
569.608
580.272
592.626
606.749
622.701
640.531
660.275
681.956
705.589
731.181
758.735
543.573
544.059
545.075
546.709
549.083
552.339
556.637
562.135
568.987
577.335
587.301
598.992
612.492
627.868
645.17
664.433
685.678
708.92
734.161
761.401
554.298
554.643
555.388
556.634
558.522
561.221
564.912
569.778
575.993
583.715
593.079
604.201
617.171
632.06
648.917
667.777
688.661
711.579
736.533
763.516
562.146
562.384
562.921
563.87
565.39
567.666
570.899
575.29
581.028
588.284
597.203
607.906
620.488
635.021
651.555
670.125
690.749
713.436
738.184
764.985
566.305
566.485
566.908
567.696
569.015
571.062
574.048
578.183
583.665
590.671
599.353
609.833
622.209
636.555
652.919
671.337
691.825
714.391
739.031
765.738
566.305
566.485
566.908
567.696
569.015
571.062
574.048
578.183
583.665
590.671
599.353
609.833
622.209
636.555
652.919
671.337
691.825
714.391
739.031
765.738
562.146
562.384
562.921
563.87
565.39
567.666
570.899
575.29
581.028
588.284
597.203
607.906
620.488
635.021
651.555
670.125
690.749
713.436
738.184
764.985
554.298
554.643
555.388
556.634
558.522
561.221
564.912
569.778
575.993
583.715
593.079
604.201
617.171
632.06
648.917
667.777
688.661
711.579
736.533
763.516
543.573
544.059
545.075
546.709
549.083
552.339
556.637
562.135
568.987
577.335
587.301
598.992
612.492
627.868
645.17
664.433
685.678
708.92
734.161
761.401
530.937
531.578
532.896
534.963
537.878
541.761
546.743
552.959
560.54
569.608
580.272
592.626
606.749
622.701
640.531
660.275
681.956
705.589
731.181
758.735
517.324
518.12
519.74
522.243
525.705
530.224
535.906
542.86
551.197
561.017
572.416
585.474
600.262
616.835
635.24
655.51
677.67
701.737
727.721
755.626
503.512
504.453
506.357
509.268
513.247
518.369
524.719
532.383
541.451
552.007
564.128
577.886
593.34
610.541
629.531
650.341
672.997
697.517
723.913
752.19
490.079
491.148
493.305
496.581
501.023
506.69
513.646
521.96
531.703
542.942
555.743
570.162
586.253
604.059
623.617
644.957
668.104
693.075
719.883
748.537
477.399
478.579
480.952
484.543
489.388
495.529
503.016
511.904
522.248
534.101
547.516
562.54
579.217
597.585
617.676
639.517
663.132
688.537
715.745
744.767
465.682
466.955
469.51
473.367
478.55
485.095
493.037
502.419
513.283
525.673
539.629
555.19
572.393
591.269
611.847
634.15
658.198
684.009
711.595
740.966
)
;
    }
    coldSide
    {
        type            mixed;
        refValue        uniform 300;
        refGradient     uniform 0;
        valueFraction   uniform 0.991591;
        source          uniform 0;
        value           nonuniform List<scalar> 
400
(
300.025
300.025
300.025
300.025
300.026
300.026
300.026
300.027
300.027
300.028
300.029
300.029
300.03
300.031
300.032
300.033
300.035
300.036
300.037
300.038
300.025
300.025
300.026
300.026
300.026
300.026
300.027
300.027
300.028
300.028
300.029
300.03
300.031