/*--------------------------------*- C++ -*----------------------------------*\
| =========                 |                                                 |
| \\      /  F ield         | OpenFOAM: The Open Source CFD Toolbox           |
|  \\    /   O peration     | Version:  2212                                  |
|   \\  /    A nd           | Website:  www.openfoam.com                      |
|    \\/     M anipulation  |                                                 |
\*---------------------------------------------------------------------------*/
FoamFile
{
    version     2.0;
    format      ascii;
    arch        "LSB;label=32;scalar=64";
    class       volScalarField;
    location    "./ITHACAoutput/true/3.5";
    object      error;
}
// * * * * * * * * * * * * * * * * * * * * * * * * * * * * * * * * * * * * * //

dimensions      [0 0 0 1 0 0 0];

internalField   nonuniform List<scalar> 
3200
(
1.65446
1.63038
1.76845
2.05747
2.53588
3.1915
3.84155
4.51673
4.89915
5.27378
5.35532
5.15534
4.8175
4.37308
3.83765
3.41268
3.04931
2.75987
2.66874
2.77771
1.28777
1.2731
1.42482
1.72284
2.19645
2.67287
3.27847
3.80889
4.16875
4.43271
4.49511
4.41067
4.09213
3.66182
3.21587
2.82096
2.53687
2.32454
2.3128
2.31814
1.01618
1.06327
1.19065
1.43546
1.75969
2.16234
2.7092
3.12009
3.4852
3.64896
3.78698
3.65431
3.40695
3.06005
2.73199
2.41675
2.11242
1.94584
1.89186
1.79277
0.793211
0.88941
0.914873
1.07788
1.38508
1.80689
2.16541
2.52389
2.85642
2.97599
3.02165
2.95559
2.68698
2.45979
2.11934
1.91805
1.66629
1.51574
1.47051
1.47142
0.591279
0.618943
0.720393
0.860005
1.12813
1.35547
1.66752
1.9687
2.10912
2.30691
2.29334
2.26003
2.16027
1.87822
1.6227
1.51683
1.27895
1.202
1.12446
1.11182
0.398037
0.465239
0.435915
0.655031
0.7391
0.947828
1.25185
1.36905
1.53644
1.53922
1.69822
1.58912
1.45303
1.32571
1.11186
0.984224
0.863954
0.880635
0.79593
0.717569
0.27439
0.258422
0.285256
0.391053
0.40207
0.544758
0.691096
0.770583
0.901948
0.970133
1.03777
0.93399
0.874296
0.784581
0.740728
0.647524
0.557081
0.537162
0.517138
0.495862
0.0352355
0.015641
0.0685407
0.0505222
0.165053
0.283511
0.311654
0.275354
0.336111
0.290687
0.345303
0.397178
0.28868
0.312392
0.260922
0.202395
0.205306
0.142018
0.173633
0.157054
0.869072
0.901699
0.971774
1.34942
1.85234
2.39711
3.05232
3.61566
4.0046
4.5274
4.48751
4.36604
3.9848
3.59702
3.08558
2.63689
2.22198
2.07041
1.93551
2.1294
0.723757
0.678825
0.888897
1.13817
1.51234
1.98097
2.56327
3.14018
3.53263
3.71611
3.88665
3.73897
3.38225
3.04482
2.57939
2.19388
1.86397
1.76004
1.68594
1.70965
0.59325
0.601298
0.681698
0.917421
1.23249
1.66126
2.1519
2.57207
2.94085
3.15744
3.27017
3.04161
2.89898
2.47907
2.15346
1.84527
1.6224
1.49663
1.41923
1.43151
0.507073
0.382776
0.579836
0.740443
1.03384
1.33371
1.71749
2.13562
2.39772
2.54352
2.68946
2.56334
2.27275
1.99986
1.74877
1.45852
1.2647
1.13138
1.19841
1.16647
0.408565
0.348805
0.393363
0.645806
0.728081
1.01719
1.36107
1.62095
1.81459
1.91573
2.0089
1.89314
1.72893
1.54637
1.25515
1.08891
0.91471
0.852971
0.86745
0.861889
0.202288
0.20473
0.295955
0.434517
0.531017
0.732617
0.956381
1.13706
1.28498
1.42343
1.47378
1.45055
1.25594
1.08636
0.948005
0.782059
0.665498
0.576993
0.612581
0.524302
0.158565
0.125766
0.167872
0.248599
0.291069
0.393425
0.586565
0.639935
0.741862
0.798388
0.832229
0.835731
0.765753
0.714511
0.623252
0.434574
0.343629
0.317231
0.337355
0.346025
0.0556939
0.0205574
0.0258862
0.122009
0.0253862
0.162192
0.166262
0.251987
0.245781
0.298144
0.284912
0.265198
0.263978
0.277118
0.230341
0.120518
0.159475
0.144425
0.124235
0.0919072
0.140374
0.0931011
0.142874
0.44947
0.891882
1.4076
1.97065
2.58504
3.01854
3.31144
3.37132
3.27062
2.87701
2.58442
2.12679
1.65272
1.33317
1.20452
1.19561
1.31204
0.016338
0.0612197
0.179316
0.341432
0.734957
1.1765
1.73862
2.15746
2.51137
2.89111
2.89564
2.81171
2.52938
2.20448
1.82838
1.47294
1.15657
0.994107
0.9875
1.09157
-0.00496808
-0.0541546
0.0434727
0.264674
0.536596
0.884128
1.40371
1.8846
2.14848
2.37635
2.39118
2.34948
2.05951
1.7757
1.48887
1.18741
0.952266
0.835903
0.771282
0.933479
-0.0848914
0.0303586
0.0592153
0.208514
0.38908
0.772321
1.158
1.42855
1.71332
1.91372
1.96956
1.94309
1.69026
1.53061
1.23321
0.932961
0.758322
0.659634
0.763595
0.725721
-0.0239567
-0.0161506
0.00623449
0.170322
0.366705
0.613113
0.885589
1.06799
1.38334
1.51122
1.42866
1.42688
1.2438
1.12974
0.924615
0.79427
0.64751
0.494752
0.535384
0.561713
0.0229633
-0.0333266
0.00914485
0.111148
0.227483
0.36059
0.599531
0.836861
0.991552
1.10114
1.09043
1.02407
0.97155
0.814361
0.640573
0.516648
0.438632
0.361349
0.344467
0.444909
-0.00322749
-0.00960402
-0.0110916
0.0192265
0.141278
0.250879
0.335263
0.480497
0.549701
0.621338
0.663469
0.579168
0.494639
0.472843
0.305434
0.292292
0.233828
0.22455
0.248299
0.245466
0.0552593
-0.00604757
0.0785348
0.0228842
0.0740586
0.11251
0.112286
0.135369
0.18359
0.230852
0.262211
0.20962
0.206587
0.231148
0.108494
0.104963
0.0815793
0.0606323
0.0771674
0.0693622
-0.683621
-0.673789
-0.655321
-0.438945
-0.0932552
0.406935
0.952901
1.46257
1.89239
2.14412
2.29623
2.09876
1.81395
1.53708
1.09821
0.766871
0.451689
0.334176
0.442896
0.655937
-0.601953
-0.633031
-0.624525
-0.381361
-0.131764
0.323156
0.768738
1.1821
1.65208
1.8369
1.92735
1.80017
1.5833
1.238
0.902174
0.625395
0.376544
0.289272
0.439252
0.492095
-0.508342
-0.559904
-0.565159
-0.395117
-0.176099
0.343656
0.686124
0.982273
1.36314
1.60423
1.64104
1.46878
1.30664
1.07305
0.757901
0.539943
0.348258
0.296058
0.311451
0.415549
-0.410844
-0.456889
-0.412714
-0.338781
-0.0755954
0.226765
0.536676
0.817642
1.07804
1.25703
1.29796
1.21218
0.99021
0.870455
0.602323
0.420447
0.292931
0.16598
0.229939
0.285245
-0.305369
-0.356899
-0.362233
-0.349227
-0.08037
0.156447
0.35164
0.662361
0.811325
0.931107
0.965304
0.899932
0.85217
0.68483
0.437331
0.310481
0.20428
0.170382
0.149027
0.260569
-0.223663
-0.319258
-0.203901
-0.162077
-0.0261203
0.145177
0.302371
0.469707
0.570949
0.684479
0.695393
0.551067
0.566687
0.473238
0.318869
0.240505
0.159618
0.114425
0.134245
0.202585
-0.0853019
-0.138046
-0.135825
-0.117326
-0.0308418
0.0951255
0.131712
0.278284
0.36483
0.373888
0.41441
0.369781
0.297551
0.309719
0.189611
0.10948
0.164706
-0.00868284
0.0334512
0.148677
-0.069448
-0.0208235
-0.0607915
0.0165542
-0.0433439
0.0748576
0.0700444
0.121543
0.120027
0.133817
0.119983
0.137159
0.112488
0.11906
0.0413738
0.0292072
0.0151492
0.0590223
0.0362324
0.0145441
-1.19591
-1.27887
-1.39847
-1.25102
-0.952117
-0.530223
-0.0319614
0.38559
0.853441
1.0757
1.13989
1.01883
0.775083
0.447871
0.0888287
-0.106337
-0.301271
-0.31941
-0.244132
0.0195238
-1.09681
-1.19637
-1.23543
-1.13816
-0.770076
-0.417454
-0.06977
0.309026
0.729942
0.825934
0.981006
0.861621
0.703872
0.407659
0.151505
-0.19957
-0.265756
-0.329506
-0.147736
-0.0072177
-0.910957
-0.988198
-1.03373
-0.930647
-0.767938
-0.423672
-0.0817269
0.334076
0.544335
0.701275
0.786815
0.760435
0.520983
0.319237
0.152988
-0.0813709
-0.202932
-0.203444
-0.176578
-0.0348107
-0.787065
-0.865017
-0.816776
-0.806663
-0.575288
-0.38791
-0.0231384
0.179116
0.457751
0.570721
0.709227
0.621146
0.483418
0.316716
0.0294014
-0.131127
-0.209148
-0.214153
-0.150957
-0.0385508
-0.579528
-0.70317
-0.718121
-0.653989
-0.431765
-0.271703
-0.0728683
0.183662
0.325179
0.527125
0.466368
0.374956
0.349527
0.230289
0.0588712
-0.112417
-0.115805
-0.18882
-0.120449
-0.0193436
-0.429771
-0.473646
-0.445158
-0.46804
-0.394447
-0.303178
-0.0335337
0.0918222
0.255567
0.296333
0.396428
0.266636
0.253096
0.146385
0.0830497
-0.080262
-0.160678
-0.174395
-0.0809365
0.00505424
-0.239325
-0.296523
-0.211443
-0.266316
-0.220493
-0.0968048
0.00596914
0.0667463
0.134815
0.151339
0.195508
0.17075
0.097769
0.0640017
-0.00998459
0.0116486
-0.0804886
-0.0884495
-0.0677193
-0.135412
-0.102429
-0.114959
-0.0856301
-0.0270575
-0.10596
0.0221304
0.0140648
0.00128284
0.0206069
0.0817961
0.0100959
0.143482
0.111657
0.0490662
0.0178056
-0.0186743
0.0301426
0.0100443
-0.0133764
-0.0148786
-1.71345
-1.80595
-1.96488
-1.89428
-1.60597
-1.31968
-0.862225
-0.486575
-0.136857
0.0846107
0.187127
0.11365
-0.0687134
-0.339816
-0.593008
-0.805791
-0.853565
-0.866085
-0.646699
-0.394079
-1.47037
-1.66122
-1.75607
-1.64039
-1.46527
-1.18857
-0.769956
-0.476715
-0.166091
0.0628343
0.182252
0.124135
-0.108108
-0.287234
-0.462456
-0.707145
-0.822187
-0.737643
-0.571797
-0.354022
-1.28263
-1.42241
-1.42005
-1.43324
-1.21109
-0.983452
-0.645616
-0.369347
-0.179575
0.0779296
0.0294021
0.0617875
-0.0949953
-0.239001
-0.473898
-0.678876
-0.671716
-0.652934
-0.532898
-0.381305
-1.05742
-1.12051
-1.23627
-1.16493
-1.06174
-0.821213
-0.591223
-0.317988
-0.109135
0.0613797
0.023281
-0.0670243
-0.0443025
-0.254332
-0.432541
-0.442078
-0.600975
-0.543136
-0.421119
-0.311704
-0.762163
-0.902647
-0.977982
-0.879215
-0.840795
-0.628565
-0.456679
-0.274414
-0.152178
0.0450408
0.0167951
-0.0664404
-0.0481345
-0.174559
-0.282216
-0.358421
-0.437833
-0.461619
-0.325296
-0.239524
-0.561855
-0.648851
-0.699677
-0.631059
-0.523071
-0.435193
-0.334032
-0.155396
-0.078409
-0.0400049
-0.0441897
-0.0145542
-0.05689
-0.0763071
-0.225164
-0.297072
-0.349547
-0.278379
-0.234715
-0.232469
-0.283241
-0.448848
-0.454323
-0.392161
-0.319341
-0.23412
-0.192924
-0.135757
-0.0341775
0.0437656
-0.0255289
0.0266051
-0.0246968
-0.159144
-0.111669
-0.14343
-0.211947
-0.214209
-0.191095
-0.109411
-0.0990354
-0.135422
-0.121974
-0.126268
-0.0829794
-0.0472819
-0.0693584
-0.0203899
-0.0385343
0.0194675
0.0288418
-0.0223412
-0.0664987
-0.0457398
-0.0421419
-0.0263954
-0.0544064
-0.0824731
-0.0926154
-0.0279607
-1.91999
-2.1084
-2.27239
-2.34454
-2.15441
-1.93693
-1.6431
-1.24791
-0.968835
-0.746075
-0.734121
-0.646674
-0.904044
-1.02784
-1.19065
-1.31353
-1.37974
-1.20135
-0.94287
-0.628693
-1.66951
-1.9009
-2.00226
-2.06267
-1.94407
-1.65246
-1.46575
-1.10949
-0.821602
-0.692998
-0.561857
-0.581829
-0.724231
-0.844548
-1.11419
-1.15036
-1.20678
-1.04134
-0.903464
-0.622258
-1.48022
-1.58842
-1.66399
-1.66902
-1.63544
-1.46225
-1.23837
-0.905148
-0.701788
-0.497525
-0.529322
-0.605394
-0.689825
-0.757982
-0.929994
-1.04264
-1.00673
-0.869191
-0.774336
-0.496737
-1.22734
-1.33623
-1.51216
-1.42407
-1.33638
-1.19026
-1.04901
-0.748263
-0.67287
-0.431453
-0.437688
-0.472677
-0.525911
-0.643502
-0.797826
-0.793407
-0.899114
-0.860799
-0.621134
-0.388184
-0.959066
-1.01004
-1.093
-1.12661
-1.02359
-0.865959
-0.81273
-0.592913
-0.465008
-0.422868
-0.309952
-0.335992
-0.419219
-0.515821
-0.604643
-0.636789
-0.63462
-0.653332
-0.552201
-0.326693
-0.665905
-0.688239
-0.821362
-0.793663
-0.758134
-0.696538
-0.561036
-0.465136
-0.244992
-0.269389
-0.244557
-0.277812
-0.284474
-0.401155
-0.438133
-0.473491
-0.477885
-0.467618
-0.325657
-0.291959
-0.456852
-0.468996
-0.555804
-0.465625
-0.438949
-0.440525
-0.360787
-0.243895
-0.198202
-0.184879
-0.10023
-0.159159
-0.231049
-0.199515
-0.225071
-0.258944
-0.275698
-0.234921
-0.192004
-0.124144
-0.112188
-0.111623
-0.128288
-0.16722
-0.146119
-0.157881
-0.11282
-0.136555
-0.0215405
0.00173959
0.0140855
-0.0444182
-0.0762894
-0.0458502
-0.0193591
-0.101912
-0.0345043
-0.0903074
-0.0394245
0.0198407
-1.97447
-2.2466
-2.46181
-2.64844
-2.50369
-2.31972
-2.09435
-1.73562
-1.58671
-1.36493
-1.34377
-1.29946
-1.33718
-1.54461
-1.66398
-1.65534
-1.58352
-1.41449
-1.07503
-0.705306
-1.72386
-1.98928
-2.14435
-2.30191
-2.19335
-2.05353
-1.84674
-1.58727
-1.36396
-1.26096
-1.13276
-1.1681
-1.15827
-1.35911
-1.44466
-1.44561
-1.42474
-1.28074
-0.937416
-0.675195
-1.52827
-1.75812
-1.85014
-1.94394
-1.84731
-1.813
-1.60785
-1.2986
-1.10379
-1.10771
-0.987944
-0.981726
-1.07798
-1.15885
-1.2456
-1.23211
-1.15279
-1.12051
-0.851448
-0.586527
-1.30721
-1.39224
-1.49649
-1.58124
-1.56266
-1.36672
-1.34118
-1.12481
-0.984138
-0.855738
-0.885471
-0.855277
-0.909246
-0.973048
-1.01598
-1.01357
-0.943918
-0.971553
-0.643602
-0.480632
-0.94722
-1.14138
-1.23309
-1.23732
-1.24086
-1.09236
-1.00422
-1.00306
-0.774716
-0.658204
-0.714064
-0.672876
-0.69769
-0.693317
-0.796264
-0.815213
-0.784765
-0.713117
-0.564754
-0.340668
-0.68259
-0.781847
-0.904803
-0.841186
-0.832611
-0.844231
-0.754609
-0.645712
-0.591981
-0.511743
-0.404772
-0.523198
-0.487015
-0.57405
-0.598867
-0.620629
-0.553743
-0.529412
-0.369678
-0.264844
-0.373522
-0.373114
-0.519445
-0.503893
-0.494145
-0.477329
-0.432345
-0.396368
-0.262242
-0.32609
-0.291721
-0.223715
-0.292224
-0.329333
-0.321362
-0.378472
-0.346864
-0.310419
-0.287405
-0.175778
-0.130375
-0.127689
-0.209279
-0.17002
-0.209019
-0.209909
-0.151305
-0.109544
-0.135267
-0.118799
-0.104952
-0.0638154
-0.127974
-0.151713
-0.15168
-0.066827
-0.175394
-0.129633
-0.104447
-0.0258442
-1.7901
-2.19973
-2.57453
-2.75482
-2.72861
-2.50842
-2.48013
-2.21675
-1.98561
-1.88771
-1.75225
-1.76342
-1.72874
-1.7955
-1.84837
-1.83461
-1.6439
-1.36908
-0.991417
-0.515519
-1.64638
-1.82698
-2.21905
-2.28324
-2.26549
-2.3113
-2.14915
-1.87848
-1.75788
-1.58745
-1.549
-1.49522
-1.59174
-1.60243
-1.65785
-1.60523
-1.46491
-1.17091
-0.841337
-0.509926
-1.39395
-1.58886
-1.73844
-1.98941
-1.97442
-1.87529
-1.8581
-1.64786
-1.55957
-1.39198
-1.31019
-1.27775
-1.34742
-1.38181
-1.41258
-1.40192
-1.25403
-1.06112
-0.745083
-0.451096
-1.18437
-1.34324
-1.55245
-1.71989
-1.61709
-1.63371
-1.46096
-1.35883
-1.15315
-1.12618
-1.11557
-1.07719
-1.09667
-1.14262
-1.17418
-1.12417
-0.976297
-0.840129
-0.528061
-0.313148
-0.85607
-1.03167
-1.21807
-1.28286
-1.33953
-1.27356
-1.21687
-1.04424
-0.946724
-0.90406
-0.816015
-0.800498
-0.882624
-0.89863
-0.940559
-0.927669
-0.738173
-0.716993
-0.545669
-0.318727
-0.62989
-0.784206
-0.83833
-0.980414
-0.863731
-0.910841
-0.925056
-0.745196
-0.663315
-0.647015
-0.633472
-0.612343
-0.569421
-0.671921
-0.624681
-0.645498
-0.523992
-0.513964
-0.368395
-0.23139
-0.413589
-0.451064
-0.496937
-0.523552
-0.554631
-0.573804
-0.456592
-0.45101
-0.400102
-0.423271
-0.307724
-0.379728
-0.387434
-0.394982
-0.388931
-0.390903
-0.348764
-0.296663
-0.275857
-0.173505
-0.0982123
-0.207014
-0.195573
-0.186785
-0.140365
-0.161224
-0.219804
-0.182317
-0.0407265
-0.214408
-0.101459
-0.152022
-0.118593
-0.089009
-0.109597
-0.088298
-0.101464
-0.139483
-0.135226
-0.0124238
-1.37594
-1.88866
-2.30184
-2.48967
-2.68817
-2.66483
-2.51705
-2.39226
-2.25704
-2.00729
-1.94067
-1.99171
-1.92004
-1.95907
-1.79941
-1.76513
-1.54146
-1.24422
-0.687499
-0.173438
-1.27923
-1.67322
-1.99725
-2.20844
-2.33416
-2.30265
-2.20985
-2.08581
-1.93986
-1.77908
-1.68224
-1.64695
-1.72091
-1.69356
-1.61826
-1.5394
-1.3367
-1.00711
-0.575994
-0.183045
-1.07266
-1.43985
-1.6768
-1.90543
-1.9944
-1.9356
-1.90882
-1.73645
-1.6912
-1.49858
-1.43724
-1.43087
-1.53096
-1.40897
-1.41979
-1.28464
-1.15517
-0.94274
-0.548321
-0.182458
-0.963535
-1.16446
-1.36383
-1.59039
-1.61962
-1.63728
-1.50904
-1.49078
-1.37805
-1.24184
-1.16627
-1.24605
-1.24098
-1.20517
-1.11676
-1.06726
-0.965838
-0.736749
-0.416038
-0.185344
-0.729268
-0.877435
-1.11863
-1.16252
-1.27317
-1.25763
-1.20654
-1.13013
-1.03957
-0.957033
-0.87859
-0.983994
-0.964153
-0.925842
-0.964379
-0.899014
-0.730999
-0.598386
-0.344573
-0.122678
-0.505407
-0.651728
-0.777892
-0.87027
-0.947651
-0.929093
-0.802666
-0.820964
-0.742715
-0.730871
-0.695335
-0.715644
-0.670052
-0.679186
-0.662364
-0.57083
-0.550098
-0.389022
-0.229174
-0.105591
-0.372867
-0.377961
-0.410359
-0.501784
-0.542963
-0.55857
-0.444891
-0.477313
-0.527549
-0.406954
-0.418087
-0.405149
-0.416358
-0.422486
-0.341362
-0.390269
-0.345254
-0.150788
-0.234059
-0.0604984
-0.150759
-0.127542
-0.131887
-0.153785
-0.231739
-0.169837
-0.179424
-0.0927754
-0.162041
-0.176897
-0.20606
-0.0725547
-0.181056
-0.175186
-0.100233
-0.166383
-0.12298
-0.0191748
0.0113439
-0.0055332
-0.850498
-1.40545
-1.80302
-2.1179
-2.33703
-2.46226
-2.37511
-2.26415
-2.12102
-2.0016
-1.94503
-1.99817
-1.85947
-1.7901
-1.66126
-1.52977
-1.09384
-0.738502
-0.149001
0.416064
-0.840853
-1.22293
-1.57633
-1.8577
-2.04841
-2.07399
-2.06881
-2.02391
-1.84314
-1.78549
-1.73292
-1.72589
-1.62718
-1.54606
-1.3882
-1.3179
-1.05387
-0.658492
-0.140669
0.374482
-0.73178
-1.02066
-1.37068
-1.57291
-1.69931
-1.74269
-1.87189
-1.64519
-1.58553
-1.50199
-1.51297
-1.43434
-1.47149
-1.38465
-1.27675
-1.0935
-0.873434
-0.54385
-0.14646
0.246775
-0.473033
-0.839332
-1.08257
-1.34293
-1.4002
-1.50283
-1.37919
-1.36814
-1.29784
-1.29909
-1.27908
-1.1999
-1.12252
-1.13629
-0.985525
-0.890061
-0.734409
-0.493208
-0.0776668
0.155047
-0.417214
-0.693864
-0.910993
-1.02727
-1.0734
-1.15808
-1.15125
-1.09078
-1.04279
-0.934453
-0.933282
-0.90529
-0.861411
-0.859812
-0.807206
-0.736101
-0.559795
-0.336837
-0.115652
0.115466
-0.321074
-0.475583
-0.613163
-0.720905
-0.826244
-0.842568
-0.875194
-0.817449
-0.855898
-0.685272
-0.683994
-0.6941
-0.634918
-0.60407
-0.534607
-0.49422
-0.410859
-0.256978
-0.04472
0.110208
-0.201869
-0.350085
-0.33055
-0.464081
-0.50893
-0.498895
-0.514588
-0.450316
-0.453882
-0.41316
-0.425346
-0.448904
-0.421478
-0.338436
-0.385452
-0.338026
-0.285848
-0.194167
-0.0308631
0.0525795
-0.132173
-0.113193
-0.136999
-0.112085
-0.175335
-0.135861
-0.13487
-0.234376
-0.148029
-0.109956
-0.0942367
-0.110258
-0.127323
-0.184176
-0.128995
-0.0319032
-0.0886955
-0.125687
0.0297909
0.0199679
-0.0599057
-0.570882
-1.11954
-1.58389
-1.85445
-1.94586
-2.03677
-1.97637
-1.8489
-1.8158
-1.72659
-1.67575
-1.44369
-1.41352
-1.22952
-0.885124
-0.535788
0.00242951
0.570758
1.19369
-0.109183
-0.567643
-0.986038
-1.32046
-1.60001
-1.75441
-1.79607
-1.76757
-1.61432
-1.56252
-1.50117
-1.42399
-1.26789
-1.2154
-1.04459
-0.828456
-0.524358
-0.0534528
0.496553
1.02676
-0.0589737
-0.472995
-0.815416
-1.14281
-1.34715
-1.41965
-1.49626
-1.43125
-1.41992
-1.26108
-1.24084
-1.17737
-1.21549
-1.07863
-0.921758
-0.696456
-0.403918
-0.0966911
0.365453
0.854536
-0.060126
-0.39088
-0.729033
-0.926958
-1.17585
-1.27678
-1.27606
-1.15471
-1.15526
-1.07959
-1.09679
-1.06128
-1.02821
-0.862947
-0.75105
-0.578921
-0.394285
0.034235
0.324221
0.670477
-0.0756844
-0.315619
-0.572277
-0.708731
-0.874463
-0.939339
-0.93719
-0.924537
-0.944304
-0.886878
-0.843075
-0.837328
-0.744892
-0.70737
-0.580934
-0.498127
-0.309956
0.003858
0.242025
0.512991
-0.047796
-0.20245
-0.425232
-0.60925
-0.677861
-0.669993
-0.657648
-0.637486
-0.664996
-0.60942
-0.615735
-0.561603
-0.500172
-0.538329
-0.512547
-0.359734
-0.24029
0.0181586
0.176824
0.339148
-0.0550763
-0.091247
-0.175595
-0.304771
-0.347981
-0.422195
-0.420904
-0.424445
-0.344037
-0.389832
-0.342112
-0.306979
-0.288135
-0.271761
-0.243706
-0.168271
-0.136082
-0.0677756
0.111988
0.197685
-0.121267
0.011246
-0.0520376
-0.0152414
-0.134224
-0.156299
-0.118519
-0.110248
-0.131559
-0.15067
-0.15562
-0.0927268
-0.136263
-0.139819
-0.0552085
-0.0731032
-0.0590214
-0.0958607
0.0374652
0.0705994
1.02741
0.446676
-0.199163
-0.654517
-1.04185
-1.20565
-1.34043
-1.34047
-1.32038
-1.27604
-1.14779
-1.09654
-0.852469
-0.705372
-0.497774
-0.116865
0.376126
0.897678
1.65248
2.30979
0.840042
0.357548
-0.144386
-0.635908
-0.926252
-1.0721
-1.19004
-1.19684
-1.19527
-1.03949
-1.01933
-0.987367
-0.820276
-0.68635
-0.489638
-0.134654
0.261461
0.798776
1.37718
2.00499
0.667467
0.24199
-0.170645
-0.51798
-0.836313
-1.05645
-0.944425
-1.06951
-0.965856
-0.914723
-0.883459
-0.74815
-0.73331
-0.583594
-0.362864
-0.16722
0.156056
0.66444
1.17552
1.60189
0.547514
0.133059
-0.102294
-0.462878
-0.705465
-0.74355
-0.886906
-0.846027
-0.855297
-0.796501
-0.788215
-0.652975
-0.600069
-0.464169
-0.295176
-0.097442
0.167687
0.555928
0.946652
1.29701
0.401667
0.0872353
-0.163774
-0.377467
-0.471908
-0.629671
-0.601224
-0.686839
-0.69219
-0.568572
-0.589667
-0.501568
-0.433761
-0.352242
-0.218303
-0.0816732
0.0431998
0.416112
0.753599
0.972424
0.273106
0.0566186
-0.0763491
-0.216808
-0.409028
-0.42801
-0.53617
-0.51719
-0.50845
-0.430847
-0.412098
-0.372289
-0.353094
-0.30393
-0.188265
-0.0553313
0.0929688
0.232126
0.534154
0.766548
0.174321
0.0791168
-0.0445924
-0.157587
-0.211954
-0.236048
-0.32435
-0.321682
-0.34052
-0.268775
-0.300776
-0.243442
-0.253779
-0.0868084
-0.149821
-0.0295021
0.112405
0.171026
0.277104
0.427914
0.0802695
0.0630753
-0.00351992
-0.0217955
-0.133185
-0.0718552
-0.0759414
-0.0842477
-0.122628
-0.117152
-0.0354855
-0.115226
-0.0819291
-0.0224901
-0.0271286
-0.0836682
0.0271525
0.0561012
0.20528
0.135426
2.33468
1.61442
0.993076
0.382134
0.0387578
-0.21439
-0.442841
-0.448947
-0.594497
-0.406228
-0.383992
-0.246808
-0.0213225
0.248888
0.525177
0.943038
1.39462
2.07809
2.83448
3.53823
1.93875
1.34366
0.876756
0.391427
0.0184836
-0.232112
-0.328654
-0.372919
-0.473625
-0.393689
-0.367825
-0.220347
-0.100106
0.173904
0.445919
0.759573
1.23518
1.83482
2.40635
3.08109
1.60387
1.14059
0.715912
0.277905
-0.0433627
-0.241278
-0.315717
-0.357699
-0.39153
-0.362575
-0.281946
-0.169206
-0.110278
0.0469709
0.289055
0.637122
0.973196
1.47838
2.0806
2.55715
1.30628
0.894002
0.5626
0.175381
-0.0702479
-0.214972
-0.285221
-0.370674
-0.287017
-0.301742
-0.221196
-0.079681
-0.0808548
0.1022
0.218352
0.4646
0.760914
1.26097
1.6683
2.08303
0.993335
0.748799
0.456831
0.199136
-0.050882
-0.188346
-0.209167
-0.342817
-0.201199
-0.234507
-0.211964
-0.0995004
-0.110642
0.0632184
0.171462
0.377546
0.639919
0.962651
1.26843
1.57519
0.712546
0.479969
0.259068
0.0952821
-0.0432799
-0.0848466
-0.247958
-0.218362
-0.185093
-0.121827
-0.185325
-0.00613151
-0.0300497
0.0256704
0.161231
0.28768
0.464837
0.692114
0.931443
1.10907
0.447904
0.257248
0.18213
0.0365576
-0.0430825
-0.130552
-0.139511
-0.108815
-0.126386
-0.141444
-0.0774722
-0.0700424
-0.0419146
-0.00738214
0.132352
0.186792
0.223804
0.440787
0.527285
0.675552
0.139044
0.0604841
0.0563862
0.0135785
-0.00917233
-0.0118713
-0.0290764
-0.0216498
-0.0539712
-0.0862885
-0.104217
-0.0388867
0.0357147
0.00473789
-0.0340392
0.00305106
0.00403838
0.180579
0.247433
0.17818
3.79892
3.1156
2.39647
1.80725
1.37247
0.995385
0.761073
0.616086
0.628448
0.718958
0.804189
0.874193
1.07507
1.40297
1.73199
2.1766
2.80182
3.54207
4.29715
5.10845
3.30262
2.65332
2.08841
1.56595
1.14989
0.854844
0.741712
0.568738
0.509515
0.533547
0.635189
0.697407
0.913923
1.12742
1.54862
1.88911
2.43116
2.98384
3.67237
4.39417
2.68645
2.2241
1.64859
1.25388
0.89277
0.76695
0.6134
0.506213
0.412926
0.474453
0.488935
0.630968
0.760228
0.961617
1.23677
1.63002
1.99557
2.5271
3.18407
3.63452
2.23232
1.77693
1.45549
1.03842
0.795536
0.628947
0.445279
0.33207
0.426574
0.394924
0.380381
0.457576
0.630421
0.788348
1.0024
1.3227
1.67225
2.06215
2.57257
2.96255
1.8003
1.39019
1.17861
0.778154
0.563277
0.387158
0.328704
0.238075
0.271781
0.338586
0.344879
0.358003
0.502942
0.548968
0.80491
0.969022
1.30528
1.64179
1.9451
2.34156
1.22529
0.98949
0.760898
0.623133
0.421684
0.279508
0.235271
0.299325
0.194653
0.189464
0.209889
0.340167
0.355541
0.47605
0.588974
0.712299
0.835115
1.10901
1.33642
1.67354
0.775879
0.61384
0.466935
0.358053
0.242335
0.220919
0.14465
0.0551667
0.114893
0.12714
0.126053
0.171514
0.285383
0.19918
0.347512
0.492742
0.571027
0.62669
0.81635
1.0332
0.15786
0.189836
0.197511
0.163248
0.0789999
0.0998824
0.00282262
0.0172443
0.0916495
0.0428362
0.0413111
0.0875483
0.0452482
0.137719
0.0266009
0.175726
0.179167
0.238692
0.312923
0.339485
5.58764
4.81096
4.04983
3.46688
2.91778
2.52489
2.20876
2.16847
2.02372
2.10396
2.11442
2.30097
2.48828
2.88729
3.22464
3.79902
4.37696
5.21648
6.05053
6.92078
4.73086
4.09755
3.46662
2.99249
2.46131
2.14171
1.95348
1.77242
1.732
1.75189
1.77533
1.97477
2.14817
2.42302
2.82694
3.26866
3.84324
4.48107
5.20804
5.88956
3.98601
3.51075
2.96955
2.44799
2.04103
1.90049
1.6648
1.50326
1.47111
1.45919
1.55556
1.61098
1.78491
2.04642
2.29967
2.71415
3.20692
3.72927
4.34263
4.98471
3.29995
2.85421
2.40525
1.99117
1.69001
1.47254
1.32359
1.18725
1.14072
1.16452
1.21531
1.23346
1.42116
1.6497
1.89006
2.20765
2.60936
3.11846
3.52123
3.9891
2.54648
2.19668
1.83042
1.54039
1.303
1.16932
0.970025
0.988601
0.915366
0.904902
0.938951
0.967136
1.17954
1.26426
1.46064
1.74637
2.03707
2.38933
2.74409
3.04281
1.77979
1.55586
1.20461
1.14186
0.90874
0.78091
0.680525
0.701217
0.673081
0.570724
0.661801
0.715966
0.781712
0.922089
1.00033
1.22603
1.48144
1.68551
1.88888
2.21247
1.11325
0.970716
0.88171
0.733116
0.613899
0.511262
0.460392
0.446755
0.3531
0.440935
0.38878
0.374529
0.480517
0.525359
0.680726
0.732855
0.829692
1.0499
1.10575
1.41272
0.337348
0.309076
0.143956
0.268759
0.138981
0.147016
0.167606
0.227008
0.074334
0.0814087
0.0855997
0.201154
0.281234
0.146278
0.185502
0.266942
0.284709
0.32056
0.391625
0.414824
7.59556
6.85279
5.97123
5.2811
4.68019
4.30727
3.95723
3.77395
3.68214
3.63865
3.73113
3.9176
4.20588
4.49926
4.96563
5.60537
6.23247
7.10402
8.0156
8.88476
6.39405
5.85578
5.16376
4.56666
4.06908
3.67342
3.34846
3.25328
3.13414
3.08679
3.21081
3.36796
3.60154
3.90945
4.3019
4.78178
5.48327
6.16142
6.89679
7.58989
5.43852
4.9184
4.31575
3.78506
3.39805
3.12634
2.84194
2.74292
2.67294
2.65148
2.65996
2.85655
3.00673
3.28434
3.54772
4.05112
4.52059
5.14644
5.8107
6.44474
4.43344
3.96349
3.55194
3.18362
2.75803
2.53642
2.26345
2.176
2.13495
2.06801
2.16795
2.27757
2.45245
2.67023
2.94029
3.25166
3.71105
4.22052
4.73225
5.21395
3.44321
3.05121
2.72778
2.43493
2.04423
1.93841
1.76566
1.59609
1.55937
1.6416
1.68272
1.76469
1.96689
2.10937
2.19264
2.58859
2.87128
3.24858
3.63948
4.03983
2.4686
2.12221
1.85743
1.70382
1.52586
1.34954
1.30614
1.16831
1.21184
1.17815
1.17202
1.29563
1.34852
1.47982
1.66173
1.7769
2.03093
2.33215
2.64218
2.84697
1.42769
1.3457
1.22756
1.09658
0.927837
0.772209
0.775946
0.712378
0.607136
0.660025
0.751744
0.825438
0.834351
0.879593
0.968252
1.02487
1.21324
1.42108
1.59948
1.69082
0.512993
0.476642
0.342487
0.35577
0.339119
0.267511
0.295873
0.294992
0.23931
0.210526
0.197105
0.180092
0.312272
0.295408
0.338815
0.336061
0.46019
0.463807
0.538703
0.631243
9.6926
8.9599
8.06069
7.23636
6.59528
6.20429
5.85557
5.58079
5.48812
5.50728
5.53406
5.74928
6.05821
6.43864
6.88563
7.50524
8.29466
9.16696
10.105
10.9331
8.33867
7.61123
6.91923
6.23376
5.77921
5.39689
4.98855
4.75853
4.77215
4.77842
4.77654
4.93133
5.17923
5.47664
5.94174
6.50068
7.22776
7.8967
8.71062
9.36453
7.01948
6.45641
5.80934
5.26532
4.87903
4.46052
4.14027
4.00256
3.94051
3.96662
4.01542
4.13786
4.361
4.63628
5.06215
5.44426
6.04545
6.5533
7.27435
7.93378
5.65319
5.24617
4.75194
4.26923
3.90952
3.6093
3.44892
3.36575
3.15556
3.18024
3.28191
3.37242
3.54517
3.67046
3.99247
4.4408
4.87171
5.40523
5.98561
6.36125
4.38778
4.0823
3.68464
3.30617
2.99144
2.76805
2.6163
2.53429
2.53961
2.45806
2.51954
2.5911
2.80775
2.9646
3.13343
3.46446
3.77968
4.23998
4.61201
4.97684
3.12803
2.85406
2.63156
2.31398
2.16086
2.03675
1.91248
1.83948
1.77543
1.7909
1.79149
1.90793
1.95713
2.04443
2.24494
2.47478
2.68735
2.92602
3.25295
3.56513
1.82383
1.65505
1.59697
1.44917
1.29063
1.17068
1.13693
1.02057
1.06968
1.03398
1.14399
1.06911
1.10658
1.23633
1.29653
1.4611
1.6353
1.80253
1.94432
2.17978
0.592063
0.535879
0.484657
0.424341
0.36931
0.31309
0.33299
0.354087
0.430747
0.305478
0.30656
0.397766
0.384113
0.491125
0.415147
0.448129
0.561216
0.567331
0.746897
0.641049
11.8545
11.011
10.1564
9.33552
8.72819
8.19652
7.75768
7.62369
7.48959
7.44466
7.47282
7.65061
7.975
8.40936
8.88342
9.58456
10.3135
11.2608
12.1963
13.1595
10.2281
9.46326
8.65908
7.99916
7.42965
6.93297
6.70355
6.45288
6.27781
6.32908
6.3987
6.57877
6.86786
7.14629
7.56039
8.13371
8.81056
9.7095
10.5596
11.3077
8.61668
7.91455
7.27193
6.67666
6.24742
5.85296
5.54737
5.44103
5.30148
5.29358
5.29769
5.46207
5.6647
5.97312
6.32569
6.85328
7.38633
8.13555
8.85747
9.39984
6.90327
6.42219
5.86944
5.43117
5.10595
4.78868
4.54451
4.33667
4.26807
4.23839
4.33113
4.37532
4.65393
4.82663
5.11986
5.55407
6.06069
6.55635
7.18413
7.61498
5.33186
4.94548
4.55845
4.23597
3.87245
3.60329
3.51456
3.34863
3.29772
3.25368
3.29395
3.4312
3.62561
3.71936
3.95199
4.30081
4.61888
5.07483
5.50854
5.89733
3.76139
3.52718
3.28947
3.00276
2.78775
2.57715
2.48768
2.44005
2.38224
2.30899
2.32191
2.45621
2.52462
2.69538
2.81954
2.98424
3.32889
3.66001
3.93387
4.19038
2.27969
2.1466
1.88244
1.76106
1.7247
1.52111
1.45461
1.42168
1.47292
1.38527
1.38987
1.53126
1.44553
1.58774
1.66937
1.73208
1.89875
2.17656
2.35248
2.5065
0.730129
0.71476
0.688126
0.648324
0.534247
0.562088
0.479918
0.509426
0.519826
0.549995
0.487306
0.546206
0.432796
0.502927
0.508787
0.645361
0.603849
0.693763
0.747959
0.834336
13.6882
12.7681
11.8406
11.0231
10.3806
9.82
9.39343
9.11063
8.94835
8.99707
9.01728
9.21357
9.5439
10.0385
10.4669
11.207
12.0473
12.9231
13.9166
14.9046
11.6282
10.8593
10.034
9.34651
8.77811
8.30919
7.9322
7.73896
7.62299
7.57002
7.65545
7.84222
8.07487
8.47781
8.87377
9.58796
10.2072
11.0548
11.9439
12.7018
9.70427
9.03325
8.42348
7.81841
7.31587
6.95106
6.66357
6.37942
6.31591
6.22735
6.34655
6.55736
6.75534
7.05715
7.47227
7.90594
8.50049
9.20173
9.89705
10.5849
7.88054
7.34939
6.76691
6.29025
5.91296
5.61742
5.28377
5.19227
5.05441
5.07119
5.08036
5.27212
5.45972
5.64564
6.01485
6.38093
6.84469
7.35474
8.03125
8.4624
6.08631
5.68835
5.20914
4.86013
4.52799
4.31147
4.0877
3.95367
3.90682
3.88479
3.93827
3.95208
4.18192
4.36791
4.60126
4.92017
5.34692
5.76205
6.19585
6.52965
4.30801
3.97696
3.6369
3.46652
3.144
2.99898
2.89781
2.79084
2.76942
2.74971
2.82944
2.86404
2.9522
3.10222
3.29236
3.50693
3.78807
4.06754
4.35322
4.65114
2.64092
2.34017
2.18008
2.06786
1.94903
1.7942
1.74117
1.68266
1.67019
1.63656
1.63757
1.73394
1.80101
1.84636
1.92231
2.10089
2.20899
2.46951
2.65372
2.79808
0.804968
0.767137
0.743402
0.702425
0.617463
0.698738
0.59802
0.566434
0.482704
0.606518
0.516601
0.624843
0.543571
0.57251
0.574048
0.682223
0.767126
0.805021
0.88037
0.878874
)
;

boundaryField
{
    hotSide
    {
        type            calculated;
        value           nonuniform List<scalar> 
400
(
2.56748
1.78167
1.05217
0.227091
-0.286431
-0.805204
-1.01276
-1.06786
-0.88348
-0.468482
0.0588454
0.852562
1.94443
3.25781
4.72989
6.52828
8.54782
10.6585
12.8361
14.6877
2.60198
1.87241
1.0621
0.292797
-0.315217