/*--------------------------------*- C++ -*----------------------------------*\
| =========                 |                                                 |
| \\      /  F ield         | OpenFOAM: The Open Source CFD Toolbox           |
|  \\    /   O peration     | Version:  2212                                  |
|   \\  /    A nd           | Website:  www.openfoam.com                      |
|    \\/     M anipulation  |                                                 |
\*---------------------------------------------------------------------------*/
FoamFile
{
    version     2.0;
    format      ascii;
    arch        "LSB;label=32;scalar=64";
    class       volScalarField;
    location    "0";
    object      relativeErrorField;
}
// * * * * * * * * * * * * * * * * * * * * * * * * * * * * * * * * * * * * * //

dimensions      [0 0 0 1 0 0 0];

internalField   nonuniform List<scalar> 
3200
(
0.00480834
0.00472625
0.00510983
0.00592393
0.0072749
0.00912328
0.0109457
0.0128342
0.013893
0.0149396
0.0151706
0.0146195
0.0136888
0.0124602
0.0109704
0.00979028
0.00877964
0.00797445
0.00773628
0.00807282
0.0038074
0.00375576
0.00419133
0.00505225
0.0064205
0.00778875
0.00952597
0.0110404
0.0120622
0.0128141
0.0129945
0.0127622
0.0118614
0.0106398
0.00937105
0.00824603
0.0074394
0.00683801
0.00682295
0.00685379
0.00305744
0.00319316
0.00356695
0.00428884
0.00524308
0.00642545
0.00803051
0.00922918
0.0102936
0.0107686
0.0111759
0.0107931
0.0100777
0.00907049
0.00811819
0.00720083
0.00631145
0.00582933
0.00568156
0.00539398
0.00242949
0.00271998
0.00279216
0.00328229
0.00420812
0.00547731
0.00655055
0.00762173
0.00861501
0.00896967
0.00910727
0.00891411
0.00811423
0.00744107
0.00642445
0.00582736
0.00507411
0.00462599
0.00449711
0.00450675
0.00184419
0.00192817
0.00224061
0.00267011
0.00349619
0.00419328
0.00515019
0.00607199
0.00649858
0.00710425
0.00706247
0.00696357
0.00666286
0.00580094
0.00501998
0.00470083
0.00397083
0.00373854
0.003503
0.00346776
0.00126467
0.00147692
0.00138221
0.00207431
0.00233743
0.00299365
0.00394916
0.00431454
0.00483856
0.00484543
0.00534596
0.00500444
0.0045792
0.00418217
0.00351173
0.00311264
0.00273591
0.00279233
0.00252671
0.0022799
0.000888415
0.000836277
0.000922455
0.00126358
0.00129812
0.00175741
0.00222787
0.00248257
0.00290449
0.00312333
0.00334109
0.00300767
0.0028167
0.00252923
0.00238962
0.00209059
0.00180005
0.00173706
0.0016735
0.0016055
0.000116301
5.16168e-05
0.000226135
0.000166642
0.000544258
0.000934614
0.00102713
0.000907305
0.00110733
0.000957605
0.00113753
0.00130852
0.000951218
0.00102957
0.000860148
0.000667394
0.000677179
0.000468558
0.000573006
0.000518385
0.00252491
0.00261306
0.00280705
0.00388429
0.00531281
0.00685119
0.00869572
0.0102727
0.0113553
0.0128244
0.0127114
0.0123802
0.0113215
0.0102475
0.00881893
0.00756303
0.00639593
0.00598057
0.00560897
0.00618651
0.00213921
0.00200203
0.00261417
0.00333692
0.00441993
0.00577161
0.00744695
0.0091012
0.0102209
0.0107419
0.0112349
0.0108179
0.00980281
0.00884598
0.00751514
0.00641177
0.00546484
0.00517613
0.00497227
0.00505322
0.00178449
0.00180536
0.00204178
0.00274051
0.00367167
0.0049358
0.0063779
0.00760752
0.00868526
0.00931757
0.00965024
0.00898286
0.00857446
0.00734756
0.00639817
0.00549715
0.00484642
0.00448261
0.00426115
0.00430595
0.00155276
0.00117036
0.00176931
0.0022544
0.00314054
0.00404246
0.00519509
0.00644878
0.00723117
0.00766584
0.00810568
0.00773067
0.00686285
0.00604921
0.0053005
0.00443062
0.00385059
0.00345227
0.0036642
0.00357197
0.00127409
0.00108645
0.00122328
0.00200481
0.00225615
0.0031465
0.00420339
0.00499916
0.00559087
0.00589938
0.00618628
0.00583287
0.00533218
0.00477567
0.00388257
0.00337428
0.00283959
0.00265257
0.00270191
0.00268777
0.000642642
0.000649845
0.00093832
0.00137587
0.00167923
0.00231377
0.0030169
0.00358328
0.00404653
0.0044808
0.00463929
0.00456792
0.00395793
0.00342691
0.00299401
0.00247309
0.00210726
0.00182934
0.00194443
0.00166564
0.000513363
0.000406961
0.000542824
0.000803232
0.0009397
0.00126915
0.00189083
0.00206161
0.00238893
0.00257035
0.0026793
0.0026912
0.00246695
0.00230327
0.00201055
0.001403
0.00111028
0.00102579
0.00109163
0.00112027
0.000183823
6.78397e-05
8.5404e-05
0.000402425
8.3709e-05
0.000534672
0.000547953
0.000830304
0.000809732
0.000982165
0.000938576
0.000873701
0.000869812
0.000913304
0.000759327
0.000397399
0.000526002
0.00047649
0.000409979
0.000303348
0.000407548
0.000269627
0.000412462
0.00129312
0.00255691
0.00402158
0.00561252
0.00734287
0.00855781
0.00937867
0.00954825
0.00927246
0.00817223
0.00736057
0.00607634
0.00473814
0.00383551
0.00347731
0.00346257
0.00380925
4.82613e-05
0.00018045
0.000527079
0.00100057
0.00214711
0.00342665
0.00504982
0.00625174
0.00726494
0.00835601
0.00836913
0.00813379
0.00732946
0.00640291
0.0053253
0.00430308
0.00338934
0.00292206
0.00291074
0.00322441
1.49361e-05
0.000162516
0.000130149
0.000790318
0.00159801
0.00262611
0.00415944
0.0055732
0.00634429
0.00701179
0.00705554
0.00693782
0.00609045
0.00526172
0.00442235
0.00353616
0.00284348
0.00250253
0.00231459
0.00280643
0.000259842
9.27859e-05
0.000180622
0.000634644
0.00118159
0.00234035
0.00350208
0.00431305
0.00516653
0.00576715
0.00593543
0.00585939
0.00510319
0.00462895
0.00373699
0.00283329
0.00230807
0.00201206
0.0023338
0.00222134
7.46823e-05
5.02892e-05
1.93824e-05
0.000528603
0.00113608
0.00189619
0.00273456
0.0032934
0.00426176
0.00465334
0.00439913
0.00439589
0.00383557
0.00348846
0.00285958
0.0024607
0.00200958
0.00153813
0.00166706
0.00175108
7.29334e-05
0.000105759
2.89874e-05
0.000351875
0.000719247
0.00113867
0.00189101
0.00263703
0.00312228
0.00346608
0.00343236
0.00322466
0.00306145
0.00256861
0.00202279
0.00163352
0.00138863
0.0011454
0.00109314
0.00141307
1.04475e-05
3.10728e-05
3.58605e-05
6.21144e-05
0.000456061
0.000809241
0.00108067
0.00154789
0.00177006
0.00200028
0.00213592
0.00186494
0.00159345
0.00152414
0.000985218
0.000943552
0.000755419
0.000726002
0.000803347
0.000794587
0.000182379
1.99561e-05
0.000259092
7.54766e-05
0.000244194
0.000370883
0.000370054
0.000446038
0.000604833
0.000760477
0.000863781
0.00069059
0.000680697
0.00076178
0.000357644
0.000346095
0.000269064
0.00020003
0.000254641
0.000228925
0.0019827
0.00194943
0.00189016
0.00126184
0.000267168
0.00116196
0.00271265
0.00415294
0.00536345
0.00607103
0.00650172
0.00594837
0.00515066
0.00437565
0.00313584
0.00219702
0.00129847
0.000963872
0.00128141
0.00190241
0.00177651
0.00186431
0.00183428
0.00111679
0.000384703
0.00094074
0.00223187
0.00342426
0.00477792
0.00530788
0.00556924
0.00520618
0.00458647
0.00359429
0.00262632
0.00182593
0.00110269
0.000849614
0.00129362
0.00145229
0.00152709
0.00167901
0.00169083
0.00117911
0.000524156
0.0010203
0.00203238
0.00290398
0.00402433
0.00473256
0.00484115
0.00433619
0.00386292
0.00317849
0.00225019
0.00160713
0.00103928
0.000885741
0.000933965
0.00124834
0.00125673
0.00139554
0.00125818
0.00103061
0.000229474
0.000686912
0.00162255
0.00246802
0.00325022
0.00378752
0.00391086
0.00365462
0.00298891
0.00263168
0.00182454
0.00127629
0.00089113
0.000505997
0.000702337
0.000872534
0.000951465
0.00111076
0.00112564
0.00108341
0.000248906
0.000483708
0.00108555
0.00204216
0.00249912
0.00286668
0.00297197
0.00277206
0.00262737
0.00211414
0.00135215
0.000961561
0.000633739
0.000529461
0.00046381
0.000811878
0.000710108
0.00101278
0.000646117
0.000512962
8.25652e-05
0.000458341
0.000953557
0.00147989
0.00179765
0.00215433
0.00218868
0.00173505
0.00178544
0.0014924
0.00100671
0.000760227
0.000505178
0.000362587
0.000425866
0.000643185
0.000276063
0.000446536
0.000439055
0.000378973
9.95454e-05
0.0003068
0.000424508
0.000896398
0.00117469
0.00120359
0.00133404
0.00119063
0.000958461
0.000998223
0.000611536
0.000353359
0.000532015
2.80673e-05
0.000108204
0.000481164
0.00022919
6.87093e-05
0.000200541
5.45956e-05
0.00014291
0.000246753
0.000230833
0.000400469
0.000395416
0.000440814
0.000395243
0.000451859
0.000370633
0.000392365
0.00013638
9.62998e-05
4.9962e-05
0.000194705
0.000119552
4.79981e-05
0.00346366
0.00369522
0.00402875
0.00359242
0.00272514
0.00151278
9.09243e-05
0.00109427
0.00241774
0.00304456
0.00322624
0.00288628
0.00219962
0.00127411
0.000253437
0.000304356
0.000865127
0.000920168
0.000705405
5.6546e-05
0.00323301
0.0035193
0.00362468
0.00332985
0.00224646
0.00121438
0.000202443
0.000894743
0.00211017
0.00238573
0.00283366
0.00249084
0.00203796
0.00118285
0.000440732
0.000582185
0.000777508
0.000966755
0.000434589
2.12751e-05
0.00273371
0.00296041
0.00308987
0.00277496
0.0022841
0.0012571
0.000241961
0.000987239
0.00160644
0.00206814
0.00232041
0.00224419
0.00153958
0.000945135
0.000453939
0.000242024
0.000605094
0.000608104
0.000528987
0.000104464
0.00240544
0.00263997
0.00248808
0.00245228
0.00174526
0.00117444
6.99251e-05
0.000540463
0.00137968
0.00171916
0.00213638
0.00187215
0.00145866
0.000957128
8.9016e-05
0.000397802
0.000635816
0.000652358
0.00046071
0.00011782
0.00180444
0.00218701
0.00223022
0.00202777
0.00133653
0.000839717
0.000224876
0.000566097
0.00100141
0.00162256
0.00143554
0.0011547
0.00107734
0.000710685
0.000181946
0.000347987
0.000359069
0.000586406
0.000374622
6.0229e-05
0.00136379
0.00150183
0.00140998
0.00148072
0.0012464
0.000956882
0.000105726
0.00028924
0.000804521
0.000932534
0.00124752
0.000839364
0.000797253
0.000461524
0.00026212
0.000253617
0.000508331
0.000552374
0.000256632
1.60386e-05
0.000774291
0.000958883
0.000683305
0.000860017
0.000711515
0.000312159
1.92356e-05
0.000214973
0.000434032
0.000487133
0.000629304
0.000549726
0.000314889
0.000206246
3.21965e-05
3.75893e-05
0.000259922
0.000285837
0.000218988
0.0004381
0.000337995
0.00037928
0.000282454
8.9228e-05
0.000349339
7.29437e-05
4.63485e-05
4.22661e-06
6.78849e-05
0.00026944
3.32562e-05
0.000472671
0.00036788
0.00016169
5.8689e-05
6.15671e-05
9.94018e-05
3.31316e-05
4.41326e-05
4.90966e-05
0.00495394
0.00520953
0.00565182
0.00543203
0.00459094
0.00376118
0.00245065
0.0013798
0.000387449
0.000239329
0.000529305
0.000321749
0.000194853
0.000965839
0.00169011
0.00230349
0.00244768
0.00249123
0.0018655
0.00113936
0.00432743
0.00487959
0.00514528
0.00479333
0.00426984
0.00345431
0.00223229
0.00137932
0.000479864
0.0001814
0.000526155
0.000358648
0.000312799
0.000832763
0.00134403
0.00206064
0.00240248
0.00216129
0.00167957
0.00104192
0.00384397
0.00425587
0.00423964
0.00426906
0.00359882
0.00291568
0.00191008
0.00109083
0.000529691
0.000229716
8.66698e-05
0.000182254
0.000280559
0.000707095
0.00140498
0.00201731
0.00200077
0.00194938
0.00159443
0.00114275
0.00322815
0.00341611
0.0037623
0.00353829
0.00321851
0.00248462
0.00178566
0.000959019
0.000328796
0.000184819
7.01008e-05
0.000201927
0.000133612
0.000768158
0.00130868
0.00134009
0.00182537
0.00165291
0.00128388
0.000951584
0.00237103
0.0028051
0.00303491
0.00272421
0.00260108
0.00194157
0.00140869
0.00084549
0.000468484
0.000138598
5.16815e-05
0.000204538
0.000148306
0.00053845
0.000871738
0.00110881
0.00135661
0.00143252
0.0010109
0.000745139
0.0017818
0.00205612
0.0022149
0.00199544
0.00165208
0.001373
0.00105278
0.000489358
0.000246768
0.000125863
0.000139029
4.58049e-05
0.000179152
0.000240501
0.000710378
0.000938281
0.00110528
0.000881236
0.000743781
0.000737225
0.000916018
0.00145092
0.0014677
0.00126601
0.0010302
0.000754764
0.000621571
0.000437161
0.000110017
0.000140853
8.21609e-05
8.56414e-05
7.95282e-05
0.000512738
0.000360002
0.000462709
0.000684228
0.000692006
0.000617724
0.000353842
0.000326756
0.000446738
0.000402288
0.000416353
0.000273548
0.000155833
0.000228543
6.7175e-05
0.000126936
6.41235e-05
9.50017e-05
7.35943e-05
0.000219082
0.000150718
0.000138892
8.70145e-05
0.000179398
0.000272009
0.000305525
9.22532e-05
0.00553929
0.00606973
0.00652407
0.00671165
0.00614925
0.00551285
0.00466456
0.00353509
0.0027403
0.00210853
0.00207475
0.00182908
0.00256098
0.0029179
0.00338881
0.00374917
0.00394973
0.00344909
0.00271437
0.00181382
0.00490434
0.00557367
0.00585686
0.00601811
0.00565736
0.00479674
0.00424512
0.00320725
0.00237182
0.00199913
0.00162082
0.00167964
0.00209356
0.00244599
0.00323427
0.00334763
0.00352095
0.00304604
0.00264907
0.00182794
0.00442902
0.0047453
0.00496085
0.00496486
0.00485408
0.00433069
0.00366046
0.00267115
0.00206859
0.00146561
0.00155927
0.00178446
0.00203572
0.0022405
0.00275432
0.00309463
0.00299472
0.00259132
0.00231327
0.0014863
0.00374187
0.00406861
0.00459643
0.00432072
0.00404707
0.00359809
0.00316593
0.0022552
0.00202599
0.00129842
0.00131719
0.00142321
0.00158505
0.00194209
0.00241178
0.00240274
0.00272796
0.00261653
0.00189125
0.00118348
0.00298043
0.00313565
0.00338865
0.00348776
0.00316412
0.00267303
0.00250546
0.00182585
0.00143086
0.00130066
0.000953355
0.00103387
0.00129097
0.00159016
0.0018664
0.00196844
0.00196464
0.00202553
0.0017143
0.00101524
0.00211014
0.00217933
0.00259832
0.00250802
0.00239316
0.00219643
0.00176747
0.0014642
0.000770771
0.000847276
0.000769175
0.000874026
0.000895492
0.00126379
0.00138159
0.00149464
0.00151015
0.00147927
0.0010312
0.000925171
0.00147679
0.00151537
0.00179478
0.00150259
0.00141557
0.00141974
0.00116209
0.000785199
0.000637874
0.000594886
0.000322513
0.000512222
0.000743843
0.000642634
0.000725368
0.000835071
0.000889691
0.000758596
0.000620385
0.000401299
0.000370092
0.000368171
0.000423053
0.000551314
0.000481635
0.000520291
0.000371722
0.000449848
7.09518e-05
5.72963e-06
4.63928e-05
0.000146308
0.000251317
0.000151068
6.37974e-05
0.000335919
0.000113759
0.000297804
0.000130036
6.54515e-05
0.00568223
0.00645214
0.00705208
0.00756595
0.00713277
0.00659121
0.00593664
0.00491007
0.00448244
0.00385304
0.0037933
0.00367095
0.00378289
0.00437836
0.00472801
0.00471591
0.00452374
0.00405193
0.00308744
0.00202976
0.00505284
0.00582054
0.00626012
0.00670389
0.00637221
0.00595208
0.00534146
0.00458294
0.00393324
0.00363382
0.00326439
0.00336845
0.0033443
0.00393103
0.0041873
0.00419985
0.0041493
0.00373894
0.00274284
0.00197908
0.00456413
0.00524272
0.00550644
0.00577358
0.00547508
0.0053626
0.00474714
0.00382831
0.00325049
0.00326018
0.00290769
0.00289103
0.00317792
0.00342146
0.00368431
0.00365176
0.00342384
0.0033349
0.00253902
0.00175164
0.00397912
0.00423274
0.00454237
0.00479128
0.00472669
0.00412709
0.00404382
0.00338716
0.00296088
0.00257336
0.00266278
0.00257319
0.00273803
0.00293384
0.00306794
0.00306583
0.00286014
0.002949
0.0019567
0.00146303
0.00293993
0.00353917
0.00381867
0.00382648
0.00383212
0.00336898
0.00309341
0.00308678
0.00238236
0.00202331
0.00219502
0.00206919
0.00214704
0.00213571
0.00245579
0.0025176
0.00242694
0.0022084
0.00175117
0.00105735
0.00216105
0.00247358
0.00285993
0.00265618
0.00262644
0.0026605
0.00237597
0.00203162
0.00186159
0.00160882
0.00127253
0.00164529
0.00153231
0.00180746
0.00188727
0.00195775
0.00174853
0.00167339
0.00116957
0.000838486
0.00120675
0.00120492
0.00167653
0.00162533
0.0015929
0.00153777
0.0013921
0.00127569
0.000843737
0.00104899
0.000938425
0.000719782
0.000940504
0.00106041
0.00103531
0.00122002
0.00111883
0.00100189
0.000928135
0.000567892
0.000430005
0.000421088
0.000690016
0.000560457
0.000688865
0.000691656
0.000498463
0.000360828
0.00044551
0.000391247
0.000345645
0.000210179
0.000421536
0.000499807
0.000499789
0.000220242
0.00057817
0.000427415
0.000344439
8.52397e-05
0.00513675
0.00630003
0.00735569
0.0078507
0.00775614
0.00711281
0.00701714
0.00626057
0.0056005
0.00532075
0.00493894
0.00497382
0.00488234
0.00508009
0.0052412
0.00521493
0.00468479
0.00391161
0.00283942
0.0014793
0.00481346
0.00533261
0.00646327
0.00663523
0.00656878
0.00668714
0.00620592
0.00541564
0.00506213
0.00456861
0.00445794
0.00430574
0.00458897
0.00462721
0.00479655
0.00465435
0.00425712
0.00341043
0.0024557
0.00149085
0.00415384
0.00472802
0.00516372
0.00589768
0.00584181
0.00553819
0.00547824
0.00485166
0.00458716
0.00409214
0.00385166
0.00375826
0.00396709
0.004074
0.00417169
0.00414793
0.00371762
0.00315186
0.00221717
0.00134423
0.00359861
0.0040766
0.00470441
0.00520335
0.00488437
0.00492689
0.00439975
0.00408743
0.00346588
0.00338335
0.00335147
0.00323759
0.00329884
0.00344105
0.00354105
0.00339552
0.00295368
0.00254585
0.00160261
0.000951471
0.00265319
0.00319454
0.00376719
0.00396248
0.00413214
0.00392379
0.00374497
0.00321075
0.00290899
0.00277694
0.0025065
0.00245968
0.00271381
0.00276556
0.00289783
0.00286165
0.00228005
0.00221748
0.00168965
0.000987819
0.00199211
0.00247853
0.00264728
0.00309305
0.00272236
0.00286825
0.00291065
0.00234316
0.00208469
0.00203295
0.0019904
0.00192449
0.00179046
0.00211417
0.00196713
0.00203452
0.00165311
0.001623
0.00116433
0.000731799
0.00133533
0.00145575
0.00160294
0.00168782
0.00178697
0.00184772
0.00146955
0.00145099
0.00128682
0.00136113
0.000989561
0.0012213
0.00124645
0.00127126
0.00125241
0.00125945
0.00112434
0.000956927
0.00089029
0.000560186
0.000323854
0.000682535
0.000644696
0.000615604
0.000462522
0.000531153
0.000724023
0.000600457
0.000134118
0.00070604
0.0003341
0.000500629
0.000390583
0.000293191
0.000361069
0.000290954
0.000334403
0.000459799
0.000445845
4.09673e-05
0.00393531
0.005392
0.00655685
0.00707509
0.00762112
0.00753797
0.00710563
0.00674219
0.00635361
0.00564706
0.00545965
0.00560669
0.00541132
0.00553046
0.00508997
0.00500423
0.00438048
0.0035442
0.00196276
0.000496049
0.0037292
0.00487015
0.00580182
0.00640186
0.00675218
0.0066478
0.00636854
0.00600229
0.00557647
0.00511151
0.00483328
0.00473446
0.00495222
0.00488065
0.00467196
0.00445313
0.00387484
0.00292556
0.00167652
0.00053361
0.00318846
0.0042743
0.00496923
0.00563658
0.00588916
0.0057057
0.00561812
0.00510436
0.00496686
0.00439909
0.00421901
0.00420229
0.00450032
0.00414695
0.00418522
0.00379334
0.00341718
0.00279383
0.00162773
0.000542354
0.00292152
0.00352692
0.00412495
0.00480293
0.00488384
0.00493002
0.00453803
0.00447841
0.00413665
0.00372629
0.00349955
0.0037404
0.00372799
0.00362424
0.00336268
0.00321824
0.0029168
0.00222832
0.0012601
0.00056198
0.00225647
0.00271262
0.0034544
0.00358565
0.00392222
0.00386993
0.00370894
0.00347115
0.00319108
0.00293681
0.0026961
0.00302049
0.00296136
0.00284607
0.00296756
0.00276957
0.00225467
0.00184786
0.00106526
0.000379585
0.00159649
0.00205744
0.00245372
0.00274271
0.00298397
0.0029231
0.00252345
0.0025794
0.00233253
0.00229481
0.00218323
0.00224751
0.00210525
0.00213525
0.00208392
0.00179743
0.00173367
0.0012271
0.000723479
0.000333545
0.00120297
0.00121895
0.00132277
0.00161661
0.00174834
0.00179768
0.00143116
0.00153488
0.00169597
0.00130809
0.00134388
0.00130247
0.00133887
0.00135908
0.00109862
0.00125666
0.00111231
0.000486059
0.000754856
0.000195184
0.000497
0.000420408
0.000434656
0.000506731
0.000763455
0.000559422
0.000590909
0.000305504
0.000533543
0.00058243
0.00067845
0.000238896
0.000596207
0.000576952
0.000330155
0.000548143
0.000405227
6.31939e-05
3.73921e-05
1.82411e-05
0.00242352
0.00399813
0.00511844
0.00599917
0.00660551
0.00694518
0.00668711
0.00636517
0.00595642
0.00561795
0.00545916
0.00561144
0.0052275
0.00504003
0.00468584
0.00432383
0.00309841
0.00209647
0.000423869
0.00118559
0.00244327
0.00354832
0.00456531
0.00536978
0.00590969
0.00597263
0.00594808
0.00581128
0.00528725
0.00511935
0.00496861
0.00495089
0.00467215
0.0044451
0.00399772
0.00380216
0.00304627
0.0019071
0.000408147
0.00108813
0.0021691
0.00302166
0.0040515
0.00464151
0.00500616
0.00512592
0.00549825
0.00482684
0.00464801
0.00440125
0.00443343
0.00420481
0.00431722
0.00406709
0.00375542
0.00322146
0.00257741
0.00160753
0.000433596
0.000731476
0.00143092
0.00253641
0.00326717
0.00404727
0.00421402
0.00451699
0.00414052
0.00410341
0.00388992
0.00389229
0.00383233
0.00359635
0.00336672
0.00341129
0.00296214
0.00267872
0.00221334
0.00148849
0.000234705
0.000469015
0.00128853
0.00214124
0.00280837
0.00316332
0.00330171
0.00355848
0.00353422
0.00334601
0.00319708
0.00286413
0.00286054
0.00277552
0.00264242
0.00263952
0.00248034
0.00226421
0.0017238
0.00103839
0.000356898
0.000356608
0.00101285
0.00149939
0.00193168
0.00226927
0.00259876
0.00264808
0.00274876
0.00256597
0.0026856
0.00214977
0.00214576
0.00217792
0.00199301
0.00189723
0.0016802
0.00155446
0.00129331
0.000809574
0.000140991
0.000347658
0.000650744
0.00112814
0.00106469
0.00149405
0.00163762
0.00160458
0.00165436
0.00144724
0.00145834
0.00132733
0.00136648
0.00144235
0.00135456
0.00108805
0.00123972
0.00108769
0.000920249
0.000625406
9.94555e-05
0.000169495
0.000435604
0.000373009
0.000451386
0.000369235
0.000577499
0.000447411
0.000444084
0.000771636
0.000487314
0.000361962
0.000310216
0.000362971
0.000419186
0.000606433
0.000424802
0.000105079
0.000292184
0.000414115
9.81707e-05
6.58087e-05
0.000170003
0.00161755
0.00316602
0.00447019
0.00522339
0.00547064
0.00571676
0.00553973
0.00517749
0.00508225
0.00483257
0.0046926
0.00404665
0.00396743
0.0034567
0.00249311
0.00151214
6.87059e-06
0.00161719
0.0033875
0.000316104
0.00164122
0.00284609
0.00380457
0.00460194
0.00503771
0.00514978
0.00506201
0.0046192
0.00446901
0.00429354
0.0040746
0.00363101
0.00348485
0.0029995
0.00238281
0.00151081
0.000154285
0.00143568
0.00297267
0.000174261
0.00139606
0.00240322
0.00336294
0.00395825
0.00416532
0.00438454
0.0041897
0.00415349
0.00368744
0.00362825
0.00344398
0.00355809
0.00316073
0.00270447
0.00204635
0.00118861
0.000284971
0.00107864
0.00252506
0.000181408
0.00117823
0.00219485
0.00278716
0.00353103
0.00382953
0.00382334
0.00345676
0.00345629
0.00322886
0.0032803
0.00317509
0.00307807
0.00258556
0.00225268
0.00173848
0.00118553
0.000103069
0.000977299
0.00202292
0.000233262
0.000972032
0.00176078
0.00217841
0.00268509
0.00288156
0.00287254
0.00283182
0.00289095
0.00271446
0.00258039
0.00256344
0.00228157
0.00216813
0.0017821
0.00152953
0.000952703
1.18703e-05
0.00074538
0.00158106
0.000150548
0.000637338
0.00133774
0.00191522
0.00212933
0.00210315
0.00206313
0.00199887
0.00208438
0.00190983
0.00192962
0.00176031
0.00156832
0.00168881
0.00160892
0.00113001
0.000755367
5.71252e-05
0.000556663
0.00106825
0.000177379
0.000293776
0.000565097
0.00098036
0.00111885
0.00135688
0.00135222
0.00136317
0.00110469
0.00125159
0.00109838
0.000985696
0.00092539
0.000873075
0.000783239
0.000541034
0.000437735
0.000218114
0.000360554
0.000636666
0.000399536
3.70479e-05
0.000171403
5.01945e-05
0.000441972
0.000514584
0.000390152
0.000362883
0.000432997
0.000495876
0.00051217
0.00030519
0.000448515
0.000460267
0.000181764
0.000240714
0.000194376
0.000315749
0.000123422
0.000232602
0.00290247
0.00126005
0.000560837
0.00183971
0.00292313
0.00337699
0.00374892
0.00374448
0.00368522
0.00355988
0.00320207
0.00306047
0.0023813
0.00197279
0.00139425
0.00032789
0.00105721
0.00252783
0.00466158
0.00652521
0.00242238
0.00102976
0.00041519
0.00182562
0.00265492
0.00306838
0.00340141
0.00341719
0.0034101
0.0029645
0.00290701
0.00281696
0.00234203
0.00196174
0.00140135
0.000385958
0.000750625
0.00229693
0.00396634
0.00578166
0.00196551
0.000711845
0.0005013
0.00151952
0.00244998
0.00309087
0.00275995
0.00312259
0.00281812
0.00266801
0.00257682
0.00218291
0.00214101
0.00170547
0.00106163
0.000489872
0.000457798
0.00195192
0.00345795
0.00471714
0.00164718
0.000399956
0.000307137
0.00138816
0.00211322
0.00222489
0.00265131
0.00252714
0.00255343
0.00237722
0.00235249
0.00194941
0.00179245
0.00138758
0.000883243
0.000291888
0.000502887
0.00166917
0.0028455
0.00390202
0.00123513
0.000268067
0.000502818
0.00115781
0.00144616
0.00192796
0.00183946
0.0021001
0.00211553
0.00173733
0.00180179
0.00153294
0.00132628
0.00107769
0.000668414
0.000250287
0.000132507
0.00127754
0.00231575
0.00299022
0.000858796
0.000177952
0.00023981
0.000680523
0.001283
0.0013417
0.00167982
0.00161961
0.00159174
0.00134857
0.00128989
0.00116548
0.00110574
0.000952211
0.000590161
0.000173559
0.000291813
0.000729101
0.00167885
0.00241045
0.000560844
0.000254468
0.000143368
0.00050644
0.000680878
0.000757983
0.00104118
0.00103233
0.00109256
0.000862281
0.000964945
0.000781087
0.000814415
0.000278659
0.000481096
9.4772e-05
0.000361236
0.00054986
0.000891265
0.00137673
0.00026437
0.000207718
1.15902e-05
7.17563e-05
0.000438418
0.000236501
0.000249921
0.00027723
0.000403497
0.000385465
0.000116758
0.000379144
0.0002696
7.40141e-05
8.929e-05
0.000275418
8.93931e-05
0.000184726
0.000676025
0.00044603
0.00656304
0.00453229
0.00278343
0.00106926
0.000108272
0.000597997
0.00123356
0.00124922
0.00165295
0.00112904
0.00106724
0.00068623
5.93308e-05
0.000693292
0.00146488
0.00263443
0.00390233
0.00582453
0.00795747
0.00994633
0.00556633
0.00385337
0.00251077
0.00111927
5.27766e-05
0.000661857
0.00093603
0.00106108
0.00134671
0.00111903
0.00104551
0.000626538
0.000284836
0.000495292
0.00127152
0.00216882
0.00353194
0.00525437
0.00690093
0.00884611
0.00470525
0.00334287
0.00209563
0.000812445
0.00012661
0.000703659
0.000919805
0.00104125
0.00113906
0.00105451
0.000820006
0.000492264
0.000321015
0.000136845
0.000842997
0.00186026
0.0028451
0.00432756
0.00609788
0.00750186
0.00391759
0.002679
0.00168417
0.00052445
0.000209845
0.000641536
0.000850447
0.00110447
0.000854784
0.00089841
0.000658593
0.000237303
0.000240917
0.000304732
0.000651623
0.00138785
0.00227539
0.0037748
0.00499928
0.00624707
0.0030469
0.00229538
0.00139924
0.000609416
0.000155584
0.000575464
0.000638642
0.00104613
0.000613733
0.000715191
0.000646438
0.000303514
0.000337632
0.000193023
0.000523877
0.00115444
0.00195835
0.00294852
0.00388826
0.00483164
0.00223656
0.00150585
0.000812317
0.000298574
0.000135538
0.000265559
0.000775689
0.000682824
0.000578626
0.000380793
0.000579265
1.91679e-05
9.39663e-05
8.03049e-05
0.000504632
0.000900915
0.0014566
0.00217015
0.00292231
0.00348117
0.00143944
0.000826493
0.000584937
0.000117365
0.00013826
0.000418822
0.000447423
0.00034889
0.000405157
0.000453388
0.000248331
0.000224536
0.00013439
2.36751e-05
0.000424597
0.000599452
0.000718505
0.00141566
0.00169407
0.00217103
0.00045777
0.00019911
0.000185597
4.4688e-05
3.0183e-05
3.906e-05
9.5659e-05
7.122e-05
0.000177535
0.000283832
0.000342804
0.000127916
0.000117488
1.55873e-05
0.000111998
1.004e-05
1.32907e-05
0.000594381
0.000814536
0.000586613
0.0106223
0.00870103
0.00668277
0.00503201
0.00381578
0.0027636
0.00211052
0.00170681
0.00173987
0.00198976
0.00222564
0.00242023
0.00297837
0.00389056
0.00480873
0.00605144
0.00780124
0.00987738
0.0120008
0.0142839
0.00943747
0.00757407
0.00595371
0.00445825
0.00326943
0.00242759
0.00210408
0.00161201
0.00144328
0.00151088
0.0017987
0.00197551
0.00259038
0.00319824
0.00439776
0.00537124
0.00692149
0.00850646
0.010483
0.0125567
0.00784913
0.00649248
0.00480707
0.00365188
0.00259719
0.00222882
0.00178095
0.00146865
0.00119738
0.00137542
0.0014174
0.00182964
0.00220561
0.00279197
0.00359415
0.00474194
0.00581202
0.00736867
0.00929478
0.0106192
0.00667203
0.00530707
0.00434296
0.00309543
0.00236917
0.0018714
0.00132389
0.000986682
0.00126693
0.00117266
0.00112948
0.00135901
0.00187318
0.00234389
0.0029826
0.00393912
0.00498485
0.00615313
0.00768336
0.00885459
0.00550723
0.00425021
0.00360067
0.00237542
0.00171817
0.00118013
0.00100133
0.000724887
0.000827226
0.00103038
0.00104953
0.00108966
0.00153135
0.00167232
0.00245351
0.00295582
0.00398454
0.00501568
0.00594674
0.00716297
0.00383837
0.00309841
0.00238132
0.00194906
0.00131822
0.000873319
0.00073477
0.000934473
0.000607537
0.000591266
0.000655006
0.00106171
0.00110998
0.00148674
0.00184024
0.00222671
0.0026121
0.00347076
0.00418476
0.00524258
0.00249042
0.00196981
0.00149789
0.0011482
0.000776852
0.000707974
0.000463428
0.000176702
0.000367953
0.000407143
0.00040366
0.000549284
0.000914099
0.000638129
0.00111366
0.00157958
0.00183116
0.00201037
0.00261966
0.00331637
0.0005195
0.000624673
0.000649856
0.000537056
0.000259865
0.000328521
9.28292e-06
5.67079e-05
0.000301374
0.000140855
0.000135841
0.000287887
0.000148799
0.000452926
8.74924e-05
0.000578037
0.000589426
0.000785351
0.0010297
0.0011172
0.0155346
0.0133604
0.0112315
0.00960154
0.00806999
0.00697477
0.00609492
0.0059786
0.00557615
0.00579543
0.00582426
0.00634009
0.00686033
0.00796729
0.00890774
0.0105073
0.012122
0.014467
0.0168028
0.0192409
0.0134506
0.0116388
0.00983498
0.00847943
0.00696603
0.00605489
0.00551747
0.00500227
0.00488555
0.00494031
0.00500639
0.00557036
0.00606273
0.00684366
0.00799212
0.00925102
0.0108901
0.012713
0.0147931
0.016745
0.0115954
0.0102045
0.00862258
0.00710061
0.0059141
0.00550167
0.0048154
0.00434525
0.00425037
0.0042149
0.00449327
0.00465449
0.00515938
0.00591923
0.00665723
0.00786455
0.00930193
0.0108286
0.0126225
0.0145007
0.00982711
0.00849401
0.00715181
0.0059153
0.00501631
0.00436733
0.00392285
0.00351683
0.00337767
0.00344745
0.0035978
0.00365227
0.00420971
0.00488937
0.00560565
0.00655278
0.00775181
0.00927248
0.010479
0.0118794
0.0077673
0.00669678
0.00557641
0.00468949
0.00396408
0.00355513
0.00294758
0.0030027
0.00277939
0.00274717
0.00285054
0.00293658
0.00358265
0.00384166
0.00444085
0.00531293
0.00620156
0.00727913
0.00836562
0.0092812
0.00556364
0.00486176
0.00376229
0.00356446
0.00283532
0.00243535
0.00212143
0.00218522
0.00209706
0.00177795
0.00206168
0.00223067
0.00243607
0.00287447
0.00311962
0.00382527
0.00462449
0.00526426
0.00590237
0.00691619
0.00356867
0.00311103
0.00282491
0.00234807
0.00196563
0.00163653
0.00147333
0.0014294
0.00112959
0.00141048
0.00124365
0.00119814
0.00153742
0.00168124
0.00217898
0.00234651
0.0026574
0.00336377
0.00354378
0.00452866
0.00110968
0.0010166
0.000473444
0.000883796
0.000456983
0.000483353
0.000551
0.000746231
0.000244343
0.000267591
0.000281367
0.000661212
0.000924486
0.000480886
0.000609887
0.000877729
0.000936246
0.00105426
0.00128811
0.00136453
0.0209898
0.018918
0.0164641
0.014543
0.0128727
0.0118339
0.0108618
0.0103508
0.0100936
0.00997165
0.0102251
0.0107391
0.0115355
0.0123496
0.0136427
0.0154174
0.0171629
0.0195875
0.022128
0.0245524
0.0180828
0.0165459
0.0145748
0.0128751
0.01146
0.0103355
0.00941318
0.00913941
0.00880052
0.00866541
0.00901359
0.00945709
0.0101178
0.0109902
0.0121038
0.0134672
0.0154594
0.0173906
0.0194874
0.0214647
0.0157483
0.0142316
0.0124761
0.0109314
0.00980461
0.00901294
0.00818702