/*--------------------------------*- C++ -*----------------------------------*\
| =========                 |                                                 |
| \\      /  F ield         | OpenFOAM: The Open Source CFD Toolbox           |
|  \\    /   O peration     | Version:  2212                                  |
|   \\  /    A nd           | Website:  www.openfoam.com                      |
|    \\/     M anipulation  |                                                 |
\*---------------------------------------------------------------------------*/
FoamFile
{
    version     2.0;
    format      ascii;
    arch        "LSB;label=32;scalar=64";
    class       volScalarField;
    location    "0";
    object      stateMean;
}
// * * * * * * * * * * * * * * * * * * * * * * * * * * * * * * * * * * * * * //

dimensions      [0 0 0 1 0 0 0];

internalField   nonuniform List<scalar> 
3200
(
324.702
323.996
323.279
322.947
323.041
323.302
323.629
323.938
324.271
324.398
324.387
324.223
323.938
323.427
322.968
322.575
322.278
322.398
322.785
323.37
321.822
321.169
320.497
320.325
320.318
320.589
320.816
321.097
321.33
321.514
321.469
321.293
321.102
320.719
320.262
319.905
319.645
319.819
320.205
320.661
318.703
318.123
317.727
317.439
317.389
317.645
317.896
318.08
318.296
318.403
318.342
318.284
318.128
317.739
317.415
317.13
316.9
316.988
317.293
317.775
315.466
315.046
314.597
314.464
314.439
314.608
314.729
315.03
315.197
315.28
315.283
315.279
314.993
314.692
314.403
314.094
314.016
314.13
314.429
314.686
312.095
311.805
311.491
311.383
311.338
311.46
311.639
311.751
311.937
311.927
311.949
311.945
311.688
311.485
311.344
311.164
311.042
311.092
311.225
311.538
308.856
308.435
308.197
308.21
308.204
308.346
308.427
308.467
308.56
308.62
308.641
308.559
308.45
308.273
308.191
308.058
307.907
307.921
308.127
308.303
305.329
305.106
305.014
304.942
304.898
304.972
305.121
305.111
305.105
305.23
305.21
305.221
305.144
304.973
304.841
304.831
304.725
304.805
304.881
305.04
301.724
301.816
301.618
301.63
301.633
301.624
301.695
301.776
301.762
301.744
301.737
301.767
301.688
301.689
301.613
301.621
301.591
301.65
301.683
301.698
325.02
324.245
323.528
323.306
323.291
323.665
323.969
324.305
324.636
324.758
324.747
324.588
324.364
323.797
323.35
322.904
322.606
322.643
322.923
323.603
322.03
321.308
320.719
320.635
320.61
320.811
321.174
321.461
321.698
321.813
321.868
321.688
321.425
320.983
320.584
320.227
319.93
319.975
320.289
320.9
318.845
318.327
317.784
317.633
317.637
317.881
318.142
318.35
318.617
318.71
318.674
318.568
318.294
318.111
317.665
317.329
317.096
317.165
317.418
317.94
315.64
315.18
314.764
314.563
314.618
314.781
314.941
315.196
315.346
315.463
315.481
315.407
315.151
314.891
314.631
314.321
314.184
314.183
314.468
314.83
312.236
311.869
311.583
311.476
311.526
311.634
311.716
311.942
312.064
312.092
312.123
312.104
311.936
311.684
311.537
311.269
311.189
311.221
311.355
311.579
308.776
308.597
308.35
308.29
308.339
308.335
308.471
308.572
308.629
308.694
308.711
308.692
308.634
308.428
308.287
308.05
307.978
307.972
308.193
308.386
305.382
305.147
305.06
304.971
305.034
305.036
305.109
305.166
305.17
305.327
305.281
305.268
305.225
305.065
304.935
304.897
304.876
304.868
304.915
304.979
301.76
301.789
301.699
301.744
301.703
301.694
301.718
301.666
301.789
301.777
301.772
301.84
301.795
301.684
301.692
301.632
301.625
301.613
301.7
301.735
325.44
324.573
323.889
323.792
323.881
324.1
324.508
324.905
325.179
325.403
325.384
325.256
324.891
324.466
323.749
323.465
323.008
323.039
323.432
323.871
322.419
321.698
321.139
320.969
320.994
321.253
321.535
321.915
322.181
322.364
322.341
322.293
321.91
321.527
321.005
320.636
320.34
320.353
320.678
321.134
319.225
318.647
318.128
318.015
317.953
318.214
318.5
318.861
318.996
319.141
319.175
319.1
318.787
318.408
318.048
317.695
317.474
317.399
317.727
318.113
315.874
315.379
315.016
314.843
314.925
315.143
315.287
315.584
315.723
315.909
315.9
315.761
315.539
315.297
314.916
314.709
314.46
314.484
314.754
315.014
312.36
312.117
311.841
311.723
311.706
311.786
312.033
312.165
312.331
312.408
312.411
312.351
312.206
311.954
311.699
311.537
311.315
311.371
311.543
311.837
308.942
308.67
308.506
308.376
308.387
308.415
308.647
308.774
308.817
308.987
308.891
308.875
308.759
308.631
308.464
308.297
308.187
308.175
308.271
308.495
305.448
305.281
305.108
305.037
305.092
305.122
305.245
305.306
305.273
305.397
305.362
305.307
305.276
305.145
305.079
304.999
304.937
304.913
304.889
305.085
301.77
301.789
301.791
301.632
301.67
301.658
301.676
301.741
301.83
301.79
301.8
301.794
301.853
301.767
301.638
301.645
301.755
301.666
301.628
301.711
326.015
325.299
324.691
324.38
324.542
324.797
325.2
325.656
325.959
326.137
326.2
325.969
325.587
325.054
324.575
323.932
323.578
323.567
323.9
324.474
322.886
322.23
321.753
321.53
321.611
321.877
322.16
322.558
322.87
322.984
323.035
322.899
322.483
322.04
321.679
321.168
320.871
320.788
321.125
321.536
319.569
319.102
318.702
318.464
318.551
318.77
319.01
319.344
319.571
319.712
319.768
319.615
319.272
318.943
318.513
318.119
317.887
317.867
318.035
318.527
316.216
315.812
315.46
315.313
315.376
315.597
315.751
315.978
316.219
316.337
316.36
316.162
316.032
315.634
315.329
315.046
314.848
314.834
314.98
315.281
312.817
312.446
312.132
312.064
312.013
312.127
312.305
312.514
312.638
312.809
312.77
312.689
312.533
312.303
312.064
311.786
311.618
311.589
311.742
312.044
309.175
308.886
308.708
308.668
308.612
308.78
308.828
308.946
309.083
309.176
309.234
309.176
309.001
308.845
308.677
308.494
308.398
308.334
308.492
308.671
305.47
305.375
305.344
305.186
305.218
305.266
305.349
305.459
305.51
305.522
305.527
305.479
305.343
305.308
305.256
305.055
305.061
305.01
305.119
305.185
301.849
301.759
301.77
301.739
301.724
301.766
301.799
301.816
301.91
301.84
301.735
301.799
301.759
301.747
301.782
301.733
301.657
301.715
301.752
301.754
326.796
326.175
325.423
325.27
325.376
325.672
326.092
326.485
326.8
327.019
327.078
326.855
326.475
325.876
325.32
324.764
324.371
324.366
324.592
325.08
323.627
322.982
322.414
322.226
322.357
322.507
322.899
323.283
323.589
323.773
323.791
323.627
323.219
322.837
322.291
321.829
321.419
321.392
321.671
322.135
320.24
319.753
319.272
319.155
319.161
319.408
319.716
319.939
320.206
320.384
320.414
320.278
319.937
319.554
319.163
318.728
318.43
318.334
318.704
319.058
316.675
316.284
315.883
315.772
315.917
316.08
316.261
316.493
316.716
316.808
316.84
316.707
316.485
316.159
315.831
315.493
315.294
315.283
315.421
315.726
313.161
312.77
312.501
312.424
312.444
312.528
312.655
312.98
313.092
313.158
313.175
313.099
312.901
312.661
312.351
312.162
312.008
311.951
312.131
312.325
309.425
309.204
308.958
308.949
308.858
308.939
309.157
309.313
309.364
309.442
309.394
309.501
309.327
309.139
308.871
308.817
308.574
308.698
308.73
308.898
305.612
305.552
305.384
305.4
305.39
305.433
305.517
305.596
305.655
305.649
305.672
305.672
305.61
305.471
305.405
305.219
305.271
305.227
305.246
305.397
301.906
301.938
301.906
301.809
301.821
301.819
301.818
301.83
301.828
301.904
301.968
301.904
301.91
301.833
301.86
301.78
301.832
301.787
301.73
301.761
327.751
327.001
326.507
326.281
326.345
326.596
326.992
327.35
327.782
328.07
328.025
327.786
327.36
326.785
326.224
325.61
325.283
325.125
325.514
325.917
324.329
323.772
323.288
323.107
323.15
323.417
323.702
324.079
324.442
324.539
324.629
324.433
324.091
323.692
323.106
322.561
322.25
322.184
322.374
322.798
320.909
320.392
319.911
319.83
319.843
319.992
320.373
320.651
320.843
321.055
321.099
321.01
320.565
320.23
319.726
319.426
319.103
318.967
319.24
319.582
317.282
316.923
316.493
316.35
316.365
316.575
316.822
317.12
317.215
317.396
317.502
317.285
316.992
316.653
316.298
315.971
315.82
315.75
315.867
316.222
313.528
313.264
312.95
312.899
312.866
312.975
313.155
313.356
313.574
313.642
313.584
313.518
313.399
313.107
312.751
312.542
312.395
312.399
312.566
312.708
309.687
309.538
309.316
309.249
309.274
309.363
309.426
309.53
309.688
309.736
309.865
309.776
309.618
309.424
309.22
308.927
308.971
308.873
308.962
309.141
305.87
305.727
305.583
305.545
305.524
305.595
305.723
305.776
305.806
305.875
305.924
305.907
305.807
305.695
305.593
305.392
305.376
305.352
305.403
305.53
301.985
301.955
301.893
301.925
301.963
301.886
301.949
301.919
302.022
302.043
301.976
301.993
301.955
301.899
301.892
301.872
301.836
301.733
301.756
301.887
328.813
328.064
327.513
327.352
327.292
327.573
327.978
328.362
328.755
328.975
329.043
328.791
328.371
327.711
327.111
326.643
326.192
326.097
326.404
326.739
325.361
324.665
324.241
324.019
324.113
324.28
324.614
324.959
325.268
325.472
325.497
325.341
324.961
324.405
323.816
323.361
323.162
322.97
323.154
323.599
321.655
321.229
320.797
320.67
320.542
320.85
321.077
321.365
321.611
321.736
321.809
321.727
321.281
320.956
320.465
320.106
319.855
319.836
319.858
320.255
317.87
317.593
317.236
317.025
317.06
317.198
317.441
317.668
317.856
318.051
318.028
317.936
317.725
317.318
316.957
316.603
316.391
316.354
316.428
316.722
313.965
313.787
313.466
313.411
313.386
313.433
313.663
313.868
313.987
314.087
314.111
314.048
313.785
313.609
313.315
313.019
312.869
312.777
313.018
313.093
310.03
309.864
309.716
309.548
309.536
309.756
309.837
309.931
310.023
310.176
310.127
310.078
309.942
309.758
309.552
309.386
309.291
309.298
309.282
309.47
306.016
305.961
305.789
305.832
305.82
305.84
305.837
305.969
306.035
306.081
306.121
306.115
306.071
305.902
305.806
305.705
305.533
305.591
305.698
305.694
302.037
302.11
302.089
301.961
301.988
301.953
301.984
302.024
302.075
302.046
302.01
302.102
302.065
301.95
302.016
301.898
301.938
301.926
301.9
301.921
329.966
329.323
328.794
328.453
328.46
328.727
329.062
329.36
329.808
330.044
330.071
329.796
329.383
328.764
328.061
327.567
327.227
327.179
327.398
327.762
326.26
325.701
325.208
325.023
324.984
325.206
325.502
325.863
326.104
326.35
326.344
326.173
325.809
325.341
324.838
324.267
323.986
323.951
324.09
324.416
322.552
322.102
321.66
321.387
321.438
321.538
321.836
322.093
322.442
322.531
322.542
322.461
322.164
321.68
321.226
320.823
320.596
320.59
320.672
320.96
318.507
318.248
317.978
317.726
317.728
317.826
318.054
318.291
318.534
318.563
318.596
318.545
318.234
317.911
317.564
317.174
316.929
316.976
317.106
317.298
314.523
314.248
314.094
313.955
313.898
314.068
314.163
314.366
314.567
314.567
314.581
314.525
314.341
314.095
313.779
313.521
313.392
313.337
313.424
313.585
310.488
310.307
310.098
309.977
310.014
310.039
310.084
310.359
310.425
310.471
310.498
310.43
310.285
310.063
309.87
309.73
309.618
309.571
309.69
309.764
306.418
306.158
306.071
305.968
306.028
306.085
306.137
306.237
306.278
306.382
306.305
306.273
306.193
306.057
306.054
305.812
305.816
305.715
305.792
305.956
302.049
302.12
302.109
302.076
302.001
302.009
301.997
302.066
302.085
302.154
302.078
302.133
302.139
302.019
301.946
301.933
301.962
301.906
301.935
301.987
331.149
330.5
330.016
329.662
329.607
329.835
330.128
330.46
330.837
331.013
331.031
330.833
330.478
329.793
329.101
328.658
328.259
328.223
328.348
328.741
327.36
326.822
326.325
326.035
326.06
326.195
326.399
326.819
326.995
327.308
327.255
327.067
326.743
326.275
325.751
325.212
324.915
324.92
325.004
325.351
323.408
323.011
322.558
322.435
322.332
322.484
322.757
322.908
323.147
323.299
323.343
323.234
322.815
322.433
322.016
321.577
321.337
321.23
321.437
321.759
319.343
318.977
318.675
318.441
318.458
318.524
318.747
318.963
319.139
319.326
319.361
319.243
318.908
318.499
318.25
317.898
317.699
317.595
317.738
317.967
315.168
314.875
314.618
314.493
314.486
314.603
314.632
314.872
314.972
315.162
315.162
315.023
314.731
314.533
314.296
314.035
313.845
313.814
313.928
314.025
310.869
310.681
310.466
310.393
310.39
310.43
310.533
310.688
310.718
310.781
310.888
310.685
310.735
310.471
310.261
310.061
310.027
309.905
309.965
310.13
306.541
306.407
306.404
306.227
306.233
306.234
306.378
306.507
306.47
306.568
306.591
306.545
306.449
306.345
306.155
306.066
306
305.942
306.011
306.178
302.235
302.117
302.07
302.142
302.045
302.121
302.144
302.106
302.26
302.221
302.224
302.149
302.152
302.09
302.027
302.082
301.986
301.975
302.072
302.017
332.317
331.759
331.195
330.972
330.864
331.006
331.339
331.504
331.874
332.093
332.161
331.91
331.405
330.846
330.275
329.798
329.402
329.344
329.51
329.833
328.462
327.951
327.376
327.25
327.068
327.167
327.488
327.734
327.995
328.137
328.196
327.941
327.616
327.117
326.587
326.168
325.916
325.808
325.982
326.24
324.34
323.963
323.526
323.316
323.186
323.342
323.507
323.703
323.944
324.153
324.172
323.842
323.713
323.209
322.847
322.373
322.135
322.067
322.277
322.49
320.036
319.798
319.371
319.248
319.152
319.222
319.414
319.586
319.779
319.905
319.93
319.784
319.554
319.177
318.821
318.514
318.329
318.313
318.432
318.635
315.719
315.522
315.221
315.11
315.062
315.032
315.2
315.309
315.5
315.658
315.519
315.522
315.241
315.078
314.771
314.521
314.368
314.317
314.514
314.546
311.341
311.092
310.917
310.877
310.846
310.799
310.928
311.034
311.189
311.168
311.211
311.176
310.951
310.835
310.577
310.482
310.333
310.344
310.432
310.446
306.835
306.733
306.66
306.511
306.51
306.529
306.522
306.671
306.736
306.739
306.662
306.699
306.639
306.569
306.372
306.344
306.268
306.151
306.288
306.385
302.203
302.307
302.205
302.161
302.215
302.141
302.236
302.232
302.268
302.363
302.272
302.265
302.207
302.23
302.172
302.06
302.103
302.106
302.151
302.181
333.583
333.021
332.529
332.198
332.062
332.178
332.343
332.613
332.981
333.127
333.124
332.854
332.44
331.851
331.202
330.755
330.465
330.41
330.577
330.903
329.486
329.013
328.598
328.388
328.144
328.252
328.47
328.697
328.908
329.105
329.003
328.855
328.478
328.004
327.535
327.057
326.777
326.692
326.938
327.218
325.222
324.821
324.4
324.267
324.098
324.127
324.319
324.588
324.792
324.852
324.835
324.71
324.361
323.993
323.507
323.209
323.001
322.935
323.143
323.307
320.798
320.558
320.181
320.018
319.887
319.918
320.136
320.214
320.465
320.497
320.509
320.438
320.1
319.807
319.493
319.163
319.024
318.962
319.086
319.244
316.332
316.074
315.795
315.674
315.603
315.67
315.752
315.794
315.976
316.035
316.058
316.045
315.844
315.539
315.239
315.136
314.882
314.817
314.944
315.106
311.749
311.575
311.368
311.345
311.203
311.246
311.397
311.445
311.602
311.58
311.517
311.501
311.256
311.178
311.012
310.774
310.776
310.652
310.853
310.899
307.075
306.934
306.753
306.851
306.72
306.822
306.82
306.861
306.872
306.962
306.975
306.974
306.797
306.725
306.728
306.54
306.514
306.488
306.499
306.492
302.37
302.354
302.327
302.268
302.28
302.326
302.221
302.241
302.324
302.368
302.422
302.291
302.315
302.326
302.223
302.252
302.123
302.116
302.223
302.292
334.946
334.363
333.878
333.627
333.368
333.388
333.555
333.696
333.915
334.05
334.063
333.77
333.41
332.854
332.298
331.855
331.503
331.538
331.653
332.023
330.672
330.226
329.683
329.388
329.282
329.346
329.475
329.541
329.834
329.914
329.898
329.677
329.36
328.871
328.417
328.048
327.746
327.667
327.888
328.194
326.261
325.815
325.443
325.179
325.034
325.145
325.164
325.328
325.475
325.541
325.598
325.395
325.086
324.711
324.356
324.021
323.806
323.782
323.889
324.185
321.608
321.295
321.079
320.827
320.686
320.725
320.816
320.955
321.032
321.156
321.116
320.949
320.685
320.436
320.086
319.877
319.708
319.79
319.718
319.993
316.87
316.811
316.516
316.327
316.229
316.255
316.378
316.368
316.387
316.566
316.567
316.393
316.25
315.989
315.77
315.614
315.396
315.432
315.462
315.75
312.178
312.014
311.832
311.627
311.664
311.706
311.666
311.78
311.821
311.913
311.887
311.825
311.728
311.574
311.357
311.159
311.033
311.055
311.06
311.202
307.221
307.285
307.145
306.995
307.081
306.983
307.024
307.051
307.107
307.068
307.135
307.19
307.052
306.943
306.866
306.758
306.672
306.771
306.706
306.804
302.463
302.368
302.429
302.359
302.44
302.318
302.286
302.383
302.417
302.369
302.403
302.342
302.439
302.391
302.259
302.236
302.256
302.278
302.283
302.262
336.237
335.684
335.086
334.85
334.593
334.541
334.679
334.751
334.98
335.028
334.961
334.726
334.365
333.83
333.195
332.879
332.659
332.621
332.695
333.031
331.836
331.399
330.869
330.564
330.42
330.356
330.412
330.597
330.62
330.744
330.644
330.589
330.141
329.676
329.305
328.871
328.696
328.708
328.845
329.16
327.132
326.77
326.418
326.113
326
326.058
326.078
326.26
326.318
326.28
326.224
326.033
325.819
325.488
325.161
324.856
324.722
324.582
324.799
324.97
322.441
322.076
321.827
321.605
321.482
321.449
321.555
321.656
321.665
321.767
321.638
321.524
321.329
320.986
320.728
320.486
320.347
320.347
320.506
320.603
317.553
317.33
317.044
316.898
316.824
316.777
316.833
316.906
316.949
317.07
316.977
316.865
316.729
316.553
316.213
316.087
315.999
315.973
316.004
316.198
312.658
312.416
312.252
312.139
312.078
312.131
312.202
312.045
312.24
312.287
312.166
312.166
311.967
311.888
311.69
311.555
311.511
311.454
311.481
311.698
307.626
307.506
307.426
307.334
307.252
307.329
307.369
307.319
307.339
307.376
307.401
307.25
307.224
307.084
306.975
306.964
306.906
306.908
306.984
307.065
302.48
302.544
302.489
302.369
302.466
302.356
302.409
302.447
302.553
302.456
302.468
302.472
302.451
302.355
302.371
302.361
302.305
302.281
302.284
302.361
337.538
337.013
336.416
336.137
335.846
335.815
335.823
335.848
336.037
335.906
335.872
335.596
335.302
334.757
334.402
333.98
333.751
333.734
333.888
334.224
332.95
332.478
332.036
331.639
331.484
331.428
331.414
331.521
331.527
331.639
331.537
331.338
330.973
330.693
330.2
329.869
329.72
329.634
329.84
330.093
328.184
327.802
327.386
327.148
326.949
326.851
326.93
326.952
327.022
327.07
327.016
326.828
326.51
326.232
325.886
325.614
325.491
325.468
325.589
325.721
323.192
322.888
322.648
322.4
322.254
322.266
322.166
322.236
322.342
322.364
322.302
322.155
321.888
321.634
321.293
321.125
321.038
320.963
321.085
321.322
318.313
318.036
317.807
317.535
317.481
317.368
317.406
317.425
317.474
317.572
317.388
317.3
317.231
316.954
316.757
316.537
316.469
316.53
316.621
316.702
313.136
312.95
312.771
312.612
312.503
312.455
312.488
312.557
312.52
312.494
312.484
312.464
312.344
312.184
312.041
311.875
311.867
311.855
311.933
312.121
307.898
307.82
307.66
307.565
307.545
307.533
307.569
307.519
307.575
307.616
307.51
307.432
307.448
307.403
307.223
307.249
307.121
307.209
307.123
307.194
302.629
302.56
302.598
302.519
302.556
302.505
302.485
302.433
302.618
302.604
302.517
302.512
302.505
302.466
302.502
302.451
302.411
302.384
302.333
302.466
338.86
338.32
337.795
337.423
337.137
336.97
336.878
336.923
336.938
337.005
336.757
336.601
336.248
335.771
335.419
335.04
334.824
334.782
335.079
335.27
334.171
333.571
333.12
332.867
332.528
332.427
332.357
332.416
332.487
332.417
332.345
332.033
331.742
331.45
331.054
330.865
330.658
330.578
330.726
331.036
329.122
328.769
328.349
328.083
327.87
327.757
327.743
327.722
327.693
327.766
327.672
327.488
327.151
327
326.646
326.354
326.24
326.306
326.419
326.638
324.137
323.788
323.457
323.173
322.995
322.975
322.926
322.877
322.867
322.921
322.796
322.668
322.506
322.266
321.975
321.796
321.653
321.672
321.863
322.026
318.821
318.605
318.353
318.109
318.019
317.9
317.907
317.838
317.911
317.966
317.867
317.765
317.588
317.411
317.22
317.113
317.053
317.038
317.094
317.282
313.592
313.351
313.133
312.98
312.929
312.934
312.821
312.836
312.94
312.811
312.855
312.772
312.645
312.541
312.479
312.245
312.199
312.209
312.292
312.384
308.233
308.185
307.935
307.924
307.807
307.729
307.733
307.729
307.756
307.751
307.849
307.718
307.638
307.542
307.49
307.4
307.337
307.44
307.432
307.527
302.734
302.791
302.64
302.664
302.559
302.614
302.524
302.594
302.616
302.663
302.604
302.521
302.545
302.51
302.553
302.424
302.426
302.477
302.534
302.59
340.17
339.687
339.122
338.664
338.318
338.115
338.009
338.056
337.947
337.817
337.698
337.432
337.163
336.793
336.348
336.057
335.996
335.879
336.094
336.434
335.22
334.822
334.383
333.907
333.632
333.49
333.433
333.337
333.276
333.208
333.128
332.846
332.579
332.262
331.858
331.698
331.622
331.631
331.769
332.026
330.035
329.678
329.349
329.046
328.847
328.572
328.567
328.5
328.51
328.403
328.386
328.104
327.92
327.678
327.373
327.151
327.088
327.124
327.267
327.496
324.906
324.548
324.269
323.914
323.777
323.579
323.62
323.489
323.519
323.457
323.406
323.185
323.059
322.899
322.636
322.439
322.391
322.405
322.504
322.689
319.446
319.279
318.91
318.691
318.511
318.514
318.474
318.39
318.374
318.318
318.278
318.214
318.178
317.902
317.729
317.586
317.526
317.687
317.593
317.71
314.012
313.879
313.602
313.534
313.394
313.273
313.25
313.147
313.185
313.123
313.212
313.098
313.047
312.85
312.738
312.655
312.524
312.641
312.697
312.761
308.403
308.297
308.257
308.101
308.011
308.015
307.962
307.923
308.014
307.883
307.902
307.86
307.785
307.75
307.739
307.699
307.573
307.566
307.678
307.699
302.818
302.778
302.783
302.682
302.725
302.755
302.656
302.77
302.721
302.662
302.633
302.757
302.632
302.625
302.621
302.571
302.479
302.594
302.608
302.621
341.429
341.003
340.287
339.768
339.463
339.256
339.09
338.973
338.945
338.725
338.599
338.334
338.071
337.689
337.354
337.063
336.957
337.055
337.208
337.399
336.384
335.918
335.392
334.992
334.706
334.395
334.326
334.242
334.165
334.011
333.925
333.646
333.435
333.115
332.854
332.584
332.51
332.607
332.764
332.973
330.982
330.65
330.281
329.939
329.689
329.461
329.361
329.208
329.205
329.119
329.003
328.799
328.62
328.358
328.143
327.926
327.831
327.852
328.072
328.331
325.651
325.321
325.02
324.706
324.396
324.375
324.334
324.147
324.112
323.976
323.897
323.764
323.605
323.415
323.242
323.088
323.004
323.012
323.242
323.342
320.083
319.825
319.572
319.33
319.136
319.08
318.985
318.949
318.874
318.78
318.742
318.626
318.511
318.33
318.156
318.117
318.028
318.076
318.165
318.358
314.42
314.186
314.063
313.905
313.718
313.643
313.637
313.621
313.539
313.556
313.459
313.383
313.301
313.151
313.061
313.041
312.925
313.087
313.009
313.161
308.621
308.471
308.382
308.353
308.245
308.129
308.246
308.144
308.103
308.186
308.118
308.098
307.938
307.924
307.962
307.835
307.83
307.843
307.924
308.028
302.881
302.883
302.904
302.772
302.754
302.79
302.717
302.749
302.699
302.701
302.729
302.643
302.66
302.737
302.617
302.595
302.589
302.619
302.61
302.668
342.61
342.07
341.535
341.069
340.656
340.341
340.157
339.987
339.836
339.651
339.519
339.236
338.886
338.676
338.338
338.089
338.041
338.091
338.261
338.567
337.346
336.956
336.381
336.036
335.561
335.35
335.148
335.104
335.014
334.79
334.603
334.393
334.154
333.946
333.668
333.454
333.455
333.484
333.66
333.954
331.912
331.486
331.106
330.766
330.549
330.302
330.068
330.022
329.903
329.757
329.569
329.426
329.289
329.015
328.834
328.693
328.63
328.654
328.796
329.097
326.378
325.977
325.71
325.437
325.188
325.035
324.814
324.77
324.726
324.612
324.435
324.377
324.168
324.003
323.777
323.739
323.592
323.724
323.861
323.997
320.713
320.439
320.105
319.908
319.771
319.566
319.501
319.398
319.373
319.258
319.143
319.052
318.964
318.792
318.64
318.585
318.552
318.577
318.709
318.84
314.825
314.678
314.409
314.159
314.179
313.952
313.984
313.939
313.867
313.856
313.754
313.574
313.659
313.48
313.368
313.382
313.306
313.412
313.435
313.54
308.838
308.818
308.663
308.55
308.517
308.495
308.491
308.41
308.333
308.377
308.297
308.235
308.222
308.156
308.083
308.044
308.048
308.046
308.097
308.141
302.994
302.953
302.996
302.842
302.898
302.772
302.872
302.796
302.698
302.809
302.744
302.77
302.75
302.748
302.758
302.711
302.779
302.715
302.762
302.737
343.644
343.16
342.575
342.097
341.667
341.305
341.08
340.902
340.677
340.479
340.251
340.103
339.763
339.473
339.171
338.948
338.971
339.045
339.286
339.5
338.269
337.894
337.376
336.854
336.501
336.218
336.066
335.825
335.741
335.496
335.3
335.194
334.882
334.683
334.384
334.287
334.216
334.289
334.541
334.693
332.693
332.28
331.974
331.446
331.203
330.96
330.705
330.612
330.464
330.354
330.259
330.02
329.795
329.673
329.469
329.301
329.318
329.378
329.499
329.781
327.02
326.714
326.375
326.056
325.794
325.589
325.449
325.278
325.142
325.05
324.929
324.854
324.692
324.548
324.32
324.275
324.184
324.323
324.315
324.611
321.119
320.879
320.65
320.374
320.222
320.057
319.893
319.805
319.744
319.627
319.497
319.413
319.303
319.218
319.114
318.981
318.95
318.993
319.217
319.328
315.059
314.878
314.746
314.668
314.455
314.361
314.228
314.229
314.151
314.091
313.999
313.902
313.855
313.764
313.697
313.645
313.602
313.609
313.726
313.869
309.088
309.018
308.902
308.803
308.679
308.677
308.659
308.517
308.569
308.484
308.439
308.387
308.28
308.322
308.27
308.228
308.243
308.203
308.347
308.338
303.079
303.053
302.985
302.948
302.977
302.864
302.849
302.986
302.828
302.924
302.895
302.8
302.834
302.746
302.751
302.779
302.708
302.695
302.802
302.834
344.446
343.852
343.367
342.836
342.363
342.018
341.689
341.476
341.312
341.049
340.816
340.634
340.356
340.072
339.807
339.655
339.634
339.721
339.966
340.235
338.862
338.474
338.037
337.487
337.162
336.771
336.492
336.405
336.252
336.084
335.775
335.626
335.436
335.219
334.913
334.856
334.829
334.853
335.187
335.387
333.238
332.84
332.329
332.072
331.722
331.444
331.237
331.063
330.875
330.756
330.634
330.453
330.283
330.043
329.873
329.789
329.715
329.785
330.033
330.27
327.362
327.102
326.756
326.418
326.188
325.912
325.773
325.632
325.404
325.368
325.281
325.206
324.937
324.826
324.755
324.644
324.544
324.68
324.856
324.928
321.371
321.192
320.959
320.703
320.412
320.306
320.223
319.971
319.945
319.919
319.775
319.745
319.54
319.451
319.329
319.25
319.273
319.36
319.498
319.573
315.315
315.256
315.044
314.881
314.666
314.548
314.522
314.482
314.331
314.286
314.171
314.098
314.078
313.966
313.891
313.838
313.828
313.858
314.01
314.052
309.262
309.186
309.037
308.848
308.803
308.775
308.744
308.704
308.656
308.599
308.587
308.506
308.442
308.38
308.441
308.352
308.304
308.351
308.43
308.454
303.112
303.097
303.082
303.09
302.989
303.044
302.957
302.912
302.884
302.842
302.823
302.896
302.846
302.84
302.824
302.81
302.719
302.763
302.876
302.798
)
;

boundaryField
{
    hotSide
    {
        type            fixedGradient;
        gradient        nonuniform List<scalar> 
400
(
321.511
322.87
325.591
329.677
335.133
341.965
350.181
359.788
370.794
383.208
397.037
412.289
428.971
447.088
466.647
487.651
510.105
534.011
559.372
586.191
323.738
325.08
327.767
331.802
337.194
343.949
352.078
361.591
372.498
384.81
398.537
413.687
430.268
448.289
467.755
488.672
511.043
534.872
560.161
586.913
326.149
327.47
330.116
334.091
339.406
346.071
354.099
363.503
374.296
386.491
400.101
415.136
431.606
449.52
468.885
489.706
511.988
535.735
560.948
587.63
328.704
330
332.597
336.503
341.73
348.292
356.205
365.485
376.15
388.215
401.695
416.604
432.954
450.753
470.009
490.73
512.919
536.579
561.714
588.325
331.33
332.599
335.142
338.97
344.099
350.546
358.332
367.477
378.003
389.928
403.271
418.047
434.27
451.949
471.095
491.712
513.807
537.382
562.439
588.978
333.918
335.158
337.643
341.389
346.414
352.74
360.392
369.397
379.779
391.562
404.765
419.407
435.503
453.065
472.101
492.618
514.622
538.114
563.096
589.569
336.321
337.531
339.959
343.622
348.544
354.751
362.274
371.142
381.385
393.031
406.101
420.618
436.595
454.047
472.983
493.409
515.33
538.747
563.663
590.076
338.36
339.543
341.92
345.509
350.339
356.44
363.847
372.595
382.718
394.244
407.2
421.608
437.485
454.844
473.695
494.045
515.897
539.253
564.114
590.478
339.852
341.015
343.352
346.885
351.645
357.665
364.985
373.643
383.675
395.113
407.984
422.312
438.116
455.407
474.197
494.491
516.294
539.606
564.428
590.758
340.643
341.795
344.11
347.613
352.334
358.311
365.584
374.193
384.176
395.567
408.393
422.679
438.443
455.699
474.456
494.722
516.498
539.788
564.589
590.901
340.643
341.795
344.11
347.613
352.334
358.311
365.584
374.193
384.176
395.567
408.393
422.679
438.443
455.699
474.456
494.722
516.498
539.788
564.589
590.901
339.852
341.015
343.352
346.885
351.645
357.665
364.985
373.643
383.675
395.113
407.984
422.312
438.116
455.407
474.197
494.491
516.294
539.606
564.428
590.758
338.36
339.543
341.92
345.509
350.339
356.44
363.847
372.595
382.718
394.244
407.2
421.608
437.485
454.844
473.695
494.045
515.897
539.253
564.114
590.478
336.321
337.531
339.959
343.622
348.544
354.751
362.274
371.142
381.385
393.031
406.101
420.618
436.595
454.047
472.983
493.409
515.33
538.747
563.663
590.076
333.918
335.158
337.643
341.389
346.414
352.74
360.392
369.397
379.779
391.562
404.765
419.407
435.503
453.065
472.101
492.618
514.622
538.114
563.096
589.569
331.33
332.599
335.142
338.97
344.099
350.546
358.332
367.477
378.003
389.928
403.271
418.047
434.27
451.949
471.095
491.712
513.807
537.382
562.439
588.978
328.704
330
332.597
336.503
341.73
348.292
356.205
365.485
376.15
388.215
401.695
416.604
432.954
450.753
470.009
490.73
512.919
536.579
561.714
588.325
326.149
327.47
330.116
334.091
339.406
346.071
354.099
363.503
374.296
386.491
400.101
415.136
431.606
449.52
468.885
489.706
511.988
535.735
560.948
587.63
323.738
325.08
327.767
331.802
337.194
343.949
352.078
361.591
372.498
384.81
398.537
413.687
430.268
448.289
467.755
488.672
511.043
534.872
560.161
586.913
321.511
322.87
325.591
329.677
335.133
341.965
350.181
359.788
370.794
383.208
397.037
412.289
428.971
447.088
466.647
487.651
510.105
534.011
559.372
586.191
)
;
    }
    coldSide
    {
        type            mixed;
        refValue        uniform 300;
        refGradient     uniform 0;
        valueFraction   uniform 0.991591;
        source          uniform 0;
        value           nonuniform List<scalar> 
400
(
300.014
300.015
300.015
300.016
300.016
300.017
300.017
300.017
300.019
300.019
300.02
300.021
300.021
300.022
300.023
300.024
300.024
300.025
300.026
300.026
300.015
300.015
300.015
300.015
300.016
300.016
300.018
300.018
300.018
300.019
300.02
300.02
300.021
300.022
300.023
300.023
300.024
300.025