/*--------------------------------*- C++ -*----------------------------------*\
| =========                 |                                                 |
| \\      /  F ield         | OpenFOAM: The Open Source CFD Toolbox           |
|  \\    /   O peration     | Version:  2212                                  |
|   \\  /    A nd           | Website:  www.openfoam.com                      |
|    \\/     M anipulation  |                                                 |
\*---------------------------------------------------------------------------*/
FoamFile
{
    version     2.0;
    format      ascii;
    arch        "LSB;label=32;scalar=64";
    class       volScalarField;
    location    "./ITHACAoutput/true/8.1";
    object      error;
}
// * * * * * * * * * * * * * * * * * * * * * * * * * * * * * * * * * * * * * //

dimensions      [0 0 0 1 0 0 0];

internalField   nonuniform List<scalar> 
3200
(
4.08167
5.13762
1.77043
6.36949
1.06805
3.6784
2.19464
-0.642338
1.50519
-1.80445
3.97062
2.37657
0.617642
0.240487
0.960521
1.9225
2.67977
7.32123
1.64706
2.50086
2.80393
5.55831
3.50932
1.02584
-0.977609
1.93858
0.919087
0.396733
0.980954
4.27815
3.40948
6.36765
5.41904
3.57046
0.603321
2.49255
2.12766
3.75923
9.14808
3.80445
-2.87275
-0.910609
4.08384
6.01141
0.415424
5.76889
-0.865829
-0.830869
4.90598
-1.30636
6.24169
0.100451
0.153912
3.80038
0.525834
3.07591
3.59582
2.27735
1.14144
5.70416
1.09558
-1.5741
2.97163
3.22054
0.938628
-0.363896
0.933562
-0.801215
-1.71733
2.6917
0.833926
2.68949
3.32171
1.65812
2.70045
-2.91768
1.85686
4.96704
2.7504
1.73124
4.1191
-2.78325
1.09273
-2.01538
2.18609
-1.54424
-1.30612
5.0309
0.283835
0.408777
2.35804
3.81608
1.31405
0.879186
1.07178
3.19696
2.45827
3.55102
4.66395
1.40726
1.29525
-2.84617
4.45075
-0.65036
6.82517
-1.21094
-0.848527
1.11919
-0.119529
1.29389
-1.90278
-1.87025
0.864204
4.3366
3.33779
-0.0851091
4.90228
-0.41871
0.912994
3.39663
2.02781
-0.11542
-1.92084
-3.06366
1.61443
-3.77241
2.82487
3.6205
-0.319533
-0.829333
0.857153
-0.173503
-3.17061
-4.03268
-2.28099
2.76864
0.115264
-2.00728
0.30824
0.788146
0.46216
-3.41129
4.31011
0.284486
0.265772
0.300434
-0.0564989
-4.02254
-2.58321
7.25665
3.63664
0.418373
-3.13029
-1.94214
-1.48122
1.33758
4.56306
-2.31705
1.50486
-0.811547
-2.37496
-0.959426
-1.21508
-0.751565
2.31007
1.43253
0.576276
1.29325
-1.11392
-0.912648
0.198493
-1.09247
0.998872
1.91979
4.32137
1.24866
3.44225
0.525027
2.25971
7.02749
0.27582
1.66711
3.04687
-1.26091
0.408309
-0.924508
-1.57038
0.244037
2.39945
-1.20722
0.0671127
4.39513
-0.844565
-1.90674
0.424978
2.35173
0.720576
1.72366
0.0824587
-1.49496
-2.07797
1.11871
-1.08203
3.52788
1.28256
-0.0901674
1.28516
-0.974039
4.47872
1.39907
0.993243
0.185412
2.60815
4.42152
2.16665
0.823023
4.05952
1.54807
-0.0973356
3.9755
-0.805513
0.331234
0.724762
-2.26956
3.8576
-3.89362
5.76388
0.759488
-1.3608
4.34463
-0.800999
3.78146
-1.14679
2.18057
1.76471
3.31102
1.61759
0.925483
-0.363609
1.7284
-3.51391
-0.620053
-1.80533
-2.54872
0.173072
-0.732457
1.06003
-0.604455
-1.72015
0.28241
-0.9109
-0.581064
4.37182
1.959
-0.792632
0.6487
-0.361618
-0.0713202
3.26697
3.82458
0.71016
1.33567
0.765714
-2.32998
-5.8206
1.04274
1.00359
-0.00896797
5.0631
-0.596784
0.665509
0.550164
3.57935
2.14651
1.58164
-0.277395
5.30043
-4.65809
2.30086
1.14421
-2.60404
2.37645
4.74254
3.66843
-0.433806
-2.84474
4.90533
0.511981
4.03612
1.9281
-0.430404
-0.222355
0.143804
-2.13574
-0.980913
3.45583
-0.414326
1.86009
-0.198546
3.48067
1.5589
2.57931
0.427484
0.062398
-0.260769
4.68464
-0.205006
0.383458
3.45408
2.84169
1.4321
0.0614969
0.632745
1.92336
4.82922
-3.55604
-0.94748
-0.75547
-0.780937
-0.718439
-5.36216
0.444881
-4.16612
-5.39972
-2.83505
-6.7445
-5.72281
0.136999
-3.81807
1.64721
1.70936
-1.30001
1.26827
2.55328
-0.583774
0.518142
3.05678
-1.25089
5.57163
1.05932
-1.39745
-3.87577
0.748723
-1.84228
-0.470483
2.67659
-0.321004
1.26481
0.142491
-3.05187
1.83567
0.0693843
1.51503
-2.15312
0.243191
2.22977
0.332648
-0.0981198
-0.067575
1.8478
0.691381
-0.668687
2.13393
-3.12097
-2.47895
-0.160209
2.28216
0.267749
-0.663285
1.21366
-2.30346
3.14618
5.28542
-0.171855
5.2171
-2.33521
-2.27181
3.77088
0.853112
1.05406
-1.42287
-1.59901
-0.392851
-3.08003
-1.60702
2.20517
-1.05594
-2.7617
0.137571
2.97277
0.280306
-1.09559
2.4575
2.95615
2.39328
-1.15904
-0.713906
2.62666
3.11609
3.78048
1.80923
-1.42026
3.4269
-0.281254
-0.389083
1.60978
-3.40532
1.90044
2.88451
-1.74742
-1.87089
-0.450704
-1.85967
-2.52552
2.2642
2.3307
0.312729
0.265469
3.95314
2.20303
-3.43336
2.65324
-0.861209
-2.95421
-2.75671
-1.53913
0.934066
3.01406
-1.01619
0.98668
-5.71676
3.10878
-0.561288
1.99542
0.285452
0.708399
4.96339
-1.03525
1.15945
-1.17724
-0.868367
-1.87197
-1.51739
-1.24031
-1.74642
-0.339741
5.08017
-3.83902
-0.330004
0.525317
-4.95937
1.49431
-3.56079
-1.75563
-0.00141315
-1.00761
0.725592
-3.98534
0.454731
2.74355
-2.30225
-3.87602
-0.684154
-5.24262
0.860543
-2.03815
3.86902
-4.17431
2.45779
2.36001
-2.81409
0.565423
0.654764
-4.64377
-1.2553
0.094123
3.14175
1.39266
1.80606
-0.606551
-3.26017
-3.58714
-3.70766
-3.57902
-5.82923
-5.06167
-7.26827
-3.51324
-4.37003
-0.457137
0.395467
-4.82417
-3.80416
0.724636
4.09525
2.89497
-1.64658
-1.0336
-0.772063
0.927252
-3.76891
-2.42654
-3.55181
-1.53685
0.309254
1.1412
-2.74826
0.211927
-0.815221
-1.19303
0.975285
-3.18235
0.567529
-1.2986
-0.448741
-0.461427
0.323164
0.828487
0.356059
-0.115148
0.849853
-4.13806
-1.2344
-4.76039
-4.32973
0.11258
0.368483
-3.22919
-0.637677
0.531051
-0.76668
1.40918
1.99044
-0.935087
3.59245
-1.32338
-0.501992
-0.540326
-0.723498
0.296352
-2.08023
-0.99603
3.34402
2.81879
-3.24921
-2.00881
-2.91845
-2.04314
-2.21945
-4.46438
1.98991
0.844775
0.958379
-1.68929
-0.980501
3.25576
-2.13476
2.16412
1.26027
3.53302
-3.56109
0.526971
-3.43518
0.746903
1.53609
-2.74201
0.22945
-2.03576
-4.44767
2.13813
-0.718114
-2.46768
-1.22408
-0.113942
2.83906
-2.29811
0.185022
-0.715893
-3.88195
1.83996
-2.17818
1.53844
-5.19444
-4.9487
3.71439
-2.14327
-2.84301
-2.49472
-2.40739
1.79018
4.58918
1.1822
0.790912
-0.945872
-2.62089
-2.58228
0.837795
2.75957
1.28813
2.67475
-1.26894
-6.59442
-3.49608
0.178432
-2.62958
-0.296624
-0.541669
-1.15017
0.951167
-1.84082
5.81628
-1.12974
-4.17397
1.12777
0.543312
4.49619
1.63409
1.00275
3.18191
-0.958218
0.600535
0.457883
4.51811
-0.49495
-4.70817
1.94427
-0.574644
2.76212
-4.35131
-3.49706
-1.03423
-1.94157
1.6685
0.206581
2.17568
1.13112
1.08004
4.95736
-3.08265
-0.0113849
-0.467444
-2.74482
-6.86735
-7.0415
-2.7236
-6.91705
-2.89757
-1.56627
-3.59125
-1.26378
-2.16451
-2.47448
-2.63946
-2.1961
-2.46545
-1.0653
-2.69725
-3.80596
1.18541
0.979328
-2.08203
-4.82499
0.523628
-3.01129
-3.4227
-2.09098
-6.54735
-1.73424
-4.46936
1.73351
-2.27175
-1.25394
-4.31302
1.27675
-3.78083
-0.550336
2.08451
-1.99079
3.96068
0.322517
-1.60326
0.117052
-7.24642
-3.62128
-0.43026
0.67044
-3.05575
-7.50123
-5.19499
-4.1044
-1.41418
2.10628
-1.25866
0.444744
2.84217
-2.12738
-0.389578
-4.04976
-1.06284
1.78705
0.341472
-6.00065
-3.41439
-4.58821
-2.42738
-3.41885
-4.89638
-4.3099
-6.01444
-2.18053
0.716499
-0.415696
-3.69672
-5.02929
-0.0524959
-2.18139
0.953946
-0.354668
2.40341
1.82974
-0.439296
-1.87006
-2.14264
-2.38115
0.783242
-4.13662
-3.27512
-4.84159
-0.920715
2.24604
-0.330439
-3.24375
0.795956
-0.486065
-2.23924
-3.28259
-4.71879
2.72636
-0.355727
-4.7153
2.65661
-1.66061
-3.81147
-6.54525
-2.31502
-2.52149
2.4007
4.07022
2.3471
-2.75483
-0.364664
1.26152
-1.93015
3.73171
-2.06801
-1.35916
-0.856154
-3.12472
6.03192
-0.54411
6.62214
-3.5706
0.0936777
-1.35009
1.8366
-2.02806
2.35746
-3.43102
-1.31857
-6.11402
0.162586
-0.0753226
1.13315
1.19985
-1.23788
1.69185
2.24844
0.104484
-2.94318
2.58632
0.559415
-2.45738
1.64912
-0.664165
1.70079
-5.77668
2.60531
0.144668
-3.52699
2.04079
3.49556
-0.765094
-2.8966
0.829516
1.22306
0.577504
-4.52745
-0.0496177
-3.50342
0.479164
-5.25252
1.22966
-4.28909
-8.55893
-7.65598
-6.36848
-4.30009
-1.70813
-1.55379
-4.23677
-0.906237
-3.88584
-6.27464
-2.60659
1.6597
-1.18813
-0.217861
-6.28949
-1.08581
-1.77159
-1.20974
-2.23916
-2.98675
-2.96369
-6.8585
-0.231711
-4.68463
-0.413673
-3.65176
-0.159998
-0.151118
0.684982
-0.071043
-3.27205
-0.228448
-2.63543
0.0887823
-1.8957
-0.311675
3.55004
-3.27703
-3.42454
-0.389633
1.98341
-5.53742
-3.82589
4.91201
-4.19735
-3.22364
-4.11522
-7.77835
-3.13214
-2.56938
-1.93748
-1.3652
-0.0448725
-0.579901
1.55041
0.543815
0.843241
-1.65818
-0.740494
-1.51081
-4.85392
2.14026
-4.11807
-4.58433
-1.07546
-0.0453812
-4.39361
-1.0855
-0.256459
-2.32759
3.47125
-1.09164
0.96082
-0.790485
0.669506
2.93155
2.79996
-2.67124
-2.00571
-4.03006
-4.01359
-0.649724
-0.66784
-5.09162
-2.97903
-4.26902
-0.536945
-5.51662
-2.29047
-2.06712
1.30443
1.55584
0.874176
1.6587
-4.10459
-0.616255
1.02762
-3.6222
-5.05609
-0.0774068
0.791074
0.996645
-3.53055
-0.862781
-2.83689
-7.50579
-0.440704
0.622255
2.73433
1.54853
-0.68349
3.00944
2.48613
2.37254
-1.17092
-1.79922
0.37372
2.65664
4.4556
-4.58895
1.09296
-4.90348
-5.34474
-3.73449
-2.29773
-2.01237
-2.29936
-1.70807
-2.35601
-6.37914
0.312148
0.845658
-3.17326
-0.272777
-0.81478
-1.69261
-3.17517
1.60122
-1.39801
-1.59275
-3.50666
-0.573473
-3.46162
3.39935
1.73992
-2.74285
-1.44018
-3.23825
-0.876719
4.68127
1.21979
-1.49167
-1.32108
-3.55204
0.253417
0.322091
1.51478
-4.25038
-7.10715
-9.15663
-7.99699
-5.82014
-2.04168
-5.12024
-3.9273
-6.6603
-7.94025
5.41036
-0.118714
-6.657
-0.518284
-5.33613
3.13642
-1.5647
-1.98207
-0.0565742
0.187484
0.746158
-2.48923
-5.51921
-4.56828
-2.74156
-4.88004
-3.33617
-4.49101
-3.87865
-2.6834
-5.8036
-3.23183
-5.70915
-6.7248
-7.59558
-2.59771
-1.35912
0.651374
2.99428e-05
-1.16776
0.559711
-0.842181
-2.41285
-0.611135
-7.25008
-6.72463
-2.6443
-2.70836
-6.11037
-6.79502
-4.03426
-0.179859
-2.74994
-3.04364
-6.49366
-3.9935
-0.925072
2.30706
5.34344
0.153871
-4.07064
-0.25528
-2.15431
-2.68686
-3.45055
-4.09925
-1.95347
-3.95327
-5.37945
-2.31012
0.286734
-3.5479
-4.96962
-2.35199
-1.24117
-5.10087
0.17588
-2.23908
-1.23734
3.34722
0.123198
-0.108366
-5.09289
-0.518365
-0.884006
-5.50842
-1.85056
-4.0213
-2.81501
-4.44372
3.94774
-0.577904
1.44984
-4.21898
-2.79101
4.31258
-4.49885
-4.56082
0.991995
-3.11829
1.05003
-2.81376
-2.12354
1.0128
-2.1897
-2.7282
1.99565
-0.845648
-4.70689
-2.1469
1.63207
0.911439
-0.661183
0.66122
-3.67396
-0.792024
0.449364
-4.06616
3.60494
1.2635
-4.16026
0.856066
-3.88757
0.039259
-0.497668
-1.71428
-2.07032
-1.83403
-3.7905
0.202343
-1.58015
-1.46626
1.13199
-0.875993
1.12559
-1.00828
-5.21441
5.46778
-2.8007
-1.86421
-2.27377
3.146
-1.49011
2.97028
-1.47582
4.8127
-3.06054
-2.33972
2.10599
-1.83673
1.19931
-3.05862
0.364926
-2.38729
-2.73772
-0.335325
0.602978
1.74191
1.81019
-2.63435
-2.63851
-2.65019
-10.4465
-7.02271
-8.34612
-6.60645
-7.04438
-6.02739
-7.32385
-5.14293
-4.72687
-6.0956
-3.49737
-2.51036
-2.43583
-7.49835
-6.31754
0.433734
-2.09124
3.2063
-5.88539
-5.26492
-0.408332
-4.7789
-3.9268
0.478228
-0.205127
0.298163
-8.20053
-0.119881
-0.588953
-3.01528
0.30569
-3.59449
-1.19469
-5.42304
-0.628853
1.00871
1.74037
1.1289
-4.42221
-1.36894
-7.37315
-5.06743
0.298337
-2.48099
-3.7941
-0.854123
2.08469
-3.02424
-2.16781
-3.1459
-2.71333
-3.08216
-5.48684
-0.398639
-0.429528
-1.59518
-1.32429
2.97133
-1.53755
-5.29666
-5.15883
-5.85712
-5.21323
-5.79471
-6.0004
-5.97804
-7.12035
-4.9314
-2.38998
-1.5652
-1.44577
-2.38294
-2.99193
-2.20397
-4.8973
-4.16094
-1.84755
0.153031
-0.0485376
-3.60231
0.643189
-1.82878
-6.26649
-5.04689
2.38952
-2.73107
-4.18938
-2.86811
0.246517
-4.68248
-6.73573
-6.50715
-2.83073
-0.30211
-2.69149
-1.24491
-0.223659
-1.10242
-2.4899
-1.08002
-2.27695
-1.79814
-2.46478
-2.97201
-1.30478
-0.136583
-9.97983
-1.15558
-3.02692
2.30816
-1.94276
-2.85618
2.0229
-3.61518
-0.605322
-0.551408
1.53222
4.87445
-5.22111
-1.21877
-3.47716
1.46418
-1.47457
0.682922
-2.38385
-2.8489
1.74053
-4.84409
0.647775
3.8374
1.51924
-1.8708
-1.29441
0.237737
4.09822
1.75184
-1.13431
-2.34039
0.568176
-7.69966
5.29613
0.732034
-1.30449
-3.19561
-2.21577
-0.221097
1.5155
-0.034914
1.21814
0.721317
-0.870029
-1.41878
0.367943
-1.78618
2.16816
-0.191693
-0.139935
0.781292
-4.29756
-6.66386
-1.73545
-8.04159
-9.91879
-2.71506
-8.82523
-5.8913
-4.09051
-5.86084
-3.79227
-8.33209
-3.17324
-2.68063
0.819172
-6.38643
-3.55233
4.97913
-2.031
2.71595
-8.71669
-3.6833
-5.3917
-6.93619
-1.61813
-6.48751
-1.85504
-5.22557
-5.17481
-6.87561
-6.03104
-4.20869
0.130693
-6.01365
0.341216
-1.19791
0.324765
0.299751
3.65569
-1.25135
-0.833621
-2.4102
-6.59169
-3.97249
-5.46415
-7.03122
-5.48434
-7.49776
-3.66888
-3.34858
0.261322
0.382687
-0.495855
-1.43949
2.11611
-2.65239
-2.39271
-0.399315
-0.932726
-2.13151
-3.19368
-1.68771
1.72821
-6.39988
-2.95401
-6.08547
-3.76633
-5.66862
-2.33698
-3.58127
-0.725043
-7.84071
-1.17622
-4.08871
-1.15098
-0.635709
-0.0999353
0.21838
-1.73188
2.44421
3.04032
1.82919
0.344887
-4.08025
-0.856227
1.94746
-0.371061
-5.55844
-1.44024
-0.319967
-0.823389
-5.73893
-2.01312
0.735993
1.78175
1.00615
2.57014
-0.802192
-0.258171
4.18058
-1.58143
1.05664
-5.21223
-3.11771
-4.08368
-2.94571
-2.5261
-2.12079
-0.196166
2.24203
0.0436926
-3.57135
-3.13699
0.139744
-5.05277
1.77551
0.1631
-1.76555
1.31912
0.542075
-0.7949
-1.81334
-6.10062
-3.42755
0.243308
-0.41977
-2.06385
0.288258
0.371612
-2.74764
-3.87878
-0.0952764
-0.757418
1.60975
-2.35319
-3.61613
2.58379
1.75654
1.81222
-1.69148
-0.175179
-1.81589
1.38843
0.0357851
-1.00097
-1.21577
2.52175
-1.23795
0.582368
5.47879
-2.09598
-0.578432
4.678
1.91819
-1.14081
-1.89518
1.20201
-0.653206
-1.47374
2.38349
-2.16269
-5.02834
-7.71682
-2.47919
-5.4672
-3.40986
-6.37615
-4.74359
-3.8438
-7.05661
-6.52467
-4.40127
-0.886337
-3.05654
-3.66981
1.30253
-3.2948
0.771327
-0.552175
3.84698
-2.83903
-8.98662
-5.56079
-1.26078
-1.29803
0.410329
-1.78465
-0.176282
-6.61719
-0.594383
-0.891847
-6.11297
0.0370931
-4.48881
-0.293173
-3.245
0.472176
-2.8303
0.431355
3.24074
-2.26498
-5.04758
-2.21039
-2.73558
-3.26256
-1.24404
-3.36717
-6.946
-4.84503
-7.66607
1.3225
-1.92991
-2.06194
-0.735064
-2.36859
-2.41568
-2.4293
-0.0640159
-1.93175
3.53831
-3.60294
-1.79449
0.907144
-3.75593
-5.67798
-3.72326
-3.79848
-2.13699
-1.90285
-8.07141
-0.933455
-3.56632
-0.739053
0.929389
-4.38993
-1.03432
-1.65923
-5.16269
-2.87298
3.42882
-0.642844
-3.422
-1.05109
-2.75664
1.24511
-4.377
-5.35425
-5.73497
-1.91011
-0.904019
0.0634308
-0.957142
-1.069
-2.45043
-1.19665
-0.383685
-2.42164
-0.394167
3.00854
-1.48095
2.54809
-8.55854
-1.8827
-2.32769
-3.58611
-0.281665
-0.850802
-4.47234
-0.568392
-5.67988
-1.43852
-4.93339
-3.01943
2.56394
0.795774
0.616301
-0.18138
4.75945
0.187839
2.27493
-4.75328
1.84181
-1.67236
2.41844
-1.1693
2.13202
0.760273
-3.22936
0.564155
-3.52447
-1.88095
-0.695599
-0.535007
0.775226
2.82887
1.47316
-0.824876
1.99206
3.06983
2.95644
1.44472
-0.680234
-5.7227
0.074038
2.71964
-1.84317
4.72667
0.704539
-0.627342
1.17573
-3.72505
-3.42315
0.111778
-2.52962
0.227201
-1.66091
4.17034
-4.98445
1.42419
-1.3254
0.595583
-0.749999
-3.86886
-2.92359
-0.580509
-5.20366
-5.36469
-0.558349
-8.31748
-2.4529
-2.55604
-5.61612
-6.55994
-4.04479
-2.77707
-2.78146
0.668896
-5.58173
2.59234
-0.135263
-1.25193
-0.826352
-4.07561
-4.97316
-1.59848
-0.601793
-5.58471
-0.202106
-3.69037
-0.35917
-0.847704
-5.55489
-0.211449
1.23456
-0.851491
-5.40591
0.766492
2.25959
-0.234688
1.62233
1.88265
-3.4511
-2.04864
-5.37495
-3.3562
-5.07946
-3.40241
-4.19308
-2.5907
-4.45784
-5.23367
-5.7212
-1.63621
-4.24582
-2.06464
-1.16459
1.74134
1.11751
-1.14012
0.730754
-1.73836
-1.54588
-5.77297
-1.45718
1.92683
-3.24715
-8.53606
-3.17609
-8.12403
-0.601841
-5.69994
-2.8462
-4.90519
-1.29007
-4.56948
-4.87637
-1.41593
1.54802
1.25387
-0.773663
-0.741583
0.122559
-5.35472
-4.14345
-1.04217
-1.60755
-3.68381
-2.19783
-4.01339
-2.72404
-1.23461
-3.23235
-4.30748
-2.42578
-2.29498
0.738984
-3.8593
-2.23356
2.93306
3.71598
-0.111891
-3.60172
2.48506
-0.86499
-4.46437
-0.299158
1.53491
0.979161
-2.05304
2.11928
-3.09227
0.616233
1.46257
1.24739
-2.08226
-1.85515
-1.62618
0.440968
-1.13727
3.05287
-1.90978
4.24122
0.714463
4.68214
0.0709642
1.33095
-3.33511
-3.04842
-1.08872
-0.175845
-1.43622
-0.2142
2.58203
5.69383
1.04555
0.406237
1.12641
0.535783
-1.58555
0.114796
-2.46358
2.24768
-2.69921
-2.30896
0.429271
-0.319908
1.72853
0.24655
-2.08081
0.121902
2.92136
-0.898669
-2.533
-0.13671
0.983344
-2.73771
-0.892162
3.19972
3.29462
-0.127018
-3.54385
0.0576822
-3.57945
-5.65126
-2.17499
-5.16172
-5.86568
-9.2335
-1.99994
-8.43974
-5.31381
-3.63817
-7.54686
-4.2726
-5.4118
-0.15069
-3.42339
-2.79663
1.31297
2.60232
-3.05465
-3.90489
-7.95621
-4.88898
-5.13754
-6.6639
-3.96889
-4.62404
0.541388
-5.03752
-5.43658
-4.35595
-3.79324
-1.24067
-1.51578
-3.00739
-7.14679
-3.5927
2.54082
-2.39459
0.730238
-5.74414
0.478308
1.72505
-5.89969
-3.63754
-5.081
-2.89053
-6.79177
0.400235
-3.74025
-2.6058
-1.60435
-0.882135
-2.0425
-2.40301
-2.92272
1.49332
-3.75804
3.74019
2.27607
-1.34303
-1.77865
-7.05683
-6.39536
-4.40081
-3.32549
-1.57226
-5.10014
-2.40212
-2.95435
2.54917
-1.15568
-0.0523168
-2.37716
-1.51955
-1.53071
-4.90505
-1.28951
2.07561
1.72604
-5.32148
-0.609286
-0.173849
-0.814171
-3.30506
-0.528252
-0.232094
-2.0015
-3.77091
-1.78563
-3.08704
-2.36021
0.288046
-1.56963
-3.22306
1.06684
-2.23487
-1.87431
-2.64362
1.23322
3.50088
-2.17912
0.576152
-2.07757
0.461802
-4.07228
-3.20992
-0.211728
-2.5449
-4.02903
-2.67523
0.650158
2.31784
-0.769931
2.63126
-3.98855
-1.39179
3.1696
1.69733
-0.914945
-2.65005
-4.29989
2.24413
-2.43408
6.47719
-0.793913
0.47421
-2.25828
-3.79314
1.37679
2.75114
-1.10573
-2.2033
-0.155742
-1.1089
-3.35973
-0.698288
-0.735541
0.30769
5.17841
-0.196715
-0.333582
2.4023
-1.97308
2.1141
-0.114356
-0.30733
0.795751
0.919758
-3.88001
0.516693
-0.0649734
0.322959
1.80465
2.08155
1.1749
-2.40564
1.74108
-0.75988
-4.02144
-1.47382
-6.27397
-7.49379
-3.00709
-5.49422
-6.33896
-2.73986
-3.39006
-5.37703
-1.42094
-7.12773
0.540033
-0.420874
3.18837
-3.17269
0.316975
0.663523
3.65745
2.69347
1.18642
-1.05755
-3.80422
-1.44715
-4.11552
0.0134136
-7.55167
0.633977
-8.27884
0.504362
-0.107345
-1.87694
-0.2697
1.30459
0.206087
-3.01934
-0.416705
-2.79448
-0.629707
1.79322
2.45696
0.180007
-4.0363
-4.37681
-2.41381
-5.40986
-4.50867
-1.20975
-3.69169
-1.17783
-1.0048
-4.61359
-3.48448
-2.5296
-2.41835
-2.94382
-5.09773
1.00911
2.64733
-1.39816
-4.04766
5.08707
-2.33808
-6.7519
-3.06913
-2.20829
3.41293
-1.08374
-2.12801
-1.24177
-7.02952
-1.70212
-2.01962
-0.817318
-1.48425
-2.2631
-3.42808
0.216185
3.72511
-0.476942
-0.500847
2.55689
-1.31696
-1.65308
-5.04943
-0.541559
-2.15389
-2.20742
-6.63992
-0.725976
-0.526697
0.720859
-2.72734
-0.918574
-4.0748
2.6927
1.84882
1.92272
2.13622
2.07067
-5.31956
-0.202065
1.82702
-2.52699
-1.83096
0.84264
-5.42143
-1.62864
-1.67345
-0.386581
-0.499999
-2.66067
-2.91622
-5.54376
-3.58139
0.708868
-3.06797
3.14906
-3.54405
0.869994
-8.76257
3.69679
-1.60646
0.319608
1.80912
-1.99311
0.367376
-1.63313
-2.19056
1.1473
1.38958
2.1649
1.98646
3.20943
2.43431
-1.53791
1.92589
0.122936
-0.183658
-0.715601
0.285059
2.19073
1.90413
1.9187
3.10519
-0.353924
3.10454
-1.83837
2.29224
-2.35116
2.73836
-1.05685
-2.3649
1.73542
-0.902287
0.634726
4.61669
-1.0888
1.55207
1.83996
0.372614
-2.63157
0.068123
-5.15485
-0.932987
0.756405
-7.10002
-4.24692
-0.259397
-1.70012
-1.5658
-2.26057
0.157598
-0.876594
-1.93342
-2.48148
4.41918
2.00291
2.76504
2.54036
3.10728
2.07661
-4.62954
0.503683
-1.23172
-1.73622
1.00839
-1.31164
-3.23741
-2.52264
0.489283
2.00382
-1.33726
-1.04407
-0.85051
1.6766
5.9671
0.190533
6.00886
4.27576
-3.25152
0.249209
-6.23145
1.11759
-6.13523
-1.21595
-5.49396
-3.65867
-3.38382
-2.93872
-3.12424
1.24735
-4.19668
0.461033
-0.0961353
2.23246
0.904016
-2.06346
4.2551
6.29786
-6.43496
3.81801
-1.31789
-1.47328
-3.97599
-3.46752
-3.65311
1.10727
-3.66065
-3.47815
-1.2549
0.822472
-0.397679
-1.47826
3.99437
1.11096
1.12516
1.76825
-1.0115
2.16794
0.71337
7.65611
-1.28123
-2.21991
2.46943
2.06854
-1.03984
-2.52827
0.236862
-3.86317
-2.26095
2.88498
-4.53178
0.433317
1.97616
0.0318436
1.01519
1.3838
2.0518
2.80623
1.58059
-2.59088
-2.01681
1.38495
-4.84745
1.2646
-2.18847
-3.1159
-0.502927
-0.285574
0.382371
-0.64853
-1.96027
-2.67192
0.559645
1.49237
1.28584
-0.671246
3.7308
-0.719879
0.708571
0.0376884
-1.09734
-2.84391
1.24193
-0.724149
-1.3832
-3.46383
-0.192764
-0.500675
-2.81006
-3.03788
-4.56767
-1.51931
-0.328938
1.69006
-1.68581
2.39219
2.56489
0.407387
-0.740201
-0.22587
-0.433409
-4.32547
2.03655
-0.0649226
-2.58418
0.616556
0.675569
-1.93547
0.60223
-0.305092
-2.33455
-0.593259
-0.164387
3.13357
-2.00482
-3.92144
-3.96987
4.0727
0.29531
0.751546
0.426329
0.671682
-3.99662
-2.90589
-1.94516
-2.62308
-3.23098
-2.61518
-1.0728
0.160042
-3.01501
0.900691
-0.801421
2.1377
-0.13452
2.80024
8.36146
7.81554
-0.112259
-0.887096
3.88594
-1.59769
-2.32014
0.721785
-2.39677
0.660526
-4.51792
-0.0351537
0.444236
1.85752
-0.586397
0.490649
0.564658
-1.31231
0.030746
3.95937
0.412057
6.28743
-0.375884
3.50322
3.01687
1.51362
2.12527
-0.553565
-2.78935
-3.23874
-3.60545
-3.71285
4.02119
1.39686
0.322281
0.414562
2.01935
3.54983
-1.5435
4.03407
0.866128
0.73216
-1.64236
-2.78729
1.90239
-0.933785
2.59527
0.184695
4.2249
-3.04284
2.41819
-0.292484
1.96
0.881034
2.59
4.36115
-0.820089
0.191291
0.81378
4.00577
-0.0729864
9.90345
-0.0258697
-1.63645
4.01273
-0.644459
-4.85677
4.19707
-0.42682
-0.772423
2.32622
-2.56544
-3.21809
0.894438
1.87962
3.178
-7.29051
-0.665759
0.559552
1.89627
4.09012
1.74473
-1.79223
-2.65806
2.68963
0.474984
2.90348
2.57123
0.498371
2.90204
-4.98319
2.79374
0.970257
-1.54926
4.71536
0.232403
-0.300412
0.643993
0.514339
3.80431
2.63386
-0.293872
0.844565
-3.69775
-0.0172481
1.74449
-0.635568
-2.58367
-1.21598
2.71367
-0.0420595
4.19115
1.5398
2.83403
-1.05228
1.13354
5.54838
1.95611
3.36614
3.18729
3.24095
3.25771
-0.39772
1.62816
-3.50694
0.739293
0.985293
-1.52518
-2.84522
1.65908
-0.950303
-1.10766
1.95324
-0.971804
-2.78639
-0.74459
-0.866902
-1.98049
-0.267958
-0.569769
3.11666
6.1619
3.0642
0.957915
3.9203
1.18672
5.59155
-2.18765
1.70114
0.838377
-1.44763
-1.2518
-0.447863
2.84405
0.891609
0.425339
3.96376
5.30102
3.6795
8.05498
8.9422
4.59403
2.96966
-1.26831
7.65963
0.222022
1.47113
-2.24816
-2.15451
-2.26442
-0.376719
0.780732
-1.51593
2.38414
0.475359
0.673135
-2.08159
4.94017
0.889959
5.02886
7.09621
9.34945
1.86875
6.35281
1.64432
2.66836
0.226688
-4.5442
2.66613
0.273461
-0.755339
-4.31171
0.644166
-0.977967
-5.36329
1.072
5.97735
4.8964
3.861
8.44738
4.93835
11.7698
0.972054
1.72011
5.07517
-0.0881819
-4.15204
1.32646
-0.247846
-0.827749
-4.58523
0.566717
-1.6241
4.76498
1.94987
1.39504
-0.454889
1.79773
0.440412
0.382853
1.98738
6.67002
0.818548
0.861805
3.47162
0.759388
1.56341
4.22619
1.09288
0.113689
0.622343
-3.13806
-0.266212
-1.50202
1.25297
1.47236
0.824596
0.974047
5.46407
7.56057
6.78913
7.13222
1.34338
2.90818
2.7189
3.61023
3.82654
0.0380146
0.858577
-2.42937
1.01819
-1.24495
-0.365172
1.75659
-3.48284
4.27793
2.58701
3.38415
4.11266
-0.242067
4.723
2.37677
0.418389
-0.899933
2.32716
-0.962606
1.08396
-5.82077
-1.68452
2.20271
0.495089
-0.460337
1.969
1.6125
1.66572
-1.94283
2.69678
3.82868
1.0323
0.938877
1.53315
0.50499
1.70638
1.14792
-2.96586
-0.0215419
-3.06982
-4.35218
3.96185
-2.69163
-0.102897
-1.08889
2.52132
1.1874
-3.39057
0.762421
0.841488
-1.97793
1.12785
3.58214
0.251129
-2.80974
8.18143
4.92629
5.10983
5.18409
2.21692
-0.015075
4.8359
6.00947
1.76531
7.10392
1.9587
-2.2601
2.34732
3.53327
3.69224
3.37799
6.6934
8.99154
7.20185
10.4212
11.7693
-1.05534
6.92993
-1.45878
4.22529
0.197167
-0.362479
0.855574
3.43279
0.275051
-0.204329
0.685331
-0.367102
4.36025
-0.296311
5.89968
0.500988
8.28566
0.31527
12.0593
2.19641
2.76964
-0.947972
6.80344
4.3203
0.831445
-0.583402
1.75854
0.629778
1.15651
-1.39748
1.70413
0.30821
0.985892
0.501928
6.4971
6.22857
9.45643
8.81069
9.91668
2.97474
1.77599
0.666204
5.09731
-0.527429
2.69651
2.68185
-0.898157
7.01364
1.67408
2.92028
0.805951
-0.633195
1.99236
1.53929
6.06476
4.26459
5.68014
8.78935
8.17365
2.90768
1.35616
5.24903
1.86843
4.46606
2.32253
-3.29582
3.11089
-1.85228
5.36683
2.45448
0.441103
-2.79435
3.72817
-0.585137
4.96297
1.58635
4.38324
-0.30048
3.60657
4.57703
4.39807
2.58974
0.61687
1.80178
1.812
-0.222435
0.104156
-5.63924
1.52252
-2.99104
-5.84817
3.10778
5.14521
2.19466
4.16412
4.72566
6.69923
-0.0874951
4.50903
4.72563
-1.90501
-0.0275143
-1.48716
-1.86573
0.841391
-0.770145
3.74576
0.784106
-1.38846
1.7472
2.08554
2.53598
-0.435377
0.796263
1.27107
4.25174
3.65116
1.97709
3.05135
-0.510683
-3.92084
0.897039
3.06222
-1.73247
1.41361
-2.8082
2.71249
-0.665128
-4.40302
-0.8729
-3.41061
-1.80891
1.96634
0.601439
4.13988
3.68021
0.96399
0.391774
0.352776
5.14074
5.89564
5.30638
11.3207
4.76242
4.77227
7.09024
4.37896
5.86013
4.43972
2.44826
3.64745
2.75218
7.41072
9.19613
7.39724
9.90472
8.5486
10.6101
12.1418
7.35036
6.03521
4.35114
5.44676
5.5602
3.12904
0.264761
1.79403
-0.489725
3.56816
1.12883
3.64687
5.50313
7.34026
3.47474
10.419
7.62816
12.3228
9.66089
13.9928
4.28593
6.70897
5.93022
7.66069
5.17551
4.2708
5.35552
3.48885
4.76612
2.88417
5.53911
3.27677
6.2993
6.3693
5.34846
3.72367
6.84031
9.08857
12.0357
9.63509
4.43236
9.79279
4.99346
7.18509
2.51328
-0.405915
3.10466
-0.0840497
2.92632
3.81352
5.26833
-0.247979
3.05343
2.62346
3.5917
5.62883
2.19611
8.94358
2.50716
3.03731
1.65843
6.90126
3.63353
4.36805
0.592763
0.33761
-1.07734
4.8426
2.83562
4.34429
-2.51292
3.6481
1.05796
2.92148
2.95819
5.48122
1.62463
2.35244
1.87183
4.85953
3.21511
2.38761
5.48422
0.640354
2.63771
0.246013
-0.075585
1.44965
5.03166
-0.900784
2.83472
4.339
3.28949
3.86775
5.82498
0.22174
4.73638
4.09456
4.44328
5.89054
1.10309
4.35285
4.23079
4.81303
3.3298
1.34637
1.39987
-1.00839
3.02763
2.37449
2.88622
0.00544773
0.937112
2.42707
0.0668308
-0.19747
6.14296
4.39123
-0.952926
7.45534
0.228091
-0.0778988
6.22311
-0.846853
1.1408
0.874193
0.856757
2.20112
1.50945
1.31848
1.30541
0.280546
1.64278
-0.431336
-2.12591
-2.58601
-3.07529
1.97096
1.92584
0.723777
9.17965
12.4015
7.79398
8.97276
10.4429
8.71062
5.67671
6.43856
6.95567
8.43214
3.2573
7.67697
5.20389
8.91895
6.10704
11.105
13.9517
10.1243
12.4476
18.6475
8.07582
0.501571
15.6443
0.42816
14.7596
0.201853
8.99777
-0.0383972
8.1791
0.0645106
-1.47267
3.68566
-0.0829688
7.92103
0.703156
11.4538
0.739671
14.1311
1.10913
14.361
8.10001
7.61975
7.95873
10.1924
8.68298
6.29184
2.42208
1.58579
6.37383
7.35126
4.01808
7.43652
4.19129
4.91074
10.7243
8.07472
7.81764
7.34462
12.5893
10.271
3.8276
6.95095
5.4594
4.61651
3.7415
-1.43783
5.96042
4.97974
6.0044
3.61613
0.763073
3.86673
-0.321255
4.76159
3.81783
5.21155
5.24962
7.68893
7.02127
8.48391
5.73725
4.09614
1.29136
2.54168
4.16969
1.7351
-0.727687
2.9808
5.35516
1.99391
3.89184
2.51131
3.83314
2.41022
5.37654
4.43175
3.43592
8.66815
10.7774
7.58955
6.21554
2.63552
2.28314
2.30534
2.13962
2.68033
2.03874
3.53079
2.41015
1.46904
2.14213
0.0607515
2.42395
5.57489
7.98953
4.97104
4.9591
2.13942
3.43756
4.26927
2.8339
1.79768
-0.757363
-0.198406
-1.41215
-0.171625
2.01402
1.95232
3.80197
1.21992
-0.673888
2.10817
4.72038
4.41135
5.29501
2.66156
0.44896
0.769146
4.36461
1.91252
2.99826
0.803741
0.0810145
1.48616
1.27896
-1.74769
3.38922
1.52829
-3.58377
-0.961256
1.57008
-3.10911
0.735899
-0.676305
2.15603
0.875077
0.750269
1.36183
-0.0559569
3.90233
15.4422
14.8087
16.5735
10.3941
8.23637
11.8668
5.15091
8.28882
6.27603
3.76129
7.38613
10.1168
10.6333
11.3901
10.7761
9.15409
10.0408
11.635
16.9729
17.8443
14.4182
11.7794
11.4689
9.8663
6.1414
4.83286
7.46603
4.09416
9.28569
8.23663
9.07604
3.50672
7.37203
11.6958
11.5452
14.477
10.0739
15.7409
16.5658
15.2615
11.023
12.3929
8.00806
9.30938
13.3837
7.53697
6.92899
6.01492
10.4286
5.9293
5.91159
5.66979
3.80178
8.20971
10.4933
9.56669
12.1745
9.98077
11.9394
12.0764
10.1112
5.01127
7.7718
4.29749
8.94325
5.26515
7.24116
3.19923
2.01258
5.37115
6.5056
3.12135
9.38165
12.2981
3.836
9.26702
10.8027
10.1738
13.4466
11.3117
5.23377
10.6343
2.72143
-2.57842
5.52936
3.81354
5.46419
2.49136
3.55476
7.67205
2.49294
4.37507
7.25474
3.29747
8.73363
3.09492
7.8893
3.89142
7.97716
7.33476
1.79403
1.80926
7.42945
6.34135
3.99766
6.69939
1.54287
3.61336
4.19356
0.77658
3.26363
2.93698
3.68708
-1.33399
2.12614
4.29202
1.71501
7.07663
7.50138
8.86697
4.50068
5.14163
2.47231
2.03112
-1.46711
2.22886
1.52686
-0.0134209
3.70798
3.5484
2.70092
1.0411
-2.26618
2.50702
-0.881774
1.89316
2.39948
-3.0878
4.004
3.4915
0.190162
-1.63145
0.680343
1.06017
3.92851
-0.437675
0.754486
4.24519
-1.74132
0.575661
-0.953325
-0.478213
0.0338529
0.0128088
-2.62007
0.130856
0.674959
0.325049
1.09578
0.923616
)
;

boundaryField
{
    hotSide
    {
        type            calculated;
        value           nonuniform List<scalar> 
400
(
5.21408
-1.23973
-4.22126
-2.11071
0.693549
-4.07694
-3.05704
-1.42415
-3.05879
-0.895997
1.89381
-2.21036
-2.64886
1.78818
1.75785
4.57778
9.75014
6.76873
10.8711
17.2013
6.30188
0.207396
1.61688
-2.4073
-1.55437
2.4336
-5.88669
-1.41005
-5.40072
-3.73874
0.569665
1.41115
-0.082699
-1.19884
2.22993
2.48608
6.50841
7.53594
14.1043
16.5782
2.96915
-0.0140921
-2.96055
-2.49511
-5.64527
-3.05481
-7.90728
-9.179
-0.44661
-6.40319
-2.52684
-2.20526
-4.86372
1.51845
1.92087
5.46325
6.70546
6.95902
9.50796
18.3532
7.60472
0.485584
-4.15867
-2.33198
-5.7862
-7.29291
-6.71755
-5.72691
-6.72626
-1.14093
-1.55877
-4.25608
-6.06429
-3.6869
2.18229
2.7443
6.79302
12.9854
10.6977
12.1838
2.34082
3.58436
-1.55763
-4.54693
-1.43444
-6.35774
-4.5103
-7.02185
-8.57698
-4.10445
0.806834
-0.759191
-1.55877
0.552067
-2.47049
7.16318
3.83855
6.43859
12.1782
10.0354
4.98816
2.7434
-5.43132
-3.7448
-5.59481
-5.03888
-0.702373
-5.25473
-1.34785
-2.02376
-3.79496
-3.72647
-4.02827
2.2574
-1.36538
-0.603067
1.6182
6.45891
10.4553
13.6742
3.53875
1.92107
-4.37654
-5.91947
-1.54488
-2.94174
-3.75405
-5.66772
-7.43506
-4.96905
-3.9369
-4.41314
-4.8574
-5.58498
-0.392045
3.29702
6.47929
8.78594
7.42951