/*--------------------------------*- C++ -*----------------------------------*\
| =========                 |                                                 |
| \\      /  F ield         | OpenFOAM: The Open Source CFD Toolbox           |
|  \\    /   O peration     | Version:  2212                                  |
|   \\  /    A nd           | Website:  www.openfoam.com                      |
|    \\/     M anipulation  |                                                 |
\*---------------------------------------------------------------------------*/
FoamFile
{
    version     2.0;
    format      ascii;
    arch        "LSB;label=32;scalar=64";
    class       volScalarField;
    location    "0";
    object      relativeErrorField;
}
// * * * * * * * * * * * * * * * * * * * * * * * * * * * * * * * * * * * * * //

dimensions      [0 0 0 1 0 0 0];

internalField   nonuniform List<scalar> 
3200
(
0.0117317
0.0147432
0.00507017
0.0182006
0.003045
0.0104637
0.00623011
0.00182031
0.00426018
0.00510376
0.0112307
0.00672644
0.00175032
0.00068269
0.00273232
0.00548099
0.00765735
0.0209666
0.00472647
0.00718807
0.00820822
0.016249
0.0102407
0.00298771
0.00284152
0.00562359
0.00266135
0.00114705
0.00283302
0.0123482
0.00984089
0.0183899
0.0156677
0.0103388
0.00175017
0.00724486
0.00619668
0.01097
0.0267432
0.0111372
0.00856891
0.00271302
0.0121485
0.0178525
0.00123158
0.0170737
0.00255853
0.002452
0.0144643
0.00384962
0.0183931
0.000296159
0.000454214
0.0112301
0.00155626
0.00911895
0.0106788
0.00677461
0.00340076
0.0170145
0.00333124
0.00478165
0.00901539
0.00975683
0.00283954
0.0010993
0.00281656
0.00241462
0.00517139
0.00810211
0.00251015
0.00809887
0.0100106
0.00500256
0.00815787
0.00882657
0.00562549
0.0150691
0.0083549
0.00526405
0.0127728
0.00862406
0.00338246
0.00623154
0.0067516
0.00476394
0.00402519
0.0154907
0.000873412
0.00125746
0.00725371
0.0117428
0.00404612
0.00270947
0.00330644
0.00987363
0.00760093
0.0109919
0.0144515
0.00436373
0.00409783
0.00899965
0.014063
0.00205327
0.02153
0.0038168
0.00267248
0.0035227
0.000376051
0.00406971
0.00598487
0.00588399
0.00272012
0.0136583
0.0105204
0.000268476
0.0154772
0.00132299
0.0028869
0.010746
0.00654839
0.000372604
0.00619812
0.00988083
0.00520414
0.0121544
0.00909727
0.011655
0.00102834
0.0026686
0.00275812
0.000558377
0.0102067
0.0129869
0.00734913
0.00892476
0.000371748
0.00647703
0.000995071
0.00254516
0.00152407
0.0112482
0.0142097
0.000937743
0.000875905
0.000989968
0.000186141
0.0132509
0.00850872
0.0239011
0.0119779
0.00137806
0.0103117
0.00639857
0.00488083
0.00440826
0.0150411
0.00763893
0.00496202
0.00267624
0.00682287
0.00275191
0.00347816
0.00214664
0.00658325
0.00407343
0.00163534
0.00366368
0.00315174
0.00258056
0.000561251
0.00309103
0.00282973
0.0054479
0.0122879
0.00355845
0.00983187
0.00150289
0.00648151
0.0201888
0.000807086
0.00487152
0.00888758
0.00367093
0.00118636
0.00268098
0.0045458
0.000705357
0.0069277
0.00348348
0.000193656
0.0126896
0.0024411
0.00551946
0.0012324
0.00683304
0.00209783
0.00502784
0.000240956
0.00437444
0.00619589
0.0033318
0.00321766
0.0104735
0.00380113
0.000266782
0.00379661
0.00287376
0.0132014
0.00412182
0.0029262
0.000546515
0.00769498
0.013062
0.00641054
0.00243919
0.0120519
0.00460355
0.000289891
0.0118538
0.00244849
0.00100589
0.00219816
0.00687388
0.011667
0.0117594
0.0173856
0.00228837
0.00409693
0.0130749
0.00241055
0.0113848
0.00345532
0.00657726
0.00532974
0.0100139
0.00489926
0.00280693
0.0011042
0.00525375
0.0108935
0.00192081
0.00558696
0.00787885
0.000534411
0.00225917
0.0032662
0.00186087
0.00529233
0.000868595
0.00280161
0.00178774
0.013459
0.00603611
0.00244477
0.00200305
0.00111787
0.000220715
0.0101204
0.0118566
0.00224635
0.00422268
0.00241901
0.00735486
0.0183583
0.00328616
0.00316044
2.82235e-05
0.0159271
0.00187686
0.002093
0.00173066
0.0112647
0.0067596
0.00498447
0.000874907
0.0167315
0.0147156
0.00727408
0.00361933
0.00840828
0.00767091
0.0153015
0.0118302
0.00139825
0.00916468
0.0157959
0.00164802
0.0129883
0.00620376
0.00138485
0.000715539
0.000462893
0.00687742
0.00316013
0.0111389
0.00133614
0.00600148
0.000640884
0.0112389
0.00514062
0.00850455
0.00140929
0.000205674
0.000859388
0.015436
0.000675395
0.00126314
0.0113769
0.00935937
0.00471674
0.000202556
0.00208431
0.00633652
0.0159124
0.0117192
0.00312305
0.00249057
0.00257492
0.00236912
0.0153895
0.00127483
0.0119146
0.0154094
0.00807264
0.0191633
0.0162282
0.000387843
0.0107958
0.00465461
0.00483023
0.00367585
0.00359045
0.00724032
0.00165869
0.00147538
0.00872324
0.00357739
0.0159658
0.00304028
0.00408561
0.011316
0.00218222
0.00535933
0.00136601
0.00775649
0.000928616
0.00365353
0.00041116
0.00880129
0.00529391
0.00020021
0.00437631
0.00622864
0.000704746
0.00647396
0.000967699
0.000285979
0.000197297
0.00540224
0.00205996
0.00199008
0.0063413
0.00925931
0.00734223
0.000473736
0.00673815
0.000789538
0.0019541
0.00357383
0.00678294
0.00926896
0.0155857
0.000507408
0.0154269
0.00691651
0.00674001
0.0112057
0.00253895
0.00314057
0.00432236
0.00485291
0.0011908
0.00932336
0.00485771
0.0066567
0.00318354
0.00831743
0.000414007
0.00894268
0.000843217
0.00329708
0.00740128
0.00891246
0.00722455
0.00350356
0.00216102
0.00796186
0.00945714
0.0114843
0.00560603
0.00439756
0.0106003
0.000869055
0.0012009
0.00496321
0.0104886
0.00584861
0.0088717
0.00537271
0.00575233
0.0013862
0.00572315
0.00777881
0.00698088
0.0071937
0.000966311
0.000821167
0.0122401
0.00682625
0.0108563
0.00838515
0.00271978
0.0093223
0.00869203
0.00484912
0.00294068
0.00948324
0.00319586
0.00310233
0.0179747
0.00977693
0.001766
0.00628209
0.000899332
0.00223361
0.0156625
0.00326941
0.00366428
0.00372246
0.00280328
0.0060412
0.00489477
0.00399903
0.00562805
0.00109432
0.0163562
0.0123555
0.0010618
0.00168998
0.0159546
0.00480798
0.0114601
0.00565243
4.55183e-06
0.00324715
0.00233946
0.0128558
0.0014675
0.0088568
0.0075913
0.0127792
0.0022553
0.0172793
0.00283581
0.00671535
0.0127458
0.0137497
0.00809496
0.00777253
0.00926802
0.00186227
0.00215672
0.0152981
0.00413598
0.00031017
0.010355
0.00459086
0.00595453
0.002
0.00934301
0.0102644
0.0105888
0.0102001
0.0165777
0.0143649
0.0205878
0.00993553
0.0123442
0.0012905
0.0011164
0.013627
0.0107582
0.00205257
0.0116222
0.00823299
0.00469272
0.00295188
0.00220922
0.00265732
0.0110045
0.00707575
0.0103395
0.0044656
0.000896901
0.00330364
0.00794249
0.000611604
0.00235025
0.00343761
0.0028102
0.0091746
0.00163784
0.00375296
0.00129905
0.00133823
0.000939012
0.00241176
0.00103826
0.000336212
0.0025293
0.0123018
0.00366433
0.0141089
0.0128117
0.000332598
0.00108703
0.00951459
0.00187721
0.00156259
0.00225592
0.00414838
0.00586468
0.00275852
0.0106132
0.00391587
0.00148781
0.00160397
0.00215086
0.000881991
0.00631336
0.00302014
0.0101274
0.0085254
0.00981387
0.00605939
0.00879254
0.0061492
0.00667493
0.0134212
0.00598227
0.00254063
0.00288442
0.00508939
0.00295758
0.00983368
0.00645657
0.00655404
0.00382137
0.0107225
0.0110261
0.00163049
0.0106185
0.00230633
0.00473812
0.00844895
0.000706323
0.00626169
0.0136724
0.0065707
0.00220684
0.0075858
0.00376508
0.000350751
0.008748
0.00708861
0.00057132
0.0022129
0.012011
0.00569702
0.00688372
0.00485945
0.0163961
0.0156085
0.0117062
0.00674953
0.00894685
0.00784615
0.00756826
0.00562662
0.014424
0.00371656
0.0024875
0.00297662
0.00825362
0.00813827
0.00264245
0.00871051
0.00406879
0.00845302
0.00409508
0.0212745
0.011274
0.000575131
0.00847169
0.00095518
0.00174352
0.00370083
0.0030597
0.00592072
0.0187072
0.00363414
0.0134303
0.00363005
0.00174956
0.0144853
0.00526707
0.00323363
0.0102653
0.00309232
0.00197994
0.00150946
0.0148923
0.00163116
0.0155137
0.00640546
0.0018929
0.00909737
0.0143303
0.0115165
0.00340592
0.00639423
0.00549541
0.000680486
0.00716782
0.00372709
0.00355938
0.0163401
0.0101623
3.75355e-05
0.00133698
0.00783913
0.0195765
0.0200326
0.00773259
0.0195992
0.00819518
0.00442312
0.0101304
0.00356288
0.00610223
0.00698015
0.00745379
0.00621122
0.00698573
0.00302449
0.00767351
0.0108495
0.00338552
0.00280106
0.00606858
0.0140458
0.00152182
0.00873617
0.00991175
0.00604459
0.0188966
0.00499853
0.0128693
0.00498901
0.00653806
0.00361066
0.0124313
0.0036849
0.0109296
0.00159371
0.00604746
0.00578582
0.0115298
0.000940056
0.00476439
0.000347471
0.0214808
0.0107183
0.0012715
0.00197827
0.00900411
0.0220776
0.0152771
0.0120646
0.00415687
0.00619399
0.00370449
0.00131049
0.0083864
0.00628681
0.00115308
0.0120049
0.00315505
0.00531056
0.00103505
0.0181728
0.0103283
0.0138613
0.00732375
0.0103021
0.0147373
0.0129595
0.0180722
0.00654968
0.00215215
0.00124909
0.0111157
0.0151373
0.000158187
0.00658155
0.00288194
0.00107285
0.00727867
0.00554622
0.00135883
0.00578049
0.00661693
0.00734604
0.00241387
0.0127358
0.0100742
0.0148811
0.00282833
0.00689755
0.00101477
0.00996443
0.00244645
0.00149512
0.00689416
0.0101166
0.0145579
0.00841958
0.00109958
0.0145854
0.00838963
0.00524163
0.0120226
0.0206306
0.00729139
0.00793589
0.00755067
0.0127944
0.00737494
0.00865422
0.00114558
0.00396389
0.00606727
0.0117369
0.00650864
0.00428082
0.00269859
0.00985636
0.0190394
0.00171831
0.0213612
0.0115143
0.000301961
0.00434993
0.00591468
0.00652834
0.00758556
0.0110361
0.00424022
0.0196587
0.000522769
0.00024222
0.00364484
0.00386074
0.00398476
0.00544853
0.00724435
0.000336793
0.009491
0.00834274
0.00184409
0.0080998
0.00543493
0.00218852
0.00560345
0.019029
0.00858095
0.000476428
0.0116143
0.00671995
0.0115102
0.00251943
0.00953924
0.00273213
0.00402889
0.00190266
0.0149186
0.000163523
0.0115477
0.00157954
0.0149862
0.00350345
0.0121984
0.0242953
0.0216899
0.0180083
0.0121385
0.00481488
0.00437527
0.0119237
0.00255046
0.0109421
0.0176869
0.00735802
0.00469316
0.00336604
0.00061842
0.0178876
0.00309361
0.00505461
0.00351842
0.00650448
0.00866251
0.00858111
0.019824
0.000668627
0.0134975
0.00119037
0.0104986
0.000459763
0.000434247
0.00196928
0.000204432
0.00942752
0.000659211
0.00761753
0.000257061
0.00549813
0.000905376
0.010325
0.0097201
0.0101471
0.00115295
0.00586051
0.0163374
0.0112715
0.0144524
0.0123362
0.00946697
0.0120803
0.0228334
0.00919823
0.00755154
0.00570058
0.00402205
0.00013239
0.00171347
0.00458778
0.00161136
0.00250116
0.00501831
0.00223913
0.00456331
0.0146431
0.00644865
0.0123929
0.013781
0.00322999
0.000136207
0.0131823
0.00325687
0.000769732
0.00699061
0.010435
0.00328518
0.00289497
0.00238471
0.00202221
0.00886453
0.00847379
0.00825243
0.00619226
0.012431
0.0123682
0.00200021
0.00205402
0.0156462
0.00914773
0.0131021
0.00164749
0.0169264
0.00702969
0.0063475
0.00400843
0.00478515
0.0026912
0.00511145
0.0126609
0.00190257
0.00317469
0.0114286
0.0159451
0.000243955
0.00249139
0.00313655
0.0111033
0.00271165
0.0089114
0.0235686
0.00138355
0.00195352
0.00858593
0.00486433
0.00214816
0.00946442
0.00782411
0.00747202
0.00369028
0.0056741
0.00117914
0.0085648
0.0143603
0.0147842
0.00351966
0.0157837
0.0171967
0.0120111
0.00738767
0.00646868
0.00739026
0.00548983
0.00757327
0.0205103
0.00100395
0.00272091
0.0102144
0.000878428
0.00262498
0.00545525
0.0102365
0.00527733
0.00460715
0.0052482
0.0115529
0.00188906
0.0114011
0.0111946
0.00572917
0.00903086
0.00474161
0.0106615
0.0028866
0.0154144
0.00401693
0.00491294
0.00435173
0.0117024
0.000835023
0.00106145
0.00499246
0.0120911
0.0201906
0.0259689
0.0226389
0.0164461
0.00575901
0.0144195
0.0110452
0.0187134
0.0222984
0.0151938
0.000333552
0.0187223
0.00145958
0.0150517
0.00886267
0.00442956
0.0056213
0.000160721
0.000533336
0.00216446
0.0072124
0.0159678
0.0131954
0.00790611
0.0140511
0.00959212
0.0128972
0.0111292
0.00769617
0.0166451
0.00927326
0.0163955
0.0193351
0.0218699
0.00749128
0.00392581
0.00188451
8.67576e-08
0.00338746
0.00165643
0.00248992
0.00712449
0.00180202
0.0213479
0.019774
0.00776611
0.00794613
0.0179143
0.0199138
0.011823
0.000527306
0.00806812
0.00893895
0.0190948
0.0117589
0.00272771
0.00681213
0.015798
0.00045537
0.0122961
0.000770498
0.00649531
0.00809161
0.0103793
0.0123167
0.00586341
0.0118558
0.016123
0.00692154
0.000859107
0.0106336
0.0149038
0.0070596
0.00372925
0.0153435
0.000529671
0.0067509
0.00373461
0.0101109
0.000380032
0.000334069
0.015687
0.00159519
0.00271786
0.0169204
0.00567977
0.0123339
0.00862981
0.0136194
0.0120993
0.00177165
0.00444686
0.012949
0.00857321
0.013259
0.0138445
0.0140481
0.0030581
0.00961905
0.00330937
0.00886405
0.00668557
0.00318649
0.00688458
0.00857201
0.00626663
0.00265414
0.0147677
0.00673458
0.00511961
0.0028596
0.00207518
0.00207632
0.0115436
0.00249018
0.00141379
0.0128016
0.0113565
0.00398217
0.0134033
0.00275727
0.0125166
0.000126348
0.00160099
0.00551258
0.00665505
0.00589369
0.0121782
0.000650018
0.00507614
0.00471083
0.00363768
0.00281588
0.00361954
0.00324361
0.0167816
0.0176043
0.00902068
0.00600601
0.00749223
0.0103653
0.0049089
0.00978369
0.00486046
0.0158479
0.0100769
0.00770278
0.00693278
0.00604616
0.00394788
0.0100688
0.0012014
0.00786022
0.00901515
0.00110436
0.00198613
0.00573844
0.00596415
0.00868039
0.00747983
0.00750336
0.0295294
0.0198175
0.0235116
0.0185801
0.0197822
0.0169054
0.0205234
0.0144052
0.0132398
0.0170815
0.00980927
0.00704967
0.00685059
0.0211234
0.0178276
0.00122605
0.00592082
0.00908943
0.0170202
0.015209
0.00117791
0.0137649
0.0112934
0.00137337
0.000588302
0.000854193
0.0234749
0.000343031
0.00168525
0.00863156
0.000875757
0.010309
0.00343088
0.0155965
0.00181132
0.00290982
0.00502749
0.00326471
0.0130526
0.00403679
0.0217161
0.0149057
0.000876396
0.00727897
0.0111188
0.0025007
0.0060994
0.00884521
0.00634034
0.00920431
0.00794409
0.00903245
0.0160979
0.00117104
0.00126344
0.00469828
0.00390513
0.00877017
0.00463421
0.015952
0.0155212
0.017603
0.0156507
0.0173781
0.0179778
0.0178966
0.0213043
0.0147505
0.00714877
0.00468313
0.00432825
0.0071395
0.00897264
0.00661656
0.0147184
0.0125189
0.00556426
0.000461239
0.000149462
0.011086
0.00197781
0.00561864
0.0192361
0.0154793
0.00732335
0.00836486
0.0128257
0.00877858
0.000754528
0.0143353
0.0206306
0.019943
0.00868212
0.000927377
0.0082692
0.00382812
0.000688303
0.0033947
0.00783735
0.00339807
0.00715976
0.00565059
0.00774055
0.0093278
0.00409284
0.00042824
0.0312802
0.00362137
0.00948577
0.00723455
0.00609128
0.00895931
0.00634897
0.0113533
0.00190221
0.00173388
0.00482081
0.0153431
0.0168079
0.00392246
0.0111868
0.00470875
0.00474032
0.00219457
0.00765789
0.00914925
0.00558857
0.015552
0.00207969
0.0123213
0.00487904
0.00600979
0.00415958
0.000764257
0.0131798
0.00563604
0.00365061
0.00753422
0.00187167
0.0253618
0.0174427
0.00241061
0.00429517
0.0105205
0.00729384
0.000727734
0.00498788
0.000114906
0.00400905
0.00237403
0.00286367
0.00467032
0.00121133
0.00588118
0.00713985
0.000631339
0.00046093
0.00257371
0.0121348
0.0187938
0.00488707
0.0226094
0.0278428
0.00760976
0.0247014
0.0164707
0.0114269
0.0163653
0.0105892
0.0232758
0.00887165
0.00750294
0.00229597
0.0179272
0.00998758
0.0140214
0.00572795
0.00766886
0.0251197
0.0106036
0.0155012
0.0199136
0.00463905
0.0185741
0.00530463
0.014928
0.0147723
0.0196202
0.0172101
0.0120144
0.000373353
0.0171966
0.000976921
0.0034343
0.000932392
0.000861788
0.0105241
0.00360613
0.00245306
0.00708617
0.0193581
0.011652
0.0160077
0.0205746
0.0160313
0.0218979
0.0107086
0.00977056
0.000762492
0.00111697
0.00144819
0.0042078
0.00619214
0.00777042
0.00701826
0.00117269
0.00274229
0.00627229
0.00960143
0.00507024
0.00518698
0.0191889
0.00884805
0.0182098
0.0112603
0.0169353
0.00697823
0.0106908
0.00216439
0.0234124
0.00351401
0.0122241
0.00344414
0.00190412
0.000299638
0.000655439
0.00520293
0.00734823
0.00934322
0.00561812
0.00105848
0.0125124
0.00262357
0.00596257
0.00113529
0.0169967
0.00440219
0.000977786
0.00251619
0.0175414
0.00615576
0.00225183
0.00545521
0.00308295
0.00788155
0.00246197
0.000792938
0.0128474
0.00497046
0.00331968
0.0163665
0.00978387
0.0128077
0.00923338
0.00791407
0.00664147
0.00061413
0.0070179
0.000136765
0.0111807
0.00982378
0.000437807
0.015838
0.00556854
0.000511835
0.00554386
0.00414432
0.00170375
0.00255664
0.00583079
0.01961
0.0110136
0.000781524
0.00134786
0.00662487
0.000925053
0.00119232
0.008815
0.012444
0.000305696
0.00243064
0.00516722
0.00755598
0.0116153
0.00830237
0.00564625
0.0058272
0.00544032
0.00057689
0.00597949
0.0045714
0.000117807
0.00329486
0.00400145
0.00829887
0.00407364
0.00191623
0.0180269
0.0068964
0.00190328
0.0153936
0.00631261
0.00375471
0.00623833
0.00395713
0.00215068
0.00485285
0.00784922
0.00607938
0.0141189
0.0216376
0.0069413
0.0152847
0.00951964
0.0177786
0.0132129
0.0106987
0.0196336
0.0181536
0.0122503
0.00246882
0.00852255
0.0102454
0.00364149
0.00922488
0.00216277
0.00155044
0.010814
0.00814917
0.0257702
0.0159267
0.0036063
0.003708
0.00117071
0.00508613
0.000501932
0.0188291
0.00169073
0.00253686
0.0173943
0.000105616
0.0127928
0.000836451
0.00926979
0.00135059
0.00810625
0.00123696
0.00930223
0.00664226
0.0147904
0.00646999
0.00799826
0.00952829
0.00362933
0.00981383
0.0202286
0.0141021
0.0223065
0.00384816
0.00561724
0.00600492
0.00214239
0.00691005
0.00705497
0.00710277
0.00018738
0.0056604
0.0103764
0.0108008
0.00537586
0.00271518
0.0112313
0.0169628
0.0111132
0.0113286
0.00636913
0.00566863
0.0240389
0.00278009
0.0106241
0.00220269
0.0027718
0.013103
0.00308999
0.00496159
0.0154525
0.00860675
0.0102788
0.00197102
0.0104866
0.00321878
0.00843543
0.00380723
0.0133742
0.0163498
0.0175031
0.00582746
0.00275749
0.00019348
0.0029201
0.00326258
0.00748264
0.00365643
0.00117321
0.00741031
0.00120707
0.00921961
0.00454073
0.00799537
0.0268445
0.00590223
0.00729324
0.01123
0.000881585
0.00266168
0.013986
0.001777
0.0177548
0.0044967
0.0154236
0.00944244
0.00802111
0.00249069
0.00192997
0.000568309
0.0149208
0.000589172
0.00713824
0.0152723
0.00591636
0.00537035
0.00776357
0.00375238
0.00683961
0.00243829
0.0103545
0.00180858
0.0112978
0.00602943
0.00222996
0.00171542
0.00248624
0.00907513
0.00472748
0.00264798
0.00639697
0.00986106
0.00949906
0.004756
0.00223915
0.0188356
0.000243659
0.00894926
0.00606449
0.0155504
0.00231769
0.00206362
0.00386741
0.0122531
0.0112603
0.000367711
0.00832225
0.000747549
0.0054654
0.0137246
0.0164057
0.00468807
0.0043632
0.00166588
0.0020956
0.0107962
0.00814726
0.00161554
0.0144632
0.0148938
0.00154868
0.0230546
0.00679668
0.00708247
0.0155669
0.0181951
0.0112294
0.00771866
0.00774073
0.00186404
0.015576
0.00724336
0.000378339
0.00357772
0.00235939
0.0116234
0.014166
0.00454782
0.00171022
0.0158551
0.000573308
0.0104622
0.00101794
0.00240251
0.0157481
0.000599811
0.00350494
0.00241983
0.0153803
0.00218335
0.00644418
0.000670077
0.00463625
0.00550003
0.0100744
0.0059745
0.0156588
0.00976746
0.0147682
0.00988363
0.0121718
0.00751647
0.0129303
0.0151806
0.0165991
0.00474961
0.0123336
0.00600279
0.00338927
0.00507303
0.00325902
0.00332823
0.00213484
0.0051946
0.0046165
0.0172258
0.00434425
0.00573944
0.00966436
0.025387
0.00944032
0.0241368
0.0017877
0.016931
0.00845616
0.0145797
0.00383678
0.0136
0.0145252
0.00422129
0.00461912
0.00374447
0.00231187
0.002268
0.00037464
0.0163577
0.0126487
0.00317925
0.00490079
0.0112239
0.0066932
0.0122181
0.00829142
0.0037579
0.00984036
0.0131179
0.00739091
0.00699648
0.00225434
0.0117813
0.00682311
0.00896578
0.0113646
0.000350437
0.0112763
0.00777658
0.00270547
0.0139564
0.000934773
0.00479405
0.00305718
0.00640853
0.00661443
0.0096512
0.00192356
0.00456652
0.00389604
0.0065064
0.00579952
0.00508629
0.00137994
0.0035606
0.00956144
0.0061291
0.0136085
0.00229177
0.0150141
0.000227489
0.00426536
0.0106854
0.00976473
0.00348687
0.00056314
0.00459946
0.000686022
0.00827076
0.0182425
0.00335072
0.00130227
0.00361203
0.00171863
0.00508745
0.000368419
0.00810693
0.00739591
0.00888072
0.00759598
0.00141205
0.0010522
0.00568479
0.000810789
0.00684249
0.00040085
0.00960627
0.00295516
0.00832989
0.00044961
0.0032343
0.00900547
0.00293501
0.0105275
0.0108408
0.000417977
0.00985811
0.000160302
0.00993566
0.0156669
0.00602228
0.0142756
0.0162059
0.0254892
0.00551756
0.0232769
0.0146555
0.0100372
0.0208332
0.0118045
0.0149673
0.000417243
0.00949061
0.00776275
0.00364881
0.007239
0.00868712
0.0110958
0.022584
0.0138622
0.0145511
0.0188548
0.0112193
0.0130616
0.00152846
0.0142181
0.0153445
0.0122978
0.0107148
0.00350716
0.00428873
0.00851786
0.020264
0.010198
0.00721981
0.00680996
0.00212437
0.0166987
0.00138922
0.00500554
0.0171028
0.0105356
0.0147048
0.00835999
0.0196342
0.00115676
0.0108101
0.00753306
0.00464012
0.00255296
0.00591581
0.00696618
0.00848081
0.00433726
0.0109249
0.0108808
0.00677746
0.00399679
0.00528917
0.0209681
0.0189876
0.0130562
0.00985937
0.00465891
0.0151069
0.0071138
0.00874922
0.0075508
0.00342451
0.000155108
0.00705247
0.00451149
0.00454823
0.0145862
0.00383751
0.00618054
0.00526396
0.0162217
0.00185619
0.000529294
0.00247723
0.0100501
0.00160548
0.000705083
0.00607855
0.0114504
0.00542206
0.00937533
0.00717013
0.000875437
0.00477297
0.0098066
0.00324806
0.00680853
0.00571353
0.00806234
0.00385446
0.0109384
0.00680562
0.00179854
0.00648241
0.00144029
0.0126959
0.0100042
0.000659734
0.00792885
0.0125528
0.00833585
0.00202631
0.00722616
0.00240129
0.00821004
0.0124508
0.00434668
0.00990332
0.00530504
0.00293264
0.00849238
0.0137757
0.00718758
0.0077937
0.0207338
0.00254075
0.00151731
0.00722475
0.0121342
0.00440435
0.0088015
0.00353796
0.00705119
0.00049854
0.00355058
0.0107607
0.00223713
0.00235713
0.000986228
0.0170332
0.000647003
0.00109706
0.00789977
0.00648767
0.00695071
0.000375948
0.00101028
0.00261574
0.00302329
0.0127538
0.00169844
0.000213586
0.00106173
0.0059333
0.00684434
0.00386357
0.00791152
0.00572647
0.00249945
0.0111198
0.0040717
0.0173141
0.0206567
0.00827981
0.0151122
0.0174195
0.00752351
0.00930397
0.0147531
0.00389866
0.019562
0.0014829
0.00115656
0.00876979
0.00873578
0.000873746
0.0018311
0.0101044
0.00744784
0.00335619
0.00298933
0.0107429
0.00408252
0.0115987
3.77683e-05
0.0212455
0.00178241
0.0232648
0.00141699
0.000301581
0.00527449
0.000758256
0.00367027
0.000580273
0.00850935
0.00117556
0.00789142
0.00177997
0.00507275
0.00711487
0.000520924
0.0116709
0.0126445
0.00696742
0.0156029
0.0129945
0.0034846
0.0106293
0.00339057
0.00289247
0.0132837
0.0100368
0.00729057
0.00697491
0.00849731
0.0147272
0.00291784
0.00766114
0.00404879
0.0120063
0.0150813
0.00692675
0.0199883
0.00907933
0.00652829
0.0100835
0.00320036
0.00628203
0.00366515
0.0207479
0.00502477
0.00596409
0.00241477
0.00438785
0.00669487
0.0101485
0.000640464
0.0110436
0.00141472
0.00152277
0.00777061
0.00400016
0.00501815
0.0153194
0.00164214
0.00652802
0.00668769
0.020111
0.00219853
0.00159504
0.00218334
0.00826285
0.00278402
0.0123558
0.00816935
0.00561235
0.0058401
0.00649218
0.00629562
0.0165889
0.000629944
0.00569347
0.0078714
0.00570088
0.00262261
0.0168676
0.00506575
0.00520407
0.00120206
0.00155473
0.0082741
0.00907065
0.0172482
0.0111466
0.00220714
0.00955651
0.00981329
0.0110487
0.00271306
0.0280474
0.0118305
0.00513975
0.00102229
0.00578509
0.0063719
0.00117424
0.00521903
0.00699953
0.00366576
0.00443987
0.00691755
0.00634815
0.0102582
0.00778238
0.00491783
0.0061601
0.000393323
0.000587745
0.00229051
0.000937189
0.00720199
0.00625926
0.00630657
0.0102056
0.00116311
0.0102018
0.0060407
0.00753175
0.00772515
0.00899738
0.00347256
0.00777081
0.00570274
0.00296522
0.0020861
0.0151746
0.00357911
0.00510241
0.00604925
0.00102368
0.00722377
0.000186813
0.0141215
0.00255329
0.00206809
0.0193961
0.0115941
0.000707821
0.004638
0.00427158
0.00616845
0.000430242
0.00239471
0.00528617
0.00679102
0.0121061
0.00549258
0.00759015
0.00697912
0.00873964
0.00583659
0.0130004
0.00141312
0.00345258
0.00486265
0.00282213
0.00366863
0.00905115
0.00705126
0.00136764
0.00560228
0.00374027
0.00292198
0.00238203
0.00469959
0.0167411
0.000535047
0.0168887
0.0120261
0.00936898
0.000717641
0.0179309
0.00321327
0.0176262
0.00349083
0.0157623
0.0104914
0.00969971
0.00842226
0.00895396
0.00357552
0.0120342
0.00132272
0.000275991
0.00641372
0.00259922
0.00593757
0.0122533
0.0181467
0.0190081
0.0112723
0.00388847
0.00434404
0.0117157
0.0102112
0.010752
0.00325756
0.0107662
0.0102278
0.00369015
0.00241894
0.00116996
0.00435087
0.0117627
0.00327357
0.0033176
0.00521727
0.00298637
0.00640383
0.0021617
0.023191
0.00387899
0.0067173
0.00746842
0.00625295
0.00314197
0.0076367
0.000715272
0.0116645
0.00682673
0.00871203
0.0136884
0.0013093
0.00597367
9.63061e-05
0.00307189
0.00418952
0.00621508
0.00850361
0.00491701
0.00805759
0.00626992
0.00430388
0.0150582
0.00392699
0.00679376
0.00967033
0.00156058
0.000886051
0.00118638
0.00201238
0.00608379
0.00829455
0.00173787
0.00463593
0.00399588
0.00208679
0.0116027
0.00223945
0.00226459
0.000120431
0.00350568
0.00908329
0.00396571
0.00231182
0.00441499
0.0110543
0.00061511
0.00159756
0.00896639
0.00969388
0.014577
0.00484941
0.00105013
0.00539668
0.00538437
0.00764233
0.00819594
0.00130201
0.0024323
0.000742162
0.00142398
0.0142103
0.00669003
0.000213254
0.00848781
0.00202498
0.00221872
0.0063564
0.00197782
0.00100199
0.00766745
0.00194857
0.00053997
0.0102937
0.00658637
0.012884
0.0130442
0.0133828
0.000805683
0.00204888
0.00116121
0.00182776
0.0108655
0.00789352
0.0052799
0.00711576
0.00876116
0.00708983
0.00290838
0.000433971
0.00817898
0.00244481
0.00217697
0.00581174
0.000366052
0.00762711
0.0227952
0.0213229
0.000313801
0.00247812
0.0108467
0.00445584
0.00646548
0.00200987
0.00666959
0.0018371
0.0125608
9.77165e-05
0.00123484
0.00516434
0.00163092
0.00136535
0.00157233
0.00365699
8.57486e-05
0.0110517
0.00115109
0.0175755
0.0010773
0.0100348
0.00863567
0.00432953
0.00607483
0.00158126
0.00796325
0.00924193
0.010285
0.0105896
0.0114691
0.00398472
0.000919647
0.00118352
0.00576829
0.0101468
0.00441502
0.0115474
0.00248099
0.0020984
0.00482958
0.00819269
0.00558845
0.0027414
0.00761469
0.000541607
0.0123834
0.00891523
0.00708313
0.000856596
0.00574023
0.00258064
0.00758847
0.0127827
0.00240487
0.000561259
0.00238909
0.0117673
0.000214529
0.0291225
7.81115e-05
0.00493937
0.0121061
0.00194335
0.0146385
0.0126446
0.00128539
0.00232548
0.00700187
0.00772103
0.00968527
0.00269223
0.00565883
0.00957073
0.0219643
0.00200663
0.00168731
0.00572091
0.0123454
0.00526807
0.00556074
0.00824502
0.00834009
0.00147232
0.00899685
0.00796475
0.00154334
0.00898491
0.0154258
0.00864751
0.00300325
0.00479585
0.0145991
0.0007197
0.000930569
0.0019955
0.00159431
0.0117965
0.00816994
0.000911796
0.00269485
0.0117969
5.5015e-05
0.00556307
0.00202634
0.00823571
0.0038754
0.0086474
0.000134014
0.0133535
0.004906
0.00903004
0.0033532
0.00361264
0.017686
0.00623653
0.0107344
0.0101663
0.0103396
0.0103947
0.00130617
0.00534683
0.0115159
0.00242745
0.00323496
0.00500719
0.00934032
0.0054462
0.00311941
0.00363589
0.00641147
0.00318999
0.00914677
0.00244435
0.00284605
0.00650244
0.000879836
0.00187097
0.010235
0.0202366
0.00829848
0.00259245
0.0106009
0.00320627
0.0150948
0.00590123
0.00458584
0.00225885
0.00389892
0.00337083
0.001206
0.00765992
0.00240228
0.00114661
0.0106924
0.0143105
0.00994126
0.0217815
0.0242007
0.0124415
0.00824698
0.00352009
0.0212431
0.000615288
0.00407394
0.00622154
0.00595887
0.00625989
0.00104108
0.00215722
0.00418861
0.00658869
0.00131411
0.00186174
0.00576058
0.0136806
0.00246633
0.013947
0.019695
0.0259641
0.00532555
0.0180951
0.00468064
0.00759063
0.000644446
0.012911
0.00757113
0.000776243
0.00214347
0.0122338
0.00182772
0.00277524
0.0152242
0.00304422
0.0169829
0.0139198
0.0109833
0.0240459
0.0140662
0.0335415
0.00284486
0.00503205
0.0148391
0.00025769
0.0121268
0.00387227
0.000723214
0.00241453
0.0133718
0.0016525
0.00473574
0.013896
0.00568774
0.00407072
0.00132793
0.00525062
0.00128699
0.00111941
0.00581393
0.0195208
0.00246215
0.00259141
0.0104346
0.00228147
0.004695
0.0126865
0.00327955
0.00034107
0.00186667
0.00941146
0.000798403
0.00450519
0.00375891
0.00441833
0.00247534
0.00292512
0.016416
0.0227246
0.0204146
0.0214533
0.00415645
0.00899583
0.00840769
0.0111603
0.0118253
0.000117444
0.00265186
0.00750199
0.00314375
0.00384362
0.00112742
0.00542365
0.0107551
0.0132131
0.00799245
0.0104582
0.0127135
0.000748549
0.0146096
0.00735379
0.0013327
0.00286614
0.00741017
0.00306453
0.0034502
0.0185239
0.00535997
0.00700792
0.00157498
0.00146436
0.00626352
0.0051297
0.00529948
0.00618188
0.00858219
0.0121865
0.00328641
0.00298959
0.00488283
0.00160854
0.00560066
0.0037675
0.00973339
7.06916e-05
0.0100732
0.0142802
0.0129988
0.00883082
0.000337578
0.00357232
0.00827166
0.00389553
0.0111239
0.00250149
0.00276105
0.0064903
0.00370113
0.0117559
0.000824213
0.0092221
0.0219864
0.0132304
0.013713
0.0139016
0.00594047
4.03677e-05
0.0129418
0.016075
0.00472055
0.0189931
0.00523679
0.00604364
0.00627893
0.00945574
0.00988702
0.00905166
0.0179489
0.0241301
0.0193418
0.0280055
0.0324611
0.00290918
0.0190904
0.00401586
0.0116241
0.000542093
0.000996082
0.0023501
0.00942646
0.000755179
0.000561004
0.00188192
0.00100836
0.0119818
0.00081468
0.0162305
0.00137917
0.0228251
0.000869079
0.0332609
0.00622226
0.00784256
0.00268274
0.0192421
0.0122121
0.00234899
0.00164746
0.00496413
0.00177732
0.00326341
0.00394337
0.00480928
0.000870036
0.00278405
0.00141804
0.0183652
0.0176162
0.0267615
0.0249485
0.0280932
0.00866275
0.00516988
0.00193837
0.0148236
0.00153308
0.00783452
0.00778893
0.00260772
0.0203591
0.00485896
0.00847603
0.00233951
0.00183843
0.00578643
0.00447231
0.0176285
0.0124019
0.0165268
0.0255857
0.0238026
0.0087114
0.00406183
0.0157152
0.0055917
0.0133606
0.00694555
0.00985316
0.00929801
0.00553523
0.0160365
0.00733416
0.00131817
0.0083519
0.0111457
0.00174986
0.0148471
0.00474752
0.0131231
0.000899966
0.0108053
0.0141202
0.0135651
0.00798532
0.00190153
0.00555246
0.00558249
0.000685133
0.000320757
0.0173643
0.00468782
0.00920942
0.0180077
0.00957072
0.015848
0.0067614
0.0128324
0.014567
0.0206567
0.000269863
0.0139104
0.0150254
0.00605627
8.74559e-05
0.00472617
0.00592821
0.00267302
0.00244633
0.0118969
0.00249021
0.00440936
0.00554862
0.00662335
0.00805454
0.00138296
0.00252965
0.0040387
0.013512
0.0116054
0.00628542
0.00970193
0.00167512
0.0128603
0.00294211
0.0100428
0.00568142
0.00463551
0.0092082
0.00889403
0.00218084
0.0144365
0.00286204
0.0111828
0.00593126
0.00644771
0.00197224
0.0135763
0.0120696
0.00316169