/*--------------------------------*- C++ -*----------------------------------*\
| =========                 |                                                 |
| \\      /  F ield         | OpenFOAM: The Open Source CFD Toolbox           |
|  \\    /   O peration     | Version:  2212                                  |
|   \\  /    A nd           | Website:  www.openfoam.com                      |
|    \\/     M anipulation  |                                                 |
\*---------------------------------------------------------------------------*/
FoamFile
{
    version     2.0;
    format      ascii;
    arch        "LSB;label=32;scalar=64";
    class       volScalarField;
    location    "0";
    object      relativeErrorField;
}
// * * * * * * * * * * * * * * * * * * * * * * * * * * * * * * * * * * * * * //

dimensions      [0 0 0 1 0 0 0];

internalField   nonuniform List<scalar> 
3200
(
0.0058259
0.00152772
0.00709586
0.00871253
0.00480694
0.0124918
0.0150072
0.0187066
0.017626
0.00982858
0.0142741
0.0159783
0.0128605
0.0116005
0.0112553
0.0142016
0.0113592
0.011638
0.00218979
0.00582388
0.00152644
0.00677092
0.000718159
0.0112013
0.00637471
0.0105829
0.00809368
0.00894304
0.0133238
0.0116828
0.0211953
0.00891583
0.012498
0.00371986
0.00536607
0.0113264
0.0115516
0.00692445
0.00406997
0.00721526
0.00208422
0.00286046
0.00214909
0.00593668
0.00987099
0.010052
0.00337421
0.0123112
0.0099621
0.0119101
0.0158511
0.0149007
0.0155489
0.00933345
0.00248173
0.00920739
0.00623031
0.00397305
0.000319761
0.00415212
0.000346668
0.00640865
0.000530857
0.00807845
0.00305724
0.0140194
0.0122155
0.0063463
0.00978523
0.0162164
0.0111599
0.0177991
0.0113158
0.0122712
0.00716982
0.0113257
0.000842181
0.0023864
0.00502101
0.00407435
0.00277277
0.000506482
0.00221659
0.00193319
0.0106934
0.0030973
0.00362656
0.0118044
0.0101249
0.00498917
0.00942089
0.0119357
0.0118686
0.00114335
0.00103245
0.00695846
0.00789886
0.00945357
0.00322259
0.00279061
0.0020269
0.00725832
0.00605757
0.0048562
0.00391485
0.00421591
0.00560892
0.00674314
0.00909787
0.0069969
0.00230588
0.00300232
0.00703593
0.00858472
0.00244082
0.00646665
0.0111702
0.0049819
0.00546203
0.000518633
0.00010499
0.00332435
0.00230458
0.00132774
0.00166879
0.00555915
0.00598267
0.00202516
0.00356654
0.0028573
0.00278854
0.00418154
0.00658832
0.00441715
0.000530436
0.00585071
0.00111897
0.000307521
0.00415876
0.00475697
0.00118348
0.00017641
0.00544975
0.00333026
0.00610058
0.00394643
0.00385434
0.00538919
0.00129419
0.00363698
0.000832027
0.0146882
4.27064e-05
0.00383315
0.00911008
0.000231119
0.00105738
0.000985055
0.000232272
0.00995615
0.00112684
0.00185457
0.00188807
0.00133075
0.00207951
0.00380559
0.0102904
0.010757
0.0110305
0.018557
0.0145572
0.0161244
0.0118208
0.00735512
0.00717208
0.00744601
0.00442467
0.00815146
0.00879687
0.00306617
0.00308498
0.00108327
0.00730778
0.00156973
0.00773711
0.000489767
0.00807582
0.000134667
0.0112576
0.000531137
0.00374117
0.0127487
0.00295127
0.0066342
0.00135569
0.00699979
0.000692768
0.00108437
0.000216809
0.000142546
0.00225593
0.00672488
0.00169403
0.00412382
7.71812e-05
0.00169859
0.00588086
0.00662459
0.0110912
0.0112093
0.0143169
0.0093236
0.00215097
0.0115188
0.00595345
0.00684884
0.00156886
0.000318465
0.00809442
0.00181807
0.00726469
0.00391076
0.00351769
0.0111959
0.00272135
0.00329069
0.00671858
0.00459141
0.00762077
0.00913031
0.00904213
0.0095446
0.0127561
0.00842939
0.00800793
0.00360717
0.00646622
0.00357424
0.00312452
0.00368842
0.00512986
0.00421418
0.00434302
0.00654425
0.00458169
0.00380192
0.00277081
0.0135511
0.00812099
0.00582923
0.00341596
0.0068305
0.00510728
0.00809487
0.00850666
0.00737173
0.00275727
0.000863515
0.00200626
0.0087032
0.00270415
0.00685482
0.0010422
0.00167777
0.00280477
0.00630244
0.00912431
0.00912166
0.00739274
0.00269798
0.00142583
0.00248816
0.0045441
0.000155076
0.00213079
0.00775742
0.00100835
0.000854995
0.00687504
0.00570612
0.00793595
0.00539865
0.0030872
0.00255909
0.000452007
0.00205124
0.00387378
0.00735879
0.0012799
0.00214737
0.00482778
0.00392279
0.00334655
0.000513485
0.00448442
0.00868354
0.000174655
0.00411748
0.00221484
0.00589434
0.0104466
0.00631754
0.00454858
0.00653712
0.000214227
0.00579325
0.0013258
0.00266445
0.0076258
0.00455067
0.00238571
0.00668753
0.00222849
0.000472912
0.00199283
0.00999999
0.00155587
0.00281276
0.0025406
0.00640178
0.00123849
0.00140874
0.00800638
6.41096e-05
0.00402757
0.00283723
0.00545701
0.00546632
0.0141559
0.01108
0.0125957
0.0120071
0.00718506
0.0159202
0.00384445
0.0125403
0.00232041
0.0002494
0.001189
0.000587265
0.00231821
0.00196834
0.00561636
0.00227964
0.00884385
0.00392021
0.00573849
0.00561943
0.00865232
0.00739933
0.00923543
0.00752433
0.0103353
0.00759513
0.000858312
0.010627
0.00570296
0.00120872
0.00384286
0.00672958
0.00895247
0.00200565
0.00316632
0.00137894
0.00605187
0.00764162
0.00464669
0.0104773
0.00780412
0.00849931
0.0154209
0.00810183
0.00204274
0.000169097
0.00672542
0.00169965
0.0032794
0.00184317
0.00194012
0.00205143
0.00267985
7.03922e-06
0.00385863
0.0043736
0.00353969
0.00744603
0.00133433
0.00927997
0.00131413
0.00821694
0.00701308
0.0103134
7.90356e-05
0.00589247
0.000374081
0.00512964
0.000302912
0.00580484
0.000328937
0.00729137
0.00455697
0.000632321
0.00186917
0.000714941
0.00100583
0.00352104
0.000932295
0.00207001
0.00309766
0.00306575
0.00389891
0.0132683
0.00713016
0.00561864
0.00384398
0.00388039
0.00420224
0.00385706
0.000190864
0.00245995
0.000620254
0.00370674
0.00582107
0.00505927
0.00271827
1.97982e-05
0.00104524
0.00601315
0.00323233
0.00218169
0.00349992
0.0047037
0.0045693
0.0049276
0.00220247
0.00940551
0.00446869
0.000379942
0.00363263
0.00192197
0.00837114
0.00445565
0.002197
0.00603039
0.000263937
0.00211273
0.00625466
0.00303018
0.00368126
0.000403346
0.00142227
0.00659846
0.00328404
0.0152252
0.00412651
0.00118194
0.000261761
0.00340158
0.00153276
0.00446145
0.00173861
0.00909512
0.00160547
0.000519652
0.00157743
0.0024474
0.00176988
0.00112823
0.00904271
0.0128025
0.00151502
0.00156267
0.000743899
0.00107125
0.00303919
0.000311098
0.00255673
0.00957244
0.00130921
0.00538541
0.00198521
0.00419589
0.0015759
0.000943319
0.00203956
0.00410851
0.00123071
0.000494465
0.00849409
0.0153637
0.0161587
0.00271162
0.0116254
0.00380738
0.00844638
0.00123496
0.0062135
0.00143699
0.0053463
0.00309124
0.00614823
0.00108336
0.000956305
0.00177965
0.00654346
0.000475134
0.00652057
0.000942816
0.0104361
0.00135943
0.000278397
0.00491595
0.00158457
0.00789473
0.000958212
0.00354954
0.00108181
0.00196868
0.00110133
0.00987746
0.0104754
0.0034149
0.00134083
0.00426389
0.000599942
0.00488437
0.0060491
0.00979289
0.000215898
0.0101488
0.00178117
0.00326005
0.010574
0.00374901
0.00416405
0.000608861
0.00550025
0.00519881
0.00801416
0.000521494
0.000264448
0.0101281
0.0100735
0.00131304
0.0010332
0.000926395
9.08328e-05
0.000718984
0.00443918
0.0101086
0.00299116
0.00844118
0.00173729
0.00805081
0.00551512
0.00051872
0.000758775
0.00499463
0.00177813
0.00457039
0.00663095
0.00402323
0.00486011
0.00688205
0.00126929
0.00929129
0.000162164
0.00795045
0.00450176
0.000218792
0.00401375
0.00770887
0.00125925
0.00131266
0.00167624
0.0062471
0.0034944
0.00226512
0.00281179
0.0033797
0.00743224
0.00506988
0.00156279
0.00157046
0.00824725
0.00358511
0.000424424
0.00102573
0.00495666
0.0057446
0.00317482
0.00361794
0.00469256
4.04499e-05
0.00186836
0.00597465
0.00479999
0.00124201
0.000430473
0.00158632
0.00058481
0.00403862
0.00315983
0.00080736
0.00518171
0.000543892
0.00113102
0.00401127
0.00240806
0.00776248
0.00339641
0.00465177
0.00120556
0.00148923
0.00385158
0.00118087
0.00768242
0.00163396
0.00125245
0.00883557
0.00195981
0.00114062
0.000329244
0.00675327
0.00690601
0.00249983
0.00189124
0.00101769
0.000171553
0.000886158
0.00484502
0.000877405
0.00723645
0.00902943
0.00354108
0.00345693
0.000693364
0.00616682
0.0011368
0.00455749
0.0136736
0.010077
0.00894594
0.00603998
0.00497422
0.00116275
0.00531616
0.0069583
0.00440733
0.0011566
0.0121107
0.00942557
0.00189302
0.00151043
0.00303233
0.00564271
0.000651572
0.00800113
0.00156902
0.00288312
0.00877571
0.00564132
0.000236935
0.00512741
0.0081572
0.00134744
0.00626842
0.0070031
0.0099517
0.00245952
0.0024647
8.15485e-05
0.00293814
0.00616963
0.00166069
0.00648712
0.00405833
0.00296943
0.00119259
0.00476999
0.0122182
0.00516462
0.001795
0.0148423
0.0055416
0.00146592
0.00464015
0.00398712
0.000595185
0.00226838
0.00646711
0.00282776
0.00669672
0.00306507
0.00540991
0.00258473
0.00110566
0.00989537
0.0030756
0.000815373
0.00676282
0.00597258
0.00406974
0.000372379
0.00574237
0.00186637
0.00386969
0.00349027
0.003006
0.00122946
0.00575703
0.00921383
0.00466402
0.000643673
0.0035927
0.00231509
0.00335151
0.00141848
0.00131995
0.00646981
0.00101942
0.00573911
0.00283018
0.000121107
0.00531926
0.00199161
0.00875101
0.000770855
0.00102436
0.00182329
0.00322933
0.00637423
0.00201777
0.00439433
0.00283554
0.00204278
0.00378186
0.00679603
0.00815851
0.00448077
0.00723689
0.00322335
0.00159114
0.00181702
0.00762958
0.00198665
0.00276196
0.0012986
0.00372446
0.000286092
0.00254416
0.00250217
0.00346365
0.00891802
0.00487514
0.00240275
0.0031073
0.00133297
0.00123934
0.00217649
0.00380228
0.00341798
0.00709543
0.00530565
0.00228419
0.00270172
0.00557062
0.000447809
0.00219878
0.00123151
0.0055927
0.00381282
0.00214104
0.00188665
0.00452901
0.00280946
0.00301005
0.00581138
0.0050459
0.000153021
0.00303503
0.00165519
0.00133998
0.00430919
0.000148171
0.00269762
0.0107668
0.00443133
0.000320488
0.00177042
0.000314791
0.00062986
0.00720078
0.000926457
0.00425801
0.00233383
0.00950554
0.00331262
0.00848298
0.000192788
0.0129521
0.0160155
0.00536534
0.011391
0.00344347
0.00650281
0.00288582
0.00274347
0.00737766
0.00421916
0.00434529
0.00229993
0.00340376
0.00847603
0.00269367
0.00764995
0.00210747
0.00995183
0.00233638
0.0030742
0.0166244
0.00871221
0.00667603
0.00108809
0.00375694
0.000815083
0.00174572
0.00141251
0.0017115
0.00121996
0.000758164
0.00864894
0.000470244
0.00197513
0.00155266
0.00407615
0.00109977
0.00438194
0.00119721
0.0076374
0.0105702
0.00126495
0.00375003
0.00341513
0.000859762
0.00914028
0.00856163
0.00405734
0.00473839
0.0046635
0.00225076
0.00379621
0.00216132
0.00437498
0.00853279
0.00173867
0.00143819
0.00155996
0.00156898
0.00126529
0.00942036
0.00898168
0.00881201
0.00256896
0.00495869
0.00483888
0.00427954
0.00874495
0.00219707
0.00862154
0.00532165
0.000915106
0.000824618
0.00355976
0.00216588
0.000706086
0.00516688
0.000431229
0.000168429
0.00173353
0.00775763
0.000289629
0.000587112
0.00814995
0.00177396
0.000437394
0.00183119
0.00871602
0.000291268
0.0114219
0.00355342
0.00643295
0.00589634
0.00655575
0.00210764
0.00604346
0.000572112
0.00440504
0.0040524
0.00870304
0.00229474
0.00073673
0.000507096
0.011194
0.00899984
0.00267438
0.00464703
0.00150534
0.0024044
0.0034806
0.000175573
0.00228162
0.00151722
0.00197324
0.0019448
0.00538206
0.000774483
0.00523998
0.00654396
0.00024493
0.00402223
0.00670997
0.000642297
0.000257376
0.000945326
0.00304466
0.00165015
0.00132263
0.00507364
0.00015499
0.000299329
0.00236929
0.00447474
0.000712519
0.00157606
0.00483567
0.0156765
0.00135731
0.00249834
0.00391116
0.00153922
0.00305928
0.00112333
0.0074721
0.00341339
0.000788154
0.00532069
0.000552119
0.00441593
0.00489445
0.00379878
0.00353255
0.00131672
0.00335657
0.00164506
2.19976e-05
0.00473703
0.00335553
0.000704387
0.00704682
0.0169026
0.0119687
0.011043
0.0149625
0.0129402
0.00664011
0.0108768
0.000527102
0.00399415
0.00251579
0.00619922
0.00414331
0.000669336
0.000548287
0.0010926
0.0064533
0.00615491
0.00644588
0.00277319
0.00756116
0.00542409
0.0095432
0.00297493
0.00213091
0.00794992
0.00553148
0.000652567
0.000396392
0.000921509
0.00531698
0.00500184
0.00221676
0.00300698
0.000924803
0.00310826
0.00382957
0.00386617
0.00450258
0.00158508
0.00482918
0.0134122
0.00960495
0.00419118
0.0108446
0.00197635
0.00751964
0.00179906
0.00266442
0.00425786
0.00535005
0.00146119
0.00149045
0.00491914
0.00566831
0.00363108
0.00857464
3.33855e-05
0.00211601
0.00699343
0.00311276
0.0109915
0.0051507
0.00440808
0.00213354
0.0137245
0.00292668
0.00160938
0.00297098
0.00433012
0.000924301
0.000933598
0.000375197
0.00275835
0.00376518
0.000824842
0.00631464
0.00632001
0.0039686
0.000954042
0.0113594
0.0135015
0.00959932
0.00317741
0.000981798
0.00711044
0.00441861
5.12314e-05
0.00556753
0.00346838
0.00453168
0.00216769
0.00267781
0.00751097
0.000414189
0.00157066
0.00209311
0.00190865
0.00258345
0.00826393
3.51562e-05
0.000661391
0.00111712
0.00402416
0.00508229
0.00823892
0.00445656
0.0057553
0.000674016
0.00412502
0.000373055
0.00263241
0.000435394
0.00183458
0.000906827
0.00787953
0.00722715
0.00163374
0.00146862
0.00325414
0.000534758
0.00432778
0.00428363
0.00682509
0.00693228
0.00226116
0.00291266
0.00208566
0.000668877
0.00134863
0.00722005
0.0032249
0.00351325
0.00641432
0.00156987
0.000792653
0.00615571
0.00467378
0.00281499
0.00642032
0.00308906
0.00989569
0.000216194
0.00383998
0.00109822
0.00822261
0.00797167
0.00144394
0.00588741
0.0051872
0.0053489
0.00105376
0.000561777
0.00246739
0.00471019
0.00354732
0.000948017
0.00956222
0.0013737
0.00843605
0.00469919
0.0188171
0.00757199
0.0126882
0.00569108
0.0127295
0.0136008
0.00724356
0.0121506
0.00300031
0.00583547
0.0099432
0.00705966
0.00034238
0.000616957
0.00837105
0.00741967
0.00838299
0.0076041
0.0104995
0.0091821
0.000955151
0.00776015
0.00907997
0.00371076
0.00867098
0.000342948
0.00386007
0.00133866
0.00652168
0.000490268
0.000523274
0.0114238
0.00103158
0.00418101
0.00283888
0.0107566
0.000800762
0.0099242
0.000931044
0.0110075
0.004817
0.00394202
0.0144103
0.00695542
0.00612917
0.00726561
0.00477167
0.00743151
0.00288713
0.002698
0.00169981
0.00118619
0.00212793
0.00692146
0.00159221
0.014782
0.00983658
0.0113785
0.00347137
0.0070438
0.0076408
0.00652007
0.0143233
0.00113396
0.00565293
0.000575928
0.00491838
0.000879978
0.00126058
0.0010189
0.000204014
0.000541625
0.0018049
0.00366835
0.00447458
0.00704118
0.0041559
0.000203317
0.0035223
0.00109585
0.00347331
0.00897539
0.000202661
0.0105711
0.00245174
0.0013931
0.0025079
0.00256425
0.0059307
0.00378808
0.0110136
0.000749087
0.000493493
0.00472447
0.00843661
0.00276076
0.00894006
0.000376728
0.00459486
0.00349112
0.0049089
0.001035
0.00257566
0.00862698
0.00509809
0.00231551
0.00856976
0.00659891
0.00646844
0.000451801
0.00443625
0.0077808
0.00591961
0.0071934
0.00520952
0.0105885
0.00127568
0.00198818
5.5079e-05
0.00364063
0.00643518
0.00258189
0.0053842
0.00190952
0.00698897
0.00500716
0.00454905
0.00284612
0.000290047
0.00356329
0.00303528
0.000233748
0.000827295
0.00273815
0.00502596
0.00739943
0.00916888
0.00799505
0.00445591
3.42747e-05
0.00487245
0.00292223
0.0037459
0.0107393
0.00135933
0.00852348
0.00378946
8.17627e-06
0.00523474
0.00563515
0.000380748
0.00791226
0.00590975
0.0048373
0.00401291
0.000302855
0.00342794
0.00238718
0.0068854
0.000714434
0.015299
0.0138968
0.0134492
0.0057267
0.0120981
0.0107011
0.00577918
0.00455378
0.00926003
0.000895884
0.00878009
0.00456839
0.00983592
0.0055348
0.00826266
0.00645833
0.0144993
0.00730356
0.004895
0.012294
0.00935232
0.0184079
0.00972418
0.00891511
0.0131198
0.00251228
0.00732027
0.00716192
0.00348799
0.00380865
0.00402689
0.000346255
0.0117728
0.00592503
0.00429759
0.00933
0.00678529
0.0010896
0.00193918
0.00401222
0.00367118
0.00868942
0.00909811
0.00761082
0.00578225
0.0120359
0.00272725
0.00248919
0.00685437
0.000175362
0.00742452
0.00853964
0.00163389
0.000268528
0.00111633
0.0069915
0.0107082
0.00271198
0.0121823
0.0117074
0.00268021
0.00118926
0.00575814
0.00865593
0.0084415
0.010923
0.00268128
0.0100854
0.00706018
0.00903086
0.00441873
0.00528017
0.00410506
0.00541363
0.00959102
0.000143509
0.00530421
0.0108332
0.00501191
0.00493206
0.00904065
0.00931362
0.00932555
0.00757019
0.00498749
0.00537018
0.00244787
0.00137313
0.00213686
0.000885075
0.00329448
0.00279068
0.00165453
0.00906007
0.00371978
0.00278168
0.00150801
0.00377826
0.00438853
0.00582619
0.0068925
0.0027576
0.00692985
0.000539718
0.0157052
0.00697051
0.00670625
0.000794027
0.00728699
0.00369967
0.0124594
0.0031481
0.00155117
0.00319392
0.00563826
0.00464056
0.000505022
0.00526091
0.0118231
0.000539084
6.82747e-05
0.00360345
0.00172697
0.00324589
0.00783662
0.000936185
0.00244469
0.00299043
0.00148483
0.00517507
0.00162443
0.00166253
0.00318356
0.00276618
0.0038328
0.00899256
0.00576346
0.00587227
0.00257232
0.00280688
6.03167e-05
0.00265971
0.00162926
0.00131715
0.00033819
0.000675536
0.000553927
0.00519592
0.00130808
0.00332641
0.0103192
0.00285052
0.00128344
0.002631
0.00506063
0.00389227
0.00739274
0.00117427
0.00442932
0.00169638
0.0166003
0.0111326
0.0170329
0.0198674
0.0147677
0.00947787
0.00465009
0.00156233
0.00602639
6.85352e-05
0.00738004
0.00160609
0.00396499
0.00934453
0.00355963
0.0104245
0.0138253
0.00839591
0.00226106
0.00638405
0.0114398
0.010876
0.00855218
0.00475338
0.00874407
0.00109981
0.00315881
0.00072489
0.00536557
0.00145099
0.000521355
0.00861163
0.000708457
0.00287295
0.00105643
0.0036473
8.80956e-06
0.00309906
0.000715441
0.00894503
0.0125518
0.00680255
0.0106717
0.0139306
0.00685024
0.0115873
0.00938744
0.00988717
0.00236982
0.00688185
0.0041168
0.00372743
0.00669544
0.00469829
0.00133767
0.00605241
0.0101158
0.00811215
0.00102091
0.00319415
0.0145903
0.0101288
0.0057423
0.0115381
0.00870339
0.00119374
0.00528048
0.00412606
0.0062565
0.00156835
0.00308243
0.00752201
0.00783627
0.0054973
0.00843069
0.00929127
0.0045517
0.00669606
0.00263594
0.000722692
0.000911358
0.00483156
0.00567485
0.00159926
0.00402394
0.0072294
0.00552025
0.00177425
0.00159648
0.00172572
0.000808345
0.00953951
0.00597832
0.00953674
0.00918697
0.00217099
0.00647404
0.00540263
0.00384663
0.00854607
0.00925739
0.00238341
0.00305372
0.000388724
0.00522359
0.00251584
0.0085782
0.00472446
0.000905445
0.00386052
0.00875624
3.16995e-05
6.80013e-05
0.00688808
0.00139961
0.00404566
0.000181194
0.00720201
0.000762051
0.00436293
0.00244994
0.0016024
0.00807225
0.00348447
0.00272285
0.00302152
0.00480128
0.00233282
0.00485041
0.000419532
0.000360747
0.000500765
0.00301392
0.000395365
0.00399113
0.00519377
0.00267756
0.00237347
0.00498955
0.000903252
0.00377791
0.0023773
0.00141972
0.00178996
0.00159852
0.000438119
0.000280264
0.00024488
0.000981757
0.00416305
0.0112268
0.000621365
0.00614402
0.0027016
0.00401613
0.00313594
0.00531088
0.00401193
0.00417324
0.000228717
0.0139999
0.016335
0.0147716
0.0101263
0.00971576
0.00896272
0.00280978
0.0044481
0.00663185
0.0054489
0.00621115
0.0101553
0.00866787
0.0105366
0.00501128
0.00514857
0.0135364
0.00188073
0.0103578
0.00269087
0.00542417
0.00312241
0.0052364
0.00613387
0.00323286
0.00115545
0.0140457
5.91661e-05
0.00642692
0.00171002
0.00117491
0.00462457
0.000654232
0.00180931
0.00102965
0.00927794
0.00046034
0.00296178
0.000533492
0.00424457
0.00748904
0.000117293
0.0149397
0.00789408
0.00842255
0.00722073
0.00962889
0.0100674
0.00646759
0.00614248
0.00214761
0.00034221
0.00996306
0.00370721
0.00897122
0.0102999
0.00468396
0.0193768
0.0101432
0.00128959
0.00315271
0.00639969
0.00464041
0.0134136
0.00631064
0.00705823
0.0117595
0.00671388
0.00117356
0.00143407
0.000369714
0.00238804
0.00463473
0.00372184
0.00432316
0.00358074
0.00461086
0.000215711
0.00851984
0.00612851
0.00629832
0.00949208
0.0028701
0.000795253
0.00782387
0.00655523
0.0143573
0.00125666
0.0052298
0.0102073
0.00610202
0.0114868
0.00532529
0.0054514
0.00297415
0.000478927
0.00682025
0.00151953
0.00422634
0.000389423
0.0077666
0.00127482
0.00130105
0.00753552
0.00723184
0.00305838
0.00535215
0.00802387
3.80698e-05
0.0110668
0.00578344
0.00840096
0.00166895
0.00730762
0.00169823
0.0070917
0.00201347
0.00133734
0.00582497
0.00535762
0.00171785
0.00242459
0.000827725
0.0070736
0.00201358
0.000929784
0.00324083
0.00116737
0.00224768
0.00240772
0.0087985
0.00218165
0.00999568
0.00280054
0.00273991
0.00291703
0.00312894
0.00586076
0.00671455
0.00466272
0.00401829
6.91538e-05
0.00750729
0.000615462
0.00531503
0.00257325
0.00817752
0.00314198
0.000648433
0.00345529
0.00725281
0.00553044
0.00440727
0.000484615
0.00157146
0.00217931
0.00317194
0.0150054
0.00739025
0.00927245
0.00895832
0.0138573
0.0074405
0.00829693
0.00928191
0.00582537
0.00578524
0.00880476
0.00971525
0.0118352
0.0106846
0.0158332
0.010878
0.0109195
0.0164323
0.00150202
0.00838102
0.00707588
0.0049443
0.00338861
0.00666379
0.00824141
0.00490899
0.0056347
0.0118193
0.000826714
0.00892468
0.00705445
0.00790861
0.00967816
0.006397
0.00939959
0.013112
0.00395526
0.00392276
0.0108427
0.00567717
0.0042876
0.00802382
0.00405827
0.00394182
0.00345299
0.00385066
0.00569876
0.00231527
0.0095024
0.00594421
0.00520264
0.00623752
0.00828456
0.00200815
0.00784456
0.00556038
0.0104397
0.00796989
0.00172041
0.0099931
0.00250191
0.00159447
0.00123283
0.0059546
0.00597736
0.0101306
0.00782996
0.00821398
0.00367946
0.00896953
0.00192503
0.00525278
0.0051357
0.00218008
0.00432533
0.00702705
0.006549
0.00396402
0.00219347
0.0105111
0.00861231
0.00614735
0.00183778
0.00435215
0.00231139
0.00594212
0.00368773
0.00357855
0.00358077
0.00348902
0.00385105
0.00658845
0.00494294
0.0135138
0.00234823
0.00532979
0.00262116
0.00555703
0.00315508
0.00605231
2.03191e-05
0.00694309
0.00137484
0.00228691
0.00199321
0.00327756
0.00294862
0.000214906
0.00756537
0.00221618
0.00155396
0.00603282
0.00341365
0.00422835
0.00438669
0.00393484
0.00169287
0.00712337
0.00737657
0.0009896
0.00451391
0.00166063
0.0106971
0.000249905
0.00575963
0.00448198
0.000900724
0.00291568
0.00639923
0.0047218
0.00712763
0.00735436
0.00264104
0.00324221
0.00258347
0.00183857
0.00452069
0.00127742
0.00470051
0.00212484
0.000427709
0.000870149
0.00187777
0.00657978
0.00556803
0.00134701
0.00194037
0.00333651
0.00262135
0.00134454
0.00268798
0.00194322
0.00862169
0.00583959
0.00272578
0.0106983
0.00412161
0.00356741
0.00388251
0.000333955
0.00278812
0.000824785
0.00249483
0.00186045
0.00832271
0.0103737
0.0080542
0.0101286
0.00921856
0.00901598
0.00253533
0.00824082
0.00859947
0.0054653
0.00350931
0.00626131
0.000562763
0.00940605
0.00694987
0.00577382
0.00163951
0.00675322
0.000399898
0.0124301
0.00303191
0.0022947
0.00326502
0.0112005
0.00109406
0.00349372
0.00117787
0.0126306
0.000865557
0.000709997
0.0129511
0.000718435
0.000325761
0.000820304
0.00317944
0.00255293
0.000402782
0.000674809
0.00912183
0.00606087
0.00737708
0.0140086
0.0151312
0.00960588
0.0106674
0.000280737
0.00873211
0.0101317
0.00351328
0.00333929
0.00472685
0.0114838
0.00372908
0.00297464
0.00117321
0.010241
0.00524596
0.00268149
0.0100227
0.0043653
0.00536993
0.00457793
0.00754257
0.000599557
0.00412425
0.00396663
0.00308703
0.00296432
0.00458652
0.00464338
0.00567294
6.67761e-06
0.00316005
0.0114909
0.00535167
0.00658844
0.00339623
0.00699321
0.00216153
0.00200341
0.00271108
0.00355234
0.000911577
0.0027991
0.00325901
0.000724928
0.00539828
0.00786476
0.00714995
0.00359785
0.0104743
0.00825852
0.00378307
0.00205097
0.000260227
0.00417566
0.00193285
0.00411756
0.000585131
0.00339252
0.00363288
0.0012191
0.00337962
0.00494449
0.00954518
0.000318638
0.00615286
0.00689828
0.00675196
0.000622243
0.00446806
0.00268698
0.00289503
0.00206898
0.0020168
0.00350342
0.00538474
0.000308741
0.00167409
0.00111843
0.00540229
0.00393885
0.00759457
0.00160266
0.00182773
0.0061879
0.0053546
0.0012882
0.000261281
0.00509842
0.0046046
0.00199323
0.00301484
0.00396152
0.000618295
0.00754279
0.00145475
0.000837477
0.00110302
0.00371281
0.00906174
0.00178644
0.00925204
0.00809655
0.00548561
0.00129031
0.00367985
0.00522144
0.00280654
0.00183846
0.00351947
0.00196608
0.000204134
0.00055781
0.00531422
0.00199524
0.00430535
0.000997835
0.00393287
0.00154732
0.00611882
0.000842065
0.00912992
0.0100985
0.000354204
0.00910949
0.00415598
0.0119045
0.00816918
0.00424563
0.00571141
0.00303791
0.00407264
0.00632745
0.00948726
0.00468459
0.00232368
0.00527259
0.00180697
0.00311171
0.00206839
0.00353258
0.0052365
0.0045371
0.00636166
0.00192202
0.00593961
0.0101977
0.00566128
0.00779823
0.00898063
0.00302393
0.00426589
0.00335423
0.00276108
0.00130448
0.0028157
0.00275961
0.00179485
0.00369957
0.00883939
0.0120235
0.00272503
0.0107194
0.00878824
0.0103482
0.00357086
0.0103787
0.0018269
0.000298163
0.010146
0.0111643
0.00643552
0.00536695
0.00114955
0.000328609
0.000198454
0.00154531
0.00155259
0.000743776
0.0062339
0.00754354
0.0123835
0.00486419
0.00493549
0.00143015
0.00418202
0.000554147
0.00273831
0.00191005
0.00648011
0.000840508
0.0027689
0.00467632
0.00147117
0.00525141
0.00471057
0.0023252
0.00291966
0.00413996
0.000563533
0.00793014
0.00629153
0.00106823
0.00497089
0.000760762
0.00742138
0.000771972
0.00408965
0.00487215
0.00634917
0.00404763
0.00277146
0.00237707
0.000691667
0.000397231
0.00189037
0.000963239
0.00582961
0.00497694
0.00503716
0.00674627
0.00461565
0.00156568
0.00120758
0.0109136
0.00106104
0.00787383
0.00549401
0.000922106
0.0015589
0.00472734
0.00409016
0.00177084
0.00206557
0.00370807
0.00913482
0.00402794
0.00078119
0.00128531
0.00747567
0.00746009
0.00554668
0.00128738
0.00274906
0.00250047
0.00277797
0.00497462
0.00201726
0.00373108
0.00699841
0.00441856
0.00809233
0.00389985
0.000903057
0.00322332
0.00409737
0.00368537
0.0036827
0.0049077
0.00707292
0.00631933
0.00254455
0.000126703
0.000382227
0.000418417
0.0058424
0.00371775
0.00668951
0.000674705
0.0129249
0.0017505
0.00491797
0.0017385
0.00326584
0.000703314
0.004858
0.0045672
0.000544232
0.00415934
0.00698063
0.000661229
0.000264338
0.00155385
0.00194804
0.00552143
0.00871561
0.00199347
0.00202663
0.0139166
0.00448475
0.00245897
0.00033954
0.0013817
0.00144542
0.0038816
0.00192101
0.010149
0.0092212
0.00232334
0.00207071
0.00556054
0.00360524
0.000675553
0.000628064
0.00559275
0.000399629
0.00604689
0.000449793
0.000238588
0.00447879
0.00157817
0.000377705
0.000134956
0.000747851
0.00163016
0.00621403
0.000928054
0.000866447
0.00112799
0.00463218
0.00621302
0.000174255
0.00571964
0.000156145
0.000391031
0.00929632
0.00917516
0.00447628
0.00283009
0.0010122
0.00173144
0.00117762
0.00295043
0.00542984
0.00581696
0.00377709
0.00537796
0.00242503
0.000677056
0.00312912
0.00895298
0.00260508
0.0092453
0.00353604
0.000801637
0.000229742
0.00589027
0.00218056
0.00863182
0.00272274
0.00143944
0.00564124
0.000328072
0.00252517
0.0056198
0.00727392
0.00260402
0.00398442
0.004791
0.00477107
0.00313363
0.00209997
0.00428016
0.00814355
0.00056281
0.00961081
0.00119731
0.00885026
0.0108541
0.00331337
0.006478
5.85154e-05
0.00267465
0.000569537
0.00321554
0.00448632
0.00749324
0.0117433
0.00439029
0.000710593
0.000707535
0.00159024
0.000114106
0.00215249
0.00583984
0.00518357
0.00539567
0.000948869
0.00116837
0.00015716
0.00628692
0.00472864
0.00493909
0.000410717
0.00379191
0.00115705
0.0048752
0.00907256
0.00582033
0.000546341
0.0014011
0.00984095
0.00274594
0.00255471
0.0017662
0.00096537
0.0017419
0.00237953
0.00300905
0.00341006
0.002247
0.00529875
0.00459838
0.00513826
0.00677561
0.00231019
0.00710906
0.0054221
0.000849211
0.00167664
0.00238053
0.00139229
0.00236849
0.0019371
0.00276004
0.0040208
0.00205752
0.00372888
0.00472728
0.000553857
0.00087287
0.00204982
0.000688571
0.00338731
0.00540478
0.00446523
0.00459424
0.00310354
0.008535
0.00178781
0.00599477
0.000421942
0.00534946
0.00271703
0.00606587
0.00464933
0.0027853
0.00274958
0.00104232
0.00198615
0.000494268
0.00132234
0.000334106
0.00613791
0.00162058
0.00294207
0.00112391
0.00541877
0.0039611
0.0088125
0.000367394
0.000253075
0.00199853
0.00143973
0.00262145
0.00822501
0.00771119
0.00290625
0.000268723
0.00810668
0.00521499
0.0051678
0.0052485
0.0074
0.00563139
0.00516549
0.0106332
0.00703886
0.0033479
0.000618537
0.00161092
0.00346849
0.00207885
0.00184828
0.00371794
0.00626117
0.00506624
0.00140766
0.00700977
0.000326654
0.000863203
0.00164046
0.00394917
0.00435507
0.000141347
0.000525313
0.0046477
0.0135948
0.000842753
0.00182901
0.000265259
0.00583953
0.00767693
0.0048582
0.00423909
0.000457192
0.00298141
0.00565289
0.00304003
6.83615e-05
0.000825412
0.00111128
0.00254031
0.00318233
0.00919763
0.00231042
0.00704407
0.00540582
0.00485548
0.00895487
0.00493032
0.00164347
0.00305858
0.000885106
0.000206528
0.0028216
0.00122462
0.000882441
0.00173679
0.000854209
0.00169007
0.00105336
0.000215213
0.00464529
0.00236698
0.0106708
0.00823396
0.00465199
0.000793091
0.000183156
0.00283046
0.00564245
0.0001668
0.00285891
0.00261856
0.0016674
0.00146464
0.0013024
0.00610781
0.00478464
0.00194159
0.00617888
0.00483362
0.00124941
0.0029014
0.00103275
0.00192843
0.003369
0.00195162
0.00110801
0.00453807
0.000320027
0.00176169
0.0031504
0.00208877
0.00405198
0.00261609
0.000662209
0.00362883
9.50318e-05
0.00362463
0.00418959
0.00221388
0.00743946
0.00197084
0.00218391
0.00100457
0.00210294
0.00318013
0.00590177
0.000653245
0.00241435
0.00448508
0.000182005
0.000446508
8.6534e-05
0.00487879
0.00769333
0.0012105
0.00108559
0.000418885
0.000764111
0.00281384
0.00218872
0.00234667
0.00422199
0.000240142
0.00322927
0.0101252
0.00702325
0.000527585
0.000233173
0.00246778
0.00341996
0.00591003
0.00323126
0.000494182
0.00490531
0.00332808
0.00694081
0.000944123
0.00987289
0.00294809
0.00337158
0.0115241
0.00308483
0.0134646
0.0134247
0.00128241
0.00218487
0.00371202
4.89349e-05
0.00584013
0.000285304
0.00168109
0.00101776
0.00981549
0.000760811
0.00087361
0.00453423
3.42079e-05
0.00693055
0.00141878
0.00577547
0.000507274
0.0103558
0.00118061
0.0103548
0.00359095
0.0107638
0.000570861
0.0065548
0.00225905
0.00150286
0.00548628
0.000320407
0.000319178
0.00109928
0.00103732
0.00633312
0.000244421
0.00304412
0.00401776
0.00566352
0.0108525
0.00426277
0.0107443
0.00367284
0.00702534
0.00448662
0.00499949
0.00722081
0.00130756
0.00028502
0.00308879
0.00443109
0.00343791
0.00275923
0.00533813
0.00123197
0.00246931
0.00200266
0.00206538
0.0078986
0.00419107
0.00836745
0.00546522
0.00292783
0.00234532
0.000375042
0.000960065
0.00399855
0.000297207
0.00322495
0.00793917
0.00700494
0.00936156
0.000683753
0.00758381
0.00130711
0.00509807
0.00504951
0.00873123
0.00490405