/*--------------------------------*- C++ -*----------------------------------*\
| =========                 |                                                 |
| \\      /  F ield         | OpenFOAM: The Open Source CFD Toolbox           |
|  \\    /   O peration     | Version:  2212                                  |
|   \\  /    A nd           | Website:  www.openfoam.com                      |
|    \\/     M anipulation  |                                                 |
\*---------------------------------------------------------------------------*/
FoamFile
{
    version     2.0;
    format      ascii;
    arch        "LSB;label=32;scalar=64";
    class       volScalarField;
    location    "0";
    object      stateMean;
}
// * * * * * * * * * * * * * * * * * * * * * * * * * * * * * * * * * * * * * //

dimensions      [0 0 0 1 0 0 0];

internalField   nonuniform List<scalar> 
3200
(
344.455
344.083
342.512
343.469
346.388
345.239
345.763
345.646
346.887
350.099
348.527
347.469
347.705
346.959
345.671
343.118
342.552
340.945
344.31
340.466
337.367
335.496
339.235
336.502
339.497
339.381
341.457
342.195
341.429
342.392
339.096
342.955
340.968
342.962
341.17
337.805
336.383
336.645
336.408
334.423
331.914
332.945
332.298
332.147
331.971
333.027
336.311
334.162
335.589
335.262
333.925
333.915
333.066
334.3
335.574
332.194
332.049
334.337
332.101
329.849
325.464
324.108
326.854
325.291
329.886
325.179
326.613
329.266
328.642
326.778
328.458
325.983
327.619
326.595
327.438
325.156
328.216
326.248
324.56
324.25
319.027
320.553
320.323
321.122
319.027
322.19
322.677
320.578
321.523
323.404
321.964
320.935
320.557
323.481
323.525
320.231
319.203
318
319.359
319.021
314.877
312.294
316.944
314.01
314.827
315.241
315.269
315.303
314.842
315.661
317.152
316.779
315.21
314.325
315.803
314.02
312.017
316.605
312.859
314.403
308.525
309.784
309.745
308.926
309.134
308.235
308.385
309.85
309.544
309.856
309.877
311.951
308.433
308.871
309.794
311.463
308.991
309.128
310.042
310.025
302.511
302.883
304.679
304.14
305.085
304.535
302.263
301.877
303.964
304.705
303.348
299.112
303.5
302.27
300.575
303.305
303.451
303.326
302.866
299.854
342.161
342.999
344.375
347.001
347.373
348.293
347.421
348.432
349.192
346.983
348.397
347.394
348.057
348.451
347.116
345.505
345.007
342.214
340.613
341.497
337.967
337.484
341.527
340.892
339.062
343.195
341.465
345.318
342.124
346.597
345.117
341.608
344.253
341.961
343.492
339.314
340.122
338.681
337.923
336.976
332.034
329.819
333.626
332.79
335.333
335.852
335.467
336.077
335.19
335.478
334.424
335.789
337.59
333.565
334.42
333.011
334.692
333.168
334.74
330.685
323.262
324.968
325.916
324.299
328.007
328.729
328.432
329.841
329.347
329.115
329.145
328.708
327.135
327.867
327.173
327.716
325.85
328.236
325.225
326.829
321.595
319.077
322.459
319.662
321.013
324.429
322.956
320.006
322.163
323.117
323.902
322.582
322.745
321.231
320.451
320.114
322.655
321.342
319.784
317.169
315.118
316.76
314.73
315.031
315.189
314.587
314.155
314.544
315.376
317.018
317.423
316.934
315.998
316.999
317.257
318.528
315.878
315.327
312.44
316.061
311.023
310.441
308.093
308.556
309.518
310.598
309.039
308.192
311.046
310.071
309.238
309.429
309.438
310.4
308.572
306.969
309.402
310.319
308.09
306.755
306.039
304.855
301.655
301.152
303.303
305.096
303.031
302.703
305.884
302.218
302.876
301.539
302.836
303.576
303.944
306.27
303.606
302.181
302.171
304.814
343.146
344.278
347.923
346.667
349.573
348.674
349.126
350.276
348.046
349.572
349.037
348.805
349.67
345.453
348.322
343.805
347.449
345.246
344.203
342.521
337.86
338.651
341.07
341.226
338.747
344.408
342.278
343.315
342.989
343.804
343.168
343.38
341.687
341.638
343.357
338.138
338.508
338.755
336.687
339.347
334.382
332.833
332.105
334.707
333.332
333.883
335.891
334.759
336.274
336.36
334.012
336.173
338.995
337.516
334.191
335.932
333.15
333.774
331.523
332.095
324.859
326.336
328.409
329.47
330.111
327.383
330.219
328.276
331.416
329.388
329.788
328.429
331.377
328.712
329.716
327.26
328.134
325.248
326.445
323.357
321.493
320.297
321.728
322.047
322.85
322.082
323.555
325.066
323.777
323.992
323.721
320.474
322.081
322.037
321.978
321.274
320.465
319.889
320.439
319.248
314.521
315.821
316.937
317.192
315.242
316.602
317.383
315.525
316.685
317.166
316.747
316.218
315.984
315.49
315.899
313.128
317.005
314.983
313.512
314.93
306.026
310.181
309.752
307.503
309.755
309.315
312.183
311.414
311.784
310.853
310.286
308.59
309.453
305.519
308.691
309.307
309.288
308.022
308.332
309.986
303.413
305.707
303.529
302.983
302.765
304.084
303.971
303.853
300.822
307.483
303.136
303.093
303.285
303.109
302.42
303.337
302.366
300.141
302.555
304.517
343.667
345.477
345.909
347.137
349.001
348.3
350.634
352.358
349.998
347.993
347.712
353.953
348.09
349.729
346.783
348.721
344.655
344.869
345.872
344.046
339.381
338.56
339.667
341.198
344.111
343.289
346.52
344.916
342.332
345.841
346.216
344.241
345.788
341.557
342.797
340.661
340.96
338.674
338.566
340.639
335.081
333.478
333.757
335.793
335.249
334.863
335.437
334.98
338.958
335.755
338.593
337.78
334.716
336.213
335.106
335.246
332.528
331.577
329.68
331.434
325.803
329.788
330.567
327.702
328.679
329.577
330.646
331.104
330.352
328.723
331.087
329.024
330.766
333.338
328.064
329.19
328.382
325.635
327.062
327.378
322.28
321.901
322.784
319.679
322.991
326.257
323.923
321.808
323.301
324.889
323.656
322.259
324.795
323.445
322.712
320.567
320.769
321.951
319.71
321.239
316.75
316.331
315.664
315.154
318.748
317.756
316.926
317.756
319.273
316.013
318.848
316.549
315.94
317.074
316.029
318.03
314.135
314.78
314.87
314.912
308.48
310.1
310.091
309.652
311.302
309.816
309.898
309.226
311.379
308.304
309.661
309.186
310.097
310.711
308.791
309.331
307.025
309.619
308.466
305.934
303.498
302.622
302.956
305.199
301.157
302.589
302.862
303.201
303.512
303.323
302.121
303.83
301.314
306.176
302.273
302.203
302.942
304.925
303.312
301.524
348.039
347.829
348.739
349.136
350.197
350.257
349.253
354.637
351.402
353.773
349.085
349.631
352.853
351.65
350.911
350.43
347.266
348.413
344.899
344.334
340.579
340.385
339.506
342.539
344.814
343.686
342.165
342.826
342.469
345.41
345.409
345.939
346.258
342.199
342.654
344.243
342.175
340.594
338.072
339.226
335.923
334.299
334.116
339.5
337.437
337.084
335.953
339.646
338.658
338.387
336.963
337.902
336.032
336.484
334.77
334.71
334.165
336.817
333.604
332.139
328.307
328.627
328.772
328.394
331.013
329.336
329.43
332.501
332.802
331.639
330.135
328.748
329.8
330.497
328.767
328.361
327.172
326.975
327.107
328.212
320.649
322.604
322.264
322.041
320.948
323.952
326.731
324.14
324.414
324.343
323.886
322.677
325.045
322.474
322.391
323.323
323.22
323.539
323.38
321.757
316.807
315.858
315.767
316.301
318.611
317.288
316.204
317.02
318.87
317.73
317.012
316.892
316.333
314.252
315.115
316.959
316.708
315.685
315.233
313.846
307.558
309.974
311.365
311.09
310.439
310.846
311.989
310.611
311.308
311.089
308.968
311.809
311.137
310.846
311.412
308.862
310.379
310.968
310.477
308.685
303.846
303.492
303.48
304.473
303.217
304.173
300.173
304.856
303.465
303.052
303.493
303.753
305.697
303.721
304.647
302.554
300.285
302.07
300.42
302.985
348.252
350.298
347.868
351.301
349.902
352.293
352.233
353.19
350.347
354.824
351.798
353.763
353.423
354.196
349.074
346.033
348.076
349.455
345.582
342.742
343.628
341.788
342.172
340.685
343.516
343.649
345.01
344.79
346.498
345.814
346.499
342.914
345.44
343.729
342.836
343.625
340.681
341.392
339.242
340.591
335.711
332.465
335.036
335.902
335.462
339.792
340.483
339.7
337.251
340.718
338.373
337.571
339.058
339.07
339.587
336.335
334.278
334.305
332.364
332.62
329.448
329.861
330.545
329.298
330.899
331.65
332.187
334.269
331.075
329.168
330.264
331.5
331.098
331.948
330.768
329.034
330.151
327.517
326.87
326.939
323.02
320.864
321.714
324.769
323.348
323.528
323.351
327.238
324.842
321.213
323.769
322.658
322.497
326.068
324.069
324.726
322.328
322.941
322.258
323.323
315.403
315.213
315.546
319.363
319.125
315.869
318.588
317.925
318.451
318.919
317.757
316.962
317.929
316.488
316.1
317.981
316.073
317.039
317.042
314.758
307.58
311.074
309.443
309.589
310.073
310.986
310.793
310.892
312.201
310.749
310.794
309.889
309.092
310.502
309.553
311.278
314.361
308.824
309.773
310.03
302.492
302.091
303.439
305.453
304.314
303.605
305.062
303.345
304.903
305.073
304.74
302.49
303.913
304.466
302.867
303.272
301.752
302.082
302.805
305.093
350.176
349.423
350.294
352.935
353.53
352.579
355.202
352.133
354.406
354.241
355.543
354.459
352.555
351.187
350.636
351.266
349.872
348.701
346.248
346.96
340.327
342.519
341.309
342.119
345.225
345.474
344.774
345.225
345.628
348.095
347.986
346.714
346.4
344.868
344.642
343.814
342.712
341.829
339.819
340.126
337.067
336.463
335.518
338.676
335.318
339.421
337.104
337.496
340.336
340.966
339.648
339.398
340.063
339.626
338.111
338.863
335.054
333.411
335.593
333.641
330.296
328.918
329.377
329.388
333.976
331.162
331.401
332.415
333.271
332.353
332.356
331.709
332.344
332.115
330.468
331.534
330.764
329.232
326.921
330.416
325.121
324.279
322.759
322.641
325.217
324.927
324.038
326.263
325.897
323.462
325.639
323.901
326.894
323.887
324.006
323.597
321.71
320.906
323.85
320.801
315.073
315.504
316.808
314.351
318.991
315.383
318.994
317.694
316.393
317.941
316.985
317.842
318.062
317.457
319.291
314.097
316.473
316.001
316.178
315.033
310.269
310.427
307.224
311.733
310.544
310.993
309.667
310.709
310.216
312.949
311.708
311.726
312.493
309.827
310.336
311.75
311.034
310.206
311.088
309.886
305.993
302.986
301.965
302.881
305.794
300.964
303.896
301.733
305.14
301.965
303.909
303.394
302.771
304.887
302.306
303.588
306.113
303.545
300.495
304.419
351.512
348.526
351.425
350.196
353.864
355.341
354.168
356.774
352.057
355.507
356.958
355.609
352.612
351.404
353.508
352.009
351.133
349.661
349.539
348.188
339.388
342.453
343.871
343.077
345.823
343.97
346.09
345.975
348.31
346.506
346.517
350.006
345.156
343.318
344.828
346.538
341.535
344.159
340.132
342.796
334.694
335.029
339.345
337.729
338.338
339.572
339.502
341.042
338.004
340.137
338.645
339.385
337.806
340.229
337.66
341.248
338.695
338.33
334.871
335.436
329.6
329.738
332.965
329.348
331.56
330.578
332.643
331.827
331.49
331.766
332.036
332.088
332.133
332.229
331.866
332.017
330.342
328.33
328.756
327.459
322.212
324.367
322.06
325.959
323.901
323.197
324.948
323.707
326.755
323.75
328.56
325.072
324.379
325.666
326.378
324.001
325.433
322.116
322.959
322.218
316.631
315.683
316.535
318.845
318.132
316.168
319.969
319.634
315.691
317.711
319.265
320.218
319.419
314.968
315.251
319.869
316.521
315.094
315.34
316.231
311.053
310.024
307.779
309.092
312.089
308.601
311.775
309.652
310.751
309.619
309.783
310.734
310.793
309.513
308.595
312.216
312.522
306.971
310.604
309.053
304.516
303.979
304.302
306.503
302.915
305.99
304.624
303.534
301.985
305.307
303.48
305.976
305.326
304.942
302.186
303.235
302.206
303.89
301.006
302.822
351.086
351.451
352.359
350.796
354.152
354.748
353.993
354.365
356.604
353.315
356.737
354.946
356.229
353.907
353.892
352.179
353.856
350.222
348.331
350.047
342.912
346.712
344.668
345.367
347.79
345.08
347.578
348.22
345.032
347.82
347.895
346.12
349.814
347.096
342.736
346.489
344.638
341.721
341.105
341.098
332.432
337.149
338.056
338.38
338.592
341.492
339.061
339.567
341.468
339.302
341.882
342.039
338.171
338.048
337.808
338.999
339.42
335.917
338.317
337.563
328.441
327.647
330.55
332.177
332.783
334.252
330.331
335.042
334.383
335.218
333.686
330.286
333.059
333.012
333.811
329.95
331.073
332.218
329.681
329.179
324.363
324.817
325.309
325.266
324.957
325.582
325.087
325.111
324.237
325.358
326.141
324.024
325.202
327.231
325.048
324.243
323.309
323.521
323.232
323.33
317.514
316.468
318.131
316.483
321.66
319.252
319.492
317.377
320.135
316.743
321.88
318.82
317.136
316.35
318.83
318.156
316.152
317.604
319.329
315.171
309.239
308.256
310.112
310.806
312.454
309.948
311.19
311.52
311.166
309.157
310.26
310.188
309.602
311.29
311.427
312.812
311.586
311.395
308.575
310.086
303.108
302.336
303.705
303.684
303.257
303.637
303.329
305.127
303.192
302.599
306.742
302.724
303.94
302.698
304.968
302.179
301.043
302.855
304.485
303.604
352.444
351.345
354.393
356.441
355.712
354.855
354.049
353.692
355.793
353.958
356.546
354.23
354.54
355.703
352.774
354.189
354.329
351.384
346.691
348.902
344.403
344.885
344.946
344.55
346.825
345.054
346.534
345.825
348.386
347.266
346.582
349.511
345.831
346.435
345.039
345.073
342.917
343.081
341.418
343.554
338.505
337.14
339.156
341.021
339.405
341.734
341.647
342.356
340.19
341.922
340.983
338.121
341.274
340.06
337.368
339.136
339.738
338.297
335.204
335.377
332.883
331.869
331.012
333.549
333.241
331.354
329.74
333.297
334.318
332.923
333.427
334.738
334.528
333.312
333.749
333.436
331.245
331.326
329.407
328.333
322.164
323.769
324.494
323.664
324.933
326.434
326.295
324.268
325.606
324.652
325.476
328.188
326.786
327.599
327.068
324.334
321.055
324.406
323.451
324.622
312.714
316.631
315.234
316.422
318.546
318.018
320.239
319.258
318.219
316.793
320.806
317.941
317.779
319.702
316.776
318.173
316.602
313.923
316.119
317.013
310.153
310.035
312.232
311.019
310.991
311.283
312.013
311.393
312.279
310.696
310.938
310.616
311.604
310.645
311.584
308.536
310.769
308.997
311.083
309.674
302.005
302.477
303.694
302.789
303.887
303.601
303.612
303.65
303.909
304.893
307.038
303.422
305.441
302.707
302.249
302.451
304.943
302.046
301.933
303.081
352.573
354.133
354.516
353.864
354.686
355.335
353.979
355.224
356.471
356.3
356.57
357.719
356.716
356.706
353.944
353.082
355.059
350.012
352.05
348.641
343.238
343.077
344.592
345.738
345.573
345.643
350.803
346.539
349.158
346.547
347.549
348.532
346.745
345.318
345.599
347.655
343.472
343.812
341.827
342.835
337.56
335.607
341.255
339.596
340.481
340.744
342.156
342.796
341.922
341.993
340.635
339.609
342.76
340.149
341.336
341.115
338.514
342.747
338.972
335.483
329.738
331.224
331.189
334.665
332.897
333.691
335.738
334.465
332.907
332.187
332.541
333.311
333.774
333.071
332.784
331.994
331.758
329.73
331.922
330.716
324.371
325.724
324.008
323.786
326.51
326.523
329.437
325.492
327.004
328.739
327.403
329.04
326.814
326.544
325.362
323.82
325.736
323.572
324.025
322.215
318.426
316.601
316.91
319.205
319.429
316.467
319.407
320.479
318.073
321.688
320.007
320.757
318.459
320.029
316.899
319.385
317.456
316.921
314.356
317.665
309.065
308.981
310.168
312.297
310.92
310.765
311.645
310.407
311.564
310.165
313.65
311.543
313.876
309.768
309.625
309.39
311.073
311.727
307.652
308.153
301.999
303.241
305.6
303.574
305.064
304.293
301.084
304.565
303.445
304.708
301.457
305.321
304.949
303.713
303.989
304.112
302.425
307.874
305.503
306.029
351.972
354.377
352.987
354.181
355.413
355.026
355.75
357.424
358.175
359.152
358.744
360.346
358.158
357.566
358.77
351.615
354.211
352.859
351.261
350.029
344.656
345.78
345.372
346.394
349.293
346.215
349.658
349.532
350.201
351.01
349.869
350.719
351.635
347.936
347.286
348.956
346.409
345.159
345.706
343.763
337.209
337.527
338.28
339.556
337.492
342.101
341.437
341.626
342.292
343.152
341.015
342.838
341.748
342.962
341.582
338.857
341.006
336.139
336.902
335.471
331.345
331.742
333.619
333.394
334.052
333.047
335.246
333.265
334.63
334.723
333.739
334.321
334.962
334.442
333.141
332.057
334.281
333.117
331.798
329.989
324.276
323.916
325.481
325.166
325.541
325.929
326.242
324.135
327.731
327.299
330.09
326.351
327.122
325.96
322.961
325.403
325.932
323.551
325.413
323.315
317.074
317.192
317.877
318.069
317.358
315.298
318.651
317.652
320.208
319.448
319.707
319.684
316.894
318.484
319.965
315.084
316.82
318.269
317.087
312.967
309.901
308.164
311.506
310.014
311.374
308.646
312.248
313.117
313.273
310.209
312.038
311.789
311.473
312.186
311.031
309.01
310.952
310.249
310.219
309.242
301.297
305.024
302.982
304.04
302.496
304.361
303.206
304.47
304.273
301.08
301.925
302.855
300.405
304.865
302.482
304.687
303.35
304.237
303.585
304.05
350.771
353.676
355.186
355.192
356.732
357.167
357.766
356.009
358.421
358.748
357.633
356.739
357.332
354.369
357.234
355.609
354.388
352.115
348.388
349.98
347.744
345.056
345.479
346.522
349.964
346.36
348.527
348.192
352.51
348.586
348.038
352.621
347.532
347.201
347.023
347.188
344.512
344.549
344.245
340.342
338.856
339.75
342.564
343.548
342.272
343.188
340.147
343.421
344.18
339.675
342.011
339.117
344.358
341.32
340.576
339.413
341.893
339.603
338.166
333.439
331.585
332.278
332.482
333.955
332.134
333.757
334.104
332.08
334.325
334.985
335.004
335.228
333.11
333.836
336.205
333.711
333.639
332.091
332.814
330.858
322.814
324.616
325.248
324.181
325.76
326.261
325.747
327.522
328.504
328.365
327.207
329.355
328.453
324.28
325.868
324.936
323.122
324.723
325.071
323.273
317.847
318.119
317.611
318.568
319.333
321.048
318.133
320.373
320.738
320.758
318.409
319.964
319.27
319.155
317.355
318.403
316.383
318.932
316.869
317.302
309.73
311.869
309.125
312.868
311.169
311.389
312.878
312.728
311.54
311.259
312.765
312.572
311.682
311.891
309.59
310.479
308.168
310.798
310.453
309.735
302.252
306.166
302.927
306.331
306.035
305.294
304.064
304.826
305.32
304.599
303.189
304.803
304.305
303.61
303.797
305.19
302.917
302.162
303.114
302.185
352.071
354.271
353.132
356.81
357.889
354.865
358.828
357.554
360.659
359.506
358.107
358.452
357.156
357.037
357.237
357.672
355.238
353.655
350.259
350.892
345.765
345.904
347.033
348.271
348.664
349.891
348.867
350.689
352.472
351.044
351.79
352.047
347.564
349.683
348.845
346.131
346.005
346.785
346.143
345.311
339.093
341.246
342.852
338.401
343.504
343.351
344.326
342.373
344.948
342.159
341.433
344.869
344.964
342.992
342.187
339.47
339.438
338.712
337.733
337.318
330.737
333.38
334.245
336.303
331.009
334.68
333.872
335.081
333.706
334.912
333.359
336.055
333.406
334.318
334.593
332.138
330.445
330.179
332.085
330.017
325.456
324.552
327.275
327.093
325.041
327.326
326.234
328.633
326.624
327.79
328.046
328.444
327.532
325.083
326.481
325.614
325.177
325.314
324.057
322.225
318.817
319.017
319.798
316.436
318.644
318.757
322.05
318.397
321.36
320.66
319.202
319.346
317.228
319.876
318.937
317.489
319.082
320.557
316.139
316.99
310.756
308.143
308.289
312.479
310.501
310.183
311.936
310.39
312.872
311.987
310.197
313.502
312.63
308.64
312.251
311.182
311.757
309.333
309.32
311.5
301.983
301.361
305.473
302.832
303.692
303.816
303.867
305.548
302.667
301.776
304.013
307.723
304.305
305.234
304.228
302.662
303.819
302.08
302.122
303.307
351.598
356.078
354.037
354.859
355.062
356.924
358.738
360.315
358.221
358.391
362.644
359.111
358.08
356.889
356.722
356.129
356.331
354.952
350.021
349.811
346.828
347.2
348.983
348.896
348.453
348.97
351.17
349.454
351.975
349.839
349.912
351.426
349.042
349.349
348.798
348.478
347.076
344.896
346.161
345.724
338.586
340.921
341.94
340.27
342.764
341.213
341.527
345.159
345.344
343.852
343.289
342.55
341.388
342.063
342.273
342.666
342.309
341.113
337.524
339.79
332.127
333.249
335.579
332.141
336.489
332.596
334.367
334.283
336.515
335.369
337.528
333.633
333.879
335.984
333.886
334.249
331.138
335.02
333.074
330.58
326.384
323.512
324.347
326.369
327.39
328.939
326.35
329.877
326.488
329.847
330.502
327.962
324.62
326.553
325.409
325.809
326.732
326.827
322.627
321.013
316.353
317.688
317.906
317.852
318.543
318.098
320.827
320.763
317.489
319.567
319.637
319.161
321.115
317.456
317.209
318.71
317.151
318.499
316.364
320.631
312.471
310.932
310.456
307.967
312.015
312.079
311.942
311.179
312.084
310.831
312.51
312.603
312.18
309.742
309.853
309.562
313.135
311.61
312.971
308.979
303.833
303.099
302.928
303.274
303.022
303.195
302.98
305.07
303.244
302.746
305.316
304.037
304.113
304.442
303.574
304.77
305.338
305.007
305.003
302.633
351.709
354.602
357.975
356.613
355.154
356.647
360.274
360.158
357.764
357.917
359.278
358.05
358.668
358.576
357.738
354.872
355.885
354.795
354.838
352.815
346.09
344.823
348.539
349.038
350.169
350.456
349.453
353.593
353.65
350.046
351.16
353.789
352.537
352.182
348.115
346.885
346.985
346.611
344.19
345.02
341.325
340.325
340.427
340.248
342.584
341.647
341.361
340.773
344.858
342.741
345.63
343.232
343.216
342.073
340.928
343.362
341.384
341.155
338.953
335.561
333.178
332.569
333.449
331.96
336.837
332.978
333.475
334.976
334.292
337.273
336.397
335.315
335.406
334.523
333.754
333.207
330.839
332.766
330.831
331.097
324.019
322.899
327.703
325.849
325.667
326.636
327.22
328.257
327.862
327.815
326.957
327.741
327.886
327.497
326.855
328.183
327.158
322.615
323.134
324.085
318.047
318.394
317.748
317.058
319.005
320.157
318.569
320.068
319.158
319.257
321.626
321.155
318.915
321.379
317.701
319.457
319.782
318.321
317.838
319.371
310.386
311.429
309.792
311.428
310.9
312.542
311.006
310.472
310.974
312.024
312.95
311.82
312.865
312.963
310.87
309.132
310.714
310.524
310.771
311.647
304.651
301.924
303.954
303.064
302.475
303.93
304.044
303.908
305.435
301.624
304.33
303.622
303.807
304.14
304.73
304.503
304.51
302.474
303.789
302.704
352.908
354.471
357.343
358.015
359.528
357.915
357.452
358.762
359.99
358.527
361.493
357.668
359.585
356.027
358.084
357.434
353.971
356.429
352.171
351.732
349.451
350.155
351.169
350.377
348.784
351.367
351.052
351.587
355.613
351.997
351.957
350.559
351.957
349.206
351.765
348.807
350.538
346.247
348.98
345.389
340.255
338.124
342.011
340.375
342.246
342.872
341.821
344.073
344.032
343.856
343.877
346.321
344.047
344.753
344.768
341.078
338.903
340.747
338.131
340.227
331.606
332.712
332.867
332.462
334.769
335.604
334.732
337.468
337.281
337.128
337.995
336.539
335.149
335.097
336.201
332.559
333.476
331.741
332.384
332.974
327.185
326.74
326.559
325.829
327.295
328.684
325.227
325.695
325.035
328.389
325.676
327.678
326.321
326.175
324.766
325.786
327.034
324.844
322.619
323.79
317.982
316.021
319.074
317.567
317.393
320.586
319.453
318.527
320.12
318.611
320.159
318.282
319.458
320.495
318.272
317.411
319.818
318.084
315.918
316.714
313.543
313.289
310.109
312.538
312.427
313.835
311.222
311.323
312.795
312.686
311.182
311.107
314.409
311.065
311.53
310.47
310.652
310.386
313.799
308.899
304.156
304.877
302.456
304.685
307.239
304.055
306.623
299.839
302.827
303.089
305.189
303.924
305.202
302.874
303.942
302.725
304.889
304.697
302.789
305.133
352.187
355.067
357.338
358.891
358.207
355.857
356.307
358.583
359.216
358.503
361.7
357.919
358.337
358.46
358.611
356.354
356.095
356.209
354.116
349.075
346.972
346.133
345.251
346.912
349.645
352.798
351.733
351.309
348.83
350.492
353.98
350.667
351.029
350.818
349.473
349.64
349.548
348.501
345.455
345.061
339.743
340.076
342.446
342.557
343.419
341.703
341.019
343.419
342.108
341.602
344.876
343.881
344.62
342.359
343.014
339.828
341.577
340.576
337.887
337.908
333.047
331.777
333.021
334.227
336.117
334.22
334.389
335.187
335.208
335.77
336.152
333.745
336.974
336.202
331.72
331.162
331.528
334.778
334.285
330.804
324.302
324.797
325.195
324.718
326.568
326.237
326.891
328.062
330.476
328.357
328.287
328.028
326.755
326.588
327.127
326.332
325.04
322.319
324.902
324.533
318.313
315.927
316.699
321.926
319.628
318.926
320.784
319.325
319.641
319.729
320.111
319.279
320.054
319.494
318.113
318.863
318.121
317.106
317.846
314.294
311.797
310.85
311.555
312.7
311.619
311.25
312.027
311.575
310.594
311.971
311.176
312.717
310.869
308.912
313.363
312.861
311.356
311.541
309.22
310.804
301.738
302.309
301.48
301.727
305.169
301.847
305.241
301.676
300.454
303.459
305.643
302.455
300.65
302.104
301.057
304.385
301.907
301.301
304.344
304.72
352.585
354.294
353.43
355.971
358.67
359.403
358.751
359.127
359.504
360.984
357.82
358.122
360.347
358.47
357.12
356.533
355.323
355.56
354.217
350.504
348.396
352.947
348.018
354.219
349.604
353.717
351.002
354.474
353.394
354.286
354.103
352.386
354.878
352.311
353.59
350.996
352.325
348.092
350.847
345.257
338.475
339.526
342.419
338.5
344.427
343.452
345.347
343.924
344.656
342.388
347.384
343.133
345.449
343.389
344.018
340.609
343.25
338.487
335.968
337.538
334.515
331.914
330.776
334.72
334.288
335.51
333.569
336.348
334.642
336.226
335.928
334.257
333.404
335.583
333.772
334.364
333.901
334.919
333.001
331.102
325.348
325.84
325.396
328.14
326.952
329.311
329.468
326.789
327.792
328.507
327.779
325.666
329.511
327.403
330.014
325.889
323.619
325.852
323.971
324.448
318.086
318.176
319.118
318.905
320.375
320.3
320.538
320.06
321.093
321.471
320.52
319.84
321.37
319.32
319.953
317.744
321.106
317.134
317.345
314.533
311.409
313.886
312.646
310.567
310.407
309.732
311.358
309.589
310.982
309.613
311.052
311.882
312.922
312.537
311.093
311.838
312.301
309.833
308.299
310.255
303.161
304.844
303.082
302.241
304.564
303.331
304.485
303.982
304.695
303.039
302.074
300.835
305.026
303.892
301.302
304.788
301.785
303.605
303.828
301.686
354.127
354.899
356.242
354.611
357.814
359.474
360.232
361.254
359.219
358.334
361.155
360.075
359.578
358.874
357.792
357.776
356.484
353.631
353.238
351.206
346.328
346.329
350.011
348.476
350.182
350.682
353.025
350.318
350.3
350.238
352.704
351.188
350.516
351.166
348.086
350.051
348.933
350.64
347.675
345.76
339.093
339.542
341.351
338.082
340.854
346.288
343.133
346.896
342.612
345.29
344.268
343.001
341.239
343.157
344.859
340.525
341.881
342.615
341.526
339.457
332.629
333.783
333.377
333.579
333.294
332.803
334.441
334.103
336.093
336.759
338.871
335.538
337.114
337.237
336.51
333.677
332.626
331.931
330.2
333.5
327.064
326.83
325.835
324.101
327.863
329.083
327.485
326.806
328.037
328.038
327.986
327.179
329.074
326.648
324.48
325.431
324.873
323.987
323.375
324.831
317.5
320.798
317.625
319.394
319.856
317.867
320.365
320.809
321.049
319.756
318.583
320.277
319.353
318.935
318.228
320.831
319.484
317.285
317.788
321.198
312.508
310.391
311.05
309.472
310.762
310.389
311.961
311.341
312.702
313.736
309.295
312.424
312.989
310.453
311.3
309.181
312.379
309.899
310.623
310.698
304.006
303.059
304.332
305.117
303.755
303.81
304.714
305.749
305.431
305.043
303.847
302.251
304.953
304.928
302.429
305.527
302.861
302.152
303.257
303.606
)
;

boundaryField
{
    hotSide
    {
        type            fixedGradient;
        gradient        nonuniform List<scalar> 
400
(
321.511
322.87
325.591
329.677
335.133
341.965
350.181
359.788
370.794
383.208
397.037
412.289
428.971
447.088
466.647
487.651
510.105
534.011
559.372
586.191
323.738
325.08
327.767
331.802
337.194
343.949
352.078
361.591
372.498
384.81
398.537
413.687
430.268
448.289
467.755
488.672
511.043
534.872
560.161
586.913
326.149
327.47
330.116
334.091
339.406
346.071
354.099
363.503
374.296
386.491
400.101
415.136
431.606
449.52
468.885
489.706
511.988
535.735
560.948
587.63
328.704
330
332.597
336.503
341.73
348.292
356.205
365.485
376.15
388.215
401.695
416.604
432.954
450.753
470.009
490.73
512.919
536.579
561.714
588.325
331.33
332.599
335.142
338.97
344.099
350.546
358.332
367.477
378.003
389.928
403.271
418.047
434.27
451.949
471.095
491.712
513.807
537.382
562.439
588.978
333.918
335.158
337.643
341.389
346.414
352.74
360.392
369.397
379.779
391.562
404.765
419.407
435.503
453.065
472.101
492.618
514.622
538.114
563.096
589.569
336.321
337.531
339.959
343.622
348.544
354.751
362.274
371.142
381.385
393.031
406.101
420.618
436.595
454.047
472.983
493.409
515.33
538.747
563.663
590.076
338.36
339.543
341.92
345.509
350.339
356.44
363.847
372.595
382.718
394.244
407.2
421.608
437.485
454.844
473.695
494.045
515.897
539.253
564.114
590.478
339.852
341.015
343.352
346.885
351.645
357.665
364.985
373.643
383.675
395.113
407.984
422.312
438.116
455.407
474.197
494.491
516.294
539.606
564.428
590.758
340.643
341.795
344.11
347.613
352.334
358.311
365.584
374.193
384.176
395.567
408.393
422.679
438.443
455.699
474.456
494.722
516.498
539.788
564.589
590.901
340.643
341.795
344.11
347.613
352.334
358.311
365.584
374.193
384.176
395.567
408.393
422.679
438.443
455.699
474.456
494.722
516.498
539.788
564.589
590.901
339.852
341.015
343.352
346.885
351.645
357.665
364.985
373.643
383.675
395.113
407.984
422.312
438.116
455.407
474.197
494.491
516.294
539.606
564.428
590.758
338.36
339.543
341.92
345.509
350.339
356.44
363.847
372.595
382.718
394.244
407.2
421.608
437.485
454.844
473.695
494.045
515.897
539.253
564.114
590.478
336.321
337.531
339.959
343.622
348.544
354.751
362.274
371.142
381.385
393.031
406.101
420.618
436.595
454.047
472.983
493.409
515.33
538.747
563.663
590.076
333.918
335.158
337.643
341.389
346.414
352.74
360.392
369.397
379.779
391.562
404.765
419.407
435.503
453.065
472.101
492.618
514.622
538.114
563.096
589.569
331.33
332.599
335.142
338.97
344.099
350.546
358.332
367.477
378.003
389.928
403.271
418.047
434.27
451.949
471.095
491.712
513.807
537.382
562.439
588.978
328.704
330
332.597
336.503
341.73
348.292
356.205
365.485
376.15
388.215
401.695
416.604
432.954
450.753
470.009
490.73
512.919
536.579
561.714
588.325
326.149
327.47
330.116
334.091
339.406
346.071
354.099
363.503
374.296
386.491
400.101
415.136
431.606
449.52
468.885
489.706
511.988
535.735
560.948
587.63
323.738
325.08
327.767
331.802
337.194
343.949
352.078
361.591
372.498
384.81
398.537
413.687
430.268
448.289
467.755
488.672
511.043
534.872
560.161
586.913
321.511
322.87
325.591
329.677
335.133
341.965
350.181
359.788
370.794
383.208
397.037
412.289
428.971
447.088
466.647
487.651
510.105
534.011
559.372
586.191
)
;
    }
    coldSide
    {
        type            mixed;
        refValue        uniform 300;
        refGradient     uniform 0;
        valueFraction   uniform 0.991591;
        source          uniform 0;
        value           nonuniform List<scalar> 
400
(
300.021
300.051
300.029
300.029
300.032
300.021
300.05
300.038
300.026
300.017
300.017
300.011
300.019
300.017
300.032
300.039
300.035
300.015
300.027
300.034
300.024
300.041
300.048
300.022
300.029
300.018
300.025
300.033
300.02
300.021
300.027
300.042
300.052
300.011