/*--------------------------------*- C++ -*----------------------------------*\
| =========                 |                                                 |
| \\      /  F ield         | OpenFOAM: The Open Source CFD Toolbox           |
|  \\    /   O peration     | Version:  2212                                  |
|   \\  /    A nd           | Website:  www.openfoam.com                      |
|    \\/     M anipulation  |                                                 |
\*---------------------------------------------------------------------------*/
FoamFile
{
    version     2.0;
    format      ascii;
    arch        "LSB;label=32;scalar=64";
    class       volScalarField;
    location    "0";
    object      T;
}
// * * * * * * * * * * * * * * * * * * * * * * * * * * * * * * * * * * * * * //

dimensions      [0 0 0 1 0 0 0];

internalField   nonuniform List<scalar> 
3200
(
343.323
344.142
344.811
345.939
346.515
347.058
347.579
348.035
348.599
348.521
348.699
348.005
347.824
347.378
346.599
345.886
345.024
344.304
343.014
342.255
337.67
338.353
338.94
339.936
340.379
340.884
341.333
341.745
342.28
342.207
342.336
341.707
341.559
341.149
340.458
339.874
339.161
338.461
337.366
336.781
332.025
332.537
333.007
333.872
334.218
334.679
335.073
335.411
335.872
335.816
335.898
335.365
335.272
334.904
334.306
333.844
333.256
332.671
331.71
331.211
326.277
326.672
327.017
327.725
328.052
328.447
328.749
329.076
329.425
329.373
329.404
329.028
328.907
328.604
328.105
327.729
327.306
326.814
325.979
325.587
320.473
320.746
321.015
321.607
321.864
322.19
322.39
322.677
322.951
322.861
322.834
322.644
322.554
322.288
321.891
321.596
321.331
320.95
320.234
319.905
314.632
314.844
315.029
315.442
315.603
315.876
316.04
316.262
316.418
316.338
316.287
316.198
316.155
315.936
315.665
315.489
315.305
315.049
314.477
314.252
308.787
308.901
309.02
309.269
309.372
309.554
309.651
309.805
309.84
309.837
309.768
309.749
309.715
309.576
309.396
309.31
309.215
309.111
308.7
308.551
302.932
302.987
303.017
303.095
303.135
303.204
303.231
303.282
303.295
303.307
303.258
303.257
303.243
303.211
303.158
303.117
303.095
303.054
302.911
302.882
343.965
344.87
345.897
346.484
347.427
348.061
348.33
348.926
349.183
349.284
349.112
348.83
348.598
348.026
347.544
346.699
345.775
345.048
344
343.012
338.248
338.97
339.842
340.371
341.155
341.717
341.945
342.438
342.728
342.78
342.642
342.337
342.184
341.699
341.226
340.559
339.756
339.121
338.231
337.391
332.473
333.061
333.776
334.215
334.883
335.414
335.553
335.966
336.237
336.251
336.162
335.889
335.765
335.305
334.919
334.402
333.714
333.153
332.445
331.707
326.633
327.129
327.658
328.043
328.625
329.039
329.157
329.513
329.721
329.718
329.607
329.375
329.335
328.927
328.611
328.166
327.671
327.164
326.616
325.964
320.711
321.12
321.532
321.859
322.319
322.621
322.707
323.005
323.135
323.138
323.049
322.852
322.872
322.521
322.289
321.922
321.592
321.175
320.722
320.209
314.789
315.101
315.402
315.613
315.987
316.184
316.216
316.478
316.559
316.535
316.473
316.32
316.366
316.083
315.927
315.658
315.484
315.164
314.83
314.452
308.911
309.064
309.248
309.378
309.61
309.727
309.725
309.936
309.944
309.946
309.897
309.807
309.844
309.654
309.555
309.398
309.309
309.14
308.904
308.674
302.98
303.043
303.095
303.159
303.228
303.26
303.258
303.351
303.313
303.325
303.326
303.284
303.28
303.253
303.207
303.14
303.109
303.073
302.985
302.907
344.758
345.891
346.732
347.658
348.598
348.956
349.588
349.962
350.093
350.256
350.143
349.883
349.582
349.012
348.43
347.851
346.727
346.056
344.909
343.843
338.904
339.833
340.538
341.312
342.17
342.496
342.996
343.365
343.457
343.545
343.523
343.307
343.028
342.54
342.039
341.542
340.576
340.016
339.012
338.051
333.07
333.738
334.373
334.976
335.696
336.021
336.42
336.729
336.791
336.855
336.845
336.692
336.459
336.078
335.6
335.178
334.433
333.987
333.074
332.279
327.152
327.668
328.166
328.639
329.23
329.556
329.812
330.066
330.126
330.16
330.174
330.032
329.898
329.558
329.183
328.818
328.253
327.871
327.076
326.504
321.206
321.509
321.922
322.277
322.767
323.04
323.209
323.417
323.425
323.48
323.506
323.388
323.315
322.993
322.724
322.393
322.01
321.689
321.013
320.678
315.217
315.355
315.716
315.943
316.281
316.485
316.535
316.756
316.737
316.813
316.814
316.707
316.683
316.421
316.261
315.995
315.785
315.501
314.989
314.805
309.16
309.211
309.441
309.591
309.781
309.921
309.927
310.053
310.06
310.139
310.117
310.057
310.057
309.869
309.789
309.612
309.47
309.294
308.987
308.876
303.06
303.092
303.182
303.223
303.288
303.321
303.343
303.377
303.375
303.4
303.397
303.36
303.384
303.311
303.281
303.215
303.173
303.121
302.997
302.98
346.107
346.753
347.754
348.679
349.444
350.142
350.532
351.008
351.268
351.463
351.493
351.138
350.746
350.264
349.667
348.893
348.024
347.185
345.975
344.754
340.087
340.568
341.417
342.244
342.874
343.501
343.838
344.227
344.466
344.652
344.653
344.375
344.015
343.67
343.133
342.395
341.672
340.983
339.93
338.892
334.026
334.369
335.109
335.774
336.323
336.825
337.116
337.453
337.639
337.804
337.731
337.58
337.263
337.019
336.555
335.912
335.299
334.77
333.868
332.999
327.833
328.151
328.821
329.308
329.748
330.183
330.377
330.687
330.829
330.931
330.833
330.748
330.51
330.328
329.926
329.428
328.957
328.522
327.725
327.06
321.66
321.949
322.446
322.855
323.191
323.502
323.626
323.912
323.985
324.052
323.989
323.898
323.755
323.594
323.285
322.948
322.594
322.23
321.596
321.092
315.461
315.702
316.057
316.403
316.591
316.817
316.877
317.139
317.164
317.173
317.149
317.092
316.969
316.883
316.668
316.396
316.193
315.934
315.434
315.076
309.263
309.456
309.661
309.854
309.981
310.093
310.123
310.299
310.336
310.353
310.263
310.292
310.198
310.147
310.045
309.822
309.785
309.607
309.263
309.066
303.102
303.186
303.257
303.314
303.345
303.38
303.398
303.471
303.466
303.466
303.47
303.453
303.418
303.407
303.361
303.293
303.285
303.236
303.097
303.026
346.936
347.821
348.871
349.742
350.731
351.319
351.763
352.327
352.643
352.662
352.8
352.44
352.074
351.458
350.961
350.044
349.064
348.193
346.827
345.684
340.753
341.474
342.395
343.17
344.039
344.489
344.907
345.346
345.654
345.7
345.78
345.494
345.178
344.653
344.254
343.457
342.596
341.823
340.696
339.658
334.575
335.118
335.893
336.583
337.271
337.668
338.01
338.392
338.638
338.727
338.789
338.524
338.276
337.869
337.503
336.842
336.078
335.449
334.51
333.616
328.364
328.803
329.373
329.986
330.481
330.848
331.14
331.41
331.612
331.706
331.738
331.546
331.369
331.024
330.714
330.19
329.529
329.052
328.28
327.548
322.112
322.443
322.845
323.347
323.735
324.009
324.245
324.456
324.591
324.687
324.734
324.576
324.45
324.177
323.894
323.527
322.984
322.606
322.034
321.5
315.785
316.043
316.331
316.699
316.967
317.159
317.331
317.484
317.551
317.613
317.709
317.581
317.486
317.313
317.081
316.838
316.478
316.152
315.763
315.378
309.463
309.655
309.802
310.046
310.183
310.274
310.425
310.492
310.526
310.595
310.666
310.589
310.519
310.404
310.276
310.151
309.936
309.702
309.49
309.257
303.18
303.247
303.297
303.38
303.4
303.426
303.475
303.515
303.531
303.56
303.569
303.53
303.522
303.473
303.45
303.412
303.323
303.253
303.174
303.088
347.541
348.678
349.955
350.869
351.785
352.434
352.885
353.11
353.626
353.562
353.709
353.52
353.171
352.462
351.917
351.11
350.11
349.007
347.813
346.626
341.265
342.258
343.288
344.129
344.898
345.471
345.834
346.055
346.52
346.442
346.622
346.416
346.157
345.517
345.03
344.341
343.434
342.514
341.485
340.499
334.954
335.765
336.657
337.359
337.986
338.504
338.778
339.011
339.425
339.341
339.541
339.32
339.092
338.528
338.18
337.572
336.791
335.992
335.161
334.34
328.672
329.268
330.027
330.598
331.154
331.562
331.72
331.974
332.294
332.23
332.442
332.198
331.993
331.553
331.272
330.776
330.092
329.481
328.795
328.179
322.37
322.786
323.347
323.838
324.309
324.587
324.674
324.908
325.165
325.114
325.289
325.011
324.938
324.609
324.328
323.957
323.439
322.949
322.377
321.979
316.012
316.283
316.674
317.057
317.36
317.573
317.617
317.852
318.034
317.954
318.086
317.859
317.852
317.615
317.377
317.111
316.769
316.427
316.012
315.687
309.635
309.775
310.002
310.26
310.434
310.586
310.554
310.741
310.856
310.805
310.87
310.709
310.745
310.578
310.455
310.256
310.072
309.866
309.618
309.396
303.255
303.258
303.345
303.462
303.501
303.548
303.535
303.601
303.648
303.632
303.651
303.588
303.612
303.524
303.49
303.443
303.372
303.299
303.211
303.142
348.825
349.872
350.898
351.758
352.685
353.701
353.998
354.132
354.611
354.559
354.689
354.676
354.25
353.498
353.002
352.018
351.025
349.84
348.805
347.531
342.391
343.298
344.169
344.869
345.685
346.581
346.812
346.9
347.376
347.327
347.433
347.398
347.06
346.384
346.02
345.102
344.227
343.26
342.343
341.296
335.932
336.671
337.42
337.98
338.676
339.451
339.62
339.711
340.131
340.109
340.191
340.113
339.874
339.243
338.996
338.171
337.418
336.687
335.89
335.036
329.425
330.055
330.661
331.117
331.627
332.3
332.436
332.542
332.858
332.837
332.949
332.84
332.653
332.126
331.957
331.225
330.63
330.061
329.388
328.751
322.887
323.42
323.916
324.223
324.601
325.166
325.234
325.317
325.583
325.59
325.667
325.59
325.381
325.064
324.868
324.306
323.862
323.412
322.826
322.406
316.395
316.734
317.097
317.292
317.562
318.031
318.014
318.103
318.307
318.307
318.393
318.315
318.099
317.928
317.794
317.39
317.083
316.735
316.284
316.033
309.832
310.06
310.259
310.378
310.528
310.851
310.811
310.89
311.01
311.005
311.075
311.014
310.845
310.765
310.704
310.473
310.275
310.078
309.772
309.651
303.29
303.382
303.429
303.473
303.517
303.629
303.622
303.652
303.699
303.701
303.709
303.694
303.605
303.607
303.588
303.491
303.451
303.374
303.293
303.243
349.761
350.744
351.8
352.729
353.428
354.544
355.1
355.589
355.452
355.579
355.907
355.586
354.954
354.25
353.821
352.83
351.883
350.723
349.612
348.48
343.23
344.011
344.962
345.777
346.343
347.293
347.788
348.217
348.032
348.204
348.544
348.232
347.654
347.015
346.698
345.806
344.967
344.058
343.028
342.093
336.689
337.285
338.117
338.784
339.257
340.065
340.486
340.804
340.634
340.801
341.066
340.859
340.351
339.789
339.567
338.808
338.072
337.334
336.436
335.688
330.105
330.516
331.238
331.752
332.119
332.8
333.12
333.437
333.283
333.379
333.626
333.451
333.041
332.623
332.425
331.79
331.168
330.539
329.899
329.211
323.47
323.759
324.274
324.684
324.978
325.555
325.79
326.047
325.922
325.943
326.148
326.056
325.727
325.385
325.248
324.778
324.259
323.795
323.278
322.711
316.819
316.997
317.356
317.626
317.839
318.283
318.433
318.631
318.552
318.499
318.707
318.628
318.381
318.146
318.039
317.747
317.327
317.02
316.646
316.228
310.13
310.234
310.436
310.61
310.732
310.989
311.061
311.196
311.137
311.098
311.241
311.168
311.018
310.903
310.834
310.662
310.4
310.234
310.015
309.744
303.386
303.432
303.511
303.556
303.587
303.694
303.728
303.761
303.722
303.725
303.79
303.734
303.687
303.68
303.628
303.568
303.478
303.461
303.366
303.276
350.791
351.66
352.977
353.841
354.452
355.306
355.772
356.384
356.475
356.522
356.803
356.123
355.636
355.172
354.626
353.913
352.801
351.639
350.236
349.379
344.127
344.805
345.923
346.718
347.249
347.977
348.38
348.877
348.949
349.017
349.29
348.679
348.252
347.79
347.386
346.795
345.798
344.818
343.606
342.906
337.43
337.944
338.897
339.571
340.061
340.588
340.939
341.414
341.465
341.508
341.752
341.244
340.882
340.448
340.144
339.619
338.774
337.982
336.956
336.411
330.68
331.092
331.83
332.394
332.84
333.165
333.506
333.924
333.981
333.99
334.161
333.779
333.49
333.128
332.892
332.426
331.731
331.098
330.334
329.889
323.942
324.242
324.739
325.216
325.555
325.798
326.071
326.393
326.455
326.43
326.565
326.336
326.069
325.766
325.553
325.219
324.726
324.2
323.671
323.287
317.149
317.385
317.673
318.036
318.236
318.488
318.614
318.858
318.943
318.903
318.952
318.844
318.677
318.448
318.233
317.977
317.675
317.283
316.899
316.655
310.314
310.464
310.598
310.833
310.947
311.136
311.168
311.352
311.383
311.341
311.377
311.327
311.223
311.07
310.948
310.788
310.607
310.394
310.16
309.985
303.449
303.516
303.557
303.649
303.648
303.745
303.746
303.809
303.792
303.786
303.834
303.791
303.77
303.709
303.687
303.606
303.554
303.483
303.398
303.372
351.394
352.394
353.498
354.727
355.427
356.072
356.683
357.111
357.224
357.333
357.47
357.092
356.625
355.775
355.435
354.729
353.494
352.428
351.15
350.063
344.64
345.513
346.449
347.47
348.067
348.59
349.158
349.497
349.623
349.742
349.869
349.52
349.067
348.375
348.083
347.475
346.423
345.504
344.361
343.534
337.855
338.547
339.375
340.208
340.699
341.127
341.624
341.914
341.998
342.146
342.238
341.935
341.548
340.944
340.725
340.24
339.36
338.577
337.558
336.933
330.99
331.593
332.237
332.861
333.302
333.659
334.104
334.316
334.354
334.519
334.6
334.357
334.045
333.497
333.329
332.996
332.276
331.621
330.768
330.285
324.142
324.612
325.07
325.521
325.911
326.197
326.547
326.743
326.703
326.854
326.911
326.724
326.515
326.095
325.92
325.682
325.144
324.639
323.976
323.626
317.292
317.575
317.896
318.209
318.555
318.723
318.966
319.143
319.083
319.193
319.21
319.123
318.989
318.642
318.511
318.373
317.965
317.597
317.133
316.892
310.41
310.564
310.742
310.943
311.14
311.212
311.378
311.502
311.442
311.545
311.561
311.49
311.447
311.202
311.134
311.039
310.776
310.556
310.302
310.136
303.479
303.556
303.601
303.678
303.726
303.76
303.826
303.856
303.839
303.864
303.891
303.859
303.849
303.755
303.733
303.711
303.626
303.539
303.458
303.407
352.008
353.03
354.023
355.245
355.933
356.629
357.465
357.756
357.956
358.239
358.126
357.822
357.342
356.829
356.3
355.14
354.15
353.277
351.903
350.7
345.133
346.022
346.844
347.943
348.487
349.112
349.82
350.038
350.276
350.496
350.399
350.121
349.728
349.289
348.846
347.863
347.007
346.233
345.099
344.038
338.219
338.981
339.663
340.612
341.05
341.597
342.178
342.35
342.559
342.757
342.72
342.404
342.113
341.735
341.33
340.532
339.815
339.189
338.228
337.344
331.345
331.932
332.494
333.238
333.591
334.035
334.503
334.703
334.865
334.99
335.014
334.7
334.464
334.143
333.831
333.204
332.65
332.149
331.305
330.647
324.436
324.849
325.282
325.872
326.135
326.516
326.858
327.004
327.144
327.215
327.285
327.014
326.785
326.569
326.352
325.873
325.42
325.034
324.325
323.877
317.522
317.72
318.082
318.483
318.69
318.978
319.218
319.309
319.386
319.445
319.497
319.314
319.127
318.978
318.86
318.475
318.156
317.924
317.351
317.101
310.555
310.628
310.896
311.106
311.243
311.397
311.537
311.601
311.635
311.666
311.712
311.581
311.512
311.419
311.304
311.119
310.926
310.779
310.438
310.295
303.556
303.552
303.644
303.736
303.769
303.809
303.852
303.89
303.888
303.908
303.926
303.883
303.873
303.848
303.786
303.736
303.656
303.645
303.509
303.465
352.627
353.791
354.69
355.743
356.51
357.329
358.147
358.429
358.709
358.917
358.814
358.41
358.138
357.447
356.851
355.882
354.924
353.696
352.598
351.241
345.74
346.651
347.402
348.347
348.946
349.669
350.442
350.674
350.91
351.115
350.975
350.595
350.379
349.837
349.324
348.461
347.622
346.622
345.694
344.524
338.803
339.442
340.156
340.969
341.383
342.021
342.711
342.923
343.083
343.295
343.133
342.813
342.626
342.231
341.747
341.026
340.314
339.521
338.762
337.756
331.772
332.228
332.875
333.577
333.864
334.362
334.966
335.139
335.261
335.47
335.317
335.027
334.856
334.596
334.184
333.616
332.997
332.387
331.78
330.963
324.74
325.007
325.58
326.132
326.366
326.689
327.195
327.316
327.432
327.637
327.472
327.294
327.087
326.914
326.613
326.176
325.703
325.221
324.732
324.156
317.666
317.849
318.266
318.655
318.866
319.06
319.446
319.499
319.616
319.769
319.628
319.507
319.311
319.253
319.016
318.705
318.371
317.989
317.627
317.272
310.613
310.709
311.005
311.223
311.35
311.442
311.691
311.699
311.754
311.885
311.789
311.731
311.588
311.484
311.436
311.259
311.05
310.811
310.587
310.376
303.575
303.586
303.693
303.757
303.802
303.838
303.906
303.929
303.937
303.994
303.934
303.929
303.9
303.855
303.836
303.767
303.701
303.615
303.541
303.478
353.089
354.005
355.023
356.247
357.071
357.778
358.716
359.008
359.272
359.513
359.153
359.131
358.823
358.058
357.462
356.504
355.451
354.278
353.184
351.74
346.111
346.85
347.731
348.783
349.466
350.065
350.905
351.136
351.4
351.597
351.288
351.313
350.997
350.382
349.847
349.045
348.105
347.13
346.179
344.899
339.102
339.666
340.424
341.333
341.909
342.401
343.123
343.261
343.496
343.645
343.415
343.424
343.149
342.689
342.241
341.565
340.775
339.934
339.132
338.129
331.989
332.489
333.074
333.884
334.337
334.747
335.319
335.408
335.62
335.752
335.551
335.535
335.278
334.984
334.632
334.012
333.399
332.751
332.05
331.289
324.876
325.309
325.752
326.398
326.744
327.061
327.47
327.528
327.698
327.874
327.699
327.636
327.375
327.172
326.991
326.484
326.004
325.541
324.936
324.362
317.777
318.111
318.365
318.92
319.18
319.375
319.609
319.657
319.796
319.972
319.82
319.745
319.524
319.425
319.305
318.954
318.579
318.225
317.816
317.436
310.669
310.876
311.026
311.379
311.557
311.628
311.766
311.804
311.896
312.03
311.922
311.879
311.701
311.646
311.621
311.393
311.168
310.948
310.718
310.444
303.59
303.632
303.718
303.82
303.87
303.918
303.933
303.969
303.998
304.021
304.016
303.974
303.916
303.912
303.892
303.825
303.748
303.677
303.593
303.484
353.12
354.361
355.549
356.765
357.535
358.427
359.102
359.494
359.727
359.873
359.654
359.623
359.135
358.457
357.836
357.126
355.944
354.464
353.603
352.099
346.036
347.131
348.202
349.249
349.867
350.661
351.276
351.577
351.785
351.906
351.727
351.694
351.225
350.732
350.14
349.614
348.53
347.227
346.553
345.169
338.985
339.879
340.844
341.69
342.243
342.861
343.449
343.679
343.886
343.962
343.824
343.776
343.359
342.963
342.446
342.028
341.146
339.976
339.487
338.268
331.961
332.635
333.477
334.095
334.624
335.107
335.585
335.785
335.953
336.039
335.884
335.816
335.461
335.157
334.762
334.421
333.682
332.74
332.39
331.354
324.901
325.385
326.063
326.513
326.989
327.322
327.733
327.876
328.024
328.107
327.933
327.873
327.591
327.371
327.08
326.81
326.222
325.51
325.218
324.422
317.821
318.147
318.667
318.959
319.297
319.534
319.841
319.904
320.059
320.123
319.993
319.903
319.715
319.527
319.394
319.177
318.739
318.259
318.02
317.483
310.719
310.904
311.211
311.413
311.591
311.748
311.953
311.969
312.083
312.099
312.028
311.962
311.849
311.709
311.678
311.545
311.253
310.982
310.801
310.519
303.599
303.666
303.766
303.843
303.896
303.952
304.011
304.033
304.065
304.064
304.035
304.012
303.984
303.916
303.933
303.878
303.756
303.694
303.627
303.544
353.673
354.653
355.95
356.913
357.948
358.983
359.677
359.995
359.859
360.258
359.992
360.029
359.484
358.884
358.239
357.359
356.156
354.92
353.871
352.51
346.605
347.419
348.511
349.355
350.237
351.157
351.766
351.994
351.931
352.188
352.006
352.05
351.569
351.087
350.541
349.736
348.7
347.59
346.757
345.624
339.485
340.171
341.04
341.815
342.54
343.331
343.817
343.976
343.971
344.151
344.038
344.05
343.655
343.214
342.805
342.085
341.243
340.297
339.603
338.705
332.367
332.873
333.59
334.285
334.84
335.484
335.893
335.997
336.045
336.123
336.033
336.073
335.723
335.411
335.057
334.431
333.762
332.998
332.436
331.772
325.239
325.602
326.146
326.724
327.136
327.61
327.945
328
328.074
328.125
328.05
328.086
327.756
327.56
327.295
326.811
326.226
325.707
325.234
324.769
318.062
318.307
318.678
319.143
319.39
319.765
319.966
320.014
320.083
320.142
320.067
320.086
319.843
319.729
319.528
319.176
318.701
318.389
318.049
317.738
310.868
311.008
311.223
311.519
311.653
311.885
311.989
312.009
312.072
312.129
312.113
312.062
311.942
311.874
311.74
311.571
311.24
311.083
310.854
310.686
303.654
303.695
303.757
303.868
303.916
303.997
304.027
304.019
304.058
304.059
304.066
304.04
304.004
304.004
303.928
303.887
303.776
303.697
303.643
303.573
354.199
354.947
356.275
357.482
358.397
359.151
359.914
359.996
360.306
360.693
360.328
360.067
359.688
359.181
358.449
357.546
356.617
355.318
353.977
352.588
347.07
347.707
348.82
349.844
350.672
351.332
351.958
352.013
352.26
352.588
352.304
352.1
351.749
351.332
350.718
349.907
349.1
348.033
346.791
345.705
339.89
340.402
341.311
342.21
342.912
343.501
343.989
343.996
344.243
344.452
344.312
344.12
343.788
343.476
342.952
342.2
341.583
340.729
339.598
338.813
332.694
333.061
333.793
334.57
335.142
335.64
336.043
335.971
336.245
336.366
336.306
336.123
335.819
335.613
335.193
334.508
334.073
333.416
332.416
331.84
325.443
325.764
326.277
326.929
327.307
327.727
328.071
327.937
328.244
328.263
328.252
328.136
327.836
327.736
327.402
326.901
326.496
326.007
325.197
324.831
318.217
318.427
318.781
319.255
319.48
319.826
320.115
319.961
320.219
320.189
320.204
320.103
319.899
319.823
319.602
319.235
318.914
318.6
318.021
317.762
310.935
311.087
311.286
311.551
311.692
311.878
312.085
311.994
312.175
312.119
312.147
312.101
311.959
311.951
311.762
311.553
311.371
311.188
310.833
310.668
303.689
303.731
303.762
303.876
303.923
303.983
304.055
304.022
304.104
304.054
304.094
304.07
303.996
303.997
303.939
303.865
303.811
303.742
303.637
303.564
354.234
355.206
356.513
357.662
358.758
359.237
359.896
360.165
360.284
360.829
360.64
360.274
359.791
359.133
358.677
357.473
356.695
355.333
354.105
352.66
347.08
347.891
349.027
349.988
350.943
351.406
351.958
352.163
352.255
352.753
352.575
352.276
351.863
351.231
350.861
349.825
349.187
348.002
346.957
345.743
339.892
340.614
341.528
342.321
343.125
343.537
343.95
344.177
344.248
344.683
344.513
344.27
343.935
343.396
343.023
342.225
341.666
340.657
339.817
338.794
332.672
333.31
333.997
334.632
335.278
335.658
335.969
336.132
336.236
336.605
336.444
336.276
336.019
335.553
335.16
334.638
334.121
333.28
332.636
331.794
325.443
325.923
326.455
326.943
327.473
327.767
327.991
328.136
328.213
328.53
328.379
328.207
328.071
327.697
327.341
326.975
326.583
325.893
325.447
324.812
318.246
318.514
318.947
319.278
319.67
319.883
320.035
320.138
320.169
320.378
320.315
320.179
320.098
319.821
319.547
319.278
319.002
318.507
318.196
317.786
310.982
311.077
311.397
311.565
311.805
311.954
312.058
312.118
312.122
312.215
312.22
312.135
312.099
311.91
311.726
311.585
311.421
311.163
310.946
310.721
303.681
303.701
303.819
303.873
303.947
304.005
304.034
304.064
304.062
304.105
304.121
304.077
304.067
304.003
303.934
303.886
303.828
303.736
303.688
303.603
354.056
355.208
356.708
357.402
358.664
359.452
359.812
360.482
360.663
360.827
360.835
360.411
359.964
359.335
358.593
357.564
356.419
355.099
354.214
352.684
346.897
347.872
349.193
349.776
350.834
351.548
351.871
352.448
352.6
352.75
352.767
352.432
352.004
351.453
350.783
349.947
348.922
347.8
347.073
345.75
339.751
340.544
341.663
342.111
343.041
343.609
343.912
344.38
344.553
344.673
344.661
344.443
344.035
343.581
342.98
342.314
341.444
340.525
339.851
338.752
332.57
333.211
334.104
334.497
335.26
335.669
335.933
336.327
336.487
336.63
336.593
336.404
336.08
335.7
335.192
334.664
333.971
333.2
332.633
331.727
325.341
325.859
326.542
326.867
327.428
327.731
327.958
328.292
328.385
328.56
328.485
328.29
328.086
327.791
327.427
326.98
326.444
325.875
325.401
324.645
318.099
318.523
318.963
319.234
319.544
319.821
319.992
320.281
320.3
320.429
320.359
320.206
320.082
319.851
319.621
319.296
318.878
318.495
318.167
317.585
310.898
311.118
311.364
311.564
311.726
311.903
312.033
312.163
312.177
312.288
312.249
312.109
312.075
311.938
311.817
311.629
311.386
311.111
310.926
310.53
303.661
303.73
303.812
303.851
303.936
303.99
304.037
304.072
304.084
304.109
304.11
304.051
304.035
304.011
303.957
303.907
303.813
303.734
303.669
303.518
353.917
355.132
356.328
357.45
358.4
359.348
359.874
360.209
360.673
360.832
360.8
360.416
359.929
359.182
358.375
357.585
356.457
355.034
354.072
352.625
346.754
347.812
348.883
349.874
350.653
351.481
351.926
352.19
352.619
352.714
352.71
352.383
351.976
351.328
350.576
349.935
348.988
347.785
346.982
345.707
339.606
340.511
341.434
342.201
342.881
343.612
343.963
344.203
344.525
344.602
344.625
344.375
343.992
343.438
342.801
342.3
341.501
340.471
339.871
338.752
332.459
333.179
333.942
334.513
335.087
335.72
335.975
336.169
336.45
336.547
336.487
336.362
335.999
335.559
335.063
334.642
334.023
333.168
332.726
331.73
325.29
325.838
326.437
326.858
327.285
327.82
327.964
328.193
328.404
328.454
328.385
328.284
328.056
327.669
327.306
326.952
326.467
325.811
325.513
324.658
318.091
318.466
318.875
319.183
319.498
319.846
319.986
320.191
320.323
320.36
320.283
320.211
320.073
319.769
319.555
319.242
318.933
318.413
318.239
317.564
310.863
311.125
311.341
311.553
311.716
311.923
311.981
312.163
312.196
312.247
312.21
312.16
312.068
311.874
311.78
311.532
311.391
311.021
310.97
310.527
303.646
303.714
303.782
303.886
303.918
303.983
303.995
304.086
304.1
304.114
304.074
304.077
304.046
303.967
303.977
303.867
303.817
303.692
303.679
303.519
353.726
354.904
356.237
357.577
358.312
359.145
359.837
360.437
360.65
360.778
360.651
360.219
359.649
358.981
358.516
357.665
356.56
355.142
354.021
352.637
346.632
347.649
348.766
349.974
350.592
351.327
351.864
352.364
352.529
352.671
352.598
352.216
351.703
351.132
350.726
350.004
349.036
347.823
346.89
345.71
339.554
340.401
341.293
342.37
342.859
343.477
343.859
344.307
344.439
344.571
344.513
344.223
343.791
343.288
342.966
342.328
341.475
340.539
339.726
338.712
332.448
333.12
333.81
334.7
335.105
335.576
335.895
336.266
336.352
336.477
336.432
336.236
335.858
335.437
335.156
334.611
333.92
333.238
332.544
331.64
325.275
325.801
326.322
327.026
327.319
327.68
327.883
328.238
328.276
328.416
328.368
328.229
327.888
327.542
327.336
326.897
326.4
325.851
325.352
324.57
318.09
318.447
318.851
319.324
319.503
319.773
319.903
320.185
320.199
320.306
320.27
320.153
319.946
319.63
319.56
319.22
318.856
318.508
318.133
317.549
310.87
311.084
311.36
311.633
311.69
311.884
311.923
312.117
312.151
312.201
312.187
312.079
311.993
311.778
311.754
311.552
311.335
311.135
310.919
310.526
303.636
303.7
303.795
303.898
303.906
303.987
303.986
304.025
304.1
304.113
304.076
304.043
304.036
303.957
303.926
303.862
303.806
303.743
303.665
303.537
)
;

boundaryField
{
    hotSide
    {
        type            fixedGradient;
        gradient        nonuniform List<scalar> 
400
(
442.823
455.559
467.871
479.705
491.007
501.723
511.802
521.197
529.859
537.746
544.818
551.039
556.374
560.796
564.282
566.811
568.369
568.947
568.541
567.151
454.881
467.971
480.627
492.792
504.41
515.428
525.793
535.454
544.364
552.478
559.754
566.156
571.65
576.205
579.798
582.409
584.022
584.628
584.223
582.807
465.718
479.126
492.09
504.552
516.455
527.744
538.364
548.264
557.396
565.713
573.174
579.739
585.374
590.049
593.739
596.423
598.085
598.717
598.313
596.874
475.263
488.95
502.184
514.907
527.06
538.586
549.43
559.541
568.867
577.363
584.985
591.693
597.452
602.232
606.006
608.755
610.461
611.115
610.712
609.252
483.454
497.38
510.845
523.79
536.155
547.884
558.92
569.21
578.702
587.35
595.109
601.939
607.804
612.673
616.519
619.322
621.064
621.737
621.334
619.856
490.242
504.363
518.018
531.145
543.686
555.581
566.774
577.21
586.838
595.61
603.481
610.411
616.362
621.303
625.208
628.055
629.827
630.514
630.11
628.617
495.587
509.86
523.661
536.93
549.606
561.63
572.944
583.493
593.226
602.094
610.052
617.057
623.075
628.072
632.021
634.9
636.694
637.391
636.986
635.479
499.46
513.839
527.744
541.113
553.883
565.997
577.396
588.025
597.831
606.765
614.782
621.841
627.903
632.938
636.917
639.818
641.626
642.328
641.92
640.402
501.842
516.283
530.247
543.672
556.497
568.661
580.108
590.781
600.628
609.599
617.649
624.736
630.823
635.877
639.871
642.783
644.596
645.299
644.887
643.36
502.723
517.18
531.159
544.598
557.436
569.612
581.069
591.752
601.607
610.585
618.64
625.731
631.821
636.877
640.871
643.781
645.591
646.29
645.873
644.339
502.104
516.531
530.48
543.891
556.7
568.849
580.28
590.937
600.768
609.723
617.757
624.828
630.899
635.938
639.917
642.815
644.614
645.304
644.88
643.341
499.993
514.345
528.222
541.561
554.301
566.384
577.751
588.349
598.123
607.026
615.011
622.038
628.07
633.075
637.025
639.898
641.678
642.354
641.922
640.381
496.409
510.642
524.402
537.628
550.26
562.238
573.506
584.009
593.696
602.517
610.428
617.388
623.36
628.312
632.218
635.056
636.809
637.467
637.025
635.484
491.379
505.449
519.05
532.123
544.606
556.443
567.577
577.953
587.521
596.232
604.043
610.912
616.804
621.688
625.536
628.328
630.046
630.682
630.23
628.69
484.937
498.802
512.204
525.084
537.382
549.041
560.006
570.223
579.642
588.217
595.903
602.66
608.453
613.251
617.028
619.764
621.441
622.051
621.588
620.052
477.128
490.748
503.911
516.56
528.636
540.083
550.846
560.874
570.117
578.528
586.066
592.69
598.366
603.063
606.757
609.426
611.056
611.636
611.161
609.633
468.004
481.34
494.227
506.609
518.429
529.631
540.162
549.971
559.011
567.235
574.601
581.073
586.614
591.197
594.795
597.39
598.966
599.513
599.027
597.509
457.626
470.642
483.218
495.299
506.83
517.756
528.026
537.59
546.401
554.414
561.589
567.889
573.281
577.735
581.228
583.74
585.257
585.769
585.272
583.767
446.064
458.726
470.958
482.707
493.918
504.54
514.522
523.815
532.374
540.156
547.121
553.233
558.459
562.773
566.151
568.573
570.026
570.501
569.994
568.505
433.396
445.672
457.531
468.918
479.783
490.074
499.743
508.743
517.029
524.559
531.296
537.205
542.254
546.416
549.67
551.996
553.382
553.819
553.302
551.834
)
;
    }
    coldSide
    {
        type            mixed;
        refValue        uniform 300;
        refGradient     uniform 0;
        valueFraction   uniform 0.991591;
        source          uniform 0;
        value           nonuniform List<scalar> 
400
(
300.025
300.025
300.026
300.026
300.027
300.027
300.028
300.028
300.029
300.029
300.03
300.03
300.03
300.03
300.031
300.031
300.031
300.031
300.031
300.031
300.025
300.026
300.026
300.027
300.027
300.027
300.028
300.029
300.03
300.03
300.03
300.03
300.031
300.031
300.031
300.031
300.031
300.031
300.031
300.031
300.025