/*--------------------------------*- C++ -*----------------------------------*\
| =========                 |                                                 |
| \\      /  F ield         | OpenFOAM: The Open Source CFD Toolbox           |
|  \\    /   O peration     | Version:  2212                                  |
|   \\  /    A nd           | Website:  www.openfoam.com                      |
|    \\/     M anipulation  |                                                 |
\*---------------------------------------------------------------------------*/
FoamFile
{
    version     2.0;
    format      ascii;
    arch        "LSB;label=32;scalar=64";
    class       volScalarField;
    location    "./ITHACAoutput/true/0.6";
    object      error;
}
// * * * * * * * * * * * * * * * * * * * * * * * * * * * * * * * * * * * * * //

dimensions      [0 0 0 1 0 0 0];

internalField   nonuniform List<scalar> 
3200
(
-5.09443
-1.98437
-1.18985
1.30409
2.41316
2.81798
2.83508
4.15608
4.15442
4.53107
4.50661
4.82567
2.64403
4.4284
2.05836
5.54404
1.83554
1.40896
-0.822813
-1.45297
-4.55956
-0.0679808
1.69444
3.59851
0.236478
1.58961
5.04855
3.60407
2.44707
3.04244
2.67521
3.18015
1.562
5.7237
4.09601
3.42942
2.12461
0.154286
-0.190274
-0.222687
0.042226
-1.65026
-1.36854
2.30848
1.50525
3.55916
3.10824
3.94286
1.28704
3.24533
4.31495
2.5855
2.84446
1.75736
0.966964
2.04426
1.47934
-0.878125
-0.300435
-2.1725
0.4062
-1.40377
-0.676478
-1.36138
0.121458
1.83254
2.28118
5.10894
0.962038
3.7822
3.61548
2.33113
2.68288
2.28404
0.663751
1.48305
-1.01532
-0.358839
-1.59522
-1.58504
-0.940628
0.902538
1.69621
0.656086
1.50264
-0.779469
1.61369
1.58562
1.01182
1.00298
0.255312
-0.902945
2.34569
3.81351
-0.451769
-0.222683
0.888234
0.0821057
-1.15767
-0.483514
-2.22758
-0.586719
-0.637372
-0.900294
0.368935
1.70131
0.102442
2.166
1.44814
0.0436919
1.72308
3.21841
0.709283
0.721489
1.06381
3.56622
-1.49768
0.442625
-2.5579
-1.46652
0.219566
-3.22579
-1.06709
1.03013
1.67794
-0.315504
2.04486
-0.19488
2.10855
-0.0987479
3.43683
2.60389
0.79197
1.04016
0.697092
-1.34968
1.35353
-0.0243073
-1.53092
-1.25546
-0.485682
1.51752
-0.112139
0.0371227
1.13776
0.420519
-0.102965
0.434254
0.560522
0.64424
1.41148
0.5481
0.919108
0.997344
-1.12461
-0.0242308
-0.564028
0.30137
0.793987
-1.56692
-3.82688
-2.1381
0.187126
1.46118
-0.293735
4.31693
4.07236
2.90841
3.92772
4.25256
7.09898
1.39171
2.61104
1.131
0.777143
1.07362
2.72948
0.547618
-3.21051
0.329538
-3.01781
-0.591753
0.239657
0.858006
2.03454
0.279689
0.624333
0.289866
2.89641
-0.0357644
0.66682
3.79916
0.422468
2.94689
0.423844
0.100419
0.680855
-0.60837
-0.00430268
-1.47096
-1.46868
-1.45127
-0.804801
-0.0515444
4.06624
3.43607
2.63911
2.37645
2.68502
4.0007
3.73369
2.72882
2.89315
2.61141
1.00682
3.98406
3.19835
-1.07467
1.11428
-4.05067
-2.14915
-1.02759
-2.28234
0.918589
0.507564
0.860481
1.64644
2.46415
2.51625
3.1637
2.48771
3.06588
1.30828
2.31915
2.28113
0.39494
0.593923
0.527559
0.311258
-1.51403
-0.824813
-1.40321
1.20771
-0.57224
1.47013
-0.112445
1.61147
3.33739
3.88332
0.542029
3.15097
1.65602
-0.617433
2.37853
1.39745
2.35263
0.560153
2.767
-2.10822
-0.538408
-1.48676
0.908146
1.14786
0.144525
3.0683
1.15008
1.69732
-0.445194
0.713423
-0.235093
-0.939931
1.71814
1.45054
1.45815
0.446284
0.56956
0.762801
1.47584
-1.81701
-1.01543
0.710885
-0.151381
1.52338
1.16851
1.58371
4.26288
-0.238214
-1.54145
-1.0331
1.60508
-1.16527
2.82907
2.77706
-1.71274
0.584399
0.418168
2.59382
1.00755
0.347413
-1.66373
-1.55983
2.08686
-0.724381
-1.6217
0.0474711
-1.43757
-0.176032
-1.04872
1.51806
0.561238
-0.156929
-1.78748
1.56733
-1.05555
-0.550783
-1.15
1.81253
2.02192
-1.40151
-1.41999
-5.13955
-2.84603
-0.742593
-0.0560665
1.63114
3.62757
3.55233
3.04255
2.68734
3.26582
2.04176
3.08241
4.43342
2.7283
2.32714
2.51824
1.48771
-1.18649
-2.74641
-3.95983
-3.40461
-1.92303
-2.13869
1.69482
0.36892
2.13564
2.27321
1.77612
3.14094
1.01658
2.18085
2.56144
3.70495
2.03028
0.398063
1.11986
2.14219
-0.340862
-1.72056
-2.13481
-3.16342
-2.51864
1.29837
0.895175
2.9561
2.94867
0.769369
1.72183
3.34047
0.514917
-0.388172
2.35463
1.21581
-0.00434098
2.5248
0.968957
1.49393
-0.296387
-3.41515
-1.10215
-2.14992
-1.09549
1.45025
0.93193
1.16259
2.60131
1.40993
0.236223
3.07534
1.39733
1.32678
0.60216
1.92878
0.54993
0.586642
2.87285
0.17138
0.153431
-1.00563
-1.49131
-1.16541
-0.829712
-1.55039
-0.144379
1.72985
0.42571
0.650414
2.02498
2.80036
1.50798
0.674017
0.724382
0.794665
0.155731
1.17693
0.0736824
-0.809338
-1.17181
0.283267
0.335922
-0.178255
0.252023
-0.204868
-0.89817
1.16833
0.474051
2.03018
0.0494005
1.52129
1.82366
2.96621
-0.335614
0.580545
0.120769
0.807932
1.94663
1.86417
-0.25743
-1.61742
0.0462577
1.27206
0.707819
-0.477009
1.14591
-0.100339
1.37451
0.25786
0.920754
1.33335
0.462311
-1.01247
-0.0895251
2.53895
-1.98188
0.443809
-0.219881
0.495104
1.02886
-0.616554
-3.36911
0.547109
0.530731
-0.374236
1.72575
0.0980717
0.472114
0.979544
0.932257
0.272858
0.452515
0.244346
0.454254
0.864111
-1.45577
-0.341367
-0.713441
0.374906
1.2821
1.0911
1.84352
-5.41527
0.921086
-0.957536
0.23894
4.65114
1.84792
2.8258
3.57728
0.401428
3.06794
2.30649
2.82456
1.39283
1.67857
2.57164
1.23349
1.56531
0.381586
-1.61975
-2.14492
-1.98573
-0.556241
1.02597
-0.603172
-0.328442
0.526813
3.22043
0.105174
1.86081
0.195434
0.593492
5.74139
-0.185316
1.253
-0.44298
0.547814
0.299505
0.32359
-0.251255
-2.31372
-2.34488
-2.72274
-2.68678
2.73936
0.294752
2.50291
3.35093
3.12124
2.83127
1.9735
0.520418
0.711381
0.516361
0.023593
2.92625
0.560288
0.153159
0.563362
1.00661
-0.899127
-2.01183
-1.76322
1.30181
-0.289586
-0.397816
-1.43977
3.27066
1.21333
-0.381515
-0.0229348
2.31966
0.4919
0.0552454
3.83802
0.962968
0.19149
-0.0506165
0.169042
-0.498349
-3.0134
-1.79995
-0.403411
-4.21588
-0.458998
1.25177
0.81106
1.84306
-0.227185
-0.414261
3.66961
0.760468
1.37152
-0.245434
0.0268456
3.55033
-0.743209
-0.704779
-0.922419
-1.05652
-0.076231
0.702678
0.276062
0.83261
0.285981
-1.24348
-2.04716
0.328908
-0.349358
-0.937131
-0.780477
0.144769
-1.57896
0.438659
0.891941
-0.347686
1.30376
0.445106
0.899543
-0.499372
-0.562152
0.0686223
-1.64167
1.53915
0.281982
-0.941095
0.546162
1.46053
-0.483107
2.62931
0.502595
0.0328858
-2.05984
-0.914771
-0.284697
-0.223406
0.615255
1.54691
-0.290343
-0.124135
-0.284385
0.386211
-0.497336
1.22658
-0.141629
-0.0108926
0.792035
-0.762753
-2.81647
0.630839
0.367838
-0.0783677
-0.709064
0.0371577
-0.945165
2.01979
1.20912
1.25561
1.00712
0.00467795
0.64579
-5.21014
-1.48124
0.172281
1.93462
2.24016
2.57373
3.88428
3.5991
2.67175
1.42881
4.31353
3.65145
0.784807
-0.211933
1.10496
0.783939
0.919721
0.617413
0.0700086
-1.07955
-1.62993
-0.514167
-0.181918
-0.164497
1.9989
-0.483777
2.74153
-0.326336
3.12214
0.469825
0.739529
1.38968
-1.17301
1.35851
-0.986499
-0.258657
1.2307
-1.47349
1.55939
-2.8147
-2.05261
-1.30429
0.441635
0.394265
2.03
2.06311
0.2612
-1.23639
1.87
0.642284
-0.307485
0.973404
0.0253475
2.26047
-0.104112
-2.10416
1.87199
-0.645387
-1.31902
-2.9331
-2.67512
-2.84831
0.331566
0.706506
1.28698
-1.16816
0.918385
2.73064
1.02312
0.598947
-0.272018
0.714325
2.12559
-0.48309
0.359918
3.34742
0.116337
-2.13443
-3.22048
1.00152
-0.806464
-1.98253
0.102847
-0.673784
-0.686038
1.15896
0.926811
1.453
-0.330496
0.836656
0.338421
-0.169775
1.18645
-0.220579
-1.10273
1.71793
-0.303068
-0.695129
-1.21574
-0.50461
0.517442
-0.00814209
-3.11925
-0.709406
0.0173726
1.44866
-0.45367
-0.259767
-0.427967
-0.277308
1.44521
0.0128732
-0.317848
-2.27807
-0.200534
-0.131849
-1.7901
0.909132
-2.28851
-1.9118
2.32592
-1.17416
-1.21789
0.204455
2.68615
0.368646
-0.572619
1.65717
0.341368
2.35464
0.861766
-1.66297
-1.05027
-1.23934
1.77339
-0.605617
0.352186
1.1498
-3.03995
0.214453
-2.98979
1.00033
0.132053
-1.10478
-0.424592
-0.144447
-1.70545
2.66221
0.535635
1.24809
0.327711
-1.01595
0.835771
0.569493
-0.672064
1.16471
0.0958913
-0.671081
-1.37938
-0.427163
-3.04647
-3.74684
1.09074
-2.27148
-0.398875
1.46262
-1.20177
-1.17059
1.59214
0.551711
-0.562568
1.3276
0.879482
-1.31634
0.00560884
1.48499
0.50569
-0.820432
-2.26684
-3.02175
-3.88247
-0.111844
-2.91944
-0.758638
-0.587687
0.430365
0.261697
0.731221
2.35711
-0.235601
0.122173
0.641956
-0.612053
0.874677
-0.0458451
1.50469
0.164182
-2.71466
-0.147034
-2.80358
-3.65763
0.11205
-1.45708
-1.24738
2.01105
-0.532807
1.43007
1.0671
0.231226
-0.236152
-0.724499
1.07605
0.0531411
0.962339
2.69138
0.236837
1.00636
1.26053
-2.30185
-2.43632
-2.77739
0.775353
-1.01696
0.524357
1.02331
1.58434
-0.91655
2.31512
2.63775
0.26274
1.86069
4.01919
-0.0682308
-0.76243
2.99632
-0.875388
0.516195
-1.37814
-1.95337
-0.116642
-3.50977
-2.06649
-0.453034
-2.25381
0.214142
1.7486
1.47465
1.02868
0.710343
-1.9394
-0.237587
-0.153895
0.285747
-0.520332
-0.129629
-0.850997
-1.0578
-0.817796
-1.24557
-0.437227
-0.931232
0.0612563
-2.31207
0.587645
0.241536
0.680976
-0.277791
-0.0301395
1.61565
-0.967171
-0.866784
-0.512317
-0.854363
0.29858
-0.578562
0.593686
-1.64406
0.303328
-0.195599
-1.01569
0.260142
-0.8308
-0.160202
-0.836684
0.650793
-0.0546448
0.878678
1.26407
0.217854
-0.352079
-1.32079
-0.049669
1.64037
1.21293
0.502283
0.892987
-0.865314
-1.83078
0.318717
-0.656483
-1.69323
0.653383
-0.495431
1.06261
-0.58826
-0.538614
2.22558
0.316911
1.19278
-1.74334
-1.6667
0.278114
1.37753
-0.53197
-1.54493
-0.584517
1.13958
-0.664181
-1.31534
-0.263571
-3.07085
-2.86842
-0.674938
-0.758596
0.971191
1.57706
0.67651
0.763427
0.0688929
-1.65077
-2.63402
-1.90781
-0.515807
0.20152
0.305305
0.553131
-0.624762
0.741922
-1.38994
-3.45625
-4.931
-1.81311
0.296069
-0.399716
0.520269
3.1752
0.803933
-2.0408
2.0857
-2.48922
-0.454163
-0.869144
-1.81683
0.229914
-0.983482
0.0378957
1.31051
-0.805431
-1.07261
-2.20467
-2.84073
-3.79648
-1.60036
-1.03595
-0.193814
-0.483287
1.1208
1.41707
-0.974304
0.157096
1.16965
-0.61186
-0.146382
-0.992168
1.08667
-1.67847
-1.3974
-1.42019
-0.910369
-1.75246
-4.2268
-1.37683
0.202742
0.316778
0.710697
1.3568
-0.507022
0.91396
1.579
-0.919015
1.62413
-0.283177
-0.731698
0.950934
0.425312
-0.211883
0.148238
-2.637
-1.85761
-0.558635
-3.59035
-0.664375
-1.60659
1.45838
0.827506
1.08743
-0.227469
-1.66562
0.742338
-0.826321
-2.28279
0.348345
0.23641
-1.13399
1.61463
-1.12315
-1.53758
-1.38159
-1.22305
-1.04048
-1.83612
-0.333704
-0.592302
0.536543
0.51224
0.961669
-0.678098
0.623859
-0.466679
0.250932
-2.0274
-1.17931
-2.40992
-0.395408
-0.553122
-0.504383
1.56901
-0.994459
-0.0181707
0.530324
0.155004
0.233477
0.0658948
-0.544696
0.332289
-0.0787184
-0.41256
1.93317
2.91681
0.725901
-0.710293
1.993
-0.197938
0.69056
0.448542
1.12371
-0.200835
0.827651
0.0717786
-0.349264
-1.77181
-0.671085
1.23734
0.457244
1.22102
-0.116872
-1.12784
1.87331
1.92487
-0.470117
-1.19831
1.16331
-0.270462
1.72956
-1.07923
1.74649
0.94485
0.798446
-0.953258
-0.943521
-4.04008
-1.60372
-1.49171
0.935801
1.36523
-0.732224
-0.179353
0.24188
1.46086
1.24111
-1.21236
-2.02846
-0.514047
-0.573199
-0.127358
-0.587417
-0.843446
-0.713964
-1.77748
-3.11688
-1.86849
0.593344
0.41758
-0.453265
0.0553239
0.107727
-0.768885
0.160241
0.99548
-0.0405488
-0.290992
-3.14725
-0.45895
-2.46925
-0.327061
-1.78989
0.267888
-1.61724
0.283961
-1.87059
-3.72407
-0.761744
-1.42101
-1.32961
0.239758
1.18586
0.928619
-0.159606
-0.447385
-2.21531
-1.4234
-1.4774
-1.24817
-0.377143
-1.19157
-1.44323
-0.509712
-0.0940585
-2.10116
-0.83777
-2.44594
-1.34802
0.371599
-0.406125
0.659594
-0.445099
-2.15213
-0.712808
1.41013
0.0674204
-1.63908
0.939027
-0.73607
-0.193721
-3.32629
0.211935
-1.42053
-0.673027
0.31084
-0.794524
-2.21795
-1.67421
-0.874925
-0.822729
-1.61086
0.676086
0.708593
1.23526
0.266969
0.367768
-0.0599673
-0.791689
-1.92817
0.19662
1.27505
-0.763113
-2.32075
0.897201
-3.79974
-1.14503
-1.92332
-0.634316
-3.32295
-1.5571
0.646429
-0.791567
-1.41067
0.732888
-0.931339
1.77944
-0.957292
-0.341602
-0.939829
0.561256
-0.46154
-1.94999
-1.75964
-0.189419
-2.88343
-0.319024
-1.14178
0.0622869
0.794152
-2.04752
-0.390487
-0.124946
-0.0317059
-0.124125
0.478568
-0.799903
-1.77857
-0.735118
-0.752098
0.909794
-0.0125892
0.373477
-1.88799
-0.661395
0.196585
-2.65251
-0.264523
-0.505621
1.25125
-1.34607
0.843276
1.30632
0.341117
-0.130342
-1.30235
0.541187
1.55714
0.208921
-2.23057
0.269333
1.33513
2.61702
0.404613
0.670964
-1.96901
-1.78204
-7.25158
-3.96211
-2.79652
-1.12887
0.0144448
-2.88991
-0.666328
-1.63095
-2.73882
-4.04791
-3.66443
-0.9203
-0.371626
-1.92119
-1.88373
-1.71622
0.762143
-2.00385
-2.75888
-4.17398
-3.78766
-4.98154
-1.68849
1.20779
0.177563
-1.14476
-0.106605
-0.25411
-0.490727
0.130214
-2.67633
-4.12924
-2.41284
-0.00192005
2.07293
-1.31954
0.124148
1.93852
-2.2314
-3.24182
-3.23756
-1.32605
-0.147858
-0.705296
1.04006
-0.465093
-0.117215
-1.21629
-1.2625
-1.90682
-0.0693672
-1.40099
0.0991637
-2.01079
-1.3692
-0.131034
-0.15586
0.0101217
-2.28618
-2.02685
-1.02636
-2.5057
-0.0355642
1.43337
-1.13519
1.03637
2.16479
-0.595904
-1.34672
-0.482738
0.00671606
1.02834
-1.25683
-1.50313
-1.8921
-1.52079
-2.90142
-1.80052
1.23858
-0.037811
-2.47948
-1.30093
-0.699428
2.20278
-0.413902
-0.943357
0.692652
0.186654
-0.582506
-2.32715
-0.483707
0.342319
-2.56756
0.0785634
0.957762
-1.52098
0.947693
-0.671783
-1.2811
-1.49744
-1.71546
-0.476115
2.02319
-1.89778
-1.56208
-0.969292
0.567155
-0.488938
-1.0094
0.434179
-0.749044
-1.00358
-0.187352
-0.0664881
1.35248
-1.70434
-0.56761
-0.49768
2.6071
0.16972
-2.07122
-2.03154
-0.589072
0.244499
-0.980266
0.874401
0.654121
1.31467
0.418455
1.01615
2.27287
-3.24671
0.607225
-1.38153
0.671456
-0.63907
1.06574
-1.26695
-0.342153
-0.534774
0.870889
-2.18116
-2.16407
-0.779995
-1.15726
2.98093
-0.712968
-0.73608
1.43178
2.59231
-1.03548
-1.24103
-0.777001
-0.659572
-0.698306
-0.98
-0.995461
-0.551902
-0.975113
-2.44497
-4.68316
-1.47877
-1.55472
-2.67265
-0.297117
1.66921
-0.123362
-0.875538
-1.93179
-2.77912
-2.84241
-1.8764
-2.24994
-2.67636
-3.05391
-2.02206
0.344469
-2.01799
-2.78352
-3.25292
-2.04494
-0.851971
-1.44419
0.123671
1.33343
0.400461
1.12181
0.00548311
-1.24798
-0.219818
-0.231993
-4.63584
0.0275015
-2.91185
-0.252505
-0.422892
0.148707
0.0885591
0.118446
-2.13237
-0.582234
-2.77464
-1.44499
-0.0882809
1.28312
0.384144
-0.109763
0.322466
-0.0329347
-2.29162
-1.98453
-1.37334
-0.82014
-0.668801
-2.2081
0.205576
-0.231532
-1.52638
-0.520933
-3.32364
-2.93816
-2.31016
-1.51751
-0.196722
-0.189948
0.766874
-2.81258
-0.568911
-0.655981
-2.75805
-2.71045
-3.01408
-2.53723
0.167655
-1.78664
-1.46468
-1.37556
0.80173
-2.54106
-1.88485
-0.444827
-0.753502
-0.878474
-1.16898
-1.22266
-1.83112
-1.10732
-3.18868
-0.967395
-2.65405
-4.35601
-2.19392
-3.07921
-0.528324
0.224016
1.24306
-0.0220978
0.473521
-0.808568
-0.0147283
-0.87033
-0.2872
-2.34169
-0.795011
1.12848
2.15117
1.16012
-0.838954
-0.329061
-3.52831
-1.70322
-1.9748
-0.156714
-2.70799
1.37335
-0.835523
1.71891
0.466252
-2.22544
-1.38193
-0.482427
-2.26655
0.518048
-1.04653
-0.569775
-0.166389
-1.6114
-1.90161
-0.792407
-1.70168
0.70294
0.197763
1.92776
-1.55529
-0.95569
-1.04599
-3.01982
0.208006
0.747309
-1.58831
0.0083758
0.867516
1.49369
-0.792772
-1.28898
-0.237785
0.158914
-1.2265
-0.345403
0.459634
0.471002
-1.69671
-0.486064
0.00736166
-0.110676
1.87291
-1.68828
-0.753984
2.0716
-0.141804
-2.27114
-2.97495
-1.93627
-0.190182
0.0347248
0.872493
-1.0198
1.0373
-2.75949
-2.48414
-2.56435
-3.39227
-3.18477
-2.74999
0.838417
-1.47811
-1.33078
-1.60158
0.286726
-1.30252
-3.75335
-0.0292276
-2.08554
-0.0724594
0.527903
-0.0732981
-2.0416
0.381334
-2.17771
-0.850216
0.23427
-2.20491
-0.172842
-1.39498
-0.402713
-1.73226
-0.5462
-0.479352
-0.0265314
-1.02192
-5.58318
-2.72982
-1.95862
0.0026915
-2.46839
2.01983
0.628918
-1.58816
-2.53309
-1.4894
-2.20656
-1.14362
-0.766527
-1.19555
-0.848071
-2.14541
-0.603726
0.533931
-2.34749
-3.29492
-2.99684
-1.22082
-0.376134
-0.419993
0.144724
0.194069
-1.05053
-0.841906
-0.633791
-3.83274
-2.77215
-2.59208
-0.442438
-1.14437
-0.208491
0.100672
1.06869
0.629537
-1.94263
-2.80074
-1.83344
-1.82731
-3.03864
-2.10926
-1.15393
-1.6793
1.29749
-0.926889
-0.450873
-2.85729
-2.37353
-1.8465
-1.15472
0.902155
-0.439438
0.227936
-0.489787
-0.96363
-1.63443
-2.14636
-1.9126
0.0895931
0.746061
-1.3436
1.64987
-0.433505
-0.374094
-0.241927
1.37534
-3.28783
-0.405809
0.267198
-0.36355
-0.553739
-0.456805
0.701649
-0.0656076
-0.454359
-0.226777
-1.56119
-1.76822
-0.731662
-1.00719
-0.784766
-1.55738
-0.610364
-1.25818
-0.557801
0.638908
0.791684
-1.49211
0.113385
-0.0946649
-1.69391
-0.942897
-1.62507
-0.00424222
-0.196364
-0.653985
-1.144
2.15867
-0.653617
1.91299
0.255353
-2.0225
-1.50554
0.330736
-0.0269023
0.545258
1.52653
-0.941682
-1.18794
-0.495716
-1.93448
0.874851
-1.40251
0.834528
0.193787
-0.746281
-1.96926
-6.79786
-3.03963
-3.26435
-2.88914
-0.725941
0.401268
-1.3026
-1.00168
-1.77379
-3.77942
-4.44033
-2.45717
-3.98146
-0.0507061
-1.88888
1.7868
-0.558573
0.0593277
-2.46963
-1.39183
-4.23857
0.0826336
1.46937
0.0686496
-1.95355
-1.2258
-1.58021
1.84938
-0.294964
-3.23728
-1.13012
-1.57748
-1.23652
-2.8664
-0.236393
-0.478884
-2.29298
-0.693642
-0.5495
-2.19503
-2.26038
-3.76397
0.0666358
2.29922
-0.414022
-1.44087
-3.14505
-0.698261
-2.38417
-3.36046
-3.48579
-1.52897
-1.9086
-1.53722
-0.882323
-1.64656
0.591636
-0.463178
0.792996
-2.48291
-3.35129
0.577629
-1.70287
-1.70964
-0.275083
0.385498
-0.426323
-1.49044
0.310081
-2.83448
-1.12835
-0.591035
-2.38812
-3.02038
-2.24179
-1.15119
-1.21222
-1.39053
-2.16547
-2.62482
-4.52313
-1.03351
-1.03658
-2.7454
0.673107
-0.942827
1.12524
-0.875201
1.79121
-1.63167
-0.264811
0.259222
0.726739
-0.450966
-0.82021
-0.650455
3.79052
0.476498
-1.00725
-0.906953
-2.21942
0.498562
-0.800318
1.21589
-0.72614
-1.50355
-2.55086
1.38121
-0.184175
-0.844043
1.18779
1.10363
-1.32112
-2.10019
0.134642
-1.34189
1.50145
-0.257546
-1.89738
-0.323324
0.577137
-0.300151
-0.276587
-0.51706
-1.91549
-0.67511
0.285063
-0.357594
0.796826
-0.625907
-2.67286
-2.32409
-0.801389
-0.304137
-2.61693
1.83781
-2.07468
-0.418637
0.1683
-0.960864
-2.01629
-0.490267
-0.28984
1.56428
-1.19758
-1.00573
-1.22073
2.17946
-1.74408
-1.88377
-1.10149
-0.49494
0.396787
-0.292365
-0.41833
-0.289185
0.209857
1.72181
-2.99397
-0.778884
-3.23143
-1.95404
-1.00517
-0.640161
-0.0688941
-0.18741
-2.14494
-1.5591
-2.32135
-1.93118
-1.70983
-1.88813
-0.732206
-2.7109
1.25069
-2.00303
0.538087
-1.26636
-1.11489
-4.74809
-1.68805
-0.181217
-1.57563
0.168545
-0.381369
0.448744
0.17294
-0.610611
-0.778555
0.677596
-0.793256
-0.497886
0.0886985
-2.30802
-0.280659
1.07609
-0.406226
-1.11132
0.0501618
-1.84355
-2.17253
-2.76082
-0.272172
-2.1503
-1.55253
2.05704
1.32455
0.860282
-1.17237
0.652796
-2.74113
-2.91661
-2.08912
-2.55338
-3.68057
-1.32491
0.782793
-1.0419
-0.344653
-0.464066
-1.24858
-1.8111
-0.517857
-1.25863
0.72897
2.91533
2.16255
-0.367143
-0.417799
-3.18326
0.137334
-1.29891
-0.727415
-3.75917
-0.0927403
0.435045
0.992052
-0.0574583
-2.08777
-0.304695
-0.762227
0.560109
1.69164
1.58008
0.504706
-0.869604
-1.76513
-1.24915
-1.44806
-1.59877
-2.60998
-1.14931
-3.61666
-0.750898
-1.36128
1.56096
-0.473154
-2.90178
1.21715
-0.628616
-0.835773
-0.21652
-0.454389
0.24091
-2.47812
0.38254
0.281526
-0.481771
-0.495172
-0.0368241
0.811804
-0.499987
-2.00654
-1.97907
0.740427
-1.23428
0.409934
0.224317
-0.562524
-1.8003
-1.13369
-1.83033
-0.907676
-0.566499
-1.34715
-1.61318
-1.18952
0.982137
1.21609
-0.284894
-0.79086
-1.34134
-1.22427
0.359386
0.120362
0.23463
1.71215
1.20405
0.95696
-0.748565
1.26627
-0.0379166
0.816633
0.363991
-1.53241
-0.70224
0.107493
-1.12937
-1.40694
-0.816509
-0.166405
0.185101
0.0881366
-0.391039
-2.28611
-1.34985
-0.600945
-1.02732
-1.94082
0.344345
-2.68571
-2.61895
-2.52989
-2.95561
0.249289
-2.70327
-1.99495
-2.04432
-2.01271
-3.17882
-4.36358
-4.04426
-2.64196
-0.995073
-1.82801
-1.79117
0.766796
0.897428
-1.88342
-2.08627
-0.515536
-1.10911
0.283457
-0.852393
-1.48574
-0.25067
-2.67692
0.435122
-2.39794
-1.68407
0.202817
-0.770429
-2.38671
-1.52082
-0.809591
-2.11294
0.288301
-1.228
-2.09986
-2.57144
-0.585142
-3.05467
-2.48727
1.15429
-1.61001
0.18412
0.704746
-0.393317
-3.02728
-2.87642
-0.0595641
-2.76831
-0.657318
-0.853069
-0.0862965
-0.894273
0.840162
-0.060076
-0.945387
-0.926455
-2.24215
-0.892306
-0.205964
0.953908
-1.10263
1.19545
0.0165226
-1.7261
-0.0715123
-0.97185
-0.0813079
-0.211691
0.157669
-2.56062
-2.09935
-0.431569
-0.342032
0.678004
-1.16273
-3.71481
-0.824574
-1.02778
-0.0382318
-0.330686
1.58496
0.802864
-1.03064
-0.646551
-2.70683
-0.559146
-0.653004
1.45688
-1.44635
-0.182001
-1.7778
-0.406376
0.820799
-1.13024
-0.698816
-0.505352
-0.572806
-0.340067
1.73316
1.05598
1.33978
0.836598
-2.16918
-0.800207
-1.9633
1.40884
1.31322
0.626885
-0.738745
-0.773948
-0.882008
-1.65657
0.946213
1.15995
-0.344391
-0.238814
-1.80294
-2.41168
2.6398
0.880763
-1.30825
-1.21405
2.22369
-0.309714
-2.03958
-0.474339
-0.688628
1.01196
0.825444
-0.680996
1.25809
-2.03426
-0.809237
1.64873
0.9942
0.786682
0.246088
-1.15807
1.35552
0.362141
-0.182049
-0.532692
1.07086
-1.15936
0.872134
0.575163
-0.0894758
-0.52399
0.96998
1.25437
-2.22345
-1.67224
1.40552
-0.519286
0.569172
-1.84064
-1.63778
-1.8791
-0.516715
1.24878
-2.7177
-0.191648
-0.750858
2.43003
-2.6698
-2.49543
-0.495103
-1.05811
-0.466527
-0.101708
-0.511577
0.0737009
2.26867
0.0523798
-1.38749
-4.58395
-1.4053
-0.328982
1.19907
0.0196048
-0.974759
0.26538
-0.388224
0.324068
-0.316896
-0.206616
-0.068028
-1.33022
-0.552841
-1.06827
-0.445967
0.940134
-0.224697
-0.0676245
0.387121
-1.72324
-2.11263
-2.27056
0.618594
0.503139
-0.770102
-0.755401
-1.39532
-0.1825
1.25333
-0.879847
1.36845
-0.049063
-0.870185
-1.65625
1.09493
0.881335
0.273218
0.470065
1.10192
-1.43148
-1.08316
1.68711
-0.767666
1.46947
-0.222965
-1.46047
-0.657115
0.301804
0.909081
-0.490444
-0.435648
-0.0813084
1.29351
-0.00123053
-0.265644
-1.24944
1.25517
-0.94076
-1.47326
-1.63066
-0.0144402
0.671215
0.379442
0.325066
0.628914
-0.533558
-1.8136
0.462951
2.8951
0.100831
-1.30955
0.159687
-1.83999
-2.80725
0.0361612
0.233113
-0.425318
2.50742
2.33312
-0.323937
-1.58981
-1.52521
0.113213
-0.283836
1.16047
-1.35957
-1.70558
-1.68775
0.226952
-2.61858
-1.90705
-1.78423
0.235776
-0.823953
1.00705
2.39051
0.187157
0.626648
-1.51358
-1.15691
-0.416531
-0.290579
-1.99856
-2.06746
0.871056
-1.04205
-1.40857
-0.475641
-0.298275
-0.0892435
-1.11585
1.27958
-1.24716
0.176678
0.431639
-1.01874
1.2124
0.34266
-0.673983
-0.434081
-0.27012
0.087612
-0.726192
1.96212
0.512207
-0.657223
-1.02776
-0.325724
0.296686
-0.507185
0.143733
1.6053
2.21694
1.42138
0.741894
0.957141
-0.879551
-1.90959
2.02851
-0.646514
-1.43183
-1.16397
-1.34664
-0.772451
1.6161
0.070258
0.813624
-0.070312
1.15072
-2.09929
-0.0200093
-1.90859
1.00871
-0.307176
-1.81309
2.6596
1.2333
2.88209
-0.154017
-1.36666
-0.12928
-1.23671
3.51098
1.38569
-0.113501
-1.37611
-0.272264
0.935549
0.964088
-2.06417
-1.26897
-0.417181
-0.17002
-1.63765
3.14453
1.63706
1.30571
1.19661
-1.92993
1.92963
-2.30656
0.300032
-2.25144
-0.262054
-2.37921
1.96664
-0.739437
-0.52844
-1.1488
0.530454
-2.92924
0.899505
-1.07148
-1.69256
1.21195
3.55879
1.08052
-2.4806
0.0966979
-1.61572
1.59434
-2.11109
0.591046
0.781225
-0.3881
-0.506674
-0.232394
1.41396
2.26678
-2.43991
0.0468932
-1.02013
0.716079
-0.420825
-0.068667
1.18534
1.71534
0.152445
0.868229
-0.913812
-2.22782
0.11768
2.09643
1.55623
0.124252
0.418822
-0.627873
1.81729
1.2456
-1.04701
-0.144326
-1.48443
0.604563
-1.06141
0.159481
1.10505
0.870667
0.220904
-0.133622
0.494323
-1.25047
1.52265
0.289055
-0.516952
2.08319
-1.52038
1.24517
0.601929
-0.81966
0.0904358
0.300004
-0.829821
0.170544
0.245288
1.82335
0.167875
-0.32655
-1.4351
-1.95482
0.355409
-1.71996
0.233857
-2.09305
1.00824
-0.775683
-2.37333
0.759058
-1.04311
0.780532
-1.7027
0.672408
-0.601151
0.396215
-1.12192
0.656765
-0.446309
-1.54386
1.63158
-0.169315
-0.147957
0.363659
-1.48263
-1.80704
-1.06624
-0.595134
0.164604
-1.42302
0.905308
1.11871
0.0429177
-0.780817
1.14784
-1.09932
1.37805
0.175147
0.890087
-0.00282087
-0.209695
1.06822
0.661374
-0.156013
0.58685
3.14228
2.56926
-0.230269
3.09455
0.569685
-0.710921
0.619489
-0.299655
-1.01514
-0.131467
0.0869259
0.568686
1.34689
3.46732
1.15781
1.35429
0.797973
-0.724215
-0.475638
-0.181564
0.0694862
0.695773
1.41868
-0.21447
1.16274
0.664219
3.91836
-0.202779
0.0506308
1.07968
0.148255
0.369124
-0.460211
-0.1309
-0.0245017
0.853908
-0.427444
-1.21238
-0.365965
-0.480723
2.46222
1.30354
1.24476
0.933315
2.07002
1.84684
0.423191
-0.994622
-1.18421
-0.63966
-0.162104
-1.17441
2.76057
4.08017
0.533084
-0.512964
-2.20355
-0.230978
-1.2347
-0.396022
-0.0661712
3.4351
0.697124
0.82391
-1.5185
0.374199
0.89584
0.741536
0.379632
-1.39954
1.76327
0.721684
-0.142171
2.41549
2.7127
1.62114
0.559311
0.775333
0.220865
-0.168138
0.45995
-0.948794
0.762465
1.45332
-1.33225
-0.534924
0.03586
0.294311
1.24357
0.00224852
-0.811602
1.83773
-0.974148
-0.128436
-0.398778
0.879911
1.4019
-0.536691
0.905042
-1.57013
1.56967
1.30649
-0.368152
1.53113
0.553161
0.601105
-1.03899
0.154371
1.26287
-1.3224
2.23581
0.860683
-1.21075
-0.0950587
-0.167654
1.48508
0.672068
1.2143
1.65452
2.18542
-2.45512
0.31414
-1.87542
0.152124
-0.383915
-0.751517
-0.833014
0.428007
0.262234
0.814072
1.21626
0.442528
-0.193604
0.0762033
-0.213227
1.9427
0.386674
-1.95769
-1.93446
0.98976
0.648405
0.602414
-1.00518
-1.01753
0.402868
-0.726694
-0.302965
-0.990875
-0.0866176
0.191261
-1.0247
-2.29265
0.921726
0.929037
0.221498
-0.551247
-0.637926
-1.0449
-2.06647
-0.360045
0.63475
2.15521
2.3504
1.11832
3.2265
2.31927
1.46705
0.339904
2.08387
-0.254375
-0.084615
4.29623
2.50432
4.4331
2.69014
1.4551
1.06812
2.00497
0.123415
-2.26388
1.49218
2.76851
2.23834
2.6359
0.557461
1.25561
0.357662
1.70005
-1.1547
1.12311
1.54404
0.0603133
1.8898
3.84513
2.62709
2.15662
3.24124
2.36009
-3.23349
-1.12788
-1.03229
0.492022
0.168092
0.701825
1.96269
1.04571
1.19622
-0.513598
-0.145231
2.06843
2.48672
-0.748898
0.906603
0.625387
4.09875
0.337615
-0.102537
0.242711
-1.39753
1.13651
1.77356
2.016
1.52359
-0.416975
1.86199
-0.138357
0.64619
0.558824
0.82236
1.46219
2.74634
1.56925
-0.304514
2.19563
0.816508
2.68237
0.798521
-0.369784
0.813164
-0.560992
-0.625751
2.47306
2.71698
-0.95785
1.73044
2.9116
-0.126332
-1.16405
0.840775
2.73112
2.19209
0.673176
1.49663
3.61881
0.341545
2.46751
1.06645
0.20583
-1.61442
-2.73838
-0.15231
0.355782
2.08671
0.592889
-0.472394
-0.745912
1.23346
0.39538
-0.366245
0.849011
0.63742
0.513857
1.29301
3.45518
-1.252
1.19921
-1.01873
0.82816
0.598735
0.116659
1.42896
-0.393518
-0.373663
0.0806618
0.896909
1.29064
0.744405
0.747166
-2.81751
-0.90069
2.28394
-1.03029
1.83769
-1.79786
-0.802805
0.0161476
-0.47827
-0.100753
0.70111
0.785463
1.25499
-1.41537
1.63878
0.91585
-0.493474
-0.945201
-0.121346
-1.56785
0.125046
1.46312
0.470391
-1.94382
1.76706
-0.611246
0.42007
0.216467
-0.873182
-0.305511
-0.84136
0.631815
-0.360464
3.20084
2.34828
1.49209
1.70198
2.23506
3.46558
1.48651
3.62764
1.37137
2.9338
3.31512
2.38469
3.45768
4.22789
2.52713
3.58091
0.530344
2.10064
0.375594
1.59074
0.817779
1.19501
0.0817144
3.23964
-0.366717
2.23131
-0.132788
0.234777
2.77463
-0.292619
3.64777
-0.089603
3.60513
-0.298047
-0.0913589
0.401708
-0.270514
-0.13519
-0.579752
1.66125
3.86002
3.65195
0.968387
2.83208
3.31746
2.4895
0.234418
0.161569
1.18265
1.02484
1.85437
1.31908
3.21671
2.46682
2.04107
0.539414
0.878712
-0.0303163
1.89153
2.68
1.18943
4.88934
2.92299
-0.0655199
1.85862
1.42883
0.330587
-0.351045
2.6813
-0.798177
1.59799
2.41685
1.8853
3.63398
1.05807
3.52373
2.83302
-0.475981
0.10304
0.968102
2.90465
3.02238
2.28193
1.65635
0.474954
2.36497
-0.27007
0.436762
0.270487
1.15551
-0.0242519
2.22785
1.64995
-0.0544788
0.00273712
1.38787
2.2199
-0.572379
0.876092
2.31188
0.412368
-0.659632
-0.665123
-0.051761
0.343578
1.11836
-1.58091
-1.71379
2.58842
1.11714
0.420502
0.869897
0.0960809
1.52074
2.63133
-0.384852
0.0624607
-2.05916
1.40037
1.66399
-0.285699
-0.340756
0.0483689
1.59549
-1.40389
0.827453
3.22199
-0.815429
0.462998
-1.8291
0.00626387
-0.314752
0.722171
1.13662
0.92165
-1.82176
-0.0460043
0.362558
-1.43472
-0.545047
1.56883
0.402976
0.292019
2.15979
-0.0100129
2.22234
-0.28677
1.18447
-1.44407
-1.99256
-0.268439
-1.79112
1.26782
0.181551
-0.869055
-1.32772
-0.034745
-1.04593
1.79646
2.40274
1.58968
4.3601
3.33544
4.56339
1.85679
3.51315
1.90854
0.467915
2.97845
3.85085
5.81192
0.507921
4.24858
5.79933
2.95811
3.84189
2.4259
1.27894
2.69527
3.80058
2.97814
3.83344
3.39882
2.67537
2.91634
4.07307
1.49748
2.23786
4.03285
3.62083
4.10354
4.95853
2.87665
2.90578
3.76619
1.18575
4.32324
2.51192
0.861082
3.4424
3.29083
2.27193
1.24272
2.05903
1.23768
0.91628
0.194014
3.60051
0.925747
3.08069
0.871417
3.31954
4.12365
0.9266
0.907648
1.54923
0.521472
-1.04327
0.572002
3.93403
2.6345
1.74175
0.38884
1.48048
2.23349
1.54081
1.93693
1.13771
1.64777
2.85554
1.08347
1.1064
3.35457
1.65914
3.3776
1.88394
0.48339
0.193226
2.6933
0.300713
1.15784
0.647206
1.60261
1.35651
0.288991
0.820227
1.90156
-1.20608
1.20735
1.32106
1.40984
0.30708
1.59008
1.6153
0.865809
-0.0345093
2.29999
1.19346
1.40877
1.14768
2.53307
0.904177
1.36246
2.38458
0.666484
2.01915
2.17173
2.23357
3.98786
0.294694
-0.124095
1.25451
4.43401
1.62121
-0.133946
3.11082
-0.722046
-0.0821518
0.929612
1.59262
0.532617
1.59329
0.967936
-1.53496
0.0166475
-1.24326
0.686201
-1.15916
0.700319
1.55023
0.589761
3.31591
-1.07102
-1.56819
0.39665
2.69628
0.756506
0.681915
-1.29038
0.687399
-2.55494
1.75878
-1.40589
0.893565
0.302945
-0.387316
0.126861
-2.81394
0.931106
-1.25796
0.293981
0.82496
-2.37523
0.37156
-0.228269
2.1147
1.15695
)
;

boundaryField
{
    hotSide
    {
        type            calculated;
        value           nonuniform List<scalar> 
400
(
-4.28943
-3.02482
-4.34331
-4.62759
-4.43358
-2.28335
-2.32324
-3.30973
-6.53996
-3.99141
-1.60014
-6.1482
-2.60344
-2.0795
-1.05326
-0.86873
0.386064
-1.5449
-0.339675
-0.563444
-1.09639
-1.25372
-1.96876
1.78792
-0.627937
-2.90985
-2.05015
-0.8062
-3.187
-0.727346
-2.24811
-2.33793
-1.27773
-1.96802
-1.2533
-0.562863
1.16386
0.193593
1.16289