/*--------------------------------*- C++ -*----------------------------------*\
| =========                 |                                                 |
| \\      /  F ield         | OpenFOAM: The Open Source CFD Toolbox           |
|  \\    /   O peration     | Version:  2212                                  |
|   \\  /    A nd           | Website:  www.openfoam.com                      |
|    \\/     M anipulation  |                                                 |
\*---------------------------------------------------------------------------*/
FoamFile
{
    version     2.0;
    format      ascii;
    arch        "LSB;label=32;scalar=64";
    class       volScalarField;
    location    "0";
    object      relativeErrorField;
}
// * * * * * * * * * * * * * * * * * * * * * * * * * * * * * * * * * * * * * //

dimensions      [0 0 0 1 0 0 0];

internalField   nonuniform List<scalar> 
3200
(
0.01461
0.00567249
0.00338749
0.00369641
0.00680928
0.00791665
0.0079325
0.0115891
0.0115558
0.012587
0.0125191
0.0134229
0.00737278
0.0123906
0.00578261
0.0156438
0.00520281
0.00401128
0.00235208
0.0041669
0.0133002
0.000197752
0.00491156
0.0103907
0.000680136
0.00455428
0.014413
0.0102585
0.00695019
0.00863127
0.00758947
0.00903228
0.00444605
0.0163405
0.0117352
0.0098634
0.00613479
0.000447218
0.000553496
0.000649577
0.000125409
0.00488981
0.00404279
0.00679699
0.00441703
0.0104096
0.00906316
0.0114674
0.00373629
0.00941197
0.012514
0.00750572
0.00827285
0.00512419
0.00282811
0.00599872
0.0043557
0.00259405
0.000890204
0.00645222
0.00122951
0.00424096
0.0020386
0.00409136
0.000363996
0.00547687
0.00680053
0.0151981
0.00285747
0.0112248
0.01073
0.00692398
0.00798105
0.00680904
0.00198373
0.00444454
0.00305135
0.00108138
0.00481933
0.00479768
0.00290449
0.00278275
0.00521951
0.00201452
0.00460366
0.00238288
0.0049233
0.00482953
0.00307807
0.00304923
0.000776188
0.00274686
0.00714458
0.0116348
0.00138108
0.000682236
0.00272734
0.000252652
0.00356939
0.00149301
0.00702331
0.00184789
0.00200454
0.00282698
0.00115661
0.00532517
0.00032018
0.0067615
0.00451658
0.000136206
0.00537154
0.0100378
0.00221414
0.002255
0.00332978
0.0111801
0.00470282
0.00139206
0.00805618
0.00462378
0.000707448
0.0103868
0.00343293
0.00331085
0.00538756
0.00101204
0.00655347
0.00062409
0.00674879
0.000315969
0.010997
0.00833421
0.00253623
0.00333355
0.00223606
0.00433358
0.00435023
7.8199e-05
0.00492945
0.00404512
0.00160036
0.00499925
0.000369313
0.000122218
0.00374454
0.00138353
0.000338655
0.00142791
0.00184275
0.00211777
0.0046399
0.00180192
0.00302221
0.00328031
0.00370001
7.97472e-05
0.00185693
0.000992518
0.00261567
0.00516312
0.0109725
0.00611078
0.000532659
0.00414122
0.000828785
0.0121275
0.0113947
0.00811056
0.0109263
0.0118147
0.0197228
0.00387154
0.00728132
0.00316462
0.00218321
0.00302926
0.00773577
0.00155881
0.00917576
0.000944858
0.0088013
0.00172108
0.000694581
0.00247723
0.00585122
0.000801303
0.00178244
0.000825119
0.00822714
0.000101473
0.00189194
0.0107914
0.00120258
0.00841325
0.00121431
0.000288798
0.00196576
0.00176319
1.25141e-05
0.00428999
0.00436121
0.00429956
0.00237716
0.000151752
0.0119314
0.0100494
0.00769542
0.00691204
0.00779522
0.0116037
0.0108293
0.00792238
0.00841486
0.00761464
0.00294464
0.0116903
0.00941626
0.00317429
0.00330119
0.0120283
0.00650429
0.0031041
0.00687726
0.00276045
0.00152105
0.00257166
0.00490833
0.00733068
0.00747427
0.00938992
0.00738357
0.0091069
0.00389206
0.00691381
0.00681747
0.00118354
0.0017848
0.00158967
0.000940233
0.00458215
0.00254661
0.00432604
0.00371604
0.00175697
0.00450388
0.000343747
0.00491658
0.0101655
0.0118141
0.00164794
0.00957999
0.00503805
0.00188066
0.00725687
0.00427204
0.00720751
0.00171986
0.00851385
0.00649954
0.00166233
0.00468722
0.00286003
0.00360983
0.0004538
0.00961884
0.00359976
0.00530499
0.00138978
0.00222516
0.000732911
0.00293027
0.00535885
0.00452821
0.00455746
0.00139688
0.00178552
0.00239514
0.00464127
0.00572231
0.00320128
0.00229038
0.000487417
0.00490069
0.0037555
0.00508492
0.013674
0.000763441
0.00493645
0.00330669
0.00513597
0.00372866
0.00905513
0.00889346
0.00548906
0.00187457
0.00134264
0.00833632
0.00324128
0.0011186
0.00536032
0.00513968
0.00687474
0.00238562
0.00533902
0.000156234
0.00472966
0.000578978
0.00344842
0.00499078
0.00184495
0.000515868
0.00587651
0.00515371
0.00347176
0.0018121
0.00378481
0.00596727
0.00665884
0.00461699
0.00467889
0.0147297
0.00813089
0.00211314
0.000158863
0.00460164
0.0101903
0.00994005
0.00848569
0.00747717
0.00907532
0.00567381
0.0085764
0.0123648
0.00763428
0.00653725
0.00710428
0.00421541
0.0033763
0.00784627
0.0113487
0.00992553
0.00559112
0.00619667
0.00489224
0.00106085
0.0061183
0.00649014
0.00505636
0.00892318
0.00288486
0.00618881
0.00727685
0.0105475
0.00579655
0.00114039
0.00322024
0.00618361
0.00098762
0.00500247
0.00622365
0.00939059
0.0074596
0.00383411
0.00263501
0.008673
0.00862358
0.00224348
0.00500849
0.00969944
0.00149371
0.00112604
0.00683693
0.00353656
1.26583e-05
0.00738394
0.00284286
0.00439749
0.000875237
0.0101149
0.00327172
0.00650485
0.00330841
0.00436908
0.00280013
0.00348367
0.00777409
0.00420337
0.0007028
0.00913603
0.00414785
0.00393842
0.00178886
0.00573841
0.00163948
0.00175319
0.00860842
0.000514937
0.000462234
0.00303703
0.00451215
0.00359742
0.00255748
0.00476969
0.00044324
0.00529917
0.00130137
0.00198445
0.00616831
0.00852019
0.00458524
0.00204944
0.00220395
0.00242063
0.000475144
0.00359781
0.000225716
0.00248465
0.003605
0.000873131
0.00103693
0.000561888
0.000793589
0.000644201
0.00281996
0.00366241
0.00148376
0.00634543
0.000154221
0.00474519
0.00568579
0.009248
0.00104684
0.00181238
0.00037747
0.00252879
0.00610218
0.00585287
0.00080948
0.00509306
0.000145812
0.00409802
0.00227883
0.00153442
0.00368267
0.000322154
0.00440894
0.000826409
0.00294876
0.00426787
0.00147939
0.00323987
0.000286558
0.00813111
0.00635169
0.00142358
0.000705964
0.00159114
0.00330958
0.001985
0.0108538
0.00180268
0.00174833
0.00123245
0.00568149
0.000322764
0.00155327
0.00322178
0.00306548
0.00089706
0.00148757
0.000803245
0.00149343
0.0028414
0.00478812
0.00112311
0.002348
0.00123426
0.00422227
0.0035943
0.00607425
0.0155096
0.00262991
0.00272344
0.000676779
0.0131183
0.00519053
0.00790733
0.00997854
0.00111719
0.00852788
0.00641129
0.00786085
0.00388519
0.00469707
0.00722333
0.00347898
0.00443362
0.00108531
0.00462475
0.00614314
0.00578565
0.00161641
0.00297137
0.00174054
0.000944256
0.0015091
0.00919472
0.000299454
0.00528751
0.000554739
0.00168463
0.0163142
0.000527634
0.00357747
0.00126895
0.00157494
0.000864265
0.000937171
0.000730135
0.00674128
0.00695727
0.00806051
0.00793121
0.00806125
0.000864625
0.00731933
0.00977146
0.00908008
0.00822235
0.0057261
0.00150998
0.00206594
0.00150216
6.87982e-05
0.00855731
0.00164355
0.000450708
0.00166301
0.00298001
0.00266772
0.00608453
0.005323
0.00392068
0.000869903
0.00119186
0.0043025
0.00975079
0.00361016
0.00113354
6.80918e-05
0.0068869
0.00146151
0.000164378
0.0114423
0.00287767
0.000573707
0.000152049
0.000509106
0.00150447
0.00911366
0.00555435
0.0012431
0.0129667
0.00140885
0.00383418
0.00247923
0.00562332
0.000692077
0.00126054
0.0111595
0.00231262
0.00417334
0.000747669
8.19079e-05
0.0108526
0.00227645
0.00216325
0.00283708
0.00325562
0.000235236
0.00221443
0.000869098
0.00261765
0.000897763
0.00389765
0.00640724
0.00102803
0.0010907
0.00292333
0.00243359
0.000451402
0.00492547
0.0013695
0.00278783
0.00108819
0.00408661
0.0013973
0.00282809
0.00157212
0.00177157
0.000221039
0.00528471
0.00495055
0.000906142
0.00302137
0.00175185
0.00468084
0.00154723
0.00841647
0.00160839
0.00010524
0.00659358
0.0029297
0.000912424
0.000716589
0.00197527
0.00497096
0.000933865
0.000399602
0.000916032
0.00127247
0.00163825
0.00403925
0.000466253
3.58478e-05
0.0026058
0.00250874
0.00926133
0.00207401
0.00120923
0.000257626
0.00233119
0.000122185
0.00310871
0.00664511
0.00397925
0.00413359
0.00331656
1.54094e-05
0.00212772
0.0149085
0.00422586
0.000489672
0.00547676
0.00631597
0.00722784
0.010869
0.0100407
0.00743734
0.00397283
0.0119938
0.0101645
0.00218944
0.000593032
0.00310306
0.00221026
0.00260366
0.00175487
0.000199729
0.00308907
0.00474524
0.00149308
0.00052655
0.000474459
0.00574491
0.00138559
0.00782725
0.000929251
0.00887339
0.00133394
0.00209969
0.0039496
0.00334017
0.00387864
0.00282543
0.000743389
0.00354972
0.00426492
0.00452829
0.00819448
0.006086
0.00385894
0.00130301
0.00115976
0.00595316
0.00603234
0.000761655
0.00359712
0.00543167
0.00186399
0.000892359
0.00282738
7.37457e-05
0.00659149
0.000304414
0.00617066
0.00550661
0.00190417
0.0039025
0.00869666
0.00808603
0.00859444
0.000998162
0.0021216
0.00385493
0.00349043
0.00273792
0.00812538
0.00304027
0.00177855
0.000807746
0.00212267
0.00632498
0.00144021
0.00107542
0.0100267
0.000349353
0.00642557
0.00971744
0.00302728
0.0024875
0.00610666
0.000316219
0.00206758
0.00210095
0.00354233
0.00282773
0.00442653
0.00100577
0.00254468
0.0010293
0.000516661
0.00361452
0.000672995
0.00337046
0.00526107
0.000929995
0.00213728
0.00374478
0.00155645
0.00163015
2.56255e-05
0.00980425
0.00222657
5.44466e-05
0.00453371
0.00141796
0.000811028
0.00133512
0.000864757
0.00450675
4.01604e-05
0.000992367
0.0071202
0.000627589
0.000413222
0.0056185
0.00285753
0.00720261
0.00602292
0.00749054
0.00377907
0.00391667
0.000656935
0.00862315
0.0011824
0.00183517
0.00530747
0.00109278
0.00753571
0.00275797
0.00532346
0.00336372
0.00397194
0.005688
0.00194416
0.00113161
0.00369769
0.00978416
0.000690639
0.00984997
0.00329493
0.000434845
0.00363688
0.00139731
0.000475222
0.0056093
0.00875412
0.00176104
0.00410304
0.00107734
0.00334019
0.00274826
0.00187309
0.00221106
0.003833
0.00031567
0.00220984
0.00454348
0.0014073
0.00870723
0.0106783
0.00309747
0.00642584
0.00112402
0.00410623
0.0033624
0.00326587
0.00443286
0.00153443
0.00156462
0.00369632
0.0024537
0.00368295
1.57465e-05
0.00418467
0.00143056
0.00232984
0.00646039
0.00863657
0.0112917
0.000324485
0.00844359
0.00218679
0.00168827
0.00123227
0.000747086
0.00208227
0.00670019
0.000669072
0.000346954
0.00182479
0.00174292
0.002497
0.000131269
0.00432257
0.000473256
0.00785133
0.000426582
0.00815389
0.0108355
0.000331257
0.00429615
0.00366732
0.00589532
0.00155751
0.00416968
0.00310472
0.000671714
0.000685469
0.00210297
0.00312593
0.000154614
0.00280591
0.00786745
0.000694278
0.0029587
0.00371663
0.00680506
0.00721747
0.00838917
0.00233802
0.00305983
0.00157392
0.00306416
0.004733
0.00273224
0.00688914
0.00783912
0.000780313
0.00552609
0.0119446
0.000203035
0.00227281
0.00895112
0.00262123
0.00154942
0.00414652
0.00589023
0.000352319
0.0108196
0.00636202
0.00139232
0.0069136
0.000655631
0.00534369
0.00449893
0.00313393
0.0021619
0.00589934
0.0007227
0.000468375
0.000870543
0.00158745
0.000396145
0.00260547
0.00324482
0.00251334
0.00383468
0.00134785
0.00293255
0.00019272
0.00726485
0.00184393
0.000756842
0.00213093
0.000868206
9.41012e-05
0.00504062
0.00301628
0.00270321
0.00159837
0.00266748
0.000933178
0.00181046
0.00186029
0.00515879
0.000953102
0.000615379
0.00319851
0.000837568
0.00267334
0.000515099
0.00268793
0.00208895
0.000175256
0.00281597
0.0040485
0.000697415
0.00112684
0.00422722
0.000159005
0.0052537
0.00388717
0.00161092
0.00286635
0.00277991
0.00588651
0.00102557
0.00211365
0.00557793
0.00215198
0.00163132
0.00349789
0.00193585
0.00177197
0.00731996
0.0010421
0.00392162
0.00573127
0.00547932
0.000914383
0.00452973
0.00174966
0.00508262
0.00192353
0.00375126
0.00218696
0.0043322
0.000868271
0.00876452
0.00816438
0.00191454
0.00214405
0.00273489
0.00442542
0.0018923
0.00212977
0.000191826
0.0045918
0.00732684
0.00531214
0.00143897
0.000563683
0.000856721
0.00155763
0.00176579
0.00210455
0.00395617
0.00986449
0.0143235
0.00525435
0.000855452
0.00115126
0.00149368
0.0090878
0.00229451
0.00581112
0.00592902
0.00706987
0.00128991
0.00247072
0.00517338
0.000656199
0.00281484
0.000108797
0.00377455
0.00232719
0.00310839
0.00640409
0.00840661
0.0112129
0.00471465
0.0030436
0.000567858
0.00141224
0.0032673
0.0041227
0.00283049
0.000456041
0.00339544
0.00177754
0.000425872
0.00289231
0.00317541
0.00491779
0.00410555
0.00418387
0.00268876
0.00518608
0.0127559
0.0041484
0.000609582
0.000950304
0.00212716
0.00405203
0.00151118
0.00271954
0.00469281
0.00272961
0.00482391
0.000841602
0.00217721
0.00283427
0.00127018
0.000634178
0.000444701
0.00792863
0.00559701
0.00168589
0.0110604
0.00204409
0.00493483
0.0044716
0.00253266
0.00332238
0.000693878
0.00507417
0.00225933
0.00251369
0.00694433
0.0010602
0.000720205
0.00345915
0.00493312
0.0034375
0.00471443
0.00424373
0.00376298
0.0032053
0.00577924
0.00104939
0.00186035
0.00168303
0.00160468
0.00300876
0.00211911
0.00194775
0.001456
0.000782607
0.00632306
0.00367938
0.007524
0.00123568
0.00173055
0.00158006
0.00492168
0.00312348
5.71408e-05
0.00166921
0.000498907
0.000751068
0.00021182
0.00174954
0.00106644
0.000252438
0.00132208
0.00619137
0.00933767
0.00232334
0.00227338
0.00638026
0.000633935
0.00221296
0.00143841
0.0036064
0.000645073
0.0026605
0.000230903
0.00112416
0.00583619
0.00221007
0.00407387
0.00150504
0.00401793
0.00038448
0.00370943
0.00615996
0.00632861
0.00154554
0.00393951
0.00382475
0.000889356
0.00568845
0.00355039
0.00574707
0.00311001
0.00262885
0.00313934
0.00310787
0.0115113
0.0045576
0.00422565
0.00264186
0.00384099
0.00205331
0.000501452
0.000674611
0.0040672
0.00345219
0.00337222
0.00564745
0.00143369
0.00160261
0.000357138
0.00165266
0.00238114
0.00202249
0.00505141
0.0088809
0.00541955
0.00171717
0.0012051
0.00130418
0.000158706
0.000308143
0.0021936
0.000456178
0.00282957
0.000115163
0.000826449
0.00894579
0.00130655
0.00704469
0.000935525
0.0051346
0.000770798
0.00466724
0.000821796
0.00542565
0.0110068
0.00224718
0.004182
0.003903
0.000701984
0.00346347
0.00270611
0.000464254
0.0012996
0.00643074
0.00413194
0.00429169
0.0036306
0.00109904
0.00348015
0.00422559
0.00149623
0.000276813
0.00619852
0.0024761
0.00737381
0.00405769
0.00111633
0.00121746
0.00197306
0.0013287
0.00641256
0.00212065
0.00419059
0.000200243
0.00486817
0.00279058
0.00218986
0.000577219
0.00992959
0.000633968
0.0042584
0.00202186
0.000935664
0.00239527
0.00682695
0.00514714
0.00268563
0.00252117
0.00492791
0.00206491
0.00216102
0.00376262
0.00081248
0.00111873
0.000182418
0.00240939
0.00587324
0.000599639
0.00389429
0.00233451
0.00711169
0.00275401
0.0116818
0.00352447
0.00605007
0.00199361
0.0104319
0.00488229
0.00202437
0.00247595
0.00440771
0.00228792
0.00290559
0.0055496
0.00298555
0.00106573
0.00293394
0.00175368
0.00144366
0.00610663
0.00551734
0.00059465
0.00906239
0.00100353
0.00367365
0.000200302
0.00255204
0.00657486
0.00125295
0.00040062
0.000101594
0.000397509
0.00153201
0.00256016
0.00569247
0.00235329
0.00240859
0.0029152
4.03656e-05
0.00119838
0.00606259
0.00212542
0.000632177
0.00853441
0.000871202
0.00166496
0.00411926
0.00443026
0.00277472
0.00429724
0.00112188
0.000428592
0.00428184
0.00177917
0.00511914
0.000686885
0.00733461
0.000885793
0.00439203
0.00861104
0.00133169
0.00220888
0.00648375
0.00586912
0.0206211
0.0112393
0.00790897
0.00318244
4.0592e-05
0.00809639
0.00186169
0.00454651
0.00762254
0.0112564
0.01019
0.00256133
0.00103596
0.0053677
0.00527747
0.00482283
0.00214858
0.00566716
0.00782613
0.0118694
0.0109671
0.0143938
0.00486589
0.00347088
0.000508845
0.00327181
0.000303955
0.000723088
0.00139442
0.000369735
0.00759926
0.0117334
0.00686591
5.4745e-06
0.00592457
0.00378141
0.000356772
0.00558643
0.00644745
0.00938664
0.00955474
0.00390655
0.000434609
0.00206816
0.00304247
0.00135742
0.0003414
0.00353653
0.00366644
0.00553409
0.000201322
0.00406864
0.000288333
0.00585659
0.00399615
0.000383313
0.000457032
2.97513e-05
0.00673512
0.00598169
0.0030904
0.00753384
0.000106731
0.00429308
0.00339322
0.00309194
0.00644746
0.00177229
0.00400125
0.00143351
1.99436e-05
0.00305532
0.00373798
0.00447681
0.00564496
0.00454582
0.00869004
0.00540351
0.00372402
0.00011385
0.00762456
0.00399594
0.0021452
0.00674545
0.00126547
0.00287988
0.00211166
0.000568406
0.00177245
0.00707809
0.00147121
0.00104161
0.00781885
0.000239513
0.00292386
0.00465026
0.00290207
0.00206041
0.00393502
0.00460472
0.00539241
0.00149541
0.00634776
0.00594745
0.00488976
0.00303083
0.00177166
0.00152608
0.0031487
0.00135395
0.00233583
0.00313053
0.000584764
0.000207693
0.00422898
0.0053351
0.00177883
0.00156147
0.00818854
0.0005335
0.00666123
0.00653036
0.00189233
0.000784874
0.00314455
0.00280306
0.00209564
0.00420974
0.00133947
0.00325208
0.00727405
0.0103927
0.00194441
0.00442606
0.00215248
0.00205004
0.00342117
0.00406993
0.00109985
0.00171988
0.00286783
0.00718135
0.00712347
0.00256689
0.00380751
0.00980529
0.0023447
0.0024203
0.00470725
0.00852213
0.0034041
0.0040801
0.00255485
0.0021691
0.00229697
0.0032243
0.00327597
0.0018167
0.0032105
0.00805126
0.013287
0.00418593
0.00438853
0.00752177
0.00083373
0.00467081
0.00034433
0.00243878
0.00537304
0.00772384
0.00789975
0.00521899
0.00626715
0.00747031
0.00854548
0.00567404
0.000969457
0.00569619
0.00787927
0.00922916
0.00590934
0.00245712
0.00415484
0.000354872
0.00381635
0.00114333
0.00319575
1.55918e-05
0.0035442
0.00062385
0.000658402
0.0131655
7.82035e-05
0.00829515
0.00072091
0.00121034
0.000426712
0.00025478
0.000341604
0.00616198
0.00171537
0.0081611
0.00424121
0.000258538
0.00374939
0.00112014
0.000319456
0.000937056
9.55992e-05
0.00664803
0.00575715
0.00398639
0.00238325
0.00194649
0.00643867
0.00060071
0.000678059
0.00448012
0.00153223
0.00979205
0.00883436
0.00693673
0.0045487
0.000588575
0.000567261
0.00228617
0.00837161
0.00169117
0.0019482
0.00818718
0.00804588
0.00895152
0.00754227
0.000499023
0.00532627
0.0043741
0.00411555
0.00240316
0.00763006
0.00566732
0.00136634
0.00231204
0.00269178
0.00357668
0.00373548
0.00558665
0.00337417
0.00970647
0.00294264
0.00807003
0.0132451
0.0066735
0.00937324
0.00160988
0.000683461
0.0037978
6.7612e-05
0.00145094
0.002481
4.524e-05
0.00273359
0.000901366
0.00734197
0.00248996
0.00353061
0.00672341
0.00362261
0.00261779
0.00102622
0.0110005
0.00531026
0.00615867
0.000488993
0.00845604
0.00429236
0.00261405
0.00538358
0.00146185
0.00698448
0.00434045
0.00155075
0.00728242
0.00166347
0.00335821
0.00182716
0.000533247
0.00516137
0.00608811
0.00253611
0.00544533
0.00224939
0.000632944
0.00617183
0.00498166
0.00306282
0.00335429
0.00969033
0.000667913
0.0024011
0.0051056
2.75768e-05
0.00285578
0.00491605
0.0026086
0.00424043
0.000782084
0.000522572
0.00403258
0.00113552
0.00151096
0.00154833
0.00557797
0.00159812
2.42081e-05
0.000364019
0.0061614
0.00555527
0.00248153
0.00681952
0.000466883
0.00642701
0.00840069
0.00545333
0.000534166
9.72677e-05
0.00243769
0.00284277
0.00288615
0.00766772
0.00689785
0.00712055
0.009426
0.00886119
0.00766578
0.00234248
0.00414032
0.00373777
0.00451069
0.000809658
0.00368596
0.0108216
8.41141e-05
0.00598825
0.000207554
0.00150854
0.000208987
0.00580931
0.0010833
0.00617925
0.00241102
0.000664339
0.00625644
0.000491012
0.00396938
0.00114821
0.00495013
0.00156455
0.00137637
7.63547e-05
0.00294639
0.0164172
0.00801458
0.00573912
7.87037e-06
0.00720322
0.00588284
0.00182861
0.00461113
0.00734733
0.00431782
0.00639687
0.00331711
0.00222557
0.00347612
0.00247005
0.0062607
0.00176539
0.00156452
0.00689208
0.00968864
0.00899629
0.0036602
0.00112587
0.001255
0.000431725
0.000577995
0.00312431
0.00250092
0.00188113
0.0113709
0.00822435
0.00769346
0.00131428
0.00340338
0.000620946
0.000300313
0.0031934
0.00188438
0.00582429
0.00840764
0.00562449
0.00560013
0.0093006
0.00644719
0.00352237
0.00511956
0.00395108
0.00281991
0.0013708
0.00868407
0.00721381
0.00561394
0.00351304
0.00274721
0.00133968
0.000695775
0.00149709
0.00294945
0.00500903
0.00658445
0.00600164
0.000280939
0.00233726
0.00420506
0.00515852
0.00135415
0.0011676
0.000754576
0.00428766
0.0102473
0.0012648
0.000832993
0.00113392
0.0017283
0.00142693
0.00219379
0.000205332
0.00142341
0.000711108
0.00489893
0.00568071
0.00234956
0.00323252
0.00251712
0.00499227
0.00195544
0.00402879
0.00178539
0.00204438
0.00253285
0.00477371
0.000362811
0.000303
0.00542406
0.00302078
0.00520925
1.36068e-05
0.000630215
0.00210012
0.00367529
0.00710588
0.00215125
0.00629501
0.000840105
0.0066526
0.0049512
0.00108748
8.84442e-05
0.00179241
0.00501785
0.0030954
0.00390508
0.00162972
0.0063607
0.00287708
0.00461327
0.00274557
0.000637689
0.00245624
0.00648238
0.0191811
0.00855966
0.00917024
0.00809577
0.00202915
0.00111901
0.00362503
0.00278291
0.00492212
0.0104811
0.0123139
0.00681846
0.0110615
0.000141111
0.00526749
0.00499446
0.00156519
0.000166664
0.00695454
0.00392724
0.0121895
0.000237236
0.00420954
0.000196237
0.00557214
0.00348921
0.00448987
0.00524691
0.000835967
0.00916989
0.00320117
0.00447077
0.00350816
0.00814433
0.000672889
0.00136592
0.00655454
0.00198719
0.00157758
0.00631256
0.00663209
0.0110279
0.000194879
0.00671139
0.00120627
0.00419064
0.00913285
0.00202509
0.00690831
0.00973261
0.0100956
0.0044303
0.00553531
0.00446389
0.00256616
0.00479733
0.00172698
0.00135458
0.00232335
0.007285
0.0100421
0.00172883
0.00508899
0.00510117
0.000819506
0.00114677
0.00126656
0.00442327
0.000919553
0.00840247
0.00334486
0.00175273
0.00708739
0.00897327
0.0066688
0.00342954
0.00361699
0.00415558
0.0064812
0.00786524
0.0138558
0.00316307
0.00316871
0.00838188
0.00205251
0.00287163
0.00342369
0.00266067
0.00544215
0.00495589
0.000804314
0.000787584
0.00220934
0.00137212
0.00249816
0.00198343
0.0115727
0.0014566
0.00308268
0.00277829
0.00695718
0.00156179
0.00250491
0.00380213
0.00226863
0.00469345
0.00795674
0.00430567
0.000573884
0.00262942
0.00370027
0.0034389
0.00411834
0.00655098
0.000420296
0.00419236
0.00469509
0.000806091
0.00594373
0.00101352
0.00185296
0.000963275
0.000887182
0.0016576
0.0061373
0.00216195
0.000912455
0.00114419
0.00254891
0.00200189
0.00854884
0.00743438
0.00256419
0.000973509
0.00838036
0.00588841
0.00665102
0.00134282
0.000540125
0.00308495
0.00663576
0.00161328
0.000953577
0.00514551
0.00393855
0.003307
0.00401333
0.00716437
0.00573264
0.0061915
0.00362032
0.00162683
0.00130433
0.000961193
0.00137554
0.000951059
0.000690299
0.0056648
0.00985201
0.00256337
0.00908839
0.00548562
0.00281555
0.001789
0.000192097
0.000521453
0.005957
0.00432343
0.00643028
0.00534651
0.0047337
0.00523023
0.00203043
0.00752879
0.00347994
0.00558504
0.00150374
0.00354716
0.00312986
0.013354
0.00484078
0.000518851
0.00450247
0.000480656
0.00108543
0.00127482
0.000490492
0.00172951
0.00220313
0.0019165
0.00224363
0.0014089
0.000251232
0.006546
0.00079731
0.00306269
0.00115847
0.00317568
0.000143621
0.0052867
0.00635881
0.00806995
0.000794239
0.006264
0.00451492
0.00597255
0.00384037
0.00249144
0.00339251
0.00188822
0.00792875
0.00843988
0.00605025
0.00740324
0.0106865
0.00385298
0.00228033
0.00304043
0.00100743
0.00135828
0.00373378
0.00541007
0.00154479
0.00374912
0.00216833
0.00866016
0.00641643
0.0010883
0.00123763
0.00942633
0.000406676
0.00384769
0.00215624
0.0111537
0.000275491
0.00129404
0.00295506
0.000171401
0.00623655
0.000911171
0.00233121
0.00171159
0.00516367
0.00481763
0.00153711
0.00264564
0.00536515
0.00379392
0.00439572
0.00485187
0.00792061
0.00348883
0.0109846
0.00228237
0.00414147
0.00475398
0.00144264
0.00885761
0.00371939
0.00192257
0.00261682
0.000677512
0.00142069
0.000752602
0.00773527
0.00119315
0.00087749
0.00150081
0.00154195
0.000114646
0.00252742
0.00155694
0.00625075
0.00616859
0.00230941
0.00385273
0.00128063
0.000701349
0.00176019
0.00563676
0.00363724
0.00587005
0.00290959
0.001815
0.00431393
0.00516341
0.00380578
0.0031412
0.00388852
0.000910854
0.00252851
0.00428903
0.00391562
0.00114983
0.000385249
0.000751349
0.00548553
0.00385963
0.00306907
0.00240163
0.00416635
0.00012474
0.00268614
0.00119706
0.00503876
0.00230868
0.000353344
0.00371196
0.00462386
0.00268332
0.000546861
0.000608329
0.000289683
0.00128539
0.00751582
0.00443849
0.00197633
0.00337915
0.00638498
0.00113299
0.00752654
0.00732702
0.00706338
0.0082346
0.000693119
0.00750178
0.00552687
0.00565599
0.00556321
0.00878205
0.0120552
0.0111785
0.00730945
0.00275679
0.00507288
0.00498012
0.00213636
0.00250559
0.00526922
0.00584664
0.00147376
0.003166
0.00080769
0.00242434
0.00421807
0.000710466
0.00757594
0.00122997
0.00677261
0.00475432
0.000572578
0.00217596
0.00674658
0.00430406
0.0022946
0.0059987
0.000819972
0.00349909
0.00599413
0.00735094
0.00170805
0.00890579
0.00724042
0.00335481
0.00467204
0.000533525
0.00203955
0.0011371
0.0087457
0.00830678
0.000172014
0.00799755
0.00190034
0.0024688
0.000250061
0.00259507
0.00244183
0.000174881
0.00275625
0.00270436
0.00668999
0.00265974
0.000613146
0.002836
0.00327393
0.00354526
4.89481e-05
0.00510918
0.000211547
0.00287401
0.000240449
0.000626221
0.000466694
0.00758583
0.00622587
0.00128141
0.00101687
0.00201839
0.00346581
0.011084
0.00251743
0.00313537
0.000116513
0.00100672
0.00482024
0.00243937
0.00312882
0.00196146
0.00820787
0.00169506
0.0019796
0.00441767
0.00438783
0.000552517
0.00540154
0.00123588
0.0024988
0.00344445
0.00213182
0.00154284
0.00179115
0.00106278
0.00541252
0.00329522
0.00417771
0.00260686
0.00675508
0.00249071
0.00610878
0.00438278
0.00408533
0.00195054
0.0022994
0.00241017
0.00274836
0.00516551
0.00295269
0.00362243
0.00107629
0.000746767
0.0057798
0.00772861
0.00845583
0.00281994
0.0041867
0.0038836
0.00711059
0.000990059
0.00651849
0.00151582
0.00220061
0.0032342
0.00263868
0.00217759
0.00402446
0.0065101
0.00259093
0.00528123
0.00318607
0.00252192
0.000809473
0.00380888
0.00445758
0.0011907
0.000598472
0.00175092
0.00351939
0.00380984
0.00286576
0.00188986
0.000293998
0.00172179
0.00318752
0.0041225
0.00730832
0.00549736
0.00462127
0.00170765
0.00187199
0.00605452
0.00457182
0.00523728
0.00143746
0.00346733
0.00753194
0.000530228
0.00207426
0.00670489
0.00736018
0.00687646
0.00136431
0.00291702
0.00128723
0.000280971
0.00141537
0.000204257
0.00629914
0.000145716
0.0038671
0.012796
0.00400352
0.000935974
0.00340584
5.5592e-05
0.00275954
0.000750155
0.00109595
0.000913865
0.000892972
0.000581992
0.00019162
0.00374837
0.001559
0.00301572
0.00126062
0.00266152
0.000637156
0.000192081
0.00110138
0.00490928
0.00614869
0.0066009
0.00179583
0.00145854
0.0022293
0.00218391
0.00402935
0.000526535
0.00361369
0.00253598
0.00394428
0.000141462
0.00251059
0.00478286
0.00316552
0.0025513
0.000792029
0.00136464
0.00320348
0.00416624
0.00322397
0.00501694
0.00228014
0.0043594
0.000660686
0.00432297
0.0019432
0.000891802
0.00268481
0.00144804
0.00128625
0.00024013
0.00382219
3.63888e-06
0.0007863
0.00370231
0.00372366
0.00279428
0.00438102
0.00485357
4.40006e-05
0.00204377
0.00115429
0.000987931
0.0019096
0.00161867
0.00549784
0.00140256
0.00876728
0.00030528
0.00396487
0.000483584
0.00557446
0.00851004
0.000109703
0.000707813
0.00129262
0.00762775
0.00710407
0.000987063
0.00496426
0.00476007
0.000353094
0.000884619
0.00361432
0.00423176
0.00530583
0.00524804
0.000705485
0.00813858
0.00592712
0.0055463
0.000733142
0.00256321
0.00313454
0.00744534
0.000583304
0.00195441
0.00472378
0.00361251
0.00133414
0.000930422
0.00639666
0.00661435
0.00278557
0.00333111
0.00450124
0.00151955
0.000952724
0.000285026
0.00356379
0.00408712
0.00398433
0.000564591
0.00137981
0.00325785
0.00387877
0.00109673
0.00215806
0.00139035
0.000888257
0.00028807
0.0023874
0.00644963
0.00168342
0.00215974
0.003377
0.00107016
0.000974688
0.00166617
0.000472182
0.00527382
0.00728369
0.00467034
0.00243799
0.00314574
0.00289115
0.0062779
0.00666979
0.00212598
0.00397998
0.0032308
0.00373146
0.00213669
0.00446284
0.000193717
0.00224033
0.000193397
0.00316271
0.00576759
5.49736e-05
0.00524571
0.00277451
0.000845815
0.00499909
0.00734445
0.00341147
0.00798612
0.000427501
0.00379883
0.000366935
0.00350582
0.00993806
0.00391628
0.000320306
0.00387821
0.000766397
0.00263098
0.00270943
0.00579907
0.00356502
0.00117243
0.000478135
0.00460983
0.00886202
0.0046199
0.00369025
0.0033871
0.00547097
0.00547685
0.00669168
0.000869543
0.00651668
0.000757503
0.00686869
0.005671
0.00213006
0.00152101
0.0033047
0.00152548
0.00842389
0.00258756
0.00308406
0.00487569
0.00349478
0.0102741
0.0031234
0.00717997
0.000280246
0.00468747
0.00473287
0.00626155
0.0017512
0.00231214
0.00114741
0.00149652
0.000685816
0.0041699
0.00668172
0.00719028
0.000138192
0.00300702
0.00211178
0.00124189
0.000202816
0.00350445
0.00507677
0.000451677
0.00257519
0.00271269
0.00677409
0.000357591
0.00636496
0.00472077
0.000376598
0.00126843
0.00190027
0.00549707
0.00376636
0.00316525
0.000436317
0.00448852
0.00182873
0.00321236
0.000482996
0.00334931
0.00264114
0.000670687
0.000406033
0.00150308
0.00389867
0.00474499
0.000900218
0.00160895
0.00647969
0.0047264
0.00386894
0.00186955
0.0025451
0.000280769
0.000931401
0.00257665
0.0005297
0.000762149
0.00566825
0.000522169
0.00101634
0.00446942
0.00609176
0.00110808
0.00550381
0.000748113
0.00669317
0.0032229
0.00247858
0.00758096
0.00242387
0.00333011
0.0024914
0.00543442
0.00214609
0.00191883
0.00126491
0.00358259
0.00209786
0.00142611
0.00493505
0.00521747
0.000541643
0.000473455
0.00119546
0.00487338
0.00593896
0.00350379
0.00195543
0.000540773
0.00467454
0.00297364
0.00367438
0.000140958
0.00256451
0.00377007
0.0036109
0.00452681
0.000575408
0.00292455
9.26973e-06
0.000689176
0.00351122
0.00217415
0.0004317
0.00162173
0.00867006
0.00707782
0.000633389
0.0085002
0.00156295
0.00194856
0.00169681
0.000820485
0.00277955
0.000360096
0.000238254
0.00156021
0.00369968
0.00953736
0.00318953
0.00373671
0.00220516
0.00200396
0.00134464
0.000512712
0.000195952
0.00195937
0.00398982
0.000602426
0.00326258
0.00186218
0.0109788
0.000567992
0.000141819
0.00302516
0.000415642
0.00103574
0.00129269
0.000368135
6.89993e-05
0.00240803
0.00120704
0.00342743
0.00105811
0.0013886
0.00710396
0.00375644
0.00358295
0.00268366
0.00594671
0.0053017
0.00121423
0.00285304
0.00339686
0.00183533
0.000465349
0.00337381
0.00793777
0.0117445
0.00153621
0.00148
0.00636509
0.000667828
0.00365491
0.00117138
0.000195535
0.0101406
0.00205597
0.00242776
0.00447104
0.00110111
0.00263496
0.00218063
0.00111638
0.0041165
0.00518857
0.00212491
0.000418924
0.00712381
0.00800803
0.00479045
0.00165437