/*--------------------------------*- C++ -*----------------------------------*\
| =========                 |                                                 |
| \\      /  F ield         | OpenFOAM: The Open Source CFD Toolbox           |
|  \\    /   O peration     | Version:  2212                                  |
|   \\  /    A nd           | Website:  www.openfoam.com                      |
|    \\/     M anipulation  |                                                 |
\*---------------------------------------------------------------------------*/
FoamFile
{
    version     2.0;
    format      ascii;
    arch        "LSB;label=32;scalar=64";
    class       volScalarField;
    location    "0";
    object      Tdirect;
}
// * * * * * * * * * * * * * * * * * * * * * * * * * * * * * * * * * * * * * //

dimensions      [0 0 0 1 0 0 0];

internalField   nonuniform List<scalar> 
3200
(
323.726
324.05
324.464
324.915
325.38
325.836
326.258
326.613
326.872
327.009
327.009
326.872
326.613
326.258
325.836
325.38
324.915
324.464
324.05
323.726
320.492
320.766
321.124
321.514
321.916
322.311
322.675
322.982
323.206
323.324
323.324
323.206
322.982
322.675
322.311
321.916
321.514
321.124
320.766
320.492
317.289
317.517
317.818
318.148
318.488
318.821
319.128
319.388
319.576
319.676
319.676
319.576
319.388
319.128
318.821
318.488
318.148
317.818
317.517
317.289
314.113
314.296
314.541
314.811
315.089
315.361
315.612
315.824
315.978
316.059
316.059
315.978
315.824
315.612
315.361
315.089
314.811
314.541
314.296
314.113
310.958
311.098
311.289
311.498
311.714
311.926
312.121
312.285
312.405
312.468
312.468
312.405
312.285
312.121
311.926
311.714
311.498
311.289
311.098
310.958
307.819
307.919
308.054
308.204
308.358
308.509
308.648
308.766
308.851
308.896
308.896
308.851
308.766
308.648
308.509
308.358
308.204
308.054
307.919
307.819
304.692
304.751
304.833
304.923
305.015
305.106
305.189
305.26
305.311
305.338
305.338
305.311
305.26
305.189
305.106
305.015
304.923
304.833
304.751
304.692
301.572
301.592
301.619
301.649
301.68
301.711
301.739
301.762
301.779
301.788
301.788
301.779
301.762
301.739
301.711
301.68
301.649
301.619
301.592
301.572
323.805
324.127
324.537
324.984
325.444
325.896
326.312
326.663
326.918
327.053
327.053
326.918
326.663
326.312
325.896
325.444
324.984
324.537
324.127
323.805
320.56
320.832
321.186
321.573
321.971
322.362
322.721
323.025
323.246
323.362
323.362
323.246
323.025
322.721
322.362
321.971
321.573
321.186
320.832
320.56
317.347
317.572
317.871
318.198
318.534
318.864
319.168
319.424
319.61
319.708
319.708
319.61
319.424
319.168
318.864
318.534
318.198
317.871
317.572
317.347
314.159
314.341
314.584
314.851
315.127
315.396
315.644
315.853
316.005
316.085
316.085
316.005
315.853
315.644
315.396
315.127
314.851
314.584
314.341
314.159
310.994
311.133
311.322
311.529
311.743
311.953
312.145
312.308
312.426
312.488
312.488
312.426
312.308
312.145
311.953
311.743
311.529
311.322
311.133
310.994
307.845
307.943
308.078
308.226
308.379
308.528
308.666
308.782
308.866
308.91
308.91
308.866
308.782
308.666
308.528
308.379
308.226
308.078
307.943
307.845
304.707
304.766
304.847
304.936
305.028
305.117
305.2
305.269
305.32
305.347
305.347
305.32
305.269
305.2
305.117
305.028
304.936
304.847
304.766
304.707
301.577
301.597
301.624
301.654
301.684
301.714
301.742
301.765
301.782
301.791
301.791
301.782
301.765
301.742
301.714
301.684
301.654
301.624
301.597
301.577
323.964
324.28
324.684
325.123
325.573
326.015
326.421
326.764
327.013
327.144
327.144
327.013
326.764
326.421
326.015
325.573
325.123
324.684
324.28
323.964
320.697
320.965
321.313
321.692
322.082
322.464
322.816
323.112
323.327
323.44
323.44
323.327
323.112
322.816
322.464
322.082
321.692
321.313
320.965
320.697
317.461
317.684
317.977
318.298
318.627
318.95
319.247
319.497
319.678
319.774
319.774
319.678
319.497
319.247
318.95
318.627
318.298
317.977
317.684
317.461
314.253
314.432
314.671
314.933
315.203
315.466
315.709
315.913
316.061
316.139
316.139
316.061
315.913
315.709
315.466
315.203
314.933
314.671
314.432
314.253
311.066
311.203
311.389
311.593
311.802
312.007
312.195
312.354
312.469
312.53
312.53
312.469
312.354
312.195
312.007
311.802
311.593
311.389
311.203
311.066
307.896
307.993
308.126
308.271
308.421
308.567
308.702
308.815
308.897
308.94
308.94
308.897
308.815
308.702
308.567
308.421
308.271
308.126
307.993
307.896
304.738
304.796
304.876
304.963
305.053
305.141
305.221
305.289
305.338
305.364
305.364
305.338
305.289
305.221
305.141
305.053
304.963
304.876
304.796
304.738
301.588
301.607
301.633
301.663
301.693
301.722
301.749
301.772
301.789
301.797
301.797
301.789
301.772
301.749
301.722
301.693
301.663
301.633
301.607
301.588
324.202
324.512
324.905
325.332
325.769
326.197
326.589
326.919
327.159
327.286
327.286
327.159
326.919
326.589
326.197
325.769
325.332
324.905
324.512
324.202
320.902
321.164
321.503
321.872
322.251
322.621
322.96
323.246
323.453
323.562
323.562
323.453
323.246
322.96
322.621
322.251
321.872
321.503
321.164
320.902
317.634
317.851
318.137
318.449
318.769
319.082
319.368
319.609
319.784
319.876
319.876
319.784
319.609
319.368
319.082
318.769
318.449
318.137
317.851
317.634
314.393
314.568
314.801
315.056
315.318
315.573
315.808
316.004
316.147
316.222
316.222
316.147
316.004
315.808
315.573
315.318
315.056
314.801
314.568
314.393
311.175
311.309
311.49
311.688
311.892
312.09
312.272
312.425
312.536
312.594
312.594
312.536
312.425
312.272
312.09
311.892
311.688
311.49
311.309
311.175
307.974
308.069
308.198
308.339
308.484
308.626
308.756
308.865
308.944
308.986
308.986
308.944
308.865
308.756
308.626
308.484
308.339
308.198
308.069
307.974
304.785
304.841
304.919
305.004
305.091
305.176
305.254
305.32
305.367
305.392
305.392
305.367
305.32
305.254
305.176
305.091
305.004
304.919
304.841
304.785
301.603
301.622
301.648
301.676
301.706
301.734
301.76
301.782
301.798
301.807
301.807
301.798
301.782
301.76
301.734
301.706
301.676
301.648
301.622
301.603
324.522
324.822
325.202
325.614
326.035
326.444
326.819
327.134
327.362
327.482
327.482
327.362
327.134
326.819
326.444
326.035
325.614
325.202
324.822
324.522
321.177
321.431
321.759
322.115
322.479
322.834
323.158
323.43
323.627
323.731
323.731
323.627
323.43
323.158
322.834
322.479
322.115
321.759
321.431
321.177
317.865
318.076
318.352
318.653
318.961
319.261
319.535
319.765
319.931
320.019
320.019
319.931
319.765
319.535
319.261
318.961
318.653
318.352
318.076
317.865
314.582
314.751
314.977
315.223
315.474
315.719
315.943
316.131
316.267
316.338
316.338
316.267
316.131
315.943
315.719
315.474
315.223
314.977
314.751
314.582
311.321
311.451
311.626
311.817
312.013
312.203
312.377
312.523
312.628
312.684
312.684
312.628
312.523
312.377
312.203
312.013
311.817
311.626
311.451
311.321
308.078
308.17
308.294
308.431
308.571
308.707
308.831
308.935
309.01
309.05
309.05
309.01
308.935
308.831
308.707
308.571
308.431
308.294
308.17
308.078
304.847
304.902
304.977
305.059
305.143
305.224
305.299
305.361
305.407
305.43
305.43
305.407
305.361
305.299
305.224
305.143
305.059
304.977
304.902
304.847
301.624
301.642
301.667
301.695
301.723
301.75
301.775
301.796
301.811
301.819
301.819
301.811
301.796
301.775
301.75
301.723
301.695
301.667
301.642
301.624
324.924
325.213
325.578
325.972
326.372
326.761
327.116
327.413
327.628
327.741
327.741
327.628
327.413
327.116
326.761
326.372
325.972
325.578
325.213
324.924
321.523
321.767
322.082
322.423
322.77
323.107
323.414
323.67
323.856
323.954
323.954
323.856
323.67
323.414
323.107
322.77
322.423
322.082
321.767
321.523
318.157
318.359
318.624
318.912
319.206
319.49
319.75
319.967
320.123
320.206
320.206
320.123
319.967
319.75
319.49
319.206
318.912
318.624
318.359
318.157
314.819
314.982
315.198
315.433
315.673
315.906
316.118
316.295
316.423
316.49
316.49
316.423
316.295
316.118
315.906
315.673
315.433
315.198
314.982
314.819
311.505
311.63
311.798
311.98
312.167
312.348
312.513
312.65
312.75
312.802
312.802
312.75
312.65
312.513
312.348
312.167
311.98
311.798
311.63
311.505
308.209
308.297
308.417
308.547
308.681
308.81
308.927
309.026
309.097
309.134
309.134
309.097
309.026
308.927
308.81
308.681
308.547
308.417
308.297
308.209
304.925
304.978
305.05
305.129
305.209
305.286
305.357
305.416
305.458
305.481
305.481
305.458
305.416
305.357
305.286
305.209
305.129
305.05
304.978
304.925
301.65
301.668
301.692
301.718
301.745
301.771
301.795
301.814
301.829
301.836
301.836
301.829
301.814
301.795
301.771
301.745
301.718
301.692
301.668
301.65
325.41
325.686
326.034
326.408
326.786
327.152
327.485
327.763
327.963
328.068
328.068
327.963
327.763
327.485
327.152
326.786
326.408
326.034
325.686
325.41
321.941
322.175
322.475
322.798
323.126
323.443
323.731
323.971
324.144
324.235
324.235
324.144
323.971
323.731
323.443
323.126
322.798
322.475
322.175
321.941
318.508
318.702
318.955
319.228
319.505
319.773
320.017
320.219
320.365
320.442
320.442
320.365
320.219
320.017
319.773
319.505
319.228
318.955
318.702
318.508
315.105
315.261
315.467
315.69
315.917
316.136
316.335
316.501
316.62
316.683
316.683
316.62
316.501
316.335
316.136
315.917
315.69
315.467
315.261
315.105
311.726
311.846
312.006
312.18
312.356
312.526
312.681
312.81
312.902
312.951
312.951
312.902
312.81
312.681
312.526
312.356
312.18
312.006
311.846
311.726
308.367
308.451
308.565
308.689
308.815
308.937
309.047
309.139
309.205
309.24
309.24
309.205
309.139
309.047
308.937
308.815
308.689
308.565
308.451
308.367
305.02
305.071
305.139
305.214
305.289
305.362
305.429
305.484
305.524
305.544
305.544
305.524
305.484
305.429
305.362
305.289
305.214
305.139
305.071
305.02
301.682
301.699
301.722
301.747
301.772
301.797
301.819
301.837
301.851
301.858
301.858
301.851
301.837
301.819
301.797
301.772
301.747
301.722
301.699
301.682
325.981
326.243
326.573
326.925
327.28
327.622
327.931
328.188
328.373
328.47
328.47
328.373
328.188
327.931
327.622
327.28
326.925
326.573
326.243
325.981
322.433
322.654
322.939
323.243
323.551
323.847
324.115
324.337
324.497
324.581
324.581
324.497
324.337
324.115
323.847
323.551
323.243
322.939
322.654
322.433
318.921
319.105
319.345
319.602
319.863
320.113
320.339
320.527
320.662
320.733
320.733
320.662
320.527
320.339
320.113
319.863
319.602
319.345
319.105
318.921
315.442
315.59
315.785
315.995
316.208
316.413
316.598
316.752
316.862
316.92
316.92
316.862
316.752
316.598
316.413
316.208
315.995
315.785
315.59
315.442
311.987
312.101
312.252
312.416
312.581
312.74
312.884
313.004
313.09
313.134
313.134
313.09
313.004
312.884
312.74
312.581
312.416
312.252
312.101
311.987
308.552
308.633
308.741
308.858
308.976
309.09
309.192
309.278
309.339
309.371
309.371
309.339
309.278
309.192
309.09
308.976
308.858
308.741
308.633
308.552
305.132
305.18
305.244
305.315
305.386
305.454
305.516
305.567
305.603
305.623
305.623
305.603
305.567
305.516
305.454
305.386
305.315
305.244
305.18
305.132
301.719
301.735
301.757
301.78
301.804
301.827
301.848
301.865
301.877
301.884
301.884
301.877
301.865
301.848
301.827
301.804
301.78
301.757
301.735
301.719
326.639
326.886
327.196
327.526
327.857
328.174
328.459
328.696
328.865
328.954
328.954
328.865
328.696
328.459
328.174
327.857
327.526
327.196
326.886
326.639
322.999
323.208
323.475
323.761
324.048
324.322
324.569
324.774
324.92
324.997
324.997
324.92
324.774
324.569
324.322
324.048
323.761
323.475
323.208
322.999
319.398
319.571
319.797
320.038
320.28
320.512
320.722
320.894
321.018
321.083
321.083
321.018
320.894
320.722
320.512
320.28
320.038
319.797
319.571
319.398
315.829
315.969
316.153
316.35
316.548
316.738
316.909
317.051
317.152
317.205
317.205
317.152
317.051
316.909
316.738
316.548
316.35
316.153
315.969
315.829
312.287
312.395
312.537
312.691
312.845
312.993
313.126
313.235
313.314
313.355
313.355
313.314
313.235
313.126
312.993
312.845
312.691
312.537
312.395
312.287
308.766
308.842
308.944
309.053
309.164
309.269
309.364
309.443
309.499
309.528
309.528
309.499
309.443
309.364
309.269
309.164
309.053
308.944
308.842
308.766
305.26
305.305
305.366
305.432
305.498
305.561
305.618
305.666
305.699
305.717
305.717
305.699
305.666
305.618
305.561
305.498
305.432
305.366
305.305
305.26
301.762
301.777
301.798
301.82
301.842
301.863
301.882
301.898
301.909
301.915
301.915
301.909
301.898
301.882
301.863
301.842
301.82
301.798
301.777
301.762
327.385
327.617
327.907
328.214
328.52
328.812
329.074
329.29
329.444
329.525
329.525
329.444
329.29
329.074
328.812
328.52
328.214
327.907
327.617
327.385
323.641
323.838
324.088
324.353
324.619
324.872
325.099
325.286
325.419
325.489
325.489
325.419
325.286
325.099
324.872
324.619
324.353
324.088
323.838
323.641
319.938
320.101
320.312
320.536
320.761
320.975
321.167
321.325
321.438
321.496
321.496
321.438
321.325
321.167
320.975
320.761
320.536
320.312
320.101
319.938
316.269
316.4
316.572
316.756
316.94
317.115
317.272
317.401
317.493
317.541
317.541
317.493
317.401
317.272
317.115
316.94
316.756
316.572
316.4
316.269
312.628
312.729
312.862
313.005
313.148
313.284
313.406
313.507
313.579
313.616
313.616
313.579
313.507
313.406
313.284
313.148
313.005
312.862
312.729
312.628
309.009
309.081
309.176
309.278
309.38
309.477
309.564
309.636
309.687
309.714
309.714
309.687
309.636
309.564
309.477
309.38
309.278
309.176
309.081
309.009
305.405
305.448
305.505
305.566
305.628
305.686
305.738
305.782
305.812
305.828
305.828
305.812
305.782
305.738
305.686
305.628
305.566
305.505
305.448
305.405
301.811
301.825
301.844
301.865
301.885
301.905
301.922
301.937
301.947
301.953
301.953
301.947
301.937
301.922
301.905
301.885
301.865
301.844
301.825
301.811
328.22
328.438
328.707
328.992
329.274
329.542
329.781
329.976
330.116
330.189
330.189
330.116
329.976
329.781
329.542
329.274
328.992
328.707
328.438
328.22
324.36
324.544
324.777
325.023
325.268
325.499
325.706
325.876
325.997
326.06
326.06
325.997
325.876
325.706
325.499
325.268
325.023
324.777
324.544
324.36
320.543
320.695
320.892
321.1
321.307
321.503
321.678
321.822
321.924
321.977
321.977
321.924
321.822
321.678
321.503
321.307
321.1
320.892
320.695
320.543
316.762
316.885
317.045
317.215
317.384
317.545
317.688
317.805
317.889
317.932
317.932
317.889
317.805
317.688
317.545
317.384
317.215
317.045
316.885
316.762
313.01
313.104
313.229
313.361
313.493
313.618
313.729
313.82
313.885
313.919
313.919
313.885
313.82
313.729
313.618
313.493
313.361
313.229
313.104
313.01
309.281
309.348
309.437
309.531
309.625
309.714
309.794
309.859
309.906
309.93
309.93
309.906
309.859
309.794
309.714
309.625
309.531
309.437
309.348
309.281
305.569
305.608
305.662
305.718
305.775
305.828
305.876
305.915
305.943
305.958
305.958
305.943
305.915
305.876
305.828
305.775
305.718
305.662
305.608
305.569
301.866
301.879
301.897
301.916
301.935
301.953
301.969
301.982
301.991
301.996
301.996
301.991
301.982
301.969
301.953
301.935
301.916
301.897
301.879
301.866
329.146
329.349
329.599
329.861
330.12
330.364
330.581
330.758
330.884
330.949
330.949
330.884
330.758
330.581
330.364
330.12
329.861
329.599
329.349
329.146
325.157
325.329
325.545
325.772
325.996
326.208
326.395
326.549
326.658
326.714
326.714
326.658
326.549
326.395
326.208
325.996
325.772
325.545
325.329
325.157
321.214
321.356
321.538
321.73
321.92
322.099
322.258
322.387
322.48
322.527
322.527
322.48
322.387
322.258
322.099
321.92
321.73
321.538
321.356
321.214
317.308
317.423
317.571
317.728
317.883
318.03
318.16
318.266
318.341
318.381
318.381
318.341
318.266
318.16
318.03
317.883
317.728
317.571
317.423
317.308
313.434
313.522
313.637
313.759
313.88
313.993
314.095
314.177
314.236
314.266
314.266
314.236
314.177
314.095
313.993
313.88
313.759
313.637
313.522
313.434
309.583
309.645
309.727
309.814
309.901
309.982
310.055
310.114
310.155
310.177
310.177
310.155
310.114
310.055
309.982
309.901
309.814
309.727
309.645
309.583
305.75
305.787
305.836
305.888
305.94
305.989
306.032
306.068
306.093
306.106
306.106
306.093
306.068
306.032
305.989
305.94
305.888
305.836
305.787
305.75
301.926
301.939
301.955
301.973
301.99
302.006
302.021
302.033
302.041
302.046
302.046
302.041
302.033
302.021
302.006
301.99
301.973
301.955
301.939
301.926
330.165
330.352
330.583
330.824
331.061
331.283
331.479
331.638
331.751
331.81
331.81
331.751
331.638
331.479
331.283
331.061
330.824
330.583
330.352
330.165
326.034
326.193
326.392
326.601
326.806
326.998
327.168
327.306
327.404
327.455
327.455
327.404
327.306
327.168
326.998
326.806
326.601
326.392
326.193
326.034
321.951
322.083
322.251
322.428
322.601
322.764
322.908
323.025
323.107
323.15
323.15
323.107
323.025
322.908
322.764
322.601
322.428
322.251
322.083
321.951
317.909
318.015
318.152
318.296
318.438
318.571
318.689
318.785
318.853
318.888
318.888
318.853
318.785
318.689
318.571
318.438
318.296
318.152
318.015
317.909
313.899
313.981
314.087
314.199
314.31
314.413
314.505
314.579
314.632
314.659
314.659
314.632
314.579
314.505
314.413
314.31
314.199
314.087
313.981
313.899
309.915
309.972
310.048
310.128
310.207
310.281
310.347
310.4
310.438
310.457
310.457
310.438
310.4
310.347
310.281
310.207
310.128
310.048
309.972
309.915
305.948
305.983
306.028
306.076
306.124
306.168
306.208
306.24
306.262
306.274
306.274
306.262
306.24
306.208
306.168
306.124
306.076
306.028
305.983
305.948
301.993
302.004
302.019
302.036
302.052
302.066
302.08
302.09
302.098
302.102
302.102
302.098
302.09
302.08
302.066
302.052
302.036
302.019
302.004
301.993
331.275
331.449
331.661
331.882
332.097
332.298
332.475
332.618
332.719
332.772
332.772
332.719
332.618
332.475
332.298
332.097
331.882
331.661
331.449
331.275
326.99
327.137
327.321
327.512
327.698
327.872
328.026
328.15
328.237
328.283
328.283
328.237
328.15
328.026
327.872
327.698
327.512
327.321
327.137
326.99
322.756
322.878
323.032
323.194
323.352
323.499
323.629
323.734
323.808
323.847
323.847
323.808
323.734
323.629
323.499
323.352
323.194
323.032
322.878
322.756
318.564
318.662
318.788
318.92
319.05
319.17
319.277
319.363
319.423
319.455
319.455
319.423
319.363
319.277
319.17
319.05
318.92
318.788
318.662
318.564
314.407
314.482
314.58
314.683
314.783
314.877
314.96
315.027
315.074
315.098
315.098
315.074
315.027
314.96
314.877
314.783
314.683
314.58
314.482
314.407
310.277
310.33
310.4
310.473
310.545
310.612
310.671
310.719
310.753
310.77
310.77
310.753
310.719
310.671
310.612
310.545
310.473
310.4
310.33
310.277
306.165
306.197
306.239
306.283
306.326
306.367
306.402
306.431
306.451
306.461
306.461
306.451
306.431
306.402
306.367
306.326
306.283
306.239
306.197
306.165
302.065
302.076
302.09
302.105
302.119
302.133
302.145
302.154
302.161
302.165
302.165
302.161
302.154
302.145
302.133
302.119
302.105
302.09
302.076
302.065
332.477
332.637
332.832
333.033
333.229
333.411
333.57
333.698
333.788
333.835
333.835
333.788
333.698
333.57
333.411
333.229
333.033
332.832
332.637
332.477
328.024
328.16
328.328
328.503
328.673
328.83
328.968
329.079
329.157
329.198
329.198
329.157
329.079
328.968
328.83
328.673
328.503
328.328
328.16
328.024
323.626
323.738
323.88
324.028
324.171
324.305
324.421
324.516
324.582
324.616
324.616
324.582
324.516
324.421
324.305
324.171
324.028
323.88
323.738
323.626
319.273
319.363
319.479
319.599
319.717
319.826
319.922
319.999
320.053
320.081
320.081
320.053
319.999
319.922
319.826
319.717
319.599
319.479
319.363
319.273
314.956
315.025
315.115
315.209
315.301
315.385
315.46
315.52
315.562
315.584
315.584
315.562
315.52
315.46
315.385
315.301
315.209
315.115
315.025
314.956
310.668
310.717
310.781
310.848
310.913
310.974
311.027
311.07
311.1
311.116
311.116
311.1
311.07
311.027
310.974
310.913
310.848
310.781
310.717
310.668
306.4
306.429
306.467
306.508
306.547
306.583
306.615
306.641
306.659
306.669
306.669
306.659
306.641
306.615
306.583
306.547
306.508
306.467
306.429
306.4
302.144
302.154
302.167
302.18
302.193
302.205
302.216
302.225
302.231
302.234
302.234
302.231
302.225
302.216
302.205
302.193
302.18
302.167
302.154
302.144
333.765
333.913
334.092
334.275
334.453
334.616
334.759
334.874
334.955
334.996
334.996
334.955
334.874
334.759
334.616
334.453
334.275
334.092
333.913
333.765
329.133
329.257
329.412
329.571
329.725
329.867
329.991
330.09
330.16
330.196
330.196
330.16
330.09
329.991
329.867
329.725
329.571
329.412
329.257
329.133
324.558
324.661
324.791
324.926
325.056
325.176
325.281
325.366
325.425
325.455
325.455
325.425
325.366
325.281
325.176
325.056
324.926
324.791
324.661
324.558
320.031
320.114
320.22
320.33
320.437
320.535
320.621
320.69
320.739
320.764
320.764
320.739
320.69
320.621
320.535
320.437
320.33
320.22
320.114
320.031
315.543
315.607
315.689
315.775
315.858
315.935
316.002
316.055
316.093
316.112
316.112
316.093
316.055
316.002
315.935
315.858
315.775
315.689
315.607
315.543
311.086
311.131
311.19
311.251
311.31
311.365
311.413
311.451
311.478
311.492
311.492
311.478
311.451
311.413
311.365
311.31
311.251
311.19
311.131
311.086
306.65
306.677
306.713
306.749
306.785
306.818
306.847
306.87
306.886
306.894
306.894
306.886
306.87
306.847
306.818
306.785
306.749
306.713
306.677
306.65
302.228
302.237
302.249
302.261
302.273
302.284
302.294
302.301
302.307
302.31
302.31
302.307
302.301
302.294
302.284
302.273
302.261
302.249
302.237
302.228
335.128
335.263
335.427
335.594
335.755
335.903
336.031
336.134
336.206
336.243
336.243
336.206
336.134
336.031
335.903
335.755
335.594
335.427
335.263
335.128
330.303
330.418
330.559
330.704
330.843
330.972
331.083
331.172
331.234
331.266
331.266
331.234
331.172
331.083
330.972
330.843
330.704
330.559
330.418
330.303
325.54
325.635
325.754
325.877
325.995
326.103
326.198
326.273
326.326
326.353
326.353
326.326
326.273
326.198
326.103
325.995
325.877
325.754
325.635
325.54
320.829
320.905
321.003
321.103
321.2
321.289
321.366
321.428
321.471
321.493
321.493
321.471
321.428
321.366
321.289
321.2
321.103
321.003
320.905
320.829
316.161
316.219
316.295
316.373
316.448
316.517
316.578
316.626
316.659
316.677
316.677
316.659
316.626
316.578
316.517
316.448
316.373
316.295
316.219
316.161
311.525
311.567
311.621
311.676
311.73
311.78
311.823
311.857
311.881
311.894
311.894
311.881
311.857
311.823
311.78
311.73
311.676
311.621
311.567
311.525
306.914
306.938
306.971
307.004
307.037
307.066
307.092
307.113
307.127
307.135
307.135
307.127
307.113
307.092
307.066
307.037
307.004
306.971
306.938
306.914
302.316
302.324
302.335
302.346
302.357
302.367
302.376
302.383
302.388
302.39
302.39
302.388
302.383
302.376
302.367
302.357
302.346
302.335
302.324
302.316
336.531
336.656
336.806
336.959
337.105
337.238
337.354
337.446
337.51
337.544
337.544
337.51
337.446
337.354
337.238
337.105
336.959
336.806
336.656
336.531
331.503
331.608
331.738
331.87
331.997
332.113
332.213
332.293
332.349
332.378
332.378
332.349
332.293
332.213
332.113
331.997
331.87
331.738
331.608
331.503
326.543
326.63
326.74
326.852
326.959
327.057
327.142
327.21
327.257
327.282
327.282
327.257
327.21
327.142
327.057
326.959
326.852
326.74
326.63
326.543
321.641
321.712
321.801
321.892
321.98
322.061
322.131
322.186
322.225
322.245
322.245
322.225
322.186
322.131
322.061
321.98
321.892
321.801
321.712
321.641
316.787
316.841
316.91
316.982
317.05
317.113
317.167
317.211
317.241
317.256
317.256
317.241
317.211
317.167
317.113
317.05
316.982
316.91
316.841
316.787
311.97
312.008
312.058
312.109
312.158
312.203
312.241
312.272
312.294
312.305
312.305
312.294
312.272
312.241
312.203
312.158
312.109
312.058
312.008
311.97
307.18
307.202
307.232
307.263
307.292
307.319
307.342
307.361
307.374
307.381
307.381
307.374
307.361
307.342
307.319
307.292
307.263
307.232
307.202
307.18
302.405
302.413
302.422
302.433
302.443
302.452
302.459
302.466
302.47
302.472
302.472
302.47
302.466
302.459
302.452
302.443
302.433
302.422
302.413
302.405
337.888
338.003
338.142
338.282
338.415
338.537
338.642
338.726
338.784
338.813
338.813
338.784
338.726
338.642
338.537
338.415
338.282
338.142
338.003
337.888
332.648
332.746
332.866
332.987
333.103
333.209
333.301
333.373
333.424
333.45
333.45
333.424
333.373
333.301
333.209
333.103
332.987
332.866
332.746
332.648
327.49
327.571
327.672
327.775
327.874
327.964
328.041
328.103
328.146
328.168
328.168
328.146
328.103
328.041
327.964
327.874
327.775
327.672
327.571
327.49
322.401
322.467
322.549
322.634
322.714
322.788
322.852
322.902
322.937
322.955
322.955
322.937
322.902
322.852
322.788
322.714
322.634
322.549
322.467
322.401
317.369
317.419
317.483
317.549
317.612
317.67
317.719
317.758
317.786
317.8
317.8
317.786
317.758
317.719
317.67
317.612
317.549
317.483
317.419
317.369
312.381
312.417
312.462
312.509
312.554
312.595
312.631
312.659
312.679
312.689
312.689
312.679
312.659
312.631
312.595
312.554
312.509
312.462
312.417
312.381
307.424
307.446
307.473
307.501
307.528
307.553
307.574
307.591
307.603
307.609
307.609
307.603
307.591
307.574
307.553
307.528
307.501
307.473
307.446
307.424
302.487
302.494
302.503
302.512
302.521
302.53
302.537
302.543
302.547
302.549
302.549
302.547
302.543
302.537
302.53
302.521
302.512
302.503
302.494
302.487
338.96
339.069
339.199
339.33
339.455
339.569
339.667
339.744
339.798
339.826
339.826
339.798
339.744
339.667
339.569
339.455
339.33
339.199
339.069
338.96
333.519
333.612
333.724
333.839
333.948
334.047
334.132
334.2
334.247
334.271
334.271
334.247
334.2
334.132
334.047
333.948
333.839
333.724
333.612
333.519
328.188
328.265
328.36
328.458
328.55
328.635
328.707
328.765
328.805
328.825
328.825
328.805
328.765
328.707
328.635
328.55
328.458
328.36
328.265
328.188
322.947
323.009
323.087
323.167
323.243
323.313
323.372
323.42
323.452
323.469
323.469
323.452
323.42
323.372
323.313
323.243
323.167
323.087
323.009
322.947
317.779
317.827
317.887
317.95
318.009
318.063
318.11
318.147
318.172
318.186
318.186
318.172
318.147
318.11
318.063
318.009
317.95
317.887
317.827
317.779
312.666
312.7
312.743
312.788
312.831
312.869
312.903
312.929
312.948
312.957
312.957
312.948
312.929
312.903
312.869
312.831
312.788
312.743
312.7
312.666
307.593
307.613
307.639
307.666
307.691
307.715
307.735
307.751
307.762
307.767
307.767
307.762
307.751
307.735
307.715
307.691
307.666
307.639
307.613
307.593
302.543
302.549
302.558
302.567
302.576
302.583
302.59
302.596
302.599
302.601
302.601
302.599
302.596
302.59
302.583
302.576
302.567
302.558
302.549
302.543
)
;

boundaryField
{
    hotSide
    {
        type            fixedGradient;
        gradient        nonuniform List<scalar> 
400
(
261.615
262.52
264.334
267.062
270.716
275.306
280.847
287.354
294.842
303.326
312.823
323.346
334.907
347.52
361.194
375.937
391.758
408.662
426.654
445.737
265.883
266.754
268.501
271.133
274.663
279.106
284.482
290.808
298.107
306.396
315.695
326.022
337.393
349.82
363.317
377.892
393.555
410.311
428.165
447.121
270.501
271.332
273
275.517
278.901
283.171
288.353
294.471
301.55
309.616
318.692
328.799
339.955
352.178
365.481
379.874
395.366
411.964
429.672
448.495
275.394
276.178
277.754
280.138
283.353
287.425
292.386
298.267
305.101
312.917
321.746
331.612
342.537
354.539
367.635
381.835
397.148
413.582
431.14
449.825
280.424
281.155
282.628
284.864
287.89
291.743
296.461
302.083
308.65
316.199
324.764
334.376
345.058
356.832
369.714
383.717
398.85
415.119
432.527
451.077
285.382
286.057
287.42
289.497
292.324
295.945
300.408
305.761
312.053
319.328
327.626
336.98
347.42
358.968
371.641
385.453
400.411
416.522
433.788
452.209
289.985
290.603
291.856
293.775
296.405
299.798
304.011
309.103
315.13
322.142
330.186
339.299
349.512
360.85
373.331
386.967
401.767
417.735
434.873
453.18
293.891
294.458
295.612
297.39
299.843
303.033
307.025
311.887
317.682
324.466
332.29
341.196
351.217
362.377
374.696
388.185
402.853
418.704
435.737
453.95
296.749
297.277
298.356
300.025
302.344
305.38
309.206
313.895
319.515
326.13
333.792
342.545
352.424
363.455
375.657
389.04
403.614
419.38
436.338
454.485
298.264
298.771
299.808
301.419
303.665
306.617
310.353
314.948
320.476
327
334.575
343.247
353.051
364.014
376.153
389.482
404.006
419.728
436.647
454.76
298.264
298.771
299.808
301.419
303.665
306.617
310.353
314.948
320.476
327
334.575
343.247
353.051
364.014
376.153
389.482
404.006
419.728
436.647
454.76
296.749
297.277
298.356
300.025
302.344
305.38
309.206
313.895
319.515
326.13
333.792
342.545
352.424
363.455
375.657
389.04
403.614
419.38
436.338
454.485
293.891
294.458
295.612
297.39
299.843
303.033
307.025
311.887
317.682
324.466
332.29
341.196
351.217
362.377
374.696
388.185
402.853
418.704
435.737
453.95
289.985
290.603
291.856
293.775
296.405
299.798
304.011
309.103
315.13
322.142
330.186
339.299
349.512
360.85
373.331
386.967
401.767
417.735
434.873
453.18
285.382
286.057
287.42
289.497
292.324
295.945
300.408
305.761
312.053
319.328
327.626
336.98
347.42
358.968
371.641
385.453
400.411
416.522
433.788
452.209
280.424
281.155
282.628
284.864
287.89
291.743
296.461
302.083
308.65
316.199
324.764
334.376
345.058
356.832
369.714
383.717
398.85
415.119
432.527
451.077
275.394
276.178
277.754
280.138
283.353
287.425
292.386
298.267
305.101
312.917
321.746
331.612
342.537
354.539
367.635
381.835
397.148
413.582
431.14
449.825
270.501
271.332
273
275.517
278.901
283.171
288.353
294.471
301.55
309.616
318.692
328.799
339.955
352.178
365.481
379.874
395.366
411.964
429.672
448.495
265.883
266.754
268.501
271.133
274.663
279.106
284.482
290.808
298.107
306.396
315.695
326.022
337.393
349.82
363.317
377.892
393.555
410.311
428.165
447.121
261.615
262.52
264.334
267.062
270.716
275.306
280.847
287.354
294.842
303.326
312.823
323.346
334.907
347.52
361.194
375.937
391.758
408.662
426.654
445.737
)
;
    }
    coldSide
    {
        type            mixed;
        refValue        uniform 300;
        refGradient     uniform 0;
        valueFraction   uniform 0.991591;
        source          uniform 0;
        value           nonuniform List<scalar> 
400
(
300.013
300.013
300.013
300.013
300.014
300.014
300.014
300.014
300.015
300.015
300.016
300.016
300.017
300.017
300.018
300.019
300.019
300.02
300.021
300.021
300.013
300.013
300.014
300.014
300.014
300.014
300.014
300.015
300.015
300.015
300.016
300.016
300.017
300.017
300.018