/*--------------------------------*- C++ -*----------------------------------*\
| =========                 |                                                 |
| \\      /  F ield         | OpenFOAM: The Open Source CFD Toolbox           |
|  \\    /   O peration     | Version:  2212                                  |
|   \\  /    A nd           | Website:  www.openfoam.com                      |
|    \\/     M anipulation  |                                                 |
\*---------------------------------------------------------------------------*/
FoamFile
{
    version     2.0;
    format      ascii;
    arch        "LSB;label=32;scalar=64";
    class       volScalarField;
    location    "0";
    object      T;
}
// * * * * * * * * * * * * * * * * * * * * * * * * * * * * * * * * * * * * * //

dimensions      [0 0 0 1 0 0 0];

internalField   nonuniform List<scalar> 
3200
(
330.038
330.537
331.278
332.057
332.559
332.567
332.949
333.39
333.941
333.938
333.931
333.945
333.583
333.451
333.119
332.815
332.704
332.06
331.764
330.92
326.195
326.598
327.241
327.951
328.368
328.355
328.713
329.124
329.607
329.565
329.598
329.55
329.26
329.197
328.85
328.557
328.564
327.931
327.701
326.938
322.25
322.567
323.139
323.75
324.1
324.12
324.427
324.745
325.143
325.109
325.185
325.071
324.871
324.796
324.523
324.249
324.328
323.753
323.542
322.892
318.269
318.531
318.998
319.527
319.806
319.813
320.095
320.326
320.628
320.604
320.727
320.523
320.426
320.362
320.146
319.884
319.996
319.529
319.311
318.819
314.25
314.428
314.834
315.229
315.447
315.441
315.713
315.869
316.077
316.055
316.162
315.988
315.929
315.859
315.737
315.528
315.608
315.211
315.055
314.685
310.204
310.292
310.599
310.863
311.042
311.054
311.285
311.381
311.447
311.448
311.563
311.411
311.41
311.363
311.297
311.142
311.161
310.902
310.778
310.519
306.144
306.169
306.345
306.513
306.623
306.644
306.812
306.866
306.849
306.878
306.959
306.857
306.867
306.87
306.789
306.676
306.696
306.539
306.476
306.321
302.054
302.059
302.117
302.18
302.224
302.24
302.296
302.316
302.299
302.321
302.345
302.283
302.309
302.313
302.285
302.245
302.247
302.178
302.162
302.104
330.737
331.573
332.275
332.883
333.566
333.75
334.161
334.322
334.77
334.994
335.034
334.952
334.327
334.585
334.391
334.071
333.451
332.792
332.493
331.794
326.752
327.46
328.075
328.595
329.195
329.37
329.716
329.865
330.282
330.47
330.492
330.425
329.808
330.048
329.893
329.635
329.134
328.516
328.301
327.7
322.764
323.287
323.848
324.288
324.832
324.977
325.243
325.371
325.671
325.922
325.871
325.836
325.257
325.47
325.37
325.138
324.745
324.161
324.045
323.512
318.697
319.071
319.55
319.934
320.383
320.489
320.725
320.831
321.047
321.274
321.225
321.207
320.713
320.88
320.788
320.619
320.282
319.795
319.73
319.284
314.594
314.835
315.233
315.52
315.905
315.998
316.133
316.254
316.397
316.58
316.534
316.522
316.152
316.222
316.204
316.035
315.804
315.41
315.395
315.017
310.464
310.6
310.895
311.064
311.358
311.442
311.565
311.704
311.74
311.884
311.878
311.828
311.549
311.552
311.594
311.471
311.325
311.031
311.015
310.724
306.313
306.342
306.549
306.647
306.79
306.914
306.976
307.051
307.055
307.155
307.138
307.087
306.925
306.925
306.976
306.911
306.787
306.628
306.66
306.452
302.136
302.131
302.19
302.237
302.288
302.326
302.338
302.384
302.38
302.402
302.372
302.386
302.335
302.314
302.344
302.34
302.279
302.225
302.243
302.151
331.899
332.744
333.318
334.007
334.69
335.078
335.521
335.659
336.098
336.28
336.319
336.181
335.827
335.956
335.521
335.148
334.762
334.176
333.563
332.932
327.742
328.516
328.976
329.568
330.128
330.481
330.929
330.956
331.393
331.583
331.596
331.456
331.103
331.285
330.862
330.535
330.174
329.702
329.165
328.644
323.573
324.257
324.565
325.066
325.55
325.867
326.272
326.27
326.634
326.805
326.777
326.645
326.328
326.504
326.175
325.898
325.605
325.171
324.757
324.266
319.352
319.908
320.177
320.542
320.941
321.25
321.574
321.57
321.852
322.04
321.98
321.8
321.565
321.753
321.482
321.168
321.042
320.653
320.294
319.878
315.06
315.544
315.73
315.972
316.329
316.527
316.835
316.788
317.013
317.193
317.14
316.962
316.8
316.928
316.761
316.452
316.373
316.091
315.82
315.526
310.762
311.084
311.271
311.399
311.699
311.802
312.075
311.999
312.159
312.305
312.263
312.132
312.007
312.084
311.996
311.738
311.698
311.528
311.315
311.167
306.439
306.657
306.761
306.852
307.046
307.1
307.258
307.226
307.322
307.351
307.393
307.304
307.192
307.255
307.19
307.036
307.031
306.918
306.802
306.719
302.145
302.237
302.262
302.294
302.368
302.392
302.434
302.432
302.463
302.475
302.485
302.43
302.397
302.449
302.413
302.337
302.36
302.329
302.289
302.254
333.26
334.084
334.742
335.243
335.919
336.447
336.969
337.152
337.4
337.718
337.82
337.528
337.405
337.247
337.135
336.794
336.131
335.433
334.77
334.294
328.956
329.647
330.222
330.629
331.249
331.666
332.193
332.311
332.444
332.749
332.887
332.613
332.462
332.333
332.247
331.957
331.397
330.793
330.205
329.79
324.606
325.133
325.631
325.982
326.533
326.866
327.363
327.424
327.486
327.786
327.873
327.696
327.492
327.402
327.341
327.069
326.639
326.123
325.627
325.28
320.257
320.608
321.011
321.269
321.757
322.025
322.439
322.493
322.554
322.795
322.838
322.717
322.512
322.437
322.43
322.162
321.804
321.437
321.005
320.682
315.819
316.053
316.382
316.52
316.945
317.186
317.448
317.562
317.603
317.798
317.8
317.713
317.471
317.469
317.489
317.287
316.98
316.708
316.365
316.133
311.333
311.479
311.715
311.78
312.143
312.312
312.481
312.536
312.61
312.731
312.717
312.696
312.439
312.465
312.464
312.383
312.168
311.952
311.7
311.582
306.84
306.872
307.039
307.075
307.297
307.382
307.52
307.56
307.585
307.671
307.639
307.623
307.456
307.458
307.473
307.417
307.327
307.171
307.031
307.005
302.302
302.289
302.363
302.367
302.447
302.471
302.516
302.531
302.544
302.583
302.592
302.545
302.49
302.489
302.495
302.495
302.477
302.411
302.362
302.335
334.55
335.313
336.101
336.777
337.312
337.691
338.236
338.879
338.876
339.043
339.103
338.909
338.923
338.82
338.577
337.914
337.493
336.684
336.169
335.469
330.059
330.669
331.383
331.974
332.412
332.742
333.239
333.783
333.775
333.918
333.934
333.82
333.804
333.703
333.474
332.966
332.568
331.909
331.42
330.839
325.529
326.013
326.575
327.107
327.486
327.754
328.181
328.654
328.637
328.748
328.73
328.683
328.645
328.569
328.358
327.956
327.655
327.074
326.611
326.133
320.969
321.375
321.775
322.229
322.538
322.751
323.096
323.489
323.468
323.541
323.521
323.53
323.445
323.414
323.183
322.944
322.702
322.201
321.786
321.388
316.351
316.663
316.959
317.286
317.617
317.703
317.979
318.342
318.29
318.335
318.35
318.32
318.246
318.243
318.024
317.891
317.702
317.274
316.974
316.676
311.726
311.949
312.081
312.393
312.665
312.655
312.881
313.112
313.081
313.073
313.134
313.119
313.058
313.008
312.838
312.809
312.676
312.356
312.175
311.924
307.058
307.221
307.254
307.466
307.672
307.641
307.744
307.874
307.86
307.843
307.889
307.927
307.855
307.792
307.689
307.689
307.584
307.434
307.336
307.155
302.374
302.436
302.421
302.514
302.579
302.561
302.597
302.644
302.65
302.636
302.633
302.657
302.63
302.621
302.562
302.581
302.538
302.498
302.474
302.398
336.004
336.462
337.327
337.939
338.635
339.054
339.64
340.087
340.422
340.568
340.51
340.595
340.116
339.999
339.681
339.341
338.773
338.113
337.543
336.924
331.332
331.666
332.427
332.983
333.536
333.968
334.449
334.871
335.091
335.223
335.186
335.22
334.827
334.757
334.438
334.165
333.668
333.116
332.652
332.112
326.579
326.838
327.494
328.009
328.443
328.814
329.213
329.618
329.762
329.837
329.812
329.81
329.462
329.47
329.174
328.986
328.551
328.079
327.707
327.229
321.84
322.005
322.575
322.985
323.307
323.659
323.928
324.303
324.429
324.434
324.42
324.389
324.078
324.173
323.916
323.789
323.425
323.016
322.71
322.262
316.997
317.168
317.584
317.882
318.127
318.467
318.634
318.943
319.055
319.053
319.03
318.983
318.704
318.862
318.591
318.605
318.26
317.919
317.727
317.369
312.185
312.309
312.583
312.787
312.975
313.22
313.303
313.554
313.629
313.67
313.603
313.567
313.348
313.482
313.271
313.364
313.072
312.818
312.697
312.453
307.332
307.39
307.567
307.679
307.808
307.941
308
308.131
308.203
308.223
308.19
308.131
307.988
308.078
307.943
308.098
307.89
307.71
307.658
307.512
302.477
302.469
302.53
302.574
302.606
302.668
302.667
302.721
302.75
302.762
302.744
302.728
302.683
302.7
302.665
302.73
302.656
302.586
302.567
302.542
337.148
337.915
338.596
339.267
339.891
340.839
341.279
341.543
341.987
341.99
342.074
342.035
341.542
341.442
341.116
340.728
340.315
339.458
338.65
338.084
332.353
332.971
333.52
334.131
334.711
335.497
335.835
336.08
336.451
336.462
336.54
336.462
336.062
335.96
335.66
335.368
335.029
334.293
333.577
333.093
327.451
327.925
328.44
328.976
329.444
330.102
330.359
330.596
330.861
330.922
330.948
330.854
330.552
330.464
330.103
330.025
329.686
329.075
328.481
328.084
322.516
322.868
323.317
323.756
324.086
324.692
324.885
325.058
325.298
325.356
325.332
325.223
325.012
324.972
324.582
324.653
324.304
323.828
323.3
323.07
317.589
317.766
318.117
318.48
318.8
319.232
319.373
319.546
319.705
319.773
319.722
319.616
319.46
319.425
319.076
319.264
318.879
318.598
318.154
318.017
312.603
312.692
312.918
313.166
313.497
313.744
313.863
313.959
314.093
314.163
314.075
314.041
313.869
313.884
313.615
313.794
313.462
313.324
312.997
312.906
307.587
307.604
307.752
307.877
308.108
308.286
308.375
308.418
308.479
308.539
308.437
308.454
308.311
308.322
308.178
308.312
308.097
308.008
307.805
307.776
302.548
302.542
302.604
302.621
302.708
302.772
302.824
302.826
302.841
302.871
302.815
302.834
302.785
302.782
302.724
302.787
302.726
302.688
302.603
302.625
338.544
338.934
339.715
340.71
341.243
342.131
342.671
342.8
343.433
343.316
343.544
343.286
342.955
342.926
342.392
342.036
341.581
340.915
340.055
339.344
333.559
333.805
334.497
335.383
335.829
336.589
337.091
337.152
337.721
337.642
337.841
337.564
337.315
337.278
336.798
336.528
336.137
335.543
334.841
334.171
328.435
328.698
329.284
329.999
330.383
330.974
331.455
331.492
331.976
331.916
332.051
331.811
331.644
331.607
331.153
330.975
330.625
330.152
329.575
328.984
323.245
323.571
323.995
324.615
324.887
325.376
325.818
325.784
326.176
326.169
326.27
326.028
325.895
325.868
325.518
325.383
325.061
324.686
324.243
323.743
318.124
318.391
318.699
319.171
319.377
319.728
320.157
320.128
320.359
320.373
320.487
320.23
320.153
320.18
319.854
319.764
319.495
319.247
318.912
318.469
312.981
313.161
313.384
313.684
313.868
314.072
314.442
314.399
314.572
314.584
314.68
314.441
314.398
314.438
314.209
314.105
313.918
313.807
313.583
313.205
307.824
307.92
308.032
308.204
308.355
308.461
308.684
308.659
308.778
308.772
308.804
308.664
308.657
308.708
308.552
308.49
308.341
308.314
308.167
307.956
302.609
302.66
302.703
302.746
302.797
302.853
302.904
302.895
302.918
302.963
302.953
302.9
302.925
302.909
302.878
302.875
302.785
302.786
302.738
302.665
339.501
340.141
340.997
342.125
342.54
343.299
343.963
344.138
344.493
344.617
344.627
344.642
344.441
344.263
343.985
343.545
342.822
342.115
341.353
340.504
334.369
334.846
335.602
336.616
336.965
337.59
338.193
338.351
338.675
338.786
338.765
338.772
338.582
338.436
338.21
337.818
337.2
336.586
335.923
335.195
329.158
329.534
330.164
331.06
331.335
331.862
332.444
332.54
332.8
332.923
332.864
332.857
332.726
332.553
332.326
332.059
331.555
331.04
330.429
329.82
323.882
324.177
324.689
325.426
325.678
326.084
326.656
326.686
326.912
327.001
326.911
326.938
326.838
326.693
326.468
326.296
325.881
325.511
324.909
324.444
318.642
318.84
319.24
319.788
320.033
320.314
320.779
320.782
320.966
321.026
320.946
320.981
320.892
320.802
320.607
320.508
320.188
319.871
319.374
319.032
313.384
313.484
313.764
314.168
314.302
314.525
314.842
314.866
314.999
315.066
314.988
315.054
314.944
314.918
314.754
314.676
314.422
314.236
313.831
313.635
308.057
308.089
308.273
308.544
308.589
308.755
308.919
308.918
309.013
309.068
309.011
309.04
308.962
308.96
308.882
308.839
308.7
308.549
308.305
308.226
302.72
302.713
302.77
302.844
302.884
302.934
302.997
302.971
303.042
303.037
303.026
303.04
303.001
302.996
302.973
302.987
302.916
302.862
302.786
302.768
340.451
341.416
342.206
343.293
343.954
344.422
345.111
345.566
345.887
346.045
346.003
346.056
345.798
345.606
345.214
344.721
344.031
343.21
342.463
341.712
335.11
335.995
336.675
337.609
338.208
338.608
339.187
339.541
339.879
339.999
339.921
340.045
339.755
339.63
339.31
338.819
338.237
337.544
336.879
336.241
329.772
330.511
331.059
331.883
332.447
332.747
333.212
333.501
333.82
333.9
333.812
333.977
333.707
333.592
333.337
332.889
332.449
331.83
331.237
330.742
324.394
324.991
325.433
326.12
326.591
326.854
327.241
327.447
327.69
327.77
327.706
327.886
327.649
327.562
327.338
326.969
326.599
326.075
325.558
325.193
319.01
319.401
319.824
320.369
320.659
320.899
321.232
321.387
321.53
321.576
321.563
321.769
321.506
321.485
321.331
321.001
320.743
320.322
319.887
319.63
313.59
313.834
314.172
314.538
314.787
314.963
315.182
315.296
315.387
315.44
315.409
315.599
315.383
315.351
315.27
315
314.844
314.512
314.242
314.051
308.157
308.316
308.501
308.685
308.875
309.011
309.146
309.205
309.244
309.271
309.252
309.378
309.275
309.227
309.165
308.994
308.939
308.723
308.569
308.434
302.734
302.791
302.856
302.91
302.969
303.021
303.057
303.092
303.103
303.113
303.113
303.139
303.101
303.072
303.07
303.006
303.021
302.915
302.905
302.828
341.674
342.527
343.405
344.305
345.228
345.789
346.163
346.735
347.128
347.246
347.325
347.515
347.099
346.711
346.524
345.895
345.237
344.37
343.707
342.729
336.207
336.957
337.696
338.474
339.273
339.79
340.069
340.619
340.947
341.021
341.142
341.273
340.892
340.547
340.461
339.863
339.291
338.548
337.967
337.118
330.702
331.339
331.96
332.607
333.261
333.726
333.974
334.441
334.721
334.737
334.865
335
334.662
334.412
334.323
333.793
333.297
332.674
332.183
331.524
325.158
325.697
326.19
326.718
327.219
327.644
327.828
328.228
328.4
328.436
328.527
328.701
328.422
328.153
328.145
327.715
327.282
326.757
326.359
325.865
319.612
320.041
320.44
320.81
321.153
321.555
321.733
321.98
322.078
322.132
322.223
322.346
322.141
321.925
321.957
321.592
321.252
320.816
320.515
320.147
314.045
314.368
314.622
314.865
315.092
315.45
315.57
315.737
315.796
315.805
315.873
315.993
315.842
315.673
315.718
315.468
315.216
314.842
314.683
314.38
308.464
308.668
308.783
308.942
309.051
309.313
309.365
309.461
309.494
309.487
309.53
309.627
309.531
309.448
309.442
309.321
309.134
308.899
308.813
308.645
302.838
302.927
302.955
303.005
303.017
303.134
303.152
303.167
303.183
303.182
303.185
303.226
303.208
303.159
303.17
303.124
303.057
302.985
302.966
302.895
342.659
343.468
344.5
345.216
346.203
346.934
347.346
347.813
348.343
348.503
348.736
348.294
348.323
347.839
347.66
347.07
346.244
345.435
344.535
343.821
337.076
337.79
338.628
339.265
340.113
340.747
341.123
341.532
341.977
342.106
342.318
341.953
341.931
341.519
341.36
340.894
340.175
339.418
338.646
338.092
331.408
332.046
332.729
333.306
333.984
334.561
334.816
335.187
335.542
335.655
335.894
335.577
335.533
335.215
335.028
334.699
334.038
333.402
332.756
332.298
325.705
326.271
326.775
327.331
327.851
328.343
328.488
328.792
329.099
329.21
329.424
329.138
329.086
328.862
328.703
328.416
327.896
327.361
326.784
326.503
319.987
320.439
320.866
321.326
321.674
322.087
322.168
322.399
322.65
322.727
322.974
322.674
322.626
322.479
322.355
322.137
321.749
321.302
320.848
320.632
314.228
314.581
314.96
315.252
315.526
315.778
315.835
316.003
316.201
316.207
316.433
316.206
316.145
316.07
315.966
315.864
315.55
315.257
314.937
314.755
308.51
308.771
309.037
309.169
309.374
309.478
309.529
309.621
309.755
309.728
309.867
309.752
309.706
309.656
309.627
309.506
309.349
309.2
308.973
308.856
302.846
302.952
303.034
303.064
303.136
303.179
303.197
303.224
303.253
303.238
303.31
303.266
303.24
303.228
303.254
303.196
303.15
303.098
303.034
303
343.403
344.521
345.515
346.44
347.188
348.137
348.659
349.128
349.349
349.506
349.467
349.527
349.539
348.869
348.716
348.04
347.322
346.249
345.498
344.782
337.698
338.713
339.5
340.376
340.979
341.816
342.29
342.671
342.903
342.993
342.945
342.972
343.054
342.411
342.298
341.699
341.091
340.104
339.47
338.926
331.972
332.809
333.441
334.244
334.734
335.451
335.869
336.168
336.36
336.456
336.437
336.413
336.481
335.965
335.806
335.35
334.831
334.002
333.48
333.044
326.196
326.838
327.423
328.039
328.435
329.025
329.483
329.588
329.786
329.897
329.856
329.838
329.86
329.463
329.302
328.981
328.56
327.869
327.474
327.066
320.386
320.868
321.366
321.849
322.151
322.621
323.002
323.007
323.199
323.29
323.241
323.255
323.236
322.914
322.779
322.59
322.26
321.682
321.452
321.052
314.559
314.916
315.271
315.674
315.869
316.17
316.47
316.394
316.626
316.657
316.673
316.645
316.58
316.356
316.297
316.196
315.921
315.522
315.383
315.063
308.737
308.947
309.176
309.414
309.509
309.746
309.893
309.824
310.022
310.019
310.013
310.006
309.932
309.792
309.839
309.744
309.602
309.363
309.247
309.062
302.932
303.002
303.09
303.169
303.181
303.257
303.31
303.305
303.364
303.358
303.364
303.354
303.33
303.267
303.327
303.274
303.226
303.165
303.115
303.047
344.325
345.417
346.373
347.292
348.296
349.078
349.584
350.091
350.333
350.54
350.542
350.724
350.594
349.943
349.528
348.879
348.195
347.281
346.466
345.465
338.561
339.455
340.358
341.064
341.914
342.628
343.099
343.517
343.708
343.892
343.862
344.034
343.956
343.382
343.01
342.397
341.865
341.028
340.381
339.501
332.76
333.508
334.25
334.833
335.536
336.12
336.585
336.904
337.048
337.175
337.166
337.319
337.246
336.754
336.431
335.9
335.495
334.77
334.25
333.518
326.919
327.439
328.107
328.553
329.141
329.609
329.977
330.235
330.34
330.45
330.439
330.601
330.472
330.099
329.841
329.414
329.093
328.469
328.059
327.475
321.05
321.371
321.881
322.282
322.734
323.057
323.31
323.566
323.635
323.709
323.696
323.776
323.676
323.38
323.256
322.934
322.694
322.119
321.872
321.4
315.144
315.316
315.621
315.95
316.277
316.517
316.615
316.843
316.916
316.958
316.918
316.93
316.903
316.664
316.632
316.394
316.275
315.797
315.661
315.297
309.143
309.206
309.396
309.585
309.801
309.935
309.957
310.11
310.2
310.187
310.137
310.136
310.133
310.005
309.986
309.812
309.836
309.495
309.397
309.172
303.081
303.076
303.165
303.228
303.282
303.318
303.344
303.384
303.425
303.416
303.394
303.409
303.372
303.355
303.337
303.311
303.311
303.186
303.14
303.082
345.241
346.094
347.033
348.263
349.165
349.775
350.452
350.742
351.326
351.469
351.595
351.627
351.377
351.086
350.323
349.853
349.194
348.208
347.371
346.412
339.318
340.045
340.843
341.923
342.701
343.211
343.861
344.105
344.567
344.717
344.794
344.857
344.627
344.389
343.684
343.286
342.705
341.874
341.15
340.301
333.373
333.936
334.635
335.55
336.231
336.634
337.15
337.419
337.766
337.9
337.965
338.076
337.822
337.624
337.038
336.674
336.178
335.521
334.886
334.164
327.393
327.831
328.428
329.145
329.704
330.057
330.46
330.654
330.91
331.018
331.111
331.238
330.972
330.831
330.361
330.009
329.676
329.118
328.578
328.047
321.359
321.695
322.122
322.705
323.162
323.468
323.72
323.866
324.051
324.141
324.225
324.332
324.108
323.973
323.635
323.355
323.138
322.658
322.247
321.868
315.283
315.535
315.831
316.227
316.575
316.811
316.928
317.035
317.203
317.276
317.26
317.414
317.237
317.103
316.927
316.664
316.565
316.209
315.915
315.678
309.192
309.351
309.513
309.739
309.969
310.105
310.187
310.243
310.329
310.426
310.328
310.477
310.371
310.267
310.168
309.978
309.956
309.736
309.575
309.436
303.094
303.151
303.211
303.274
303.339
303.384
303.425
303.443
303.456
303.484
303.454
303.506
303.478
303.448
303.389
303.332
303.352
303.278
303.201
303.179
345.786
346.834
347.721
348.877
349.739
350.463
351.039
351.603
352.015
352.32
352.16
352.198
352.092
351.742
351.046
350.543
349.606
348.828
348.04
347.174
339.806
340.687
341.465
342.459
343.206
343.791
344.277
344.78
345.145
345.411
345.298
345.308
345.25
344.922
344.299
343.84
343.069
342.404
341.715
340.979
333.822
334.477
335.088
336.026
336.648
337.147
337.499
337.973
338.208
338.463
338.385
338.378
338.341
338.091
337.554
337.119
336.466
335.98
335.332
334.735
327.753
328.231
328.71
329.574
330.055
330.439
330.7
331.133
331.256
331.449
331.459
331.387
331.378
331.197
330.763
330.369
329.865
329.494
328.954
328.476
321.592
321.973
322.314
323.081
323.405
323.707
323.848
324.288
324.324
324.43
324.514
324.422
324.433
324.279
323.917
323.64
323.224
323.03
322.55
322.166
315.408
315.753
315.986
316.474
316.782
316.973
317.001
317.371
317.39
317.477
317.543
317.433
317.532
317.335
317.084
316.909
316.606
316.508
316.134
315.829
309.266
309.465
309.628
309.87
310.112
310.214
310.22
310.414
310.449
310.494
310.555
310.46
310.589
310.399
310.264
310.131
309.983
309.929
309.71
309.541
303.095
303.178
303.203
303.293
303.395
303.426
303.418
303.478
303.514
303.519
303.542
303.503
303.558
303.471
303.45
303.385
303.34
303.326
303.26
303.199
346.325
347.242
348.421
349.563
350.348
351.165
351.55
352.165
352.712
352.937
352.982
352.818
352.877
352.301
351.659
351.264
350.515
349.828
348.677
347.621
340.251
341.037
342.007
343.049
343.779
344.444
344.755
345.316
345.786
345.979
346.001
345.796
345.884
345.404
344.803
344.469
343.877
343.232
342.269
341.354
334.129
334.795
335.575
336.466
337.148
337.663
337.92
338.412
338.768
338.989
339.003
338.759
338.855
338.502
337.935
337.633
337.212
336.624
335.796
335.032
327.987
328.527
329.13
329.895
330.455
330.867
331.065
331.475
331.735
331.905
331.966
331.738
331.813
331.598
331.06
330.827
330.473
330.013
329.297
328.712
321.82
322.204
322.728
323.291
323.712
324.037
324.195
324.56
324.7
324.825
324.91
324.698
324.793
324.607
324.159
324.02
323.697
323.398
322.806
322.353
315.599
315.903
316.25
316.666
316.94
317.196
317.315
317.562
317.673
317.722
317.848
317.643
317.741
317.584
317.233
317.204
316.941
316.76
316.304
315.941
309.392
309.538
309.764
310.006
310.173
310.339
310.41
310.555
310.616
310.656
310.732
310.591
310.677
310.558
310.345
310.339
310.17
310.086
309.81
309.585
303.168
303.196
303.271
303.352
303.433
303.47
303.488
303.545
303.564
303.581
303.595
303.538
303.588
303.514
303.462
303.484
303.429
303.39
303.284
303.222
346.918
347.704
349.035
349.926
350.809
351.779
352.415
352.764
353.352
353.424
353.449
353.377
353.32
352.903
352.495
351.915
351.108
350.1
349.134
348.209
340.78
341.427
342.563
343.348
344.138
345.004
345.488
345.835
346.359
346.374
346.355
346.356
346.299
345.891
345.56
345.064
344.361
343.484
342.667
341.867
334.556
335.108
336.058
336.79
337.412
338.133
338.541
338.896
339.313
339.295
339.281
339.292
339.268
338.862
338.595
338.211
337.563
336.834
336.169
335.472
328.331
328.768
329.59
330.134
330.658
331.196
331.553
331.902
332.194
332.163
332.202
332.226
332.19
331.824
331.614
331.296
330.78
330.175
329.61
329.043
322.05
322.386
323.074
323.402
323.878
324.28
324.546
324.851
325.044
325.009
325.116
325.164
325.033
324.725
324.618
324.365
323.957
323.518
323.062
322.644
315.749
315.987
316.516
316.727
317.11
317.336
317.542
317.727
317.884
317.861
318.032
318.034
317.908
317.645
317.592
317.427
317.157
316.81
316.501
316.183
309.44
309.602
309.927
310.043
310.289
310.43
310.54
310.626
310.7
310.69
310.867
310.862
310.783
310.615
310.534
310.46
310.3
310.111
309.921
309.718
303.161
303.206
303.319
303.371
303.452
303.5
303.541
303.552
303.585
303.597
303.653
303.653
303.637
303.556
303.531
303.493
303.464
303.39
303.323
303.259
347.262
348.053
349.386
350.535
351.449
352.285
352.864
353.328
353.83
354.017
353.817
354.025
354.109
353.553
352.859
352.29
351.527
350.472
349.534
348.694
341.056
341.707
342.839
343.844
344.662
345.383
345.88
346.259
346.789
346.863
346.737
346.889
346.928
346.511
345.862
345.412
344.708
343.8
342.988
342.279
334.803
335.317
336.306
337.157
337.828
338.448
338.879
339.137
339.684
339.701
339.581
339.712
339.749
339.405
338.864
338.496
337.866
337.105
336.384
335.848
328.513
328.921
329.783
330.451
330.971
331.539
331.811
332.027
332.517
332.486
332.415
332.5
332.52
332.284
331.864
331.55
331.044
330.413
329.783
329.352
322.24
322.512
323.208
323.711
324.107
324.592
324.747
324.926
325.329
325.286
325.248
325.282
325.29
325.147
324.823
324.532
324.203
323.694
323.211
322.886
315.937
316.08
316.63
316.914
317.251
317.584
317.66
317.831
318.15
318.121
318.047
318.084
318.121
318.014
317.73
317.456
317.289
316.968
316.629
316.37
309.537
309.682
310.011
310.136
310.36
310.54
310.595
310.758
310.919
310.903
310.835
310.878
310.881
310.87
310.656
310.431
310.374
310.187
309.987
309.823
303.191
303.258
303.353
303.373
303.482
303.522
303.547
303.596
303.666
303.654
303.635
303.648
303.639
303.638
303.574
303.5
303.471
303.391
303.339
303.27
347.483
348.216
349.941
350.774
351.824
352.623
353.211
353.555
354.123
354.429
354.295
354.314
354.295
353.828
353.314
352.707
351.681
350.769
349.668
348.873
341.292
341.848
343.315
344.119
344.995
345.718
346.225
346.495
346.966
347.253
347.105
347.136
347.141
346.716
346.272
345.788
344.839
344.013
343.095
342.46
335.028
335.447
336.676
337.449
338.173
338.784
339.174
339.378
339.831
340.013
339.865
339.897
339.954
339.581
339.215
338.812
337.992
337.257
336.473
335.966
328.715
329.068
330.039
330.7
331.263
331.785
332.061
332.233
332.656
332.773
332.644
332.674
332.736
332.4
332.113
331.776
331.117
330.474
329.864
329.462
322.364
322.626
323.381
323.924
324.339
324.749
324.969
325.104
325.447
325.528
325.368
325.404
325.528
325.201
325.006
324.768
324.27
323.721
323.319
322.963
315.984
316.167
316.736
317.125
317.381
317.726
317.833
317.972
318.177
318.265
318.13
318.157
318.261
318.048
317.865
317.762
317.341
316.968
316.707
316.433
309.623
309.681
310.078
310.288
310.429
310.65
310.708
310.803
310.939
310.981
310.89
310.898
310.969
310.855
310.739
310.692
310.426
310.196
310.019
309.882
303.226
303.216
303.389
303.45
303.494
303.571
303.572
303.621
303.673
303.681
303.643
303.652
303.696
303.632
303.587
303.584
303.509
303.414
303.363
303.315
)
;

boundaryField
{
    hotSide
    {
        type            fixedGradient;
        gradient        nonuniform List<scalar> 
400
(
300.044
314.296
328.449
342.44
356.206
369.682
382.803
395.505
407.725
419.402
430.475
440.888
450.585
459.516
467.634
474.897
481.265
486.707
491.194
494.705
307.542
322.224
336.808
351.229
365.422
379.319
392.854
405.962
418.576
430.633
442.072
452.832
462.859
472.099
480.504
488.029
494.636
500.289
504.96
508.626
314.333
329.41
344.389
359.204
373.787
388.071
401.987
415.466
428.442
440.849
452.624
463.706
474.036
483.561
492.23
499.998
506.825
512.674
517.516
521.327
320.396
335.827
351.162
366.333
381.269
395.902
410.16
423.976
437.279
450.002
462.081
473.453
484.058
493.841
502.751
510.74
517.766
523.793
528.791
532.735
325.711
341.457
357.106
372.59
387.839
402.78
417.342
431.455
445.047
458.051
470.399
482.028
492.877
502.89
512.012
520.197
527.401
533.588
538.725
542.787
330.267
346.282
362.202
377.956
393.473
408.68
423.504
437.873
451.715
464.96
477.541
489.392
500.452
510.662
519.968
528.323
535.681
542.005
547.263
551.428
334.051
350.29
366.435
382.414
398.154
413.582
428.623
443.205
457.254
470.701
483.475
495.511
506.745
517.12
526.58
535.076
542.563
549.002
554.36
558.611
337.054
353.47
369.793
385.949
401.865
417.467
432.68
447.43
461.643
475.248
488.175
500.357
511.73
522.235
531.816
540.423
548.011
554.54
559.978
564.297
339.27
355.814
372.265
388.55
404.594
420.322
435.66
450.531
464.863
478.583
491.62
503.907
515.38
525.979
535.648
544.335
551.996
558.591
564.086
568.453
340.69
357.314
373.844
390.207
406.329
422.135
437.549
452.495
466.899
480.688
493.793
506.144
517.678
528.334
538.055
546.791
554.496
561.13
566.659
571.055
341.309
357.961
374.52
390.912
407.062
422.895
438.335
453.308
467.737
481.551
494.679
507.052
518.607
529.282
539.021
547.773
555.493
562.139
567.679
572.084
341.119
357.75
374.286
390.656
406.783
422.594
438.012
452.962
467.37
481.162
494.269
506.622
518.157
528.814
538.535
547.271
554.975
561.607
567.134
571.527
340.115
356.673
373.136
389.432
405.487
421.225
436.571
451.451
465.789
479.515
492.556
504.847
516.322
526.922
536.591
545.278
552.936
559.528
565.018
569.38
338.29
354.725
371.065
387.238
403.169
418.785
434.01
448.771
462.993
476.606
489.539
501.726
513.102
523.608
533.189
541.794
549.379
555.903
561.333
565.643
335.64
351.902
368.069
384.068
399.827
415.271
430.328
444.923
458.983
472.439
485.22
497.262
508.5
518.876
528.335
536.827
544.309
550.74
556.089
560.329
332.161
348.203
364.148
379.925
395.462
410.688
425.528
439.911
453.765
467.02
479.609
491.465
502.527
512.737
522.042
530.392
537.743
544.058
549.303
553.454
327.855
343.629
359.304
374.811
390.081
405.041
419.62
433.747
447.351
460.364
472.719
484.352
495.203
505.213
514.332
522.51
529.705
535.88
541.002
545.047
322.725
338.185
353.545
368.738
383.695
398.345
412.619
426.447
439.761
452.491
464.575
475.949
486.553
496.332
505.235
513.215
520.229
526.242
531.223
535.146
316.781
331.883
346.885
361.72
376.322
390.62
404.548
418.037
431.02
443.432
455.208
466.288
476.615
486.133
494.792
502.548
509.36
515.191
520.013
523.801
310.038
324.742
339.344
353.781
367.987
381.894
395.437
408.55
421.167
433.224
444.66
455.415
465.433
474.663
483.054
490.563
497.151
502.784
507.431
511.072
)
;
    }
    coldSide
    {
        type            mixed;
        refValue        uniform 300;
        refGradient     uniform 0;
        valueFraction   uniform 0.991591;
        source          uniform 0;
        value           nonuniform List<scalar> 
400
(
300.017
300.018
300.018
300.019
300.02
300.021
300.021
300.022
300.023
300.023
300.024
300.024
300.025
300.026
300.026
300.026
300.027
300.027
300.027
300.027
300.017
300.018
300.019
300.019
300.02
300.021
300.021
300.022
300.023
300.023
300.025
300.025
300.025
300.026
300.027
300.027
300.027
300.027
300.027
300.027
300.018