/*--------------------------------*- C++ -*----------------------------------*\
| =========                 |                                                 |
| \\      /  F ield         | OpenFOAM: The Open Source CFD Toolbox           |
|  \\    /   O peration     | Version:  2212                                  |
|   \\  /    A nd           | Website:  www.openfoam.com                      |
|    \\/     M anipulation  |                                                 |
\*---------------------------------------------------------------------------*/
FoamFile
{
    version     2.0;
    format      ascii;
    arch        "LSB;label=32;scalar=64";
    class       volScalarField;
    location    "./ITHACAoutput/true/11.2";
    object      trueState;
}
// * * * * * * * * * * * * * * * * * * * * * * * * * * * * * * * * * * * * * //

dimensions      [0 0 0 1 0 0 0];

internalField   nonuniform List<scalar> 
3200
(
324.059
324.467
324.988
325.556
326.141
326.716
327.246
327.693
328.019
328.191
328.191
328.019
327.693
327.246
326.716
326.141
325.556
324.988
324.467
324.059
320.957
321.303
321.752
322.244
322.75
323.247
323.705
324.091
324.373
324.522
324.522
324.373
324.091
323.705
323.247
322.75
322.244
321.752
321.303
320.957
317.811
318.098
318.477
318.892
319.319
319.739
320.126
320.452
320.69
320.815
320.815
320.69
320.452
320.126
319.739
319.319
318.892
318.477
318.098
317.811
314.627
314.858
315.167
315.506
315.855
316.198
316.514
316.781
316.975
317.077
317.077
316.975
316.781
316.514
316.198
315.855
315.506
315.167
314.858
314.627
311.412
311.589
311.829
312.092
312.364
312.63
312.876
313.083
313.233
313.313
313.313
313.233
313.083
312.876
312.63
312.364
312.092
311.829
311.589
311.412
308.173
308.298
308.469
308.657
308.851
309.041
309.217
309.364
309.472
309.528
309.528
309.472
309.364
309.217
309.041
308.851
308.657
308.469
308.298
308.173
304.916
304.991
305.093
305.206
305.323
305.437
305.542
305.631
305.695
305.729
305.729
305.695
305.631
305.542
305.437
305.323
305.206
305.093
304.991
304.916
301.649
301.674
301.708
301.746
301.785
301.824
301.859
301.889
301.91
301.921
301.921
301.91
301.889
301.859
301.824
301.785
301.746
301.708
301.674
301.649
324.131
324.536
325.053
325.615
326.194
326.762
327.286
327.728
328.049
328.219
328.219
328.049
327.728
327.286
326.762
326.194
325.615
325.053
324.536
324.131
321.02
321.363
321.808
322.295
322.796
323.288
323.74
324.122
324.4
324.547
324.547
324.4
324.122
323.74
323.288
322.796
322.295
321.808
321.363
321.02
317.864
318.149
318.524
318.935
319.359
319.774
320.156
320.479
320.713
320.837
320.837
320.713
320.479
320.156
319.774
319.359
318.935
318.524
318.149
317.864
314.671
314.9
315.206
315.542
315.888
316.227
316.539
316.803
316.994
317.095
317.095
316.994
316.803
316.539
316.227
315.888
315.542
315.206
314.9
314.671
311.446
311.622
311.859
312.12
312.389
312.653
312.896
313.1
313.248
313.327
313.327
313.248
313.1
312.896
312.653
312.389
312.12
311.859
311.622
311.446
308.197
308.321
308.491
308.677
308.869
309.057
309.231
309.377
309.483
309.538
309.538
309.483
309.377
309.231
309.057
308.869
308.677
308.491
308.321
308.197
304.931
305.005
305.106
305.218
305.334
305.447
305.551
305.638
305.702
305.735
305.735
305.702
305.638
305.551
305.447
305.334
305.218
305.106
305.005
304.931
301.654
301.679
301.713
301.75
301.789
301.827
301.862
301.891
301.912
301.924
301.924
301.912
301.891
301.862
301.827
301.789
301.75
301.713
301.679
301.654
324.275
324.674
325.181
325.734
326.301
326.857
327.368
327.799
328.113
328.278
328.278
328.113
327.799
327.368
326.857
326.301
325.734
325.181
324.674
324.275
321.146
321.483
321.921
322.399
322.89
323.37
323.813
324.185
324.456
324.599
324.599
324.456
324.185
323.813
323.37
322.89
322.399
321.921
321.483
321.146
317.971
318.251
318.62
319.024
319.439
319.845
320.218
320.533
320.761
320.882
320.882
320.761
320.533
320.218
319.845
319.439
319.024
318.62
318.251
317.971
314.758
314.984
315.284
315.614
315.954
316.286
316.591
316.847
317.034
317.132
317.132
317.034
316.847
316.591
316.286
315.954
315.614
315.284
314.984
314.758
311.514
311.687
311.921
312.177
312.441
312.699
312.936
313.135
313.28
313.356
313.356
313.28
313.135
312.936
312.699
312.441
312.177
311.921
311.687
311.514
308.246
308.368
308.535
308.718
308.906
309.09
309.26
309.402
309.505
309.56
309.56
309.505
309.402
309.26
309.09
308.906
308.718
308.535
308.368
308.246
304.96
305.033
305.133
305.243
305.356
305.467
305.568
305.654
305.716
305.748
305.748
305.716
305.654
305.568
305.467
305.356
305.243
305.133
305.033
304.96
301.664
301.688
301.722
301.759
301.796
301.834
301.868
301.896
301.917
301.928
301.928
301.917
301.896
301.868
301.834
301.796
301.759
301.722
301.688
301.664
324.492
324.881
325.377
325.914
326.464
327.002
327.496
327.912
328.214
328.373
328.373
328.214
327.912
327.496
327.002
326.464
325.914
325.377
324.881
324.492
321.335
321.664
322.091
322.556
323.033
323.498
323.925
324.285
324.545
324.683
324.683
324.545
324.285
323.925
323.498
323.033
322.556
322.091
321.664
321.335
318.132
318.405
318.765
319.158
319.56
319.954
320.315
320.618
320.838
320.954
320.954
320.838
320.618
320.315
319.954
319.56
319.158
318.765
318.405
318.132
314.89
315.11
315.404
315.725
316.054
316.375
316.67
316.918
317.098
317.192
317.192
317.098
316.918
316.67
316.375
316.054
315.725
315.404
315.11
314.89
311.617
311.786
312.014
312.263
312.519
312.769
312.998
313.19
313.33
313.403
313.403
313.33
313.19
312.998
312.769
312.519
312.263
312.014
311.786
311.617
308.32
308.439
308.601
308.78
308.962
309.141
309.304
309.442
309.541
309.594
309.594
309.541
309.442
309.304
309.141
308.962
308.78
308.601
308.439
308.32
305.005
305.076
305.173
305.28
305.39
305.497
305.595
305.678
305.737
305.769
305.769
305.737
305.678
305.595
305.497
305.39
305.28
305.173
305.076
305.005
301.679
301.703
301.735
301.771
301.808
301.844
301.877
301.904
301.924
301.935
301.935
301.924
301.904
301.877
301.844
301.808
301.771
301.735
301.703
301.679
324.784
325.161
325.64
326.158
326.687
327.203
327.675
328.071
328.358
328.509
328.509
328.358
328.071
327.675
327.203
326.687
326.158
325.64
325.161
324.784
321.589
321.908
322.321
322.769
323.227
323.674
324.082
324.425
324.673
324.803
324.803
324.673
324.425
324.082
323.674
323.227
322.769
322.321
321.908
321.589
318.348
318.613
318.96
319.339
319.727
320.104
320.449
320.738
320.947
321.057
321.057
320.947
320.738
320.449
320.104
319.727
319.339
318.96
318.613
318.348
315.068
315.281
315.564
315.874
316.191
316.499
316.781
317.017
317.188
317.278
317.278
317.188
317.017
316.781
316.499
316.191
315.874
315.564
315.281
315.068
311.756
311.919
312.139
312.38
312.626
312.866
313.085
313.268
313.401
313.471
313.471
313.401
313.268
313.085
312.866
312.626
312.38
312.139
311.919
311.756
308.419
308.535
308.691
308.863
309.039
309.21
309.367
309.498
309.592
309.642
309.642
309.592
309.498
309.367
309.21
309.039
308.863
308.691
308.535
308.419
305.064
305.133
305.227
305.33
305.436
305.539
305.633
305.711
305.768
305.798
305.798
305.768
305.711
305.633
305.539
305.436
305.33
305.227
305.133
305.064
301.699
301.722
301.753
301.788
301.823
301.858
301.889
301.916
301.935
301.945
301.945
301.935
301.916
301.889
301.858
301.823
301.788
301.753
301.722
301.699
325.151
325.514
325.974
326.469
326.974
327.463
327.91
328.284
328.554
328.696
328.696
328.554
328.284
327.91
327.463
326.974
326.469
325.974
325.514
325.151
321.909
322.216
322.612
323.041
323.478
323.901
324.288
324.611
324.845
324.967
324.967
324.845
324.611
324.288
323.901
323.478
323.041
322.612
322.216
321.909
318.619
318.874
319.208
319.571
319.94
320.298
320.625
320.898
321.095
321.198
321.198
321.095
320.898
320.625
320.298
319.94
319.571
319.208
318.874
318.619
315.291
315.496
315.768
316.064
316.366
316.659
316.926
317.149
317.31
317.395
317.395
317.31
317.149
316.926
316.659
316.366
316.064
315.768
315.496
315.291
311.93
312.087
312.299
312.529
312.763
312.991
313.198
313.372
313.497
313.563
313.563
313.497
313.372
313.198
312.991
312.763
312.529
312.299
312.087
311.93
308.543
308.655
308.806
308.97
309.138
309.3
309.448
309.572
309.661
309.708
309.708
309.661
309.572
309.448
309.3
309.138
308.97
308.806
308.655
308.543
305.139
305.206
305.296
305.395
305.495
305.593
305.682
305.756
305.81
305.838
305.838
305.81
305.756
305.682
305.593
305.495
305.395
305.296
305.206
305.139
301.724
301.746
301.776
301.809
301.843
301.876
301.906
301.931
301.949
301.958
301.958
301.949
301.931
301.906
301.876
301.843
301.809
301.776
301.746
301.724
325.596
325.943
326.381
326.851
327.328
327.789
328.208
328.557
328.808
328.941
328.941
328.808
328.557
328.208
327.789
327.328
326.851
326.381
325.943
325.596
322.296
322.59
322.968
323.375
323.787
324.186
324.549
324.851
325.068
325.183
325.183
325.068
324.851
324.549
324.186
323.787
323.375
322.968
322.59
322.296
318.949
319.192
319.511
319.855
320.204
320.541
320.847
321.102
321.286
321.383
321.383
321.286
321.102
320.847
320.541
320.204
319.855
319.511
319.192
318.949
315.561
315.757
316.017
316.298
316.583
316.859
317.11
317.318
317.468
317.547
317.547
317.468
317.318
317.11
316.859
316.583
316.298
316.017
315.757
315.561
312.141
312.291
312.493
312.711
312.933
313.147
313.342
313.504
313.621
313.682
313.682
313.621
313.504
313.342
313.147
312.933
312.711
312.493
312.291
312.141
308.695
308.801
308.945
309.101
309.259
309.412
309.551
309.667
309.75
309.794
309.794
309.75
309.667
309.551
309.412
309.259
309.101
308.945
308.801
308.695
305.23
305.294
305.38
305.473
305.569
305.66
305.744
305.813
305.863
305.89
305.89
305.863
305.813
305.744
305.66
305.569
305.473
305.38
305.294
305.23
301.754
301.776
301.804
301.836
301.868
301.899
301.927
301.95
301.967
301.975
301.975
301.967
301.95
301.927
301.899
301.868
301.836
301.804
301.776
301.754
326.12
326.45
326.865
327.308
327.755
328.185
328.575
328.898
329.131
329.252
329.252
329.131
328.898
328.575
328.185
327.755
327.308
326.865
326.45
326.12
322.753
323.032
323.389
323.773
324.16
324.533
324.87
325.15
325.351
325.456
325.456
325.351
325.15
324.87
324.533
324.16
323.773
323.389
323.032
322.753
319.337
319.568
319.87
320.194
320.521
320.836
321.121
321.358
321.528
321.617
321.617
321.528
321.358
321.121
320.836
320.521
320.194
319.87
319.568
319.337
315.88
316.066
316.312
316.577
316.845
317.102
317.335
317.529
317.667
317.74
317.74
317.667
317.529
317.335
317.102
316.845
316.577
316.312
316.066
315.88
312.389
312.532
312.723
312.929
313.137
313.337
313.519
313.669
313.777
313.833
313.833
313.777
313.669
313.519
313.337
313.137
312.929
312.723
312.532
312.389
308.873
308.974
309.11
309.257
309.406
309.549
309.678
309.785
309.862
309.903
309.903
309.862
309.785
309.678
309.549
309.406
309.257
309.11
308.974
308.873
305.337
305.397
305.479
305.567
305.657
305.743
305.82
305.885
305.931
305.955
305.955
305.931
305.885
305.82
305.743
305.657
305.567
305.479
305.397
305.337
301.79
301.811
301.838
301.867
301.897
301.926
301.952
301.974
301.989
301.997
301.997
301.989
301.974
301.952
301.926
301.897
301.867
301.838
301.811
301.79
326.726
327.037
327.427
327.842
328.259
328.658
329.017
329.315
329.528
329.639
329.639
329.528
329.315
329.017
328.658
328.259
327.842
327.427
327.037
326.726
323.28
323.544
323.88
324.239
324.6
324.946
325.257
325.514
325.699
325.795
325.795
325.699
325.514
325.257
324.946
324.6
324.239
323.88
323.544
323.28
319.785
320.004
320.287
320.591
320.896
321.188
321.451
321.669
321.825
321.906
321.906
321.825
321.669
321.451
321.188
320.896
320.591
320.287
320.004
319.785
316.248
316.424
316.655
316.903
317.153
317.392
317.607
317.785
317.912
317.979
317.979
317.912
317.785
317.607
317.392
317.153
316.903
316.655
316.424
316.248
312.676
312.812
312.991
313.184
313.378
313.564
313.731
313.869
313.968
314.02
314.02
313.968
313.869
313.731
313.564
313.378
313.184
312.991
312.812
312.676
309.078
309.174
309.302
309.439
309.578
309.711
309.83
309.929
310
310.037
310.037
310
309.929
309.83
309.711
309.578
309.439
309.302
309.174
309.078
305.461
305.518
305.594
305.677
305.761
305.84
305.912
305.971
306.014
306.036
306.036
306.014
305.971
305.912
305.84
305.761
305.677
305.594
305.518
305.461
301.832
301.851
301.877
301.904
301.932
301.959
301.983
302.003
302.017
302.025
302.025
302.017
302.003
301.983
301.959
301.932
301.904
301.877
301.851
301.832
327.415
327.707
328.072
328.458
328.844
329.212
329.541
329.813
330.007
330.108
330.108
330.007
329.813
329.541
329.212
328.844
328.458
328.072
327.707
327.415
323.88
324.128
324.442
324.777
325.111
325.43
325.715
325.95
326.118
326.206
326.206
326.118
325.95
325.715
325.43
325.111
324.777
324.442
324.128
323.88
320.295
320.5
320.765
321.048
321.331
321.6
321.842
322.04
322.182
322.257
322.257
322.182
322.04
321.842
321.6
321.331
321.048
320.765
320.5
320.295
316.666
316.832
317.048
317.279
317.511
317.731
317.928
318.091
318.207
318.268
318.268
318.207
318.091
317.928
317.731
317.511
317.279
317.048
316.832
316.666
313.003
313.13
313.298
313.477
313.657
313.829
313.982
314.109
314.199
314.246
314.246
314.199
314.109
313.982
313.829
313.657
313.477
313.298
313.13
313.003
309.312
309.402
309.521
309.65
309.778
309.901
310.011
310.101
310.165
310.199
310.199
310.165
310.101
310.011
309.901
309.778
309.65
309.521
309.402
309.312
305.601
305.655
305.727
305.804
305.881
305.955
306.02
306.075
306.113
306.134
306.134
306.113
306.075
306.02
305.955
305.881
305.804
305.727
305.655
305.601
301.879
301.897
301.921
301.947
301.973
301.997
302.019
302.038
302.051
302.057
302.057
302.051
302.038
302.019
301.997
301.973
301.947
301.921
301.897
301.879
328.188
328.462
328.802
329.16
329.515
329.852
330.152
330.399
330.575
330.666
330.666
330.575
330.399
330.152
329.852
329.515
329.16
328.802
328.462
328.188
324.554
324.786
325.079
325.388
325.696
325.988
326.249
326.462
326.614
326.694
326.694
326.614
326.462
326.249
325.988
325.696
325.388
325.079
324.786
324.554
320.867
321.059
321.306
321.568
321.829
322.076
322.296
322.477
322.605
322.672
322.672
322.605
322.477
322.296
322.076
321.829
321.568
321.306
321.059
320.867
317.137
317.291
317.493
317.707
317.92
318.122
318.302
318.45
318.555
318.61
318.61
318.555
318.45
318.302
318.122
317.92
317.707
317.493
317.291
317.137
313.37
313.489
313.645
313.811
313.977
314.134
314.274
314.389
314.471
314.514
314.514
314.471
314.389
314.274
314.134
313.977
313.811
313.645
313.489
313.37
309.575
309.659
309.77
309.889
310.008
310.12
310.22
310.302
310.36
310.391
310.391
310.36
310.302
310.22
310.12
310.008
309.889
309.77
309.659
309.575
305.759
305.81
305.876
305.948
306.019
306.086
306.147
306.196
306.231
306.249
306.249
306.231
306.196
306.147
306.086
306.019
305.948
305.876
305.81
305.759
301.932
301.949
301.971
301.995
302.019
302.042
302.062
302.078
302.09
302.096
302.096
302.09
302.078
302.062
302.042
302.019
301.995
301.971
301.949
301.932
329.049
329.304
329.619
329.948
330.274
330.582
330.855
331.077
331.236
331.318
331.318
331.236
331.077
330.855
330.582
330.274
329.948
329.619
329.304
329.049
325.303
325.519
325.791
326.076
326.359
326.625
326.862
327.055
327.192
327.263
327.263
327.192
327.055
326.862
326.625
326.359
326.076
325.791
325.519
325.303
321.504
321.683
321.912
322.154
322.393
322.618
322.818
322.981
323.097
323.158
323.158
323.097
322.981
322.818
322.618
322.393
322.154
321.912
321.683
321.504
317.66
317.804
317.99
318.188
318.383
318.568
318.731
318.865
318.96
319.009
319.009
318.96
318.865
318.731
318.568
318.383
318.188
317.99
317.804
317.66
313.778
313.888
314.033
314.187
314.339
314.482
314.61
314.714
314.787
314.826
314.826
314.787
314.714
314.61
314.482
314.339
314.187
314.033
313.888
313.778
309.867
309.945
310.048
310.158
310.267
310.369
310.46
310.534
310.587
310.615
310.615
310.587
310.534
310.46
310.369
310.267
310.158
310.048
309.945
309.867
305.935
305.982
306.044
306.11
306.175
306.236
306.291
306.336
306.367
306.384
306.384
306.367
306.336
306.291
306.236
306.175
306.11
306.044
305.982
305.935
301.991
302.007
302.027
302.049
302.071
302.092
302.11
302.125
302.136
302.141
302.141
302.136
302.125
302.11
302.092
302.071
302.049
302.027
302.007
301.991
329.997
330.234
330.524
330.827
331.125
331.404
331.651
331.852
331.994
332.068
332.068
331.994
331.852
331.651
331.404
331.125
330.827
330.524
330.234
329.997
326.129
326.329
326.58
326.842
327.101
327.343
327.556
327.73
327.854
327.917
327.917
327.854
327.73
327.556
327.343
327.101
326.842
326.58
326.329
326.129
322.206
322.372
322.583
322.805
323.024
323.228
323.409
323.557
323.661
323.715
323.715
323.661
323.557
323.409
323.228
323.024
322.805
322.583
322.372
322.206
318.236
318.369
318.542
318.723
318.902
319.07
319.218
319.338
319.423
319.467
319.467
319.423
319.338
319.218
319.07
318.902
318.723
318.542
318.369
318.236
314.227
314.33
314.463
314.605
314.744
314.874
314.989
315.083
315.149
315.184
315.184
315.149
315.083
314.989
314.874
314.744
314.605
314.463
314.33
314.227
310.189
310.261
310.357
310.457
310.557
310.65
310.732
310.799
310.847
310.871
310.871
310.847
310.799
310.732
310.65
310.557
310.457
310.357
310.261
310.189
306.129
306.172
306.229
306.29
306.349
306.405
306.455
306.495
306.524
306.538
306.538
306.524
306.495
306.455
306.405
306.349
306.29
306.229
306.172
306.129
302.056
302.07
302.089
302.11
302.13
302.149
302.165
302.179
302.188
302.193
302.193
302.188
302.179
302.165
302.149
302.13
302.11
302.089
302.07
302.056
331.034
331.252
331.52
331.797
332.069
332.321
332.544
332.724
332.851
332.917
332.917
332.851
332.724
332.544
332.321
332.069
331.797
331.52
331.252
331.034
327.032
327.217
327.447
327.688
327.923
328.142
328.335
328.491
328.602
328.659
328.659
328.602
328.491
328.335
328.142
327.923
327.688
327.447
327.217
327.032
322.973
323.126
323.321
323.524
323.723
323.908
324.072
324.204
324.297
324.345
324.345
324.297
324.204
324.072
323.908
323.723
323.524
323.321
323.126
322.973
318.865
318.989
319.147
319.314
319.476
319.628
319.762
319.87
319.946
319.986
319.986
319.946
319.87
319.762
319.628
319.476
319.314
319.147
318.989
318.865
314.718
314.813
314.936
315.065
315.192
315.31
315.414
315.498
315.558
315.588
315.588
315.558
315.498
315.414
315.31
315.192
315.065
314.936
314.813
314.718
310.54
310.607
310.695
310.787
310.878
310.962
311.037
311.097
311.139
311.161
311.161
311.139
311.097
311.037
310.962
310.878
310.787
310.695
310.607
310.54
306.34
306.38
306.433
306.488
306.543
306.593
306.638
306.674
306.7
306.713
306.713
306.7
306.674
306.638
306.593
306.543
306.488
306.433
306.38
306.34
302.127
302.14
302.158
302.176
302.195
302.212
302.227
302.239
302.247
302.252
302.252
302.247
302.239
302.227
302.212
302.195
302.176
302.158
302.14
302.127
332.157
332.359
332.605
332.858
333.104
333.333
333.533
333.694
333.808
333.867
333.867
333.808
333.694
333.533
333.333
333.104
332.858
332.605
332.359
332.157
328.009
328.18
328.392
328.612
328.825
329.023
329.197
329.337
329.435
329.486
329.486
329.435
329.337
329.197
329.023
328.825
328.612
328.392
328.18
328.009
323.803
323.945
324.123
324.309
324.49
324.657
324.804
324.923
325.006
325.049
325.049
325.006
324.923
324.804
324.657
324.49
324.309
324.123
323.945
323.803
319.547
319.661
319.806
319.958
320.106
320.244
320.364
320.461
320.529
320.564
320.564
320.529
320.461
320.364
320.244
320.106
319.958
319.806
319.661
319.547
315.25
315.337
315.45
315.568
315.683
315.79
315.884
315.959
316.012
316.04
316.04
316.012
315.959
315.884
315.79
315.683
315.568
315.45
315.337
315.25
310.921
310.983
311.063
311.148
311.23
311.306
311.373
311.427
311.465
311.485
311.485
311.465
311.427
311.373
311.306
311.23
311.148
311.063
310.983
310.921
306.569
306.606
306.654
306.705
306.754
306.8
306.84
306.873
306.896
306.907
306.907
306.896
306.873
306.84
306.8
306.754
306.705
306.654
306.606
306.569
302.204
302.216
302.232
302.249
302.266
302.281
302.294
302.305
302.313
302.317
302.317
302.313
302.305
302.294
302.281
302.266
302.249
302.232
302.216
302.204
333.363
333.548
333.773
334.004
334.228
334.434
334.614
334.758
334.86
334.912
334.912
334.86
334.758
334.614
334.434
334.228
334.004
333.773
333.548
333.363
329.058
329.215
329.409
329.609
329.803
329.982
330.138
330.263
330.351
330.397
330.397
330.351
330.263
330.138
329.982
329.803
329.609
329.409
329.215
329.058
324.693
324.823
324.987
325.156
325.32
325.472
325.604
325.71
325.784
325.823
325.823
325.784
325.71
325.604
325.472
325.32
325.156
324.987
324.823
324.693
320.277
320.381
320.515
320.654
320.788
320.912
321.02
321.107
321.168
321.199
321.199
321.168
321.107
321.02
320.912
320.788
320.654
320.515
320.381
320.277
315.819
315.899
316.003
316.11
316.215
316.311
316.395
316.463
316.51
316.535
316.535
316.51
316.463
316.395
316.311
316.215
316.11
316.003
315.899
315.819
311.328
311.385
311.459
311.536
311.61
311.679
311.739
311.788
311.822
311.839
311.839
311.822
311.788
311.739
311.679
311.61
311.536
311.459
311.385
311.328
306.814
306.848
306.892
306.938
306.983
307.025
307.061
307.09
307.11
307.121
307.121
307.11
307.09
307.061
307.025
306.983
306.938
306.892
306.848
306.814
302.286
302.297
302.312
302.327
302.342
302.356
302.368
302.378
302.385
302.388
302.388
302.385
302.378
302.368
302.356
302.342
302.327
302.312
302.297
302.286
334.637
334.807
335.013
335.224
335.426
335.612
335.774
335.903
335.994
336.04
336.04
335.994
335.903
335.774
335.612
335.426
335.224
335.013
334.807
334.637
330.164
330.308
330.486
330.668
330.844
331.005
331.145
331.258
331.336
331.377
331.377
331.336
331.258
331.145
331.005
330.844
330.668
330.486
330.308
330.164
325.63
325.749
325.899
326.054
326.202
326.339
326.458
326.553
326.619
326.653
326.653
326.619
326.553
326.458
326.339
326.202
326.054
325.899
325.749
325.63
321.044
321.14
321.262
321.389
321.511
321.622
321.72
321.797
321.852
321.88
321.88
321.852
321.797
321.72
321.622
321.511
321.389
321.262
321.14
321.044
316.416
316.49
316.585
316.683
316.778
316.865
316.94
317.001
317.043
317.065
317.065
317.043
317.001
316.94
316.865
316.778
316.683
316.585
316.49
316.416
311.755
311.807
311.875
311.945
312.013
312.075
312.129
312.172
312.203
312.218
312.218
312.203
312.172
312.129
312.075
312.013
311.945
311.875
311.807
311.755
307.07
307.101
307.142
307.184
307.225
307.262
307.295
307.321
307.339
307.348
307.348
307.339
307.321
307.295
307.262
307.225
307.184
307.142
307.101
307.07
302.372
302.382
302.396
302.41
302.423
302.436
302.447
302.456
302.462
302.465
302.465
302.462
302.456
302.447
302.436
302.423
302.41
302.396
302.382
302.372
335.944
336.101
336.29
336.482
336.666
336.834
336.979
337.095
337.176
337.218
337.218
337.176
337.095
336.979
336.834
336.666
336.482
336.29
336.101
335.944
331.293
331.426
331.589
331.755
331.915
332.061
332.187
332.288
332.358
332.394
332.394
332.358
332.288
332.187
332.061
331.915
331.755
331.589
331.426
331.293
326.582
326.692
326.83
326.971
327.106
327.23
327.337
327.422
327.482
327.512
327.512
327.482
327.422
327.337
327.23
327.106
326.971
326.83
326.692
326.582
321.821
321.91
322.022
322.137
322.248
322.35
322.437
322.507
322.556
322.581
322.581
322.556
322.507
322.437
322.35
322.248
322.137
322.022
321.91
321.821
317.019
317.087
317.174
317.264
317.35
317.429
317.497
317.552
317.59
317.609
317.609
317.59
317.552
317.497
317.429
317.35
317.264
317.174
317.087
317.019
312.185
312.233
312.295
312.36
312.421
312.478
312.526
312.565
312.593
312.607
312.607
312.593
312.565
312.526
312.478
312.421
312.36
312.295
312.233
312.185
307.328
307.357
307.394
307.433
307.47
307.504
307.533
307.557
307.573
307.581
307.581
307.573
307.557
307.533
307.504
307.47
307.433
307.394
307.357
307.328
302.458
302.468
302.48
302.493
302.506
302.517
302.527
302.535
302.54
302.543
302.543
302.54
302.535
302.527
302.517
302.506
302.493
302.48
302.468
302.458
337.198
337.343
337.517
337.693
337.861
338.015
338.147
338.252
338.325
338.363
338.363
338.325
338.252
338.147
338.015
337.861
337.693
337.517
337.343
337.198
332.363
332.486
332.636
332.789
332.936
333.069
333.184
333.275
333.339
333.371
333.371
333.339
333.275
333.184
333.069
332.936
332.789
332.636
332.486
332.363
327.475
327.577
327.704
327.834
327.958
328.071
328.168
328.246
328.3
328.328
328.328
328.3
328.246
328.168
328.071
327.958
327.834
327.704
327.577
327.475
322.543
322.625
322.729
322.835
322.937
323.03
323.11
323.173
323.217
323.24
323.24
323.217
323.173
323.11
323.03
322.937
322.835
322.729
322.625
322.543
317.575
317.638
317.719
317.802
317.881
317.953
318.015
318.065
318.099
318.117
318.117
318.099
318.065
318.015
317.953
317.881
317.802
317.719
317.638
317.575
312.579
312.624
312.682
312.741
312.798
312.849
312.894
312.929
312.954
312.967
312.967
312.954
312.929
312.894
312.849
312.798
312.741
312.682
312.624
312.579
307.564
307.591
307.625
307.661
307.695
307.726
307.753
307.774
307.789
307.797
307.797
307.789
307.774
307.753
307.726
307.695
307.661
307.625
307.591
307.564
302.537
302.546
302.557
302.569
302.581
302.591
302.6
302.607
302.612
302.615
302.615
302.612
302.607
302.6
302.591
302.581
302.569
302.557
302.546
302.537
338.174
338.311
338.475
338.64
338.798
338.94
339.063
339.161
339.229
339.263
339.263
339.229
339.161
339.063
338.94
338.798
338.64
338.475
338.311
338.174
333.165
333.281
333.423
333.567
333.704
333.829
333.936
334.021
334.08
334.111
334.111
334.08
334.021
333.936
333.829
333.704
333.567
333.423
333.281
333.165
328.124
328.22
328.341
328.463
328.58
328.686
328.777
328.849
328.9
328.926
328.926
328.9
328.849
328.777
328.686
328.58
328.463
328.341
328.22
328.124
323.055
323.133
323.231
323.332
323.428
323.515
323.59
323.649
323.691
323.712
323.712
323.691
323.649
323.59
323.515
323.428
323.332
323.231
323.133
323.055
317.962
318.022
318.098
318.177
318.252
318.32
318.378
318.425
318.457
318.474
318.474
318.457
318.425
318.378
318.32
318.252
318.177
318.098
318.022
317.962
312.85
312.893
312.947
313.003
313.057
313.106
313.148
313.181
313.204
313.216
313.216
313.204
313.181
313.148
313.106
313.057
313.003
312.947
312.893
312.85
307.724
307.75
307.783
307.816
307.849
307.878
307.903
307.923
307.937
307.944
307.944
307.937
307.923
307.903
307.878
307.849
307.816
307.783
307.75
307.724
302.59
302.599
302.61
302.621
302.632
302.642
302.65
302.657
302.662
302.664
302.664
302.662
302.657
302.65
302.642
302.632
302.621
302.61
302.599
302.59
)
;

boundaryField
{
    hotSide
    {
        type            fixedGradient;
        gradient        nonuniform List<scalar> 
400
(
244.019
244.749
246.214
248.421
251.384
255.116
259.637
264.963
271.116
278.114
285.977
294.722
304.367
314.925
326.409
338.831
352.2
366.523
381.806
398.055
249.39
250.078
251.459
253.545
256.352
259.9
264.211
269.311
275.225
281.978
289.592
298.092
307.495
317.82
329.081
341.292
354.462
368.599
383.709
399.797
255.203
255.84
257.122
259.063
261.686
265.016
269.084
273.921
279.559
286.031
293.364
301.586
310.72
320.788
331.805
343.785
356.741
370.679
385.606
401.525
261.361
261.939
263.105
264.879
267.289
270.37
274.16
278.699
284.028
290.186
297.208
305.126
313.969
323.759
334.516
346.253
358.984
372.715
387.453
403.2
267.692
268.204
269.24
270.827
273
275.804
279.288
283.502
288.495
294.316
301.007
308.605
317.142
326.644
337.133
348.623
361.126
374.65
389.199
404.775
273.933
274.373
275.27
276.658
278.58
281.093
284.256
288.131
292.778
298.254
304.608
311.883
320.116
329.333
339.558
350.807
363.091
376.415
390.785
406.2
279.725
280.094
280.853
282.042
283.716
285.942
288.791
292.337
296.651
301.796
307.83
314.802
322.749
331.702
341.685
352.713
364.797
377.942
392.151
407.422
284.642
284.946
285.581
286.592
288.043
290.013
292.585
295.841
299.862
304.721
310.479
317.189
324.894
333.624
343.403
354.246
366.164
379.161
393.238
408.392
288.239
288.495
289.034
289.909
291.192
292.968
295.329
298.368
302.171
306.815
312.369
318.887
326.414
334.981
344.612
355.323
367.122
380.012
393.995
409.065
290.146
290.375
290.862
291.663
292.853
294.525
296.773
299.694
303.379
307.91
313.355
319.771
327.203
335.684
345.237
355.878
367.615
380.45
394.383
409.41
290.146
290.375
290.862
291.663
292.853
294.525
296.773
299.694
303.379
307.91
313.355
319.771
327.203
335.684
345.237
355.878
367.615
380.45
394.383
409.41
288.239
288.495
289.034
289.909
291.192
292.968
295.329
298.368
302.171
306.815
312.369
318.887
326.414
334.981
344.612
355.323
367.122
380.012
393.995
409.065
284.642
284.946
285.581
286.592
288.043
290.013
292.585
295.841
299.862
304.721
310.479
317.189
324.894
333.624
343.403
354.246
366.164
379.161
393.238
408.392
279.725
280.094
280.853
282.042
283.716
285.942
288.791
292.337
296.651
301.796
307.83
314.802
322.749
331.702
341.685
352.713
364.797
377.942
392.151
407.422
273.933
274.373
275.27
276.658
278.58
281.093
284.256
288.131
292.778
298.254
304.608
311.883
320.116
329.333
339.558
350.807
363.091
376.415
390.785
406.2
267.692
268.204
269.24
270.827
273
275.804
279.288
283.502
288.495
294.316
301.007
308.605
317.142
326.644
337.133
348.623
361.126
374.65
389.199
404.775
261.361
261.939
263.105
264.879
267.289
270.37
274.16
278.699
284.028
290.186
297.208
305.126
313.969
323.759
334.516
346.253
358.984
372.715
387.453
403.2
255.203
255.84
257.122
259.063
261.686
265.016
269.084
273.921
279.559
286.031
293.364
301.586
310.72
320.788
331.805
343.785
356.741
370.679
385.606
401.525
249.39
250.078
251.459
253.545
256.352
259.9
264.211
269.311
275.225
281.978
289.592
298.092
307.495
317.82
329.081
341.292
354.462
368.599
383.709
399.797
244.019
244.749
246.214
248.421
251.384
255.116
259.637
264.963
271.116
278.114
285.977
294.722
304.367
314.925
326.409
338.831
352.2
366.523
381.806
398.055
)
;
    }
    coldSide
    {
        type            mixed;
        refValue        uniform 300;
        refGradient     uniform 0;
        valueFraction   uniform 0.991591;
        source          uniform 0;
        value           nonuniform List<scalar> 
400
(
300.014
300.014
300.014
300.014
300.014
300.014
300.015
300.015
300.015
300.016
300.016
300.017
300.017
300.018
300.019
300.019
300.02
300.021
300.021
300.022
300.014
300.014
300.014
300.014
300.014
300.015
300.015
300.015
300.016
300.016
300.016
300.017
300.017
300.018
300.019
300.019
300.02