/*--------------------------------*- C++ -*----------------------------------*\
| =========                 |                                                 |
| \\      /  F ield         | OpenFOAM: The Open Source CFD Toolbox           |
|  \\    /   O peration     | Version:  2212                                  |
|   \\  /    A nd           | Website:  www.openfoam.com                      |
|    \\/     M anipulation  |                                                 |
\*---------------------------------------------------------------------------*/
FoamFile
{
    version     2.0;
    format      ascii;
    arch        "LSB;label=32;scalar=64";
    class       volScalarField;
    location    "0";
    object      relativeErrorField;
}
// * * * * * * * * * * * * * * * * * * * * * * * * * * * * * * * * * * * * * //

dimensions      [0 0 0 1 0 0 0];

internalField   nonuniform List<scalar> 
3200
(
0.011698
0.0124245
0.0131495
0.0141996
0.0153078
0.0163355
0.0175944
0.0183926
0.0192433
0.019854
0.0200557
0.0199295
0.0198444
0.0194626
0.0190304
0.0181213
0.0176339
0.0171402
0.0164056
0.0160464
0.00978475
0.0106592
0.0114027
0.012263
0.0131033
0.0139159
0.0149365
0.015613
0.016499
0.0168469
0.0171085
0.0171588
0.0170634
0.0167351
0.0161872
0.0155265
0.0150648
0.0143421
0.0140821
0.0138203
0.00826067
0.00886159
0.00930326
0.00997932
0.0108069
0.011521
0.0125035
0.013237
0.0138863
0.0141988
0.0141695
0.0145294
0.0143655
0.0139037
0.0134684
0.0131701
0.0126096
0.0122622
0.0117466
0.0112087
0.00667791
0.00689861
0.0073939
0.00811577
0.00875042
0.00939351
0.0103633
0.0107181
0.0110843
0.0116052
0.0117582
0.0118275
0.0116712
0.0113786
0.0112368
0.0107469
0.0103081
0.00989258
0.0095676
0.0093278
0.00514381
0.00535017
0.00571769
0.006117
0.00666072
0.00743844
0.00784979
0.00844935
0.00886327
0.00896518
0.00925071
0.00910137
0.00907695
0.00900149
0.00859591
0.00812097
0.00814661
0.00757274
0.00754167
0.00725823
0.00340157
0.00392688
0.00412701
0.00445178
0.00488768
0.00523722
0.00588951
0.00595233
0.00626827
0.00651987
0.00665038
0.0063655
0.00653458
0.00623605
0.00622486
0.00577256
0.00564468
0.0053974
0.00527759
0.00515515
0.00218587
0.00240838
0.00246125
0.00297924
0.0029976
0.00316315
0.00308986
0.00348268
0.00373743
0.0038849
0.00402982
0.00389189
0.00390511
0.00380861
0.00359794
0.00363827
0.003686
0.00325962
0.00294403
0.00324453
0.000616096
0.000743322
0.00058679
0.000996943
0.000875708
0.000938511
0.00104099
0.00133339
0.00141627
0.00134208
0.00152802
0.00134438
0.00109492
0.00134076
0.00130115
0.000962344
0.000957038
0.00108778
0.000975358
0.00100533
0.00967473
0.0103625
0.01138
0.0123325
0.0132308
0.0145017
0.0154547
0.0161987
0.0172542
0.0176681
0.0179677
0.0179874
0.0175104
0.0170707
0.0165926
0.0161002
0.0154517
0.0149912
0.0145143
0.0141799
0.00873336
0.00920055
0.00971261
0.0106291
0.0114141
0.0122584
0.0133757
0.0140096
0.0147561
0.01497
0.0153477
0.0153356
0.0153986
0.0148671
0.0140877
0.013963
0.0133359
0.0128985
0.0122002
0.0119147
0.00710287
0.00748072
0.0080181
0.0089247
0.00964885
0.0104497
0.0112556
0.0116357
0.0123175
0.0128549
0.0129409
0.0131878
0.012999
0.0125489
0.0121029
0.0118581
0.0112157
0.0108771
0.0105604
0.0103361
0.00575976
0.00603398
0.0067219
0.0071267
0.00776462
0.00838149
0.00883565
0.0093528
0.00995744
0.010324
0.0104954
0.0107203
0.0105003
0.0103495
0.00987365
0.00954677
0.00928404
0.00886041
0.00867021
0.00840606
0.00429784
0.0044896
0.00489677
0.00569617
0.00580383
0.00640479
0.00714547
0.00739909
0.00778755
0.00790835
0.00808569
0.00807041
0.00808264
0.00775323
0.00777262
0.00726962
0.00685449
0.00691093
0.00669524
0.00643167
0.00317673
0.00329936
0.00360033
0.00388298
0.00427226
0.00475991
0.00497621
0.0052399
0.00538698
0.00569727
0.00563709
0.0056974
0.00574914
0.00571419
0.00558053
0.00537845
0.00503174
0.00497782
0.0048042
0.00482805
0.00171774
0.00188532
0.00210613
0.00239361
0.00260216
0.0027751
0.00306242
0.00309374
0.00354541
0.00352854
0.0033795
0.0034627
0.0034445
0.00338021
0.00327382
0.00292186
0.00286083
0.00293723
0.00301804
0.00270791
0.000617069
0.000679276
0.000775381
0.000934218
0.000790157
0.00101537
0.00117925
0.000973483
0.0014659
0.00124529
0.00112718
0.00138701
0.00100237
0.000965332
0.0011316
0.00129428
0.00105993
0.000965225
0.00104895
0.000859626
0.00763719
0.00820725
0.00893532
0.00980583
0.0106582
0.0117078
0.0128512
0.0137408
0.0142976
0.0147418
0.0150374
0.0149589
0.0149394
0.0144749
0.0139667
0.0133041
0.0127832
0.0124601
0.0119146
0.0115311
0.0064464
0.00681788
0.00749235
0.0083685
0.00885007
0.00993198
0.0108267
0.0117944
0.0122306
0.012645
0.0128195
0.0128521
0.0127309
0.0122134
0.0119327
0.0114153
0.0109627
0.0108269
0.0102205
0.00988077
0.00517497
0.0055558
0.00624971
0.00711544
0.00756441
0.00840228
0.00896646
0.00961554
0.0101698
0.0106239
0.0108837
0.0108328
0.0105609
0.0103784
0.0100962
0.00975263
0.00921594
0.00914167
0.00866562
0.00830881
0.00424841
0.00453751
0.00523907
0.0057491
0.00611862
0.00689977
0.00741129
0.0079119
0.00821241
0.00857577
0.00894281
0.00894479
0.00888573
0.00854666
0.00839684
0.00788354
0.00768615
0.0073562
0.00701
0.00688199
0.00317715
0.00341906
0.00389048
0.00435687
0.00490111
0.00524062
0.00551266
0.00620926
0.00640944
0.00662322
0.00685735
0.00693179
0.00660276
0.00659082
0.00649138
0.00630875
0.00598406
0.00554677
0.00542381
0.00525182
0.00239889
0.00263726
0.00262904
0.00304062
0.00359355
0.00374494
0.00404559
0.00459551
0.00450515
0.00493683
0.00477392
0.00483122
0.0050864
0.0048517
0.00461167
0.00444442
0.00409135
0.00404137
0.00401236
0.00374753
0.00137126
0.00153367
0.00166736
0.0020143
0.00198298
0.00213754
0.00234304
0.00268996
0.00289164
0.00284765
0.00303661
0.00285049
0.0030243
0.00309173
0.00267255
0.00264153
0.00216505
0.0026265
0.00241369
0.00220645
0.000572415
0.000651678
0.00075879
0.000582201
0.000720615
0.00100233
0.000938597
0.000889623
0.000802857
0.00091159
0.00105181
0.0010515
0.000906476
0.000846589
0.000750927
0.00103752
0.000782376
0.000872975
0.00101875
0.000759647
0.00535462
0.00555011
0.00620109
0.00708566
0.00787068
0.00869564
0.00968419
0.0101945
0.0108517
0.0117751
0.012021
0.0118525
0.0117598
0.0115561
0.0109356
0.0105987
0.0101433
0.00927895
0.00905969
0.00867164
0.0042857
0.00479368
0.00505381
0.00598433
0.00671882
0.00723763
0.00830047
0.00907729
0.00964572
0.0099527
0.0103251
0.0103241
0.0100473
0.00966169
0.00922406
0.00888321
0.00846523
0.00828462
0.00789129
0.00769508
0.00362364
0.00399242
0.00438071
0.00487699
0.00552941
0.00634314
0.0069852
0.0074973
0.00786505
0.00839333
0.00847713
0.00859974
0.00844817
0.00838039
0.00754093
0.00763387
0.00717741
0.00680269
0.00663694
0.00644502
0.00294241
0.00308916
0.00352657
0.00404102
0.00451934
0.00500702
0.0055439
0.00619908
0.00642998
0.00691954
0.00700282
0.00702678
0.00699117
0.00652811
0.00664603
0.00619178
0.00598888
0.00573719
0.00533936
0.00538046
0.00226112
0.00217261
0.00232097
0.00308584
0.0035305
0.0038944
0.0045319
0.00466189
0.00491491
0.00518627
0.00543243
0.00542859
0.00553769
0.00517469
0.00520209
0.00480991
0.00465266
0.00439094
0.00437904
0.00417621
0.0015543
0.00176948
0.00211482
0.00213344
0.00231524
0.00272351
0.00328386
0.00323298
0.00362434
0.00373058
0.00404658
0.00375962
0.00372588
0.00383101
0.0034879
0.00359048
0.00315944
0.00318932
0.00307603
0.0030098
0.000933436
0.000964287
0.0011667
0.00123402
0.00142748
0.00160706
0.00194777
0.00197627
0.00222604
0.00247363
0.00230014
0.00238956
0.00208615
0.002167
0.00230708
0.00191562
0.00175376
0.00186807
0.00180688
0.00171709
0.000132749
0.000375634
0.000242136
0.000333631
0.000521145
0.000652033
0.000618834
0.000756028
0.000710586
0.000831096
0.000807231
0.000909128
0.000896759
0.00057326
0.000848795
0.000662616
0.000878617
0.00058404
0.000783394
0.000514482
0.00265932
0.00325015
0.00359273
0.0045383
0.00494611
0.00593172
0.00665543
0.00763753
0.00826245
0.00864302
0.00858248
0.00896202
0.0087195
0.00821422
0.0080476
0.00783116
0.0072779
0.00691617
0.00662085
0.00619261
0.00219432
0.00247399
0.00296264
0.00375997
0.00426595
0.00487
0.00579043
0.00635664
0.00697758
0.00719224
0.00740134
0.00764043
0.00774799
0.00695582
0.0069168
0.0063096
0.00621997
0.00562088
0.00551374
0.00562177
0.0017581
0.00207483
0.00233794
0.00296144
0.00335301
0.00387235
0.00482049
0.00529998
0.00581462
0.00592938
0.00616597
0.00643097
0.00639807
0.0060218
0.00563634
0.0054179
0.00515535
0.00478277
0.00468938
0.00448394
0.00126024
0.00153668
0.001739
0.00220913
0.00292825
0.0031998
0.0038031
0.00407457
0.00462252
0.0048674
0.00518351
0.00507642
0.00492892
0.00463388
0.00471527
0.004485
0.00420052
0.00425303
0.00384697
0.00350959
0.00104811
0.00139809
0.00130809
0.00180175
0.0021686
0.00234619
0.00295493
0.00340486
0.00364953
0.00390444
0.00388534
0.00404111
0.00396192
0.00410413
0.00351366
0.00342509
0.00318024
0.00306878
0.00301912
0.0028696
0.000642222
0.000852905
0.00119952
0.00113249
0.00171044
0.00189545
0.00206988
0.00229924
0.00261585
0.00253555
0.00295381
0.00263645
0.00280967
0.00268254
0.00265454
0.00242286
0.00218367
0.00235418
0.00201083
0.00216741
0.000252872
0.000747461
0.000579103
0.000804706
0.000910731
0.000861768
0.00133884
0.00151081
0.00152425
0.00145054
0.00162245
0.00152882
0.00152442
0.00154995
0.00141715
0.00161407
0.00139531
0.00116008
0.00148923
0.00124721
0.000138264
0.000264627
0.000210156
0.000209991
0.000315944
0.000504878
0.000558621
0.000417395
0.000341363
0.000572859
0.000334089
0.000591855
0.000629425
0.000717869
0.000406835
0.00022284
0.000502126
0.000298539
0.000477958
0.00043826
0.000386486
0.00062437
0.00136087
0.0018647
0.00228604
0.003227
0.00395481
0.00451792
0.00509508
0.00553749
0.00556246
0.00601033
0.00576991
0.00551659
0.00506652
0.00468137
0.00460812
0.00407744
0.00409228
0.00403373
0.00046269
0.000450023
0.000840507
0.00141352
0.00181976
0.00259851
0.00316056
0.0037902
0.00453737
0.00456566
0.00471074
0.00481208
0.004878
0.00430882
0.00432265
0.00382097
0.003799
0.00361781
0.0034574
0.00335955
0.000289419
0.000311432
0.000608814
0.00127154
0.00132382
0.00208064
0.00238611
0.00335748
0.00355865
0.00379768
0.00393194
0.00400728
0.00398047
0.00366273
0.00372688
0.00336034
0.00311408
0.00272606
0.00283815
0.0026999
3.89202e-05
0.000271841
0.000521483
0.000977748
0.00103036
0.00169232
0.0021087
0.00239485
0.00293217
0.00319059
0.00319117
0.00324751
0.00305804
0.00288742
0.0027032
0.00278771
0.00259993
0.00239479
0.00220985
0.00241531
0.000210397
0.000231353
0.000278611
0.000453819
0.000848824
0.00115955
0.00167457
0.00179046
0.00210784
0.00232966
0.00246807
0.00249421
0.00241602
0.00217542
0.00224351
0.00171022
0.00188762
0.00187913
0.00166808
0.00170419
0.000193263
9.98952e-05
0.000210274
0.000354354
0.000517168
0.000835916
0.00116326
0.000978634
0.00173937
0.00162653
0.00208897
0.00177732
0.001806
0.00180131
0.0015854
0.00130822
0.00132748
0.0012703
0.0013783
0.0014176
4.96807e-05
0.000286942
0.000258479
0.000215833
0.000369574
0.000259633
0.000456688
0.000846186
0.000416613
0.00104702
0.000979133
0.00105332
0.00112959
0.00106807
0.000925636
0.00107905
0.000736366
0.000870404
0.000670681
0.000605759
3.42945e-06
8.85206e-05
5.19055e-05
0.000136512
7.10573e-05
9.90152e-05
0.000206341
0.000278233
0.000280908
0.000534965
0.000323802
0.00014853
0.000554062
0.000162253
0.000458038
0.00012327
0.000222396
0.000307357
0.000234847
0.000238719
0.00157877
0.00136043
0.000938203
0.000635235
0.000185364
0.000694375
0.00120225
0.00183704
0.00244703
0.00277828
0.0028213
0.00294496
0.00277435
0.0026751
0.0022116
0.00225759
0.00196534
0.00197522
0.00185927
0.00178116
0.00158755
0.00113436
0.000980464
0.000765641
0.000291485
0.000573036
0.000943286
0.00140514
0.00171948
0.00225834
0.00210439
0.0024322
0.00240522
0.00235044
0.00178796
0.00162973
0.00165508
0.00149462
0.00127425
0.00137009
0.00131399
0.00116793
0.000972903
0.000695643
0.000100002
9.76109e-05
0.000462396
0.0010568
0.00155995
0.0017979
0.00194643
0.00202717
0.00174727
0.00185933
0.00133443
0.00116734
0.00138466
0.0012816
0.00118975
0.00115913
0.0012593
0.00125741
0.000954703
0.000615375
0.000198152
6.78537e-05
0.000451349
0.000537125
0.00124924
0.00135703
0.00157844
0.00132387
0.00120812
0.00118933
0.00103543
0.00114689
0.00100885
0.000930175
0.000924462
0.000852149
0.000966441
0.00107411
0.00079557
0.000723495
0.000280873
5.48528e-05
0.000492699
0.000430513
0.000674803
0.00105734
0.000900698
0.00101971
0.000869689
0.00111816
0.000857961
0.000783406
0.000585442
0.000545983
0.00054401
0.00049456
0.000581001
0.000723717
0.000489944
0.000364763
0.000124011
1.45231e-05
0.000147306
0.00041499
0.000693927
0.000687397
0.000564161
0.000861047
0.000556178
0.000618279
0.000540587
0.000434013
0.000552556
0.000424753
0.000483679
0.00056201
0.000599501
0.000398198
0.000321139
0.000550208
0.000147883
0.000124781
0.000116184
4.01462e-05
0.000400037
0.000321561
0.000394942
0.000417624
0.000324703
0.000393198
0.000352451
0.000157868
0.000448201
0.000313052
0.00035725
0.000329773
8.32859e-06
0.000183943
3.51685e-05
0.000174012
0.00010229
5.55133e-06
2.09123e-05
0.00015238
0.000381986
0.000127858
0.00017088
0.000208235
7.32238e-05
0.000110249
0.000250988
1.98674e-05
0.000262349
3.57776e-05
1.0479e-05
0.000125075
0.00306578
0.00305398
0.00310907
0.00260561
0.00217694
0.00187289
0.0011841
0.000747444
0.00028184
0.000108904
1.12721e-05
0.000204906
0.000210572
0.000101383
0.000110191
0.000243511
0.000230977
0.000362448
0.000312013
0.000381708
0.00313153
0.00295955
0.00284192
0.00259931
0.00216898
0.00180367
0.00121808
0.000753163
0.000330693
0.000160887
6.97966e-05
0.000113489
2.99016e-05
0.000166489
0.000214808
0.000496089
0.000440883
0.000454915
0.000279765
0.000216522
0.00248986
0.00274132
0.00256192
0.00232895
0.00214183
0.00167873
0.00125185
0.000936281
0.000523198
0.000220982
0.000143538
7.13073e-05
5.72592e-05
0.000368622
3.0163e-05
0.000460517
0.000537053
0.000591551
0.000447281
0.000403732
0.00240995
0.00234691
0.00209735
0.00180027
0.00178978
0.00132163
0.0013302
0.000973287
0.000507018
0.000130505
0.000452594
0.000301233
0.000286621
0.000295614
0.000254935
0.00048832
0.000515623
0.000223562
0.000524471
0.000173887
0.00178038
0.00196633
0.00172395
0.00144589
0.00156544
0.00115367
0.000870348
0.000826701
0.000532555
0.000450193
0.000284977
0.000202151
0.000149704
0.000166681
0.000464903
0.000336287
0.000320659
0.000308219
0.000207949
0.000412283
0.00128327
0.00145647
0.00125789
0.00124294
0.00101884
0.000688885
0.000621789
0.00058165
0.00011785
0.000517152
0.000322728
8.51364e-05
0.000284751
0.000219939
0.000345418
0.000242811
0.000259253
0.000415179
0.00040457
0.000171811
0.000763486
0.000687056
0.000865674
0.000652416
0.000673794
0.000537957
0.000401277
0.00024345
0.000223089
3.5494e-05
0.000109261
0.000122911
0.000120946
4.9014e-05
0.000185078
3.03222e-05
0.000171142
0.00017602
5.52773e-05
0.000369029
0.00037227
0.000171325
5.87016e-05
0.000305528
0.000215007
0.000225088
3.64223e-05
0.000258318
0.00011678
3.58105e-05
4.04772e-05
7.84431e-06
8.09e-05
2.512e-05
3.91462e-05
3.10925e-05
0.000168602
7.76564e-05
0.000121043
1.88766e-05
0.00491851
0.00469907
0.00478485
0.00469203
0.00445125
0.00400596
0.00330156
0.00297933
0.00278701
0.00252755
0.00235541
0.00211136
0.00199913
0.0021146
0.00230472
0.00232394
0.00263733
0.00220505
0.00237992
0.00203921
0.00446974
0.00441781
0.00417409
0.00404881
0.00402057
0.00350717
0.00331885
0.00283439
0.00245173
0.00236967
0.00210721
0.00192785
0.00215766
0.00220384
0.00198194
0.00226905
0.00211274
0.00222106
0.002159
0.00195105
0.00389224
0.00393753
0.00350418
0.00364999
0.00343966
0.00315945
0.00272859
0.00263168
0.00237171
0.00213815
0.00179025
0.00193656
0.00194797
0.00187715
0.00191791
0.00184999
0.00205031
0.00194819
0.0018738
0.00179086
0.00322585
0.00328438
0.00332468
0.00320866
0.00302963
0.00267827
0.00220485
0.0022949
0.00203782
0.00171357
0.00182551
0.00149814
0.00171239
0.00164085
0.00160588
0.00172932
0.00166979
0.00172914
0.0015916
0.00158836
0.00251664
0.00260827
0.00278574
0.00249314
0.00210782
0.00219753
0.00203216
0.00184712
0.00183148
0.00123058
0.00146273
0.00134872
0.00142541
0.00134324
0.00134344
0.00145359
0.00114702
0.0012656
0.00149978
0.00128169
0.00201586
0.00203508
0.00179464
0.00175322
0.00172322
0.00161225
0.00152496
0.00130296
0.00125929
0.000939116
0.000956644
0.00110224
0.00101301
0.00106978
0.000990103
0.000992077
0.00104014
0.00105517
0.000980958
0.000831466
0.00120401
0.00111235
0.00136898
0.000945785
0.00111899
0.00113999
0.000894622
0.000810951
0.000516014
0.00078939
0.000653685
0.000811515
0.000598258
0.000813436
0.000563793
0.000531227
0.000640931
0.000688651
0.0007566
0.000598751
0.000464225
0.000519745
0.000427385
0.000337323
0.000325111
0.000526021
0.00033676
0.0004232
9.03742e-06
0.000308182
0.000489446
0.000322079
0.000278249
0.000276858
0.000385892
0.000174828
0.000151343
0.000281295
7.62572e-05
0.000512643
0.0058534
0.00609808
0.0062359
0.0064171
0.00618488
0.00586563
0.00539729
0.00494887
0.00478792
0.00455553
0.00449932
0.00434378
0.0043248
0.00440232
0.00431981
0.00440584
0.00416633
0.00417058
0.004089
0.00368347
0.00543723
0.00558009
0.00583208
0.00538974
0.00525486
0.00519644
0.00498249
0.00463537
0.00443616
0.00422065
0.00373496
0.00361698
0.0040337
0.00393306
0.00397364
0.00360473
0.0040312
0.00370771
0.00332859
0.00306314
0.00470914
0.00491027
0.00507248
0.0047458
0.00475926
0.00460623
0.00420874
0.00409186
0.00383009
0.00367966
0.00398602
0.00354279
0.00352902
0.00341251
0.00348777
0.00357395
0.00347342
0.00319371
0.00297839
0.00280807
0.00395365
0.0042766
0.00422614
0.00418655
0.00396037
0.004
0.00379629
0.00355817
0.00315668
0.00303868
0.00306134
0.00304921
0.00271697
0.0028442
0.00290877
0.00312658
0.00273431
0.002553
0.00262274
0.00210341
0.00301886
0.0031975
0.00342786
0.0034928
0.00343553
0.00309935
0.00291035
0.00295642
0.00282474
0.002486
0.00236486
0.00234027
0.00252144
0.00223038
0.00244666
0.00222896
0.00231613
0.00200822
0.00202341
0.00206723
0.0022724
0.0022645
0.00266178
0.00218239
0.00224314
0.00220709
0.00246584
0.00227195
0.00214635
0.00195244
0.00189112
0.00177135
0.00162763
0.0016036
0.00182511
0.00165726
0.00165705
0.00158888
0.00148417
0.00134162
0.00148329
0.00149909
0.00144577
0.00142063
0.00146216
0.00141096
0.00125268
0.00127232
0.00129078
0.00102472
0.00121753
0.00113413
0.00109469
0.000926217
0.00114311
0.00119575
0.000859623
0.00103323
0.00114816
0.0008929
0.000418776
0.000710701
0.000496868
0.000340038
0.000525313
0.000428964
0.00044345
0.00045377
0.000522741
0.000415335
0.000476869
0.00036159
0.000155848
0.000405803
0.000477066
0.000348145
0.000479089
0.000428278
0.000216811
0.000171163
0.0069029
0.0072119
0.0075624
0.00750455
0.00734302
0.00736748
0.00713109
0.00705277
0.00670241
0.00632631
0.00632246
0.006191
0.00606184
0.00605871
0.00615659
0.00592456
0.00576438
0.00555175
0.00519009
0.00455273
0.00617708
0.00644789
0.0067307
0.00681676
0.00669493
0.00666144
0.00651855
0.0062343
0.00621108
0.00566816
0.00566872
0.00562085
0.00554726
0.00529493
0.00528381
0.00536055
0.005047
0.00483319
0.00454649
0.00426443
0.00554547
0.00555262
0.00593231
0.00600864
0.00590249
0.00571755
0.00547895
0.00530236
0.00519988
0.00513013
0.00494351
0.00478036
0.00490709
0.00462808
0.00458792
0.00487746
0.00457757
0.0040499
0.00406254
0.00372508
0.00456074
0.00458747
0.0049553
0.00508494
0.0047123
0.00500064
0.00479693
0.00462064
0.00447131
0.00426901
0.00420277
0.0043038
0.00417128
0.00407094
0.00393327
0.00376874
0.00370726
0.00358479
0.00342975
0.00313629
0.00352658
0.00366126
0.00380622
0.00398049
0.00370182
0.00371819
0.00368189
0.00375444
0.00365975
0.00346984
0.00341468
0.00314004
0.00289176
0.00316176
0.00302477
0.00324107
0.00295946
0.00271929
0.00243225
0.00251186
0.00271563
0.00270651
0.00288497
0.00293386
0.00280101
0.00281595
0.00263438
0.0026988
0.00254486
0.00246599
0.00237538
0.00237569
0.00248174
0.0023729
0.00206972
0.00241792
0.00211381
0.00211744
0.00210549
0.00167107
0.00173059
0.0017648
0.00170151
0.0017966
0.00172706
0.00178602
0.00162605
0.00173031
0.00167451
0.00134422
0.00155987
0.00156709
0.00134596
0.00137485
0.00126283
0.00126199
0.00130181
0.00132059
0.00114786
0.00117613
0.000496899
0.000554433
0.000702039
0.000443692
0.000589554
0.000566791
0.000241286
0.000697239
0.000518609
0.000367561
0.000495088
0.000526235
0.000496734
0.000471727
0.000498115
0.000322876
0.000268419
0.000460871
0.000445543
0.000327057
0.00764981
0.00813429
0.0082819
0.00820389
0.00859232
0.00881788
0.0082773
0.00821589
0.00805169
0.00809616
0.00764349
0.00766789
0.00758466
0.00731199
0.00740762
0.00717772
0.00686489
0.0066374
0.00611208
0.00568108
0.00688285
0.00701023
0.00741846
0.00755784
0.00775643
0.00777711
0.00744951
0.0074834
0.00742658
0.00713976
0.00711554
0.00693971
0.0069963
0.00691758
0.00669379
0.00654948
0.00604459
0.00570916
0.00542238
0.00492019
0.00582662
0.00608724
0.00655486
0.00671119
0.00672379
0.00680118
0.00646465
0.00654716
0.00635537
0.00621687
0.00604295
0.00613955
0.00572376
0.00576292
0.0058191
0.00542851
0.00535828
0.00509666
0.00468521
0.00444031
0.00516384
0.00511671
0.005461
0.00570797
0.00542541
0.00571375
0.00536252
0.00542211
0.00542642
0.00497116
0.0050896
0.00502872
0.00520593
0.00484034
0.00481178
0.00472648
0.00428748
0.00424691
0.00406501
0.0036012
0.00397369
0.0040046
0.00427961
0.00441003
0.00458672
0.00450859
0.00439934
0.00431176
0.00421646
0.00415892
0.00406261
0.00397922
0.00408232
0.00390099
0.00396101
0.00370021
0.00357267
0.00326263
0.00312721
0.00284085
0.00294703
0.00318073
0.00291819
0.00330226
0.00323121
0.00298189
0.00309765
0.00313093
0.00310273
0.00297498
0.00307991
0.00314031
0.00270632
0.00274603
0.00280213
0.00251887
0.00258511
0.0022712
0.00206022
0.00231236
0.00176652
0.00200356
0.00183088
0.00193485
0.00183799
0.00226415
0.00202912
0.00204255
0.00180172
0.00187698
0.00201364
0.00186857
0.00190285
0.00178347
0.00165971
0.00180754
0.00174907
0.00145319
0.00141414
0.00141718
0.00065898
0.000473349
0.000590323
0.000694793
0.000587513
0.000584079
0.000668567
0.000897943
0.00072021
0.000623
0.000644625
0.000699723
0.000392692
0.00080642
0.000525193
0.000625464
0.000545187
0.000277881
0.000488397
0.000360714
0.00800287
0.0082987
0.00896789
0.00918425
0.00925525
0.00947944
0.00927317
0.00935635
0.00916122
0.0090683
0.00901916
0.0087667
0.0088473
0.00856311
0.00857533
0.0081094
0.00765176
0.0073833
0.00666445
0.00620329
0.00687546
0.00748188
0.00794454
0.00838614
0.00843367
0.00828393
0.00832946
0.00828356
0.00824902
0.00834258
0.00789562
0.00797022
0.00792229
0.00766952
0.0072556
0.00739759
0.00700984
0.00650002
0.00599781
0.00558249
0.00605526
0.00661316
0.00693886
0.00693583
0.00732485
0.00723497
0.00723479
0.00735494
0.00727744
0.00697663
0.00702364
0.00684471
0.0067467
0.0066775
0.00635167
0.0061593
0.00624658
0.00578094
0.00506317
0.00464913
0.0053656
0.00557181
0.00574133
0.00571838
0.00610999
0.00632112
0.0060038
0.00598355
0.00616172
0.00590374
0.00579784
0.00569973
0.00571787
0.00562464
0.00538207
0.00530745
0.00510951
0.00481429
0.0044676
0.00404325
0.00403288
0.0042684
0.00458632
0.00491361
0.00492536
0.00468574
0.00500071
0.00471346
0.00472668
0.0045777
0.00468887
0.00441633
0.00463111
0.0045794
0.00408131
0.00426002
0.00392671
0.00364042
0.00338103
0.00314271
0.00306979
0.00337594
0.00332702
0.00365625
0.00334538
0.00357877
0.0033792
0.00350442
0.00370413
0.00339839
0.00359119
0.00333154
0.0033489
0.00311596
0.00304869
0.00289557
0.00282143
0.00283824
0.00226869
0.00243996
0.0020235
0.00202387
0.0018491
0.00210702
0.00220761
0.00236205
0.00193544
0.00196014
0.00212405
0.00194467
0.00185126
0.00202574
0.00209263
0.00182929
0.00187255
0.00177385
0.0018112
0.00163807
0.00155618
0.00140878
0.000689965
0.000718488
0.000623695
0.000875013
0.000742847
0.000812424
0.000775854
0.000874884
0.000633161
0.000771248
0.000560135
0.000771156
0.000838095
0.000926792
0.000620799
0.00055733
0.000652227
0.000275366
0.000445907
0.000341348
0.00753085
0.00831883
0.0089334
0.00959886
0.0098463
0.0102001
0.0100141
0.0103075
0.0102074
0.00975889
0.00975477
0.00959392
0.00968344
0.00931909
0.00907354
0.00872712
0.00831268
0.00788336
0.00711602
0.00624818
0.00703877
0.00738204
0.0082339
0.0084242
0.00870787
0.00871789
0.00901792
0.0091377
0.00897104
0.00861884
0.00891925
0.00858992
0.008457
0.0080314
0.00799297
0.00776863
0.00737281
0.0067975
0.00634962
0.00560674
0.00592843
0.00669754
0.00696039
0.00738281
0.00755933
0.00753158
0.00778202
0.00793976
0.00784502
0.00747638
0.00747133
0.00744781
0.00720432
0.00726429
0.0069065
0.00695589
0.0063019
0.00597125
0.00548011
0.00509248
0.00534592
0.00545441
0.00591458
0.00618889
0.00660985
0.00652864
0.00665926
0.00633389
0.00648713
0.00654955
0.00632243
0.00618929
0.00598679
0.00601165
0.00580069
0.0055152
0.00516178
0.00518009
0.00452117
0.0042446
0.00399118
0.00441312
0.00480975
0.0047171
0.00510653
0.0049907
0.00533102
0.00505938
0.00502456
0.00504876
0.00520248
0.00494072
0.0047966
0.00485393
0.00464628
0.0043969
0.00429258
0.00399556
0.00372738
0.00328696
0.00285501
0.00318374
0.00338411
0.00342855
0.00359906
0.00375845
0.00378373
0.0036338
0.00368283
0.00362122
0.00378226
0.00365014
0.00369327
0.00331758
0.00346748
0.00341818
0.00330152
0.00287849
0.00266921
0.00248903
0.00203571
0.00198319
0.00192967
0.00212594
0.00215519
0.00207417
0.002293
0.0023463
0.00231495
0.0021842
0.00235973
0.00236267
0.00213857
0.0021858
0.00215068
0.00186067
0.00176235
0.00166268
0.00174433
0.00151974
0.000691524
0.000471105
0.000962818
0.000620256
0.000661428
0.000593133
0.000735692
0.000867166
0.000761031
0.000864263
0.00090349
0.000675664
0.00068922
0.000628862
0.00058964
0.00081892
0.000460427
0.000734569
0.000692303
0.000333732
0.00735777
0.00805257
0.0088194
0.00944075
0.00981735
0.0101193
0.0102147
0.0102753
0.0103932
0.0102998
0.0103686
0.0102464
0.0100435
0.00981647
0.00938752
0.00910028
0.00860792
0.0077512
0.00700921
0.00634531
0.0066489
0.00741703
0.00777844
0.00827177
0.00885273
0.00916792
0.00908311
0.0092482
0.00930863
0.00932814
0.00909831
0.00911012
0.00882665
0.00884207
0.00838111
0.00802173
0.00731023
0.0068388
0.00637144
0.00571592
0.00595861
0.00643708
0.00670152
0.00721088
0.00771668
0.00791541
0.00811913
0.00795866
0.0079671
0.00782369
0.00792492
0.00796562
0.00758295
0.00740439
0.00717623
0.00696991
0.00638749
0.00592888
0.00502964
0.00509248
0.0049626
0.00538759
0.00576697
0.00617478
0.00640223
0.00660787
0.00661954
0.00666925
0.00668534
0.00673689
0.00668289
0.00663283
0.0064606
0.00624588
0.00612207
0.00587903
0.00541796
0.00515869
0.00452256
0.00398261
0.00390822
0.00420533
0.00449064
0.00480829
0.00495899
0.00492348
0.00540312
0.00530352
0.00545501
0.00536193
0.00515608
0.00538688
0.00512717
0.00492923
0.00476712
0.00459239
0.00434994
0.00396842
0.00357972
0.00326971
0.00302352
0.00311343
0.00318598
0.00334588
0.00360586
0.00398863
0.00402354
0.00396859
0.00408959
0.00377352
0.0039058
0.00358446
0.00366657
0.00361539
0.00350516
0.00339848
0.00319621
0.00264907
0.00249414
0.00235536
0.00175942
0.00212587
0.0021973
0.00226535
0.00234904
0.00244722
0.00225764
0.00252912
0.00231995
0.00252419
0.00247077
0.00235128
0.0022176
0.00222803
0.00231551
0.0021445
0.00168757
0.00171586
0.00152159
0.00135657
0.000416295
0.000723106
0.000700628
0.000678464
0.000902764
0.000808114
0.000719444
0.000727113
0.000894386
0.000797675
0.000775668
0.000717393
0.000985084
0.000794108
0.000909559
0.000694673
0.000588521
0.000466945
0.000675238
0.000373539
0.00670157
0.00749715
0.00820442
0.00890334
0.00941749
0.00994012
0.0101976
0.0103907
0.0104657
0.0103497
0.0102223
0.0102753
0.00989668
0.00940384
0.00937248
0.00890022
0.00823232
0.00762365
0.00677296
0.00573062
0.00625226
0.00688326
0.00754991
0.00789562
0.00839501
0.00880897
0.00891207
0.00928783
0.00912304
0.009152
0.00912174
0.00901855
0.00878618
0.00865469
0.00842113
0.00790409
0.00720655
0.00674333
0.00580338
0.00533625
0.00517413
0.00587497
0.00661621
0.00693395
0.00748243
0.00746588
0.00791576
0.00801293
0.00806225
0.0081474
0.00811126
0.00782994
0.00762902
0.00743861
0.00732789
0.00671079
0.00653812
0.00575245
0.00504982
0.00445058
0.00448557
0.00474282
0.00550063
0.00588915
0.00604304
0.00652456
0.00663585
0.00667679
0.00679673
0.00669331
0.00660466
0.00666454
0.00632336
0.00620035
0.0060932
0.00569939
0.00516038
0.00480901
0.00429849
0.00363502
0.0034837
0.00402887
0.00433666
0.00464917
0.00511441
0.00515768
0.00536425
0.00524132
0.00541689
0.00544939
0.00519028
0.00517939
0.00516754
0.00484091
0.0047126
0.00471283
0.00408217
0.00380203
0.00342751
0.00302423
0.00253769
0.00284301
0.00313252
0.00348129
0.00360794
0.00382038
0.00366444
0.00398273
0.00384086
0.00391993
0.00402065
0.0037442
0.0035418
0.00359016
0.00327309
0.00338394
0.00304035
0.00265084
0.00253184
0.00200793
0.00177312
0.00178907
0.00196223
0.00216784
0.00210278
0.00223699
0.00235026
0.00236646
0.00236605
0.00257752
0.00250702
0.00236736
0.0020959
0.00217653
0.00212233
0.00191267
0.00170419
0.00158672
0.00154701
0.00137184
0.000444038
0.000467234
0.000769583
0.00072569
0.000775132
0.000735366
0.000609822
0.000729885
0.000686917
0.000754058
0.000683835
0.000827806
0.000785422
0.000672866
0.00092057
0.000805821
0.000764157
0.000695757
0.0002756
0.000654414
0.00559253
0.00654089
0.00730309
0.00817823
0.00871285
0.00923487
0.00965355
0.0100898
0.010145
0.00988324
0.00993169
0.00992311
0.00955826
0.00940239
0.00892656
0.00818101
0.00752792
0.00664909
0.0060172
0.00493891
0.00517383
0.00582796
0.00654317
0.00742629
0.00797374
0.00822696
0.00859391
0.00888555
0.00887725
0.0089172
0.00875389
0.00896943
0.00865204
0.00823024
0.00780737
0.00735324
0.00680009
0.00607056
0.00515816
0.00439426
0.00461473
0.00529015
0.00597761
0.00636351
0.00677579
0.00719508
0.00753255
0.00772936
0.00747773
0.00787525
0.00781864
0.00771451
0.00729147
0.0071391
0.00678135
0.00632572
0.00595235
0.00507935
0.0044175
0.00389143
0.00389609
0.00421827
0.00485736
0.00537207
0.00580872
0.00591687
0.00631063
0.00662818
0.00657805
0.00661905
0.00635118
0.00648992
0.00630998
0.00614411
0.00561826
0.00535443
0.00502279
0.00447069
0.00393616
0.00330508