/*--------------------------------*- C++ -*----------------------------------*\
| =========                 |                                                 |
| \\      /  F ield         | OpenFOAM: The Open Source CFD Toolbox           |
|  \\    /   O peration     | Version:  2212                                  |
|   \\  /    A nd           | Website:  www.openfoam.com                      |
|    \\/     M anipulation  |                                                 |
\*---------------------------------------------------------------------------*/
FoamFile
{
    version     2.0;
    format      ascii;
    arch        "LSB;label=32;scalar=64";
    class       volScalarField;
    location    "0";
    object      stateMean;
}
// * * * * * * * * * * * * * * * * * * * * * * * * * * * * * * * * * * * * * //

dimensions      [0 0 0 1 0 0 0];

internalField   nonuniform List<scalar> 
3200
(
313.061
313.02
313.031
312.959
312.877
312.814
312.657
312.609
312.488
312.372
312.307
312.269
312.146
312.063
311.957
311.983
311.869
311.765
311.758
311.684
311.487
311.372
311.346
311.302
311.271
311.244
311.132
311.097
310.947
310.904
310.822
310.738
310.638
310.564
310.527
310.507
310.419
310.42
310.295
310.218
309.77
309.716
309.753
309.734
309.673
309.643
309.514
309.435
309.341
309.3
309.309
309.139
309.081
309.075
309.033
308.933
308.911
308.828
308.814
308.849
308.053
308.092
308.081
308.015
307.979
307.939
307.784
307.796
307.772
307.658
307.61
307.541
307.5
307.468
307.366
307.359
307.334
307.306
307.264
307.231
306.303
306.322
306.32
306.32
306.279
306.163
306.15
306.061
306.003
306.008
305.92
305.929
305.867
305.794
305.806
305.829
305.694
305.749
305.647
305.652
304.603
304.501
304.519
304.507
304.465
304.446
304.328
304.377
304.33
304.28
304.24
304.301
304.199
304.222
304.144
304.194
304.142
304.131
304.088
304.067
302.729
302.696
302.728
302.624
302.672
302.675
302.747
302.668
302.621
302.592
302.548
302.574
302.54
302.528
302.543
302.477
302.409
302.486
302.534
302.408
300.951
300.925
300.988
300.883
300.937
300.936
300.921
300.847
300.832
300.861
300.805
300.854
300.919
300.831
300.827
300.911
300.895
300.837
300.855
300.834
313.762
313.731
313.648
313.605
313.587
313.445
313.383
313.35
313.161
313.107
313.012
312.927
312.932
312.868
312.78
312.675
312.615
312.502
312.415
312.334
311.869
311.882
311.927
311.864
311.847
311.808
311.664
311.64
311.532
311.532
311.413
311.349
311.201
311.193
311.231
311.043
311.01
310.923
310.938
310.868
310.176
310.189
310.196
310.103
310.072
310.014
309.938
309.968
309.863
309.751
309.724
309.59
309.54
309.532
309.496
309.38
309.386
309.302
309.227
309.166
308.374
308.395
308.323
308.354
308.316
308.282
308.286
308.247
308.147
308.08
308.027
307.909
307.89
307.815
307.818
307.763
307.684
307.66
307.577
307.553
306.592
306.615
306.6
306.475
306.567
306.504
306.388
306.405
306.354
306.353
306.298
306.266
306.194
306.2
306.082
306.115
306.118
305.98
305.936
305.935
304.692
304.712
304.699
304.699
304.67
304.608
304.623
304.609
304.614
304.545
304.563
304.519
304.454
304.397
304.357
304.331
304.348
304.278
304.252
304.187
302.883
302.867
302.847
302.811
302.802
302.802
302.764
302.795
302.688
302.708
302.753
302.713
302.689
302.667
302.651
302.705
302.67
302.595
302.523
302.582
300.955
300.948
300.935
300.905
300.967
300.916
300.884
300.959
300.82
300.893
300.928
300.844
300.95
300.948
300.881
300.815
300.867
300.878
300.837
300.882
314.526
314.53
314.535
314.514
314.506
314.429
314.302
314.217
314.185
314.119
314.025
313.974
313.835
313.785
313.71
313.665
313.569
313.417
313.354
313.292
312.692
312.732
312.723
312.668
312.744
312.626
312.548
312.414
312.402
312.336
312.281
312.205
312.118
312.11
311.994
311.935
311.85
311.673
311.661
311.611
310.866
310.877
310.831
310.748
310.8
310.726
310.723
310.665
310.597
310.51
310.428
310.389
310.368
310.28
310.195
310.115
310.091
309.927
309.905
309.887
308.914
308.93
308.851
308.847
308.889
308.802
308.783
308.747
308.741
308.673
308.559
308.513
308.444
308.43
308.336
308.341
308.245
308.194
308.163
308.097
306.994
307
306.963
306.939
306.893
306.909
306.935
306.813
306.818
306.788
306.715
306.656
306.692
306.602
306.523
306.459
306.437
306.453
306.382
306.355
304.97
304.954
305.034
304.994
304.912
304.952
304.938
304.837
304.912
304.805
304.855
304.812
304.686
304.692
304.686
304.652
304.672
304.602
304.533
304.557
303.012
302.997
303.003
302.949
303.011
303.016
303
302.935
302.903
302.932
302.874
302.915
302.833
302.773
302.853
302.811
302.903
302.712
302.73
302.759
300.978
300.965
300.948
301.019
300.995
300.927
300.962
300.99
301.026
300.998
300.956
300.951
300.985
300.99
301.003
300.899
300.958
300.914
300.854
300.921
315.429
315.548
315.572
315.54
315.547
315.533
315.447
315.478
315.408
315.186
315.108
315.089
314.979
314.851
314.82
314.679
314.569
314.595
314.434
314.377
313.529
313.522
313.639
313.561
313.551
313.604
313.466
313.387
313.327
313.295
313.177
313.113
313.08
313.036
312.976
312.868
312.779
312.62
312.546
312.455
311.482
311.494
311.541
311.568
311.552
311.48
311.445
311.426
311.412
311.3
311.274
311.182
311.127
311.008
311.104
310.892
310.848
310.783
310.667
310.6
309.428
309.485
309.486
309.475
309.48
309.479
309.448
309.359
309.371
309.262
309.236
309.185
309.113
309.142
308.969
308.96
308.87
308.799
308.786
308.671
307.359
307.466
307.527
307.406
307.389
307.393
307.303
307.352
307.339
307.29
307.214
307.18
307.082
307.105
306.99
306.994
306.923
306.889
306.786
306.769
305.288
305.278
305.248
305.325
305.355
305.313
305.218
305.298
305.225
305.216
305.119
305.183
305.147
305.051
305.079
304.965
305.011
304.919
304.878
304.843
303.181
303.205
303.189
303.218
303.212
303.207
303.149
303.179
303.131
303.07
303.123
303.081
303.145
303.083
302.994
303.063
303.061
302.976
302.95
302.943
301.122
301.06
301.115
301.105
301.065
301.043
301.068
301.039
301.063
301.031
301.038
301.003
300.997
301.081
300.983
301.022
300.94
301.012
300.937
301.007
316.525
316.514
316.628
316.569
316.685
316.611
316.6
316.47
316.405
316.353
316.372
316.182
316.125
316.103
315.937
315.767
315.698
315.572
315.444
315.404
314.397
314.457
314.495
314.453
314.507
314.524
314.423
314.403
314.321
314.314
314.248
314.112
313.962
314.054
313.877
313.861
313.677
313.657
313.499
313.317
312.243
312.268
312.348
312.329
312.387
312.4
312.263
312.247
312.183
312.198
312.124
311.99
311.903
311.887
311.846
311.74
311.642
311.583
311.45
311.39
310.096
310.109
310.179
310.177
310.101
310.16
310.104
310.129
310.038
310.004
309.905
309.897
309.863
309.846
309.689
309.617
309.558
309.398
309.391
309.397
307.847
307.815
307.946
307.906
307.908
307.965
307.879
307.825
307.812
307.766
307.772
307.691
307.653
307.524
307.604
307.52
307.481
307.403
307.315
307.286
305.648
305.638
305.605
305.705
305.611
305.635
305.654
305.645
305.592
305.64
305.512
305.585
305.488
305.466
305.402
305.393
305.384
305.252
305.284
305.181
303.436
303.318
303.413
303.394
303.41
303.473
303.372
303.357
303.379
303.415
303.363
303.377
303.353
303.308
303.305
303.197
303.214
303.237
303.093
303.134
301.136
301.109
301.141
301.157
301.141
301.1
301.099
301.153
301.185
301.12
301.192
301.11
301.089
301.051
301.129
301.169
301.069
301.114
301.045
301.046
317.55
317.644
317.624
317.695
317.797
317.725
317.702
317.696
317.637
317.562
317.554
317.345
317.297
317.203
317.139
317.034
316.822
316.76
316.541
316.392
315.205
315.353
315.415
315.434
315.51
315.461
315.464
315.415
315.287
315.336
315.29
315.2
315.071
315.1
314.916
314.877
314.681
314.538
314.404
314.292
312.925
313.037
313.101
313.062
313.219
313.148
313.205
313.027
313.056
313.029
312.986
312.915
312.832
312.804
312.632
312.58
312.485
312.438
312.246
312.171
310.681
310.681
310.731
310.727
310.851
310.782
310.777
310.792
310.7
310.659
310.658
310.602
310.585
310.535
310.467
310.305
310.222
310.148
310.078
309.919
308.377
308.315
308.398
308.452
308.44
308.45
308.388
308.433
308.394
308.355
308.312
308.274
308.239
308.233
308.115
308.174
308.009
307.904
307.872
307.787
306.005
306.029
306.005
306.038
306.066
306.044
306.013
306.127
305.936
305.992
305.851
305.924
305.874
305.817
305.814
305.823
305.74
305.68
305.576
305.512
303.589
303.692
303.57
303.628
303.629
303.707
303.689
303.606
303.761
303.583
303.603
303.568
303.52
303.503
303.505
303.413
303.47
303.384
303.401
303.39
301.2
301.236
301.207
301.198
301.275
301.24
301.222
301.211
301.219
301.147
301.21
301.259
301.128
301.235
301.132
301.217
301.172
301.13
301.138
301.127
318.541
318.634
318.705
318.828
318.908
318.842
318.876
318.836
318.759
318.715
318.701
318.6
318.537
318.406
318.358
318.129
318
317.777
317.609
317.473
316.17
316.164
316.293
316.415
316.458
316.372
316.423
316.418
316.42
316.303
316.352
316.194
316.101
315.978
315.987
315.85
315.65
315.511
315.404
315.237
313.697
313.765
313.853
313.927
313.903
313.999
314.028
313.96
313.888
313.859
313.812
313.741
313.743
313.589
313.611
313.506
313.275
313.146
313.026
312.922
311.282
311.372
311.4
311.426
311.43
311.518
311.473
311.544
311.392
311.395
311.326
311.368
311.334
311.243
311.174
311.011
310.92
310.814
310.694
310.625
308.781
308.885
308.894
308.973
308.941
308.971
308.893
308.988
308.967
308.877
308.926
308.861
308.852
308.699
308.689
308.612
308.569
308.479
308.386
308.33
306.247
306.341
306.336
306.371
306.371
306.401
306.425
306.397
306.35
306.372
306.41
306.299
306.354
306.281
306.239
306.2
306.09
306.056
305.971
305.897
303.83
303.799
303.816
303.929
303.851
303.811
303.853
303.909
303.822
303.858
303.836
303.817
303.822
303.769
303.742
303.758
303.626
303.623
303.57
303.548
301.22
301.288
301.258
301.313
301.245
301.289
301.298
301.269
301.208
301.288
301.276
301.26
301.337
301.271
301.215
301.27
301.182
301.236
301.236
301.185
319.444
319.595
319.807
319.854
319.928
320.032
319.994
320.006
319.966
319.898
319.937
319.81
319.7
319.584
319.469
319.311
319.097
318.932
318.721
318.59
317.031
317.108
317.238
317.341
317.387
317.446
317.417
317.401
317.361
317.357
317.284
317.22
317.171
317.084
316.942
316.857
316.658
316.483
316.26
316.109
314.382
314.569
314.654
314.733
314.828
314.83
314.829
314.841
314.791
314.737
314.712
314.648
314.528
314.551
314.311
314.3
314.171
314.036
313.849
313.728
311.898
311.965
312.003
312.035
312.157
312.132
312.244
312.223
312.142
312.059
312.159
312.078
312.008
311.921
311.799
311.751
311.635
311.42
311.398
311.202
309.235
309.359
309.373
309.384
309.519
309.485
309.482
309.539
309.499
309.499
309.448
309.397
309.329
309.265
309.272
309.139
309.036
308.936
308.816
308.812
306.606
306.706
306.709
306.774
306.774
306.74
306.781
306.818
306.712
306.854
306.794
306.702
306.727
306.657
306.635
306.536
306.472
306.451
306.384
306.266
303.966
303.972
304.064
304.04
304.089
304.087
304.082
304.065
304.08
304.035
303.991
304.049
303.954
303.975
303.98
303.875
303.894
303.854
303.746
303.846
301.364
301.314
301.292
301.38
301.367
301.384
301.339
301.416
301.31
301.338
301.337
301.347
301.362
301.336
301.304
301.311
301.339
301.297
301.226
301.258
320.531
320.608
320.818
320.983
321.102
321.146
321.091
321.127
321.165
321.134
321.078
320.948
320.813
320.711
320.602
320.422
320.327
319.994
319.867
319.612
317.885
317.992
318.072
318.201
318.362
318.362
318.447
318.415
318.38
318.399
318.315
318.213
318.2
318.093
317.878
317.806
317.588
317.454
317.277
317.087
315.186
315.303
315.3
315.488
315.566
315.614
315.602
315.674
315.665
315.629
315.52
315.528
315.458
315.334
315.223
315.066
314.985
314.811
314.654
314.526
312.451
312.551
312.672
312.752
312.814
312.817
312.769
312.88
312.86
312.79
312.825
312.692
312.699
312.593
312.482
312.408
312.273
312.175
312.024
311.941
309.693
309.786
309.924
309.925
309.896
310.011
310.039
310.046
310.088
309.926
309.998
309.938
309.915
309.826
309.747
309.694
309.509
309.454
309.443
309.312
306.996
307.047
307.033
307.084
307.14
307.168
307.198
307.176
307.195
307.115
307.121
307.147
307.087
307.058
306.978
306.916
306.866
306.806
306.724
306.633
304.2
304.199
304.313
304.222
304.314
304.358
304.317
304.32
304.25
304.343
304.302
304.34
304.255
304.292
304.182
304.135
304.13
304.106
304.091
304.016
301.426
301.452
301.436
301.422
301.431
301.504
301.457
301.494
301.369
301.469
301.524
301.469
301.45
301.439
301.461
301.386
301.366
301.392
301.318
301.44
321.391
321.607
321.823
322.063
322.17
322.241
322.246
322.23
322.269
322.242
322.224
322.126
322.03
321.927
321.746
321.601
321.342
321.163
320.965
320.698
318.678
318.84
319.068
319.085
319.2
319.331
319.397
319.397
319.413
319.385
319.231
319.152
319.205
319.063
318.942
318.676
318.653
318.394
318.126
317.926
315.855
316.015
316.191
316.221
316.359
316.436
316.424
316.481
316.465
316.452
316.549
316.375
316.303
316.173
316.084
315.985
315.82
315.6
315.408
315.258
313.015
313.194
313.279
313.375
313.413
313.529
313.558
313.56
313.489
313.481
313.488
313.456
313.297
313.26
313.188
313.153
312.922
312.757
312.678
312.438
310.111
310.227
310.376
310.481
310.548
310.524
310.537
310.612
310.613
310.53
310.493
310.463
310.477
310.327
310.322
310.175
310.117
309.937
309.864
309.817
307.263
307.302
307.48
307.393
307.472
307.518
307.65
307.632
307.624
307.58
307.562
307.509
307.435
307.385
307.401
307.292
307.232
307.151
307.063
306.977
304.398
304.428
304.445
304.473
304.522
304.541
304.524
304.555
304.579
304.508
304.566
304.531
304.501
304.425
304.46
304.441
304.302
304.319
304.321
304.218
301.449
301.546
301.493
301.457
301.525
301.508
301.523
301.535
301.562
301.532
301.551
301.513
301.445
301.511
301.523
301.472
301.499
301.472
301.397
301.375
322.356
322.584
322.856
323.006
323.122
323.288
323.355
323.445
323.415
323.338
323.336
323.251
323.127
323.01
322.9
322.667
322.448
322.212
321.936
321.604
319.458
319.654
319.882
320.055
320.161
320.287
320.365
320.375
320.439
320.303
320.303
320.251
320.156
319.975
319.849
319.737
319.492
319.279
319.05
318.851
316.58
316.673
316.909
317.056
317.145
317.203
317.232
317.26
317.288
317.298
317.24
317.156
317.136
316.963
316.847
316.822
316.605
316.316
316.203
316.007
313.583
313.663
313.873
314.014
313.998
314.182
314.204
314.218
314.221
314.184
314.163
314.168
314.078
313.977
313.849
313.703
313.583
313.445
313.302
313.138
310.563
310.66
310.778
310.911
310.903
310.981
311.036
311.112
311.121
311.083
311.066
310.96
310.844
310.875
310.766
310.76
310.594
310.442
310.28
310.249
307.608
307.645
307.752
307.822
307.838
307.895
307.886
307.945
307.925
307.914
307.887
307.873
307.878
307.806
307.665
307.72
307.571
307.517
307.461
307.288
304.599
304.633
304.644
304.707
304.719
304.768
304.749
304.803
304.803
304.711
304.777
304.77
304.687
304.672
304.609
304.578
304.557
304.529
304.445
304.431
301.516
301.54
301.596
301.529
301.584
301.588
301.499
301.644
301.596
301.553
301.591
301.599
301.584
301.568
301.567
301.503
301.476
301.523
301.507
301.465
323.292
323.568
323.764
323.895
324.173
324.39
324.346
324.431
324.453
324.505
324.359
324.329
324.228
324.035
323.937
323.718
323.464
323.236
322.919
322.661
320.287
320.43
320.687
320.866
321.062
321.195
321.202
321.304
321.35
321.292
321.284
321.195
321.148
321.033
320.849
320.678
320.384
320.143
319.924
319.663
317.18
317.347
317.602
317.765
317.882
318.012
318.001
318.103
318.097
318.081
318.026
318.029
317.843
317.779
317.702
317.473
317.338
317.142
316.905
316.743
314.189
314.243
314.438
314.608
314.612
314.788
314.756
314.837
314.882
314.763
314.8
314.758
314.769
314.592
314.506
314.393
314.163
314.058
313.914
313.701
311.027
311.089
311.241
311.354
311.48
311.523
311.55
311.572
311.576
311.576
311.547
311.503
311.5
311.395
311.353
311.205
311.094
310.926
310.817
310.676
307.912
308.021
307.988
308.158
308.187
308.158
308.237
308.282
308.298
308.271
308.304
308.309
308.152
308.129
308.103
307.968
307.938
307.789
307.677
307.717
304.749
304.844
304.82
304.883
304.883
305.042
304.996
305.021
304.962
304.993
305.035
304.983
304.978
304.921
304.858
304.874
304.826
304.705
304.664
304.643
301.611
301.563
301.607
301.649
301.627
301.636
301.67
301.746
301.697
301.671
301.677
301.691
301.593
301.711
301.618
301.639
301.604
301.513
301.567
301.521
324.171
324.378
324.73
324.942
325.106
325.31
325.36
325.482
325.486
325.491
325.475
325.359
325.318
325.131
325.018
324.737
324.449
324.22
323.852
323.592
320.948
321.236
321.501
321.766
321.903
321.969
322.085
322.152
322.199
322.259
322.116
322.11
322.036
321.874
321.641
321.572
321.327
321.04
320.762
320.535
317.814
318.069
318.271
318.374
318.601
318.668
318.754
318.861
318.886
318.816
318.831
318.749
318.669
318.577
318.389
318.232
318.156
317.905
317.579
317.37
314.712
314.84
314.973
315.051
315.259
315.403
315.373
315.424
315.52
315.459
315.426
315.375
315.341
315.254
315.109
315.007
314.861
314.683
314.494
314.298
311.403
311.524
311.685
311.853
311.922
311.909
312.061
312.016
312.051
312.021
312.055
311.955
311.99
311.93
311.721
311.715
311.547
311.391
311.249
311.127
308.205
308.333
308.363
308.512
308.462
308.578
308.555
308.625
308.709
308.626
308.686
308.595
308.577
308.474
308.415
308.324
308.255
308.212
307.993
308.012
304.981
305.001
304.975
305.081
305.14
305.213
305.106
305.133
305.197
305.148
305.12
305.167
305.173
305.074
305.064
305.008
304.991
304.911
304.859
304.794
301.672
301.687
301.667
301.753
301.722
301.752
301.749
301.785
301.717
301.761
301.697
301.759
301.774
301.794
301.694
301.666
301.686
301.562
301.604
301.567
324.851
325.209
325.533
325.879
326.086
326.321
326.366
326.546
326.573
326.459
326.458
326.374
326.344
326.141
325.957
325.725
325.464
325.195
324.821
324.438
321.722
321.919
322.3
322.474
322.676
322.783
322.969
323.081
323.08
322.994
323.09
322.958
322.864
322.654
322.551
322.375
322.138
321.841
321.589
321.264
318.384
318.7
318.875
319.105
319.254
319.333
319.489
319.602
319.616
319.521
319.52
319.49
319.368
319.325
319.135
319.063
318.762
318.562
318.315
318.12
315.206
315.297
315.516
315.681
315.889
315.935
316.04
315.988
316.072
316.111
316.04
315.979
315.879
315.836
315.707
315.546
315.358
315.286
315.005
314.861
311.778
311.954
312.135
312.167
312.348
312.367
312.521
312.477
312.494
312.516
312.564
312.468
312.395
312.373
312.26
312.127
312.035
311.882
311.741
311.56
308.417
308.549
308.652
308.709
308.804
308.893
308.936
308.917
308.953
308.944
308.993
308.943
308.936
308.792
308.803
308.749
308.67
308.496
308.391
308.304
305.151
305.154
305.163
305.249
305.283
305.282
305.37
305.402
305.404
305.372
305.425
305.419
305.339
305.337
305.305
305.193
305.138
305.081
305.081
304.994
301.728
301.668
301.824
301.73
301.75
301.738
301.788
301.834
301.806
301.839
301.85
301.78
301.78
301.756
301.737
301.798
301.682
301.755
301.735
301.62
325.694
326.014
326.378
326.698
326.936
327.142
327.268
327.364
327.455
327.453
327.476
327.408
327.288
327.139
326.905
326.704
326.429
326.033
325.677
325.367
322.376
322.703
322.918
323.179
323.466
323.661
323.716
323.835
323.901
323.932
323.858
323.838
323.7
323.639
323.409
323.2
322.871
322.617
322.368
322.078
319.053
319.271
319.439
319.689
319.934
320.077
320.211
320.215
320.257
320.232
320.264
320.257
320.096
319.984
319.842
319.697
319.427
319.194
318.825
318.778
315.625
315.811
315.999
316.198
316.339
316.469
316.53
316.59
316.628
316.661
316.644
316.611
316.525
316.412
316.317
316.175
315.961
315.808
315.54
315.317
312.171
312.305
312.447
312.601
312.702
312.741
312.935
312.939
313.011
312.995
312.931
312.99
312.884
312.787
312.693
312.588
312.458
312.284
312.11
311.973
308.768
308.825
308.885
308.973
309.093
309.246
309.288
309.297
309.352
309.264
309.304
309.196
309.204
309.163
309.097
309.029
308.927
308.72
308.634
308.562
305.247
305.376
305.42
305.464
305.513
305.565
305.525
305.624
305.57
305.639
305.622
305.58
305.529
305.516
305.525
305.451
305.288
305.273
305.192
305.124
301.706
301.803
301.804
301.806
301.881
301.86
301.839
301.846
301.901
301.874
301.867
301.847
301.924
301.862
301.89
301.819
301.778
301.734
301.789
301.693
326.442
326.788
327.123
327.459
327.732
327.998
328.167
328.298
328.37
328.358
328.316
328.308
328.138
327.909
327.814
327.564
327.241
326.935
326.553
326.127
323.08
323.358
323.663
323.868
324.12
324.338
324.444
324.624
324.613
324.643
324.633
324.579
324.463
324.361
324.213
323.963
323.647
323.404
323.011
322.786
319.508
319.792
320.104
320.285
320.537
320.603
320.809
320.889
320.94
320.985
320.974
320.866
320.767
320.657
320.559
320.291
320.159
319.829
319.529
319.278
316.049
316.18
316.481
316.668
316.78
316.99
317.076
317.129
317.196
317.178
317.15
317.155
317.018
316.939
316.854
316.672
316.439
316.264
316.04
315.782
312.487
312.694
312.839
312.986
313.181
313.239
313.343
313.337
313.414
313.436
313.355
313.34
313.314
313.18
313.101
313.055
312.81
312.672
312.506
312.344
308.937
309.058
309.181
309.325
309.399
309.498
309.478
309.598
309.57
309.603
309.634
309.541
309.462
309.455
309.329
309.33
309.189
309.033
308.962
308.774
305.443
305.463
305.536
305.621
305.622
305.682
305.734
305.753
305.762
305.831
305.81
305.762
305.67
305.681
305.647
305.564
305.48
305.422
305.389
305.32
301.778
301.79
301.888
301.882
301.904
301.899
301.866
301.907
301.897
301.919
301.898
301.94
301.924
301.885
301.955
301.913
301.894
301.866
301.732
301.841
327.093
327.482
327.827
328.211
328.48
328.738
328.951
329.154
329.215
329.151
329.167
329.143
328.981
328.869
328.638
328.307
328
327.614
327.312
326.88
323.609
323.887
324.201
324.572
324.831
324.988
325.173
325.319
325.354
325.386
325.333
325.384
325.244
325.055
324.853
324.631
324.37
324.048
323.671
323.358
320.067
320.339
320.628
320.824
321.026
321.224
321.387
321.495
321.446
321.589
321.571
321.521
321.355
321.261
321.092
320.882
320.693
320.342
320.061
319.837
316.466
316.613
316.872
317.093
317.288
317.376
317.545
317.682
317.692
317.718
317.634
317.664
317.581
317.493
317.282
317.145
316.983
316.75
316.524
316.28
312.887
312.958
313.206
313.362
313.507
313.533
313.618
313.775
313.786
313.8
313.758
313.749
313.72
313.585
313.526
313.378
313.218
313.012
312.818
312.696
309.231
309.317
309.408
309.543
309.626
309.66
309.851
309.889
309.897
309.874
309.81
309.872
309.789
309.754
309.618
309.583
309.439
309.294
309.222
309.028
305.467
305.628
305.651
305.743
305.786
305.862
305.887
305.891
305.9
305.995
305.909
305.944
305.91
305.829
305.843
305.732
305.735
305.595
305.538
305.493
301.835
301.855
301.883
301.915
301.938
301.954
302.023
302.009
301.999
302.044
301.969
302.023
301.986
301.924
301.911
301.884
301.891
301.824
301.852
301.886
327.752
328.125
328.488
328.862
329.183
329.518
329.631
329.814
329.876
329.903
330.021
329.954
329.735
329.62
329.329
329.074
328.732
328.414
327.926
327.547
324.108
324.508
324.835
325.124
325.41
325.621
325.817
325.988
326.039
326.039
326.081
325.947
325.817
325.637
325.5
325.312
325.01
324.623
324.293
323.956
320.465
320.804
321.073
321.38
321.557
321.662
321.871
322.038
322.085
322.083
322.016
322.089
321.998
321.856
321.634
321.431
321.228
320.892
320.619
320.398
316.829
317.002
317.281
317.456
317.764
317.81
318.039
318.013
318.145
318.129
318.152
318.044
317.999
317.881
317.754
317.601
317.388
317.113
316.998
316.669
313.101
313.325
313.459
313.608
313.747
313.887
313.976
314.05
314.146
314.165
314.113
314.068
314.051
313.987
313.81
313.727
313.636
313.324
313.109
313.03
309.371
309.465
309.646
309.79
309.918
310.094
310.032
310.053
310.055
310.112
310.1
310.058
310.052
310.013
309.851
309.836
309.749
309.563
309.472
309.357
305.623
305.731
305.759
305.815
305.928
305.956
306.023
306.062
306.028
306.066
306.062
306.029
306.021
306.032
305.985
305.893
305.86
305.731
305.624
305.607
301.912
301.919
301.973
301.945
302.004
301.971
301.942
301.985
302.003
302.076
302.052
302.048
302.016
302.033
302.006
302.03
301.94
301.906
301.888
301.869
328.161
328.62
329.008
329.409
329.755
330.026
330.272
330.412
330.567
330.525
330.577
330.53
330.391
330.175
329.963
329.721
329.318
328.957
328.571
328.163
324.593
324.915
325.312
325.631
325.874
326.131
326.339
326.466
326.59
326.552
326.667
326.474
326.463
326.226
326.103
325.844
325.459
325.174
324.783
324.468
320.877
321.152
321.46
321.75
321.981
322.207
322.274
322.455
322.539
322.588
322.562
322.505
322.403
322.269
322.097
321.928
321.652
321.317
321.014
320.752
317.111
317.333
317.587
317.869
318.101
318.182
318.33
318.443
318.421
318.525
318.513
318.415
318.47
318.234
318.148
317.929
317.702
317.5
317.228
317.034
313.327
313.503
313.62
313.929
314.03
314.207
314.256
314.327
314.378
314.504
314.443
314.355
314.301
314.26
314.104
313.984
313.734
313.606
313.438
313.366
309.526
309.7
309.78
309.956
310.072
310.21
310.277
310.221
310.255
310.265
310.313
310.224
310.242
310.196
310.161
309.939
309.844
309.688
309.579
309.54
305.739
305.803
305.922
305.97
306.07
306.039
306.188
306.202
306.229
306.237
306.238
306.206
306.153
306.054
306.064
306.048
305.987
305.924
305.762
305.686
301.931
301.957
301.983
302.036
302.053
302.021
301.962
302.045
302.071
302.11
302.024
302.032
302.105
302.04
302.015
302.086
302.002
301.942
301.942
301.866
328.511
328.969
329.432
329.861
330.13
330.514
330.634
330.801
330.962
331.073
331.017
331
330.843
330.676
330.488
330.134
329.85
329.373
328.983
328.5
324.79
325.232
325.585
325.904
326.262
326.492
326.703
326.82
326.952
326.961
326.975
326.919
326.784
326.597
326.427
326.168
325.828
325.598
325.171
324.791
321.041
321.374
321.724
322.053
322.204
322.427
322.635
322.799
322.793
322.874
322.897
322.836
322.634
322.55
322.362
322.239
321.917
321.644
321.254
321.085
317.263
317.459
317.82
318.088
318.245
318.451
318.511
318.619
318.703
318.773
318.761
318.734
318.595
318.535
318.301
318.19
317.944
317.721
317.408
317.189
313.456
313.654
313.802
314.108
314.222
314.26
314.444
314.562
314.549
314.625
314.555
314.67
314.522
314.434
314.333
314.17
314.024
313.861
313.601
313.392
309.631
309.837
309.924
310.073
310.171
310.257
310.354
310.382
310.433
310.435
310.455
310.456
310.344
310.371
310.298
310.134
310.031
309.867
309.759
309.625
305.776
305.935
305.947
306.066
306.088
306.249
306.244
306.223
306.327
306.305
306.307
306.354
306.251
306.181
306.18
306.084
306.023
305.932
305.876
305.777
301.997
301.995
302.012
302.04
301.997
301.997
302.121
302.056
302.063
302.084
302.059
302.09
302.145
302.05
302.086
302.071
302.001
301.928
301.919
301.902
)
;

boundaryField
{
    hotSide
    {
        type            fixedGradient;
        gradient        nonuniform List<scalar> 
400
(
321.511
322.87
325.591
329.677
335.133
341.965
350.181
359.788
370.794
383.208
397.037
412.289
428.971
447.088
466.647
487.651
510.105
534.011
559.372
586.191
323.738
325.08
327.767
331.802
337.194
343.949
352.078
361.591
372.498
384.81
398.537
413.687
430.268
448.289
467.755
488.672
511.043
534.872
560.161
586.913
326.149
327.47
330.116
334.091
339.406
346.071
354.099
363.503
374.296
386.491
400.101
415.136
431.606
449.52
468.885
489.706
511.988
535.735
560.948
587.63
328.704
330
332.597
336.503
341.73
348.292
356.205
365.485
376.15
388.215
401.695
416.604
432.954
450.753
470.009
490.73
512.919
536.579
561.714
588.325
331.33
332.599
335.142
338.97
344.099
350.546
358.332
367.477
378.003
389.928
403.271
418.047
434.27
451.949
471.095
491.712
513.807
537.382
562.439
588.978
333.918
335.158
337.643
341.389
346.414
352.74
360.392
369.397
379.779
391.562
404.765
419.407
435.503
453.065
472.101
492.618
514.622
538.114
563.096
589.569
336.321
337.531
339.959
343.622
348.544
354.751
362.274
371.142
381.385
393.031
406.101
420.618
436.595
454.047
472.983
493.409
515.33
538.747
563.663
590.076
338.36
339.543
341.92
345.509
350.339
356.44
363.847
372.595
382.718
394.244
407.2
421.608
437.485
454.844
473.695
494.045
515.897
539.253
564.114
590.478
339.852
341.015
343.352
346.885
351.645
357.665
364.985
373.643
383.675
395.113
407.984
422.312
438.116
455.407
474.197
494.491
516.294
539.606
564.428
590.758
340.643
341.795
344.11
347.613
352.334
358.311
365.584
374.193
384.176
395.567
408.393
422.679
438.443
455.699
474.456
494.722
516.498
539.788
564.589
590.901
340.643
341.795
344.11
347.613
352.334
358.311
365.584
374.193
384.176
395.567
408.393
422.679
438.443
455.699
474.456
494.722
516.498
539.788
564.589
590.901
339.852
341.015
343.352
346.885
351.645
357.665
364.985
373.643
383.675
395.113
407.984
422.312
438.116
455.407
474.197
494.491
516.294
539.606
564.428
590.758
338.36
339.543
341.92
345.509
350.339
356.44
363.847
372.595
382.718
394.244
407.2
421.608
437.485
454.844
473.695
494.045
515.897
539.253
564.114
590.478
336.321
337.531
339.959
343.622
348.544
354.751
362.274
371.142
381.385
393.031
406.101
420.618
436.595
454.047
472.983
493.409
515.33
538.747
563.663
590.076
333.918
335.158
337.643
341.389
346.414
352.74
360.392
369.397
379.779
391.562
404.765
419.407
435.503
453.065
472.101
492.618
514.622
538.114
563.096
589.569
331.33
332.599
335.142
338.97
344.099
350.546
358.332
367.477
378.003
389.928
403.271
418.047
434.27
451.949
471.095
491.712
513.807
537.382
562.439
588.978
328.704
330
332.597
336.503
341.73
348.292
356.205
365.485
376.15
388.215
401.695
416.604
432.954
450.753
470.009
490.73
512.919
536.579
561.714
588.325
326.149
327.47
330.116
334.091
339.406
346.071
354.099
363.503
374.296
386.491
400.101
415.136
431.606
449.52
468.885
489.706
511.988
535.735
560.948
587.63
323.738
325.08
327.767
331.802
337.194
343.949
352.078
361.591
372.498
384.81
398.537
413.687
430.268
448.289
467.755
488.672
511.043
534.872
560.161
586.913
321.511
322.87
325.591
329.677
335.133
341.965
350.181
359.788
370.794
383.208
397.037
412.289
428.971
447.088
466.647
487.651
510.105
534.011
559.372
586.191
)
;
    }
    coldSide
    {
        type            mixed;
        refValue        uniform 300;
        refGradient     uniform 0;
        valueFraction   uniform 0.991591;
        source          uniform 0;
        value           nonuniform List<scalar> 
400
(
300.008
300.008
300.008
300.009
300.01
300.01
300.01
300.011
300.012
300.012
300.013
300.014
300.014
300.015
300.014
300.015
300.015
300.016
300.016
300.017
300.008
300.008
300.008
300.009
300.009
300.01
300.011
300.011
300.012
300.013
300.013
300.013
300.014
300.014
300.015
300.015
300.016
300.016
300.016