/*--------------------------------*- C++ -*----------------------------------*\
| =========                 |                                                 |
| \\      /  F ield         | OpenFOAM: The Open Source CFD Toolbox           |
|  \\    /   O peration     | Version:  2212                                  |
|   \\  /    A nd           | Website:  www.openfoam.com                      |
|    \\/     M anipulation  |                                                 |
\*---------------------------------------------------------------------------*/
FoamFile
{
    version     2.0;
    format      ascii;
    arch        "LSB;label=32;scalar=64";
    class       volScalarField;
    location    "0";
    object      Tdirect;
}
// * * * * * * * * * * * * * * * * * * * * * * * * * * * * * * * * * * * * * //

dimensions      [0 0 0 1 0 0 0];

internalField   nonuniform List<scalar> 
3200
(
349.893
350.539
351.365
352.265
353.191
354.101
354.94
355.649
356.165
356.438
356.438
356.165
355.649
354.94
354.101
353.191
352.265
351.365
350.539
349.893
343.271
343.818
344.53
345.308
346.11
346.897
347.623
348.235
348.681
348.916
348.916
348.681
348.235
347.623
346.897
346.11
345.308
344.53
343.818
343.271
336.637
337.091
337.691
338.348
339.026
339.691
340.304
340.82
341.197
341.395
341.395
341.197
340.82
340.304
339.691
339.026
338.348
337.691
337.091
336.637
329.993
330.359
330.848
331.385
331.939
332.482
332.983
333.405
333.712
333.874
333.874
333.712
333.405
332.983
332.482
331.939
331.385
330.848
330.359
329.993
323.342
323.623
324.002
324.42
324.851
325.273
325.661
325.989
326.227
326.353
326.353
326.227
325.989
325.661
325.273
324.851
324.42
324.002
323.623
323.342
316.685
316.884
317.154
317.453
317.76
318.061
318.339
318.573
318.743
318.833
318.833
318.743
318.573
318.339
318.061
317.76
317.453
317.154
316.884
316.685
310.024
310.143
310.305
310.484
310.669
310.849
311.016
311.156
311.258
311.312
311.312
311.258
311.156
311.016
310.849
310.669
310.484
310.305
310.143
310.024
303.361
303.4
303.454
303.514
303.576
303.637
303.693
303.74
303.774
303.792
303.792
303.774
303.74
303.693
303.637
303.576
303.514
303.454
303.4
303.361
350.063
350.704
351.523
352.414
353.331
354.231
355.06
355.76
356.27
356.539
356.539
356.27
355.76
355.06
354.231
353.331
352.414
351.523
350.704
350.063
343.418
343.961
344.667
345.438
346.232
347.01
347.727
348.332
348.772
349.004
349.004
348.772
348.332
347.727
347.01
346.232
345.438
344.667
343.961
343.418
336.761
337.212
337.806
338.458
339.129
339.786
340.392
340.902
341.274
341.47
341.47
341.274
340.902
340.392
339.786
339.129
338.458
337.806
337.212
336.761
330.095
330.458
330.943
331.475
332.023
332.561
333.055
333.472
333.775
333.935
333.935
333.775
333.472
333.055
332.561
332.023
331.475
330.943
330.458
330.095
323.421
323.7
324.076
324.49
324.916
325.333
325.718
326.041
326.277
326.401
326.401
326.277
326.041
325.718
325.333
324.916
324.49
324.076
323.7
323.421
316.742
316.939
317.207
317.502
317.807
318.105
318.379
318.61
318.778
318.867
318.867
318.778
318.61
318.379
318.105
317.807
317.502
317.207
316.939
316.742
310.058
310.176
310.336
310.514
310.697
310.876
311.04
311.179
311.28
311.333
311.333
311.28
311.179
311.04
310.876
310.697
310.514
310.336
310.176
310.058
303.372
303.411
303.465
303.524
303.586
303.646
303.701
303.747
303.781
303.799
303.799
303.781
303.747
303.701
303.646
303.586
303.524
303.465
303.411
303.372
350.404
351.035
351.84
352.714
353.613
354.493
355.304
355.986
356.483
356.745
356.745
356.483
355.986
355.304
354.493
353.613
352.714
351.84
351.035
350.404
343.713
344.247
344.941
345.698
346.476
347.237
347.938
348.528
348.957
349.183
349.183
348.957
348.528
347.938
347.237
346.476
345.698
344.941
344.247
343.713
337.011
337.454
338.039
338.678
339.336
339.979
340.571
341.069
341.431
341.622
341.622
341.431
341.069
340.571
339.979
339.336
338.678
338.039
337.454
337.011
330.299
330.656
331.133
331.655
332.193
332.718
333.202
333.608
333.904
334.06
334.06
333.904
333.608
333.202
332.718
332.193
331.655
331.133
330.656
330.299
323.58
323.854
324.224
324.63
325.048
325.456
325.832
326.148
326.377
326.498
326.498
326.377
326.148
325.832
325.456
325.048
324.63
324.224
323.854
323.58
316.855
317.049
317.313
317.603
317.901
318.193
318.461
318.686
318.85
318.936
318.936
318.85
318.686
318.461
318.193
317.901
317.603
317.313
317.049
316.855
310.126
310.242
310.4
310.574
310.753
310.928
311.089
311.225
311.323
311.375
311.375
311.323
311.225
311.089
310.928
310.753
310.574
310.4
310.242
310.126
303.395
303.433
303.486
303.545
303.605
303.663
303.717
303.763
303.796
303.813
303.813
303.796
303.763
303.717
303.663
303.605
303.545
303.486
303.433
303.395
350.917
351.533
352.318
353.168
354.041
354.893
355.675
356.334
356.812
357.064
357.064
356.812
356.334
355.675
354.893
354.041
353.168
352.318
351.533
350.917
344.157
344.679
345.355
346.092
346.846
347.584
348.261
348.83
349.243
349.46
349.46
349.243
348.83
348.261
347.584
346.846
346.092
345.355
344.679
344.157
337.386
337.819
338.389
339.011
339.649
340.272
340.844
341.324
341.673
341.856
341.856
341.673
341.324
340.844
340.272
339.649
339.011
338.389
337.819
337.386
330.606
330.954
331.419
331.928
332.449
332.958
333.425
333.818
334.102
334.252
334.252
334.102
333.818
333.425
332.958
332.449
331.928
331.419
330.954
330.606
323.819
324.086
324.446
324.842
325.247
325.643
326.006
326.311
326.531
326.648
326.648
326.531
326.311
326.006
325.643
325.247
324.842
324.446
324.086
323.819
317.025
317.215
317.472
317.754
318.044
318.326
318.585
318.803
318.96
319.043
319.043
318.96
318.803
318.585
318.326
318.044
317.754
317.472
317.215
317.025
310.228
310.341
310.495
310.665
310.839
311.008
311.164
311.295
311.389
311.439
311.439
311.389
311.295
311.164
311.008
310.839
310.665
310.495
310.341
310.228
303.429
303.467
303.518
303.575
303.633
303.69
303.742
303.786
303.818
303.834
303.834
303.818
303.786
303.742
303.69
303.633
303.575
303.518
303.467
303.429
351.604
352.201
352.96
353.78
354.619
355.435
356.184
356.811
357.266
357.505
357.505
357.266
356.811
356.184
355.435
354.619
353.78
352.96
352.201
351.604
344.752
345.258
345.912
346.622
347.348
348.054
348.701
349.244
349.637
349.844
349.844
349.637
349.244
348.701
348.054
347.348
346.622
345.912
345.258
344.752
337.889
338.308
338.86
339.46
340.073
340.67
341.217
341.675
342.007
342.181
342.181
342.007
341.675
341.217
340.67
340.073
339.46
338.86
338.308
337.889
331.017
331.355
331.804
332.294
332.796
333.284
333.731
334.105
334.376
334.519
334.519
334.376
334.105
333.731
333.284
332.796
332.294
331.804
331.355
331.017
324.138
324.397
324.746
325.127
325.517
325.896
326.244
326.534
326.745
326.855
326.855
326.745
326.534
326.244
325.896
325.517
325.127
324.746
324.397
324.138
317.254
317.437
317.686
317.958
318.236
318.507
318.755
318.963
319.113
319.192
319.192
319.113
318.963
318.755
318.507
318.236
317.958
317.686
317.437
317.254
310.365
310.475
310.624
310.787
310.955
311.117
311.266
311.391
311.481
311.528
311.528
311.481
311.391
311.266
311.117
310.955
310.787
310.624
310.475
310.365
303.475
303.511
303.561
303.616
303.672
303.727
303.777
303.818
303.849
303.864
303.864
303.849
303.818
303.777
303.727
303.672
303.616
303.561
303.511
303.475
352.467
353.042
353.77
354.555
355.354
356.129
356.837
357.429
357.857
358.082
358.082
357.857
357.429
356.837
356.129
355.354
354.555
353.77
353.042
352.467
345.499
345.986
346.614
347.293
347.985
348.656
349.268
349.78
350.15
350.344
350.344
350.15
349.78
349.268
348.656
347.985
347.293
346.614
345.986
345.499
338.52
338.924
339.453
340.027
340.612
341.179
341.697
342.129
342.442
342.606
342.606
342.442
342.129
341.697
341.179
340.612
340.027
339.453
338.924
338.52
331.533
331.859
332.29
332.759
333.237
333.701
334.124
334.477
334.732
334.866
334.866
334.732
334.477
334.124
333.701
333.237
332.759
332.29
331.859
331.533
324.54
324.789
325.124
325.488
325.86
326.221
326.549
326.824
327.022
327.126
327.126
327.022
326.824
326.549
326.221
325.86
325.488
325.124
324.789
324.54
317.54
317.717
317.956
318.216
318.482
318.739
318.974
319.17
319.311
319.385
319.385
319.311
319.17
318.974
318.739
318.482
318.216
317.956
317.717
317.54
310.538
310.643
310.786
310.942
311.102
311.256
311.397
311.515
311.6
311.644
311.644
311.6
311.515
311.397
311.256
311.102
310.942
310.786
310.643
310.538
303.533
303.568
303.616
303.668
303.722
303.773
303.821
303.86
303.888
303.903
303.903
303.888
303.86
303.821
303.773
303.722
303.668
303.616
303.568
303.533
353.51
354.06
354.753
355.498
356.253
356.983
357.646
358.199
358.598
358.808
358.808
358.598
358.199
357.646
356.983
356.253
355.498
354.753
354.06
353.51
346.401
346.867
347.465
348.11
348.764
349.395
349.97
350.448
350.793
350.974
350.974
350.793
350.448
349.97
349.395
348.764
348.11
347.465
346.867
346.401
339.283
339.669
340.174
340.718
341.271
341.805
342.291
342.695
342.986
343.139
343.139
342.986
342.695
342.291
341.805
341.271
340.718
340.174
339.669
339.283
332.157
332.468
332.879
333.324
333.776
334.213
334.61
334.94
335.178
335.303
335.303
335.178
334.94
334.61
334.213
333.776
333.324
332.879
332.468
332.157
325.024
325.263
325.582
325.928
326.28
326.619
326.927
327.184
327.369
327.466
327.466
327.369
327.184
326.927
326.619
326.28
325.928
325.582
325.263
325.024
317.887
318.056
318.283
318.53
318.781
319.024
319.244
319.427
319.559
319.628
319.628
319.559
319.427
319.244
319.024
318.781
318.53
318.283
318.056
317.887
310.746
310.846
310.983
311.131
311.282
311.428
311.56
311.67
311.749
311.791
311.791
311.749
311.67
311.56
311.428
311.282
311.131
310.983
310.846
310.746
303.602
303.636
303.682
303.731
303.782
303.831
303.875
303.912
303.938
303.952
303.952
303.938
303.912
303.875
303.831
303.782
303.731
303.682
303.636
303.602
354.734
355.257
355.913
356.615
357.323
358.005
358.622
359.134
359.503
359.696
359.696
359.503
359.134
358.622
358.005
357.323
356.615
355.913
355.257
354.734
347.461
347.904
348.47
349.078
349.691
350.281
350.815
351.259
351.577
351.744
351.744
351.577
351.259
350.815
350.281
349.691
349.078
348.47
347.904
347.461
340.179
340.546
341.023
341.537
342.056
342.555
343.006
343.381
343.65
343.791
343.791
343.65
343.381
343.006
342.555
342.056
341.537
341.023
340.546
340.179
332.89
333.185
333.574
333.994
334.418
334.826
335.195
335.502
335.722
335.837
335.837
335.722
335.502
335.195
334.826
334.418
333.994
333.574
333.185
332.89
325.594
325.821
326.123
326.449
326.779
327.096
327.383
327.621
327.792
327.882
327.882
327.792
327.621
327.383
327.096
326.779
326.449
326.123
325.821
325.594
318.294
318.454
318.669
318.902
319.138
319.365
319.57
319.74
319.862
319.926
319.926
319.862
319.74
319.57
319.365
319.138
318.902
318.669
318.454
318.294
310.99
311.086
311.215
311.355
311.496
311.632
311.755
311.857
311.931
311.969
311.969
311.931
311.857
311.755
311.632
311.496
311.355
311.215
311.086
310.99
303.684
303.716
303.759
303.806
303.854
303.899
303.941
303.975
303.999
304.012
304.012
303.999
303.975
303.941
303.899
303.854
303.806
303.759
303.716
303.684
356.144
356.637
357.255
357.912
358.572
359.204
359.773
360.244
360.582
360.759
360.759
360.582
360.244
359.773
359.204
358.572
357.912
357.255
356.637
356.144
348.682
349.099
349.632
350.201
350.773
351.32
351.813
352.221
352.513
352.666
352.666
352.513
352.221
351.813
351.32
350.773
350.201
349.632
349.099
348.682
341.211
341.558
342.007
342.488
342.971
343.434
343.851
344.195
344.442
344.571
344.571
344.442
344.195
343.851
343.434
342.971
342.488
342.007
341.558
341.211
333.733
334.012
334.378
334.772
335.167
335.546
335.886
336.168
336.37
336.476
336.476
336.37
336.168
335.886
335.546
335.167
334.772
334.378
334.012
333.733
326.25
326.464
326.748
327.054
327.361
327.656
327.921
328.14
328.297
328.379
328.379
328.297
328.14
327.921
327.656
327.361
327.054
326.748
326.464
326.25
318.762
318.914
319.116
319.334
319.554
319.764
319.954
320.11
320.222
320.281
320.281
320.222
320.11
319.954
319.764
319.554
319.334
319.116
318.914
318.762
311.271
311.362
311.483
311.614
311.746
311.872
311.986
312.08
312.147
312.182
312.182
312.147
312.08
311.986
311.872
311.746
311.614
311.483
311.362
311.271
303.778
303.809
303.849
303.893
303.937
303.98
304.018
304.049
304.072
304.084
304.084
304.072
304.049
304.018
303.98
303.937
303.893
303.849
303.809
303.778
357.741
358.205
358.783
359.395
360.006
360.588
361.111
361.541
361.848
362.009
362.009
361.848
361.541
361.111
360.588
360.006
359.395
358.783
358.205
357.741
350.065
350.457
350.956
351.486
352.015
352.52
352.972
353.344
353.611
353.749
353.749
353.611
353.344
352.972
352.52
352.015
351.486
350.956
350.457
350.065
342.381
342.706
343.126
343.574
344.022
344.449
344.831
345.146
345.371
345.488
345.488
345.371
345.146
344.831
344.449
344.022
343.574
343.126
342.706
342.381
334.689
334.951
335.294
335.66
336.027
336.376
336.689
336.946
337.13
337.226
337.226
337.13
336.946
336.689
336.376
336.027
335.66
335.294
334.951
334.689
326.993
327.194
327.46
327.745
328.03
328.301
328.545
328.745
328.888
328.962
328.962
328.888
328.745
328.545
328.301
328.03
327.745
327.46
327.194
326.993
319.293
319.435
319.625
319.828
320.032
320.226
320.4
320.543
320.645
320.698
320.698
320.645
320.543
320.4
320.226
320.032
319.828
319.625
319.435
319.293
311.59
311.675
311.789
311.911
312.033
312.149
312.254
312.34
312.401
312.433
312.433
312.401
312.34
312.254
312.149
312.033
311.911
311.789
311.675
311.59
303.885
303.914
303.952
303.993
304.034
304.073
304.108
304.136
304.157
304.168
304.168
304.157
304.136
304.108
304.073
304.034
303.993
303.952
303.914
303.885
359.53
359.964
360.502
361.069
361.632
362.165
362.641
363.032
363.31
363.455
363.455
363.31
363.032
362.641
362.165
361.632
361.069
360.502
359.964
359.53
351.614
351.981
352.445
352.936
353.424
353.886
354.298
354.637
354.878
355.003
355.003
354.878
354.637
354.298
353.886
353.424
352.936
352.445
351.981
351.614
343.69
343.994
344.385
344.8
345.213
345.604
345.953
346.239
346.443
346.549
346.549
346.443
346.239
345.953
345.604
345.213
344.8
344.385
343.994
343.69
335.76
336.005
336.324
336.663
337.001
337.321
337.607
337.841
338.007
338.094
338.094
338.007
337.841
337.607
337.321
337.001
336.663
336.324
336.005
335.76
327.826
328.014
328.261
328.525
328.788
329.037
329.259
329.441
329.57
329.638
329.638
329.57
329.441
329.259
329.037
328.788
328.525
328.261
328.014
327.826
319.888
320.021
320.197
320.386
320.573
320.751
320.91
321.04
321.132
321.18
321.18
321.132
321.04
320.91
320.751
320.573
320.386
320.197
320.021
319.888
311.947
312.026
312.132
312.245
312.358
312.465
312.56
312.638
312.694
312.723
312.723
312.694
312.638
312.56
312.465
312.358
312.245
312.132
312.026
311.947
304.005
304.031
304.067
304.105
304.143
304.178
304.21
304.237
304.255
304.265
304.265
304.255
304.237
304.21
304.178
304.143
304.105
304.067
304.031
304.005
361.512
361.916
362.415
362.937
363.454
363.94
364.373
364.726
364.977
365.107
365.107
364.977
364.726
364.373
363.94
363.454
362.937
362.415
361.916
361.512
353.33
353.672
354.102
354.554
355.002
355.424
355.798
356.104
356.321
356.434
356.434
356.321
356.104
355.798
355.424
355.002
354.554
354.102
353.672
353.33
345.141
345.424
345.787
346.17
346.548
346.905
347.222
347.481
347.665
347.76
347.76
347.665
347.481
347.222
346.905
346.548
346.17
345.787
345.424
345.141
336.947
337.175
337.47
337.783
338.093
338.385
338.644
338.856
339.006
339.084
339.084
339.006
338.856
338.644
338.385
338.093
337.783
337.47
337.175
336.947
328.748
328.923
329.153
329.396
329.637
329.864
330.066
330.23
330.347
330.408
330.408
330.347
330.23
330.066
329.864
329.637
329.396
329.153
328.923
328.748
320.547
320.67
320.834
321.008
321.18
321.342
321.487
321.604
321.688
321.731
321.731
321.688
321.604
321.487
321.342
321.18
321.008
320.834
320.67
320.547
312.343
312.417
312.515
312.619
312.723
312.82
312.907
312.977
313.027
313.053
313.053
313.027
312.977
312.907
312.82
312.723
312.619
312.515
312.417
312.343
304.138
304.162
304.195
304.23
304.265
304.297
304.327
304.35
304.367
304.376
304.376
304.367
304.35
304.327
304.297
304.265
304.23
304.195
304.162
304.138
363.69
364.065
364.525
365.005
365.477
365.919
366.31
366.628
366.853
366.97
366.97
366.853
366.628
366.31
365.919
365.477
365.005
364.525
364.065
363.69
355.215
355.532
355.929
356.345
356.754
357.137
357.476
357.752
357.947
358.048
358.048
357.947
357.752
357.476
357.137
356.754
356.345
355.929
355.532
355.215
346.735
346.998
347.332
347.684
348.03
348.354
348.641
348.874
349.039
349.125
349.125
349.039
348.874
348.641
348.354
348.03
347.684
347.332
346.998
346.735
338.25
338.461
338.734
339.022
339.305
339.571
339.805
339.996
340.131
340.201
340.201
340.131
339.996
339.805
339.571
339.305
339.022
338.734
338.461
338.25
329.761
329.924
330.136
330.359
330.58
330.786
330.969
331.117
331.222
331.276
331.276
331.222
331.117
330.969
330.786
330.58
330.359
330.136
329.924
329.761
321.27
321.385
321.536
321.696
321.853
322.001
322.131
322.237
322.313
322.351
322.351
322.313
322.237
322.131
322.001
321.853
321.696
321.536
321.385
321.27
312.777
312.846
312.936
313.032
313.127
313.216
313.294
313.358
313.403
313.426
313.426
313.403
313.358
313.294
313.216
313.127
313.032
312.936
312.846
312.777
304.283
304.306
304.336
304.369
304.4
304.43
304.456
304.478
304.493
304.501
304.501
304.493
304.478
304.456
304.43
304.4
304.369
304.336
304.306
304.283
366.063
366.409
366.833
367.273
367.702
368.103
368.455
368.741
368.942
369.047
369.047
368.942
368.741
368.455
368.103
367.702
367.273
366.833
366.409
366.063
357.269
357.562
357.928
358.309
358.681
359.029
359.334
359.582
359.756
359.847
359.847
359.756
359.582
359.334
359.029
358.681
358.309
357.928
357.562
357.269
348.471
348.714
349.023
349.345
349.66
349.954
350.212
350.422
350.57
350.646
350.646
350.57
350.422
350.212
349.954
349.66
349.345
349.023
348.714
348.471
339.67
339.865
340.117
340.38
340.638
340.879
341.09
341.262
341.383
341.445
341.445
341.383
341.262
341.09
340.879
340.638
340.38
340.117
339.865
339.67
330.865
331.015
331.21
331.415
331.616
331.803
331.968
332.101
332.195
332.244
332.244
332.195
332.101
331.968
331.803
331.616
331.415
331.21
331.015
330.865
322.059
322.165
322.304
322.45
322.594
322.728
322.845
322.941
323.008
323.043
323.043
323.008
322.941
322.845
322.728
322.594
322.45
322.304
322.165
322.059
313.251
313.314
313.398
313.485
313.572
313.652
313.723
313.78
313.82
313.841
313.841
313.82
313.78
313.723
313.652
313.572
313.485
313.398
313.314
313.251
304.442
304.463
304.491
304.52
304.549
304.576
304.6
304.619
304.633
304.64
304.64
304.633
304.619
304.6
304.576
304.549
304.52
304.491
304.463
304.442
368.629
368.948
369.337
369.739
370.129
370.491
370.808
371.064
371.244
371.337
371.337
371.244
371.064
370.808
370.491
370.129
369.739
369.337
368.948
368.629
359.49
359.76
360.096
360.444
360.782
361.096
361.371
361.593
361.749
361.829
361.829
361.749
361.593
361.371
361.096
360.782
360.444
360.096
359.76
359.49
350.348
350.572
350.855
351.149
351.436
351.701
351.934
352.122
352.254
352.322
352.322
352.254
352.122
351.934
351.701
351.436
351.149
350.855
350.572
350.348
341.204
341.384
341.615
341.855
342.09
342.307
342.498
342.652
342.76
342.816
342.816
342.76
342.652
342.498
342.307
342.09
341.855
341.615
341.384
341.204
332.058
332.196
332.375
332.562
332.745
332.914
333.062
333.182
333.266
333.309
333.309
333.266
333.182
333.062
332.914
332.745
332.562
332.375
332.196
332.058
322.91
323.008
323.136
323.27
323.4
323.521
323.627
323.712
323.772
323.803
323.803
323.772
323.712
323.627
323.521
323.4
323.27
323.136
323.008
322.91
313.762
313.82
313.897
313.977
314.056
314.128
314.192
314.243
314.279
314.298
314.298
314.279
314.243
314.192
314.128
314.056
313.977
313.897
313.82
313.762
304.613
304.633
304.658
304.685
304.712
304.736
304.757
304.775
304.787
304.793
304.793
304.787
304.775
304.757
304.736
304.712
304.685
304.658
304.633
304.613
371.376
371.671
372.027
372.393
372.747
373.074
373.358
373.587
373.748
373.831
373.831
373.748
373.587
373.358
373.074
372.747
372.393
372.027
371.671
371.376
361.866
362.115
362.423
362.74
363.047
363.33
363.577
363.776
363.915
363.987
363.987
363.915
363.776
363.577
363.33
363.047
362.74
362.423
362.115
361.866
352.355
352.561
352.821
353.089
353.349
353.589
353.798
353.966
354.084
354.145
354.145
354.084
353.966
353.798
353.589
353.349
353.089
352.821
352.561
352.355
342.843
343.009
343.221
343.44
343.653
343.849
344.021
344.158
344.255
344.304
344.304
344.255
344.158
344.021
343.849
343.653
343.44
343.221
343.009
342.843
333.332
333.459
333.623
333.794
333.959
334.112
334.245
334.352
334.427
334.466
334.466
334.427
334.352
334.245
334.112
333.959
333.794
333.623
333.459
333.332
323.82
323.91
324.027
324.149
324.267
324.376
324.472
324.548
324.602
324.629
324.629
324.602
324.548
324.472
324.376
324.267
324.149
324.027
323.91
323.82
314.308
314.362
314.432
314.505
314.576
314.642
314.699
314.745
314.777
314.794
314.794
314.777
314.745
314.699
314.642
314.576
314.505
314.432
314.362
314.308
304.796
304.814
304.838
304.862
304.886
304.908
304.927
304.943
304.953
304.959
304.959
304.953
304.943
304.927
304.908
304.886
304.862
304.838
304.814
304.796
374.277
374.548
374.874
375.208
375.528
375.823
376.079
376.284
376.427
376.501
376.501
376.427
376.284
376.079
375.823
375.528
375.208
374.874
374.548
374.277
364.371
364.599
364.881
365.17
365.448
365.704
365.926
366.103
366.228
366.292
366.292
366.228
366.103
365.926
365.704
365.448
365.17
364.881
364.599
364.371
354.467
354.656
354.894
355.138
355.374
355.59
355.778
355.929
356.034
356.088
356.088
356.034
355.929
355.778
355.59
355.374
355.138
354.894
354.656
354.467
344.566
344.718
344.912
345.112
345.305
345.482
345.636
345.76
345.846
345.89
345.89
345.846
345.76
345.636
345.482
345.305
345.112
344.912
344.718
344.566
334.668
334.785
334.936
335.091
335.241
335.379
335.499
335.595
335.662
335.697
335.697
335.662
335.595
335.499
335.379
335.241
335.091
334.936
334.785
334.668
324.773
324.856
324.963
325.074
325.182
325.28
325.366
325.434
325.482
325.507
325.507
325.482
325.434
325.366
325.28
325.182
325.074
324.963
324.856
324.773
314.88
314.929
314.993
315.06
315.125
315.184
315.236
315.277
315.306
315.32
315.32
315.306
315.277
315.236
315.184
315.125
315.06
314.993
314.929
314.88
304.988
305.004
305.026
305.048
305.07
305.09
305.107
305.121
305.13
305.135
305.135
305.13
305.121
305.107
305.09
305.07
305.048
305.026
305.004
304.988
377.257
377.505
377.804
378.108
378.4
378.666
378.897
379.08
379.209
379.275
379.275
379.209
379.08
378.897
378.666
378.4
378.108
377.804
377.505
377.257
366.93
367.141
367.399
367.663
367.916
368.147
368.347
368.507
368.618
368.675
368.675
368.618
368.507
368.347
368.147
367.916
367.663
367.399
367.141
366.93
356.616
356.791
357.009
357.232
357.446
357.642
357.812
357.947
358.041
358.09
358.09
358.041
357.947
357.812
357.642
357.446
357.232
357.009
356.791
356.616
346.313
346.454
346.631
346.814
346.99
347.15
347.289
347.4
347.477
347.517
347.517
347.477
347.4
347.289
347.15
346.99
346.814
346.631
346.454
346.313
336.02
336.128
336.266
336.408
336.545
336.67
336.778
336.864
336.924
336.955
336.955
336.924
336.864
336.778
336.67
336.545
336.408
336.266
336.128
336.02
325.735
325.811
325.91
326.011
326.109
326.198
326.276
326.337
326.38
326.403
326.403
326.38
326.337
326.276
326.198
326.109
326.011
325.91
325.811
325.735
315.456
315.501
315.56
315.622
315.68
315.734
315.78
315.818
315.843
315.857
315.857
315.843
315.818
315.78
315.734
315.68
315.622
315.56
315.501
315.456
305.181
305.196
305.216
305.236
305.256
305.274
305.289
305.302
305.31
305.315
305.315
305.31
305.302
305.289
305.274
305.256
305.236
305.216
305.196
305.181
380.123
380.352
380.628
380.908
381.174
381.417
381.626
381.792
381.908
381.968
381.968
381.908
381.792
381.626
381.417
381.174
380.908
380.628
380.352
380.123
369.363
369.558
369.796
370.039
370.271
370.482
370.664
370.808
370.909
370.961
370.961
370.909
370.808
370.664
370.482
370.271
370.039
369.796
369.558
369.363
358.637
358.799
359
359.206
359.402
359.581
359.736
359.858
359.944
359.988
359.988
359.944
359.858
359.736
359.581
359.402
359.206
359
358.799
358.637
347.941
348.071
348.235
348.404
348.565
348.712
348.838
348.939
349.009
349.045
349.045
349.009
348.939
348.838
348.712
348.565
348.404
348.235
348.071
347.941
337.27
337.37
337.498
337.629
337.754
337.869
337.967
338.046
338.101
338.129
338.129
338.101
338.046
337.967
337.869
337.754
337.629
337.498
337.37
337.27
326.619
326.69
326.781
326.875
326.965
327.047
327.117
327.174
327.213
327.233
327.233
327.213
327.174
327.117
327.047
326.965
326.875
326.781
326.69
326.619
315.984
316.026
316.081
316.137
316.191
316.24
316.283
316.316
316.34
316.352
316.352
316.34
316.316
316.283
316.24
316.191
316.137
316.081
316.026
315.984
305.357
305.371
305.389
305.408
305.426
305.443
305.457
305.468
305.476
305.48
305.48
305.476
305.468
305.457
305.443
305.426
305.408
305.389
305.371
305.357
382.371
382.587
382.846
383.108
383.358
383.584
383.779
383.933
384.04
384.095
384.095
384.04
383.933
383.779
383.584
383.358
383.108
382.846
382.587
382.371
371.199
371.383
371.608
371.836
372.053
372.251
372.421
372.556
372.649
372.697
372.697
372.649
372.556
372.421
372.251
372.053
371.836
371.608
371.383
371.199
360.115
360.268
360.458
360.652
360.837
361.005
361.15
361.264
361.344
361.385
361.385
361.344
361.264
361.15
361.005
360.837
360.652
360.458
360.268
360.115
349.102
349.225
349.381
349.54
349.692
349.83
349.949
350.043
350.109
350.143
350.143
350.109
350.043
349.949
349.83
349.692
349.54
349.381
349.225
349.102
338.145
338.24
338.361
338.485
338.603
338.711
338.804
338.878
338.929
338.955
338.955
338.929
338.878
338.804
338.711
338.603
338.485
338.361
338.24
338.145
327.23
327.297
327.384
327.472
327.557
327.635
327.701
327.754
327.791
327.809
327.809
327.791
327.754
327.701
327.635
327.557
327.472
327.384
327.297
327.23
316.345
316.385
316.437
316.49
316.541
316.588
316.628
316.659
316.682
316.693
316.693
316.682
316.659
316.628
316.588
316.541
316.49
316.437
316.385
316.345
305.477
305.49
305.508
305.526
305.543
305.558
305.572
305.583
305.59
305.594
305.594
305.59
305.583
305.572
305.558
305.543
305.526
305.508
305.49
305.477
)
;

boundaryField
{
    hotSide
    {
        type            fixedGradient;
        gradient        nonuniform List<scalar> 
400
(
528.671
530.509
534.193
539.735
547.155
556.477
567.728
580.938
596.139
613.361
632.634
653.987
677.446
703.034
730.771
760.676
792.762
827.041
863.523
902.216
537.179
538.95
542.502
547.851
555.024
564.053
574.974
587.826
602.648
619.481
638.361
659.324
682.401
707.62
735.004
764.573
796.344
830.329
866.537
904.975
546.387
548.078
551.471
556.592
563.474
572.158
582.693
595.128
609.514
625.901
644.335
664.859
687.51
712.321
739.318
768.524
799.954
833.624
869.541
907.713
556.142
557.739
560.949
565.805
572.35
580.639
590.733
602.696
616.592
632.483
650.424
670.468
692.657
717.028
743.613
772.433
803.508
836.85
872.468
910.366
566.171
567.663
570.668
575.226
581.397
589.248
598.857
610.304
623.669
639.026
656.442
675.978
697.683
721.599
747.758
776.186
806.901
839.914
875.233
912.861
576.056
577.435
580.22
584.463
590.236
597.625
606.726
617.637
630.454
645.264
662.147
681.171
702.393
725.858
751.601
779.647
810.013
842.711
877.746
915.118
585.232
586.498
589.064
592.993
598.372
605.306
613.911
624.3
636.588
650.875
667.251
685.794
706.564
729.611
754.969
782.666
812.716
845.13
879.91
917.055
593.02
594.184
596.553
600.199
605.226
611.756
619.92
629.851
641.675
655.508
671.447
689.576
709.962
732.654
757.69
785.094
814.882
847.061
881.631
918.59
598.719
599.806
602.023
605.454
610.213
616.436
624.267
633.853
645.331
658.825
674.441
692.266
712.37
734.804
759.606
786.799
816.398
848.409
882.83
919.657
601.739
602.783
604.918
608.232
612.846
618.902
626.554
635.954
647.246
660.559
676.002
693.666
713.62
735.918
760.596
787.679
817.18
849.102
883.446
920.204
601.739
602.783
604.918
608.232
612.846
618.902
626.554
635.954
647.246
660.559
676.002
693.666
713.62
735.918
760.596
787.679
817.18
849.102
883.446
920.204
598.719
599.806
602.023
605.454
610.213
616.436
624.267
633.853
645.331
658.825
674.441
692.266
712.37
734.804
759.606
786.799
816.398
848.409
882.83
919.657
593.02
594.184
596.553
600.199
605.226
611.756
619.92
629.851
641.675
655.508
671.447
689.576
709.962
732.654
757.69
785.094
814.882
847.061
881.631
918.59
585.232
586.498
589.064
592.993
598.372
605.306
613.911
624.3
636.588
650.875
667.251
685.794
706.564
729.611
754.969
782.666
812.716
845.13
879.91
917.055
576.056
577.435
580.22
584.463
590.236
597.625
606.726
617.637
630.454
645.264
662.147
681.171
702.393
725.858
751.601
779.647
810.013
842.711
877.746
915.118
566.171
567.663
570.668
575.226
581.397
589.248
598.857
610.304
623.669
639.026
656.442
675.978
697.683
721.599
747.758
776.186
806.901
839.914
875.233
912.861
556.142
557.739
560.949
565.805
572.35
580.639
590.733
602.696
616.592
632.483
650.424
670.468
692.657
717.028
743.613
772.433
803.508
836.85
872.468
910.366
546.387
548.078
551.471
556.592
563.474
572.158
582.693
595.128
609.514
625.901
644.335
664.859
687.51
712.321
739.318
768.524
799.954
833.624
869.541
907.713
537.179
538.95
542.502
547.851
555.024
564.053
574.974
587.826
602.648
619.481
638.361
659.324
682.401
707.62
735.004
764.573
796.344
830.329
866.537
904.975
528.671
530.509
534.193
539.735
547.155
556.477
567.728
580.938
596.139
613.361
632.634
653.987
677.446
703.034
730.771
760.676
792.762
827.041
863.523
902.216
)
;
    }
    coldSide
    {
        type            mixed;
        refValue        uniform 300;
        refGradient     uniform 0;
        valueFraction   uniform 0.991591;
        source          uniform 0;
        value           nonuniform List<scalar> 
400
(
300.028
300.028
300.029
300.029
300.029
300.03
300.03
300.031
300.032
300.033
300.034
300.035
300.036
300.037
300.039
300.04
300.042
300.044
300.045
300.046
300.029
300.029
300.029
300.029
300.03
300.03
300.031
300.031
300.032
300.033
300.034
300.035
300.036
300.038
300.039
300.04
300.042
300.044
300.045