/*--------------------------------*- C++ -*----------------------------------*\
| =========                 |                                                 |
| \\      /  F ield         | OpenFOAM: The Open Source CFD Toolbox           |
|  \\    /   O peration     | Version:  2212                                  |
|   \\  /    A nd           | Website:  www.openfoam.com                      |
|    \\/     M anipulation  |                                                 |
\*---------------------------------------------------------------------------*/
FoamFile
{
    version     2.0;
    format      ascii;
    arch        "LSB;label=32;scalar=64";
    class       volScalarField;
    location    "./ITHACAoutput/true/12.6";
    object      error;
}
// * * * * * * * * * * * * * * * * * * * * * * * * * * * * * * * * * * * * * //

dimensions      [0 0 0 1 0 0 0];

internalField   nonuniform List<scalar> 
3200
(
-1.1387
0.298844
0.112384
1.35605
2.42655
0.90989
0.989682
2.36156
1.50932
1.52279
1.75149
1.25743
1.19363
1.85692
1.12696
1.65386
0.886179
0.283755
-1.01997
-0.467442
-0.452482
-0.159998
1.00971
0.507676
0.206172
1.47551
0.626945
0.946757
1.47625
2.501
1.82008
0.915092
2.64494
1.48531
0.625755
0.526977
0.689455
-0.115751
-0.517747
-1.80929
-1.05196
-0.0574414
0.515195
1.61072
1.31177
2.10946
1.74896
1.29308
1.52225
2.27503
1.22174
0.633185
1.85489
1.07093
0.989833
0.287214
1.92302
0.0223388
0.180268
-1.40315
0.126438
1.0654
0.762145
0.736064
1.02496
0.826801
1.86586
0.153801
0.68636
0.917835
0.611565
1.55694
0.130159
1.07004
1.47706
0.411325
0.128706
0.485923
0.111148
-0.566035
-1.4121
0.521766
0.488984
0.696083
0.422955
1.50547
0.964126
0.0804082
1.96205
0.689794
0.579858
0.661417
0.921823
0.35159
0.276056
1.45916
0.512481
0.187112
0.0509581
1.3744
0.665312
-0.268489
-0.064493
0.203479
0.399968
1.06941
0.406018
0.658764
1.30163
0.578234
0.777682
1.69465
1.4072
0.785221
-0.293071
0.0153052
0.384885
0.451256
0.404262
-0.317063
-0.514473
-0.544372
0.540481
0.465934
0.519471
-0.0667375
-0.056545
0.650415
-0.0325294
0.233399
0.92793
0.413972
0.481114
0.808418
0.0174404
-0.0517314
-0.188781
0.0516777
0.156507
0.00445979
1.3535
-0.040843
0.531909
-0.181409
-0.166692
0.0351456
0.553402
-0.853956
-0.0905247
-0.926135
0.389471
-0.142929
0.195777
0.19497
-0.0599885
0.961312
-0.748655
-0.399104
0.479893
0.191691
-1.3201
-0.471714
0.973165
0.0684569
1.7564
2.63993
2.0734
2.31717
0.6634
1.37599
1.31507
1.22309
2.05128
0.300883
1.10551
0.931139
0.566832
0.631543
-0.563855
-0.355001
-1.38961
0.17897
0.446035
0.396333
0.649859
-0.132144
1.9575
0.21855
1.18634
0.10317
0.178528
-0.0514655
-0.288886
0.533238
-0.106269
1.28411
0.206124
0.852243
-0.0495051
-0.442181
-0.669549
-0.841668
-0.0132624
0.784829
1.08495
2.01749
1.7537
0.313573
0.200469
1.48957
0.300992
0.780032
-0.2384
0.75962
0.32022
0.313483
0.509506
0.819866
-0.655034
-0.687482
0.541395
0.0534
1.10005
1.2501
1.34984
0.584831
1.70409
1.36537
0.536622
1.29724
0.548456
1.10057
-0.328847
1.85271
-0.185502
0.739154
1.33971
0.999767
-0.64729
-0.411685
-0.433737
0.57553
0.69708
0.326558
0.238482
1.44271
-0.174754
-0.0981918
0.0285926
-0.365862
0.101325
0.591522
0.504334
0.922273
0.437459
0.67349
1.19341
0.664598
-0.220902
0.79897
0.00321477
-0.498189
0.44502
0.620398
0.204513
0.51055
0.392916
0.603386
0.740009
1.11488
1.32129
0.262808
0.4753
0.609628
0.157672
0.314457
0.795306
0.756921
-0.280243
-0.911224
1.04964
-0.681286
0.648474
0.0511583
0.154896
1.18655
0.212394
0.833235
0.107541
-0.515247
2.13753
0.318458
0.700765
1.16076
-0.0182618
0.0662224
1.18419
0.373199
-0.546087
-0.336347
-0.395746
1.1448
-0.598439
0.200045
0.436657
-0.272715
-0.0622829
0.511998
0.104862
0.833377
0.0733337
-0.565275
1.43988
-0.591165
0.558734
-0.44378
0.0938102
0.212943
-0.56884
0.348107
-1.31347
0.368803
1.0162
1.07641
2.15742
1.27979
0.261114
2.32465
2.05437
2.02201
0.887989
1.61692
1.08943
0.906049
1.17537
0.624572
0.634077
0.0250569
0.0145718
-1.2446
-0.4727
-0.100356
0.721912
0.942508
0.00896592
0.631742
1.08667
1.08099
0.44418
1.15296
0.599471
0.0850109
0.593876
0.630839
0.32423
0.250305
0.873092
-0.482864
-0.128303
-0.412214
-1.21445
0.285878
0.425271
-0.298029
0.281168
1.01032
0.450477
0.997579
1.0746
0.755015
1.17618
1.0237
-0.0588703
0.0513064
0.319766
1.41315
0.202405
0.1439
0.174129
-0.695516
-0.996916
0.129477
0.350898
0.412646
0.140451
1.43754
0.493403
1.21015
1.17336
0.280255
0.580684
0.330871
1.37999
1.43513
0.658717
0.684452
-0.445834
0.879442
0.356843
0.543176
0.382513
-0.0678546
0.383944
-0.452391
0.318692
1.30399
0.585611
0.486474
1.62772
0.441984
1.19498
0.736786
0.469415
0.156678
0.575459
0.540941
-1.70003
0.754502
0.278453
-1.58414
-1.11368
0.590047
-0.277198
0.284662
0.799652
0.937265
0.166861
-0.14314
0.30782
0.391293
-0.084655
0.267266
0.118988
0.608732
0.795434
0.565368
-0.194757
0.831165
-0.0546768
0.00788171
-0.346395
0.464847
-0.489536
0.491557
0.0244179
-0.676759
-0.599799
-0.121331
-0.172488
0.283159
0.450811
0.186948
-0.0389117
1.12861
0.0719718
0.332605
-0.24673
0.246578
0.352056
-1.35077
-0.219328
0.81172
-0.581714
-0.232015
0.483292
-0.159556
0.314225
0.223405
0.243372
0.364859
0.300295
-0.39521
0.309492
0.367763
0.531744
-0.0797187
0.602618
0.375838
-0.718866
0.597101
-0.896867
0.460734
0.0453342
1.08159
1.55248
1.21847
0.907102
1.04379
1.09268
-0.181706
1.62556
0.955423
0.659946
0.0117655
0.544656
0.353859
0.564741
1.25148
-0.201404
-1.6288
0.258327
0.327003
0.420135
0.204739
0.389056
-0.193604
0.930385
-0.140737
0.447146
0.0613937
-0.116394
-0.182886
-0.0157421
0.412688
-0.362134
1.24679
-0.0336725
0.37266
0.534611
-1.65399
-1.04334
0.712345
1.04762
0.81281
0.748651
1.13841
0.313546
0.598362
0.185993
0.615656
0.973019
1.23602
0.213717
0.776258
1.93662
1.07021
-0.115442
-0.527122
-0.303129
-0.792955
-0.431113
-0.623988
1.26716
1.04318
1.09306
-0.676049
0.502409
0.585174
1.0249
0.218987
-0.275512
-0.00620917
1.49369
0.353387
0.622789
1.24111
0.393847
0.289344
-0.81595
-1.06127
0.396194
-1.27597
0.804604
0.898547
0.487583
1.93806
1.14335
0.746863
1.21345
-0.330699
1.41554
0.83629
0.00383546
-0.161889
-0.319488
0.902235
-0.00194025
1.04985
-0.404384
-0.44059
-0.207135
1.0896
-0.256775
-0.384259
0.437524
0.441934
0.63981
0.641236
0.949026
0.0108098
1.04126
0.902733
0.0174458
0.338391
0.495258
-0.53221
-0.0892324
-1.14159
-1.06271
-0.463619
-0.591842
-0.251142
0.0673516
-0.12406
-0.0493504
0.2822
0.317537
0.313306
0.941544
0.44738
0.598577
0.0243179
0.757791
0.790662
-0.203117
1.3007
0.170437
-0.848437
-0.188295
-0.532799
0.365421
-1.04125
-0.509012
-0.168757
0.410063
0.723793
-0.216837
1.39696
0.342123
0.613706
-0.325316
-0.19872
-0.583253
0.4387
0.372282
0.636395
0.0706229
-0.316679
0.0675695
-0.396883
-1.25573
-1.06809
-0.0893802
-0.186147
1.84391
0.726771
0.794188
0.170333
-0.378331
0.599797
0.288673
-0.519446
-0.256303
0.412385
0.0344639
-0.0820655
-1.10955
0.615929
-0.828819
-1.3315
-0.360127
-0.599514
0.427886
0.401172
0.0130954
1.16123
1.19257
1.4275
1.27121
1.25057
0.683955
0.870625
0.210328
0.204664
-0.803587
0.174826
-0.442306
-0.363547
-0.515136
-1.28199
-0.750017
-0.571309
-0.0509357
0.425127
0.880736
0.619535
-0.426041
1.08843
0.612438
0.684173
1.59674
0.516476
0.644697
-0.334719
-0.862817
0.200595
0.693312
0.452695
-0.352255
-1.30103
-0.409896
-0.679304
-0.0821066
0.784874
1.64963
0.872519
0.0701232
0.0890366
0.624183
0.717025
1.317
0.668208
0.336286
0.261729
-1.27038
0.54725
0.166562
-0.679696
-0.0293997
-0.562904
-0.93197
-0.0421911
1.12982
-0.618042
0.696134
0.702393
1.31191
-0.653002
-0.216262
-0.788089
0.127514
-0.0732258
0.677745
0.169089
1.04036
0.422859
0.130725
-0.202912
-0.0288713
0.212685
-0.699679
-0.546575
0.165169
0.791438
0.842284
0.246962
-0.0184308
-0.283226
-0.861125
-0.488905
0.421752
-0.155369
-1.13669
-0.743371
0.173185
-0.783498
-0.337623
-0.381263
0.414656
-0.283306
-0.9741
0.583905
-0.988743
0.629899
1.03833
-0.548025
-0.4927
1.18528
-0.155345
-0.250588
-0.0321703
-0.459025
-0.00856929
0.392898
0.0916943
0.251112
0.522457
0.379815
0.554129
-0.134687
-0.0736776
-0.846815
-0.592579
0.320363
0.745823
0.425357
1.26261
0.619977
0.47193
0.561801
-0.627618
0.264436
-0.128784
0.115376
0.459652
-0.574979
0.0618252
0.578071
-0.943201
-0.160744
-1.64508
-0.451621
-0.490105
1.2643
0.873237
-0.00261
0.417282
-0.181497
1.26397
0.234772
-0.354508
-1.14467
-0.362818
0.414441
-0.622022
-0.173477
-0.650126
-0.423489
-1.06208
-0.601848
-1.48901
-0.0108045
0.0706279
-0.341675
0.466836
0.300711
0.176477
-0.0138121
0.936675
-0.0259973
0.0690011
-0.899838
0.0219949
-0.577479
0.0182119
0.0246413
0.123506
-0.0453418
-0.28784
-0.856206
-0.740928
-0.924861
-1.27095
0.298765
0.627376
1.54559
-0.0843348
0.614684
0.230401
-0.0380874
-0.96791
-0.75782
0.53798
0.370759
-0.538096
0.230403
0.219377
-0.326834
-1.6791
-0.333267
-0.310499
0.434392
0.649327
1.47017
1.03146
0.291254
0.706718
0.123762
0.262788
-0.701337
-0.26809
-0.0325595
0.286709
-1.11898
-0.0991448
0.866565
0.459289
0.518915
-0.28815
-1.5695
-1.14037
0.565088
0.444998
0.63355
-0.323926
0.690087
1.29467
0.889986
0.360942
0.44809
-1.1523
-0.380263
-0.581877
0.111403
-0.786564
0.123451
-0.518259
0.826757
-0.543375
-0.0308664
-0.587643
-0.124825
-0.061519
0.737427
0.211207
0.89846
-0.269286
0.585166
0.0699117
0.295256
0.212156
0.0475749
-0.791354
0.91224
-0.166127
0.800915
0.0273458
-0.45821
-0.804058
-0.372103
-0.717429
-0.144273
-0.406354
0.293724
-0.907275
0.437263
-0.572112
0.671689
0.347004
0.664728
0.000794878
-0.284534
-0.46495
0.0257582
0.174411
0.721677
0.899868
0.475313
-0.85853
-0.710505
-0.203296
-0.670257
0.699495
-0.520045
-0.00251083
0.486684
0.15981
0.121175
-0.137767
0.038189
0.258226
-0.694462
-0.372353
-0.714142
0.685724
-0.781635
0.6031
-0.296569
-0.555352
-0.238676
-1.28595
-0.911606
0.740516
-0.341914
0.494715
0.449449
-0.0632943
-0.218288
-0.106169
-0.992014
-0.632127
-0.7515
0.265508
-0.289267
0.517351
-0.035727
0.460657
-0.240454
-0.387756
-1.0263
-0.846188
-0.00729699
-0.461729
-0.834106
0.772186
-0.745918
0.747865
0.365821
-0.208566
-0.691366
-0.970525
-0.793482
-0.692539
-0.102868
-0.77911
-0.637245
0.275529
-0.726797
-0.383518
-0.462498
-1.09095
-0.877364
-0.192645
-0.329001
0.298814
0.441423
0.183837
1.16291
0.11908
0.211633
0.346357
0.639102
-0.708065
0.261769
-0.183704
1.74418
0.0785413
0.526552
-1.26894
-1.68711
-0.339695
-0.570739
-0.447485
-0.9851
0.113636
-0.385167
0.203232
-0.0669345
-0.0483435
-0.768807
-0.915427
-0.674222
0.349473
-0.149068
-0.227662
-0.653941
-0.137593
-0.258314
-0.239345
-0.440469
-0.897142
-0.65809
0.21928
0.498124
0.603819
0.629703
0.47163
1.04046
-0.215798
-0.455373
0.469258
0.130743
-0.0679549
0.113499
0.400016
-0.540219
-0.819165
-0.605246
-0.914441
0.5792
-0.347577
-0.396298
-0.439461
-0.902123
0.368307
0.0853875
1.07431
-0.651268
0.0880204
-0.290925
-0.733928
0.184527
-0.288081
-0.819242
0.990533
0.309269
-0.575581
0.719229
-1.44676
-0.480719
-0.764357
0.000887875
-0.45205
-0.333561
-0.904936
-0.494905
-0.245386
0.229077
-0.643445
0.132891
0.679952
0.494904
-0.538135
0.0894085
0.38314
0.944013
0.141276
-0.38706
-0.199917
-0.478332
-0.464037
-0.27144
0.27629
-0.444755
0.438504
-0.650762
0.698707
0.13786
-0.503803
-0.556881
0.466634
-0.0514332
-0.0206871
-0.946239
-0.0329757
0.937426
-0.216332
0.279794
-0.0615971
1.46823
-2.34045
-0.710234
-0.433072
-1.11447
0.140416
-0.38778
-1.04826
-0.458212
-1.39968
-1.22984
-0.174458
-1.2449
-0.797005
-0.496457
0.0195913
-0.780663
-0.24904
-0.752752
-1.56802
-1.96391
-0.911792
0.0978518
-0.591303
-0.0703248
-0.0326451
-0.316229
-0.464781
0.025501
-0.328093
-0.0587176
-0.0446521
-0.496826
-0.377637
-1.2055
-0.00783947
-0.0241253
0.0290559
-0.722936
0.0242193
-0.490187
-1.92455
-0.73847
-0.69499
-0.191908
0.0173068
0.464011
-0.301338
-0.582017
0.094445
0.20473
-0.211515
0.220397
-1.64293
-1.36645
-1.04485
0.108161
-1.44475
-0.00609201
-1.20493
-1.311
-0.165136
-1.41279
-0.790318
-0.191049
0.570504
-0.503503
0.375843
-0.444125
-0.848884
-0.684171
0.593626
-0.551174
0.834916
-0.885787
1.09436
0.10625
-0.478245
-0.490188
-1.41679
-0.393579
-0.541097
-0.25009
-0.972762
-0.130109
0.16125
-0.422878
0.029673
-0.0558308
0.101977
-0.572911
0.704648
-1.03591
-1.09804
-0.112026
0.0626766
0.372201
-0.999289
-0.803232
0.0498692
-0.762525
-1.12039
0.111285
-0.234612
0.809402
0.152446
-0.837621
1.79259
0.670778
0.364492
0.340035
-0.317876
-0.615747
-1.53952
0.752979
-0.27423
-0.227605
0.377962
-0.0960971
-1.1754
-1.22915
0.171207
-0.165219
-0.0406322
0.37038
0.465347
-0.776186
-0.305149
-0.0308013
0.300175
0.400333
0.309627
0.446161
0.343267
0.0561567
-0.708195
-0.795403
-0.3743
-0.187377
-1.13132
-0.270537
0.26721
-0.730374
-0.683313
-0.257617
-0.148173
-0.770012
-0.58111
-0.149526
-0.501275
-0.92699
-0.972817
0.955815
0.0405879
0.553598
0.201014
0.504045
-0.24164
0.716313
0.494408
0.973783
-1.30413
-1.03431
-0.280381
-0.596505
-0.608166
-0.920293
-0.508148
0.292849
-0.0603803
-0.928573
-1.22189
-0.936259
-1.48864
-0.218098
-0.806328
-0.157034
-0.308904
-0.589851
-0.986208
-2.06515
-1.44833
-0.313466
-0.191209
0.080699
-0.738798
0.590364
-0.685444
-0.0257933
-1.51912
-0.21677
-0.747207
-1.39934
-1.07004
-0.431193
-0.810025
-0.935984
-0.417306
-0.589464
-0.818116
-0.450629
-1.45006
-1.00547
-1.33617
0.00597664
0.0776198
0.746913
-0.969559
-0.645963
-0.700436
-1.07608
-0.536377
-1.24048
-0.651135
-0.221903
0.277123
-0.280656
-0.824455
-0.639696
-0.917387
-1.45808
-0.620623
-0.756368
0.0850532
-0.38475
-0.587494
0.207323
-1.08846
-0.0154971
-0.78401
0.189181
-0.337077
-1.20871
-0.200352
-0.473669
-1.08334
0.0660094
-0.671873
-1.22871
-1.444
-1.25717
-1.05087
-1.46057
-0.872772
0.0797661
-0.12864
-0.758911
-0.737532
-0.354885
-0.179687
-0.151501
-0.674973
-0.534037
-0.575445
-0.239623
0.589712
-0.392099
-0.80398
-1.08592
-0.93742
-0.188389
-1.32887
-0.564648
-0.013841
1.25918
0.494077
0.139115
0.301205
-0.321943
-0.478356
-1.08329
-0.651141
-0.954593
-0.769425
0.0879438
-0.602057
-0.492989
-0.352861
-0.651318
0.22188
-0.705578
-0.252753
-0.120053
-0.187574
-0.792992
0.325363
0.994034
-0.658023
-0.31449
-0.470693
-1.31578
-0.727864
0.119616
-1.6999
0.0526497
-0.016758
0.437928
-0.651898
-0.390779
0.794395
0.0946849
0.319055
-0.563231
-1.02643
0.040245
-0.27413
-0.668327
-0.137617
-0.603856
-0.130506
0.439216
0.157966
-0.546827
0.538894
-0.585521
-0.633391
-0.0339219
0.26431
-1.20455
0.160186
-0.475678
-1.58838
-2.01291
-0.727755
-1.00098
0.802229
-0.263708
-0.526521
-0.638081
-1.17884
-1.48398
-1.38055
-1.68792
-1.06424
-0.856634
-0.988673
-1.19801
-0.818651
-0.0928502
-2.05946
-1.91313
-1.83159
-0.0666257
-0.353182
-0.028574
0.0165532
0.200843
-0.868651
0.320071
-2.00884
0.0569363
0.134921
-0.843946
-0.243633
-0.713396
0.0582895
-0.758089
-0.246913
-0.851799
0.230004
-2.90863
-0.849458
-0.760226
-1.6526
0.340115
-0.66417
-0.188447
-0.654296
-0.99362
-1.46784
-1.57974
-1.98648
-1.01535
-0.555952
-0.885312
-0.632698
0.158782
-0.598231
-0.12298
-0.725449
-1.28332
-0.476363
-0.898959
-0.404238
-1.26273
-0.0908798
0.396553
-0.35293
0.162621
0.237814
-1.52007
-0.971418
-0.495995
-1.49634
-0.72671
-1.32925
-1.53274
0.0234515
-0.107473
0.0329339
0.218342
-0.406544
-1.3476
-1.48075
-0.423536
-0.147589
-0.256828
-0.0455374
-0.249848
-0.599544
0.124205
-1.73078
-0.640423
-0.219569
-0.78368
-1.01993
0.00873279
-0.258288
-0.607412
-0.655411
0.771242
-0.0417688
0.0924996
-0.109621
0.309912
-0.333623
0.758154
0.0102511
0.583744
-0.879953
-0.162475
-0.268474
-0.417062
-1.07179
-0.329919
-0.868574
0.165209
0.208035
-0.433146
-0.962033
-1.16441
-0.32811
-0.411677
0.0890213
1.0627
1.0035
-0.380128
1.00957
-0.827689
0.198279
-1.20782
-0.259083
-1.04125
-0.645086
-0.489484
-0.0844128
-0.311968
0.467937
-0.397255
-0.53848
-0.899882
-0.560309
-0.268831
-0.644244
-0.348876
-0.700373
-0.930235
-0.786928
-0.283517
-0.362581
-0.226286
1.08365
0.773911
0.224974
-0.989294
0.0432393
-0.175317
0.756118
0.297049
-0.0670418
0.90261
-2.3026
-1.78542
-0.205511
-1.40624
0.163961
-0.577991
-0.33163
-0.579871
-1.72933
-0.945483
-0.0487153
-1.54473
-2.37667
-1.20018
-0.167329
-0.253838
-1.21284
-0.846243
-0.0371249
-0.670573
-1.62084
0.0193877
-1.58514
-0.183053
-0.119186
0.328087
0.840178
0.378395
-0.556443
-0.121222
-0.221749
-0.650057
-0.101188
-0.444456
0.0467844
-0.193582
0.00351762
-0.656854
-0.500403
-1.88763
-1.23831
0.0761024
-0.958295
-0.414937
0.264906
-0.348629
0.1889
-0.338059
-1.34334
-1.83878
-0.739301
-1.72391
-0.274341
-0.431494
-0.254456
-0.907192
0.112728
-0.763683
-0.544859
-0.804941
-1.06044
-0.342613
0.145672
-1.55644
0.31567
0.232966
-0.392734
-1.38482
-0.46719
-0.196536
-0.483317
-1.02151
0.169215
-1.755
-0.0468992
-0.304837
-0.290023
-0.818939
-0.259009
-1.09391
-1.15798
-0.99294
-1.03597
-0.38202
0.402545
0.164918
-1.00333
-0.334272
-0.803454
-0.764274
-0.565114
-0.292585
-0.767906
-1.44144
1.17585
-0.0104597
0.0813055
-0.493454
-0.452742
-0.516048
-0.13947
0.425413
-0.55619
-0.444034
-0.497018
-0.594787
-0.2447
-0.0783948
-0.669434
-0.440077
-0.793461
-1.4906
-0.415832
-0.564997
1.02973
-0.422362
-0.220273
-1.11828
-0.608227
-0.423717
-0.848184
-0.574825
-0.426288
-0.171972
-0.136104
-1.34489
-0.161484
-0.502665
-0.321751
-0.165268
-1.12151
0.238142
-0.721909
-0.521987
-0.365808
-0.573632
-0.257902
1.11954
0.580834
-0.584641
-0.0284864
-0.164487
-0.332428
-0.18653
-0.747411
0.679813
-0.209143
-0.00506599
-0.4724
-0.080122
-0.386731
0.104715
-0.912436
0.0823433
-0.0602564
-0.531856
1.66994
-0.268728
-0.0647832
0.442088
-2.06104
-0.688783
-0.643697
-0.0380643
0.0962715
0.226403
-0.818755
-0.380097
-1.19662
-2.04112
-1.92695
-1.84253
-1.65161
-1.92595
-0.0381556
-0.0970345
-1.49866
-0.430802
-1.18995
-2.32528
-0.545125
-0.726814
-0.391516
-0.349615
-0.380646
-0.197767
-1.11798
-0.936878
-1.08967
-0.491645
-1.23416
-1.83579
-0.973953
0.83945
-0.263769
0.0267749
-0.142875
-0.153475
-1.42769
-1.05945
-1.31506
-1.04762
-0.83323
-0.297505
-0.435887
0.271607
0.0515865
-0.438444
-0.746447
-1.24733
-0.629148
-0.699444
-0.756678
-0.626553
-0.641306
-0.492986
-1.21716
0.0130639
-0.652956
-0.961814
-1.18204
-0.761977
0.0407595
-0.697267
-0.640848
-0.654204
-0.722126
-1.22576
-0.759888
-1.05194
-0.490414
-0.0228812
0.314295
0.101669
0.144886
-0.260551
-0.0342916
-0.0849812
-1.52203
-0.912812
-1.17096
0.346522
-0.513551
-0.609074
-0.346063
0.553898
-0.662175
-0.124165
-1.08567
-1.4429
0.378644
0.418738
-0.609444
-0.721652
-0.633911
-0.202846
-0.549796
-0.402184
-0.926979
-0.729902
-0.891776
-0.346798
-0.662404
-0.210006
0.220878
0.210898
-1.56458
-0.555215
-0.126513
-0.272832
-0.73538
0.258575
-1.0958
0.524508
0.281121
-0.0987574
-0.082516
0.53345
-0.413087
-0.896068
-0.0627816
-0.734253
0.262897
-0.461424
-0.62628
-0.160401
-0.139651
-0.34201
-0.852784
-0.281268
0.161965
-0.910527
-0.0697489
-0.282146
0.253944
-0.313385
-0.871521
-0.24667
0.179691
0.348364
-0.362997
-0.687643
-0.111905
-0.869368
0.0201287
-0.370692
0.289797
-0.100835
1.16233
1.04471
0.0566045
-0.262678
0.0700031
-0.899126
-0.159751
-0.441003
0.303973
0.116215
0.114079
-0.49715
-2.40108
-0.845223
-0.754602
0.269687
-0.284723
-0.0541457
-1.31519
-0.179613
-0.274708
-0.21846
-1.40483
-1.70185
-0.99541
-0.388753
-0.603398
-0.911015
-0.286746
-0.00814489
-1.29892
-2.02936
-0.831625
0.0593251
-1.92314
0.189788
-0.567661
0.191709
-0.0843127
0.0235971
-0.384164
-0.324676
-0.69509
-1.28304
-0.152836
-0.363748
0.538296
-1.05955
-0.47868
-0.284032
-0.0349542
-0.826942
-0.493803
-1.85655
-0.662577
0.266251
-0.624989
-0.553957
-0.830964
-0.356285
-0.776004
-1.3906
-1.64108
-0.707435
0.306914
-1.93166
-0.579048
-1.44319
0.196656
-0.484656
-0.786221
-0.861974
-1.32533
-0.810997
-0.417754
-0.857133
-0.525032
1.03576
0.155761
-0.889249
-1.11157
-0.517645
-0.933118
-0.0284746
-0.512967
-1.58906
0.996332
0.169953
-0.27251
-1.17011
-0.493759
-0.77821
-0.739998
-0.415012
-0.709494
-0.0507253
-0.153582
0.397653
-0.476788
-1.09695
-0.0341805
-0.593857
-0.574207
-0.931032
-1.03028
-0.823575
-0.554775
0.352774
-1.00066
-1.1315
0.380868
-0.545283
-0.767749
-1.243
-1.03935
-0.629006
-0.473527
-0.858519
0.0389987
-0.184782
-0.952333
-0.21036
0.189615
-0.223352
-0.0212749
-0.35984
-0.103808
0.375875
0.244296
-0.161857
-0.548657
0.275094
-0.884704
0.494862
-0.614094
0.21257
-0.876368
0.655227
-0.123477
0.00527735
0.265242
0.0905929
-0.547136
-0.193754
0.680537
0.279312
-0.225228
0.0727054
0.403142
-0.084786
0.029801
-1.16549
0.693361
-0.207939
-0.0656092
-0.0555852
1.40974
-0.237206
0.182187
0.325744
-1.01251
0.00353264
-0.524608
-0.334001
-0.375186
1.0406
-0.275191
-0.254468
0.415401
0.160255
-0.974955
-0.551629
-1.45137
-1.28539
-0.684556
-0.145915
-0.425763
0.659427
0.122422
-1.10287
-1.33025
0.434253
-1.30281
-0.891745
-0.95297
-0.805178
-0.455673
-0.236245
-0.0700238
0.354105
0.0140758
-1.698
-1.13905
-0.904076
0.0980926
-1.36194
-0.696319
-0.0838216
-0.79186
-1.6489
-1.48978
-1.96349
-0.371837
-0.73682
-1.08394
-0.483438
-0.862977
0.245663
1.06272
-0.347632
-0.369307
-0.826592
-0.328208
-1.03241
-0.370724
-0.814477
0.771039
1.37455
-0.678296
-1.48659
-0.734743
-1.44443
-0.662508
-0.431088
-0.468946
0.0277293
0.778297
-0.679722
-0.176463
0.0837195
-0.373704
-1.08141
-1.1183
0.153593
-0.627369
0.754992
0.643055
0.942113
-0.377531
0.394107
-1.29772
-0.2208
-1.24775
0.477462
-0.975239
-0.787506
-0.532257
-0.439445
-0.515454
-0.484751
-0.0223505
-0.569802
-0.282
-0.678032
0.585854
0.262361
-0.210721
-0.180509
-1.33151
-0.0780671
-0.987923
0.0245935
-0.0123495
-1.07371
-0.241176
-0.503469
-0.0742745
0.107815
0.502545
-0.40384
-0.998288
-0.516096
0.721067
-0.41576
0.113228
-0.754028
0.661223
0.790997
-0.564377
-0.282556
-0.344105
0.0376748
-0.340819
-0.935585
0.145636
-1.00616
0.903049
-0.831221
-0.520491
0.165386
-0.858015
-1.15429
-0.817312
0.749451
-0.329411
0.594137
-0.718164
0.994063
0.0286883
-0.23648
-0.227393
0.2097
-0.25398
0.131106
-0.492303
0.0926883
-0.617679
0.0987768
0.502713
-0.15437
0.657564
-0.427343
-0.115693
0.122162
-0.766053
-0.240146
0.108081
-0.755216
-0.553249
0.00574778
0.0924933
-0.509567
0.0119798
0.493923
0.264695
-0.468112
0.241442
-0.297553
-0.137252
-0.280027
-0.182936
-0.477714
-0.880539
-1.4396
-1.21389
-0.214804
-0.26497
-0.24296
-0.525891
0.0430001
0.148652
0.152391
-0.891063
-1.67272
-0.119387
-0.58161
1.22955
-0.155949
0.464224
-0.266561
0.306791
-1.03844
-1.38674
-0.116316
-0.395104
-0.138991
-0.769754
0.116548
0.484406
-0.0160749
0.297499
-0.120052
0.704246
-0.00754078
-0.488652
-0.874741
-0.142846
0.238011
-0.415102
-0.691963
0.122098
-1.82852
-0.476359
-0.549761
-0.187334
-0.270818
0.174586
0.922618
-0.657074
0.114356
-0.221609
0.591889
-0.107693
-0.556145
0.323091
-1.13647
-0.578061
0.0806124
-0.605803
-0.197322
-0.970114
-1.22216
-0.168856
0.165006
0.116927
-0.369373
0.201776
-0.057528
0.01254
0.241596
0.595976
0.326325
-0.342305
-1.0912
0.733843
0.164837
0.437849
0.706244
0.384954
-0.113213
-0.542106
-0.703185
0.069977
-0.696922
-0.606839
0.270283
-0.574868
0.00329456
0.302382
-0.35107
-0.13428
-0.222696
-0.414408
-0.22506
0.800984
-0.499349
-0.148365
-0.643738
-0.797444
0.329672
0.443524
-0.407083
-0.66422
-0.296721
-0.258043
0.103192
-0.091319
0.45529
0.225717
1.04381
-1.28178
1.01051
-0.417136
-0.367841
-0.339356
0.125454
0.210679
-0.681261
-0.375185
0.620996
-0.502224
-0.582427
-0.312042
-0.251274
-0.384987
0.646949
0.255874
-0.171635
-0.925612
-0.592182
0.288105
0.302293
0.267676
0.364943
-0.821615
0.608532
-0.476666
0.577851
0.634796
0.506861
0.315919
-0.46197
-1.01384
-0.770678
-0.354149
-0.55626
0.115938
-0.285611
-0.562993
0.356071
-0.205806
-0.0221351
-0.690477
0.0705756
-0.246376
0.085595
1.03433
0.590005
0.167733
0.094621
-0.588811
-0.117678
-1.59623
-0.331721
0.944437
0.56591
0.0567098
0.209537
0.713429
0.480688
-0.228948
-1.16324
-0.921536
-0.108313
-0.189029
0.362791
-0.584713
-0.122311
0.532272
-0.589751
0.0346145
-2.00701
0.530381
-1.57553
-0.31138
-0.10976
0.172213
-0.174792
-0.689632
-0.0890784
0.442649
-1.17269
0.00428444
-0.964073
-0.481243
0.877231
0.536413
0.142026
0.723317
-0.478481
-1.03638
-0.451491
-1.07337
-0.776892
0.755688
0.207243
0.62753
0.0842047
0.0743453
-0.699983
0.118426
-0.0805904
-0.155301
0.0847291
0.596825
-0.332848
0.164104
-0.830539
0.812457
-0.0884771
0.31471
-0.564264
-0.640521
-0.209665
0.069344
0.294875
1.73603
-0.138141
0.406383
-0.125083
-0.531254
-0.104717
-0.271353
-1.13269
0.0506041
0.564067
-0.217243
1.16039
0.509958
-0.072679
0.421969
-0.759363
-0.886439
-0.556227
-0.208024
1.20929
0.13545
0.681352
-0.624582
0.624085
0.513154
0.642635
-0.185552
0.651562
-0.0231792
0.606421
-0.192976
-0.613036
0.970142
-0.535422
0.2925
-0.589979
-0.252407
0.325177
0.110137
-0.637428
-0.440381
0.823804
0.0335145
-0.00709039
0.268031
0.0702145
0.215086
-0.556664
-0.378499
0.261038
-0.780592
-0.437037
0.383283
0.138076
-1.12798
0.0185734
1.21111
-0.267484
0.455003
-0.0929148
0.0959893
0.965772
-0.764888
0.491412
0.41547
0.653789
-0.278432
0.0778506
0.239109
0.271555
0.0013608
0.479826
0.633036
0.0759978
-0.066298
-0.139255
-0.802395
-0.443268
-0.760881
0.702467
-0.305496
-0.169428
-0.615008
-0.401731
0.62535
-0.406913
0.230854
-0.0874691
-0.04598
-0.0578269
-0.11421
0.0155476
-0.441158
0.871037
0.795813
-1.28653
0.800847
-0.370895
-0.491454
1.53506
0.295466
0.982531
1.13009
0.684983
0.638937
-0.130467
0.647793
0.0600437
-0.304724
0.933262
-0.256901
1.32971
0.175999
1.46264
0.391459
-0.494756
-1.35253
0.150809
0.0600479
-0.172905
0.919367
0.270072
1.34262
0.304811
0.0329837
0.0556696
-0.115545
1.13242
-0.056228
1.56751
-0.318484
0.607105
-0.15484
0.151525
0.279202
-0.0160606
-0.319596
-0.3077
-1.09426
0.8933
1.38142
1.18747
-0.303963
0.969472
-0.239074
-0.187142
0.959754
-0.294645
0.192052
0.325191
0.840194
0.919604
0.775198
0.327003
0.067242
0.507525
-1.04642
0.224417
-0.282529
0.285815
0.794111
0.510349
1.06758
0.414207
-0.208364
0.360461
-0.785119
0.781177
-0.300848
0.619839
0.714235
0.211701
1.40066
0.494277
-0.132338
0.417215
0.0287743
-0.206906
0.522088
-0.145352
-0.347242
0.741257
0.354591
-0.0253315
0.720899
-0.680347
0.655717
0.00372791
0.253665
0.10528
1.31326
0.352156
0.0717236
1.35755
0.178334
0.560569
-1.32293
-0.121015
0.107265
-0.0546387
0.28618
1.15667
-0.379218
-0.322178
-0.514196
1.32227
-0.0224488
0.196721
0.561677
0.128073
-0.27284
0.363014
0.448333
-1.10826
0.468393
-0.765315
-0.267312
-1.56659
-0.50693
0.762364
-0.30595
-0.938815
-0.973737
-0.0425152
0.339665
0.352811
-0.106375
-0.4721
0.356479
0.76889
-0.470096
-0.499026
1.14441
-0.00687299
0.014065
-0.158022
-0.200658
-0.350191
-0.392576
0.525372
0.168872
-0.228442
0.161617
0.523682
-0.643401
0.40626
-0.683481
-0.267356
-0.652663
-0.120528
0.109505
0.155189
-0.0523448
0.492227
0.780016
0.0034295
0.638509
0.0548248
0.443929
1.05591
1.34552
1.05778
0.5899
1.57109
1.31588
1.06126
0.879493
0.880116
0.933103
0.672984
1.21108
0.743439
1.78859
0.994288
0.202955
0.280543
-1.07922
0.149711
0.32899
0.558636
0.478355
0.75491
0.728494
0.23973
-0.0153206
0.904995
0.417834
-0.454065
-0.175043
1.11566
1.40842
1.42877
1.66543
1.50085
1.71549
-0.304015
-0.160428
0.528967
0.260914
-0.0562443
1.05445
-0.97365
0.220765
0.9333
1.12743
-0.934018
0.289882
1.11787
-0.0259879
-0.581493
1.5386
0.317161
1.47799
0.293803
-0.109937
-0.37427
-1.2821
-0.296181
-0.545481
0.76823
0.0810159
1.04347
0.727696
0.752828
0.951156
0.70506
0.427561
0.178575
0.108742
1.52276
0.246793
0.591173
1.55111
0.511909
1.41726
0.810749
-0.368508
0.132068
-0.165968
0.551171
0.608847
0.915867
0.649923
1.03173
0.311883
0.87834
0.501288
-0.224717
-0.912309
1.11849
1.73546
-0.14823
1.0697
0.98897
0.599305
-0.206987
0.287024
-0.135728
0.124276
0.622538
-0.201428
0.957826
0.53137
0.694846
0.473494
0.93057
0.264275
-0.770231
-0.242816
0.256967
0.393519
0.85021
-0.11586
0.483687
0.040358
0.0420864
0.0695791
0.839196
-0.616187
-0.00417385
0.372754
-0.363614
0.483435
-0.115704
-0.156346
1.648
-0.159971
0.621526
0.278747
0.361777
-0.537918
-0.0145634
0.22379
0.653752
0.1076
-0.600979
-0.323066
0.019702
0.575979
0.198018
-0.268191
-0.585441
0.0634171
0.379534
-0.643554
0.324933
-0.395423
-0.728818
-0.0093094
0.214337
-0.151715
-0.50365
1.01703
-0.185319
-0.189202
-0.112576
0.121785
0.725486
0.984888
0.546776
1.09977
0.987805
1.12336
2.38158
1.1289
1.57872
1.38646
1.60369
1.11768
1.20024
1.0168
1.79174
1.81091
2.05732
0.878847
0.213131
-0.949242
0.0950654
0.628371
0.201257
1.88636
0.0807359
2.1056
0.256357
1.12831
0.0934327
0.0210595
1.66642
-0.0411862
1.34853
0.061347
1.9394
0.201616
1.82064
-0.0503109
0.898604
1.51
0.467559
-0.36546
0.33111
0.769287
1.62083
0.643017
1.35989
1.54538
0.310601
1.33028
1.4093
1.03422
0.603791
1.37018
1.33232
0.680219
0.961031
1.7281
0.242044
0.678085
0.271272
1.28431
0.711466
2.02407
-0.514172
1.45254
1.22344
0.838976
0.50987
1.16281
0.342687
1.32654
0.292019
0.417621
0.999651
2.1489
1.18909
0.262579
1.12711
-0.0241143
-0.0604099
1.16564
0.405145
0.261502
2.07017
1.1977
0.0883186
1.05774
0.251566
2.38768
0.735991
1.21803
0.318256
0.871653
1.05696
-0.476579
0.101483
-0.134464
0.505252
-0.981966
-0.709615
0.45331
0.933576
0.445712
0.3112
0.359113
1.30097
1.24746
-0.359454
-0.118625
0.853354
0.110766
0.460924
0.766772
0.944119
0.903861
0.459891
0.561464
-0.307373
-0.372689
-0.439499
-0.129527
0.156148
-0.643345
-0.210354
0.28116
0.960356
0.999049
0.490513
1.00828
0.444492
-1.03804
-0.413853
0.300422
-0.24535
0.542173
0.344651
0.0233949
0.231443
-0.33544
0.508149
0.715517
-0.954795
0.0260499
0.947889
0.0050684
0.1478
0.153316
-0.340198
0.296359
0.0739444
0.205218
-0.775188
-0.998912
0.378173
0.288835
-0.264331
-0.654862
-0.48131
0.410187
0.269496
0.645555
1.16342
0.875984
3.12343
2.33629
1.84213
1.38108
2.81364
1.7418
1.48617
1.47948
1.51584
1.61204
2.38777
1.70656
1.00533
1.14287
0.656285
0.5224
0.402812
-0.0233337
1.27476
-0.142916
1.33251
1.7981
2.32453
1.81578
2.18336
1.78529
1.32008
1.61797
1.1117
1.26871
1.96109
1.32899
0.63426
2.0849
1.28307
0.57011
0.427765
0.914267
1.59128
1.17838
1.60611
2.24847
2.18923
0.371059
2.10765
2.33823
1.0268
1.1635
1.4372
0.721941
0.631824
1.68514
1.06215
0.716757
1.49331
-0.340746
0.795683
0.861405
1.63855
0.258409
1.02498
1.49245
0.794713
0.645842
0.749619
1.11069
1.62355
0.782834
0.789856
0.211965
1.24177
1.23537
1.24771
0.87223
0.0756865
0.322914
-0.402751