/*--------------------------------*- C++ -*----------------------------------*\
| =========                 |                                                 |
| \\      /  F ield         | OpenFOAM: The Open Source CFD Toolbox           |
|  \\    /   O peration     | Version:  2212                                  |
|   \\  /    A nd           | Website:  www.openfoam.com                      |
|    \\/     M anipulation  |                                                 |
\*---------------------------------------------------------------------------*/
FoamFile
{
    version     2.0;
    format      ascii;
    arch        "LSB;label=32;scalar=64";
    class       volScalarField;
    location    "0";
    object      relativeErrorField;
}
// * * * * * * * * * * * * * * * * * * * * * * * * * * * * * * * * * * * * * //

dimensions      [0 0 0 1 0 0 0];

internalField   nonuniform List<scalar> 
3200
(
0.00357065
0.000936054
0.000351515
0.00423494
0.00756607
0.00283266
0.00307665
0.00733259
0.00468228
0.00472187
0.00543104
0.00390086
0.00370618
0.00577267
0.00350843
0.0051568
0.00276753
0.000887534
0.00319481
0.00146578
0.00143012
0.000505213
0.00318435
0.00159891
0.000648434
0.00463437
0.00196668
0.00296678
0.00462248
0.00782804
0.00569677
0.00286536
0.00828822
0.0046593
0.0019654
0.00165741
0.00217142
0.000365047
0.00163484
0.00571844
0.00335145
0.000182858
0.00163835
0.00511632
0.00416179
0.00668486
0.00553653
0.00408974
0.00481139
0.00718826
0.00386024
0.00200132
0.0058666
0.00339017
0.00313677
0.000911233
0.00610829
7.10387e-05
0.000573861
0.00447031
0.000406077
0.00341951
0.00244407
0.00235821
0.00328057
0.00264381
0.00596112
0.000491004
0.00219
0.00292775
0.0019508
0.00496782
0.000415528
0.00341861
0.00472309
0.00131652
0.000412348
0.00155827
0.000356741
0.00181791
0.0045722
0.00168857
0.00158141
0.00224952
0.00136581
0.00485785
0.0031089
0.000259132
0.00632048
0.00222158
0.00186751
0.00213066
0.00297077
0.00113373
0.000890778
0.00471194
0.00165618
0.000605134
0.000164913
0.00445011
0.00217193
0.000876177
0.000210363
0.000663353
0.0013032
0.00348253
0.00132154
0.0021433
0.00423361
0.00188043
0.00252904
0.00551192
0.00457836
0.00255581
0.000954385
4.98683e-05
0.00125474
0.0014719
0.00131925
0.00103506
0.00169346
0.0017915
0.00177817
0.00153242
0.00170793
0.000219349
0.000185794
0.00213657
0.000106837
0.000766485
0.00304733
0.00135962
0.00158043
0.00265627
5.73224e-05
0.000170084
0.000620886
0.000170019
0.000515056
1.46801e-05
0.00449259
0.000135558
0.00176523
0.000601972
0.000553075
0.000116598
0.00183577
0.00283253
0.000300248
0.00307166
0.00129173
0.000474059
0.000649381
0.000646762
0.000199016
0.00318957
0.00248427
0.0013245
0.00159277
0.000636271
0.0041388
0.0014773
0.00304344
0.000213762
0.00547589
0.00821779
0.00644514
0.0071943
0.00205792
0.00426649
0.00407758
0.00379413
0.00636876
0.000935291
0.00344134
0.002903
0.00176998
0.00197507
0.00176586
0.00111301
0.00439139
0.000565042
0.00140649
0.0012481
0.00204368
0.00041501
0.00614008
0.000684815
0.00371451
0.000322902
0.00055876
0.000161142
0.000905209
0.00167261
0.000333746
0.00403827
0.000649109
0.00268739
0.000156297
0.00139736
0.00213286
0.00267905
4.21706e-05
0.0024927
0.0034419
0.00639295
0.0055512
0.000991713
0.000633601
0.00470633
0.000950989
0.00246536
0.000753969
0.00240452
0.0010147
0.000994493
0.00161824
0.00260694
0.00208499
0.00218999
0.00173861
0.000171376
0.00352737
0.00400476
0.00432011
0.00186997
0.00544401
0.00435872
0.00171217
0.00413786
0.00174944
0.00351152
0.00104979
0.0059188
0.000593133
0.00236564
0.00429182
0.00320581
0.00207734
0.00132206
0.00140428
0.00186243
0.00225425
0.00105527
0.000770066
0.00465512
0.000563486
0.000316434
9.21047e-05
0.00117828
0.000326322
0.00190546
0.00162527
0.00297383
0.00141153
0.00217472
0.00385648
0.00214921
0.000714841
0.00258676
1.04941e-05
0.00162569
0.00145149
0.00202243
0.00066633
0.00166255
0.00127886
0.00196309
0.00240686
0.00362554
0.0042968
0.000854777
0.00154637
0.00198421
0.000513443
0.00102454
0.00259262
0.0024688
0.000914487
0.00297455
0.00345494
0.002242
0.0021334
0.000168251
0.000509259
0.00389981
0.000697867
0.00273709
0.000353194
0.00169206
0.0070196
0.00104591
0.00230194
0.00381393
6.00208e-05
0.000217722
0.00389461
0.00122778
0.00179708
0.0011071
0.00131356
0.00379955
0.001986
0.000663806
0.00144879
0.000904748
0.000206606
0.00169827
0.000347798
0.002764
0.000243221
0.00187486
0.00477598
0.00196102
0.00185363
0.00147242
0.000311289
0.000706682
0.00188796
0.00115544
0.00411665
0.00115464
0.00317711
0.0033603
0.0067246
0.00398307
0.000811536
0.00721656
0.00637211
0.00626894
0.00275308
0.00501525
0.00338197
0.00281598
0.00365808
0.00194677
0.00197944
7.83392e-05
4.56211e-05
0.00390081
0.00149337
0.000316754
0.00227585
0.00296739
2.81904e-05
0.0019837
0.00340809
0.00338682
0.00139063
0.00360824
0.00187607
0.00026615
0.00186066
0.00197848
0.0010181
0.000787001
0.00274884
0.00152224
0.000404964
0.00130228
0.00386771
0.000909742
0.00135195
0.000946386
0.00089182
0.00320099
0.00142578
0.00315465
0.00339608
0.0023853
0.00371589
0.00323523
0.000186166
0.000162387
0.00101311
0.0044823
0.000642732
0.000457462
0.000554125
0.00221503
0.00320079
0.000415449
0.00112497
0.00132172
0.000449446
0.00459591
0.0015761
0.0038629
0.00374351
0.000893888
0.00185212
0.00105562
0.00440502
0.00458431
0.00210596
0.00219025
0.00142802
0.00281948
0.00114499
0.00174397
0.00123823
0.000219545
0.00124145
0.00146171
0.00102895
0.00420711
0.00188813
0.00156761
0.00524302
0.00142337
0.00384833
0.00237325
0.00151264
0.000505163
0.00185663
0.00174653
0.00549293
0.00243961
0.00090094
0.00512801
0.00363503
0.00192523
0.000904025
0.000927887
0.00260516
0.0030519
0.000543068
0.000465679
0.00100114
0.00127243
0.000275285
0.000869242
0.000387104
0.00198118
0.00259007
0.0018419
0.000634833
0.00271068
0.000178401
2.57257e-05
0.00114009
0.00152964
0.00161042
0.00161656
8.0276e-05
0.00222421
0.00197069
0.000398548
0.000566488
0.000929868
0.00148042
0.000613977
0.000127817
0.00370815
0.000236539
0.00109347
0.000811408
0.000811166
0.00115848
0.0044458
0.000727979
0.00269402
0.00193046
0.000769879
0.0016035
0.000529325
0.00104234
0.000741014
0.000807192
0.00121009
0.000995957
0.00131079
0.00102655
0.00121993
0.00176406
0.000264496
0.00199962
0.00124725
0.00238584
0.00198185
0.00280953
0.00144177
0.000141673
0.00337512
0.00483731
0.00379106
0.00281853
0.00323961
0.00338858
0.000563261
0.00503899
0.00296293
0.00204827
3.65576e-05
0.0016946
0.00110258
0.00176229
0.00391099
0.000630251
0.00510239
0.000815759
0.00103169
0.00132398
0.000644376
0.00122288
0.000607763
0.00291727
0.000440857
0.00139968
0.000192107
0.000364207
0.00057248
4.93119e-05
0.001294
0.00113682
0.0039189
0.000105978
0.00117437
0.0016867
0.00522306
0.00332153
0.00226607
0.00332932
0.0025803
0.00237399
0.003606
0.000992198
0.0018919
0.000587716
0.00194478
0.00307365
0.0039057
0.000675729
0.00245642
0.00613439
0.00339366
0.000366474
0.00167518
0.000964298
0.00252442
0.00138375
0.00200159
0.00406138
0.00334051
0.00349705
0.00216096
0.00160462
0.00186767
0.00326948
0.0006984
0.00087867
1.98076e-05
0.00476733
0.00112867
0.00199072
0.0039707
0.0012612
0.00092738
0.00261735
0.00340636
0.00128221
0.00412747
0.00260106
0.00290272
0.00157398
0.00625191
0.00368594
0.00240644
0.00390827
0.00106489
0.00455823
0.00269352
1.23581e-05
0.000521897
0.00103063
0.00291253
6.26787e-06
0.00339387
0.00130809
0.00142589
0.000675965
0.00355461
0.000837291
0.00125236
0.00142522
0.00143886
0.00208215
0.00208597
0.00308637
3.51496e-05
0.00338582
0.00293581
5.67522e-05
0.00110123
0.00161247
0.00173366
0.000290822
0.00372251
0.00346687
0.00151298
0.00194773
0.00082633
0.000221545
0.000407955
0.000162232
0.000927404
0.00104324
0.0010291
0.00309211
0.0014691
0.0019656
7.98618e-05
0.00248907
0.00259766
0.000667511
0.00427584
0.000560459
0.00279083
0.000619545
0.00175342
0.00121283
0.00345568
0.00168914
0.000559957
0.0013605
0.00240113
0.000719274
0.00463351
0.00113471
0.00203539
0.00107893
0.000659088
0.00193456
0.00145522
0.00123502
0.00211141
0.000234336
0.00105089
0.000224249
0.00131726
0.00393106
0.0033402
0.000279153
0.000580562
0.0057426
0.00226027
0.00246679
0.000528499
0.00117295
0.00185882
0.00089462
0.00161045
0.00079524
0.00128089
0.000107184
0.000255582
0.00346051
0.00192368
0.00259195
0.00416826
0.00113656
0.00189041
0.0013477
0.00126201
4.11442e-05
0.003644
0.00373817
0.0044704
0.00397826
0.00391229
0.00213969
0.00272464
0.000658671
0.000641532
0.0025217
0.000549281
0.00139141
0.00114506
0.00162435
0.00404594
0.00238653
0.00181655
0.000161801
0.00134903
0.00279182
0.00196181
0.00134781
0.00344057
0.00193484
0.00216082
0.00504298
0.00163167
0.00203792
0.00105891
0.00273218
0.00063586
0.00220005
0.00143802
0.00112004
0.00413984
0.0013151
0.00217817
0.000263065
0.00251253
0.00527613
0.00278824
0.000223912
0.000284119
0.00199084
0.0022864
0.00419956
0.00213126
0.0010731
0.000835732
0.00405966
0.0017503
0.000533195
0.00217771
9.42693e-05
0.00180601
0.00301519
0.000136437
0.00365134
0.00199603
0.00224669
0.00226536
0.0042286
0.00210369
0.000696443
0.00253744
0.000410562
0.000235814
0.0021834
0.000545014
0.00335536
0.00136472
0.000422191
0.00065577
9.33636e-05
0.000688096
0.00228281
0.0017827
0.000538471
0.00257893
0.00274325
0.000803948
5.99718e-05
0.000921248
0.00280022
0.00158961
0.00137127
0.000505232
0.00369732
0.00241885
0.000563778
0.00255179
0.00110016
0.00124296
0.00135243
0.000924328
0.00320528
0.00192096
0.00325194
0.00207111
0.00341299
0.00180084
0.0016186
0.00389298
0.000510136
0.000822831
0.000105635
0.00150739
2.81452e-05
0.00129074
0.000301312
0.000825407
0.00171784
0.0012492
0.001823
0.000443188
0.000244525
0.00281027
0.00196637
0.00106296
0.00247439
0.00141105
0.0041881
0.00205632
0.0015652
0.00186321
0.00208149
0.000877028
0.000427146
0.000382706
0.00152482
0.00190759
0.000205136
0.00191823
0.00313014
0.000533487
0.00514555
0.0014112
0.00152955
0.00394041
0.00271788
8.11266e-06
0.00129547
0.000562898
0.00391725
0.000727315
0.00109825
0.0035475
0.00112525
0.00128665
0.00193343
0.000539933
0.00202622
0.00132165
0.00331872
0.00188248
0.00469585
3.40449e-05
0.000222308
0.00107419
0.00146594
0.000943189
0.000552942
4.32382e-05
0.00293037
8.13049e-05
0.000215796
0.00281513
6.88543e-05
0.00180937
5.71221e-05
7.73775e-05
0.000388292
0.000142718
0.000906986
0.00270019
0.00235612
0.00293895
0.00403501
0.000947567
0.00198777
0.00489222
0.000266702
0.00194244
0.000727683
0.000120259
0.00305612
0.00239345
0.00170005
0.0011725
0.00170322
0.000730006
0.00069578
0.00103763
0.0053357
0.00105977
0.000995685
0.00139218
0.00207944
0.00470429
0.00329772
0.00093042
0.00225596
0.000394826
0.000837969
0.00223588
0.000854676
0.000103825
0.000914656
0.00357195
0.000316721
0.00277052
0.00146964
0.0016618
0.000923486
0.00503294
0.00368792
0.00182667
0.00143761
0.00204543
0.00104512
0.00222507
0.00417204
0.00286656
0.00116215
0.00144248
0.00370945
0.00122436
0.00187417
0.000358992
0.00253615
0.000398303
0.00167321
0.00267093
0.00175648
9.98208e-05
0.00191671
0.000407012
0.000200507
0.00240236
0.000687734
0.00292423
0.000876081
0.00190308
0.00022731
0.000959863
0.000689708
0.000154684
0.00257365
0.00296783
0.000540696
0.00260794
8.9086e-05
0.00149343
0.00262176
0.00121369
0.00236028
0.000474557
0.00133627
0.000965621
0.00298183
0.0014367
0.00187929
0.00220591
0.00113943
0.00218254
2.60987e-06
0.000934301
0.00152695
8.46113e-05
0.000573055
0.00237185
0.00295833
0.00156304
0.00282396
0.0023375
0.00067467
0.00222421
0.00232103
0.00172542
8.32971e-06
0.00161443
0.000530077
0.000401898
0.000456905
0.00012665
0.000856382
0.00230319
0.00123497
0.00236875
0.00227468
0.00259308
0.00200099
0.000984061
0.00184291
0.000792083
0.00401811
0.00284574
0.0023089
0.00106472
0.00153855
0.00139604
0.000196377
0.000676625
0.000328868
0.00307175
0.00195737
0.00232784
0.000822993
0.000897479
0.00160696
0.00011111
0.00143449
0.000749726
0.00121045
0.00320679
0.0026662
2.29732e-05
0.00145216
0.00262039
0.00242313
0.00233816
0.00234195
0.00114463
0.000652204
0.00216129
0.00303397
0.00248129
0.00216691
0.000322131
0.00244221
0.00199968
0.000865588
0.00228581
0.00120743
0.00145726
0.00346652
0.00278597
0.000611185
0.0010428
0.00094621
0.00139649
0.000581099
0.00367332
0.000375954
0.000667977
0.00109321
0.00201774
0.00223658
0.000827439
0.00058117
0.00552303
0.000248944
0.00167054
0.00402938
0.00536083
0.00108862
0.00182805
0.00143224
0.00315049
0.000363135
0.0012299
0.000648501
0.00021346
0.000154107
0.00245024
0.00291753
0.00214926
0.0011145
0.000475664
0.000726959
0.00208974
0.000440042
0.000826767
0.000766611
0.00141157
0.00289989
0.00212629
0.000708092
0.00160754
0.00194743
0.00202969
0.00151935
0.00335032
0.000694648
0.00146558
0.00151027
0.000420858
0.000218817
0.000365636
0.00128935
0.00174231
0.0026436
0.00195444
0.00295456
0.00187219
0.00113329
0.00129175
0.00143186
0.00293802
0.00119896
0.000277844
0.00349435
0.00211764
0.000286137
0.000945623
0.00238556
0.000599862
0.000936715
0.00266469
0.00322311
0.00100677
0.00187454
0.00234341
0.00471577
0.0015674
0.00251414
2.91988e-06
0.00148625
0.00109639
0.00297365
0.00162585
0.000805943
0.000752228
0.0021126
0.000436282
0.00223229
0.0016249
0.00176709
0.000293652
0.00125868
0.00310206
0.000464364
0.00127258
0.000657451
0.00157334
0.00153987
0.000900696
0.000916711
0.00147553
0.00145466
0.0021586
0.00231745
0.000457219
0.0016708
0.00184678
0.0015475
0.000170572
6.86096e-05
0.00313845
0.000109382
0.00310974
0.000717709
0.000928335
0.000204392
0.0048722
0.00730413
0.00221453
0.00134882
0.0034669
0.00043628
0.00120345
0.00324978
0.0014193
0.00433276
0.00380577
0.000539865
0.00385363
0.00246871
0.00153911
6.08003e-05
0.00242556
0.000774715
0.00234447
0.00488912
0.00612903
0.00286987
0.000307754
0.00185789
0.000220732
0.000102356
0.000990506
0.00145447
7.97414e-05
0.00102538
0.000183457
0.00013951
0.00155272
0.00118087
0.00377247
2.45551e-05
7.56432e-05
9.1199e-05
0.00227148
7.61721e-05
0.00154286
0.00610981
0.0023429
0.00220312
0.000607804
5.47641e-05
0.00146701
0.000951957
0.00183746
0.000298029
0.000645884
0.00066729
0.00069548
0.00518681
0.00431674
0.00330336
0.000342255
0.00457578
1.93117e-05
0.0038228
0.004162
0.000528817
0.00452185
0.00252781
0.000610615
0.00182204
0.00160691
0.00119871
0.00141573
0.00270493
0.00217965
0.00189119
0.00175629
0.00266145
0.00282513
0.00349261
0.000339334
0.00152852
0.00156785
0.00453465
0.00126036
0.00174801
0.000807586
0.00313955
0.000419679
0.000519825
0.00136247
9.55551e-05
0.000179714
0.000328156
0.0018433
0.00226716
0.00333349
0.0035345
0.000360753
0.000201938
0.00119987
0.0032233
0.0025924
0.000161037
0.00246333
0.00365152
0.000362593
0.000764127
0.00263511
0.000496097
0.00272472
0.00582907
0.00218054
0.00118462
0.001105
0.001033
0.00200121
0.0050046
0.0024485
0.000892051
0.000740684
0.0012305
0.000312986
0.00382974
0.004006
0.000562993
0.000543208
0.00013356
0.00121714
0.00152884
0.00254944
0.00100206
0.000101128
0.000985416
0.00131412
0.00101637
0.00146466
0.00112703
0.00018441
0.00232612
0.0026132
0.00123003
0.000615916
0.00371955
0.00088963
0.000886637
0.00242333
0.00226701
0.000854617
0.000491504
0.002554
0.0019273
0.000495885
0.00166234
0.00307403
0.003226
0.00316969
0.000134605
0.00183605
0.000666728
0.00167197
0.000801615
0.00237649
0.00164041
0.00323113
0.00406425
0.00322065
0.000872139
0.00185338
0.00188748
0.00285312
0.00157385
0.000906295
0.000186754
0.0028712
0.00377815
0.00289582
0.00460698
0.000675497
0.0024998
0.000487365
0.000959782
0.00183476
0.00307087
0.00643593
0.00455307
0.00098472
0.000600112
0.000253027
0.00231417
0.00184749
0.00214322
8.05929e-05
0.00474423
0.000676797
0.00233292
0.00437014
0.0033434
0.00134824
0.0025349
0.00293183
0.00130844
0.00185004
0.00257003
0.00141662
0.00459866
0.00318677
0.0042316
1.8912e-05
0.000245408
0.00235959
0.00306076
0.00203799
0.00220891
0.00339279
0.00169115
0.00391201
0.00205431
0.000700517
0.000875467
0.000887341
0.00260884
0.0020259
0.00290761
0.0046241
0.00198573
0.00241887
0.000271826
0.00122879
0.00187501
0.00066124
0.00346949
4.93727e-05
0.00249694
0.000602397
0.00107333
0.00384952
0.00063831
0.00150983
0.00345522
0.000210671
0.00214579
0.00392691
0.00461791
0.00402241
0.00339253
0.00471337
0.00281509
0.000257143
0.000414473
0.00244391
0.00237395
0.00114185
0.000577989
0.000487255
0.00217083
0.00171781
0.00185152
0.000771293
0.00189904
0.00126333
0.0025918
0.00350261
0.00302514
0.000608177
0.00432889
0.00183889
4.50597e-05
0.00409769
0.00160722
0.00045237
0.000979114
0.00104623
0.00155423
0.00351935
0.00211541
0.00310157
0.00250044
0.000285875
0.00195774
0.00160368
0.0011483
0.00212038
0.000722597
0.00229848
0.000830903
0.0003946
0.000616398
0.00260528
0.00106869
0.00326425
0.00216041
0.00103235
0.00154492
0.00431842
0.00238886
0.000392607
0.0055801
0.000172858
5.50306e-05
0.00143842
0.00214173
0.00128416
0.00261108
0.000311268
0.00105856
0.00186859
0.00340504
0.000133497
0.000909246
0.00221656
0.000456388
0.00200248
0.000432762
0.00145642
0.000523807
0.00181329
0.00178706
0.00194179
0.00210069
0.000112514
0.000876742
0.00399594
0.000531436
0.0015782
0.00494222
0.00625816
0.00226037
0.00310575
0.00248651
0.000816552
0.00162889
0.00197258
0.0036424
0.00458397
0.00426449
0.00521535
0.00329004
0.00265016
0.00306135
0.00371322
0.00254004
0.000288389
0.0064029
0.00595269
0.00574988
0.000209015
0.00110704
8.94827e-05
5.17909e-05
0.000627847
0.00271335
0.000999149
0.00626802
0.000177611
0.000420883
0.0026333
0.000760537
0.00222839
0.000182216
0.00237188
0.000773237
0.00266994
0.000721559
0.00913102
0.00269074
0.00240672
0.00522798
0.00107512
0.00209783
0.000594786
0.00206375
0.00313232
0.00462549
0.00497707
0.00625855
0.0031996
0.0017526
0.00279241
0.00199695
0.000501525
0.00189103
0.000389047
0.00229662
0.00406503
0.00152267
0.00287215
0.00129075
0.00402938
0.000289812
0.00126382
0.00112418
0.000517757
0.000756915
0.00483731
0.00309132
0.00157866
0.00476409
0.00231477
0.00423633
0.00488785
7.48337e-05
0.000343166
0.000105223
0.000697916
0.00131144
0.00434559
0.00477271
0.00136444
0.000475224
0.000826569
0.000146494
0.000803476
0.00192757
0.000399272
0.0055638
0.00205899
0.000706104
0.00252109
0.0032825
2.81189e-05
0.000832086
0.00195779
0.00211349
0.00248789
0.00013599
0.000301082
0.000356692
0.00100804
0.00108477
0.00246427
3.33095e-05
0.00189631
0.00285803
0.000527657
0.000871903
0.00135459
0.00348174
0.00107202
0.00282318
0.000537177
0.000676672
0.00140939
0.00313137
0.00379106
0.00107827
0.00135269
0.000292447
0.00349035
0.00329518
0.00124796
0.00331378
0.00271637
0.000650654
0.00396326
0.000850136
0.00341686
0.00211709
0.00160667
0.000277127
0.0010244
0.0015369
0.00130504
0.00176934
0.00295729
0.00185878
0.00089178
0.00213697
0.00115714
0.00232281
0.00308493
0.00260952
0.000940115
0.00120224
0.000750301
0.00359309
0.00256612
0.000745991
0.00328058
0.000143394
0.000581443
0.00250787
0.000985314
0.000222394
0.00299434
0.00715166
0.00554126
0.000637244
0.00435622
0.000507432
0.00178716
0.00102458
0.00179034
0.00533673
0.00291707
0.0001503
0.00476707
0.00733791
0.00370796
0.000517386
0.000785583
0.00375712
0.00262401
0.000115221
0.00208274
0.00508031
6.07299e-05
0.0049613
0.000572453
0.000372414
0.00102434
0.00262132
0.00117989
0.00173436
0.000377753
0.000691013
0.00202614
0.00031552
0.00138668
0.000146069
0.000604874
1.10005e-05
0.00205588
0.00156746
0.00591655
0.00391722
0.000240613
0.00302779
0.00131007
0.000835784
0.00109919
0.000595222
0.00106469
0.00422927
0.00578801
0.00232713
0.00542743
0.000864018
0.00135963
0.000802274
0.00286221
0.000355914
0.0024129
0.00172268
0.00254632
0.00338591
0.00109347
0.000464661
0.00496173
0.00100572
0.000741813
0.00124993
0.00440554
0.00148585
0.000624967
0.00153691
0.0032488
0.000538326
0.00558551
0.000149337
0.000971209
0.000924558
0.00261223
0.000826642
0.00349275
0.00373221
0.00319922
0.00333641
0.00122975
0.00129522
0.000530403
0.00322561
0.00107431
0.0025816
0.00245542
0.00181557
0.000940115
0.00246795
0.00463409
0.00378173
3.36549e-05
0.000261728
0.0015892
0.00145872
0.00166325
0.000453802
0.00138386
0.00180871
0.0014435
0.0016152
0.00193231
0.000794742
0.000254554
0.00217335
0.0014286
0.00257578
0.00483931
0.00135024
0.00183501
0.00334534
0.00137259
0.000716079
0.0036366
0.00197855
0.00137867
0.00278634
0.00188807
0.00139992
0.000564637
0.000446781
0.00441392
0.000529901
0.00164923
0.00105555
0.000542159
0.0036791
0.000781261
0.00236857
0.00171287
0.00120058
0.00188303
0.00084677
0.00367654
0.00190781
0.00192058
9.44892e-05
0.000545578
0.00110254
0.000618609
0.00247854
0.00225422
0.000693467
1.67968e-05
0.00156623
0.000265639
0.00128218
0.000347182
0.00302527
0.000273031
0.000199807
0.00176372
0.00553819
0.000891268
0.000214875
0.0014664
0.00638863
0.00213357
0.00199222
0.000117703
0.000297433
0.000698901
0.00252562
0.00117179
0.00368747
0.00628843
0.0059367
0.00567785
0.00509169
0.00594099
0.000117785
0.00029979
0.00463418
0.00133332
0.003686
0.00720772
0.00170565
0.00227281
0.0012234
0.00109162
0.0011876
0.000616578
0.0034833
0.00291751
0.00339206
0.00153016
0.0038411
0.00571467
0.00303297
0.00261549
0.000822355
8.35366e-05
0.000446104
0.000479574
0.00446452
0.00331495
0.00415385
0.00330748
0.00262896
0.00093805
0.00137347
0.000855301
0.000162359
0.00137931
0.00234751
0.00392212
0.00197829
0.00219969
0.00238044
0.00197196
0.0020195
0.00155339
0.00383777
4.12186e-05
0.00206146
0.00303806
0.00376954
0.00242899
0.000129864
0.00222034
0.00203958
0.00208103
0.00229604
0.00389594
0.00241459
0.00334215
0.00155811
7.27063e-05
0.000998952
0.000323263
0.000460882
0.000829237
0.000109196
0.000270758
0.00485184
0.00291097
0.00377044
0.00111544
0.00165243
0.00195895
0.00111256
0.00178001
0.00212722
0.00039876
0.00348595
0.00463247
0.00121565
0.00134451
0.00195725
0.00231828
0.00203715
0.000652128
0.00176829
0.00129409
0.0029839
0.00235025
0.00289961
0.00112737
0.0021527
0.000682273
0.000717375
0.000684763
0.00507872
0.00180188
0.000410523
0.000885242
0.00238605
0.00083905
0.0035563
0.00170258
0.00091277
0.000320747
0.000268081
0.00173363
0.00134286
0.00291357
0.000206156
0.00241074
0.000863005
0.00151442
0.0020551
0.000526254
0.000458105
0.00112177
0.00279683
0.000922414
0.000531161
0.00298621
0.000228772
0.00092554
0.000833159
0.00102835
0.00286038
0.000809738
0.00058997
0.00114392
0.00120389
0.00228048
0.000371097
0.0028828
6.67418e-05
0.00122905
0.00096079
0.000334293
0.00385329
0.0034633
0.000187649
0.000870815
0.000232077
0.00298095
0.000529663
0.00146226
0.00100797
0.000385389
0.000378329
0.00164881
0.00742635
0.00261254
0.00233062
0.000832262
0.000877962
0.000166837
0.00404975
0.000552772
0.00084511
0.000671936
0.00432096
0.00523556
0.00306344
0.00119706
0.00185922
0.00280917
0.000884905
2.51558e-05
0.00401491
0.00627666
0.0025971
0.000185167
0.00599847
0.000591545
0.00176809
0.000596727
0.000262286
7.33726e-05
0.00119412
0.00100904
0.00216022
0.00398815
0.000475229
0.00113157
0.00167554
0.00330017
0.00149199
0.000885926
0.0001091
0.00258247
0.00155721
0.00585198
0.00208729
0.000838247
0.0019665
0.00174203
0.00261183
0.0011194
0.00243741
0.00436721
0.00515383
0.00222204
0.000964284
0.00607147
0.00182093
0.00454095
0.000619139
0.00152679
0.00247823
0.00271824
0.00422078
0.00258183
0.0013293
0.00272604
0.00166899
0.003291
0.000494707
0.00282338
0.00352841
0.00164295
0.00296161
9.03859e-05
0.00162868
0.00504697
0.00316572
0.000540255
0.000866697
0.00372331
0.00157189
0.00247837
0.00238023
0.00133452
0.00228061
0.000162988
0.000493292
0.00127675
0.00153035
0.00351995
0.00010966
0.00190507
0.00184203
0.002987
0.00330603
0.00264343
0.00178123
0.00113308
0.00321526
0.0036371
0.00122473
0.00175393
0.00249443
0.0040377
0.00337527
0.0020421
0.0015369
0.00278572
0.000126513
0.000599325
0.00308841
0.000682149
0.000614877
0.00072433
6.90035e-05
0.00116733
0.000336835
0.00121996
0.00079312
0.000525628
0.00178223
0.000893785
0.00290374
0.00162402
0.00201498
0.000697368
0.00287457
0.00214887
0.000404897
1.73031e-05
0.000869588
0.000296994
0.0017937
0.000635218
0.00223131
0.000915899
0.000738654
0.000238481
0.00132257
0.000278202
9.78e-05
0.00382532
0.00229919
0.000689499
0.000217539
0.000184292
0.0046737
0.000786367
0.000603942
0.00107979
0.00335621
1.17096e-05
0.00173892
0.00110712
0.00124368
0.00344955
0.000912293
0.000843638
0.00137726
0.000531353
0.00323282
0.0018292
0.0044782
0.00396375
0.00210945
0.000449299
0.00131006
0.00202766
0.000376208
0.00338753
0.00408456
0.00133315
0.0039996
0.00273813
0.00292712
0.00247435
0.00140114
0.000726915
0.000215616
0.00109117
4.34054e-05
0.00523918
0.00354969
0.00281602
0.000305349
0.00423677
0.00216476
0.000260436
0.00245905
0.00511834
0.00462304
0.00609212
0.0011537
0.00228648
0.00336466
0.00150127
0.0026813
0.000763732
0.00330594
0.00108213
0.00115032
0.00257597
0.00103316
0.00324853
0.00116588
0.00256001
0.00242216
0.00431584
0.00212878
0.00466389
0.00230452
0.00452985
0.00207768
0.00135211
0.00147122
8.70263e-05
0.00244372
0.00213529
0.000554648
0.000263287
0.00117588
0.00340415
0.0035562
0.000488261
0.00199348
0.0023979
0.00204147
0.00298962
0.00119758
0.00124979
0.00411447
0.000699978
0.0039556
0.00151381
0.00309268
0.00249808
0.00168902
0.00139508
0.00163711
0.00154031
7.10504e-05
0.00181197
0.000906012
0.00217781
0.0018811
0.0008421
0.000676112
0.000578983
0.00426958
0.00025027
0.00316658
7.88226e-05
3.95802e-05
0.00344154
0.00077317
0.00161441
0.000238236
0.000345932
0.00161302
0.00129667
0.00320646
0.00165812
0.0023408
0.00134943
0.000367412
0.0024461
0.00214449
0.00256476
0.00182957
0.000915822
0.00111518
0.00012209
0.00110446
0.00303206
0.000472037
0.00326173
0.00292808
0.00269583
0.00168849
0.00053666
0.00278485
0.00374718
0.0026812
0.0024583
0.00108035
0.00194825
0.00235458
0.00325867
9.40323e-05
0.000775033
0.000745198
0.000687191
0.000832298
0.000429654
0.00161346
0.000303806
0.00202483
0.000323851
0.00164846
0.000506277
0.0021569
0.0014019
0.000383572
0.000405004
0.00253957
0.000796073
0.000358266
0.00250326
0.00183374
1.90502e-05
0.000306549
0.00168883
3.97039e-05
0.001637
0.000877296
0.00155155
0.000800292
0.000986322
0.000454984
0.000928327
0.00060649
0.00158383
0.00270984
0.00442797
0.00373125
0.000659819
0.000813382
0.00074536
0.00161248
0.00013179
0.000455464
0.000466846
0.00272975
0.00512514
0.000365907
0.00178333
0.00377204
0.000478717
0.00142597
0.000819356
0.000943637
0.00319577
0.00431179
0.000361496
0.00122723
0.000431461
0.00238813
0.000361394
0.00150135
4.9803e-05
0.000921463
0.000371792
0.002181
2.33566e-05
0.00151393
0.00271113
0.000442936
0.000738418
0.00128858
0.0021493
0.000379464
0.00568542
0.00149661
0.00172656
0.000588047
0.000849672
0.000547482
0.0028919
0.00205875
0.000358184
0.000693965
0.00185327
0.000337199
0.00174156
0.00101199
0.00356079
0.0018119
0.000252791
0.00190067
0.000619398
0.0030467
0.00383973
0.000536106
0.000523717
0.000370969
0.0011714
0.000639634
0.000182296
3.9724e-05
0.000765117
0.00188706
0.00103316
0.00108375
0.0034551
0.00232403
0.000522167
0.00138747
0.00223881
0.00122081
0.000359184
0.0017206
0.00223256
0.000224541
0.00223572
0.00194612
0.000866508
0.0018424
1.05556e-05
0.000968562
0.00112428
0.000429959
0.000713012
0.00132682
0.000720634
0.0025651
0.00159947
0.000475354
0.00206312
0.00255655
0.00105725
0.00142282
0.00130624
0.00215431
0.000962204
0.000836591
0.000334476
0.000295923
0.00147507
0.000731147
0.00338061
0.0041509
0.00327225
0.00135077
0.00119121
0.00109908
0.000406372
0.000682568
0.00220765
0.00121608
0.00201331
0.00162861
0.00188902
0.00102309
0.000823766
0.00126195
0.00212033
0.000838491
0.000562369
0.00303246
0.00193991
0.000943732
0.000990173
0.000876784
0.00119543
0.0026915
0.00199365
0.00156181
0.0018936
0.0020805
0.00166144
0.00103569
0.00151466
0.0033607
0.00255457
0.00117384
0.00184366
0.000384245
0.000946539
0.00186573
0.00117997
0.000681994
7.33498e-05
0.00228806
0.000233871
0.000816452
0.000283657
0.00342786
0.00195541
0.000555933
0.000313625
0.00195173
0.000390082
0.00489869
0.00101752
0.00289522
0.00173376
0.000173636
0.000641218
0.00218217
0.00146971
0.000699825
0.00355518
0.00281646
0.000331081
0.000577961
0.00110967
0.00178932
0.000374497
0.0016307
0.00180791
0.000106176
0.00615934
0.0016451
0.00488479
0.000964904
0.000339939
0.000533088
0.000540809
0.00213284
0.000275402
0.00136821
0.00362431
1.32414e-05
0.0029799
0.00148785
0.00271304
0.00165967
0.000439644
0.0022402
0.00148271
0.00321323
0.00140041
0.0033653
0.00243489
0.00236737
0.000648938
0.00196411
0.000263444
0.000232514
0.00218856
0.000370193
0.000251895
0.000485411
0.000264859
0.00186602
0.00104098
0.000513417
0.00259951
0.00254404
0.000277175
0.000986344
0.00176911
0.00203012
0.000664338
0.00021964
0.00093363
0.00549455
0.000437071
0.00128539
0.000395542
0.00167967
0.000331058
0.000857868
0.00358125
0.000160023
0.00178415
0.000687346
0.00367265
0.00161462
0.000230204
0.00133704
0.00240679
0.00284056
0.00178201
0.000666262
0.00387197
0.000433565
0.00218037
0.00199823
0.00199627
0.00164122
0.0020552
0.00059341
0.00208388
7.41436e-05
0.00194013
0.000617534
0.00196228
0.00310625
0.00171486
0.000937095
0.00189056
0.000817851
0.00105347
0.000356735
0.00206419
0.00142579
0.00266665
0.000108468
2.29446e-05
0.00086727
0.000227183
0.000695922
0.0018012
0.00122483
0.000844838
0.00252678
0.00141496
0.00124119
0.000447228
0.0036543
6.01818e-05
0.00396853
0.000876399
0.00149061
0.000304352
0.000314383
0.00316271
0.0025046
0.00160898
0.00136025
0.00214044
0.000911559
0.000254883
0.000782887
0.000889197
4.45635e-06
0.00157152
0.00207358
0.000248971
0.000217222
0.000456306
0.00265926
0.00146901
0.00252149
0.00232781
0.0010123
0.000561396
0.00203775
0.00133105
0.00207192
0.00134818
0.00076486
0.000289804
0.000152344
0.000191601
0.000378433
5.15186e-05
0.00146189
0.00288653
0.00263736
0.00426375
0.00245049
0.00113438
0.00150228
0.00468976
0.000902194
0.00299864
0.0034475
0.00208892
0.00194803
0.000397727
0.00197479
0.000183065
0.000929285
0.00284705
0.000784051
0.00406021
0.000537694
0.004471
0.00119727
0.00151389
0.00418442
0.000466387
0.000185614
0.000534204
0.00283911
0.000833653
0.00414281
0.00094025
0.000101723
0.000171669
0.000356308
0.00349243
0.000173446
0.00483675