/*--------------------------------*- C++ -*----------------------------------*\
| =========                 |                                                 |
| \\      /  F ield         | OpenFOAM: The Open Source CFD Toolbox           |
|  \\    /   O peration     | Version:  2212                                  |
|   \\  /    A nd           | Website:  www.openfoam.com                      |
|    \\/     M anipulation  |                                                 |
\*---------------------------------------------------------------------------*/
FoamFile
{
    version     2.0;
    format      ascii;
    arch        "LSB;label=32;scalar=64";
    class       volScalarField;
    location    "0";
    object      Ttrue;
}
// * * * * * * * * * * * * * * * * * * * * * * * * * * * * * * * * * * * * * //

dimensions      [0 0 0 1 0 0 0];

internalField   nonuniform List<scalar> 
3200
(
344.082
344.964
346.089
347.316
348.579
349.819
350.964
351.93
352.634
353.006
353.006
352.634
351.93
350.964
349.819
348.579
347.316
346.089
344.964
344.082
338.227
338.973
339.944
341.005
342.099
343.171
344.161
344.996
345.604
345.925
345.925
345.604
344.996
344.161
343.171
342.099
341.005
339.944
338.973
338.227
332.364
332.983
333.801
334.697
335.621
336.527
337.363
338.068
338.58
338.851
338.851
338.58
338.068
337.363
336.527
335.621
334.697
333.801
332.983
332.364
326.493
326.991
327.658
328.391
329.146
329.887
330.569
331.144
331.563
331.784
331.784
331.563
331.144
330.569
329.887
329.146
328.391
327.658
326.991
326.493
320.617
321
321.517
322.086
322.673
323.249
323.779
324.226
324.551
324.722
324.722
324.551
324.226
323.779
323.249
322.673
322.086
321.517
321
320.617
314.737
315.007
315.376
315.783
316.202
316.613
316.991
317.31
317.542
317.664
317.664
317.542
317.31
316.991
316.613
316.202
315.783
315.376
315.007
314.737
308.853
309.015
309.236
309.48
309.732
309.978
310.205
310.397
310.536
310.609
310.609
310.536
310.397
310.205
309.978
309.732
309.48
309.236
309.015
308.853
302.968
303.022
303.096
303.178
303.262
303.345
303.421
303.485
303.532
303.556
303.556
303.532
303.485
303.421
303.345
303.262
303.178
303.096
303.022
302.968
344.2
345.074
346.19
347.405
348.656
349.882
351.014
351.968
352.663
353.029
353.029
352.663
351.968
351.014
349.882
348.656
347.405
346.19
345.074
344.2
338.329
339.069
340.031
341.083
342.165
343.226
344.204
345.029
345.629
345.945
345.945
345.629
345.029
344.204
343.226
342.165
341.083
340.031
339.069
338.329
332.449
333.063
333.874
334.763
335.677
336.574
337.4
338.095
338.602
338.869
338.869
338.602
338.095
337.4
336.574
335.677
334.763
333.874
333.063
332.449
326.563
327.058
327.719
328.444
329.192
329.925
330.599
331.167
331.581
331.799
331.799
331.581
331.167
330.599
329.925
329.192
328.444
327.719
327.058
326.563
320.671
321.051
321.564
322.128
322.709
323.278
323.802
324.244
324.564
324.734
324.734
324.564
324.244
323.802
323.278
322.709
322.128
321.564
321.051
320.671
314.775
315.044
315.41
315.812
316.227
316.634
317.008
317.323
317.552
317.673
317.673
317.552
317.323
317.008
316.634
316.227
315.812
315.41
315.044
314.775
308.876
309.037
309.256
309.498
309.747
309.991
310.216
310.405
310.542
310.614
310.614
310.542
310.405
310.216
309.991
309.747
309.498
309.256
309.037
308.876
302.976
303.029
303.103
303.184
303.267
303.349
303.424
303.488
303.534
303.558
303.558
303.534
303.488
303.424
303.349
303.267
303.184
303.103
303.029
302.976
344.436
345.296
346.393
347.586
348.812
350.011
351.116
352.047
352.724
353.082
353.082
352.724
352.047
351.116
350.011
348.812
347.586
346.393
345.296
344.436
338.533
339.261
340.207
341.239
342.3
343.338
344.294
345.098
345.683
345.991
345.991
345.683
345.098
344.294
343.338
342.3
341.239
340.207
339.261
338.533
332.622
333.226
334.023
334.895
335.791
336.669
337.475
338.154
338.648
338.908
338.908
338.648
338.154
337.475
336.669
335.791
334.895
334.023
333.226
332.622
326.704
327.19
327.84
328.553
329.285
330.002
330.661
331.216
331.619
331.831
331.831
331.619
331.216
330.661
330.002
329.285
328.553
327.84
327.19
326.704
320.781
321.154
321.658
322.212
322.782
323.339
323.851
324.281
324.594
324.759
324.759
324.594
324.281
323.851
323.339
322.782
322.212
321.658
321.154
320.781
314.853
315.118
315.477
315.873
316.279
316.677
317.043
317.35
317.573
317.691
317.691
317.573
317.35
317.043
316.677
316.279
315.873
315.477
315.118
314.853
308.923
309.081
309.297
309.534
309.778
310.017
310.236
310.421
310.555
310.625
310.625
310.555
310.421
310.236
310.017
309.778
309.534
309.297
309.081
308.923
302.991
303.044
303.116
303.196
303.278
303.358
303.431
303.493
303.538
303.562
303.562
303.538
303.493
303.431
303.358
303.278
303.196
303.116
303.044
302.991
344.792
345.633
346.702
347.862
349.051
350.213
351.28
352.178
352.83
353.173
353.173
352.83
352.178
351.28
350.213
349.051
347.862
346.702
345.633
344.792
338.841
339.552
340.475
341.479
342.508
343.513
344.436
345.212
345.775
346.071
346.071
345.775
345.212
344.436
343.513
342.508
341.479
340.475
339.552
338.841
332.882
333.472
334.249
335.097
335.967
336.817
337.596
338.251
338.726
338.977
338.977
338.726
338.251
337.596
336.817
335.967
335.097
334.249
333.472
332.882
326.916
327.391
328.025
328.718
329.429
330.123
330.76
331.295
331.683
331.887
331.887
331.683
331.295
330.76
330.123
329.429
328.718
328.025
327.391
326.916
320.946
321.31
321.802
322.341
322.893
323.433
323.928
324.343
324.644
324.803
324.803
324.644
324.343
323.928
323.433
322.893
322.341
321.802
321.31
320.946
314.971
315.229
315.58
315.964
316.359
316.744
317.098
317.394
317.609
317.723
317.723
317.609
317.394
317.098
316.744
316.359
315.964
315.58
315.229
314.971
308.994
309.148
309.358
309.589
309.826
310.057
310.27
310.447
310.577
310.644
310.644
310.577
310.447
310.27
310.057
309.826
309.589
309.358
309.148
308.994
303.015
303.067
303.137
303.214
303.294
303.371
303.442
303.502
303.545
303.568
303.568
303.545
303.502
303.442
303.371
303.294
303.214
303.137
303.067
303.015
345.272
346.087
347.121
348.239
349.383
350.496
351.516
352.371
352.991
353.318
353.318
352.991
352.371
351.516
350.496
349.383
348.239
347.121
346.087
345.272
339.255
339.945
340.837
341.805
342.795
343.758
344.64
345.38
345.916
346.198
346.198
345.916
345.38
344.64
343.758
342.795
341.805
340.837
339.945
339.255
333.231
333.804
334.555
335.373
336.21
337.024
337.769
338.394
338.846
339.084
339.084
338.846
338.394
337.769
337.024
336.21
335.373
334.555
333.804
333.231
327.202
327.662
328.275
328.944
329.628
330.293
330.902
331.412
331.782
331.976
331.976
331.782
331.412
330.902
330.293
329.628
328.944
328.275
327.662
327.202
321.167
321.521
321.996
322.516
323.048
323.565
324.038
324.435
324.721
324.872
324.872
324.721
324.435
324.038
323.565
323.048
322.516
321.996
321.521
321.167
315.129
315.38
315.719
316.09
316.469
316.839
317.177
317.46
317.664
317.772
317.772
317.664
317.46
317.177
316.839
316.469
316.09
315.719
315.38
315.129
309.089
309.238
309.441
309.664
309.892
310.114
310.317
310.487
310.61
310.674
310.674
310.61
310.487
310.317
310.114
309.892
309.664
309.441
309.238
309.089
303.047
303.097
303.165
303.24
303.316
303.39
303.458
303.515
303.556
303.578
303.578
303.556
303.515
303.458
303.39
303.316
303.24
303.165
303.097
303.047
345.877
346.662
347.654
348.724
349.813
350.87
351.835
352.642
353.226
353.533
353.533
353.226
352.642
351.835
350.87
349.813
348.724
347.654
346.662
345.877
339.779
340.442
341.298
342.224
343.168
344.082
344.917
345.615
346.12
346.385
346.385
346.12
345.615
344.917
344.082
343.168
342.224
341.298
340.442
339.779
333.673
334.224
334.945
335.728
336.525
337.298
338.004
338.593
339.019
339.243
339.243
339.019
338.593
338.004
337.298
336.525
335.728
334.945
334.224
333.673
327.563
328.006
328.594
329.234
329.886
330.518
331.094
331.576
331.924
332.107
332.107
331.924
331.576
331.094
330.518
329.886
329.234
328.594
328.006
327.563
321.448
321.788
322.244
322.741
323.248
323.74
324.188
324.562
324.832
324.974
324.974
324.832
324.562
324.188
323.74
323.248
322.741
322.244
321.788
321.448
315.329
315.57
315.896
316.251
316.613
316.964
317.284
317.551
317.744
317.845
317.845
317.744
317.551
317.284
316.964
316.613
316.251
315.896
315.57
315.329
309.209
309.353
309.548
309.761
309.978
310.189
310.381
310.542
310.657
310.718
310.718
310.657
310.542
310.381
310.189
309.978
309.761
309.548
309.353
309.209
303.087
303.135
303.2
303.272
303.345
303.415
303.48
303.534
303.572
303.593
303.593
303.572
303.534
303.48
303.415
303.345
303.272
303.2
303.135
303.087
346.613
347.363
348.308
349.324
350.353
351.348
352.253
353.007
353.551
353.836
353.836
353.551
353.007
352.253
351.348
350.353
349.324
348.308
347.363
346.613
340.414
341.049
341.865
342.744
343.635
344.496
345.279
345.932
346.402
346.649
346.649
346.402
345.932
345.279
344.496
343.635
342.744
341.865
341.049
340.414
334.21
334.736
335.424
336.167
336.92
337.649
338.31
338.861
339.259
339.467
339.467
339.259
338.861
338.31
337.649
336.92
336.167
335.424
334.736
334.21
328.001
328.425
328.985
329.592
330.209
330.804
331.345
331.795
332.12
332.29
332.29
332.12
331.795
331.345
330.804
330.209
329.592
328.985
328.425
328.001
321.788
322.114
322.548
323.02
323.5
323.962
324.383
324.733
324.985
325.117
325.117
324.985
324.733
324.383
323.962
323.5
323.02
322.548
322.114
321.788
315.573
315.803
316.113
316.45
316.792
317.123
317.423
317.673
317.853
317.947
317.947
317.853
317.673
317.423
317.123
316.792
316.45
316.113
315.803
315.573
309.355
309.492
309.678
309.881
310.086
310.285
310.465
310.615
310.723
310.78
310.78
310.723
310.615
310.465
310.285
310.086
309.881
309.678
309.492
309.355
303.136
303.182
303.244
303.312
303.381
303.447
303.508
303.558
303.594
303.613
303.613
303.594
303.558
303.508
303.447
303.381
303.312
303.244
303.182
303.136
347.482
348.194
349.09
350.047
351.012
351.941
352.783
353.481
353.984
354.247
354.247
353.984
353.481
352.783
351.941
351.012
350.047
349.09
348.194
347.482
341.166
341.769
342.541
343.369
344.206
345.01
345.738
346.343
346.777
347.005
347.005
346.777
346.343
345.738
345.01
344.206
343.369
342.541
341.769
341.166
334.844
335.345
335.995
336.696
337.403
338.083
338.699
339.209
339.577
339.769
339.769
339.577
339.209
338.699
338.083
337.403
336.696
335.995
335.345
334.844
328.519
328.922
329.452
330.025
330.603
331.159
331.663
332.08
332.38
332.537
332.537
332.38
332.08
331.663
331.159
330.603
330.025
329.452
328.922
328.519
322.191
322.5
322.911
323.356
323.806
324.239
324.63
324.954
325.188
325.31
325.31
325.188
324.954
324.63
324.239
323.806
323.356
322.911
322.5
322.191
315.86
316.079
316.372
316.69
317.011
317.32
317.6
317.831
317.998
318.085
318.085
317.998
317.831
317.6
317.32
317.011
316.69
316.372
316.079
315.86
309.527
309.658
309.834
310.025
310.218
310.403
310.571
310.71
310.81
310.862
310.862
310.81
310.71
310.571
310.403
310.218
310.025
309.834
309.658
309.527
303.194
303.237
303.296
303.36
303.425
303.487
303.543
303.59
303.624
303.641
303.641
303.624
303.59
303.543
303.487
303.425
303.36
303.296
303.237
303.194
348.489
349.162
350.005
350.901
351.8
352.662
353.438
354.081
354.541
354.782
354.782
354.541
354.081
353.438
352.662
351.8
350.901
350.005
349.162
348.489
342.037
342.606
343.333
344.108
344.888
345.634
346.306
346.862
347.261
347.469
347.469
347.261
346.862
346.306
345.634
344.888
344.108
343.333
342.606
342.037
335.58
336.052
336.664
337.32
337.98
338.611
339.179
339.649
339.985
340.161
340.161
339.985
339.649
339.179
338.611
337.98
337.32
336.664
336.052
335.58
329.12
329.5
329.999
330.536
331.075
331.591
332.056
332.44
332.715
332.859
332.859
332.715
332.44
332.056
331.591
331.075
330.536
329.999
329.5
329.12
322.657
322.949
323.337
323.753
324.173
324.574
324.936
325.234
325.448
325.56
325.56
325.448
325.234
324.936
324.574
324.173
323.753
323.337
322.949
322.657
316.193
316.4
316.676
316.973
317.273
317.56
317.818
318.031
318.184
318.264
318.264
318.184
318.031
317.818
317.56
317.273
316.973
316.676
316.4
316.193
309.727
309.851
310.016
310.195
310.375
310.547
310.702
310.83
310.922
310.97
310.97
310.922
310.83
310.702
310.547
310.375
310.195
310.016
309.851
309.727
303.261
303.302
303.357
303.417
303.478
303.535
303.587
303.63
303.661
303.677
303.677
303.661
303.63
303.587
303.535
303.478
303.417
303.357
303.302
303.261
349.639
350.271
351.059
351.893
352.727
353.521
354.233
354.819
355.238
355.457
355.457
355.238
354.819
354.233
353.521
352.727
351.893
351.059
350.271
349.639
343.031
343.566
344.246
344.968
345.69
346.377
346.994
347.502
347.865
348.054
348.054
347.865
347.502
346.994
346.377
345.69
344.968
344.246
343.566
343.031
336.419
336.863
337.436
338.047
338.657
339.239
339.761
340.19
340.497
340.657
340.657
340.497
340.19
339.761
339.239
338.657
338.047
337.436
336.863
336.419
329.806
330.163
330.63
331.129
331.629
332.105
332.531
332.882
333.133
333.264
333.264
333.133
332.882
332.531
332.105
331.629
331.129
330.63
330.163
329.806
323.19
323.464
323.827
324.215
324.604
324.974
325.305
325.578
325.773
325.875
325.875
325.773
325.578
325.305
324.974
324.604
324.215
323.827
323.464
323.19
316.573
316.767
317.026
317.303
317.581
317.845
318.082
318.277
318.416
318.489
318.489
318.416
318.277
318.082
317.845
317.581
317.303
317.026
316.767
316.573
309.956
310.071
310.226
310.393
310.56
310.718
310.861
310.978
311.061
311.105
311.105
311.061
310.978
310.861
310.718
310.56
310.393
310.226
310.071
309.956
303.337
303.376
303.428
303.484
303.54
303.593
303.641
303.68
303.708
303.722
303.722
303.708
303.68
303.641
303.593
303.54
303.484
303.428
303.376
303.337
350.935
351.526
352.26
353.032
353.8
354.528
355.177
355.71
356.089
356.287
356.287
356.089
355.71
355.177
354.528
353.8
353.032
352.26
351.526
350.935
344.151
344.652
345.284
345.954
346.619
347.249
347.812
348.273
348.601
348.773
348.773
348.601
348.273
347.812
347.249
346.619
345.954
345.284
344.652
344.151
337.366
337.781
338.314
338.88
339.443
339.976
340.452
340.842
341.12
341.264
341.264
341.12
340.842
340.452
339.976
339.443
338.88
338.314
337.781
337.366
330.579
330.913
331.348
331.81
332.271
332.707
333.096
333.415
333.643
333.761
333.761
333.643
333.415
333.096
332.707
332.271
331.81
331.348
330.913
330.579
323.791
324.047
324.385
324.744
325.103
325.442
325.745
325.993
326.169
326.261
326.261
326.169
325.993
325.745
325.442
325.103
324.744
324.385
324.047
323.791
317.002
317.184
317.424
317.681
317.937
318.18
318.396
318.573
318.699
318.765
318.765
318.699
318.573
318.396
318.18
317.937
317.681
317.424
317.184
317.002
310.213
310.321
310.466
310.62
310.774
310.919
311.049
311.156
311.231
311.271
311.271
311.231
311.156
311.049
310.919
310.774
310.62
310.466
310.321
310.213
303.424
303.46
303.508
303.56
303.611
303.66
303.704
303.739
303.765
303.778
303.778
303.765
303.739
303.704
303.66
303.611
303.56
303.508
303.46
303.424
352.381
352.931
353.611
354.324
355.028
355.691
356.281
356.762
357.104
357.282
357.282
357.104
356.762
356.281
355.691
355.028
354.324
353.611
352.931
352.381
345.401
345.867
346.454
347.071
347.681
348.256
348.767
349.184
349.48
349.634
349.634
349.48
349.184
348.767
348.256
347.681
347.071
346.454
345.867
345.401
338.422
338.808
339.302
339.824
340.34
340.827
341.259
341.612
341.862
341.993
341.993
341.862
341.612
341.259
340.827
340.34
339.824
339.302
338.808
338.422
331.441
331.752
332.156
332.582
333.005
333.403
333.756
334.045
334.25
334.356
334.356
334.25
334.045
333.756
333.403
333.005
332.582
332.156
331.752
331.441
324.461
324.7
325.013
325.344
325.673
325.983
326.258
326.482
326.642
326.724
326.724
326.642
326.482
326.258
325.983
325.673
325.344
325.013
324.7
324.461
317.481
317.65
317.873
318.11
318.345
318.566
318.762
318.923
319.037
319.096
319.096
319.037
318.923
318.762
318.566
318.345
318.11
317.873
317.65
317.481
310.5
310.601
310.735
310.877
311.018
311.151
311.269
311.366
311.434
311.469
311.469
311.434
311.366
311.269
311.151
311.018
310.877
310.735
310.601
310.5
303.52
303.554
303.598
303.646
303.693
303.738
303.777
303.81
303.833
303.845
303.845
303.833
303.81
303.777
303.738
303.693
303.646
303.598
303.554
303.52
353.979
354.49
355.118
355.772
356.415
357.018
357.551
357.985
358.292
358.451
358.451
358.292
357.985
357.551
357.018
356.415
355.772
355.118
354.49
353.979
346.784
347.216
347.758
348.324
348.882
349.404
349.867
350.242
350.508
350.646
350.646
350.508
350.242
349.867
349.404
348.882
348.324
347.758
347.216
346.784
339.589
339.947
340.404
340.883
341.355
341.798
342.189
342.506
342.731
342.848
342.848
342.731
342.506
342.189
341.798
341.355
340.883
340.404
339.947
339.589
332.395
332.684
333.056
333.448
333.834
334.196
334.516
334.776
334.96
335.056
335.056
334.96
334.776
334.516
334.196
333.834
333.448
333.056
332.684
332.395
325.202
325.424
325.713
326.018
326.318
326.599
326.848
327.051
327.194
327.268
327.268
327.194
327.051
326.848
326.599
326.318
326.018
325.713
325.424
325.202
318.01
318.167
318.373
318.59
318.805
319.006
319.184
319.329
319.431
319.484
319.484
319.431
319.329
319.184
319.006
318.805
318.59
318.373
318.167
318.01
310.818
310.911
311.035
311.166
311.295
311.416
311.522
311.609
311.671
311.703
311.703
311.671
311.609
311.522
311.416
311.295
311.166
311.035
310.911
310.818
303.626
303.658
303.699
303.743
303.786
303.826
303.862
303.891
303.912
303.923
303.923
303.912
303.891
303.862
303.826
303.786
303.743
303.699
303.658
303.626
355.732
356.204
356.782
357.381
357.967
358.513
358.994
359.383
359.658
359.8
359.8
359.658
359.383
358.994
358.513
357.967
357.381
356.782
356.204
355.732
348.299
348.699
349.198
349.717
350.224
350.698
351.115
351.452
351.69
351.813
351.813
351.69
351.452
351.115
350.698
350.224
349.717
349.198
348.699
348.299
340.869
341.201
341.621
342.06
342.49
342.89
343.243
343.529
343.73
343.834
343.834
343.73
343.529
343.243
342.89
342.49
342.06
341.621
341.201
340.869
333.441
333.708
334.051
334.41
334.761
335.089
335.378
335.612
335.777
335.862
335.862
335.777
335.612
335.378
335.089
334.761
334.41
334.051
333.708
333.441
326.015
326.22
326.486
326.765
327.038
327.294
327.518
327.7
327.828
327.895
327.895
327.828
327.7
327.518
327.294
327.038
326.765
326.486
326.22
326.015
318.59
318.735
318.925
319.124
319.32
319.502
319.662
319.792
319.884
319.931
319.931
319.884
319.792
319.662
319.502
319.32
319.124
318.925
318.735
318.59
311.166
311.253
311.366
311.486
311.604
311.713
311.81
311.888
311.943
311.971
311.971
311.943
311.888
311.81
311.713
311.604
311.486
311.366
311.253
311.166
303.743
303.772
303.81
303.85
303.89
303.926
303.959
303.985
304.003
304.013
304.013
304.003
303.985
303.959
303.926
303.89
303.85
303.81
303.772
303.743
357.638
358.073
358.604
359.151
359.683
360.177
360.609
360.958
361.203
361.33
361.33
361.203
360.958
360.609
360.177
359.683
359.151
358.604
358.073
357.638
349.947
350.316
350.774
351.248
351.709
352.137
352.512
352.814
353.027
353.137
353.137
353.027
352.814
352.512
352.137
351.709
351.248
350.774
350.316
349.947
342.261
342.566
342.952
343.353
343.744
344.106
344.423
344.679
344.859
344.952
344.952
344.859
344.679
344.423
344.106
343.744
343.353
342.952
342.566
342.261
334.578
334.824
335.138
335.467
335.786
336.083
336.342
336.552
336.699
336.775
336.775
336.699
336.552
336.342
336.083
335.786
335.467
335.138
334.824
334.578
326.898
327.087
327.331
327.586
327.835
328.065
328.268
328.431
328.545
328.604
328.604
328.545
328.431
328.268
328.065
327.835
327.586
327.331
327.087
326.898
319.22
319.354
319.528
319.71
319.888
320.053
320.197
320.314
320.396
320.438
320.438
320.396
320.314
320.197
320.053
319.888
319.71
319.528
319.354
319.22
311.545
311.624
311.729
311.838
311.945
312.044
312.131
312.201
312.25
312.275
312.275
312.25
312.201
312.131
312.044
311.945
311.838
311.729
311.624
311.545
303.87
303.896
303.931
303.968
304.004
304.037
304.066
304.09
304.106
304.115
304.115
304.106
304.09
304.066
304.037
304.004
303.968
303.931
303.896
303.87
359.69
360.091
360.578
361.076
361.559
362.004
362.393
362.705
362.924
363.037
363.037
362.924
362.705
362.393
362.004
361.559
361.076
360.578
360.091
359.69
351.721
352.06
352.479
352.912
353.33
353.716
354.053
354.324
354.514
354.612
354.612
354.514
354.324
354.053
353.716
353.33
352.912
352.479
352.06
351.721
343.757
344.039
344.392
344.758
345.112
345.439
345.724
345.954
346.114
346.197
346.197
346.114
345.954
345.724
345.439
345.112
344.758
344.392
344.039
343.757
335.8
336.026
336.314
336.613
336.903
337.171
337.405
337.592
337.724
337.792
337.792
337.724
337.592
337.405
337.171
336.903
336.613
336.314
336.026
335.8
327.847
328.02
328.244
328.477
328.702
328.911
329.092
329.238
329.341
329.394
329.394
329.341
329.238
329.092
328.911
328.702
328.477
328.244
328.02
327.847
319.897
320.02
320.18
320.346
320.507
320.656
320.786
320.891
320.964
321.001
321.001
320.964
320.891
320.786
320.656
320.507
320.346
320.18
320.02
319.897
311.951
312.024
312.12
312.22
312.317
312.406
312.484
312.547
312.591
312.613
312.613
312.591
312.547
312.484
312.406
312.317
312.22
312.12
312.024
311.951
304.006
304.03
304.062
304.096
304.128
304.158
304.185
304.206
304.22
304.228
304.228
304.22
304.206
304.185
304.158
304.128
304.096
304.062
304.03
304.006
361.869
362.237
362.682
363.137
363.574
363.976
364.325
364.604
364.799
364.9
364.9
364.799
364.604
364.325
363.976
363.574
363.137
362.682
362.237
361.869
353.599
353.911
354.295
354.689
355.068
355.417
355.72
355.962
356.131
356.219
356.219
356.131
355.962
355.72
355.417
355.068
354.689
354.295
353.911
353.599
345.34
345.598
345.922
346.256
346.577
346.872
347.128
347.334
347.477
347.551
347.551
347.477
347.334
347.128
346.872
346.577
346.256
345.922
345.598
345.34
337.09
337.298
337.562
337.835
338.098
338.339
338.549
338.717
338.835
338.895
338.895
338.835
338.717
338.549
338.339
338.098
337.835
337.562
337.298
337.09
328.847
329.007
329.212
329.424
329.629
329.817
329.98
330.111
330.202
330.25
330.25
330.202
330.111
329.98
329.817
329.629
329.424
329.212
329.007
328.847
320.611
320.724
320.87
321.021
321.168
321.302
321.419
321.513
321.578
321.612
321.612
321.578
321.513
321.419
321.302
321.168
321.021
320.87
320.724
320.611
312.379
312.446
312.534
312.625
312.713
312.793
312.864
312.92
312.959
312.979
312.979
312.959
312.92
312.864
312.793
312.713
312.625
312.534
312.446
312.379
304.149
304.172
304.201
304.232
304.261
304.288
304.312
304.33
304.344
304.35
304.35
304.344
304.33
304.312
304.288
304.261
304.232
304.201
304.172
304.149
364.116
364.455
364.863
365.278
365.675
366.038
366.352
366.603
366.778
366.868
366.868
366.778
366.603
366.352
366.038
365.675
365.278
364.863
364.455
364.116
355.529
355.815
356.168
356.527
356.872
357.187
357.46
357.678
357.829
357.907
357.907
357.829
357.678
357.46
357.187
356.872
356.527
356.168
355.815
355.529
346.959
347.197
347.494
347.798
348.09
348.357
348.588
348.773
348.901
348.968
348.968
348.901
348.773
348.588
348.357
348.09
347.798
347.494
347.197
346.959
338.405
338.596
338.838
339.088
339.327
339.546
339.735
339.886
339.992
340.046
340.046
339.992
339.886
339.735
339.546
339.327
339.088
338.838
338.596
338.405
329.864
330.011
330.199
330.393
330.579
330.75
330.897
331.015
331.097
331.139
331.139
331.097
331.015
330.897
330.75
330.579
330.393
330.199
330.011
329.864
321.334
321.438
321.572
321.711
321.844
321.966
322.071
322.155
322.214
322.244
322.244
322.214
322.155
322.071
321.966
321.844
321.711
321.572
321.438
321.334
312.812
312.874
312.954
313.037
313.117
313.191
313.254
313.305
313.34
313.358
313.358
313.34
313.305
313.254
313.191
313.117
313.037
312.954
312.874
312.812
304.294
304.315
304.342
304.37
304.397
304.421
304.442
304.459
304.471
304.477
304.477
304.471
304.459
304.442
304.421
304.397
304.37
304.342
304.315
304.294
366.288
366.601
366.977
367.358
367.722
368.053
368.338
368.565
368.723
368.804
368.804
368.723
368.565
368.338
368.053
367.722
367.358
366.977
366.601
366.288
357.37
357.636
357.961
358.292
358.608
358.895
359.143
359.341
359.478
359.548
359.548
359.478
359.341
359.143
358.895
358.608
358.292
357.961
357.636
357.37
348.487
348.708
348.982
349.262
349.53
349.775
349.985
350.152
350.269
350.329
350.329
350.269
350.152
349.985
349.775
349.53
349.262
348.982
348.708
348.487
339.635
339.812
340.036
340.266
340.486
340.686
340.859
340.996
341.092
341.141
341.141
341.092
340.996
340.859
340.686
340.486
340.266
340.036
339.812
339.635
330.808
330.944
331.118
331.297
331.468
331.625
331.759
331.866
331.941
331.979
331.979
331.941
331.866
331.759
331.625
331.468
331.297
331.118
330.944
330.808
322.001
322.098
322.222
322.35
322.473
322.584
322.681
322.757
322.811
322.838
322.838
322.811
322.757
322.681
322.584
322.473
322.35
322.222
322.098
322.001
313.21
313.267
313.342
313.419
313.493
313.56
313.618
313.664
313.696
313.712
313.712
313.696
313.664
313.618
313.56
313.493
313.419
313.342
313.267
313.21
304.427
304.446
304.471
304.497
304.522
304.544
304.564
304.579
304.59
304.595
304.595
304.59
304.579
304.564
304.544
304.522
304.497
304.471
304.446
304.427
367.999
368.294
368.647
369.005
369.345
369.653
369.919
370.129
370.276
370.351
370.351
370.276
370.129
369.919
369.653
369.345
369.005
368.647
368.294
367.999
358.766
359.016
359.323
359.634
359.931
360.2
360.431
360.615
360.743
360.809
360.809
360.743
360.615
360.431
360.2
359.931
359.634
359.323
359.016
358.766
349.61
349.818
350.077
350.342
350.594
350.823
351.02
351.177
351.285
351.341
351.341
351.285
351.177
351.02
350.823
350.594
350.342
350.077
349.818
349.61
340.516
340.684
340.896
341.113
341.32
341.509
341.671
341.799
341.889
341.934
341.934
341.889
341.799
341.671
341.509
341.32
341.113
340.896
340.684
340.516
331.471
331.6
331.766
331.935
332.097
332.244
332.37
332.47
332.54
332.576
332.576
332.54
332.47
332.37
332.244
332.097
331.935
331.766
331.6
331.471
322.464
322.556
322.674
322.795
322.911
323.016
323.107
323.179
323.229
323.254
323.254
323.229
323.179
323.107
323.016
322.911
322.795
322.674
322.556
322.464
313.483
313.538
313.609
313.682
313.751
313.815
313.869
313.913
313.943
313.958
313.958
313.943
313.913
313.869
313.815
313.751
313.682
313.609
313.538
313.483
304.518
304.536
304.56
304.585
304.608
304.629
304.647
304.662
304.672
304.677
304.677
304.672
304.662
304.647
304.629
304.608
304.585
304.56
304.536
304.518
)
;

boundaryField
{
    hotSide
    {
        type            fixedGradient;
        gradient        nonuniform List<scalar> 
400
(
467.594
468.886
471.479
475.391
480.649
487.285
495.337
504.845
515.853
528.401
542.532
558.284
575.693
594.789
615.602
638.154
662.466
688.553
716.43
746.106
479.194
480.394
482.807
486.456
491.378
497.615
505.217
514.236
524.728
536.746
550.341
565.561
582.449
601.042
621.373
643.468
667.35
693.036
720.539
749.868
491.748
492.839
495.036
498.374
502.898
508.665
515.74
524.192
534.089
545.499
558.486
573.108
589.415
607.452
627.255
648.854
672.273
697.529
724.635
753.601
505.048
506.011
507.959
510.935
515
520.228
526.703
534.511
543.74
554.473
566.788
580.754
596.431
613.87
633.11
654.184
677.118
701.927
728.625
757.218
518.722
519.541
521.209
523.781
527.335
531.966
537.779
544.884
553.388
563.394
574.993
588.267
603.284
620.101
638.762
659.301
681.743
706.105
732.395
760.62
532.2
532.866
534.234
536.374
539.386
543.387
548.508
554.882
562.638
571.899
582.771
595.348
609.706
625.908
644.001
664.019
685.987
709.918
735.821
763.697
544.711
545.222
546.291
548.004
550.479
553.86
558.303
563.967
571.002
579.549
589.731
601.651
615.393
631.024
648.594
668.135
689.672
713.216
738.772
766.337
555.328
555.702
556.502
557.829
559.825
562.654
566.497
571.534
577.938
585.866
595.451
606.808
620.026
635.174
652.303
671.447
692.626
715.849
741.119
768.431
563.099
563.366
563.96
564.994
566.624
569.034
572.424
576.991
582.923
590.389
599.533
610.475
623.309
638.105
654.915
673.771
694.693
717.687
742.754
769.886
567.216
567.425
567.907
568.781
570.213
572.397
575.542
579.856
585.534
592.753
601.662
612.383
625.013
639.624
656.266
674.971
695.758
718.633
743.593
770.631
567.216
567.425
567.907
568.781
570.213
572.397
575.542
579.856
585.534
592.753
601.662
612.383
625.013
639.624
656.266
674.971
695.758
718.633
743.593
770.631
563.099
563.366
563.96
564.994
566.624
569.034
572.424
576.991
582.923
590.389
599.533
610.475
623.309
638.105
654.915
673.771
694.693
717.687
742.754
769.886
555.328
555.702
556.502
557.829
559.825
562.654
566.497
571.534
577.938
585.866
595.451
606.808
620.026
635.174
652.303
671.447
692.626
715.849
741.119
768.431
544.711
545.222
546.291
548.004
550.479
553.86
558.303
563.967
571.002
579.549
589.731
601.651
615.393
631.024
648.594
668.135
689.672
713.216
738.772
766.337
532.2
532.866
534.234
536.374
539.386
543.387
548.508
554.882
562.638
571.899
582.771
595.348
609.706
625.908
644.001
664.019
685.987
709.918
735.821
763.697
518.722
519.541
521.209
523.781
527.335
531.966
537.779
544.884
553.388
563.394
574.993
588.267
603.284
620.101
638.762
659.301
681.743
706.105
732.395
760.62
505.048
506.011
507.959
510.935
515
520.228
526.703
534.511
543.74
554.473
566.788
580.754
596.431
613.87
633.11
654.184
677.118
701.927
728.625
757.218
491.748
492.839
495.036
498.374
502.898
508.665
515.74
524.192
534.089
545.499
558.486
573.108
589.415
607.452
627.255
648.854
672.273
697.529
724.635
753.601
479.194
480.394
482.807
486.456
491.378
497.615
505.217
514.236
524.728
536.746
550.341
565.561
582.449
601.042
621.373
643.468
667.35
693.036
720.539
749.868
467.594
468.886
471.479
475.391
480.649
487.285
495.337
504.845
515.853
528.401
542.532
558.284
575.693
594.789
615.602
638.154
662.466
688.553
716.43
746.106
)
;
    }
    coldSide
    {
        type            mixed;
        refValue        uniform 300;
        refGradient     uniform 0;
        valueFraction   uniform 0.991591;
        source          uniform 0;
        value           nonuniform List<scalar> 
400
(
300.025
300.025
300.025
300.025
300.026
300.026
300.026
300.027
300.027
300.028
300.029
300.03
300.03
300.031
300.033
300.034
300.035
300.036
300.037
300.038
300.025
300.025
300.026
300.026
300.026
300.026
300.027
300.027
300.028
300.028
300.029
300.03
300.031
300.032
300.033
300.034
300.035
300.036