/*--------------------------------*- C++ -*----------------------------------*\
| =========                 |                                                 |
| \\      /  F ield         | OpenFOAM: The Open Source CFD Toolbox           |
|  \\    /   O peration     | Version:  2212                                  |
|   \\  /    A nd           | Website:  www.openfoam.com                      |
|    \\/     M anipulation  |                                                 |
\*---------------------------------------------------------------------------*/
FoamFile
{
    version     2.0;
    format      ascii;
    arch        "LSB;label=32;scalar=64";
    class       volScalarField;
    location    "0";
    object      Tdirect;
}
// * * * * * * * * * * * * * * * * * * * * * * * * * * * * * * * * * * * * * //

dimensions      [0 0 0 1 0 0 0];

internalField   nonuniform List<scalar> 
3200
(
322.189
322.365
322.59
322.836
323.088
323.336
323.565
323.758
323.899
323.973
323.973
323.899
323.758
323.565
323.336
323.088
322.836
322.59
322.365
322.189
319.115
319.264
319.458
319.67
319.889
320.103
320.301
320.468
320.589
320.653
320.653
320.589
320.468
320.301
320.103
319.889
319.67
319.458
319.264
319.115
316.091
316.215
316.379
316.558
316.742
316.924
317.091
317.231
317.334
317.388
317.388
317.334
317.231
317.091
316.924
316.742
316.558
316.379
316.215
316.091
313.111
313.21
313.343
313.49
313.641
313.789
313.925
314.04
314.124
314.168
314.168
314.124
314.04
313.925
313.789
313.641
313.49
313.343
313.21
313.111
310.164
310.241
310.344
310.458
310.575
310.69
310.796
310.886
310.951
310.985
310.985
310.951
310.886
310.796
310.69
310.575
310.458
310.344
310.241
310.164
307.245
307.299
307.373
307.454
307.538
307.62
307.696
307.759
307.806
307.83
307.83
307.806
307.759
307.696
307.62
307.538
307.454
307.373
307.299
307.245
304.344
304.377
304.421
304.47
304.52
304.569
304.615
304.653
304.681
304.695
304.695
304.681
304.653
304.615
304.569
304.52
304.47
304.421
304.377
304.344
301.455
301.466
301.481
301.497
301.514
301.53
301.546
301.558
301.568
301.573
301.573
301.568
301.558
301.546
301.53
301.514
301.497
301.481
301.466
301.455
322.277
322.451
322.675
322.917
323.167
323.413
323.639
323.829
323.968
324.042
324.042
323.968
323.829
323.639
323.413
323.167
322.917
322.675
322.451
322.277
319.19
319.338
319.53
319.74
319.957
320.169
320.364
320.529
320.649
320.712
320.712
320.649
320.529
320.364
320.169
319.957
319.74
319.53
319.338
319.19
316.154
316.277
316.439
316.617
316.8
316.979
317.144
317.283
317.384
317.438
317.438
317.384
317.283
317.144
316.979
316.8
316.617
316.439
316.277
316.154
313.162
313.261
313.393
313.538
313.687
313.834
313.969
314.082
314.165
314.208
314.208
314.165
314.082
313.969
313.834
313.687
313.538
313.393
313.261
313.162
310.204
310.28
310.382
310.495
310.611
310.725
310.83
310.918
310.982
311.016
311.016
310.982
310.918
310.83
310.725
310.611
310.495
310.382
310.28
310.204
307.273
307.327
307.4
307.48
307.563
307.645
307.719
307.782
307.828
307.852
307.852
307.828
307.782
307.719
307.645
307.563
307.48
307.4
307.327
307.273
304.361
304.393
304.437
304.485
304.535
304.584
304.629
304.667
304.694
304.709
304.709
304.694
304.667
304.629
304.584
304.535
304.485
304.437
304.393
304.361
301.461
301.471
301.486
301.502
301.519
301.535
301.55
301.563
301.572
301.577
301.577
301.572
301.563
301.55
301.535
301.519
301.502
301.486
301.471
301.461
322.452
322.624
322.843
323.081
323.326
323.566
323.787
323.973
324.108
324.18
324.18
324.108
323.973
323.787
323.566
323.326
323.081
322.843
322.624
322.452
319.34
319.486
319.675
319.881
320.093
320.301
320.492
320.653
320.769
320.831
320.831
320.769
320.653
320.492
320.301
320.093
319.881
319.675
319.486
319.34
316.281
316.401
316.561
316.735
316.914
317.09
317.251
317.387
317.485
317.537
317.537
317.485
317.387
317.251
317.09
316.914
316.735
316.561
316.401
316.281
313.265
313.362
313.492
313.634
313.781
313.924
314.056
314.166
314.247
314.289
314.289
314.247
314.166
314.056
313.924
313.781
313.634
313.492
313.362
313.265
310.284
310.358
310.459
310.57
310.684
310.795
310.897
310.983
311.046
311.079
311.079
311.046
310.983
310.897
310.795
310.684
310.57
310.459
310.358
310.284
307.33
307.383
307.454
307.533
307.615
307.694
307.767
307.829
307.873
307.897
307.897
307.873
307.829
307.767
307.694
307.615
307.533
307.454
307.383
307.33
304.395
304.427
304.47
304.517
304.566
304.614
304.658
304.694
304.721
304.735
304.735
304.721
304.694
304.658
304.614
304.566
304.517
304.47
304.427
304.395
301.472
301.483
301.497
301.513
301.529
301.545
301.56
301.572
301.581
301.586
301.586
301.581
301.572
301.56
301.545
301.529
301.513
301.497
301.483
301.472
322.715
322.883
323.096
323.328
323.566
323.798
324.012
324.191
324.321
324.39
324.39
324.321
324.191
324.012
323.798
323.566
323.328
323.096
322.883
322.715
319.566
319.708
319.893
320.093
320.299
320.5
320.685
320.84
320.952
321.011
321.011
320.952
320.84
320.685
320.5
320.299
320.093
319.893
319.708
319.566
316.47
316.588
316.744
316.913
317.087
317.257
317.413
317.544
317.639
317.689
317.689
317.639
317.544
317.413
317.257
317.087
316.913
316.744
316.588
316.47
313.419
313.514
313.64
313.779
313.921
314.06
314.187
314.294
314.372
314.413
314.413
314.372
314.294
314.187
314.06
313.921
313.779
313.64
313.514
313.419
310.403
310.476
310.574
310.682
310.792
310.9
310.999
311.082
311.142
311.174
311.174
311.142
311.082
310.999
310.9
310.792
310.682
310.574
310.476
310.403
307.415
307.466
307.536
307.613
307.692
307.769
307.84
307.899
307.942
307.965
307.965
307.942
307.899
307.84
307.769
307.692
307.613
307.536
307.466
307.415
304.446
304.477
304.519
304.565
304.612
304.659
304.701
304.737
304.762
304.776
304.776
304.762
304.737
304.701
304.659
304.612
304.565
304.519
304.477
304.446
301.489
301.499
301.513
301.529
301.545
301.56
301.574
301.586
301.595
301.6
301.6
301.595
301.586
301.574
301.56
301.545
301.529
301.513
301.499
301.489
323.066
323.229
323.436
323.659
323.888
324.11
324.314
324.485
324.609
324.674
324.674
324.609
324.485
324.314
324.11
323.888
323.659
323.436
323.229
323.066
319.868
320.006
320.184
320.378
320.576
320.768
320.945
321.092
321.199
321.256
321.256
321.199
321.092
320.945
320.768
320.576
320.378
320.184
320.006
319.868
316.724
316.838
316.989
317.152
317.319
317.482
317.631
317.756
317.846
317.894
317.894
317.846
317.756
317.631
317.482
317.319
317.152
316.989
316.838
316.724
313.625
313.717
313.84
313.973
314.11
314.243
314.365
314.467
314.541
314.579
314.579
314.541
314.467
314.365
314.243
314.11
313.973
313.84
313.717
313.625
310.563
310.633
310.728
310.832
310.939
311.042
311.137
311.216
311.273
311.303
311.303
311.273
311.216
311.137
311.042
310.939
310.832
310.728
310.633
310.563
307.528
307.578
307.646
307.72
307.796
307.87
307.938
307.994
308.035
308.057
308.057
308.035
307.994
307.938
307.87
307.796
307.72
307.646
307.578
307.528
304.514
304.544
304.585
304.629
304.675
304.719
304.76
304.794
304.818
304.831
304.831
304.818
304.794
304.76
304.719
304.675
304.629
304.585
304.544
304.514
301.512
301.522
301.535
301.55
301.566
301.58
301.594
301.605
301.614
301.618
301.618
301.614
301.605
301.594
301.58
301.566
301.55
301.535
301.522
301.512
323.507
323.663
323.862
324.076
324.293
324.505
324.698
324.859
324.976
325.037
325.037
324.976
324.859
324.698
324.505
324.293
324.076
323.862
323.663
323.507
320.247
320.379
320.55
320.736
320.924
321.107
321.274
321.413
321.514
321.567
321.567
321.514
321.413
321.274
321.107
320.924
320.736
320.55
320.379
320.247
317.042
317.152
317.296
317.453
317.612
317.767
317.908
318.025
318.111
318.155
318.155
318.111
318.025
317.908
317.767
317.612
317.453
317.296
317.152
317.042
313.884
313.972
314.09
314.218
314.348
314.474
314.59
314.686
314.755
314.792
314.792
314.755
314.686
314.59
314.474
314.348
314.218
314.09
313.972
313.884
310.763
310.831
310.922
311.021
311.123
311.221
311.311
311.385
311.439
311.468
311.468
311.439
311.385
311.311
311.221
311.123
311.021
310.922
310.831
310.763
307.671
307.719
307.784
307.855
307.927
307.998
308.062
308.115
308.153
308.174
308.174
308.153
308.115
308.062
307.998
307.927
307.855
307.784
307.719
307.671
304.6
304.628
304.667
304.71
304.753
304.795
304.834
304.866
304.889
304.901
304.901
304.889
304.866
304.834
304.795
304.753
304.71
304.667
304.628
304.6
301.54
301.55
301.563
301.577
301.592
301.606
301.619
301.63
301.637
301.642
301.642
301.637
301.63
301.619
301.606
301.592
301.577
301.563
301.55
301.54
324.037
324.187
324.376
324.579
324.785
324.984
325.165
325.315
325.424
325.481
325.481
325.424
325.315
325.165
324.984
324.785
324.579
324.376
324.187
324.037
320.702
320.829
320.992
321.168
321.346
321.518
321.675
321.805
321.899
321.949
321.949
321.899
321.805
321.675
321.518
321.346
321.168
320.992
320.829
320.702
317.425
317.53
317.667
317.816
317.967
318.112
318.244
318.355
318.434
318.476
318.476
318.434
318.355
318.244
318.112
317.967
317.816
317.667
317.53
317.425
314.195
314.28
314.392
314.513
314.636
314.755
314.863
314.953
315.018
315.052
315.052
315.018
314.953
314.863
314.755
314.636
314.513
314.392
314.28
314.195
311.004
311.069
311.156
311.25
311.346
311.438
311.522
311.592
311.643
311.669
311.669
311.643
311.592
311.522
311.438
311.346
311.25
311.156
311.069
311.004
307.843
307.889
307.95
308.018
308.086
308.152
308.212
308.262
308.298
308.317
308.317
308.298
308.262
308.212
308.152
308.086
308.018
307.95
307.889
307.843
304.702
304.73
304.767
304.807
304.849
304.888
304.924
304.954
304.976
304.987
304.987
304.976
304.954
304.924
304.888
304.849
304.807
304.767
304.73
304.702
301.575
301.584
301.596
301.61
301.624
301.637
301.649
301.659
301.666
301.67
301.67
301.666
301.659
301.649
301.637
301.624
301.61
301.596
301.584
301.575
324.658
324.801
324.98
325.171
325.364
325.55
325.718
325.857
325.958
326.01
326.01
325.958
325.857
325.718
325.55
325.364
325.171
324.98
324.801
324.658
321.236
321.357
321.511
321.677
321.844
322.005
322.15
322.271
322.358
322.403
322.403
322.358
322.271
322.15
322.005
321.844
321.677
321.511
321.357
321.236
317.873
317.973
318.103
318.243
318.385
318.521
318.644
318.746
318.819
318.857
318.857
318.819
318.746
318.644
318.521
318.385
318.243
318.103
317.973
317.873
314.56
314.64
314.746
314.861
314.976
315.087
315.188
315.271
315.331
315.363
315.363
315.331
315.271
315.188
315.087
314.976
314.861
314.746
314.64
314.56
311.286
311.348
311.43
311.519
311.609
311.695
311.774
311.839
311.885
311.91
311.91
311.885
311.839
311.774
311.695
311.609
311.519
311.43
311.348
311.286
308.043
308.087
308.146
308.209
308.274
308.335
308.391
308.438
308.471
308.488
308.488
308.471
308.438
308.391
308.335
308.274
308.209
308.146
308.087
308.043
304.823
304.849
304.884
304.922
304.961
304.998
305.031
305.059
305.079
305.09
305.09
305.079
305.059
305.031
304.998
304.961
304.922
304.884
304.849
304.823
301.615
301.624
301.636
301.648
301.661
301.674
301.685
301.694
301.701
301.705
301.705
301.701
301.694
301.685
301.674
301.661
301.648
301.636
301.624
301.615
325.371
325.505
325.674
325.853
326.033
326.205
326.36
326.488
326.58
326.629
326.629
326.58
326.488
326.36
326.205
326.033
325.853
325.674
325.505
325.371
321.848
321.962
322.108
322.263
322.418
322.568
322.702
322.813
322.893
322.934
322.934
322.893
322.813
322.702
322.568
322.418
322.263
322.108
321.962
321.848
318.388
318.482
318.604
318.735
318.867
318.993
319.107
319.201
319.268
319.303
319.303
319.268
319.201
319.107
318.993
318.867
318.735
318.604
318.482
318.388
314.978
315.054
315.154
315.261
315.369
315.472
315.565
315.642
315.697
315.725
315.725
315.697
315.642
315.565
315.472
315.369
315.261
315.154
315.054
314.978
311.61
311.668
311.746
311.829
311.913
311.993
312.065
312.125
312.168
312.19
312.19
312.168
312.125
312.065
311.993
311.913
311.829
311.746
311.668
311.61
308.274
308.315
308.371
308.43
308.49
308.547
308.599
308.641
308.672
308.688
308.688
308.672
308.641
308.599
308.547
308.49
308.43
308.371
308.315
308.274
304.961
304.986
305.019
305.054
305.09
305.125
305.156
305.181
305.2
305.209
305.209
305.2
305.181
305.156
305.125
305.09
305.054
305.019
304.986
304.961
301.661
301.67
301.681
301.693
301.705
301.716
301.727
301.735
301.741
301.745
301.745
301.741
301.735
301.727
301.716
301.705
301.693
301.681
301.67
301.661
326.176
326.302
326.46
326.626
326.793
326.952
327.094
327.211
327.295
327.339
327.339
327.295
327.211
327.094
326.952
326.793
326.626
326.46
326.302
326.176
322.54
322.647
322.783
322.927
323.072
323.209
323.332
323.434
323.506
323.544
323.544
323.506
323.434
323.332
323.209
323.072
322.927
322.783
322.647
322.54
318.969
319.057
319.172
319.294
319.416
319.532
319.637
319.722
319.784
319.816
319.816
319.784
319.722
319.637
319.532
319.416
319.294
319.172
319.057
318.969
315.451
315.522
315.615
315.715
315.815
315.91
315.995
316.066
316.116
316.142
316.142
316.116
316.066
315.995
315.91
315.815
315.715
315.615
315.522
315.451
311.976
312.031
312.103
312.181
312.258
312.332
312.399
312.453
312.492
312.513
312.513
312.492
312.453
312.399
312.332
312.258
312.181
312.103
312.031
311.976
308.535
308.573
308.625
308.68
308.736
308.789
308.836
308.875
308.903
308.917
308.917
308.903
308.875
308.836
308.789
308.736
308.68
308.625
308.573
308.535
305.117
305.14
305.171
305.204
305.238
305.27
305.298
305.321
305.338
305.347
305.347
305.338
305.321
305.298
305.27
305.238
305.204
305.171
305.14
305.117
301.714
301.721
301.732
301.743
301.754
301.765
301.774
301.782
301.788
301.791
301.791
301.788
301.782
301.774
301.765
301.754
301.743
301.732
301.721
301.714
327.074
327.192
327.339
327.493
327.647
327.792
327.922
328.028
328.104
328.144
328.144
328.104
328.028
327.922
327.792
327.647
327.493
327.339
327.192
327.074
323.312
323.412
323.538
323.672
323.805
323.931
324.044
324.136
324.202
324.236
324.236
324.202
324.136
324.044
323.931
323.805
323.672
323.538
323.412
323.312
319.617
319.7
319.807
319.92
320.032
320.139
320.234
320.312
320.367
320.396
320.396
320.367
320.312
320.234
320.139
320.032
319.92
319.807
319.7
319.617
315.978
316.045
316.132
316.224
316.316
316.403
316.481
316.545
316.59
316.614
316.614
316.59
316.545
316.481
316.403
316.316
316.224
316.132
316.045
315.978
312.384
312.435
312.503
312.575
312.646
312.714
312.775
312.824
312.86
312.878
312.878
312.86
312.824
312.775
312.714
312.646
312.575
312.503
312.435
312.384
308.825
308.862
308.91
308.961
309.012
309.061
309.104
309.139
309.165
309.178
309.178
309.165
309.139
309.104
309.061
309.012
308.961
308.91
308.862
308.825
305.291
305.313
305.342
305.373
305.403
305.432
305.458
305.48
305.495
305.503
305.503
305.495
305.48
305.458
305.432
305.403
305.373
305.342
305.313
305.291
301.772
301.779
301.789
301.799
301.81
301.819
301.828
301.835
301.84
301.843
301.843
301.84
301.835
301.828
301.819
301.81
301.799
301.789
301.779
301.772
328.066
328.176
328.311
328.454
328.595
328.727
328.845
328.941
329.01
329.045
329.045
329.01
328.941
328.845
328.727
328.595
328.454
328.311
328.176
328.066
324.164
324.257
324.375
324.498
324.62
324.735
324.837
324.92
324.98
325.01
325.01
324.98
324.92
324.837
324.735
324.62
324.498
324.375
324.257
324.164
320.333
320.41
320.509
320.613
320.717
320.814
320.9
320.971
321.021
321.047
321.047
321.021
320.971
320.9
320.814
320.717
320.613
320.509
320.41
320.333
316.56
316.623
316.703
316.788
316.873
316.952
317.023
317.081
317.122
317.143
317.143
317.122
317.081
317.023
316.952
316.873
316.788
316.703
316.623
316.56
312.835
312.883
312.945
313.012
313.077
313.139
313.194
313.239
313.271
313.287
313.287
313.271
313.239
313.194
313.139
313.077
313.012
312.945
312.883
312.835
309.146
309.18
309.225
309.272
309.319
309.363
309.403
309.435
309.457
309.469
309.469
309.457
309.435
309.403
309.363
309.319
309.272
309.225
309.18
309.146
305.484
305.504
305.531
305.559
305.587
305.614
305.637
305.657
305.67
305.677
305.677
305.67
305.657
305.637
305.614
305.587
305.559
305.531
305.504
305.484
301.836
301.843
301.852
301.862
301.871
301.88
301.888
301.894
301.899
301.901
301.901
301.899
301.894
301.888
301.88
301.871
301.862
301.852
301.843
301.836
329.151
329.253
329.379
329.51
329.638
329.759
329.865
329.952
330.013
330.045
330.045
330.013
329.952
329.865
329.759
329.638
329.51
329.379
329.253
329.151
325.097
325.184
325.292
325.405
325.517
325.621
325.714
325.789
325.842
325.87
325.87
325.842
325.789
325.714
325.621
325.517
325.405
325.292
325.184
325.097
321.117
321.189
321.28
321.376
321.47
321.558
321.637
321.7
321.745
321.768
321.768
321.745
321.7
321.637
321.558
321.47
321.376
321.28
321.189
321.117
317.198
317.256
317.33
317.409
317.486
317.558
317.622
317.674
317.711
317.73
317.73
317.711
317.674
317.622
317.558
317.486
317.409
317.33
317.256
317.198
313.329
313.373
313.431
313.492
313.552
313.608
313.658
313.698
313.727
313.742
313.742
313.727
313.698
313.658
313.608
313.552
313.492
313.431
313.373
313.329
309.498
309.529
309.57
309.614
309.657
309.697
309.733
309.762
309.782
309.793
309.793
309.782
309.762
309.733
309.697
309.657
309.614
309.57
309.529
309.498
305.694
305.713
305.738
305.764
305.79
305.814
305.835
305.852
305.865
305.871
305.871
305.865
305.852
305.835
305.814
305.79
305.764
305.738
305.713
305.694
301.907
301.913
301.921
301.93
301.939
301.947
301.954
301.96
301.964
301.966
301.966
301.964
301.96
301.954
301.947
301.939
301.93
301.921
301.913
301.907
330.331
330.426
330.541
330.661
330.778
330.887
330.983
331.061
331.116
331.144
331.144
331.116
331.061
330.983
330.887
330.778
330.661
330.541
330.426
330.331
326.111
326.191
326.291
326.395
326.496
326.591
326.674
326.741
326.789
326.814
326.814
326.789
326.741
326.674
326.591
326.496
326.395
326.291
326.191
326.111
321.969
322.035
322.119
322.207
322.293
322.373
322.443
322.5
322.541
322.561
322.561
322.541
322.5
322.443
322.373
322.293
322.207
322.119
322.035
321.969
317.891
317.944
318.013
318.084
318.155
318.22
318.278
318.325
318.358
318.375
318.375
318.358
318.325
318.278
318.22
318.155
318.084
318.013
317.944
317.891
313.865
313.906
313.959
314.015
314.07
314.121
314.166
314.202
314.228
314.241
314.241
314.228
314.202
314.166
314.121
314.07
314.015
313.959
313.906
313.865
309.88
309.909
309.947
309.987
310.026
310.062
310.094
310.12
310.138
310.148
310.148
310.138
310.12
310.094
310.062
310.026
309.987
309.947
309.909
309.88
305.923
305.94
305.963
305.987
306.011
306.032
306.052
306.067
306.078
306.084
306.084
306.078
306.067
306.052
306.032
306.011
305.987
305.963
305.94
305.923
301.984
301.989
301.997
302.005
302.013
302.02
302.027
302.032
302.036
302.037
302.037
302.036
302.032
302.027
302.02
302.013
302.005
301.997
301.989
301.984
331.603
331.69
331.796
331.906
332.012
332.111
332.197
332.267
332.316
332.341
332.341
332.316
332.267
332.197
332.111
332.012
331.906
331.796
331.69
331.603
327.204
327.278
327.369
327.464
327.556
327.642
327.717
327.777
327.82
327.842
327.842
327.82
327.777
327.717
327.642
327.556
327.464
327.369
327.278
327.204
322.887
322.948
323.025
323.105
323.183
323.256
323.319
323.37
323.406
323.425
323.425
323.406
323.37
323.319
323.256
323.183
323.105
323.025
322.948
322.887
318.637
318.686
318.749
318.815
318.879
318.938
318.99
319.032
319.061
319.076
319.076
319.061
319.032
318.99
318.938
318.879
318.815
318.749
318.686
318.637
314.443
314.481
314.529
314.58
314.63
314.676
314.717
314.749
314.772
314.784
314.784
314.772
314.749
314.717
314.676
314.63
314.58
314.529
314.481
314.443
310.291
310.318
310.353
310.389
310.425
310.458
310.486
310.51
310.526
310.535
310.535
310.526
310.51
310.486
310.458
310.425
310.389
310.353
310.318
310.291
306.17
306.185
306.206
306.228
306.25
306.269
306.287
306.301
306.311
306.316
306.316
306.311
306.301
306.287
306.269
306.25
306.228
306.206
306.185
306.17
302.066
302.071
302.078
302.086
302.093
302.1
302.105
302.11
302.113
302.115
302.115
302.113
302.11
302.105
302.1
302.093
302.086
302.078
302.071
302.066
332.963
333.043
333.14
333.24
333.336
333.425
333.503
333.565
333.609
333.632
333.632
333.609
333.565
333.503
333.425
333.336
333.24
333.14
333.043
332.963
328.372
328.439
328.523
328.61
328.693
328.771
328.838
328.892
328.93
328.95
328.95
328.93
328.892
328.838
328.771
328.693
328.61
328.523
328.439
328.372
323.867
323.923
323.993
324.067
324.137
324.203
324.26
324.306
324.338
324.354
324.354
324.338
324.306
324.26
324.203
324.137
324.067
323.993
323.923
323.867
319.434
319.479
319.536
319.596
319.654
319.708
319.754
319.792
319.818
319.832
319.832
319.818
319.792
319.754
319.708
319.654
319.596
319.536
319.479
319.434
315.059
315.094
315.138
315.185
315.23
315.272
315.308
315.337
315.358
315.368
315.368
315.358
315.337
315.308
315.272
315.23
315.185
315.138
315.094
315.059
310.73
310.754
310.786
310.819
310.852
310.881
310.907
310.928
310.943
310.95
310.95
310.943
310.928
310.907
310.881
310.852
310.819
310.786
310.754
310.73
306.432
306.447
306.466
306.486
306.505
306.523
306.539
306.551
306.56
306.565
306.565
306.56
306.551
306.539
306.523
306.505
306.486
306.466
306.447
306.432
302.154
302.159
302.165
302.172
302.178
302.184
302.19
302.194
302.197
302.198
302.198
302.197
302.194
302.19
302.184
302.178
302.172
302.165
302.159
302.154
334.397
334.471
334.56
334.651
334.738
334.818
334.888
334.944
334.983
335.003
335.003
334.983
334.944
334.888
334.818
334.738
334.651
334.56
334.471
334.397
329.601
329.663
329.74
329.819
329.895
329.964
330.025
330.073
330.107
330.124
330.124
330.107
330.073
330.025
329.964
329.895
329.819
329.74
329.663
329.601
324.897
324.948
325.013
325.08
325.144
325.203
325.254
325.295
325.324
325.339
325.339
325.324
325.295
325.254
325.203
325.144
325.08
325.013
324.948
324.897
320.27
320.311
320.364
320.419
320.471
320.519
320.561
320.595
320.618
320.631
320.631
320.618
320.595
320.561
320.519
320.471
320.419
320.364
320.311
320.27
315.705
315.737
315.778
315.82
315.861
315.899
315.932
315.958
315.976
315.985
315.985
315.976
315.958
315.932
315.899
315.861
315.82
315.778
315.737
315.705
311.189
311.212
311.241
311.271
311.3
311.327
311.351
311.369
311.382
311.389
311.389
311.382
311.369
311.351
311.327
311.3
311.271
311.241
311.212
311.189
306.707
306.721
306.738
306.756
306.774
306.79
306.804
306.815
306.823
306.827
306.827
306.823
306.815
306.804
306.79
306.774
306.756
306.738
306.721
306.707
302.246
302.251
302.256
302.263
302.268
302.274
302.279
302.282
302.285
302.286
302.286
302.285
302.282
302.279
302.274
302.268
302.263
302.256
302.251
302.246
335.871
335.939
336.021
336.103
336.183
336.255
336.318
336.368
336.403
336.421
336.421
336.403
336.368
336.318
336.255
336.183
336.103
336.021
335.939
335.871
330.859
330.916
330.987
331.058
331.127
331.19
331.245
331.288
331.319
331.334
331.334
331.319
331.288
331.245
331.19
331.127
331.058
330.987
330.916
330.859
325.947
325.994
326.054
326.114
326.173
326.226
326.272
326.309
326.335
326.348
326.348
326.335
326.309
326.272
326.226
326.173
326.114
326.054
325.994
325.947
321.119
321.157
321.205
321.255
321.303
321.347
321.385
321.415
321.436
321.447
321.447
321.436
321.415
321.385
321.347
321.303
321.255
321.205
321.157
321.119
316.359
316.389
316.426
316.465
316.502
316.536
316.566
316.589
316.606
316.614
316.614
316.606
316.589
316.566
316.536
316.502
316.465
316.426
316.389
316.359
311.653
311.674
311.701
311.728
311.755
311.779
311.801
311.817
311.829
311.835
311.835
311.829
311.817
311.801
311.779
311.755
311.728
311.701
311.674
311.653
306.985
306.997
307.013
307.03
307.046
307.06
307.073
307.083
307.09
307.094
307.094
307.09
307.083
307.073
307.06
307.046
307.03
307.013
306.997
306.985
302.339
302.343
302.348
302.354
302.359
302.364
302.368
302.372
302.374
302.375
302.375
302.374
302.372
302.368
302.364
302.359
302.354
302.348
302.343
302.339
337.295
337.358
337.433
337.509
337.582
337.648
337.705
337.75
337.782
337.798
337.798
337.782
337.75
337.705
337.648
337.582
337.509
337.433
337.358
337.295
332.059
332.112
332.177
332.243
332.306
332.364
332.413
332.453
332.48
332.494
332.494
332.48
332.453
332.413
332.364
332.306
332.243
332.177
332.112
332.059
326.938
326.982
327.037
327.093
327.146
327.195
327.237
327.27
327.294
327.306
327.306
327.294
327.27
327.237
327.195
327.146
327.093
327.037
326.982
326.938
321.913
321.948
321.993
322.039
322.083
322.123
322.157
322.185
322.204
322.214
322.214
322.204
322.185
322.157
322.123
322.083
322.039
321.993
321.948
321.913
316.967
316.994
317.029
317.064
317.099
317.13
317.157
317.178
317.193
317.201
317.201
317.193
317.178
317.157
317.13
317.099
317.064
317.029
316.994
316.967
312.081
312.101
312.126
312.151
312.176
312.198
312.217
312.233
312.243
312.249
312.249
312.243
312.233
312.217
312.198
312.176
312.151
312.126
312.101
312.081
307.24
307.251
307.266
307.281
307.296
307.31
307.321
307.33
307.337
307.34
307.34
307.337
307.33
307.321
307.31
307.296
307.281
307.266
307.251
307.24
302.424
302.428
302.433
302.438
302.443
302.447
302.451
302.454
302.456
302.458
302.458
302.456
302.454
302.451
302.447
302.443
302.438
302.433
302.428
302.424
338.422
338.48
338.551
338.623
338.69
338.752
338.805
338.847
338.877
338.892
338.892
338.877
338.847
338.805
338.752
338.69
338.623
338.551
338.48
338.422
332.972
333.022
333.084
333.146
333.205
333.259
333.305
333.342
333.367
333.381
333.381
333.367
333.342
333.305
333.259
333.205
333.146
333.084
333.022
332.972
327.668
327.71
327.762
327.814
327.865
327.911
327.95
327.981
328.003
328.014
328.014
328.003
327.981
327.95
327.911
327.865
327.814
327.762
327.71
327.668
322.483
322.517
322.559
322.603
322.644
322.682
322.714
322.74
322.758
322.767
322.767
322.758
322.74
322.714
322.682
322.644
322.603
322.559
322.517
322.483
317.395
317.42
317.453
317.487
317.52
317.549
317.574
317.594
317.608
317.615
317.615
317.608
317.594
317.574
317.549
317.52
317.487
317.453
317.42
317.395
312.379
312.397
312.421
312.445
312.468
312.489
312.507
312.522
312.532
312.537
312.537
312.532
312.522
312.507
312.489
312.468
312.445
312.421
312.397
312.379
307.415
307.426
307.44
307.455
307.469
307.482
307.492
307.501
307.507
307.51
307.51
307.507
307.501
307.492
307.482
307.469
307.455
307.44
307.426
307.415
302.482
302.486
302.491
302.496
302.5
302.504
302.508
302.511
302.513
302.514
302.514
302.513
302.511
302.508
302.504
302.5
302.496
302.491
302.486
302.482
)
;

boundaryField
{
    hotSide
    {
        type            fixedGradient;
        gradient        nonuniform List<scalar> 
400
(
250.737
251.749
253.777
256.822
260.891
265.989
272.125
279.307
287.543
296.841
307.21
318.658
331.191
344.816
359.538
375.363
392.294
410.334
429.486
449.752
253.055
254.05
256.041
259.034
263.035
268.054
274.1
281.184
289.317
298.509
308.771
320.112
332.541
346.066
360.692
376.425
393.27
411.23
430.307
450.505
255.565
256.537
258.485
261.416
265.338
270.263
276.204
283.174
291.188
300.259
310.399
321.621
333.934
347.347
361.868
377.502
394.254
412.128
431.126
451.251
258.223
259.17
261.069
263.927
267.757
272.574
278.395
285.237
293.117
302.053
312.059
323.149
335.336
348.63
363.038
378.567
395.222
413.007
431.924
451.974
260.957
261.875
263.717
266.494
270.223
274.92
280.609
287.31
295.046
303.836
313.699
324.651
336.706
349.875
364.168
379.59
396.147
413.842
432.677
452.654
263.651
264.538
266.32
269.012
272.632
277.204
282.754
289.309
296.895
305.536
315.254
326.067
337.99
351.036
365.215
380.533
396.995
414.605
433.362
453.269
266.151
267.008
268.731
271.336
274.849
279.297
284.712
291.125
298.567
307.065
316.645
327.326
339.127
352.059
366.133
381.356
397.732
415.264
433.952
453.796
268.274
269.103
270.772
273.3
276.717
281.055
286.35
292.638
299.953
308.328
317.788
328.357
340.053
352.888
366.875
382.018
398.322
415.79
434.421
454.215
269.827
270.635
272.262
274.732
278.076
282.33
287.534
293.728
300.95
309.232
318.604
329.09
340.709
353.474
367.397
382.482
398.736
416.157
434.748
454.506
270.65
271.446
273.051
275.49
278.793
283.002
288.157
294.301
301.472
309.705
319.03
329.472
341.05
353.778
367.667
382.722
398.948
416.346
434.916
454.655
270.65
271.446
273.051
275.49
278.793
283.002
288.157
294.301
301.472
309.705
319.03
329.472
341.05
353.778
367.667
382.722
398.948
416.346
434.916
454.655
269.827
270.635
272.262
274.732
278.076
282.33
287.534
293.728
300.95
309.232
318.604
329.09
340.709
353.474
367.397
382.482
398.736
416.157
434.748
454.506
268.274
269.103
270.772
273.3
276.717
281.055
286.35
292.638
299.953
308.328
317.788
328.357
340.053
352.888
366.875
382.018
398.322
415.79
434.421
454.215
266.151
267.008
268.731
271.336
274.849
279.297
284.712
291.125
298.567
307.065
316.645
327.326
339.127
352.059
366.133
381.356
397.732
415.264
433.952
453.796
263.651
264.538
266.32
269.012
272.632
277.204
282.754
289.309
296.895
305.536
315.254
326.067
337.99
351.036
365.215
380.533
396.995
414.605
433.362
453.269
260.957
261.875
263.717
266.494
270.223
274.92
280.609
287.31
295.046
303.836
313.699
324.651
336.706
349.875
364.168
379.59
396.147
413.842
432.677
452.654
258.223
259.17
261.069
263.927
267.757
272.574
278.395
285.237
293.117
302.053
312.059
323.149
335.336
348.63
363.038
378.567
395.222
413.007
431.924
451.974
255.565
256.537
258.485
261.416
265.338
270.263
276.204
283.174
291.188
300.259
310.399
321.621
333.934
347.347
361.868
377.502
394.254
412.128
431.126
451.251
253.055
254.05
256.041
259.034
263.035
268.054
274.1
281.184
289.317
298.509
308.771
320.112
332.541
346.066
360.692
376.425
393.27
411.23
430.307
450.505
250.737
251.749
253.777
256.822
260.891
265.989
272.125
279.307
287.543
296.841
307.21
318.658
331.191
344.816
359.538
375.363
392.294
410.334
429.486
449.752
)
;
    }
    coldSide
    {
        type            mixed;
        refValue        uniform 300;
        refGradient     uniform 0;
        valueFraction   uniform 0.991591;
        source          uniform 0;
        value           nonuniform List<scalar> 
400
(
300.012
300.012
300.012
300.013
300.013
300.013
300.013
300.014
300.014
300.014
300.015
300.015
300.016
300.017
300.017
300.018
300.019
300.02
300.02
300.021
300.012
300.012
300.012
300.013
300.013
300.013
300.013
300.014
300.014
300.014
300.015
300.015
300.016
300.017
300.017
300.018
300.019
300.02
300.02
300.021