/*--------------------------------*- C++ -*----------------------------------*\
| =========                 |                                                 |
| \\      /  F ield         | OpenFOAM: The Open Source CFD Toolbox           |
|  \\    /   O peration     | Version:  2212                                  |
|   \\  /    A nd           | Website:  www.openfoam.com                      |
|    \\/     M anipulation  |                                                 |
\*---------------------------------------------------------------------------*/
FoamFile
{
    version     2.0;
    format      ascii;
    arch        "LSB;label=32;scalar=64";
    class       volScalarField;
    location    "0";
    object      T;
}
// * * * * * * * * * * * * * * * * * * * * * * * * * * * * * * * * * * * * * //

dimensions      [0 0 0 1 0 0 0];

internalField   nonuniform List<scalar> 
3200
(
345.843
346.822
347.522
348.648
349.191
349.98
350.716
351.039
351.402
351.689
351.246
351.128
350.758
350.291
349.554
348.667
347.629
346.618
345.233
344.493
339.883
340.734
341.3
342.26
342.71
343.448
344.087
344.347
344.652
344.92
344.555
344.389
344.102
343.72
343.074
342.319
341.405
340.525
339.352
338.693
333.892
334.571
334.985
335.819
336.193
336.833
337.368
337.638
337.87
338.084
337.774
337.621
337.337
337.076
336.588
335.891
335.109
334.398
333.43
332.842
327.821
328.348
328.68
329.357
329.636
330.204
330.618
330.854
331.069
331.217
330.97
330.8
330.588
330.423
330.04
329.396
328.719
328.254
327.451
326.938
321.666
322.128
322.331
322.875
323.072
323.528
323.836
324.062
324.22
324.329
324.154
324.01
323.814
323.733
323.423
322.875
322.317
322.031
321.433
321.022
315.531
315.872
315.969
316.374
316.511
316.839
317.032
317.236
317.344
317.401
317.288
317.2
317.013
317.035
316.76
316.346
315.98
315.757
315.353
315.064
309.319
309.544
309.614
309.839
309.91
310.16
310.219
310.374
310.451
310.471
310.399
310.338
310.251
310.261
310.077
309.787
309.633
309.485
309.189
309.034
303.111
303.199
303.218
303.301
303.311
303.395
303.435
303.481
303.513
303.511
303.503
303.472
303.428
303.45
303.377
303.288
303.233
303.166
303.074
303.019
346.736
347.852
348.576
349.525
350.354
351.171
351.838
351.979
352.236
352.59
352.197
352.178
351.689
351.173
350.449
349.762
348.929
347.724
346.348
345.262
340.599
341.584
342.185
343.014
343.741
344.426
345.059
345.087
345.366
345.651
345.32
345.278
344.834
344.459
343.775
343.188
342.467
341.45
340.232
339.342
334.439
335.305
335.766
336.493
337.06
337.654
338.192
338.21
338.431
338.687
338.41
338.315
337.989
337.693
337.058
336.585
335.969
335.12
334.105
333.382
328.227
328.952
329.316
329.94
330.412
330.878
331.28
331.289
331.507
331.698
331.501
331.335
331.166
330.878
330.323
329.969
329.427
328.781
327.935
327.433
321.968
322.525
322.832
323.38
323.716
324.015
324.376
324.35
324.508
324.664
324.52
324.34
324.305
324.025
323.601
323.32
322.907
322.47
321.767
321.454
315.707
316.055
316.315
316.767
316.986
317.126
317.431
317.428
317.534
317.618
317.491
317.373
317.378
317.162
316.832
316.693
316.371
316.12
315.587
315.38
309.446
309.667
309.813
310.105
310.214
310.276
310.477
310.463
310.544
310.581
310.505
310.395
310.466
310.316
310.092
310.058
309.868
309.703
309.366
309.261
303.171
303.232
303.296
303.408
303.428
303.451
303.496
303.507
303.564
303.569
303.527
303.471
303.522
303.476
303.392
303.378
303.302
303.252
303.138
303.107
347.839
348.593
349.877
350.839
351.848
352.497
353.012
353.292
353.805
353.696
353.592
353.596
352.952
352.259
351.839
350.923
350.034
349.007
347.835
346.586
341.537
342.176
343.277
344.151
344.992
345.548
346.056
346.225
346.678
346.586
346.523
346.478
345.929
345.354
344.968
344.158
343.402
342.511
341.523
340.434
335.241
335.713
336.674
337.413
338.122
338.577
339.002
339.171
339.582
339.484
339.418
339.347
338.897
338.412
338.066
337.359
336.728
336.013
335.21
334.254
328.919
329.285
330.052
330.631
331.243
331.609
331.939
332.082
332.424
332.38
332.306
332.239
331.845
331.452
331.177
330.569
330.035
329.487
328.845
328.083
322.567
322.803
323.445
323.863
324.301
324.606
324.867
324.952
325.222
325.216
325.176
325.113
324.801
324.465
324.253
323.789
323.386
322.992
322.454
321.864
316.185
316.277
316.78
317.048
317.359
317.598
317.762
317.838
318.051
317.994
317.972
317.974
317.731
317.464
317.327
317.019
316.724
316.433
316.07
315.639
309.752
309.779
310.108
310.253
310.424
310.58
310.648
310.715
310.857
310.789
310.795
310.795
310.662
310.53
310.4
310.221
310.01
309.856
309.672
309.42
303.272
303.264
303.379
303.457
303.484
303.528
303.565
303.587
303.647
303.626
303.628
303.606
303.564
303.555
303.485
303.421
303.34
303.307
303.25
303.184
348.945
349.735
351.122
352.127
353.016
353.854
354.356
354.612
355.027
355.023
355.06
354.82
354.254
353.708
353.153
352.342
351.208
350.072
348.932
347.836
342.516
343.187
344.339
345.253
346.008
346.748
347.168
347.4
347.751
347.758
347.751
347.559
347.078
346.567
346.183
345.38
344.403
343.47
342.482
341.556
336.036
336.597
337.586
338.377
338.998
339.613
339.983
340.152
340.46
340.43
340.424
340.275
339.886
339.41
339.117
338.415
337.639
336.84
335.998
335.247
329.544
329.974
330.819
331.414
331.943
332.428
332.762
332.864
333.125
333.075
333.111
333
332.688
332.211
332.031
331.403
330.855
330.19
329.476
328.906
323.068
323.353
324.033
324.459
324.869
325.257
325.504
325.587
325.789
325.771
325.793
325.688
325.459
325.069
324.907
324.429
324.069
323.483
322.931
322.46
316.536
316.691
317.177
317.503
317.794
318.069
318.23
318.293
318.45
318.439
318.465
318.353
318.239
317.925
317.826
317.424
317.191
316.782
316.347
316.029
309.958
309.998
310.329
310.53
310.718
310.855
310.955
311.004
311.088
311.047
311.124
311.035
310.934
310.761
310.704
310.448
310.322
310.088
309.806
309.648
303.356
303.355
303.457
303.551
303.585
303.621
303.674
303.701
303.728
303.721
303.733
303.706
303.676
303.599
303.588
303.515
303.466
303.358
303.275
303.234
350.113
351.107
352.369
353.568
354.504
355.106
355.752
356.06
356.462
356.308
356.341
356.147
355.633
355.059
354.425
353.669
352.421
351.384
350.162
349.101
343.519
344.363
345.415
346.475
347.279
347.748
348.364
348.617
348.96
348.843
348.866
348.695
348.265
347.78
347.226
346.567
345.489
344.575
343.546
342.646
336.868
337.593
338.432
339.416
340.033
340.454
340.958
341.145
341.441
341.3
341.406
341.219
340.89
340.48
340.017
339.433
338.556
337.711
336.947
336.184
330.228
330.793
331.516
332.267
332.738
333.163
333.578
333.634
333.868
333.754
333.891
333.784
333.498
333.157
332.754
332.317
331.59
330.871
330.306
329.658
323.562
324.007
324.562
325.102
325.43
325.834
326.182
326.116
326.315
326.22
326.382
326.306
326.063
325.803
325.472
325.2
324.598
324.042
323.551
323.075
316.885
317.185
317.596
317.962
318.163
318.456
318.735
318.675
318.796
318.749
318.873
318.812
318.587
318.456
318.177
318.029
317.572
317.207
316.824
316.522
310.154
310.341
310.574
310.793
310.922
311.07
311.289
311.24
311.291
311.291
311.361
311.308
311.151
311.085
310.877
310.804
310.58
310.324
310.111
309.964
303.415
303.467
303.541
303.632
303.668
303.7
303.78
303.758
303.781
303.791
303.793
303.795
303.737
303.716
303.626
303.63
303.536
303.475
303.411
303.345
351.344
352.433
353.664
354.803
355.73
356.461
357.107
357.353
357.72
357.903
357.81
357.529
357.195
356.478
355.828
355.07
353.832
352.654
351.462
350.433
344.625
345.478
346.55
347.588
348.315
348.975
349.574
349.676
350.071
350.249
350.161
349.874
349.608
348.97
348.469
347.801
346.708
345.664
344.662
343.801
337.823
338.532
339.408
340.352
340.875
341.493
341.978
341.993
342.395
342.54
342.512
342.194
341.988
341.461
341.035
340.5
339.56
338.676
337.843
337.114
331.003
331.563
332.247
333.049
333.501
334.004
334.37
334.335
334.72
334.784
334.823
334.568
334.386
333.956
333.599
333.153
332.415
331.65
331.029
330.396
324.181
324.599
325.059
325.737
326.081
326.447
326.751
326.688
327.009
327.006
327.048
326.956
326.779
326.45
326.164
325.807
325.233
324.63
324.212
323.669
317.342
317.572
317.962
318.418
318.647
318.866
319.145
319.106
319.314
319.255
319.322
319.286
319.126
318.907
318.678
318.437
318.02
317.629
317.326
316.937
310.454
310.568
310.795
311.095
311.199
311.334
311.53
311.467
311.62
311.57
311.583
311.602
311.497
311.387
311.222
311.08
310.834
310.581
310.388
310.213
303.497
303.538
303.619
303.722
303.764
303.807
303.869
303.834
303.896
303.892
303.884
303.882
303.861
303.835
303.74
303.713
303.628
303.539
303.487
303.426
352.55
353.557
354.899
356.027
356.877
357.525
358.133
358.677
359.07
359.237
359.047
358.747
358.483
357.764
356.925
355.977
354.96
353.791
352.635
351.233
345.64
346.492
347.637
348.573
349.345
349.929
350.438
350.863
351.244
351.345
351.186
350.98
350.728
350.101
349.38
348.553
347.665
346.642
345.657
344.431
338.663
339.374
340.343
341.106
341.741
342.317
342.749
343.015
343.385
343.385
343.329
343.173
342.981
342.409
341.866
341.134
340.359
339.495
338.669
337.655
331.659
332.227
333.01
333.696
334.129
334.69
335.025
335.186
335.539
335.464
335.463
335.408
335.153
334.694
334.317
333.671
332.999
332.328
331.687
330.86
324.673
325.086
325.663
326.218
326.531
327.011
327.279
327.385
327.633
327.608
327.604
327.56
327.324
327.029
326.776
326.175
325.645
325.117
324.699
324.024
317.646
317.932
318.308
318.72
318.939
319.274
319.496
319.588
319.767
319.746
319.735
319.722
319.53
319.313
319.144
318.721
318.322
317.915
317.692
317.177
310.596
310.778
310.974
311.252
311.354
311.548
311.707
311.781
311.896
311.88
311.848
311.863
311.719
311.611
311.516
311.275
310.987
310.782
310.623
310.32
303.539
303.637
303.671
303.787
303.785
303.87
303.92
303.936
303.992
303.995
303.97
303.981
303.939
303.894
303.862
303.781
303.688
303.617
303.547
303.462
353.659
354.673
355.83
357.146
358.038
358.737
359.554
360.079
360.128
360.209
360.25
360.155
359.78
358.902
358.072
357.171
356.193
354.809
353.617
352.279
346.588
347.409
348.425
349.558
350.307
350.936
351.663
352.109
352.138
352.232
352.234
352.195
351.879
351.071
350.382
349.638
348.76
347.539
346.522
345.322
339.472
340.156
341.01
341.956
342.61
343.154
343.749
344.127
344.156
344.241
344.205
344.264
343.964
343.261
342.641
342.049
341.278
340.279
339.389
338.38
332.369
332.893
333.57
334.348
334.818
335.337
335.816
336.133
336.149
336.265
336.172
336.267
336.039
335.412
334.892
334.434
333.771
333.023
332.226
331.462
325.213
325.594
326.161
326.724
327.087
327.49
327.876
328.091
328.108
328.244
328.144
328.24
328.095
327.544
327.153
326.811
326.233
325.742
325.097
324.485
318.064
318.324
318.728
319.1
319.359
319.694
319.9
320.06
320.093
320.215
320.112
320.16
320.115
319.718
319.401
319.145
318.702
318.429
317.962
317.508
310.86
311.018
311.234
311.472
311.619
311.848
311.965
312.041
312.087
312.139
312.067
312.126
312.079
311.877
311.654
311.519
311.244
311.106
310.795
310.535
303.625
303.706
303.761
303.847
303.915
303.976
304.023
304.044
304.057
304.066
304.038
304.064
304.02
303.99
303.901
303.851
303.787
303.72
303.619
303.527
354.461
355.625
356.654
358.013
358.992
359.963
360.759
361.366
361.68
361.292
361.25
361.283
360.865
359.999
359.074
358.193
357.197
355.875
354.526
353.288
347.278
348.269
349.124
350.269
351.174
352.033
352.735
353.249
353.494
353.137
353.133
353.172
352.797
352.012
351.221
350.497
349.64
348.473
347.297
346.25
340.11
340.871
341.587
342.489
343.348
344.06
344.687
345.061
345.264
345.011
345.012
344.984
344.753
344.051
343.354
342.763
342.024
341.041
340.042
339.173
332.879
333.449
334.061
334.725
335.49
336.051
336.575
336.938
337.029
336.928
336.921
336.782
336.677
336.045
335.514
334.993
334.376
333.609
332.756
332.059
325.646
326.053
326.526
327.026
327.605
328.019
328.457
328.756
328.814
328.759
328.807
328.615
328.587
328.062
327.627
327.22
326.705
326.133
325.527
324.952
318.356
318.673
319.013
319.308
319.744
320.008
320.338
320.562
320.566
320.588
320.623
320.453
320.457
320.082
319.726
319.476
319.116
318.631
318.3
317.877
311.024
311.248
311.462
311.579
311.872
312.022
312.224
312.387
312.352
312.382
312.381
312.297
312.295
312.082
311.851
311.703
311.515
311.172
311.011
310.785
303.687
303.77
303.848
303.883
303.989
304.025
304.113
304.149
304.144
304.145
304.159
304.132
304.126
304.063
303.957
303.926
303.891
303.737
303.698
303.62
355.373
356.492
357.77
358.933
359.975
361.076
361.638
362.342
362.66
362.559
362.497
362.276
361.77
360.985
360.293
359.296
357.932
357.072
355.553
354.278
348.038
349.044
350.117
351.075
352.026
352.967
353.447
354.135
354.385
354.252
354.186
354.019
353.614
352.87
352.332
351.447
350.273
349.528
348.185
347.095
340.704
341.572
342.399
343.206
344.033
344.83
345.245
345.875
346.06
345.926
345.87
345.763
345.421
344.754
344.313
343.557
342.572
341.989
340.809
339.94
333.352
334.015
334.669
335.37
336.057
336.661
337.033
337.564
337.751
337.617
337.516
337.452
337.214
336.656
336.271
335.651
334.899
334.402
333.388
332.747
325.992
326.477
326.928
327.507
328.088
328.501
328.821
329.225
329.404
329.286
329.188
329.102
328.95
328.569
328.227
327.748
327.196
326.772
325.94
325.519
318.569
318.935
319.207
319.666
320.092
320.373
320.619
320.891
321.024
320.933
320.85
320.772
320.689
320.411
320.202
319.846
319.459
319.1
318.528
318.262
311.138
311.347
311.51
311.831
312.085
312.243
312.387
312.536
312.63
312.594
312.505
312.448
312.411
312.278
312.141
311.906
311.733
311.471
311.161
310.982
303.736
303.784
303.847
303.959
304.052
304.098
304.15
304.197
304.242
304.23
304.18
304.144
304.164
304.122
304.071
304.007
303.912
303.848
303.75
303.695
356.202
357.316
358.772
359.718
361.041
361.973
362.501
363.18
363.667
363.634
363.549
363.207
362.706
361.882
361.37
360.373
359.056
357.778
356.336
355.028
348.754
349.713
350.955
351.779
352.914
353.791
354.212
354.787
355.207
355.178
355.151
354.834
354.391
353.643
353.217
352.377
351.197
350.124
348.883
347.777
341.328
342.105
343.153
343.827
344.803
345.585
345.9
346.39
346.771
346.733
346.716
346.439
346.03
345.424
345.021
344.334
343.346
342.451
341.383
340.515
333.88
334.441
335.338
335.898
336.67
337.304
337.544
337.977
338.289
338.273
338.251
337.969
337.679
337.204
336.847
336.284
335.501
334.781
333.883
333.183
326.39
326.763
327.505
327.96
328.552
329.011
329.225
329.572
329.816
329.785
329.751
329.478
329.331
328.98
328.689
328.25
327.62
327.086
326.352
325.845
318.923
319.093
319.663
319.981
320.418
320.72
320.859
321.132
321.338
321.346
321.259
321.048
320.952
320.704
320.512
320.212
319.718
319.366
318.858
318.503
311.409
311.455
311.81
311.999
312.232
312.428
312.516
312.662
312.851
312.82
312.745
312.642
312.59
312.451
312.331
312.13
311.797
311.638
311.346
311.129
303.818
303.841
303.952
304.013
304.101
304.169
304.189
304.255
304.306
304.307
304.255
304.26
304.244
304.169
304.126
304.064
303.963
303.888
303.805
303.763
357.05
358.361
359.635
360.548
361.89
362.683
363.208
363.903
364.231
364.37
364.192
363.944
363.597
363.021
362.161
360.905
359.781
358.67
357.267
355.758
349.556
350.671
351.703
352.501
353.627
354.376
354.825
355.424
355.675
355.818
355.685
355.453
355.154
354.693
353.909
352.785
351.855
350.868
349.715
348.411
341.989
342.916
343.749
344.465
345.413
346.035
346.404
346.903
347.084
347.291
347.167
346.944
346.675
346.312
345.674
344.675
343.954
343.041
342.102
341.026
334.391
335.171
335.815
336.406
337.178
337.662
337.971
338.407
338.535
338.653
338.653
338.457
338.222
337.933
337.397
336.576
335.996
335.232
334.476
333.602
326.776
327.384
327.895
328.359
328.924
329.297
329.569
329.901
329.982
330.053
330.086
329.952
329.754
329.548
329.104
328.457
328.049
327.435
326.808
326.155
319.15
319.591
319.939
320.282
320.648
320.953
321.149
321.386
321.449
321.473
321.516
321.383
321.271
321.128
320.817
320.357
320.063
319.638
319.153
318.695
311.508
311.791
311.972
312.217
312.394
312.591
312.693
312.839
312.902
312.909
312.949
312.845
312.795
312.73
312.502
312.239
312.035
311.842
311.524
311.241
303.87
303.947
304.015
304.105
304.157
304.229
304.247
304.314
304.319
304.347
304.34
304.305
304.277
304.281
304.177
304.1
304.041
303.968
303.872
303.76
357.69
358.927
360.201
361.486
362.562
363.319
363.778
364.734
364.848
364.985
365.119
364.738
364.146
363.848
362.822
361.676
360.529
359.244
357.852
356.352
350.081
351.117
352.217
353.337
354.252
354.928
355.284
356.161
356.209
356.393
356.506
356.148
355.651
355.369
354.497
353.489
352.523
351.362
350.213
348.881
342.433
343.305
344.229
345.132
345.923
346.494
346.792
347.559
347.559
347.773
347.864
347.541
347.082
346.857
346.142
345.289
344.476
343.499
342.546
341.422
334.777
335.471
336.237
336.906
337.56
338.01
338.29
338.997
338.961
339.102
339.228
338.933
338.56
338.364
337.778
337.101
336.417
335.6
334.844
333.901
327.081
327.648
328.213
328.721
329.199
329.521
329.813
330.398
330.29
330.436
330.535
330.291
329.984
329.849
329.402
328.918
328.332
327.668
327.093
326.365
319.362
319.773
320.179
320.529
320.841
321.063
321.3
321.718
321.644
321.775
321.807
321.65
321.404
321.327
321.049
320.699
320.264
319.779
319.377
318.833
311.631
311.873
312.116
312.347
312.504
312.66
312.8
313.014
313.023
313.099
313.083
313.037
312.829
312.827
312.667
312.45
312.204
311.907
311.661
311.322
303.897
303.976
304.062
304.136
304.188
304.245
304.303
304.373
304.354
304.405
304.391
304.365
304.3
304.298
304.243
304.177
304.107
303.979
303.922
303.791
358.242
359.479
360.816
362.178
363.453
364.074
364.649
365.293
365.613
365.819
365.679
365.325
364.987
364.604
363.431
362.383
361.113
359.751
358.394
356.956
350.535
351.594
352.718
353.932
355.034
355.525
356.015
356.591
356.91
357.071
356.955
356.635
356.412
356.037
354.985
354.118
353.001
351.856
350.651
349.432
342.825
343.695
344.66
345.69
346.573
346.987
347.439
347.913
348.175
348.316
348.225
347.951
347.841
347.434
346.543
345.895
344.878
343.935
342.878
341.849
335.102
335.798
336.569
337.403
338.156
338.457
338.851
339.262
339.441
339.545
339.493
339.235
339.201
338.829
338.088
337.606
336.795
335.974
335.09
334.29
327.397
327.872
328.438
329.105
329.718
329.898
330.206
330.578
330.69
330.75
330.789
330.523
330.575
330.184
329.632
329.293
328.645
327.948
327.313
326.702
319.626
319.897
320.303
320.773
321.241
321.39
321.582
321.871
321.914
321.945
322.046
321.789
321.854
321.547
321.172
320.957
320.488
319.958
319.542
319.07
311.81
311.948
312.162
312.466
312.762
312.809
312.959
313.148
313.181
313.201
313.25
313.066
313.097
312.953
312.715
312.556
312.316
311.975
311.726
311.486
303.985
303.981
304.076
304.172
304.309
304.275
304.356
304.403
304.428
304.42
304.428
304.39
304.386
304.337
304.24
304.204
304.148
304.019
303.927
303.87
358.654
359.911
361.269
362.468
363.713
364.666
365.24
365.873
365.956
366.181
366.263
365.787
365.495
364.94
363.801
362.962
361.758
360.135
358.736
357.58
350.89
351.975
353.148
354.194
355.234
356.078
356.579
357.153
357.158
357.428
357.443
357.035
356.801
356.348
355.327
354.621
353.564
352.15
350.966
350
343.154
344.072
344.974
345.886
346.747
347.496
347.926
348.431
348.392
348.631
348.598
348.276
348.097
347.709
346.831
346.28
345.384
344.199
343.158
342.371
335.362
336.087
336.821
337.561
338.275
338.868
339.223
339.64
339.589
339.843
339.767
339.532
339.39
339.071
338.353
337.906
337.192
336.203
335.318
334.69
327.556
328.057
328.671
329.225
329.822
330.285
330.531
330.817
330.786
331.041
330.95
330.784
330.643
330.397
329.853
329.473
328.958
328.162
327.474
327.005
319.738
320.1
320.479
320.887
321.339
321.692
321.814
321.994
321.967
322.209
322.141
322.001
321.888
321.719
321.359
321.039
320.725
320.137
319.673
319.318
311.868
312.095
312.3
312.559
312.841
313.027
313.097
313.236
313.209
313.343
313.293
313.23
313.143
313.023
312.847
312.622
312.461
312.081
311.816
311.576
303.98
304.059
304.131
304.213
304.302
304.381
304.373
304.435
304.413
304.481
304.461
304.451
304.418
304.364
304.316
304.217
304.188
304.051
303.945
303.901
358.95
360.253
361.785
362.88
364.131
365.026
365.778
366.121
366.519
366.777
366.728
366.277
365.978
365.317
364.272
363.206
362.375
360.634
359.009
357.832
351.166
352.256
353.56
354.545
355.652
356.373
357.062
357.375
357.717
357.911
357.873
357.488
357.213
356.661
355.738
354.806
354.043
352.576
351.165
350.174
343.355
344.216
345.353
346.202
347.14
347.682
348.331
348.62
348.885
349.015
348.967
348.699
348.458
347.999
347.161
346.415
345.733
344.509
343.325
342.511
335.522
336.2
337.135
337.81
338.624
338.992
339.56
339.829
340.018
340.174
340.06
339.859
339.678
339.306
338.583
338.026
337.436
336.434
335.494
334.822
327.647
328.202
328.921
329.433
330.088
330.297
330.772
331.048
331.157
331.284
331.132
331.011
330.891
330.601
330.028
329.586
329.145
328.348
327.605
327.131
319.776
320.191
320.699
321.054
321.537
321.626
321.972
322.257
322.288
322.377
322.263
322.184
322.13
321.911
321.468
321.171
320.861
320.242
319.724
319.408
311.895
312.132
312.459
312.653
312.939
312.989
313.201
313.396
313.398
313.464
313.365
313.346
313.352
313.152
312.862
312.768
312.562
312.154
311.863
311.668
303.987
304.052
304.192
304.254
304.33
304.327
304.436
304.498
304.49
304.511
304.494
304.466
304.48
304.416
304.299
304.284
304.211
304.074
303.976
303.914
359.231
360.672
362.04
363.122
364.339
365.25
365.999
366.533
366.754
367.053
366.93
366.516
366.295
365.587
364.694
363.549
362.424
360.721
359.249
358.065
351.447
352.644
353.798
354.7
355.837
356.568
357.226
357.674
357.909
358.199
358.089
357.703
357.472
356.919
356.142
355.043
354.133
352.667
351.393
350.427
343.623
344.588
345.557
346.289
347.313
347.904
348.507
348.845
349.102
349.295
349.187
348.868
348.669
348.214
347.587
346.59
345.865
344.609
343.569
342.762
335.768
336.508
337.334
337.865
338.716
339.213
339.712
340.038
340.2
340.32
340.29
339.997
339.799
339.487
338.951
338.142
337.519
336.519
335.646
335.038
327.88
328.399
329.092
329.428
330.102
330.464
330.89
331.2
331.322
331.396
331.372
331.137
330.892
330.728
330.334
329.659
329.166
328.407
327.756
327.312
319.958
320.262
320.84
321.077
321.521
321.73
322.063
322.343
322.413
322.424
322.43
322.249
322.067
321.991
321.667
321.189
320.845
320.301
319.861
319.578
312.019
312.165
312.515
312.671
312.952
313.029
313.275
313.452
313.457
313.47
313.495
313.338
313.253
313.235
313.027
312.731
312.527
312.204
311.905
311.784
304.015
304.071
304.212
304.237
304.343
304.351
304.464
304.498
304.51
304.534
304.53
304.458
304.441
304.44
304.352
304.275
304.199
304.078
303.988
303.956
359.379
360.985
362.208
363.187
364.702
365.628
366.352
366.669
367.071
367.292
367.203
366.713
366.356
365.865
365.001
363.727
362.488
360.959
359.338
358.24
351.554
352.88
353.942
354.758
356.098
356.94
357.524
357.786
358.156
358.394
358.269
357.803
357.543
357.114
356.395
355.273
354.117
352.864
351.511
350.587
343.704
344.774
345.659
346.33
347.438
348.234
348.682
348.894
349.219
349.458
349.335
348.91
348.71
348.35
347.814
346.767
345.772
344.679
343.645
342.932
335.836
336.669
337.384
337.888
338.799
339.476
339.847
340.033
340.29
340.505
340.362
340.039
339.888
339.575
339.189
338.293
337.48
336.485
335.717
335.213
327.921
328.535
329.113
329.484
330.18
330.708
330.998
331.185
331.355
331.511
331.409
331.169
331.022
330.796
330.537
329.818
329.149
328.34
327.761
327.515
319.975
320.391
320.838
321.036
321.565
321.964
322.149
322.301
322.441
322.511
322.428
322.301
322.161
322.014
321.832
321.332
320.823
320.209
319.83
319.725
312.019
312.237
312.527
312.655
312.967
313.185
313.307
313.373
313.499
313.515
313.462
313.42
313.3
313.233
313.134
312.82
312.51
312.149
311.915
311.886
304.036
304.088
304.199
304.229
304.347
304.43
304.462
304.474
304.546
304.527
304.498
304.501
304.44
304.433
304.418
304.294
304.181
304.077
303.988
304.007
359.544
361.087
362.232
363.556
364.816
365.645
366.389
366.858
367.306
367.485
367.42
366.824
366.479
365.817
365.013
363.927
362.222
361.067
359.459
358.331
351.712
353.021
354.006
355.069
356.221
356.951
357.571
358.018
358.343
358.539
358.49
357.888
357.642
357.078
356.386
355.397
353.934
352.945
351.572
350.632
343.833
344.873
345.76
346.667
347.633
348.166
348.72
349.164
349.381
349.589
349.529
348.989
348.807
348.304
347.803
346.895
345.663
344.818
343.668
342.886
335.881
336.701
337.464
338.261
339.018
339.412
339.891
340.267
340.457
340.627
340.566
340.088
339.939
339.563
339.174
338.415
337.399
336.67
335.763
335.109
327.918
328.548
329.162
329.8
330.369
330.665
331.021
331.339
331.525
331.65
331.618
331.18
331.063
330.785
330.514
329.917
329.127
328.533
327.824
327.344
319.995
320.401
320.828
321.333
321.702
321.929
322.177
322.385
322.603
322.612
322.598
322.283
322.195
322.027
321.817
321.398
320.804
320.392
319.885
319.544
312.023
312.249
312.505
312.833
313.039
313.178
313.336
313.447
313.608
313.579
313.555
313.363
313.306
313.24
313.105
312.878
312.47
312.242
311.926
311.74
304.029
304.105
304.227
304.285
304.376
304.425
304.46
304.5
304.563
304.567
304.536
304.442
304.443
304.446
304.383
304.317
304.175
304.096
303.997
303.916
359.513
361.15
362.252
363.821
364.741
365.557
366.471
366.928
367.28
367.359
367.47
366.766
366.45
365.845
365.031
363.917
362.407
361.006
359.445
358.286
351.673
353.091
354.032
355.415
356.136
356.849
357.653
358.058
358.354
358.442
358.532
357.92
357.667
357.16
356.478
355.47
354.178
352.966
351.556
350.632
343.814
344.966
345.78
346.913
347.552
348.117
348.84
349.176
349.441
349.534
349.534
349.025
348.818
348.42
347.879
346.939
345.891
344.896
343.655
342.938
335.918
336.823
337.509
338.393
338.964
339.377
340.012
340.213
340.494
340.595
340.516
340.096
339.933
339.637
339.224
338.433
337.572
336.761
335.769
335.212
327.989
328.655
329.202
329.866
330.299
330.647
331.119
331.277
331.583
331.596
331.538
331.182
331.052
330.856
330.533
329.912
329.26
328.61
327.845
327.445
320.043
320.473
320.877
321.384
321.664
321.923
322.215
322.377
322.605
322.56
322.53
322.309
322.17
322.091
321.834
321.406
320.912
320.443
319.916
319.643
312.09
312.275
312.496
312.865
313.018
313.184
313.303
313.439
313.549
313.534
313.537
313.418
313.311
313.277
313.15
312.861
312.547
312.32
311.969
311.809
304.064
304.114
304.2
304.329
304.363
304.438
304.457
304.515
304.53
304.533
304.533
304.492
304.459
304.438
304.414
304.329
304.222
304.124
304.018
303.942
)
;

boundaryField
{
    hotSide
    {
        type            fixedGradient;
        gradient        nonuniform List<scalar> 
400
(
469.784
484.586
498.977
512.893
526.271
539.047
551.161
562.553
573.168
582.951
591.853
599.828
606.834
612.833
617.795
621.691
624.501
626.208
626.804
626.284
482.519
497.74
512.54
526.854
540.615
553.759
566.223
577.947
588.873
598.945
608.112
616.327
623.546
629.732
634.852
638.876
641.785
643.561
644.193
643.679
493.959
509.557
524.725
539.396
553.503
566.978
579.758
591.781
602.987
613.32
622.726
631.158
638.571
644.926
650.188
654.33
657.328
659.166
659.834
659.326
504.028
519.959
535.452
550.438
564.849
578.617
591.676
603.962
615.416
625.979
635.597
644.22
651.804
658.308
663.698
667.943
671.021
672.916
673.614
673.114
512.663
528.879
544.651
559.908
574.58
588.599
601.897
614.411
626.077
636.838
646.638
655.426
663.157
669.79
675.289
679.624
682.772
684.715
685.442
684.947
519.812
536.264
552.266
567.747
582.635
596.862
610.359
623.06
634.903
645.828
655.778
664.704
672.557
679.297
684.887
689.297
692.503
694.487
695.237
694.748
525.433
542.07
558.253
573.91
588.968
603.358
617.011
629.859
641.841
652.894
662.964
671.997
679.947
686.771
692.432
696.901
700.153
702.169
702.938
702.455
529.497
546.268
562.581
578.364
593.544
608.051
621.815
634.77
646.851
657.997
668.152
677.263
685.282
692.166
697.88
702.392
705.676
707.716
708.498
708.019
531.985
548.835
565.227
581.086
596.339
610.917
624.749
637.767
649.908
661.11
671.317
680.474
688.535
695.456
701.201
705.738
709.043
711.097
711.888
711.411
532.887
549.764
566.181
582.066
597.344
611.945
625.799
638.839
651
662.221
672.444
681.617
689.692
696.626
702.381
706.927
710.239
712.297
713.091
712.615
532.204
549.054
565.445
581.304
596.558
611.136
624.967
637.986
650.127
661.329
671.535
680.693
688.754
695.675
701.42
705.958
709.263
711.316
712.107
711.631
529.945
546.716
563.029
578.812
593.993
608.5
622.265
635.22
647.301
658.447
668.602
677.713
685.733
692.618
698.332
702.844
706.129
708.168
708.951
708.472
526.131
542.77
558.954
574.612
589.671
604.062
617.715
630.565
642.547
653.601
663.672
672.706
680.656
687.481
693.144
697.613
700.865
702.881
703.65
703.167
520.789
537.245
553.25
568.734
583.625
597.855
611.354
624.057
635.902
646.829
656.781
665.709
673.564
680.305
685.896
690.307
693.513
695.497
696.247
695.758
513.957
530.18
545.958
561.221
575.898
589.922
603.226
615.744
627.414
638.179
647.982
656.774
664.508
671.143
676.643
680.98
684.128
686.071
686.797
686.301
505.681
521.623
537.127
552.124
566.544
580.321
593.388
605.682
617.143
627.712
637.336
645.964
653.553
660.06
665.452
669.699
672.779
674.672
675.37
674.866
496.016
511.632
526.818
541.505
555.626
569.115
581.908
593.943
605.16
615.503
624.918
633.357
640.776
647.136
652.402
656.546
659.545
661.383
662.048
661.536
485.027
500.274
515.099
529.435
543.218
556.382
568.866
580.607
591.548
601.634
610.814
619.04
626.268
632.461
637.586
641.614
644.523
646.297
646.927
646.406
472.787
487.624
502.049
515.997
529.405
542.209
554.349
565.765
576.401
586.204
595.123
603.112
610.13
616.139
621.107
625.007
627.818
629.524
630.114
629.585
459.378
473.768
487.757
501.282
514.28
526.692
538.457
549.52
559.824
569.318
577.953
585.686
592.475
598.285
603.083
606.845
609.549
611.181
611.73
611.194
)
;
    }
    coldSide
    {
        type            mixed;
        refValue        uniform 300;
        refGradient     uniform 0;
        valueFraction   uniform 0.991591;
        source          uniform 0;
        value           nonuniform List<scalar> 
400
(
300.026
300.027
300.028
300.028
300.029
300.029
300.03
300.03
300.031
300.031
300.032
300.033
300.033
300.034
300.033
300.034
300.034
300.034
300.034
300.034
300.027
300.027
300.027
300.028
300.029
300.03
300.031
300.031
300.032
300.032
300.032
300.033
300.033
300.033
300.034
300.034
300.034