/*--------------------------------*- C++ -*----------------------------------*\
| =========                 |                                                 |
| \\      /  F ield         | OpenFOAM: The Open Source CFD Toolbox           |
|  \\    /   O peration     | Version:  2212                                  |
|   \\  /    A nd           | Website:  www.openfoam.com                      |
|    \\/     M anipulation  |                                                 |
\*---------------------------------------------------------------------------*/
FoamFile
{
    version     2.0;
    format      ascii;
    arch        "LSB;label=32;scalar=64";
    class       volScalarField;
    location    "0";
    object      stateMean;
}
// * * * * * * * * * * * * * * * * * * * * * * * * * * * * * * * * * * * * * //

dimensions      [0 0 0 1 0 0 0];

internalField   nonuniform List<scalar> 
3200
(
313.592
315.482
312.775
308.84
311.183
313.612
311.634
311.335
312.107
313.928
311.21
312.368
312.362
314.22
310.208
310.525
314.115
311.474
311.224
311.765
310.315
311.529
313.208
309.67
311.857
311.425
310.379
311.138
309.991
310.153
308.508
311.419
309.153
307.229
311.245
309.029
311.916
311.402
311.36
310.488
307.504
308.095
311.914
309.937
308.443
309.389
308.261
310.658
309.656
306.043
308.415
307.447
308.667
308.604
306.878
308.626
307.92
306.953
309.469
309.684
307.746
308.546
307.801
308.204
307.795
308.995
308.487
308.414
308.072
309.621
306.354
306.63
306.661
307.245
306.565
307.729
308.657
307.84
305.852
307.078
305.293
306.462
308.721
306.498
307.468
306.798
306.951
306.794
308.344
305.569
306.308
303.929
306.339
304.73
304.715
305.573
303.993
306.41
305.819
304.645
305.358
306.712
304.64
305.115
302.156
304.828
302.703
303.617
302.539
303.336
302.687
303.827
305.009
304.567
303.928
305.495
305.229
303.984
307.36
304.338
300.081
302.549
301.911
303.449
299.714
300.45
304.372
304.334
303.606
303.083
302.724
301.735
300.437
303.758
300.916
300.974
302.119
302.73
300.062
301.339
302.097
303.413
302.183
298.896
301.258
301.232
301.768
299.053
300.828
299.666
299.897
301.348
300.184
301.023
301.937
302.828
299.619
301.213
302.431
300.544
314.047
313.519
314.268
311.725
315.263
316.434
313.827
311.613
312.389
313.122
313.916
310.422
312.995
315.11
314.222
311.12
314.108
314.026
311.304
310.797
308.655
313.191
313.167
315.922
311.79
315.158
311.838
315.356
311.535
316.07
316.226
309.958
315.451
311.182
315.075
313.283
314.249
310.859
314.191
311.273
309.597
310.559
312.286
311.987
310.788
309.937
307.982
311.226
307.958
308.385
307.611
307.897
310.833
309.565
308.59
309.534
310.257
309.202
311.219
307.098
307.647
309.301
311.922
307.48
308.073
309.748
309.705
307.272
307.062
308.18
308.498
309.213
308.775
307.864
305.04
306.632
306.353
305.996
308.149
308.294
304.736
308.05
308.372
306.793
305.973
307.44
305.196
305.669
306.626
306.002
305.009
305.656
306.108
308.025
303.982
305.903
305.725
307.259
304.548
303.501
305.139
306.612
304.296
305.7
305.396
303.619
304.013
304.967
304.944
302.704
304.487
304.983
303.951
303.023
304.278
302.692
303.793
306.29
302.781
306.249
301.653
301.868
303.21
305.225
301.811
305.174
304.964
303.188
302.552
304.015
301.248
301.789
305.386
304.475
304.197
304.748
300.437
303.423
302.577
301.729
301.005
299.738
302.006
301.353
299.631
300.708
299.094
303.406
302.105
302.071
298.87
299.361
299.059
300.485
299.944
300.81
300.524
301.485
299.01
301.08
315.027
311.945
313.035
312.832
313.357
313.683
314.939
312.898
312.645
314.899
313.363
314.21
314.029
313.733
313.165
312.375
313.083
313.934
311.542
312.583
312.914
310.273
312.143
312.622
311.972
314.576
312.265
311.184
312.154
312.758
309.273
312.048
311.078
310.142
313.33
312.707
310.604
310.302
313.051
311.325
311.289
310.025
309.662
310.712
313.051
309.756
309.642
307.486
309.733
312.134
312.05
308.208
310.101
308.123
310.669
308.58
309.842
311.192
307.722
310.648
309.182
306.817
307.945
307.798
309.725
308.459
309.956
308.548
308.104
308.57
308.111
306.486
307.088
308.114
306.556
308.986
309.891
309.124
309.831
307.36
303.467
307.772
306.065
306.42
307.455
307.133
306.673
306.457
306.742
306.244
308.991
308.26
306.868
307.49
309.422
309.006
305.825
308.147
303.503
305.339
306.307
306.298
306.322
305.293
304.86
304.733
304.268
304.505
304.995
306.265
303.947
304.622
306.561
305.71
304.792
304.928
305.938
304.293
304.974
305.609
303.018
305.508
301.76
303.759
304.457
303.624
303.256
303.369
301.899
302.548
303.216
304.087
300.314
301.376
305.494
303.978
300.828
301.326
301.899
303.247
300.868
302.15
300.95
298.355
304.11
300.612
300.232
299.076
301.672
300.556
300.499
301.74
300.45
299.675
301.415
301.207
301.577
301.171
303.694
298.647
314.528
312.417
315.859
315.511
313.327
314.576
315.212
315.042
313.584
314.035
313.573
315.069
313.499
315.646
312.67
313.973
313.899
314.717
313.309
312.186
313.7
314.825
313.294
314.338
313.254
315.257
312.857
315.984
314.317
316.461
315.588
312.758
315.786
311.963
315.566
310.102
315.346
314.429
314.812
312.376
311.865
310.694
312.874
311.353
307.732
313.362
313.723
312.496
312.8
310.349
311.218
312.071
310.268
309.086
310.431
309.613
311.605
313.003
308.427
308.79
308.821
308.069
310.53
309.848
309.863
309.051
308.492
307.301
307.901
309.516
310.348
308.894
307.559
308.44
309.576
307.585
308.794
308.049
308.526
308.444
308.235
308.883
305.375
307.314
304.657
307.537
306.464
308.829
307.252
305.663
306.326
307.619
305.87
306.007
307.59
307.071
306.666
308.068
310.928
305.439
305.32
304.727
305.312
305.858
302.572
304.728
302.601
305.312
304.484
303.797
302.857
305.741
305.518
303.884
302.89
305.486
306.36
305.446
304.92
305.064
302.123
303.367
301.444
302.255
305.815
302.347
301.896
303.73
302.984
300.043
302.381
304.846
303.696
300.276
304.19
304.852
303.532
302.049
303.022
301.037
305.878
301.635
300.309
301.152
300.048
300.945
299.667
300.972
299.49
301.351
301.396
300.889
301.423
301.049
302.987
302.058
303.73
301.839
298.328
300.076
317.312
314.251
315.667
316.116
314.808
318.224
314.246
317.594
317.395
316.287
314.67
313.076
317.401
315.202
313.516
315.165
313.95
313.991
318.739
314.208
313.564
310.967
313.342
312.639
312.981
313.813
314.214
312.688
316.052
312.18
312.282
314.529
313.627
315.576
314.272
312.774
312.588
312.109
313.626
313.434
310.707
309.829
309.921
309.286
309.847
311
311.055
312.614
313.354
310.748
311.079
309.46
311.5
311.763
311.193
311.316
312.624
310.404
311.535
311.381
308.026
310.304
312.891
310.813
309.235
307.915
309.538
309.148
309.914
309.666
309.133
311.779
309.864
308.806
309.402
309.4
308.619
309.871
310.634
309.044
307.092
307.302
307.422
308.133
308.629
310.042
305.696
309.531
306.922
306.91
307.665
309.118
305.251
304.013
306.207
304.723
306.217
308.043
308.077
305.69
305.163
305.333
306.134
303.845
304.767
302.882
305.434
307.124
304.256
305.813
303.932
303.232
304.92
304.893
301.548
305.519
304.438
307.055
307.177
306.824
301.195
304.165
302.969
301.221
301.681
304.661
305.659
303.425
303.375
303.392
302.452
303.637
301.716
302.779
301.69
304.274
302.581
302.923
303.214
303.152
299.801
301.256
300.62
302.595
301.184
302.389
299.987
298.742
299.528
302.093
302.565
301.719
299.7
300.34
301.834
300.625
300.979
301.064
299.629
304.013
318.346
317.113
315.644
318.093
318.147
315.033
315.31
318.223
318.016
319.438
318.098
315.996
317.947
317.259
318.223
315.695
315.716
315.711
317.385
314.12
313.068
315.184
315.236
314.268
315.516
316.572
315.08
317.161
314.859
317.439
316.449
314.625
316.522
313.86
315.995
314.431
315.023
315.147
315.424
313.038
312.084
311.935
313.329
311.714
313.363
311.962
313.278
312.475
315.536
312.358
312.281
314.723
313.748
311.136
312.916
313.464
311.916
310.167
310.804
311.962
311.241
311.368
309.717
310.474
311.424
311.812
307.987
310.492
312.119
309.972
309.432
309.139
311.987
310.476
310.234
308.845
309.709
309.714
311.093
310.785
309.538
308.247
306.939
306.69
307.894
309.038
307.593
305.998
310.215
309.792
308.056
308.821
308.493
308.612
309.107
308.057
306.949
307.021
307.294
309.025
306.326
304.899
306.431
303.778
306.923
305.811
307.687
305.667
304.01
305.962
308.66
305.938
304.378
305.852
305.206
304.651
304.823
304.827
304.92
303.35
306.024
304.843
304.775
304.256
300.852
305.653
301.597
304.598
304.026
304.597
303.985
302.697
302.463
303.533
304.131
305.923
303.062
303.082
302.043
301.673
299.242
301.781
302.503
300.444
300.737
300.589
300.211
304.149
300.956
301.363
300.542
300.756
300.631
299.022
299.853
301.852
299.112
301.206
298.975
298.757
316.929
318.994
315.959
318.352
318.173
319.39
320.751
315.462
318.891
317.107
317.933
319.07
318.252
316.59
317
320.626
317.71
317.429
317.876
317.971
314.661
317.929
315.683
317.51
317.637
318.458
319.391
316.654
317.867
317.149
315.034
314.729
313.067
315.843
319.077
313.805
317.664
313.53
314.695
315.138
313.887
313.413
311.046
314.083
315.182
315.322
313.694
314.276
311.391
312
313.41
313.551
312.976
314.515
311.243
311.565
313.771
311.211
310.328
313.733
310.115
311.481
311.71
310.575
313.111
313.945
313.134
309.619
311.715
311.437
309.627
312.103
311.522
312.318
309.342
308.843
309.593
309.172
308.956
309.788
308.28
307.543
309.082
308.131
308.5
308.951
309.322
308.488
307.2
309.821
307.792
307.151
309.87
309.6
309.529
309.724
307.317
307.495
308.037
309.38
305.849
306.986
305.949
303.231
306.043
304.94
306.024
307.679
305.171
305.736
307.592
305.347
306.888
307.556
305.755
304.909
304.444
304.437
305.605
303.485
304.549
304.813
302.809
302.035
301.645
302.205
303.266
300.942
304.699
302.981
305.381
303.508
304.891
302.868
305.102
303.543
306.182
302.793
302.717
299.952
299.59
300.937
300.597
302.654
303.385
299.736
299.676
302.528
300.254
299.759
301.294
300.996
301.198
299.46
301.154
301.986
300.612
302.221
300.597
301.698
318.097
319.346
317.069
321.176
323.155
319.479
319.312
319.378
321.554
320.676
321.619
317.124
318.578
319.217
320.403
319.788
318.01
317.148
319.553
318.399
315.705
316.116
316.467
315.925
317.258
316.889
316.836
316.976
317.923
316.625
317.044
315.27
317.082
315.391
317.693
317.144
316.228
318.186
316.862
314.912
313.155
315.049
311.493
314.494
313.719
317.12
314.677
315.1
315.333
314.632
313.283
314.871
314.874
312.429
314.72
314.105
312.615
313.485
310.459
313.753
312.724
311.049
312.859
313.127
312.039
312.895
309.715
312.722
312.072
311.216
311.846
311.244
314.349
312.105
310.313
310.851
311.153
311.798
310.45
310.431
309.046
309.825
307.797
309.168
309.054
311.164
308.225
309.812
304.807
309.879
310.966
307.784
307.686
308.508
309.176
311.213
307.718
309.027
308.746
306.968
306.776
310.047
306.808
308.879
305.719
308.85
306.974
308.269
307.925
306.587
306.48
306.345
305.93
306.426
306.164
307.707
305.457
304.764
307.959
306.218
303.368
302.258
302.855
304.807
304.269
303.341
301.51
303.014
302.807
304.714
304.418
306.053
303.482
304.447
304.267
302.997
302.972
301.65
303.303
302.981
300.144
300.606
299.211
301.461
300.587
301.263
302.102
302.307
301.772
302.785
302.741
302.772
302.566
301.83
303.144
302.433
300.986
300.978
299.748
299.056
319.368
320.865
319.049
320.555
318.777
321.414
318.727
318.574
320.594
319.114
319.035
319.009
320.466
320.152
321.339
320.202
317.953
316.44
317.349
318.448
317.132
317.682
318.825
318.161
319.01
319.319
316.139
319.946
318.881
319.422
315.142
317.11
319.926
317.279
321.24
317.122
317.102
316.561
318.508
317.288
316.108
315.183
315.661
313.547
317.586
315.119
315.132
315.232
315.424
316.061
316.591
314.125
313.396
314.475
314.293
314.733
314.189
313.518
316.386
313.727
314.111
310.803
314.203
314.411
310.826
310.568
312.379
309.942
312.082
312.868
312.012
314.471
312.911
313.562
313.649
309.951
312.632
312.531
312.449
310.709
307.612
307.367
310.449
310.684
308.776
308.486
309.237
310.143
309.661
308.729
310.433
309.549
309.965
309.429
313.072
305.538
308.202
308.3
309.569
309.332
308.178
305.406
308.034
305.148
304.759
304.998
306.218
307.153
307.207
307.17
308.047
307.811
306.427
305.333
307.881
303.314
305.395
305.536
306.531
305.854
300.966
302.754
303.519
304.327
303.338
302.984
302.559
303.825
304.942
301.906
303.936
305.863
304.674
305.608
303.161
304.626
304.212
302.779
303.173
301.993
301.589
301.11
300.381
301.73
301.831
299.749
299.448
301.441
301.372
299.787
299.991
302.065
303.251
300.895
300.893
301.823
302.146
301.633
300.963
301.609
319.127
319.713
320.859
319.068
323.262
321.496
318.991
322.193
318.05
322.975
321.8
323.295
319.166
323.837
323.291
318.851
320.824
320.417
320.82
321.451
318.254
316.405
318.795
317.415
319.293
317.963
318.688
317.587
317.597
317.945
317.855
318.592
317.668
318.326
317.704
317.125
317.521
317.892
317.057
318.521
313.465
317.564
313.565
316.91
315.22
314.037
316.473
315.24
316.516
315.243
315.949
315.661
315.046
314.621
314.465
315.248
313.135
315.681
314.955
316.175
313.393
311.559
314.088
312.997
309.722
311.442
312.443
311.781
313.205
311.841
313.864
313.506
312.289
312.408
313.772
312.811
310.695
311.014
310.536
314.39
312.142
309.895
306.931
311.584
310.902
311.711
309.568
311.865
309.895
309.388
310.27
310.49
308.922
308.715
310.698
309.823
308.615
307.404
309.835
310.815
306.965
307.901
308.23
309.027
306.559
307.486
309.302
308.414
306.244
306.477
309.308
304.652
306.718
304.341
307.605
307.202
305.028
306.824
307.116
310.752
304.538
305.284
302.953
304.369
305.694
305.729
304.536
302.53
305.732
304.913
306.389
303.955
305.175
303.625
300.53
306.266
301.54
306.584
302.621
304.361
301.098
300.167
301.653
302.85
300.612
301.948
302.727
301.383
302.238
301.066
300.707
302.869
303.255
302.135
302.381
303.392
305.08
302.386
300.363
300.223
321.772
323.691
323.632
321.719
321.618
325.031
322.921
322.28
322.779
321.506
322.153
322.127
322.432
325.037
322.56
323.89
323.178
320.98
321.005
319.103
319.142
318.104
319.685
318.565
318.609
317.557
319.042
318.11
319.753
318.458
318.278
320.92
319.246
319.961
318.551
320.379
317.783
318.683
317.698
320.423
313.049
315.418
315.671
315.464
317.599
316.482
315.919
315.16
315.271
316.13
314.978
317.827
318.067
317.376
318.711
316.347
317.243
317.599
315.573
313.595
314.666
314.668
312.675
313.172
315.278
314.43
314.081
312.886
312.751
311.334
312.655
314.137
313.835
314.559
312.891
312.246
313.916
309.666
311.321
313.375
310.709
310.613
309.569
308.716
312.152
312.355
308.515
313.829
311.972
310.373
309.145
308.642
310.225
310.153
311.469
310.334
310.366
309.569
312.104
311.194
307.617
306.85
307.488
307.381
309.948
308.86
309.309
307.821
305.173
307.982
307.911
307.064
305.915
308.36
309.141
307.145
308.393
308.392
306.071
307.979
302.337
304.26
303.019
306.478
305.838
305.23
303.496
304.145
306.269
304.821
302.792
303.975
304.897
303.644
306.038
305.476
303.085
303.988
304.995
305.172
300.382
303.579
302.302
301.64
304.629
302.108
300.174
301.884
299.641
301.498
302.542
303.367
300.405
299.347
301.277
302.346
301.189
301.339
302.97
303.362
322.109
320.532
322.182
322.741
321.387
325.357
325.077
323.032
321.769
324.113
326.315
321.693
324.5
324.121
322.618
324.212
322.651
321.863
319.942
324.822
318.67
317.886
317.743
322.061
322.128
322.082
321.53
319.499
322.347
319.816
320.063
318.605
318.845
320.643
321.205
319.436
320.723
320.351
319.325
318.402
318.188
316.558
318.669
315.68
317.09
318.994
319.156
317.295
318.729
316.987
316.028
315.269
319.04
318.918
317.495
314.834
317.429
318.122
316.614
315.565
312.503
312.837
315.428
312.661
314.047
314.277
311.584
311.51
312.504
314.92
314.184
314.235
314.234
313.185
314.235
317.32
313.888
311.046
313.89
313.334
309.016
309.2
311.427
308.141
312.23
312.506
310.748
309.607
312.261
309.718
311.785
311.459
311.235
310.705
311.338
310.054
308.591
310.487
309.083
309.838
306.794
307.241
307.833
308.724
308.186
309.552
307.415
309.367
310.083
308.218
307.698
307.338
305.456
307.909
304.732
308.174
307.784
306.579
307.112
309.314
304.165
307.185
304.216
305.325
304.189
305.673
303.833
304.6
304.733
308.364
303.346
305.138
304.03
303.914
305.699
303.261
305.344
304.332
305.7
304.353
302.306
300.109
302.426
299.345
301.903
300.042
303.441
303.113
299.672
300.865
300.591
302.714
302.299
301.633
302.491
301.681
300.228
301.047
302.258
301.141
323.427
323.932
326.809
323.323
323.821
324.164
324.301
323.621
326.929
325.739
324.256
323.461
323.106
325.244
325.36
324.472
324.001
322.605
323.046
322.774
320.931
320.326
323.539
319.656
318.907
319.346
320.821
319.475
320.203
320.198
319.399
320.658
319.387
319.489
319.085
321.845
319.164
319.963
319.245
321.754
319.095
317.67
319.182
315.766
318.854
319.212
318.296
319.489
318.169
320.932
318.438
318.953
315.766
318.333
318.592
317.444
316.071
318.591
316.994
315.368
312.333
315.801
313.058
313.758
314.518
315.34
313.981
316.601
314.802
314.4
314.333
315.365
314.817
318.435
314.651
313.04
317.8
314.102
313.726
314.37
311.245
312.195
311.145
310.253
310.712
310.116
311.306
310.987
313.212
313.061
312.245
311.497
310.221
313.373
313.362
311.532
310.474
310.678
309.992
312.517
306.839
307.116
305.736
306.222
307.148
306.791
309.414
309.812
309.676
307.91
308.975
308.723
308.692
309.666
307.756
308.885
308.351
306.889
309.045
307.091
303.595
305.277
304.816
302.784
304.688
305.656
304.03
305.224
304.197
304.713
308.248
303.205
306.391
304.995
304.628
305.845
304.161
305.623
303.48
303.223
302.039
302.092
302.777
301.893
303.192
301.626
300.98
302.681
300.993
300.958
301.487
305.41
302.937
301.822
300.55
300.997
298.185
301.883
301.192
303.695
324.936
323.714
322.489
322.545
325.483
327.615
326.492
328.093
324.687
325.228
325.634
323.386
325.628
324.333
325.682
324.823
326.196
324.513
323.217
324.333
321.204
320.011
320.107
321.018
321.054
322.265
322.8
323.462
321.181
321.825
323.296
322.519
320.366
320.729
319.696
320.319
321.613
321.146
321.634
321.923
315.728
316.734
319.463
319.1
319.001
320.326
318.349
320.399
321.323
316.395
319.946
318.207
318.47
320
319.561
319.166
318.536
316.736
318.203
318.885
314.563
312.891
313.188
315.373
314.787
316.642
313.402
315.461
319.313
315.01
316.877
317.08
313.924
314.759
314.729
314.118
314.471
314.815
317.194
313.357
311.907
311.393
311.784
312.827
313.485
313.495
313.073
312.178
312.269
312.786
311.26
312.292
312.234
313.436
309.294
311.363
309.205
310.292
312.344
311.746
309.786
307.087
309.064
308.582
307.192
309.777
308.353
309.281
307.763
307.552
309.708
308.323
307.443
308.85
311.287
309.097
308.81
306.581
309.632
309.436
305.323
305.632
306.216
303.345
304.121
304.209
303.031
306.553
307.678
305.746
304.782
304.96
305.337
304.786
306.617
305.71
303.163
303.809
306.031
305.818
303.521
301.153
302.939
302.666
300.371
300.132
299.596
299.965
302.946
301.493
301.159
302.261
300.006
301.85
301.87
301.68
300.244
301.306
303.708
303.184
324.787
324.392
328.412
325.719
325.55
326.99
326.077
326.925
328.115
323.353
326.245
324.996
325.053
324.15
325.219
328.076
325.814
327.761
324.504
324.849
321.486
320.577
321.585
320.187
322.954
320.828
322.44
321.588
322.751
321.002
321.046
324.66
321.197
324.397
320.47
322.851
320.919
323.587
320.413
322.417
321.248
317.663
315.931
317.674
319.023
319.338
318.684
321.546
320.137
320.869
319.375
318.982
320.882
319.166
318.363
320.55
318.375
318.134
317.64
317.003
314.284
314.318
315.608
317.205
314.96
316.189
317.116
317.848
314.447
316.739
316.085
315.064
315.875
317.961
315.898
317.504
312.98
315.775
316.419
315.127
311.242
311.57
313.668
314.033
312.211
311.413
311.522
313.176
313.481
311.516
314.669
309.823
312.469
312.914
313.103
312.376
313.358
310.601
308.912
312.286
308.275
307.272
308.355
307.523
308.91
309.257
306.87
309.335
308.269
307.641
310.237
308.385
309.066
308.315
308.562
307.72
310.301
305.429
308.068
306.674
303.519
305.283
304.99
305.918
307.562
307.136
304.692
305.636
306.117
306.012
305.378
306.37
304.044
306.044
306.385
304.844
304.535
305.526
303.658
304.633
300.741
302.306
303.596
301.994
301.203
301.98
301.795
303.74
299.34
302.004
302.407
301.868
302.147
298.759
302.566
302.953
300.786
300.221
304.539
300.464
324.56
327.556
327.27
325.613
326.683
326.51
328.306
325.368
327.427
329.238
327.345
325.062
330.709
327.717
327.587
326.345
328.178
326.7
326.536
326.395
322.5
322.801
322.036
323.252
321.728
322.594
322.999
322.632
325.828
323.561
324.235
324.089
323.968
324.215
322.418
324.715
322.769
321.871
324.032
320.979
319.661
318.681
319.908
320.602
320.397
318.687
319.677
321.405
320.693
318.389
321.568
319.497
321.119
318.709
318.363
320.11
319.087
318.726
320.282
318.594
315.679
316.579
317.764
314.899
317.34
315.329
313.691
316.438
317.529
314.477
314.771
316.173
315.627
314.801
316.641
315.165
317.614
318.178
313.499
315.679
310.44
312.418
310.632
312.826
314.744
310.008
311.623
312.545
313.05
312.826
311.175
312.197
311.262
312.701
312.671
313.051
312.837
313.55
308.625
312.114
308.884
309.761
307.956
309.27
311.469
309.237
307.765
309.762
308.804
306.904
308.604
309.706
310.877
308.533
309.389
309.553
309.73
307.168
307.11
309.549
304.996
303.992
304.645
307.481
306.662
306.927
305.745
305.615
305.187
307.064
305.02
305.506
306.204
304.812
305.218
305.313
305.219
306.293
305.655
304.323
302.505
301.35
301.819
302.789
303.723
301.905
300.858
299.919
303.719
300.536
301.907
300.775
303.625
301.221
300.624
299.835
302.808
301.944
302.573
302.685
326.921
327.395
327.329
326.827
327.034
326.859
327.457
326.812
326.761
329.448
324.801
329.425
327.251
327.76
328.55
328.111
324.957
326.496
327.152
325.065
324.623
322.094
321.677
322.115
323.156
322.751
324.35
322.939
323.767
322.53
323.039
324.49
322.799
326.929
322.518
324.095
322.173
324.786
322.043
322.444
318.73
319.415
318.566
319.94
323.218
320.883
319.326
319.782
321.664
321.248
321.619
319.588
320.865
320.514
318.813
318.757
319.139
319.181
319.536
319.103
314.158
317.134
317.983
313.746
314.725
317.905
316.973
316.945
317.366
318.862
317.589
316.803
318.129
317.009
314.932
315.382
315.827
316.28
317.622
318.44
312.756
311.867
314.153
312.02
312.905
310.879
312.124
312.624
314.647
310.891
313.608
314.946
313.968
314.747
313.306
315.679
312.746
313.474
311.767
312.275
309.771
307.103
307.558
309.034
310.025
308.582
310.957
310.407
310.719
308.896
309.733
308.582
307.399
309.904
309.861
308.037
309.202
309.256
309.79
307.563
304.849
306.536
306.485
307.227
306.415
305.157
304.527
304.919
304.08
305.657
303.451
306.25
304.778
307.736
302.738
306.844
304.504
306.301
304.665
306.402
301.826
301.595
302.083
301.086
302.171
301.861
299.378
303.033
301.659
303.429
303.093
301.66
301.733
302.088
301.756
301.377
302.343
301.877
302.063
301.003
328.486
327.7
327.744
328.298
329.496
326.767
328.459
330.641
330.192
327.402
329.391
329.278
326.936
327.557
329.846
328.911
329.642
327.895
324.542
327.202
322.952
323.958
325.302
324.065
325.196
324.122
322.899
323.311
325.136
324.554
325.944
325.188
325.789
326.494
324.531
326.008
324.667
323.253
324.981
322.159
321.214
319.929
318.802
322.505
321.735
321.673
320.376
321.772
321.329
323.191
320.647
320.736
323.279
319.963
321.494
321.088
321.171
318.44
320.055
321.943
313.577
316.713
314.598
317.179
318.272
318.038
315.975
314.965
317.983
317.01
316.33
318.077
315.769
318.073
319.373
317.269
317.505
315.448
315.182
317.649
313.164
311.849
314.062
312.904
312.932
313.206
314.42
313.323
313.605
312.782
314.173
314.281
313.866
312.053
313.374
311.089
313.735
312.573
311.765
312.62
310.444
308.463
309.564
309.429
309.207
308.105
307.81
309.532
307.757
309.02
311.275
307.863
308.926
309.769
308.779
309.121
307.481
308.173
309.124
308.318
306.128
305.596
305.967
308.487
307.91
307.414
306.373
306.755
306.477
304.926
307.122
307.726
307.188
307.196
304.915
302.658
305.551
302.477
305.563
305.494
301.16
304.248
301.232
301.731
300.573
301.185
304.57
301.284
301.152
300.195
302.166
300.475
299.076
302.027
299.364
304.457
300.97
303.484
302.122
300.655
327.904
327.284
329.872
327.155
326.432
329.05
330.158
330.357
332.535
328.617
330.766
332.462
330.636
329.415
331.245
329.6
327.529
327.369
328.476
328.752
323.764
324.901
325.1
324.244
323.042
324.376
325.434
324.36
326.31
324.277
324.512
326.509
324.213
326.802
323.512
326.019
323.385
323.862
323.629
322.351
319.635
320.065
322.438
322.021
321.369
320.353
322.889
322.092
322.372
322.814
319.995
322.786
319.443
323.093
321.03
321.283
321.738
320.311
320.145
321.968
315.489
315.539
316.832
319.666
316.706
319.521
320.416
316.02
319.792
318.025
315.847
317.516
317.9
317.683
316.322
318.205
315.82
316.664
316.244
317.463
312.969
314.607
312.944
312.617
310.969
314.187
313.983
314.068
314.116
314.36
313.168
314.136
313.951
315.047
313.332
310.965
312.241
313.086
311.331
312.244
308.334
310.273
308.384
308.417
311.037
309.065
309.92
312.537
311.7
309.614
311.126
309.448
310.197
309.634
307.308
310.424
308.231
311.345
310.01
309.844
306.346
306.239
305.085
304.084
305.946
304.529
307.829
305.965
309.917
307.161
304.711
306.828
306.597
306.445
304.326
305.592
305.535
305.898
305.454
302.736
303.538
302.539
300.204
301.686
303.37
302.276
301.903
301.894
301.517
304.297
301.439
299.479
301.369
304.663
300.019
302.901
301.7
302.523
300.82
302.65
329.364
328.025
329.317
326.351
330.13
330.637
331.823
329.55
332.701
331.325
329.411
329.738
327.015
333.059
330.04
327.843
328.159
329.605
329.564
328.29
322.213
323.18
324.318
324.246
322.297
326.476
325.128
325.147
327.692
326.361
324.156
323.954
321.927
326.848
324.403
325.494
327.07
326.097
324.907
321.735
321.807
319.335
322.431
320.792
320.762
322.639
321.91
321.428
322.397
320.577
321.436
322.297
322.362
321.483
321.661
322.208
323.773
321.426
320.381
323.99
315.018
315.41
318.31
318.847
317.55
317.782
317.967
318.977
316.004
318.428
316.971
318.113
318.034
319.946
317.801
316.688
318.535
319.04
316.258
317.819
314.592
315.015
313.062
312.059
314.776
312.348
313.063
314.612
314.321
314.541
314.488
313.347
312.166
317.684
314.116
313.488
312.491
314.139
312.298
314.38
308.021
309.797
309.599
309.495
311.756
307.303
307.814
311.019
311.218
312.744
310.543
311.22
310.018
310.135
310.914
310.223
310.271
309.479
311.449
311.643
305.28
304.858
306.803
305.3
308.201
305.051
304.393
306.33
304.775
306.319
303.332
307.389
307.034
303.924
305.862
308.595
304.634
305.501
304.423
306.044
300.988
303.868
302.857
302.719
299.194
303.617
303.11
303.183
300.938
303.225
302.014
301.22
301.477
303.201
301.23
303.249
303.094
299.127
299.477
299.749
)
;

boundaryField
{
    hotSide
    {
        type            fixedGradient;
        gradient        nonuniform List<scalar> 
400
(
321.511
322.87
325.591
329.677
335.133
341.965
350.181
359.788
370.794
383.208
397.037
412.289
428.971
447.088
466.647
487.651
510.105
534.011
559.372
586.191
323.738
325.08
327.767
331.802
337.194
343.949
352.078
361.591
372.498
384.81
398.537
413.687
430.268
448.289
467.755
488.672
511.043
534.872
560.161
586.913
326.149
327.47
330.116
334.091
339.406
346.071
354.099
363.503
374.296
386.491
400.101
415.136
431.606
449.52
468.885
489.706
511.988
535.735
560.948
587.63
328.704
330
332.597
336.503
341.73
348.292
356.205
365.485
376.15
388.215
401.695
416.604
432.954
450.753
470.009
490.73
512.919
536.579
561.714
588.325
331.33
332.599
335.142
338.97
344.099
350.546
358.332
367.477
378.003
389.928
403.271
418.047
434.27
451.949
471.095
491.712
513.807
537.382
562.439
588.978
333.918
335.158
337.643
341.389
346.414
352.74
360.392
369.397
379.779
391.562
404.765
419.407
435.503
453.065
472.101
492.618
514.622
538.114
563.096
589.569
336.321
337.531
339.959
343.622
348.544
354.751
362.274
371.142
381.385
393.031
406.101
420.618
436.595
454.047
472.983
493.409
515.33
538.747
563.663
590.076
338.36
339.543
341.92
345.509
350.339
356.44
363.847
372.595
382.718
394.244
407.2
421.608
437.485
454.844
473.695
494.045
515.897
539.253
564.114
590.478
339.852
341.015
343.352
346.885
351.645
357.665
364.985
373.643
383.675
395.113
407.984
422.312
438.116
455.407
474.197
494.491
516.294
539.606
564.428
590.758
340.643
341.795
344.11
347.613
352.334
358.311
365.584
374.193
384.176
395.567
408.393
422.679
438.443
455.699
474.456
494.722
516.498
539.788
564.589
590.901
340.643
341.795
344.11
347.613
352.334
358.311
365.584
374.193
384.176
395.567
408.393
422.679
438.443
455.699
474.456
494.722
516.498
539.788
564.589
590.901
339.852
341.015
343.352
346.885
351.645
357.665
364.985
373.643
383.675
395.113
407.984
422.312
438.116
455.407
474.197
494.491
516.294
539.606
564.428
590.758
338.36
339.543
341.92
345.509
350.339
356.44
363.847
372.595
382.718
394.244
407.2
421.608
437.485
454.844
473.695
494.045
515.897
539.253
564.114
590.478
336.321
337.531
339.959
343.622
348.544
354.751
362.274
371.142
381.385
393.031
406.101
420.618
436.595
454.047
472.983
493.409
515.33
538.747
563.663
590.076
333.918
335.158
337.643
341.389
346.414
352.74
360.392
369.397
379.779
391.562
404.765
419.407
435.503
453.065
472.101
492.618
514.622
538.114
563.096
589.569
331.33
332.599
335.142
338.97
344.099
350.546
358.332
367.477
378.003
389.928
403.271
418.047
434.27
451.949
471.095
491.712
513.807
537.382
562.439
588.978
328.704
330
332.597
336.503
341.73
348.292
356.205
365.485
376.15
388.215
401.695
416.604
432.954
450.753
470.009
490.73
512.919
536.579
561.714
588.325
326.149
327.47
330.116
334.091
339.406
346.071
354.099
363.503
374.296
386.491
400.101
415.136
431.606
449.52
468.885
489.706
511.988
535.735
560.948
587.63
323.738
325.08
327.767
331.802
337.194
343.949
352.078
361.591
372.498
384.81
398.537
413.687
430.268
448.289
467.755
488.672
511.043
534.872
560.161
586.913
321.511
322.87
325.591
329.677
335.133
341.965
350.181
359.788
370.794
383.208
397.037
412.289
428.971
447.088
466.647
487.651
510.105
534.011
559.372
586.191
)
;
    }
    coldSide
    {
        type            mixed;
        refValue        uniform 300;
        refGradient     uniform 0;
        valueFraction   uniform 0.991591;
        source          uniform 0;
        value           nonuniform List<scalar> 
400
(
300.018
300.008
300.007
300.049
299.998
299.994
299.997
300.001
300.013
300.009
300.003
300.019
300.017
300.03
300.006
300.021
300.015
300.01
300.03
300.008
300.029
299.998
300.018
300.014
300.011
300.015
300.008
300.005
300.009
300.001
300.03
300.001
300.018
300.01
300.019
300.011