/*--------------------------------*- C++ -*----------------------------------*\
| =========                 |                                                 |
| \\      /  F ield         | OpenFOAM: The Open Source CFD Toolbox           |
|  \\    /   O peration     | Version:  2212                                  |
|   \\  /    A nd           | Website:  www.openfoam.com                      |
|    \\/     M anipulation  |                                                 |
\*---------------------------------------------------------------------------*/
FoamFile
{
    version     2.0;
    format      ascii;
    arch        "LSB;label=32;scalar=64";
    class       volScalarField;
    location    "./ITHACAoutput/true/2.4";
    object      error;
}
// * * * * * * * * * * * * * * * * * * * * * * * * * * * * * * * * * * * * * //

dimensions      [0 0 0 1 0 0 0];

internalField   nonuniform List<scalar> 
3200
(
-4.48349
-2.6196
-0.707597
0.683772
1.75728
2.46383
3.08237
3.48302
3.77755
3.83339
3.85124
3.85778
3.66114
3.49422
3.29018
2.84973
2.21534
1.18997
-0.346388
-1.91955
-3.96466
-2.35604
-0.728434
0.499585
1.42112
2.10507
2.55019
2.8997
3.19376
3.25895
3.22839
3.14671
3.01259
2.80011
2.71503
2.30695
1.76077
0.7798
-0.466096
-1.8342
-3.33395
-2.04885
-0.80072
0.336128
1.14519
1.6987
2.09799
2.41142
2.5469
2.61909
2.63659
2.59247
2.49781
2.31948
2.12427
1.80278
1.32654
0.570733
-0.479056
-1.64414
-2.8118
-1.71387
-0.677165
0.242648
0.907825
1.23229
1.69565
1.8919
2.12596
2.05584
2.01376
2.10582
1.91017
1.89857
1.76768
1.45813
0.984507
0.282449
-0.442331
-1.4245
-2.08706
-1.41187
-0.529021
0.209579
0.608895
0.987315
1.28056
1.46197
1.5903
1.59414
1.60774
1.49635
1.39309
1.36725
1.29924
0.988556
0.751847
0.220211
-0.468607
-1.18469
-1.59329
-0.99504
-0.367346
0.103085
0.478154
0.667065
0.895519
1.0358
1.14779
1.1029
1.14134
1.12714
1.04506
1.03894
0.855352
0.78901
0.483463
0.163341
-0.358163
-0.927523
-0.963627
-0.646747
-0.215106
0.0748557
0.194044
0.34064
0.543914
0.587421
0.680557
0.658538
0.684802
0.611999
0.685697
0.566795
0.523903
0.495707
0.242295
0.0526555
-0.251175
-0.50635
-0.262879
-0.138593
-0.091506
0.0289648
0.103299
0.109386
0.110972
0.224668
0.230836
0.281942
0.210263
0.228331
0.228721
0.25613
0.2102
0.122448
0.104561
0.0145214
-0.138923
-0.162388
-4.33002
-2.47888
-0.690027
0.653142
1.67188
2.39302
2.92283
3.17654
3.32855
3.47931
3.44937
3.41384
3.28605
3.21798
3.01486
2.71588
2.1237
1.17412
-0.307348
-1.8634
-3.86884
-2.31641
-0.683653
0.497358
1.39943
2.04769
2.39651
2.70501
2.85588
2.84272
2.82967
2.78971
2.72483
2.60475
2.47608
2.11811
1.6387
0.864868
-0.366486
-1.72741
-3.34725
-2.05808
-0.736606
0.403188
1.05814
1.63331
1.93875
2.17015
2.32152
2.3642
2.34244
2.30332
2.20455
2.10681
2.03458
1.72611
1.37848
0.542411
-0.515795
-1.62241
-2.64478
-1.73837
-0.597428
0.239806
0.839013
1.30066
1.54477
1.75073
1.74706
1.89436
1.8712
1.78927
1.70628
1.72883
1.57582
1.3478
0.970923
0.381798
-0.445137
-1.36103
-2.19584
-1.38083
-0.47775
0.162088
0.556931
0.873039
1.2065
1.34879
1.38808
1.44571
1.47511
1.37284
1.34976
1.22083
1.22277
1.08194
0.752511
0.265675
-0.401337
-1.07614
-1.51338
-1.03174
-0.406552
0.0881354
0.439223
0.660972
0.799067
0.908449
0.957513
1.01196
0.923102
1.00522
0.900796
0.882588
0.822757
0.713295
0.502031
0.122076
-0.3238
-0.779697
-0.94632
-0.590933
-0.309426
0.0240303
0.309242
0.399835
0.554843
0.550946
0.537699
0.557012
0.548645
0.532246
0.600438
0.509564
0.397822
0.469256
0.286476
0.036524
-0.171735
-0.475468
-0.353809
-0.20311
-0.0989098
-0.0205899
0.133842
0.11968
0.113174
0.164087
0.139789
0.249079
0.233883
0.191473
0.237321
0.141092
0.066924
0.208197
0.16224
-0.0310204
0.0146017
-0.0792551
-4.17272
-2.4778
-0.620825
0.698012
1.55072
2.15323
2.51968
2.7805
2.90369
2.79873
2.85337
2.77052
2.71651
2.67596
2.60489
2.50236
1.97946
1.12506
-0.225186
-1.70021
-3.72146
-2.13009
-0.665358
0.424428
1.2075
1.79615
2.11298
2.31279
2.425
2.37354
2.30374
2.27657
2.23297
2.23365
2.20332
1.92113
1.57721
0.827276
-0.374043
-1.67956
-3.16954
-1.90239
-0.654334
0.268888
0.965483
1.47615
1.71548
2.01226
1.89139
1.9029
1.95889
1.85405
1.81371
1.82932
1.70484
1.51872
1.22064
0.549139
-0.465594
-1.47865
-2.71571
-1.68361
-0.611319
0.172339
0.751048
1.13577
1.41385
1.56475
1.61455
1.47643
1.50639
1.47197
1.3573
1.3231
1.33152
1.15819
0.95884
0.357265
-0.445275
-1.3538
-2.13797
-1.31059
-0.513846
0.0865128
0.58882
0.850696
1.02193
1.12096
1.09044
1.16174
1.11281
1.02784
1.0498
1.04682
1.06562
0.938318
0.640287
0.222695
-0.359313
-0.990348
-1.45449
-0.929745
-0.378191
0.12476
0.403826
0.54851
0.758003
0.82539
0.757945
0.807023
0.833176
0.812595
0.729571
0.773546
0.682903
0.547361
0.339832
0.0619236
-0.352415
-0.66037
-0.891017
-0.548419
-0.183463
-0.00793747
0.161154
0.362356
0.390983
0.397551
0.500448
0.531673
0.488185
0.435892
0.441615
0.475879
0.434402
0.393623
0.259798
0.0745373
-0.131388
-0.559081
-0.325751
-0.185455
-0.135007
0.022068
0.0419687
0.143718
0.168516
0.150593
0.128749
0.231918
0.262848
0.135793
0.115448
0.127646
0.0404999
0.0593733
0.0800647
0.0156674
-0.0429033
-0.155219
-4.17555
-2.35434
-0.686977
0.550253
1.3815
1.8257
2.18493
2.23466
2.17025
2.14378
2.01638
2.00388
1.97852
2.12748
2.16281
2.05422
1.74281
0.953329
-0.314741
-1.68753
-3.65302
-2.26851
-0.798225
0.315293
1.00094
1.44508
1.84154
1.81351
1.8256
1.72133
1.5845
1.68053
1.62354
1.62412
1.78738
1.69025
1.35546
0.688372
-0.40963
-1.66273
-3.11514
-1.95183
-0.66978
0.16075
0.852895
1.13537
1.44485
1.43867
1.45316
1.39967
1.29246
1.25402
1.41061
1.38494
1.45682
1.25138
1.03222
0.429592
-0.415432
-1.5514
-2.55803
-1.63042
-0.652143
0.0234436
0.586966
0.967889
1.05846
1.11355
1.1558
1.1388
0.961589
1.00441
1.01365
1.07079
1.10178
0.964704
0.698985
0.243415
-0.473855
-1.30882
-2.10788
-1.35562
-0.529902
0.0332772
0.457683
0.694042
0.843968
0.844633
0.927398
0.854797
0.763584
0.764419
0.74024
0.862287
0.79237
0.69611
0.506715
0.184182
-0.425657
-1.04949
-1.52099
-0.990257
-0.366796
-0.0130019
0.317143
0.50915
0.567146
0.6302
0.573828
0.570691
0.505129
0.581863
0.531687
0.546894
0.624705
0.509369
0.299401
0.0930555
-0.290783
-0.74305
-0.904654
-0.530567
-0.267642
-0.0505119
0.164233
0.366753
0.347625
0.346682
0.343224
0.379829
0.416759
0.32627
0.272787
0.354359
0.311145
0.365174
0.280425
0.040295
-0.219083
-0.473516
-0.290939
-0.248478
-0.0499762
0.0173438
0.0460927
0.0516158
0.153673
0.108361
0.162255
0.153502
0.0937253
0.137922
0.125563
0.0746136
0.108831
0.12749
0.00351244
-0.0244873
-0.126135
-0.173192
-4.15419
-2.46485
-0.918411
0.244893
1.03142
1.49232
1.64263
1.65376
1.44627
1.3224
1.18883
1.13239
1.33966
1.41766
1.66318
1.63102
1.34476
0.699475
-0.386533
-1.8343
-3.65501
-2.32708
-0.909217
0.205599
0.770409
1.20371
1.27168
1.26329
1.1683
1.01135
0.886998
0.895992
0.961725
1.18916
1.24199
1.32745
1.04575
0.363467
-0.589235
-1.68858
-3.16996
-2.0508
-0.818973
0.0323348
0.594844
0.833944
1.03887
1.0321
0.914183
0.798332
0.645013
0.676026
0.820722
0.869232
1.03288
0.954992
0.770534
0.232343
-0.584384
-1.59728
-2.56688
-1.74501
-0.729259
0.0231049
0.440056
0.70899
0.78359
0.837987
0.754484
0.66382
0.532243
0.467679
0.54159
0.661393
0.814537
0.752426
0.584844
0.111711
-0.608664
-1.40792
-2.07725
-1.31162
-0.560257
-0.0927675
0.273554
0.534195
0.549
0.606088
0.499926
0.455334
0.417394
0.3806
0.427599
0.455205
0.472905
0.463341
0.391313
0.0408443
-0.578869
-1.09198
-1.42743
-0.89732
-0.415387
-0.0534602
0.212403
0.329512
0.389633
0.396088
0.36376
0.328408
0.254175
0.351825
0.2631
0.429231
0.426487
0.376778
0.290784
0.0456008
-0.402176
-0.807547
-0.849353
-0.597856
-0.264958
-0.0804326
0.120974
0.188857
0.246582
0.24069
0.178151
0.256457
0.119194
0.118422
0.140399
0.17794
0.240276
0.25312
0.184453
-0.041084
-0.25605
-0.540567
-0.270493
-0.224662
-0.149344
-0.0181734
0.0750101
0.0910052
0.0917231
0.0372239
0.0653146
0.0722413
0.055457
0.0756079
0.0812072
0.0546946
0.0553442
0.0256291
0.0240138
0.0129852
-0.138641
-0.236329
-4.18276
-2.54049
-1.10654
0.0455777
0.647023
1.00186
1.17049
0.996101
0.709539
0.461434
0.28197
0.26207
0.453475
0.788455
1.09229
1.25597
1.01509
0.450477
-0.746157
-1.94522
-3.66778
-2.38047
-1.05463
-0.0537221
0.522681
0.805847
0.880633
0.851132
0.621401
0.290237
0.0746565
0.106504
0.272229
0.550046
0.798861
0.893516
0.70083
0.231818
-0.732722
-1.85829
-3.1636
-2.1106
-0.968576
-0.103128
0.418621
0.58188
0.632009
0.544702
0.471434
0.15754
0.0715104
0.132157
0.157055
0.492805
0.641937
0.679481
0.527853
0.0160859
-0.746069
-1.62947
-2.59438
-1.73638
-0.787756
-0.185835
0.285921
0.459096
0.534105
0.487682
0.334582
0.205491
-0.00144008
-0.0131307
0.165244
0.256417
0.411399
0.44368
0.444017
-0.0345388
-0.649737
-1.40675
-2.02498
-1.41137
-0.675925
-0.161537
0.191497
0.318553
0.352519
0.323284
0.137313
-0.00241323
-0.0179163
0.0172744
0.0636682
0.264599
0.294235
0.292827
0.316675
-0.0857821
-0.534503
-1.15515
-1.61768
-1.01015
-0.466545
-0.134746
0.0345581
0.1969
0.289107
0.177241
0.0788452
0.0180006
-0.0388763
0.0370175
0.0356185
0.129508
0.208237
0.173281
0.143446
-0.079882
-0.442818
-0.834623
-0.954651
-0.566855
-0.301346
-0.0579763
0.0232577
0.1178
0.0892418
0.114235
0.0122146
0.0132675
-0.0445774
0.0242033
0.0274216
0.0959614
0.124551
0.0939311
0.0936265
-0.0782245
-0.267171
-0.484253
-0.366474
-0.241324
-0.11651
-0.0553332
0.00459531
-0.0146546
0.0271571
0.057467
0.0519431
-0.0491485
-0.0467629
0.0205312
0.000909657
-0.00469673
0.0597539
0.104177
0.0617868
-0.0824719
-0.0472769
-0.14827
-4.21755
-2.70421
-1.24594
-0.238078
0.4736
0.714428
0.613657
0.355862
0.00541091
-0.328166
-0.608268
-0.584745
-0.281565
0.135777
0.516222
0.794299
0.599429
0.123549
-0.824764
-1.97537
-3.73386
-2.4898
-1.13884
-0.362277
0.309925
0.476299
0.405659
0.229144
-0.0979864
-0.366079
-0.548063
-0.631677
-0.364769
0.0589614
0.221101
0.450641
0.490383
-0.0827341
-0.919595
-1.89551
-3.1559
-2.17596
-1.13174
-0.326688
0.0571102
0.315024
0.341065
0.20599
-0.112037
-0.324329
-0.588081
-0.532251
-0.343763
-0.0370037
0.219934
0.269618
0.238593
-0.20483
-0.879605
-1.79171
-2.60176
-1.79472
-0.892686
-0.349343
-0.0451273
0.228232
0.21897
0.060538
-0.152124
-0.31873
-0.503022
-0.533475
-0.28106
-0.109754
0.108368
0.179576
0.12861
-0.212672
-0.882018
-1.50685
-2.04231
-1.51059
-0.780126
-0.320298
0.0454088
0.175168
0.191839
0.0788223
-0.0983968
-0.246019
-0.396422
-0.400655
-0.296346
-0.0923508
0.0739824
0.134542
0.118563
-0.140345
-0.683863
-1.25932
-1.58241
-1.03869
-0.588244
-0.242695
-0.0844999
0.0556443
0.10858
0.0353588
-0.11426
-0.159504
-0.252665
-0.231106
-0.190604
-0.113192
0.0224066
0.110531
0.0501266
-0.166837
-0.52131
-0.861499
-0.904225
-0.580872
-0.332775
-0.184037
0.00174916
0.0636973
0.0241782
-0.0405485
-0.0551185
-0.0783457
-0.193875
-0.281464
-0.164806
0.0519034
0.026336
0.057287
0.00991324
-0.0743951
-0.301641
-0.477518
-0.309712
-0.223535
-0.167246
-0.0848051
0.0569318
-0.0135281
0.0351808
-0.0488527
-0.114852
-0.0799315
-0.0359525
-0.0770791
-0.0364713
0.0866114
-0.0359658
0.0122288
-0.0167892
0.00727328
-0.124662
-0.219227
-4.27977
-2.76088
-1.45647
-0.368546
0.103608
0.277783
0.186986
-0.116896
-0.676891
-1.06794
-1.34081
-1.3633
-0.889566
-0.43482
0.04722
0.316936
0.325537
-0.114576
-0.988669
-2.15019
-3.72229
-2.52107
-1.32714
-0.471533
-0.0250848
0.245808
0.0857163
-0.34399
-0.709342
-0.985122
-1.17184
-1.22451
-0.853924
-0.453547
-0.0730449
0.237055
0.139119
-0.232371
-1.06521
-1.97755
-3.19902
-2.23917
-1.23303
-0.474444
-0.038836
0.0314951
0.0365246
-0.187898
-0.583922
-0.901849
-1.00771
-1.00305
-0.810658
-0.482456
-0.16323
0.104077
0.000647589
-0.292581
-1.00575
-1.73479
-2.70022
-1.85105
-1.05836
-0.428059
-0.119296
0.0351514
-0.0838301
-0.239712
-0.527708
-0.73183
-0.903544
-0.896464
-0.730559
-0.469512
-0.179595
0.00707607
-0.0377484
-0.42684
-0.918338
-1.51445
-2.12089
-1.50812
-0.89279
-0.382445
-0.106097
0.0061199
-0.109093
-0.236953
-0.353346
-0.591364
-0.743437
-0.809449
-0.597243
-0.377538
-0.135342
-0.0209093
-0.0659395
-0.334472
-0.827139
-1.24987
-1.51456
-1.13828
-0.576841
-0.202656
-0.0642822
-0.00728759
-0.0173876
-0.142043
-0.290631
-0.427029
-0.51628
-0.524047
-0.442652
-0.253549
-0.179322
-0.0456972
-0.0312761
-0.267345
-0.509327
-0.888547
-0.870228
-0.625867
-0.433148
-0.156407
-0.09489
-0.0958377
-0.073793
-0.0110713
-0.125144
-0.240751
-0.327852
-0.375309
-0.174251
-0.182781
-0.12412
-0.0577332
-0.119352
-0.138072
-0.385813
-0.520841
-0.336022
-0.236817
-0.116847
-0.0417095
-0.0727016
-0.0315169
-0.00198621
-0.0518571
-0.00623646
-0.0770408
-0.129424
-0.129436
-0.0437733
-0.0487604
-0.0164188
-0.0146019
-0.0163247
-0.0977346
-0.0595651
-0.164507
-4.17046
-2.86238
-1.4705
-0.662178
-0.154638
-0.011093
-0.186341
-0.66139
-1.02386
-1.59123
-1.83511
-1.85039
-1.37491
-0.844753
-0.198774
0.0839683
0.0653791
-0.240906
-1.11023
-2.07331
-3.78453
-2.64
-1.38101
-0.579743
-0.175387
-0.125881
-0.178074
-0.629175
-0.961409
-1.40238
-1.67599
-1.56815
-1.27343
-0.840029
-0.312004
-0.125675
-0.0924684
-0.348268
-1.15971
-2.02732
-3.10902
-2.23874
-1.36421
-0.631373
-0.301227
-0.165375
-0.271527
-0.497949
-0.890586
-1.26419
-1.43865
-1.38817
-1.20993
-0.777793
-0.366658
-0.159714
-0.152749
-0.448147
-1.07609
-1.73357
-2.67493
-1.80736
-1.04526
-0.565347
-0.205156
-0.1846
-0.2265
-0.493538
-0.772482
-1.0536
-1.15541
-1.18514
-0.996205
-0.707154
-0.464389
-0.230489
-0.183699
-0.468039
-0.964728
-1.50012
-2.12928
-1.47438
-0.83711
-0.452338
-0.238771
-0.179453
-0.201059
-0.393746
-0.616448
-0.888096
-0.923378
-0.930791
-0.796784
-0.56242
-0.31081
-0.165282
-0.19259
-0.36197
-0.734123
-1.19879
-1.49089
-1.14206
-0.630221
-0.358129
-0.216541
-0.174481
-0.195707
-0.320182
-0.524567
-0.616676
-0.751775
-0.695941
-0.5039
-0.320661
-0.194125
-0.195477
-0.163861
-0.355667
-0.566069
-0.852757
-0.939102
-0.666231
-0.385471
-0.182543
-0.118694
-0.126577
-0.0726519
-0.216946
-0.284035
-0.36398
-0.416655
-0.441989
-0.390358
-0.211989
-0.167924
-0.0346127
-0.200527
-0.23328
-0.348003
-0.530985
-0.308504
-0.245343
-0.109094
-0.108186
-0.017369
-0.0621671
-0.009784
-0.0501625
-0.104125
-0.167945
-0.10638
-0.138053
-0.101988
-0.0644433
-0.0478008
-0.0100117
0.0226609
-0.0156927
-0.107108
-0.277543
-4.05044
-2.70333
-1.44077
-0.676374
-0.180305
-0.103123
-0.413958
-0.787828
-1.31357
-1.90445
-2.12376
-2.03932
-1.65506
-1.06531
-0.569833
-0.031967
0.0591592
-0.31143
-1.08751
-1.98217
-3.54306
-2.49671
-1.42689
-0.657044
-0.308096
-0.218956
-0.375156
-0.74394
-1.20752
-1.64625
-2.00633
-1.91809
-1.47969
-1.03442
-0.468137
-0.237411
-0.108598
-0.448209
-1.06882
-1.9435
-3.05868
-2.14227
-1.32929
-0.60513
-0.281254
-0.271004
-0.355115
-0.694895
-1.14839
-1.43415
-1.66435
-1.66965
-1.29721
-0.959037
-0.501993
-0.245437
-0.240355
-0.512346
-1.09633
-1.72607
-2.5935
-1.783
-1.09135
-0.539912
-0.357179
-0.246573
-0.397528
-0.597346
-0.98213
-1.17681
-1.38557
-1.40319
-1.10829
-0.769811
-0.500741
-0.271586
-0.304229
-0.561081
-0.952407
-1.44507
-2.04152
-1.39764
-0.847502
-0.553438
-0.261452
-0.215567
-0.391359
-0.554949
-0.760883
-1.00526
-1.17427
-1.10979
-0.947732
-0.739788
-0.377285
-0.266767
-0.272578
-0.399435
-0.798746
-1.16478
-1.40685
-1.06015
-0.702232
-0.395361
-0.147508
-0.109277
-0.233295
-0.387226
-0.531327
-0.695436
-0.816295
-0.804071
-0.671988
-0.493298
-0.378538
-0.174401
-0.163863
-0.331491
-0.666918
-0.858176
-0.862333
-0.618619
-0.331019
-0.272084
-0.135857
-0.0706178
-0.135309
-0.222394
-0.282405
-0.468001
-0.438155
-0.432301
-0.348022
-0.368932
-0.208396
-0.0987069
-0.120203
-0.248317
-0.393495
-0.536971
-0.23175
-0.214771
-0.144189
-0.075413
-0.00354138
-0.0533596
-0.0549237
-0.0412373
-0.151493
-0.127728
-0.175323
-0.10746
-0.211199
-0.0677818
-0.0982852
-0.0863104
-0.0721745
-0.0540071
-0.0874809
-0.131685
-3.83881
-2.49669
-1.40842
-0.640521
-0.167921
-0.152164
-0.490773
-0.846902
-1.41213
-1.92841
-2.28936
-2.06574
-1.69022
-1.07312
-0.437971
-0.0427611
0.104666
-0.272759
-0.84989
-1.70663
-3.40241
-2.312
-1.29762
-0.565297
-0.275796
-0.234218
-0.433102
-0.840199
-1.30334
-1.70289
-1.95776
-1.94125
-1.62076
-1.05838
-0.550693
-0.148633
-0.0257353
-0.388318
-0.99937
-1.75324
-2.92413
-2.03727
-1.07669
-0.604982
-0.351786
-0.229403
-0.352654
-0.730521
-1.1191
-1.50561
-1.75859
-1.60578
-1.38274
-0.917588
-0.538912
-0.184681
-0.141267
-0.444158
-0.929772
-1.53115
-2.51333
-1.84567
-1.0529
-0.590916
-0.333348
-0.297411
-0.413697
-0.653879
-1.0033
-1.31408
-1.40277
-1.45057
-1.21548
-0.840691
-0.552381
-0.245504
-0.202459
-0.434956
-0.852469
-1.33026
-1.87299
-1.3722
-0.825353
-0.484975
-0.211238
-0.220043
-0.290051
-0.518808
-0.754859
-1.02478
-1.13652
-1.11229
-0.881078
-0.680695
-0.43733
-0.26231
-0.275412
-0.376836
-0.726303
-1.06279
-1.38834
-0.974866
-0.546158
-0.381687
-0.165677
-0.16324
-0.181083
-0.400389
-0.548107
-0.729138
-0.777937
-0.77969
-0.651965
-0.433275
-0.33238
-0.16768
-0.204613
-0.291469
-0.623181
-0.776579
-0.825192
-0.604148
-0.343935
-0.24611
-0.103773
-0.123562
-0.187349
-0.256845
-0.347051
-0.455577
-0.422852
-0.480198
-0.368283
-0.345397
-0.261324
-0.169671
-0.113312
-0.166681
-0.363354
-0.592485
-0.271781
-0.159082
-0.0907465
-0.0960333
-0.0332209
-0.0297173
-0.0747992
-0.157558
-0.0704978
-0.132306
-0.192689
-0.125882
-0.0880309
-0.180205
-0.0805329
0.00746343
-0.0294455
-0.163508
-0.0659898
-0.192124
-3.41882
-2.22822
-1.06341
-0.35039
-0.0216915
-0.02445
-0.239635
-0.688544
-1.20449
-1.74089
-2.00251
-1.93406
-1.49752
-0.919553
-0.215804
0.183459
0.230151
0.0498098
-0.60326
-1.47265
-3.03223
-2.02687
-1.13102
-0.510515
-0.174045
-0.161832
-0.323387
-0.656157
-1.22907
-1.5658
-1.8402
-1.72713
-1.32065
-0.920556
-0.440689
0.0418655
0.0297933
-0.0840419
-0.67037
-1.47376
-2.68044
-1.78339
-1.07227
-0.464229
-0.191897
-0.22684
-0.339806
-0.732874
-0.993245
-1.34682
-1.61673
-1.49867
-1.19287
-0.761186
-0.420534
-0.0666902
-0.00810766
-0.24258
-0.761404
-1.34218
-2.22802
-1.52366
-0.874989
-0.406734
-0.196719
-0.160644
-0.215497
-0.529554
-0.89714
-1.21907
-1.30104
-1.21171
-0.994894
-0.719224
-0.382985
-0.0750858
-0.00484725
-0.24507
-0.674356
-1.17972
-1.75041
-1.25521
-0.795377
-0.386024
-0.167984
-0.157223
-0.274593
-0.481439
-0.739112
-0.862306
-1.08374
-0.994284
-0.856027
-0.630003
-0.399147
-0.103764
-0.102501
-0.225138
-0.568398
-0.951667
-1.23998
-0.803487
-0.544703
-0.249484
-0.164468
-0.162695
-0.165558
-0.324378
-0.535164
-0.687499
-0.731884
-0.721289
-0.531702
-0.440368
-0.213602
-0.182126
-0.101463
-0.220789
-0.443454
-0.757594
-0.860594
-0.587794
-0.354984
-0.203148
-0.0927864
0.0111856
-0.134068
-0.220535
-0.328694
-0.410426
-0.427266
-0.35765
-0.40834
-0.229878
-0.0951171
-0.0153165
-0.0585959
-0.0401295
-0.313232
-0.508284
-0.306605
-0.158728
-0.0873677
-0.0587507
-0.0866131
-0.0473939
-0.0510808
-0.064813
-0.0513322
-0.178522
-0.158341
-0.104147
-0.150864
-0.0644304
-0.0496575
-0.0544575
-0.013335
-0.0179233
-0.0446206
-0.161922
-3.02069
-1.73154
-0.765662
-0.0261227
0.337523
0.220196
0.0769406
-0.389829
-0.883122
-1.26143
-1.51719
-1.33869
-1.01676
-0.452926
0.217857
0.608209
0.746215
0.446808
-0.163623
-1.01911
-2.67172
-1.72162
-0.769365
-0.203532
0.214092
0.210198
-0.0450439
-0.457475
-0.932303
-1.1975
-1.39084
-1.33241
-0.9821
-0.511658
-0.0308273
0.270288
0.44333
0.246047
-0.310272
-0.95429
-2.32347
-1.46775
-0.700077
-0.267115
0.0661373
0.0579482
-0.139136
-0.353633
-0.721721
-1.05939
-1.20783
-1.19083
-0.84277
-0.528769
-0.105815
0.27971
0.274422
0.0700238
-0.429319
-1.02045
-2.03004
-1.30437
-0.639426
-0.226671
0.000115337
-0.0296501
-0.0787068
-0.400852
-0.658031
-0.944693
-1.03044
-0.994928
-0.849711
-0.554025
-0.143972
0.0174679
0.196496
-0.128287
-0.481228
-0.934585
-1.588
-0.98433
-0.568876
-0.238871
0.0178888
-0.0316212
-0.193536
-0.287389
-0.580572
-0.694911
-0.749447
-0.797948
-0.542989
-0.357034
-0.197727
0.0671448
0.0155962
-0.0625025
-0.440404
-0.772098
-1.06229
-0.792042
-0.409432
-0.153052
-0.03826
-0.0621936
-0.162238
-0.25267
-0.399173
-0.541134
-0.642101
-0.516207
-0.413656
-0.34157
-0.139736
-0.0735287
0.0159526
-0.178514
-0.217324
-0.526079
-0.740497
-0.438528
-0.378784
-0.141721
-0.028801
-0.0280579
-0.103515
-0.0474857
-0.247945
-0.315299
-0.329493
-0.343193
-0.28259
-0.143393
-0.122796
-0.0307371
0.114956
-0.129936
-0.218076
-0.360363
-0.248646
-0.145067
-0.0730401
0.00982317
-0.0629315
-0.0553249
-0.0505461
-0.0305078
-0.118805
-0.108239
-0.159818
-0.0684816
-0.0670292
-0.103612
-0.0470824
0.00500675
-0.0157571
-0.0669899
-0.0884616
-0.136658
-2.41371
-1.30737
-0.239576
0.443633
0.769338
0.80146
0.583276
0.158139
-0.300711
-0.587411
-0.767623
-0.674531
-0.362908
0.105805
0.756506
1.11758
1.28317
0.989467
0.43447
-0.355187
-2.2449
-1.21156
-0.297301
0.22486
0.586652
0.507032
0.381729
-0.0207009
-0.294327
-0.668239
-0.835891
-0.73011
-0.371266
0.10382
0.508514
0.709671
0.915312
0.649632
0.155126
-0.546544
-1.94878
-1.09129
-0.389249
0.0335189
0.314884
0.420135
0.248199
0.013117
-0.343246
-0.586172
-0.752878
-0.668556
-0.451265
-0.0924526
0.36916
0.649155
0.67229
0.457221
-0.0645033
-0.609118
-1.62928
-1.05364
-0.355312
0.118555
0.275731
0.325507
0.139366
-0.131821
-0.36077
-0.532168
-0.633228
-0.647844
-0.40705
-0.128049
0.186319
0.391789
0.460524
0.290701
-0.113309
-0.540885
-1.24449
-0.713662
-0.328823
-0.0144165
0.229407
0.191284
0.023704
-0.117141
-0.283551
-0.477503
-0.44408
-0.50351
-0.386777
-0.0343708
0.101798
0.294022
0.30773
0.162366
-0.0539834
-0.364042
-0.894556
-0.537806
-0.242504
-0.0356595
0.144301
0.0481465
0.0609381
-0.0977293
-0.236316
-0.321313
-0.420323
-0.364055
-0.156222
-0.116882
0.0707797
0.235492
0.23313
0.07002
-0.100349
-0.353283
-0.615225
-0.415511
-0.124458
-0.0083328
-0.0519578
0.111904
-0.0421941
-0.117685
-0.191848
-0.163161
-0.245704
-0.193228
-0.0775491
-0.0629356
0.0176634
0.153097
0.124737
0.0308356
-0.0901561
-0.231001
-0.212841
-0.123848
-0.0494506
-0.0361879
0.00506885
0.0160049
-0.0244011
-0.0736705
-0.0544664
-0.0594875
-0.0426304
-0.0285431
-0.0503838
-0.0406979
0.0148358
0.0694966
-0.00846808
0.0800821
0.007693
-0.104283
-1.64588
-0.599863
0.386285
1.0609
1.32139
1.4195
1.18908
0.868004
0.5033
0.137585
0.114503
0.125914
0.425799
0.997268
1.48668
1.9718
1.88802
1.75574
1.15348
0.357275
-1.56742
-0.697011
0.253318
0.814711
1.0772
1.0473
0.869959
0.637101
0.305987
0.0388369
-0.0372525
0.0436797
0.358926
0.681348
1.0805
1.40997
1.55561
1.33213
0.70708
0.101311
-1.35225
-0.684996
0.0641504
0.584272
0.849911
0.841771
0.762469
0.422709
0.190705
-0.0495397
-0.146839
0.000425137
0.106106
0.531517
0.845124
1.14584
1.20187
1.01305
0.566148
-0.0487443
-1.15343
-0.556942
0.0237143
0.354233
0.625014
0.669547
0.536871
0.391965
0.166019
-0.1102
-0.132506
-0.12935
0.0970136
0.313054
0.617183
0.780658
0.912635
0.706204
0.378805
-0.0859644
-0.938262
-0.427227
-0.054466
0.292423
0.432998
0.493155
0.355395
0.253982
0.0973988
-0.112095
-0.0510995
-0.0935684
0.121693
0.216704
0.397612
0.632816
0.579507
0.465877
0.223163
-0.153821
-0.716658
-0.343751
-0.0505297
0.18655
0.275931
0.351057
0.22812
0.10021
0.00845524
-0.0307635
-0.152002
-0.120478
0.0475152
0.126765
0.288005
0.439369
0.507216
0.389302
0.154442
-0.114372
-0.373937
-0.210573
-0.00232889
0.0652092
0.181016
0.161761
0.0911169
0.0630863
0.0219072
-0.0152674
-0.0255653
-0.0437612
0.0228366
0.138202
0.138697
0.224015
0.29749
0.201134
0.0453595
-0.0374718
-0.244796
-0.0549586
-0.0216939
0.0533542
0.0593194
0.104579
-0.0761987
0.0262924
-0.132986
-0.0435334
-0.0362356
0.0542163
-0.0441823
0.00636744
0.0211278
0.0326857
0.0957083
0.0805561
0.073427
-0.0258132
-0.860698
0.28104
1.21424
1.83247
2.14127
2.25836
2.0435
1.8036
1.4443
1.2207
1.08645
1.27788
1.5571
1.89547
2.39421
2.69873
2.78067
2.59741
1.9785
1.19487
-0.932515
0.0457101
0.880868
1.44451
1.68849
1.65661
1.57273
1.38635
1.16953
0.846403
0.818154
0.970981
1.18914
1.5581
1.94381
2.19509
2.24352
2.09458
1.56822
0.966126
-0.803332
-0.058574
0.577649
1.07279
1.37644
1.35512
1.27636
1.11022
0.844903
0.641474
0.665825
0.706945
0.930816
1.19626
1.543
1.76525
1.78903
1.53583
1.15131
0.60313
-0.693848
-0.193349
0.448444
0.851232
1.1129
1.09516
1.02847
0.851636
0.635416
0.503277
0.50068
0.544793
0.666157
0.85026
1.17587
1.30368
1.40475
1.22799
0.824238
0.383949
-0.5913
-0.126689
0.305421
0.620289
0.84151
0.818543
0.779518
0.601837
0.410165
0.399438
0.350743
0.364116
0.402467
0.711716
0.861902
0.95397
1.05356
0.84438
0.554541
0.246347
-0.425536
-0.117149
0.179503
0.44415
0.571911
0.564651
0.487688
0.452635
0.345693
0.275646
0.249178
0.197834
0.294766
0.41871
0.617321
0.636785
0.659498
0.571977
0.45138
0.0842874
-0.27337
-0.0425895
0.0626136
0.276827
0.313476
0.340471
0.30165
0.363642
0.227217
0.178717
0.125803
0.0876088
0.173666
0.243818
0.341069
0.387325
0.40626
0.373912
0.301649
0.0693067
-0.0752619
-0.0611706
0.0098841
-0.0150496
0.120225
0.112507
0.127043
0.0494973
0.00600582
0.093374
0.0687835
0.0555738
0.0423884
0.0949986
0.155163
0.0837377
0.0962446
0.120455
0.0583891
0.0747603
0.0603045
1.08667
1.97254
2.59792
3.03472
3.04725
2.97439
2.69191
2.52548
2.29091
2.28522
2.4359
2.6119
3.11061
3.38544
3.7339
3.77118
3.5286
2.94506
2.16741
-0.030239
0.821653
1.62894
2.25003
2.4658
2.45347
2.47895
2.24697
1.99281
1.89653
1.77939
1.87064
2.13774
2.42788
2.80126
2.99124
3.03936
2.81775
2.29973
1.69235
-0.212105
0.515487
1.17794
1.71795
2.00013
2.00589
1.96712
1.78672
1.61769
1.45699
1.52766
1.58276
1.65919
1.95223
2.23207
2.41552
2.43464
2.28162
1.84644
1.28089
-0.14623
0.423118
0.993526
1.42844
1.60304
1.60031
1.55172
1.41388
1.28371
1.09849
1.13485
1.17108
1.30659
1.65218
1.71243
1.87956
1.90922
1.73999
1.3288
0.879664
-0.247419
0.176863
0.698084
0.955289
1.15973
1.25033
1.15529
1.00993
0.956757
0.883549
0.809988
0.904631
0.987727
1.21181
1.41046
1.4489
1.47118
1.31682
1.12624
0.624638
-0.152442
0.230838
0.529908
0.755762
0.774089
0.88143
0.751721
0.71479
0.719904
0.550613
0.59408
0.580385
0.736399
0.828032
0.980561
1.05557
0.956333
0.884622
0.718525
0.49872
-0.144551
0.146667
0.32659
0.421605
0.501853
0.518873
0.498892
0.425662
0.448659
0.360206
0.345581
0.359313
0.383026
0.48182
0.574357
0.714515
0.619929
0.517069
0.417358
0.258211
-0.0477947
-0.0155227
0.12473
0.0805892
0.130255
0.190972
0.154548
0.146217
0.127184
0.125795
0.0774543
0.187347
0.14265
0.151254
0.118048
0.128642
0.231287
0.158276
0.142193
0.171531
1.02603
2.04445
2.97446
3.70131
3.92092
4.04347
3.93165
3.8064
3.63318
3.51113
3.45926
3.6173
3.88589
4.17309
4.53985
4.80254
4.84231
4.54799
3.94439
3.22668
0.772605
1.60175
2.40389
2.95865
3.34626
3.34344
3.36224
3.13126
3.05841
2.83624
2.81117
2.96058
3.25603
3.42748
3.78373
3.97459
3.94321
3.68617
3.24998
2.49584
0.533579
1.22471
1.96442
2.39766
2.65983
2.76678
2.67008
2.69696
2.43534
2.36479
2.26255
2.44722
2.53243
2.77728
3.04624
3.20599
3.15174
3.04369
2.606
1.98717
0.367794
0.879913
1.51428
1.94137
2.05913
2.19343
2.15776
2.08108
1.856
1.82129
1.81804
1.91661
2.00751
2.27801
2.37025
2.49128
2.57487
2.34639
1.94385
1.46561
0.268347
0.743068
1.11772
1.44869
1.6287
1.64858
1.60817
1.57318
1.44775
1.40627
1.32647
1.32651
1.53172
1.66013
1.88101
1.84885
1.96425
1.76588
1.46527
1.10113
0.110078
0.408741
0.741683
0.941728
1.11469
1.18964
1.11433
1.07544
0.961031
0.90783
0.970615
0.943953
1.07345
1.20825
1.14996
1.32109
1.36076
1.22322
1.06475
0.754516
0.0923667
0.276843
0.490385
0.530013
0.593945
0.650008
0.69791
0.641923
0.606244
0.578495
0.55213
0.64987
0.672394
0.742032
0.703867
0.761463
0.860573
0.744433
0.632119
0.458722
-0.0354441
0.195581
0.122895
0.259657
0.258247
0.258792
0.220609
0.146678
0.235579
0.178509
0.209837
0.249789
0.213457
0.236049
0.204672
0.29962
0.28223
0.332911
0.169745
0.154312
2.01276
3.04036
3.86351
4.55775
4.95412
5.04053
5.00216
4.88645
4.74905
4.66138
4.70457
4.81297
5.05874
5.3313
5.55828
5.85053
5.80301
5.57544
4.96563
4.1962
1.59376
2.40906
3.21786
3.64175
4.11462
4.17362
4.17036
4.07286
3.91908
3.92795
3.91775
3.94514
4.19185
4.47434
4.64858
4.86537
4.82937
4.52468
3.97382
3.34933
1.19394
1.88309
2.60429
3.09594
3.35258
3.48729
3.44292
3.34257
3.23578
3.15496
3.11457
3.24818
3.49392
3.57176
3.84567
3.85976
3.92415
3.62123
3.16087
2.73782
0.820005
1.49671
2.04048
2.47921
2.60985
2.70221
2.70102
2.65145
2.57897
2.51182
2.5224
2.55333
2.6615
2.7597
2.99572
3.06811
3.08837
2.95911
2.54173
2.03416
0.62636
1.10134
1.54688
1.76606
1.99795
2.1008
2.07241
2.00914
1.94177
1.90239
1.88278
1.96317
2.03401
2.08913
2.32491
2.29764
2.32017
2.19543
1.92098
1.57519
0.448655
0.80428
1.08502
1.29816
1.48572
1.4254
1.4413
1.43513
1.37406
1.26273
1.34422
1.29278
1.37494
1.49731
1.7211
1.62379
1.57891
1.51216
1.33029
1.09445
0.30466
0.423439
0.646686
0.717508
0.885948
0.877101
0.843247
0.856913
0.820968
0.814277
0.769183
0.7215
0.891863
0.812425
0.954855
1.00364
0.963404
0.853287
0.739148
0.687018
0.0657869
0.2308
0.195614
0.227506
0.288293
0.315294
0.277032
0.319954
0.312533
0.289225
0.266746
0.238018
0.348704
0.299989
0.407994
0.362401
0.311859
0.315585
0.194282
0.111123
2.77131
3.84229
4.65755
5.32838
5.68038
5.92209
5.93366
5.74701
5.63694
5.63392
5.61562
5.7488
5.92985
6.2112
6.48287
6.62501
6.67269
6.33628
5.73766
4.89365
2.05955
2.98039
3.77717
4.41781
4.79253
4.84185
4.81336
4.76552
4.66
4.63206
4.66514
4.73569
4.86884
5.10398
5.30553
5.53966
5.48834
5.14213
4.66451
4.04195
1.70864
2.41348
2.99166
3.48499
3.87252
3.94168
3.98967
3.90126
3.78487
3.76458
3.76875
3.8824
4.03121
4.21089
4.31446
4.49851
4.45678
4.21074
3.82758
3.20897
1.40909
1.87889
2.41558
2.81258
3.09289
3.15319
3.17521
3.02694
3.03898
2.97975
3.01003
3.02911
3.08281
3.32522
3.38706
3.56482
3.41404
3.19877
3.00972
2.45937
0.970215
1.44859
1.82895
2.15082
2.2754
2.40122
2.45516
2.31382
2.29607
2.22418
2.30071
2.3336
2.43108
2.4992
2.58707
2.61031
2.63341
2.4457
2.21067
1.87028
0.675771
0.956779
1.2845
1.4657
1.61223
1.67322
1.66833
1.62841
1.66294
1.61364
1.55257
1.69755
1.62573
1.76773
1.87827
1.93405
1.86641
1.80969
1.45501
1.16592
0.421156
0.541513
0.698048
0.901636
0.93105
0.973511
0.990588
0.938093
0.959792
1.00625
0.860341
0.924798
0.920191
1.01199
1.08312
1.09897
1.04279
1.01526
0.868665
0.713828
0.0825344
0.243813
0.265214