/*--------------------------------*- C++ -*----------------------------------*\
| =========                 |                                                 |
| \\      /  F ield         | OpenFOAM: The Open Source CFD Toolbox           |
|  \\    /   O peration     | Version:  2212                                  |
|   \\  /    A nd           | Website:  www.openfoam.com                      |
|    \\/     M anipulation  |                                                 |
\*---------------------------------------------------------------------------*/
FoamFile
{
    version     2.0;
    format      ascii;
    arch        "LSB;label=32;scalar=64";
    class       volScalarField;
    location    "./ITHACAoutput/true/16.3";
    object      trueState;
}
// * * * * * * * * * * * * * * * * * * * * * * * * * * * * * * * * * * * * * //

dimensions      [0 0 0 1 0 0 0];

internalField   nonuniform List<scalar> 
3200
(
344.269
344.514
344.827
345.168
345.519
345.864
346.182
346.451
346.646
346.75
346.75
346.646
346.451
346.182
345.864
345.519
345.168
344.827
344.514
344.269
338.441
338.648
338.918
339.213
339.517
339.815
340.09
340.323
340.492
340.581
340.581
340.492
340.323
340.09
339.815
339.517
339.213
338.918
338.648
338.441
332.581
332.753
332.981
333.23
333.487
333.739
333.971
334.167
334.31
334.385
334.385
334.31
334.167
333.971
333.739
333.487
333.23
332.981
332.753
332.581
326.696
326.835
327.02
327.224
327.434
327.64
327.83
327.99
328.106
328.167
328.167
328.106
327.99
327.83
327.64
327.434
327.224
327.02
326.835
326.696
320.79
320.897
321.041
321.199
321.362
321.522
321.67
321.794
321.884
321.932
321.932
321.884
321.794
321.67
321.522
321.362
321.199
321.041
320.897
320.79
314.869
314.944
315.046
315.16
315.276
315.39
315.496
315.584
315.649
315.683
315.683
315.649
315.584
315.496
315.39
315.276
315.16
315.046
314.944
314.869
308.936
308.981
309.042
309.11
309.18
309.249
309.312
309.365
309.404
309.424
309.424
309.404
309.365
309.312
309.249
309.18
309.11
309.042
308.981
308.936
302.996
303.011
303.032
303.054
303.078
303.101
303.122
303.14
303.153
303.16
303.16
303.153
303.14
303.122
303.101
303.078
303.054
303.032
303.011
302.996
344.454
344.697
345.008
345.345
345.693
346.034
346.349
346.614
346.807
346.909
346.909
346.807
346.614
346.349
346.034
345.693
345.345
345.008
344.697
344.454
338.602
338.807
339.075
339.367
339.668
339.963
340.235
340.464
340.631
340.719
340.719
340.631
340.464
340.235
339.963
339.668
339.367
339.075
338.807
338.602
332.718
332.888
333.114
333.361
333.615
333.864
334.094
334.288
334.428
334.503
334.503
334.428
334.288
334.094
333.864
333.615
333.361
333.114
332.888
332.718
326.808
326.945
327.129
327.331
327.539
327.742
327.93
328.088
328.203
328.264
328.264
328.203
328.088
327.93
327.742
327.539
327.331
327.129
326.945
326.808
320.877
320.983
321.125
321.282
321.444
321.602
321.748
321.871
321.96
322.007
322.007
321.96
321.871
321.748
321.602
321.444
321.282
321.125
320.983
320.877
314.931
315.006
315.107
315.219
315.335
315.448
315.552
315.639
315.703
315.736
315.736
315.703
315.639
315.552
315.448
315.335
315.219
315.107
315.006
314.931
308.973
309.018
309.079
309.146
309.215
309.283
309.345
309.398
309.436
309.456
309.456
309.436
309.398
309.345
309.283
309.215
309.146
309.079
309.018
308.973
303.009
303.024
303.044
303.066
303.09
303.112
303.133
303.151
303.164
303.171
303.171
303.164
303.151
303.133
303.112
303.09
303.066
303.044
303.024
303.009
344.826
345.065
345.37
345.701
346.042
346.376
346.683
346.942
347.13
347.229
347.229
347.13
346.942
346.683
346.376
346.042
345.701
345.37
345.065
344.826
338.924
339.126
339.389
339.676
339.971
340.26
340.525
340.749
340.912
340.998
340.998
340.912
340.749
340.525
340.26
339.971
339.676
339.389
339.126
338.924
332.991
333.159
333.38
333.623
333.872
334.116
334.34
334.529
334.666
334.738
334.738
334.666
334.529
334.34
334.116
333.872
333.623
333.38
333.159
332.991
327.031
327.167
327.347
327.545
327.749
327.948
328.132
328.286
328.398
328.457
328.457
328.398
328.286
328.132
327.948
327.749
327.545
327.347
327.167
327.031
321.051
321.155
321.295
321.449
321.608
321.762
321.905
322.025
322.112
322.157
322.157
322.112
322.025
321.905
321.762
321.608
321.449
321.295
321.155
321.051
315.055
315.129
315.229
315.339
315.452
315.562
315.664
315.749
315.811
315.844
315.844
315.811
315.749
315.664
315.562
315.452
315.339
315.229
315.129
315.055
309.048
309.092
309.152
309.218
309.285
309.352
309.413
309.464
309.501
309.521
309.521
309.501
309.464
309.413
309.352
309.285
309.218
309.152
309.092
309.048
303.034
303.048
303.068
303.091
303.113
303.136
303.156
303.173
303.186
303.192
303.192
303.186
303.173
303.156
303.136
303.113
303.091
303.068
303.048
303.034
345.383
345.617
345.914
346.237
346.567
346.89
347.187
347.437
347.618
347.713
347.713
347.618
347.437
347.187
346.89
346.567
346.237
345.914
345.617
345.383
339.408
339.605
339.862
340.141
340.427
340.707
340.963
341.179
341.335
341.418
341.418
341.335
341.179
340.963
340.707
340.427
340.141
339.862
339.605
339.408
333.4
333.564
333.781
334.016
334.258
334.494
334.711
334.893
335.025
335.095
335.095
335.025
334.893
334.711
334.494
334.258
334.016
333.781
333.564
333.4
327.367
327.499
327.675
327.868
328.066
328.259
328.436
328.584
328.692
328.749
328.749
328.692
328.584
328.436
328.259
328.066
327.868
327.675
327.499
327.367
321.312
321.414
321.551
321.7
321.854
322.004
322.142
322.257
322.341
322.385
322.385
322.341
322.257
322.142
322.004
321.854
321.7
321.551
321.414
321.312
315.242
315.314
315.411
315.518
315.628
315.735
315.833
315.916
315.975
316.007
316.007
315.975
315.916
315.833
315.735
315.628
315.518
315.411
315.314
315.242
309.16
309.203
309.261
309.325
309.391
309.456
309.515
309.564
309.6
309.619
309.619
309.6
309.564
309.515
309.456
309.391
309.325
309.261
309.203
309.16
303.071
303.086
303.105
303.127
303.149
303.17
303.19
303.207
303.219
303.225
303.225
303.219
303.207
303.19
303.17
303.149
303.127
303.105
303.086
303.071
346.128
346.354
346.642
346.953
347.271
347.58
347.864
348.102
348.274
348.365
348.365
348.274
348.102
347.864
347.58
347.271
346.953
346.642
346.354
346.128
340.054
340.245
340.493
340.763
341.038
341.306
341.551
341.757
341.906
341.984
341.984
341.906
341.757
341.551
341.306
341.038
340.763
340.493
340.245
340.054
333.948
334.107
334.316
334.543
334.776
335.002
335.209
335.383
335.509
335.575
335.575
335.509
335.383
335.209
335.002
334.776
334.543
334.316
334.107
333.948
327.815
327.943
328.113
328.299
328.489
328.675
328.844
328.986
329.088
329.142
329.142
329.088
328.986
328.844
328.675
328.489
328.299
328.113
327.943
327.815
321.661
321.76
321.892
322.036
322.184
322.328
322.459
322.57
322.649
322.691
322.691
322.649
322.57
322.459
322.328
322.184
322.036
321.892
321.76
321.661
315.491
315.561
315.655
315.758
315.864
315.967
316.06
316.139
316.196
316.226
316.226
316.196
316.139
316.06
315.967
315.864
315.758
315.655
315.561
315.491
309.31
309.351
309.408
309.47
309.533
309.595
309.651
309.698
309.733
309.751
309.751
309.733
309.698
309.651
309.595
309.533
309.47
309.408
309.351
309.31
303.122
303.135
303.154
303.175
303.196
303.217
303.236
303.252
303.263
303.269
303.269
303.263
303.252
303.236
303.217
303.196
303.175
303.154
303.135
303.122
347.06
347.278
347.554
347.852
348.155
348.449
348.717
348.941
349.103
349.189
349.189
349.103
348.941
348.717
348.449
348.155
347.852
347.554
347.278
347.06
340.863
341.047
341.285
341.543
341.805
342.059
342.292
342.486
342.626
342.7
342.7
342.626
342.486
342.292
342.059
341.805
341.543
341.285
341.047
340.863
334.633
334.786
334.987
335.204
335.426
335.641
335.837
336.001
336.119
336.181
336.181
336.119
336.001
335.837
335.641
335.426
335.204
334.987
334.786
334.633
328.376
328.499
328.663
328.841
329.022
329.198
329.358
329.492
329.589
329.64
329.64
329.589
329.492
329.358
329.198
329.022
328.841
328.663
328.499
328.376
322.098
322.193
322.32
322.458
322.599
322.735
322.86
322.964
323.039
323.079
323.079
323.039
322.964
322.86
322.735
322.599
322.458
322.32
322.193
322.098
315.804
315.871
315.961
316.06
316.16
316.258
316.347
316.421
316.475
316.503
316.503
316.475
316.421
316.347
316.258
316.16
316.06
315.961
315.871
315.804
309.497
309.537
309.592
309.651
309.711
309.77
309.823
309.868
309.9
309.917
309.917
309.9
309.868
309.823
309.77
309.711
309.651
309.592
309.537
309.497
303.184
303.198
303.216
303.236
303.256
303.276
303.294
303.309
303.319
303.325
303.325
303.319
303.309
303.294
303.276
303.256
303.236
303.216
303.198
303.184
348.182
348.39
348.653
348.935
349.222
349.498
349.75
349.96
350.111
350.19
350.19
350.111
349.96
349.75
349.498
349.222
348.935
348.653
348.39
348.182
341.836
342.012
342.239
342.483
342.731
342.971
343.188
343.37
343.501
343.569
343.569
343.501
343.37
343.188
342.971
342.731
342.483
342.239
342.012
341.836
335.457
335.603
335.794
336.001
336.211
336.413
336.597
336.75
336.861
336.919
336.919
336.861
336.75
336.597
336.413
336.211
336.001
335.794
335.603
335.457
329.051
329.169
329.325
329.494
329.665
329.83
329.981
330.106
330.196
330.244
330.244
330.196
330.106
329.981
329.83
329.665
329.494
329.325
329.169
329.051
322.623
322.714
322.835
322.966
323.099
323.228
323.345
323.442
323.512
323.549
323.549
323.512
323.442
323.345
323.228
323.099
322.966
322.835
322.714
322.623
316.179
316.243
316.329
316.423
316.518
316.61
316.694
316.763
316.813
316.839
316.839
316.813
316.763
316.694
316.61
316.518
316.423
316.329
316.243
316.179
309.723
309.761
309.813
309.869
309.926
309.982
310.032
310.073
310.104
310.119
310.119
310.104
310.073
310.032
309.982
309.926
309.869
309.813
309.761
309.723
303.26
303.273
303.29
303.309
303.328
303.347
303.363
303.377
303.388
303.393
303.393
303.388
303.377
303.363
303.347
303.328
303.309
303.29
303.273
303.26
349.493
349.691
349.94
350.206
350.475
350.733
350.967
351.161
351.301
351.374
351.374
351.301
351.161
350.967
350.733
350.475
350.206
349.94
349.691
349.493
342.974
343.141
343.356
343.586
343.819
344.043
344.245
344.413
344.534
344.597
344.597
344.534
344.413
344.245
344.043
343.819
343.586
343.356
343.141
342.974
336.421
336.56
336.741
336.935
337.132
337.321
337.492
337.634
337.737
337.79
337.79
337.737
337.634
337.492
337.321
337.132
336.935
336.741
336.56
336.421
329.84
329.952
330.1
330.259
330.42
330.574
330.714
330.83
330.914
330.958
330.958
330.914
330.83
330.714
330.574
330.42
330.259
330.1
329.952
329.84
323.238
323.324
323.438
323.562
323.687
323.807
323.916
324.006
324.071
324.105
324.105
324.071
324.006
323.916
323.807
323.687
323.562
323.438
323.324
323.238
316.618
316.679
316.761
316.849
316.939
317.024
317.102
317.167
317.213
317.237
317.237
317.213
317.167
317.102
317.024
316.939
316.849
316.761
316.679
316.618
309.987
310.023
310.072
310.125
310.179
310.231
310.277
310.316
310.344
310.358
310.358
310.344
310.316
310.277
310.231
310.179
310.125
310.072
310.023
309.987
303.349
303.361
303.377
303.395
303.413
303.43
303.446
303.459
303.468
303.473
303.473
303.468
303.459
303.446
303.43
303.413
303.395
303.377
303.361
303.349
350.996
351.183
351.417
351.666
351.917
352.156
352.372
352.551
352.679
352.745
352.745
352.679
352.551
352.372
352.156
351.917
351.666
351.417
351.183
350.996
344.278
344.436
344.638
344.854
345.07
345.278
345.465
345.619
345.73
345.788
345.788
345.73
345.619
345.465
345.278
345.07
344.854
344.638
344.436
344.278
337.525
337.657
337.827
338.009
338.192
338.368
338.526
338.656
338.75
338.799
338.799
338.75
338.656
338.526
338.368
338.192
338.009
337.827
337.657
337.525
330.745
330.85
330.989
331.138
331.288
331.432
331.561
331.668
331.744
331.784
331.784
331.744
331.668
331.561
331.432
331.288
331.138
330.989
330.85
330.745
323.942
324.023
324.131
324.247
324.363
324.475
324.575
324.658
324.718
324.749
324.749
324.718
324.658
324.575
324.475
324.363
324.247
324.131
324.023
323.942
317.122
317.179
317.256
317.339
317.422
317.502
317.573
317.633
317.675
317.697
317.697
317.675
317.633
317.573
317.502
317.422
317.339
317.256
317.179
317.122
310.289
310.324
310.37
310.419
310.47
310.517
310.56
310.596
310.622
310.635
310.635
310.622
310.596
310.56
310.517
310.47
310.419
310.37
310.324
310.289
303.45
303.461
303.477
303.493
303.51
303.526
303.541
303.553
303.561
303.566
303.566
303.561
303.553
303.541
303.526
303.51
303.493
303.477
303.461
303.45
352.691
352.867
353.086
353.318
353.55
353.77
353.968
354.131
354.248
354.309
354.309
354.248
354.131
353.968
353.77
353.55
353.318
353.086
352.867
352.691
345.748
345.897
346.086
346.287
346.488
346.679
346.85
346.991
347.092
347.145
347.145
347.092
346.991
346.85
346.679
346.488
346.287
346.086
345.897
345.748
338.771
338.894
339.054
339.223
339.393
339.555
339.7
339.819
339.905
339.949
339.949
339.905
339.819
339.7
339.555
339.393
339.223
339.054
338.894
338.771
331.765
331.864
331.994
332.133
332.272
332.404
332.523
332.62
332.69
332.726
332.726
332.69
332.62
332.523
332.404
332.272
332.133
331.994
331.864
331.765
324.736
324.812
324.913
325.021
325.129
325.232
325.324
325.4
325.454
325.482
325.482
325.454
325.4
325.324
325.232
325.129
325.021
324.913
324.812
324.736
317.689
317.743
317.815
317.892
317.97
318.043
318.109
318.163
318.202
318.222
318.222
318.202
318.163
318.109
318.043
317.97
317.892
317.815
317.743
317.689
310.631
310.663
310.706
310.752
310.799
310.843
310.882
310.915
310.938
310.95
310.95
310.938
310.915
310.882
310.843
310.799
310.752
310.706
310.663
310.631
303.564
303.575
303.59
303.605
303.621
303.635
303.649
303.66
303.667
303.671
303.671
303.667
303.66
303.649
303.635
303.621
303.605
303.59
303.575
303.564
354.579
354.744
354.948
355.163
355.376
355.578
355.759
355.907
356.012
356.067
356.067
356.012
355.907
355.759
355.578
355.376
355.163
354.948
354.744
354.579
347.387
347.526
347.702
347.888
348.073
348.248
348.404
348.533
348.624
348.672
348.672
348.624
348.533
348.404
348.248
348.073
347.888
347.702
347.526
347.387
340.159
340.274
340.422
340.58
340.736
340.884
341.017
341.125
341.202
341.243
341.243
341.202
341.125
341.017
340.884
340.736
340.58
340.422
340.274
340.159
332.901
332.994
333.115
333.244
333.372
333.493
333.601
333.69
333.753
333.786
333.786
333.753
333.69
333.601
333.493
333.372
333.244
333.115
332.994
332.901
325.621
325.692
325.786
325.886
325.985
326.08
326.164
326.233
326.282
326.307
326.307
326.282
326.233
326.164
326.08
325.985
325.886
325.786
325.692
325.621
318.322
318.372
318.439
318.511
318.582
318.649
318.709
318.759
318.794
318.812
318.812
318.794
318.759
318.709
318.649
318.582
318.511
318.439
318.372
318.322
311.011
311.041
311.081
311.124
311.166
311.207
311.243
311.273
311.294
311.305
311.305
311.294
311.273
311.243
311.207
311.166
311.124
311.081
311.041
311.011
303.692
303.702
303.715
303.73
303.744
303.757
303.77
303.78
303.787
303.79
303.79
303.787
303.78
303.77
303.757
303.744
303.73
303.715
303.702
303.692
356.662
356.815
357.004
357.202
357.398
357.582
357.746
357.88
357.975
358.024
358.024
357.975
357.88
357.746
357.582
357.398
357.202
357.004
356.815
356.662
349.193
349.323
349.486
349.658
349.827
349.987
350.129
350.245
350.328
350.37
350.37
350.328
350.245
350.129
349.987
349.827
349.658
349.486
349.323
349.193
341.689
341.796
341.934
342.079
342.222
342.358
342.478
342.576
342.646
342.682
342.682
342.646
342.576
342.478
342.358
342.222
342.079
341.934
341.796
341.689
334.154
334.241
334.353
334.472
334.589
334.7
334.798
334.878
334.935
334.965
334.965
334.935
334.878
334.798
334.7
334.589
334.472
334.353
334.241
334.154
326.596
326.662
326.749
326.842
326.933
327.019
327.096
327.158
327.202
327.225
327.225
327.202
327.158
327.096
327.019
326.933
326.842
326.749
326.662
326.596
319.019
319.066
319.128
319.194
319.259
319.321
319.376
319.42
319.452
319.468
319.468
319.452
319.42
319.376
319.321
319.259
319.194
319.128
319.066
319.019
311.43
311.458
311.495
311.534
311.574
311.611
311.643
311.67
311.689
311.699
311.699
311.689
311.67
311.643
311.611
311.574
311.534
311.495
311.458
311.43
303.832
303.842
303.854
303.867
303.88
303.893
303.904
303.913
303.919
303.922
303.922
303.919
303.913
303.904
303.893
303.88
303.867
303.854
303.842
303.832
358.938
359.08
359.255
359.437
359.616
359.783
359.931
360.052
360.137
360.182
360.182
360.137
360.052
359.931
359.783
359.616
359.437
359.255
359.08
358.938
351.169
351.289
351.439
351.597
351.752
351.897
352.026
352.13
352.204
352.242
352.242
352.204
352.13
352.026
351.897
351.752
351.597
351.439
351.289
351.169
343.362
343.461
343.588
343.722
343.853
343.976
344.085
344.173
344.235
344.268
344.268
344.235
344.173
344.085
343.976
343.853
343.722
343.588
343.461
343.362
335.524
335.604
335.708
335.817
335.924
336.025
336.114
336.186
336.237
336.264
336.264
336.237
336.186
336.114
336.025
335.924
335.817
335.708
335.604
335.524
327.662
327.724
327.804
327.889
327.972
328.051
328.12
328.176
328.216
328.237
328.237
328.216
328.176
328.12
328.051
327.972
327.889
327.804
327.724
327.662
319.782
319.825
319.882
319.943
320.003
320.059
320.108
320.148
320.177
320.191
320.191
320.177
320.148
320.108
320.059
320.003
319.943
319.882
319.825
319.782
311.888
311.914
311.948
311.984
312.02
312.054
312.083
312.108
312.125
312.134
312.134
312.125
312.108
312.083
312.054
312.02
311.984
311.948
311.914
311.888
303.986
303.994
304.006
304.018
304.03
304.041
304.051
304.059
304.065
304.068
304.068
304.065
304.059
304.051
304.041
304.03
304.018
304.006
303.994
303.986
361.408
361.539
361.7
361.866
362.029
362.181
362.315
362.423
362.499
362.539
362.539
362.499
362.423
362.315
362.181
362.029
361.866
361.7
361.539
361.408
353.311
353.422
353.561
353.705
353.846
353.978
354.094
354.187
354.254
354.288
354.288
354.254
354.187
354.094
353.978
353.846
353.705
353.561
353.422
353.311
345.176
345.268
345.385
345.507
345.627
345.738
345.836
345.915
345.971
346
346
345.971
345.915
345.836
345.738
345.627
345.507
345.385
345.268
345.176
337.01
337.084
337.179
337.279
337.377
337.468
337.548
337.613
337.659
337.683
337.683
337.659
337.613
337.548
337.468
337.377
337.279
337.179
337.084
337.01
328.818
328.875
328.949
329.027
329.103
329.174
329.236
329.287
329.323
329.341
329.341
329.323
329.287
329.236
329.174
329.103
329.027
328.949
328.875
328.818
320.608
320.648
320.701
320.756
320.811
320.862
320.906
320.942
320.968
320.981
320.981
320.968
320.942
320.906
320.862
320.811
320.756
320.701
320.648
320.608
312.384
312.408
312.44
312.473
312.506
312.536
312.563
312.585
312.6
312.608
312.608
312.6
312.585
312.563
312.536
312.506
312.473
312.44
312.408
312.384
304.152
304.16
304.171
304.182
304.193
304.203
304.212
304.219
304.225
304.227
304.227
304.225
304.219
304.212
304.203
304.193
304.182
304.171
304.16
304.152
364.066
364.187
364.334
364.487
364.635
364.772
364.892
364.989
365.057
365.092
365.092
365.057
364.989
364.892
364.772
364.635
364.487
364.334
364.187
364.066
355.616
355.718
355.846
355.978
356.106
356.225
356.329
356.413
356.472
356.503
356.503
356.472
356.413
356.329
356.225
356.106
355.978
355.846
355.718
355.616
347.127
347.212
347.32
347.431
347.54
347.641
347.729
347.8
347.85
347.876
347.876
347.85
347.8
347.729
347.641
347.54
347.431
347.32
347.212
347.127
338.607
338.676
338.763
338.854
338.943
339.026
339.098
339.156
339.197
339.218
339.218
339.197
339.156
339.098
339.026
338.943
338.854
338.763
338.676
338.607
330.062
330.114
330.182
330.253
330.322
330.386
330.442
330.488
330.52
330.536
330.536
330.52
330.488
330.442
330.386
330.322
330.253
330.182
330.114
330.062
321.497
321.534
321.582
321.633
321.682
321.728
321.768
321.801
321.823
321.835
321.835
321.823
321.801
321.768
321.728
321.682
321.633
321.582
321.534
321.497
312.918
312.94
312.969
313
313.029
313.057
313.081
313.1
313.114
313.121
313.121
313.114
313.1
313.081
313.057
313.029
313
312.969
312.94
312.918
304.331
304.339
304.348
304.358
304.368
304.378
304.386
304.392
304.397
304.399
304.399
304.397
304.392
304.386
304.378
304.368
304.358
304.348
304.339
304.331
366.9
367.012
367.147
367.286
367.42
367.544
367.652
367.739
367.799
367.831
367.831
367.799
367.739
367.652
367.544
367.42
367.286
367.147
367.012
366.9
358.072
358.167
358.283
358.403
358.52
358.627
358.721
358.796
358.849
358.876
358.876
358.849
358.796
358.721
358.627
358.52
358.403
358.283
358.167
358.072
349.206
349.284
349.382
349.484
349.582
349.673
349.752
349.816
349.861
349.884
349.884
349.861
349.816
349.752
349.673
349.582
349.484
349.382
349.284
349.206
340.307
340.37
340.45
340.534
340.614
340.689
340.754
340.806
340.842
340.861
340.861
340.842
340.806
340.754
340.689
340.614
340.534
340.45
340.37
340.307
331.384
331.432
331.494
331.559
331.622
331.68
331.73
331.771
331.799
331.814
331.814
331.799
331.771
331.73
331.68
331.622
331.559
331.494
331.432
331.384
322.441
322.475
322.52
322.566
322.611
322.652
322.688
322.717
322.738
322.748
322.748
322.738
322.717
322.688
322.652
322.611
322.566
322.52
322.475
322.441
313.485
313.506
313.532
313.56
313.587
313.612
313.634
313.651
313.663
313.669
313.669
313.663
313.651
313.634
313.612
313.587
313.56
313.532
313.506
313.485
304.521
304.528
304.537
304.546
304.555
304.564
304.571
304.577
304.581
304.583
304.583
304.581
304.577
304.571
304.564
304.555
304.546
304.537
304.528
304.521
369.88
369.983
370.107
370.233
370.355
370.466
370.563
370.641
370.695
370.723
370.723
370.695
370.641
370.563
370.466
370.355
370.233
370.107
369.983
369.88
360.65
360.737
360.843
360.953
361.058
361.155
361.239
361.307
361.354
361.378
361.378
361.354
361.307
361.239
361.155
361.058
360.953
360.843
360.737
360.65
351.383
351.455
351.545
351.637
351.727
351.809
351.88
351.937
351.977
351.997
351.997
351.977
351.937
351.88
351.809
351.727
351.637
351.545
351.455
351.383
342.086
342.143
342.217
342.293
342.366
342.433
342.491
342.538
342.571
342.588
342.588
342.571
342.538
342.491
342.433
342.366
342.293
342.217
342.143
342.086
332.765
332.81
332.867
332.926
332.983
333.035
333.08
333.117
333.142
333.155
333.155
333.142
333.117
333.08
333.035
332.983
332.926
332.867
332.81
332.765
323.427
323.459
323.499
323.542
323.582
323.62
323.652
323.678
323.696
323.706
323.706
323.696
323.678
323.652
323.62
323.582
323.542
323.499
323.459
323.427
314.077
314.096
314.12
314.146
314.17
314.192
314.212
314.228
314.239
314.244
314.244
314.239
314.228
314.212
314.192
314.17
314.146
314.12
314.096
314.077
304.72
304.726
304.734
304.743
304.751
304.758
304.765
304.77
304.774
304.776
304.776
304.774
304.77
304.765
304.758
304.751
304.743
304.734
304.726
304.72
372.928
373.022
373.136
373.251
373.361
373.462
373.55
373.619
373.668
373.693
373.693
373.668
373.619
373.55
373.462
373.361
373.251
373.136
373.022
372.928
363.274
363.353
363.451
363.551
363.647
363.735
363.811
363.871
363.913
363.935
363.935
363.913
363.871
363.811
363.735
363.647
363.551
363.451
363.353
363.274
353.59
353.656
353.738
353.823
353.904
353.978
354.043
354.094
354.13
354.148
354.148
354.13
354.094
354.043
353.978
353.904
353.823
353.738
353.656
353.59
343.882
343.935
344.003
344.072
344.139
344.199
344.252
344.294
344.323
344.338
344.338
344.323
344.294
344.252
344.199
344.139
344.072
344.003
343.935
343.882
334.157
334.198
334.25
334.304
334.356
334.403
334.444
334.477
334.5
334.511
334.511
334.5
334.477
334.444
334.403
334.356
334.304
334.25
334.198
334.157
324.418
324.447
324.485
324.523
324.56
324.594
324.623
324.647
324.663
324.671
324.671
324.663
324.647
324.623
324.594
324.56
324.523
324.485
324.447
324.418
314.671
314.688
314.711
314.734
314.756
314.776
314.794
314.808
314.818
314.823
314.823
314.818
314.808
314.794
314.776
314.756
314.734
314.711
314.688
314.671
304.918
304.924
304.932
304.939
304.947
304.954
304.96
304.964
304.968
304.969
304.969
304.968
304.964
304.96
304.954
304.947
304.939
304.932
304.924
304.918
375.846
375.934
376.038
376.144
376.245
376.337
376.416
376.479
376.523
376.546
376.546
376.523
376.479
376.416
376.337
376.245
376.144
376.038
375.934
375.846
365.756
365.83
365.92
366.012
366.1
366.18
366.249
366.304
366.342
366.362
366.362
366.342
366.304
366.249
366.18
366.1
366.012
365.92
365.83
365.756
355.655
355.717
355.793
355.871
355.945
356.013
356.072
356.118
356.151
356.167
356.167
356.151
356.118
356.072
356.013
355.945
355.871
355.793
355.717
355.655
345.548
345.598
345.66
345.724
345.785
345.841
345.889
345.927
345.953
345.967
345.967
345.953
345.927
345.889
345.841
345.785
345.724
345.66
345.598
345.548
335.438
335.476
335.524
335.574
335.621
335.665
335.702
335.732
335.753
335.763
335.763
335.753
335.732
335.702
335.665
335.621
335.574
335.524
335.476
335.438
325.326
325.352
325.387
325.422
325.457
325.488
325.514
325.536
325.55
325.558
325.558
325.55
325.536
325.514
325.488
325.457
325.422
325.387
325.352
325.326
315.213
315.229
315.249
315.271
315.291
315.31
315.326
315.339
315.348
315.352
315.352
315.348
315.339
315.326
315.31
315.291
315.271
315.249
315.229
315.213
305.099
305.105
305.112
305.119
305.126
305.132
305.137
305.142
305.145
305.146
305.146
305.145
305.142
305.137
305.132
305.126
305.119
305.112
305.105
305.099
378.124
378.206
378.304
378.403
378.498
378.584
378.657
378.716
378.757
378.777
378.777
378.757
378.716
378.657
378.584
378.498
378.403
378.304
378.206
378.124
367.62
367.69
367.775
367.862
367.944
368.019
368.083
368.134
368.17
368.188
368.188
368.17
368.134
368.083
368.019
367.944
367.862
367.775
367.69
367.62
357.159
357.217
357.289
357.363
357.433
357.496
357.551
357.595
357.625
357.64
357.64
357.625
357.595
357.551
357.496
357.433
357.363
357.289
357.217
357.159
346.732
346.778
346.837
346.898
346.955
347.008
347.053
347.089
347.113
347.126
347.126
347.113
347.089
347.053
347.008
346.955
346.898
346.837
346.778
346.732
336.331
336.367
336.412
336.46
336.505
336.545
336.581
336.608
336.628
336.638
336.638
336.628
336.608
336.581
336.545
336.505
336.46
336.412
336.367
336.331
325.949
325.975
326.008
326.041
326.074
326.103
326.128
326.148
326.162
326.169
326.169
326.162
326.148
326.128
326.103
326.074
326.041
326.008
325.975
325.949
315.582
315.597
315.617
315.637
315.656
315.674
315.689
315.701
315.709
315.714
315.714
315.709
315.701
315.689
315.674
315.656
315.637
315.617
315.597
315.582
305.222
305.227
305.234
305.241
305.247
305.253
305.258
305.262
305.265
305.267
305.267
305.265
305.262
305.258
305.253
305.247
305.241
305.234
305.227
305.222
)
;

boundaryField
{
    hotSide
    {
        type            fixedGradient;
        gradient        nonuniform List<scalar> 
400
(
463.284
465.242
469.16
475.044
482.901
492.74
504.571
518.406
534.257
552.135
572.051
594.017
618.043
644.136
672.305
702.557
734.897
769.329
805.858
844.485
466.509
468.442
472.31
478.121
485.884
495.612
507.318
521.017
536.725
554.455
574.222
596.041
619.921
645.875
673.91
704.035
736.255
770.576
807
845.531
470
471.902
475.71
481.434
489.087
498.685
510.244
523.785
539.327
556.889
576.487
598.139
621.858
647.657
675.545
705.532
737.624
771.825
808.139
846.569
473.698
475.564
479.303
484.927
492.452
501.9
513.292
526.655
542.011
559.384
578.795
600.265
623.809
649.441
677.173
707.014
738.971
773.048
809.248
847.575
477.499
479.326
482.987
488.498
495.882
505.163
516.372
529.539
544.693
561.864
581.077
602.354
625.714
651.174
678.745
708.437
740.257
774.209
810.297
848.521
481.247
483.031
486.608
492
499.232
508.339
519.355
532.318
547.265
564.229
583.239
604.322
627.5
652.788
680.202
709.749
741.437
775.27
811.249
849.376
484.725
486.466
489.961
495.233
502.317
511.251
522.078
534.844
549.59
566.356
585.174
606.075
629.081
654.211
681.478
710.893
742.461
776.186
812.07
850.11
487.677
489.38
492.8
497.965
504.915
513.695
524.356
536.948
551.519
568.112
586.765
607.509
630.369
655.365
682.51
711.814
743.283
776.919
812.722
850.693
489.838
491.511
494.873
499.957
506.805
515.469
526.004
538.466
552.905
569.37
587.9
608.528
631.282
656.18
683.236
712.46
743.857
777.43
813.177
851.097
490.983
492.639
495.971
501.01
507.803
516.404
526.871
539.262
553.631
570.027
588.492
609.059
631.756
656.602
683.612
712.794
744.153
777.692
813.41
851.304
490.983
492.639
495.971
501.01
507.803
516.404
526.871
539.262
553.631
570.027
588.492
609.059
631.756
656.602
683.612
712.794
744.153
777.692
813.41
851.304
489.838
491.511
494.873
499.957
506.805
515.469
526.004
538.466
552.905
569.37
587.9
608.528
631.282
656.18
683.236
712.46
743.857
777.43
813.177
851.097
487.677
489.38
492.8
497.965
504.915
513.695
524.356
536.948
551.519
568.112
586.765
607.509
630.369
655.365
682.51
711.814
743.283
776.919
812.722
850.693
484.725
486.466
489.961
495.233
502.317
511.251
522.078
534.844
549.59
566.356
585.174
606.075
629.081
654.211
681.478
710.893
742.461
776.186
812.07
850.11
481.247
483.031
486.608
492
499.232
508.339
519.355
532.318
547.265
564.229
583.239
604.322
627.5
652.788
680.202
709.749
741.437
775.27
811.249
849.376
477.499
479.326
482.987
488.498
495.882
505.163
516.372
529.539
544.693
561.864
581.077
602.354
625.714
651.174
678.745
708.437
740.257
774.209
810.297
848.521
473.698
475.564
479.303
484.927
492.452
501.9
513.292
526.655
542.011
559.384
578.795
600.265
623.809
649.441
677.173
707.014
738.971
773.048
809.248
847.575
470
471.902
475.71
481.434
489.087
498.685
510.244
523.785
539.327
556.889
576.487
598.139
621.858
647.657
675.545
705.532
737.624
771.825
808.139
846.569
466.509
468.442
472.31
478.121
485.884
495.612
507.318
521.017
536.725
554.455
574.222
596.041
619.921
645.875
673.91
704.035
736.255
770.576
807
845.531
463.284
465.242
469.16
475.044
482.901
492.74
504.571
518.406
534.257
552.135
572.051
594.017
618.043
644.136
672.305
702.557
734.897
769.329
805.858
844.485
)
;
    }
    coldSide
    {
        type            mixed;
        refValue        uniform 300;
        refGradient     uniform 0;
        valueFraction   uniform 0.991591;
        source          uniform 0;
        value           nonuniform List<scalar> 
400
(
300.025
300.025
300.026
300.026
300.026
300.027
300.027
300.028
300.029
300.03
300.031
300.032
300.034
300.035
300.036
300.038
300.04
300.041
300.043
300.044
300.025
300.025
300.026
300.026
300.026
300.027
300.028
300.028
300.029
300.03
300.031
300.032
300.034
300.035
300.036
300.038
300.04
300.041