/*--------------------------------*- C++ -*----------------------------------*\
| =========                 |                                                 |
| \\      /  F ield         | OpenFOAM: The Open Source CFD Toolbox           |
|  \\    /   O peration     | Version:  2212                                  |
|   \\  /    A nd           | Website:  www.openfoam.com                      |
|    \\/     M anipulation  |                                                 |
\*---------------------------------------------------------------------------*/
FoamFile
{
    version     2.0;
    format      ascii;
    arch        "LSB;label=32;scalar=64";
    class       volScalarField;
    location    "0";
    object      stateMean;
}
// * * * * * * * * * * * * * * * * * * * * * * * * * * * * * * * * * * * * * //

dimensions      [0 0 0 1 0 0 0];

internalField   nonuniform List<scalar> 
3200
(
323.406
321.107
323.331
326.192
322.434
324.801
324.779
323.391
321.261
324.357
324.336
322.009
323.78
324.647
324.176
320.931
319.972
324.375
320.889
322.845
320.708
321.768
320.743
318.499
321.849
318.989
321.905
320.984
322.552
320.779
321.558
319.992
321.046
320.798
319.71
320.829
320.676
317.94
320.283
317.786
316.48
317.072
318.29
319.591
318.28
318.948
319.3
318.037
318.983
318.072
320.322
317.849
322.012
317.795
317.161
317.152
315.568
317.882
315.28
318.204
313.675
313.841
312.979
316.663
314.763
315.031
318.276
313.517
313.597
315.084
317.014
312.679
314.791
316.999
314.397
314.901
314.763
313.489
314.998
313.89
312.355
311.893
312.265
310.909
311.206
311.632
310.919
311.213
311.831
314.907
312.026
311.839
312.965
312.97
313.56
311.898
311.08
311.471
310.397
313.424
308.66
308.091
309.379
309.759
308.068
307.553
308.617
310.544
310.758
307.477
306.947
306.975
308.725
305.373
309.983
308.43
307.604
307.733
308.706
308.229
303.05
303.435
306.539
306.206
306.829
305.859
305.317
305.078
307.42
304.227
305.098
305.384
305.364
305.04
301.968
306.103
304.382
304.085
303.537
304.746
300.563
300.243
301.651
304.489
301.813
302.437
302.199
301.166
298.887
302.575
302.658
301.577
300.795
300.662
301.096
300.332
302.834
301.522
300.626
298.989
323.822
325.409
325.268
323.717
323.278
323.324
323.361
324.595
324.593
325.639
326.606
323.067
325.538
324.646
324.495
325.467
322.907
325.64
324.059
323.322
320
322.741
318.822
325.009
318.562
323.989
322.093
325.577
321.532
324.573
325.009
322.821
325.24
323
325.303
320.733
323.438
320.333
323.609
320.719
317.958
320.632
319.313
319.099
319.583
319.238
319.125
317.911
318.836
318.422
318.215
319.106
319.38
317.642
317.956
318.672
316.766
318.686
315.25
318.43
315.016
315.427
314.665
315.745
316.112
315.3
314.972
316.672
316.681
314.915
315.425
315.937
313.648
314.466
314.849
314.009
313.582
313.689
313.48
314.324
310.441
311.164
310.938
313.299
310.49
311.887
314.322
312.257
312.966
313.395
311.939
310.786
313.556
308.669
314.448
312.427
312.804
310.817
310.691
311.337
308.31
308.046
309.702
310.208
309.794
309.483
307.999
309.666
308.198
308.104
308.937
308.264
308.583
307.686
309.092
309.345
306.985
308.05
307.184
309.603
305.684
305.5
305.049
304.188
303.794
304.307
304.456
304.338
305.619
305.109
306.054
304.636
306.468
304.101
304.877
305.106
306.694
304.655
307.081
306.244
300.357
302.782
304.216
302.731
302.474
303.221
301.502
300.984
301.064
302.028
302.532
300.64
301.609
300.763
301.528
301.616
302.278
302.209
299.99
301.038
324.921
324.484
323.337
327.227
325.297
324.618
325.499
325.708
326.064
323.781
327.107
327.26
324.095
328.72
326.704
325.759
323.014
324.778
323.687
321.815
323.847
324.354
325.776
323.183
323.431
323.092
320.15
323.462
323.601
320.415
322.446
323.502
323.237
322.813
324.399
322.729
321.402
320.199
321.497
320.375
317.658
317.058
317.807
318.449
320.453
319.677
318.722
319.845
321.99
320.414
322.406
317.832
319.376
318.806
320.065
317.513
318.857
318.324
318.41
315.701
314.865
314.08
315.4
315.595
314.42
316.816
317.548
316.823
314.541
315.989
317.515
315.274
317.829
316.154
315.907
315.171
315.897
316.005
313.859
316.324
311.561
313.132
313.769
310.332
314.115
313.549
313.962
313.124
313.964
312.418
311.806
311.627
311.805
311.021
313.965
313.76
312.528
310.467
312.86
311.485
305.001
308.849
310.125
310.076
310.588
308.138
309.118
310.032
308.416
308.969
310.611
308.998
307.276
309.401
310.53
309.244
308.609
309.852
307.712
309.148
306.785
306.261
304.28
305.685
303.536
304.379
305.317
306.979
305.793
301.273
305.636
307.699
303.341
303.423
305.923
307.671
306.376
304.913
307.634
302.989
301.646
300.563
300.915
302.045
299.763
302.237
300.331
302.283
301.428
303.713
302.691
300.911
301.05
303.357
303.242
304.331
304.339
302.054
301.279
301.473
329.134
327.315
326.769
326.328
325.888
325.991
326.591
327.448
328.725
329.09
327.73
327.318
327.823
325.279
326.509
324.981
327.661
327.833
325.394
326.987
321.606
325.436
324.517
325.616
324.421
324.599
322.546
325.347
323.757
325.42
325.947
320.954
325.955
324.705
325.061
323.573
324.337
322.147
324.8
321.313
317.591
321.934
322.256
322.062
319.11
321.9
320.502
320.264
321.524
322.307
319.636
319.569
322.802
318.427
321.432
317.469
319.09
320.857
320.461
318.957
317.033
318.008
314.607
313.238
313.886
316.553
318.062
316.761
317.501
317.422
316.581
316.528
314.55
317.144
318.186
317.573
316.317
316.564
315.835
314.776
311.09
309.98
313.21
313.965
311.759
313.567
312.78
314.72
312.972
313.216
314.173
313.386
313.708
315.26
312.477
313.944
311.926
312.225
314.435
312.091
308.049
310.232
308.915
308.092
309.117
310.594
311.137
308.157
310.748
307.474
309.367
309.482
308.821
310.798
307.199
306.245
307.17
310.206
308.363
309.125
307.76
306.58
304.983
304.405
305.459
307.124
306.559
307.434
303.038
304.902
303.835
303.959
305.367
305.653
304.593
303.747
305.445
305.628
305.786
307.21
302.88
302.125
299.367
301.096
301.276
303.791
300.755
302.189
302.077
301.732
301.727
301.36
300.504
301.489
302.903
299.657
299.346
303.156
302.458
302.199
330.899
327.583
325.508
330.569
329.371
331.183
330.555
328.723
331.499
325.462
331.843
327.82
329.66
327.286
327.344
328.415
329.114
327.124
325.923
325.718
323.982
322.676
323.939
322.941
324.561
325.481
327.576
323.454
325.133
326.244
324.609
324.4
324.679
325.014
323.872
325.433
323.663
325.586
323.468
325.677
321.99
318.146
320.758
318.741
322.646
319.981
322.115
324.059
322.152
323.547
321.696
321.327
321.809
322.658
319.583
319.832
319.385
318.957
319.587
319.48
314.895
317.018
317.12
315.827
318.38
318.063
317.844
317.867
317.002
318.302
318.246
317.312
317.937
317.202
317.842
317.068
317.512
318.525
315.499
319.635
314.332
310.912
314.215
314.808
314.315
313.104
314.565
315.816
315.263
314.95
312.057
315.636
314.002
313.637
313.496
314.848
312.232
313.555
311.407
312.659
307.774
311.094
310.172
310.413
311.327
309.964
309.009
309.106
309.716
310.912
310.644
309.362
311.29
310.022
308.114
307.368
309.576
310.147
310.262
308.203
305.86
305.429
306.305
306.58
306.045
306.296
306.206
302.892
304.403
306.722
306.828
307.571
306.151
306
306.303
307.765
306.947
304.966
304.516
306.102
302.696
303.675
301.171
301.71
301.248
301.359
301.375
303.681
301.069
301.814
301.028
303.733
299.458
301.578
303.414
300.671
303.5
302.689
302.369
302.719
326.963
329.09
328.929
331.303
330.341
329.69
330.057
331.604
328.571
331.011
332.088
330.997
328.822
327.909
329.74
331.328
328.824
329.938
330.203
327.563
325.681
326.011
325.512
324.844
323.498
326.376
327.244
325.911
327.894
326.447
326.769
326.019
326.219
325.798
325.899
326.152
325.105
324.666
325.224
325.509
320.936
322.127
320.655
321.173
322.354
324.552
322.663
322.139
322.008
320.616
323.099
323.022
320.767
322.203
321.919
322.394
322.177
320.303
321.079
320.463
318.385
318.643
318.646
320.341
319.02
318.81
316.907
319.333
318.063
319.782
317.752
318.031
319.534
318.171
318.276
316.898
319.254
318.774
317.724
317.429
314.041
317.631
314.255
315.2
315.873
317.091
313.084
315.089
312.921
314.941
313.389
314.917
315.231
315.806
314.45
313.312
315.911
312.785
314.07
315.763
308.276
310.416
309.699
311.475
310.405
311.963
310.982
310.011
309.013
310.161
308.363
313.121
311.2
313.031
310.914
308.199
311.658
309.751
311.381
309.237
305.858
306.071
305.817
305.432
303.033
306.144
305.825
306.025
307.079
304.864
307.549
307.459
304.825
308.866
308.375
306.431
306.403
307.472
304.219
305.632
302.254
300.304
302.808
300.671
301.949
300.014
300.692
302.572
300.255
301.822
302.388
300.672
302.893
303.269
302.972
301.975
302.273
302.608
301.232
301.772
329.969
332.236
329.071
331.793
331.981
332.222
330.431
333.539
330.5
331.708
332.684
330.284
332.232
332.047
333.069
329.943
328.952
332.355
330.986
327.855
327.305
326.756
329.003
327.414
326.788
325.629
328.474
329.553
327.446
325.235
327.202
324.822
328.024
329.167
325.757
326.628
326.646
324.32
324.809
325.235
322.749
322.343
323.717
323.629
321.946
324.001
322.959
325.657
324.206
325.227
322.707
323.656
322.676
323.625
323.175
322.526
322.068
322.358
319.746
322.187
318.992
319.505
321.541
319.87
316.804
319.109
319.906
320.026
320.924
319.211
318.933
320.985
321.029
319.343
318.095
319.286
319.831
317.488
319.126
317.281
312.976
313.787
313.202
313.302
314.983
316.719
315.337
316.715
317.247
314.119
314.392
315.557
314.457
313.327
315.166
316.145
315.559
313.176
315.419
314.598
310.163
310.22
309.974
310.947
309.89
310.294
311.201
312.68
312.65
310.496
309.202
311.767
313.062
309.619
312.569
310.333
309.465
309.171
310.322
310.437
306.585
307.806
305.504
309.013
306.399
307.266
306.711
306.664
305.885
307.267
307.637
308.25
307.029
305.315
308.159
307.273
305.935
307.69
307.354
308.114
301.871
302.76
302.714
302.973
302.34
299.489
300.875
301.18
303.057
304.525
302.227
301.256
301.896
303.732
302.388
300.281
300.879
301.418
303.228
301.772
329.28
332.208
331.269
333.754
333.183
332.729
332.284
334.472
332.316
334.128
334.644
332.702
331.173
332.513
331.991
330.696
334.404
331.368
330.482
331.806
327.361
327.068
329.239
327.375
328.138
327.089
328.956
327.73
329.678
327.56
327.08
330.353
328.027
328.914
326.869
329.214
326.671
329.17
327.12
325.275
323.192
321.038
326.041
324.472
325.51
326.036
327.032
322.665
326.279
323.588
325.16
325.278
324.342
325.064
323.976
325.471
321.376
323.063
324.378
321.591
319.813
318.854
322.44
320.816
319.465
320.225
320.564
322.175
319.848
323.641
319.506
320.692
320.388
319.248
319.922
317.789
319.015
317.943
321.427
317.594
315.342
314.499
316.66
314.969
315.591
316.485
318.003
316.685
315.984
315.885
316.495
319.049
314.661
316.541
313.985
314.925
316.134
316.366
316.245
312.707
310.926
309.006
312.027
310.967
311.802
310.041
312.736
311.599
311.343
311.132
312.37
310.791
310.885
311.983
311.333
311.765
310.311
311.144
308.999
309.75
304.946
304.991
305.192
306.186
304.573
305.76
307.392
308.067
307.057
307.199
307.566
309.557
303.438
309.966
308.68
308.198
308.896
304.575
304.271
306.883
303.029
300.974
299.935
300.701
303.295
305.854
304.455
301.111
303.525
303.063
301.871
303.802
300.708
302.329
304.202
302.465
303.489
300.046
301.599
300.445
331.481
332.442
332.173
332.485
335.946
335.807
333.198
334.679
334.704
333.393
335.716
334.336
334.341
336.571
335.769
332.649
332.549
333.219
332.492
331.414
329.603
327.318
328.024
328.7
326.45
329.49
329.567
329.93
329.172
332.541
329.813
330.203
331.23
329.818
331.688
328.513
328.228
328.818
327.603
326.853
326.887
326.919
323.36
325.778
324.089
323.012
325.631
323.082
325.953
326.027
325.776
326.322
327.613
325.426
325.691
322.63
325.571
324.678
323.024
321.022
318.697
320.256
317.076
321.21
320.515
319.999
320.927
322.41
321.696
322.943
319.706
323.204
321.79
320.436
321.852
320.897
323.043
321.625
319.571
318.798
316.382
316.088
315.15
314.497
316.965
316.038
316.342
316.755
318.372
316.712
316.218
316.975
317.585
316.823
316.12
315.484
317.567
316.486
316.281
314.721
310.748
311.554
311.082
311.274
312.602
310.333
313.806
312.075
310.91
311.824
312.221
312.677
311.421
313.229
309.81
313.434
312.267
310.678
309.821
311.2
306.114
308.691
304.61
307.313
306.927
307.63
306.733
307.597
306.649
306.35
307.533
305.851
308.686
306.51
306.164
307.089
305.186
305.341
307.737
305.872
302.1
301.938
301.468
302.219
302.753
302.975
302.97
303.415
303.512
303.192
303.098
302.563
302.325
301.93
301.309
300.837
303.25
304.6
302.721
302.373
333.484
333.944
333.779
332.322
335.378
334.759
336.117
336.888
338.139
335.448
337.169
337.091
334.24
336.756
336.825
334.803
334.118
333.103
332.929
333.805
329.15
329.844
328.421
328.09
331.27
329.549
330.533
329.081
333.446
328.938
328.645
332.157
329.173
329.535
328.653
329.896
328.314
331.56
327.589
329.039
327.162
324.998
326.34
324.783
325.482
326.822
325.719
329.139
329.365
329.025
327.349
329.053
329.941
326.947
327.422
325.633
325.577
326.358
323.195
325.218
320.864
320.901
320.443
319.553
322.377
323.233
322.257
322.382
321.603
323.442
321.999
322.562
323.914
320.947
321.424
323.82
321.436
321.14
320.792
321.6
315.19
316.046
317.132
315.615
317.205
314.015
320.101
317.073
317.423
318.736
316.748
317.952
317.405
314.592
316.976
318.341
315.865
316.686
315.548
316.079
311.126
312.567
309.964
310.779
312.825
311.679
313.495
312.001
311.706
312.946
314.439
313.004
312.277
312.841
310.717
312.607
311.895
311.536
311.245
309.728
307.047
307.054
307.782
308.445
307.471
306.685
306.731
305.622
309.058
307.542
307.849
305.694
308.057
306.238
305.888
307.08
307.869
305.601
306.323
306.488
301.897
303.427
301.653
301.422
301.868
302.717
303.293
301.611
303.07
302.612
301.473
299.531
302.607
303.354
300.709
301.593
302.809
302.056
298.568
302.115
335.748
334.509
335.407
335.167
338.156
337.643
337.129
336.069
338.754
337.436
337.17
337.729
337.862
340.239
337.324
335.769
337.838
334.558
334.063
332.692
330.921
331.496
330.929
330.162
334.826
328.926
331.154
329.493
333.412
330.172
330.454
332.66
329.536
335.52
329.589
331.073
329.129
331.325
327.94
332.304
325.257
325.314
325.256
326.622
328.932
327.471
326.918
329.025
328.904
327.096
328.445
328.357
326.404
328.297
327.153
327.44
325.884
326.532
324.914
326.446
324.217
319.094
319.673
321.508
323.775
322.243
320.534
323.869
322.07
323.085
321.813
322.58
322.635
323.853
322.982
322.856
322.08
322.601
322.487
319.325
313.121
316.132
315.621
318.933
317.7
318.095
316.961
319.082
319.425
318.995
317.895
316.528
316.226
316.57
318.579
317.759
316.719
318.733
318.2
316.851
311.099
314.343
310.274
312.983
313.483
312.81
313.604
313.426
312.465
311.683
313.569
311.597
313.652
311.649
313.742
311.29
309.42
311.476
312.159
312.799
307.162
306.836
308.398
309.216
309.701
307.815
308.721
308.617
307.616
310.764
306.435
307.188
308.847
306.963
307.286
305.786
309.705
305.902
305.615
307.696
303.493
304.152
301.127
300.48
303.131
301.886
302.102
300.678
302.38
299.496
303.215
304.391
304.472
302.187
301.254
305.253
300.577
302.623
303.193
303.688
336.388
337.649
336.2
336.596
340.065
338.365
339.765
339.682
338.514
340.063
339.281
337.471
338.152
338.558
338.853
340.864
335.824
336.211
337.049
337.198
332.135
330.723
334.236
333.02
332.804
332.283
332.87
332.951
333.722
333.06
334.498
333.996
333.379
336.633
335.036
332.11
332.253
330.75
331.131
331.892
327.064
326.371
327.47
328.331
329.228
328.324
328.428
328.803
329.126
330.366
329.495
329.347
328.724
327.256
325.883
327.947
327.828
328.578
325.656
325.584
321.884
320.751
322.341
322.524
324.881
321.93
322.98
320.321
324.48
324.069
323.525
323.724
322.696
323.424
324.27
321.223
322.663
322.831
319.972
320.762
319.498
319.4
317.136
316.03
317.75
318.733
317.582
318.759
320.684
319.615
318.056
321.835
318.633
319.068
316.493
317.684
317.344
318.106
316.322
316.053
310.809
312.512
314.163
313.445
312.234
313.577
312.481
312.093
314.182
313.494
313.549
313.075
314.453
311.8
313.55
312.034
312.632
312.776
312.85
314.761
308.002
306.376
307.032
308.008
307.976
307.699
309.328
307.543
307.155
308.122
306.774
306.479
308.196
308.319
305.055
309.333
308.024
307.604
305.828
308.279
304.173
302.283
300.443
300.112
304.373
302.001
301.056
303.209
303.078
300.853
301.397
301.263
302.658
302.733
304.267
303.665
302.038
301.492
302.748
303.069
335.67
337.396
337.251
338.767
338.082
340.125
340.754
341.101
339.975
340.26
342.302
337.938
340.01
339.008
340.208
337.023
338.568
337.506
335.698
336.385
328.932
330.077
332.872
331.665
336.393
331.83
334.879
332.62
336.033
331.748
332.193
335.498
331.573
332.977
331.954
334.116
331.471
331.745
331.501
330.042
328.007
327.242
328.847
326.171
331.209
325.505
331.935
327.519
332.583
330.759
328.329
331.368
331.962
327.884
328.885
328.587
327.273
327.932
326.138
325.258
322.287
324.155
322.676
325.34
324.732
325.319
322.223
324.555
325.428
325.37
324.19
323.949
323.88
324.265
323.106
324.951
325.937
322.386
321.018
321.916
315.95
318.496
320.477
317.515
319.705
318.199
320.474
320.444
316.616
319.258
318.816
320.16
318.519
319.886
321.186
318.948
318.375
317.776
318.264
315.564
313.693
313.765
313.501
314.529
312.887
314.046
314.412
316.287
314.157
314.774
313.802
313.832
311.903
314.239
312.996
313.244
311.553
314.455
311.809
312.279
307.747
309.736
309.055
309.772
306.212
306.494
306.587
306.72
308.823
308.097
305.997
312.623
308.126
307.78
310.985
305.921
309.186
306.689
309.665
305.19
301.98
302.782
301.295
303.318
302.664
301.107
302.42
304.268
303.171
302.031
302.9
301.953
301.529
301.281
304.581
302.452
301.963
302.345
303.642
304.067
338.642
337.049
339.149
337.858
339.035
341.222
340.516
340.526
339.929
341.653
340.893
340.156
344.003
339.328
340.22
340.043
339.405
339.16
337.747
336.896
331.285
332.714
336.007
335.935
334.991
336.433
337.273
337.03
335.661
335.517
334.047
335.941
337.333
336.512
334.372
334.9
333.025
334.351
331.445
331.17
326.208
328.527
330.409
331.51
329.368
330.674
330.626
329.884
332.471
329.765
330.113
333.241
329.088
329.358
332.869
329.455
328.819
329.419
326.946
327.115
322.343
320.823
323.401
324.136
323.988
325.935
325.795
323.627
325.723
324.491
326.987
323.995
326.816
324.966
323.892
326.687
325.63
321.131
321.323
325.659
317.602
319.427
320.507
318.556
320.759
316.6
319.914
317.922
320.053
319.823
319.761
320.317
317.852
319.048
317.911
319.371
318.615
318.59
319.422
316.901
312.708
312.456
315.164
312.451
313.39
313.596
315.412
314.196
313.401
313.492
314.424
313.254
312.031
316.049
315.25
313.203
316.451
313.723
312.248
313.399
308.769
306.734
308.946
309.347
308.192
308.204
308.052
307.889
309.469
309.835
311.018
306.925
306.709
307.296
307.959
306.846
310.048
309.205
308.033
307.56
302.411
301.91
302.914
303.909
303.36
303.104
302.212
304.091
301.378
301.389
304.249
303.106
302.483
302.426
304.076
302.897
304.072
302.09
302.403
303.727
338.359
341.824
338.593
340.729
341.482
340.185
342.425
340.8
345.018
341.017
340.208
341.081
341.306
340.892
339.13
340.811
340.34
339.038
338.401
338.559
333.046
334.141
335.311
334.182
337.479
333.79
334.131
334.721
338.166
334.771
334.204
339.073
334.409
335.171
333.769
338.068
334.085
334.809
333.071
333.876
327.862
328.144
329.105
329.86
330.56
331.234
331.606
332.174
332.056
330.674
332.513
332.338
331.607
329.37
329.595
328.42
329.532
330.164
328.383
325.963
324.4
322.155
324.233
322.352
322.847
326.134
324.917
327.556
328.068
327.38
326.691
323.399
326.709
325.455
328.497
326.012
325.014
324.567
323.301
323.013
316.691
315.478
318.452
316.267
318.564
320.641
321.179
318.834
321.126
320.761
320.443
319.242
317.837
320.116
317.767
319.781
319.887
320.169
318.4
319.844
311.382
312.928
314.194
310.866
314.975
315.324
313.451
313.329
315.109
313.302
315.612
314.83
316.31
314.74
314.988
313.143
315.226
312.479
314.425
316.612
308.421
307.382
311.907
306.597
307.874
309.085
309.446
307.459
306.3
307.363
308.278
308.896
308.988
308.018
306.95
308.493
307.887
309.21
309.668
308.025
300.52
301.695
302.61
302.85
302.344
300.215
303.054
304.834
302.344
304.36
301.031
305.567
302.636
302.92
303.868
301.204
301.275
303.967
303.106
302.223
341.236
341.765
340.258
339.116
343.393
341.665
344.243
342.764
344.669
344.491
343.177
339.419
343.941
341.05
341.501
341.596
340.291
342.157
341.878
338.813
334.823
336.956
334.595
334.291
337.004
337.647
335.822
338.016
338.005
337.898
336.897
337.705
337.095
336.634
337.731
337.801
336.406
333.007
334.817
333.129
327.804
330.661
328.806
330.53
332.294
331.483
332.294
332.344
332.466
328.886
334.694
330.992
328.05
331.793
332.28
332.374
331.481
329.994
329.117
328.931
324.622
323.101
323.914
327.49
327.835
326.164
326.041
328.455
326.619
328.155
326.471
325.703
326.948
325.954
324.467
324.075
326.993
324.256
325.027
323.557
319.201
319.66
317.326
319.59
322.014
319.922
318.817
321.268
322.16
321.072
320.795
320.308
320.313
319.731
320.075
321.335
321.052
318.956
318.125
318.934
311.992
313.289
312.984
317.984
314.18
314.373
312.829
314.037
315.787
312.746
316.613
316.219
315.506
314.847
313.297
314.794
315.65
311.831
315.817
315.259
309.499
310.549
308.166
308.376
309.12
309.283
311.573
309.39
306.681
306.956
311.714
309.824
308.489
307.767
310.446
307.813
307.113
309.296
304.882
306.59
301.577
303.03
304.024
304.586
305.173
301.977
302.745
303.017
305.935
304.645
303.442
303.019
304.484
303.8
303.101
302.07
301.986
302.033
304.471
305.581
340.29
338.43
341.394
341.667
342.073
340.474
342.843
344.065
344.457
344.155
343.712
342.91
346.559
342.536
342.013
341.093
342.26
343.96
341.731
339.962
335.866
338.379
334.697
337.183
336.045
336.394
338.211
337.628
340.925
337.258
337.137
337.67
337.396
338.139
336.399
335.922
336.514
335.847
336.727
335.627
328.646
329.995
329.61
330.187
334.719
332.509
332.451
334.989
332.897
331.882
331.026
330.942
331.534
334.184
329.825
329.547
333.5
331.607
328.813
329.597
322.752
325.199
325.874
325.145
325.988
326.463
325.286
326.081
324.746
326.238
326.618
330.258
327.545
326.962
326.709
324.437
325.259
326.528
323.455
325.41
317.071
318.776
319.639
317.193
320.91
321.205
320.12
322.854
321.31
321.695
321.466
322.366
320.339
321.602
319.882
322.687
320.422
319.941
319.48
319.283
313.548
312.039
313.231
312.963
313.844
316.482
312.288
314.095
313.849
313.453
315.889
316.647
315.338
315.227
316.076
313.449
315.573
313.629
314.811
311.41
308.972
306.482
309.297
309.581
309.964
308.871
307.63
307.581
309.892
309.021
310.165
310.017
307.972
310.779
309.453
309.052
307.347
308.366
308.777
308.509
302.307
302.735
301.324
302.393
302.88
304.453
302.079
303.65
303.54
304.879
303.923
302.563
301.054
302.44
305.282
302.153
304.448
301.846
304.041
302.904
338.49
340.236
341.615
342.297
344.036
344.464
344.964
344.925
341.931
346.337
342.571
342.884
344.864
343.808
345.31
344.305
343.173
341.952
342.136
340.95
335.768
334.589
336.37
335.927
338.072
338.926
339.772
339.177
338.067
340.9
339.644
339.659
338.484
338.325
337.118
335.916
335.711
336.149
337.026
334.314
331.139
331.997
329.6
331.088
330.501
334.56
335.493
332.102
334.226
332.436
333.129
331.924
333.146
333.414
332.523
334.089
332.627
330.159
330.675
330.179
325.17
324.157
325.876
325.375
326.618
328.462
328.307
325.549
326.589
327.374
328.05
327.416
326.872
326.423
328.074
329.544
326.782
325.101
323.552
324.225
318.883
319.435
319.501
319.196
321.409
322.059
322.353
321.2
322.107
320.641
321.824
320.028
321.424
320.41
321.35
323.169
319.423
317.672
320.073
319.061
314.305
315.043
315.975
313.304
314.615
317.418
314.951
314.38
316.31
315.473
315.491
317.477
315.718
316.468
316.089
314.788
314.807
314.593
314.446
315.49
308.526
309.46
308.939
309.009
307.517
309.378
309.747
308.289
308.204
309.43
309.99
307.208
309.489
311.087
308.499
309.389
307.552
308.585
307.208
308.784
303.234
301.372
303.167
304.429
303.365
301.359
308.516
302.972
301.725
302.507
304.255
302.72
306.192
301.503
303.665
300.344
301.437
305.238
302.702
301.842
341.971
340.515
341.876
343.213
345.418
343.044
344.393
345.878
342.646
348.087
345.188
344.907
346.959
347.684
347.261
345.296
344.305
345.197
340.203
341.025
336.292
338.756
335.989
339.048
337.805
339.289
337.98
340.29
338.435
339.909
339.309
338.271
339.773
340.059
339.812
337.075
339.718
337.294
339.453
335.466
326.631
329.199
333.744
333.803
332.48
333.926
330.386
332.729
333.53
332.669
333.829
335.911
334.117
333.323
332.51
335.885
333.365
331.555
328.281
330.067
324.671
323.898
326.389
323.808
325.537
328.308
326.929
327.707
323.858
329.16
328.234
325.086
326.959
329.348
328.858
325.335
327.311
326.242
324.548
324.7
318.777
320.754
321.059
319.368
320.924
323.205
322.049
320.031
321.98
321.339
324.058
322.497
318.891
322.602
321.508
321.234
320.79
319.519
316.923
318.908
313.868
315.061
312.486
315.44
315.45
315.525
316.075
315.023
315.358
318.001
315.792
313.553
315.662
316.131
316.119
313.941
314.914
312.705
314.111
314.543
309.055
308.997
309.508
309.759
308.781
309.34
310.285
305.755
309.233
308.114
310.618
308.058
310.226
309.77
309.163
311.487
307.324
308.614
308.159
309.841
303.084
301.472
301.268
305.168
300.419
302.036
303.359
302.769
305.884
302.622
303.609
304.06
302.484
302.018
303.702
303.035
301.821
303.831
305.63
304.581
340.48
340.603
345.794
342.017
344.51
346.215
345.923
343.533
347.256
346.054
346.568
346.175
345.168
346.381
345.975
344.685
346.089
340.962
344.194
340.352
335.296
335.777
337.076
338.412
339.305
338.235
339.531
339.022
340.076
341.421
338.854
340.092
340.22
339.717
339.358
337.103
341.144
338.72
336.708
335.072
332.53
331.347
331.361
333.071
333.138
332.724
333.89
333.955
336.326
333.86
334.517
335.549
334.46
333.966
335.304
333.773
332.735
331.501
331.541
330.126
325.587
327.064
326.591
328.155
325.701
327.753
324.926
328.138
324.622
329.227
326.856
326.514
327.539
327.181
325.869
325.844
328.17
327.39
325.718
324.789
320.604
320.843
320.581
321.886
320.283
319.895
320.813
321.62
321.201
322.502
324.967
323.684
319.14
321.1
322.115
321.843
321
320.872
316.851
319.526
313.64
317.242
315.756
314.535
313.541
313.887
315.07
315.251
314.626
314.86
314.374
315.383
313.706
316.35
314.128
315.046
314.402
315.365
314.725
316.803
308.676
307.695
309.755
308.91
310.224
308.42
308.043
309.307
310.618
308.352
310.637
310.414
311.458
309.473
308.007
311.015
309.008
308.278
308.424
307.841
302.244
303.906
301.561
302.6
302.317
303.235
303.721
300.021
301.865
303.227
302.459
304.46
303.881
304.8
300.525
302.303
304.715
303.052
301.186
301.014
)
;

boundaryField
{
    hotSide
    {
        type            fixedGradient;
        gradient        nonuniform List<scalar> 
400
(
321.511
322.87
325.591
329.677
335.133
341.965
350.181
359.788
370.794
383.208
397.037
412.289
428.971
447.088
466.647
487.651
510.105
534.011
559.372
586.191
323.738
325.08
327.767
331.802
337.194
343.949
352.078
361.591
372.498
384.81
398.537
413.687
430.268
448.289
467.755
488.672
511.043
534.872
560.161
586.913
326.149
327.47
330.116
334.091
339.406
346.071
354.099
363.503
374.296
386.491
400.101
415.136
431.606
449.52
468.885
489.706
511.988
535.735
560.948
587.63
328.704
330
332.597
336.503
341.73
348.292
356.205
365.485
376.15
388.215
401.695
416.604
432.954
450.753
470.009
490.73
512.919
536.579
561.714
588.325
331.33
332.599
335.142
338.97
344.099
350.546
358.332
367.477
378.003
389.928
403.271
418.047
434.27
451.949
471.095
491.712
513.807
537.382
562.439
588.978
333.918
335.158
337.643
341.389
346.414
352.74
360.392
369.397
379.779
391.562
404.765
419.407
435.503
453.065
472.101
492.618
514.622
538.114
563.096
589.569
336.321
337.531
339.959
343.622
348.544
354.751
362.274
371.142
381.385
393.031
406.101
420.618
436.595
454.047
472.983
493.409
515.33
538.747
563.663
590.076
338.36
339.543
341.92
345.509
350.339
356.44
363.847
372.595
382.718
394.244
407.2
421.608
437.485
454.844
473.695
494.045
515.897
539.253
564.114
590.478
339.852
341.015
343.352
346.885
351.645
357.665
364.985
373.643
383.675
395.113
407.984
422.312
438.116
455.407
474.197
494.491
516.294
539.606
564.428
590.758
340.643
341.795
344.11
347.613
352.334
358.311
365.584
374.193
384.176
395.567
408.393
422.679
438.443
455.699
474.456
494.722
516.498
539.788
564.589
590.901
340.643
341.795
344.11
347.613
352.334
358.311
365.584
374.193
384.176
395.567
408.393
422.679
438.443
455.699
474.456
494.722
516.498
539.788
564.589
590.901
339.852
341.015
343.352
346.885
351.645
357.665
364.985
373.643
383.675
395.113
407.984
422.312
438.116
455.407
474.197
494.491
516.294
539.606
564.428
590.758
338.36
339.543
341.92
345.509
350.339
356.44
363.847
372.595
382.718
394.244
407.2
421.608
437.485
454.844
473.695
494.045
515.897
539.253
564.114
590.478
336.321
337.531
339.959
343.622
348.544
354.751
362.274
371.142
381.385
393.031
406.101
420.618
436.595
454.047
472.983
493.409
515.33
538.747
563.663
590.076
333.918
335.158
337.643
341.389
346.414
352.74
360.392
369.397
379.779
391.562
404.765
419.407
435.503
453.065
472.101
492.618
514.622
538.114
563.096
589.569
331.33
332.599
335.142
338.97
344.099
350.546
358.332
367.477
378.003
389.928
403.271
418.047
434.27
451.949
471.095
491.712
513.807
537.382
562.439
588.978
328.704
330
332.597
336.503
341.73
348.292
356.205
365.485
376.15
388.215
401.695
416.604
432.954
450.753
470.009
490.73
512.919
536.579
561.714
588.325
326.149
327.47
330.116
334.091
339.406
346.071
354.099
363.503
374.296
386.491
400.101
415.136
431.606
449.52
468.885
489.706
511.988
535.735
560.948
587.63
323.738
325.08
327.767
331.802
337.194
343.949
352.078
361.591
372.498
384.81
398.537
413.687
430.268
448.289
467.755
488.672
511.043
534.872
560.161
586.913
321.511
322.87
325.591
329.677
335.133
341.965
350.181
359.788
370.794
383.208
397.037
412.289
428.971
447.088
466.647
487.651
510.105
534.011
559.372
586.191
)
;
    }
    coldSide
    {
        type            mixed;
        refValue        uniform 300;
        refGradient     uniform 0;
        valueFraction   uniform 0.991591;
        source          uniform 0;
        value           nonuniform List<scalar> 
400
(
300.005
300.003
300.014
300.024
300.023
300.019
300.016
300.025
300.018
300.016
300.029
300.035
300.017
300.02
300.004
300.013
300.019
300.027
300.026
300.019
300.002
300.023
300.005
300.018
300.031
300.003
300.023
300.008
300.016
300.029
300.035
300.019
300.023
300.016
300.014
300.025
300.023
300.012
300.012
300.033
300.014