/*--------------------------------*- C++ -*----------------------------------*\
| =========                 |                                                 |
| \\      /  F ield         | OpenFOAM: The Open Source CFD Toolbox           |
|  \\    /   O peration     | Version:  2212                                  |
|   \\  /    A nd           | Website:  www.openfoam.com                      |
|    \\/     M anipulation  |                                                 |
\*---------------------------------------------------------------------------*/
FoamFile
{
    version     2.0;
    format      ascii;
    arch        "LSB;label=32;scalar=64";
    class       volScalarField;
    location    "./ITHACAoutput/true/17.7";
    object      trueState;
}
// * * * * * * * * * * * * * * * * * * * * * * * * * * * * * * * * * * * * * //

dimensions      [0 0 0 1 0 0 0];

internalField   nonuniform List<scalar> 
3200
(
326.941
327.154
327.426
327.723
328.028
328.328
328.604
328.838
329.008
329.098
329.098
329.008
328.838
328.604
328.328
328.028
327.723
327.426
327.154
326.941
323.527
323.707
323.942
324.199
324.463
324.722
324.961
325.163
325.31
325.388
325.388
325.31
325.163
324.961
324.722
324.463
324.199
323.942
323.707
323.527
320.038
320.187
320.385
320.602
320.825
321.044
321.246
321.416
321.54
321.606
321.606
321.54
321.416
321.246
321.044
320.825
320.602
320.385
320.187
320.038
316.485
316.605
316.766
316.943
317.126
317.305
317.47
317.609
317.71
317.763
317.763
317.71
317.609
317.47
317.305
317.126
316.943
316.766
316.605
316.485
312.879
312.972
313.097
313.234
313.376
313.515
313.643
313.751
313.83
313.871
313.871
313.83
313.751
313.643
313.515
313.376
313.234
313.097
312.972
312.879
309.233
309.298
309.388
309.486
309.587
309.686
309.778
309.855
309.911
309.941
309.941
309.911
309.855
309.778
309.686
309.587
309.486
309.388
309.298
309.233
305.558
305.597
305.65
305.709
305.77
305.83
305.885
305.931
305.964
305.982
305.982
305.964
305.931
305.885
305.83
305.77
305.709
305.65
305.597
305.558
301.865
301.878
301.896
301.916
301.936
301.956
301.974
301.99
302.001
302.007
302.007
302.001
301.99
301.974
301.956
301.936
301.916
301.896
301.878
301.865
327.047
327.258
327.528
327.822
328.124
328.421
328.694
328.925
329.093
329.181
329.181
329.093
328.925
328.694
328.421
328.124
327.822
327.528
327.258
327.047
323.62
323.799
324.031
324.285
324.547
324.803
325.04
325.239
325.384
325.461
325.461
325.384
325.239
325.04
324.803
324.547
324.285
324.031
323.799
323.62
320.117
320.265
320.461
320.676
320.897
321.114
321.313
321.481
321.604
321.668
321.668
321.604
321.481
321.313
321.114
320.897
320.676
320.461
320.265
320.117
316.55
316.669
316.829
317.004
317.185
317.362
317.525
317.662
317.762
317.815
317.815
317.762
317.662
317.525
317.362
317.185
317.004
316.829
316.669
316.55
312.93
313.022
313.146
313.282
313.422
313.56
313.687
313.793
313.871
313.912
313.912
313.871
313.793
313.687
313.56
313.422
313.282
313.146
313.022
312.93
309.269
309.334
309.423
309.52
309.62
309.719
309.809
309.885
309.94
309.97
309.97
309.94
309.885
309.809
309.719
309.62
309.52
309.423
309.334
309.269
305.58
305.618
305.671
305.73
305.79
305.849
305.903
305.949
305.982
306
306
305.982
305.949
305.903
305.849
305.79
305.73
305.671
305.618
305.58
301.872
301.885
301.903
301.923
301.943
301.963
301.981
301.996
302.007
302.013
302.013
302.007
301.996
301.981
301.963
301.943
301.923
301.903
301.885
301.872
327.26
327.468
327.733
328.021
328.317
328.607
328.874
329.099
329.263
329.349
329.349
329.263
329.099
328.874
328.607
328.317
328.021
327.733
327.468
327.26
323.805
323.981
324.21
324.46
324.716
324.967
325.198
325.392
325.534
325.608
325.608
325.534
325.392
325.198
324.967
324.716
324.46
324.21
323.981
323.805
320.275
320.421
320.614
320.824
321.041
321.253
321.448
321.612
321.731
321.794
321.794
321.731
321.612
321.448
321.253
321.041
320.824
320.614
320.421
320.275
316.68
316.797
316.954
317.127
317.304
317.477
317.636
317.77
317.868
317.919
317.919
317.868
317.77
317.636
317.477
317.304
317.127
316.954
316.797
316.68
313.032
313.122
313.244
313.377
313.515
313.65
313.774
313.878
313.953
313.993
313.993
313.953
313.878
313.774
313.65
313.515
313.377
313.244
313.122
313.032
309.342
309.406
309.493
309.589
309.687
309.783
309.871
309.946
310
310.028
310.028
310
309.946
309.871
309.783
309.687
309.589
309.493
309.406
309.342
305.623
305.662
305.714
305.771
305.83
305.888
305.941
305.985
306.018
306.035
306.035
306.018
305.985
305.941
305.888
305.83
305.771
305.714
305.662
305.623
301.887
301.9
301.917
301.936
301.956
301.976
301.993
302.008
302.019
302.025
302.025
302.019
302.008
301.993
301.976
301.956
301.936
301.917
301.9
301.887
327.579
327.782
328.04
328.321
328.608
328.889
329.147
329.364
329.522
329.605
329.605
329.522
329.364
329.147
328.889
328.608
328.321
328.04
327.782
327.579
324.084
324.256
324.479
324.722
324.971
325.213
325.437
325.624
325.76
325.832
325.832
325.76
325.624
325.437
325.213
324.971
324.722
324.479
324.256
324.084
320.512
320.655
320.843
321.048
321.258
321.463
321.652
321.81
321.925
321.986
321.986
321.925
321.81
321.652
321.463
321.258
321.048
320.843
320.655
320.512
316.875
316.99
317.143
317.311
317.482
317.65
317.804
317.933
318.027
318.077
318.077
318.027
317.933
317.804
317.65
317.482
317.311
317.143
316.99
316.875
313.184
313.272
313.391
313.521
313.655
313.785
313.905
314.005
314.078
314.117
314.117
314.078
314.005
313.905
313.785
313.655
313.521
313.391
313.272
313.184
309.452
309.514
309.599
309.692
309.787
309.88
309.966
310.037
310.089
310.117
310.117
310.089
310.037
309.966
309.88
309.787
309.692
309.599
309.514
309.452
305.689
305.727
305.777
305.833
305.891
305.946
305.998
306.041
306.072
306.088
306.088
306.072
306.041
305.998
305.946
305.891
305.833
305.777
305.727
305.689
301.909
301.922
301.939
301.957
301.977
301.995
302.012
302.027
302.037
302.043
302.043
302.037
302.027
302.012
301.995
301.977
301.957
301.939
301.922
301.909
328.006
328.202
328.452
328.723
328.999
329.268
329.515
329.722
329.871
329.95
329.95
329.871
329.722
329.515
329.268
328.999
328.723
328.452
328.202
328.006
324.457
324.624
324.839
325.073
325.312
325.545
325.758
325.937
326.067
326.135
326.135
326.067
325.937
325.758
325.545
325.312
325.073
324.839
324.624
324.457
320.83
320.968
321.15
321.347
321.55
321.746
321.927
322.078
322.187
322.244
322.244
322.187
322.078
321.927
321.746
321.55
321.347
321.15
320.968
320.83
317.136
317.248
317.396
317.557
317.723
317.883
318.031
318.154
318.243
318.29
318.29
318.243
318.154
318.031
317.883
317.723
317.557
317.396
317.248
317.136
313.388
313.474
313.589
313.714
313.843
313.968
314.082
314.178
314.247
314.284
314.284
314.247
314.178
314.082
313.968
313.843
313.714
313.589
313.474
313.388
309.598
309.659
309.74
309.83
309.922
310.011
310.093
310.161
310.211
310.237
310.237
310.211
310.161
310.093
310.011
309.922
309.83
309.74
309.659
309.598
305.777
305.814
305.863
305.917
305.972
306.025
306.074
306.115
306.145
306.161
306.161
306.145
306.115
306.074
306.025
305.972
305.917
305.863
305.814
305.777
301.939
301.951
301.967
301.985
302.004
302.022
302.038
302.052
302.062
302.067
302.067
302.062
302.052
302.038
302.022
302.004
301.985
301.967
301.951
301.939
328.54
328.73
328.97
329.228
329.492
329.747
329.981
330.176
330.317
330.391
330.391
330.317
330.176
329.981
329.747
329.492
329.228
328.97
328.73
328.54
324.924
325.084
325.291
325.515
325.743
325.964
326.166
326.335
326.457
326.521
326.521
326.457
326.335
326.166
325.964
325.743
325.515
325.291
325.084
324.924
321.228
321.361
321.535
321.724
321.917
322.104
322.274
322.417
322.52
322.574
322.574
322.52
322.417
322.274
322.104
321.917
321.724
321.535
321.361
321.228
317.464
317.571
317.713
317.868
318.025
318.178
318.317
318.434
318.518
318.562
318.562
318.518
318.434
318.317
318.178
318.025
317.868
317.713
317.571
317.464
313.644
313.726
313.837
313.957
314.079
314.198
314.306
314.397
314.462
314.497
314.497
314.462
314.397
314.306
314.198
314.079
313.957
313.837
313.726
313.644
309.781
309.84
309.918
310.004
310.092
310.176
310.254
310.318
310.365
310.389
310.389
310.365
310.318
310.254
310.176
310.092
310.004
309.918
309.84
309.781
305.888
305.923
305.97
306.021
306.074
306.125
306.171
306.21
306.238
306.253
306.253
306.238
306.21
306.171
306.125
306.074
306.021
305.97
305.923
305.888
301.976
301.987
302.003
302.02
302.038
302.055
302.071
302.084
302.093
302.098
302.098
302.093
302.084
302.071
302.055
302.038
302.02
302.003
301.987
301.976
329.184
329.366
329.594
329.84
330.089
330.329
330.548
330.73
330.861
330.93
330.93
330.861
330.73
330.548
330.329
330.089
329.84
329.594
329.366
329.184
325.486
325.64
325.837
326.05
326.265
326.473
326.662
326.82
326.934
326.993
326.993
326.934
326.82
326.662
326.473
326.265
326.05
325.837
325.64
325.486
321.707
321.834
322
322.18
322.362
322.538
322.698
322.831
322.927
322.977
322.977
322.927
322.831
322.698
322.538
322.362
322.18
322
321.834
321.707
317.858
317.96
318.096
318.242
318.391
318.535
318.666
318.775
318.853
318.895
318.895
318.853
318.775
318.666
318.535
318.391
318.242
318.096
317.96
317.858
313.952
314.031
314.136
314.25
314.366
314.478
314.579
314.664
314.725
314.757
314.757
314.725
314.664
314.579
314.478
314.366
314.25
314.136
314.031
313.952
310.002
310.058
310.133
310.214
310.297
310.377
310.45
310.51
310.553
310.576
310.576
310.553
310.51
310.45
310.377
310.297
310.214
310.133
310.058
310.002
306.021
306.054
306.099
306.148
306.198
306.246
306.289
306.325
306.352
306.365
306.365
306.352
306.325
306.289
306.246
306.198
306.148
306.099
306.054
306.021
302.02
302.031
302.047
302.063
302.08
302.096
302.11
302.122
302.131
302.136
302.136
302.131
302.122
302.11
302.096
302.08
302.063
302.047
302.031
302.02
329.938
330.111
330.327
330.558
330.792
331.016
331.22
331.389
331.51
331.574
331.574
331.51
331.389
331.22
331.016
330.792
330.558
330.327
330.111
329.938
326.145
326.291
326.477
326.678
326.88
327.074
327.25
327.396
327.501
327.556
327.556
327.501
327.396
327.25
327.074
326.88
326.678
326.477
326.291
326.145
322.268
322.389
322.546
322.715
322.886
323.051
323.199
323.323
323.412
323.458
323.458
323.412
323.323
323.199
323.051
322.886
322.715
322.546
322.389
322.268
318.319
318.417
318.545
318.683
318.823
318.958
319.079
319.18
319.253
319.291
319.291
319.253
319.18
319.079
318.958
318.823
318.683
318.545
318.417
318.319
314.313
314.387
314.487
314.594
314.703
314.808
314.902
314.981
315.037
315.067
315.067
315.037
314.981
314.902
314.808
314.703
314.594
314.487
314.387
314.313
310.261
310.314
310.385
310.461
310.539
310.614
310.681
310.737
310.778
310.799
310.799
310.778
310.737
310.681
310.614
310.539
310.461
310.385
310.314
310.261
306.176
306.208
306.251
306.297
306.343
306.388
306.429
306.462
306.486
306.499
306.499
306.486
306.462
306.429
306.388
306.343
306.297
306.251
306.208
306.176
302.073
302.083
302.097
302.113
302.128
302.144
302.157
302.168
302.176
302.181
302.181
302.176
302.168
302.157
302.144
302.128
302.113
302.097
302.083
302.073
330.804
330.966
331.17
331.386
331.604
331.812
332
332.155
332.266
332.324
332.324
332.266
332.155
332
331.812
331.604
331.386
331.17
330.966
330.804
326.901
327.038
327.214
327.401
327.59
327.77
327.933
328.067
328.163
328.214
328.214
328.163
328.067
327.933
327.77
327.59
327.401
327.214
327.038
326.901
322.911
323.025
323.173
323.332
323.491
323.644
323.781
323.895
323.976
324.019
324.019
323.976
323.895
323.781
323.644
323.491
323.332
323.173
323.025
322.911
318.849
318.941
319.061
319.191
319.321
319.446
319.558
319.651
319.718
319.753
319.753
319.718
319.651
319.558
319.446
319.321
319.191
319.061
318.941
318.849
314.726
314.797
314.891
314.991
315.093
315.19
315.277
315.349
315.401
315.428
315.428
315.401
315.349
315.277
315.19
315.093
314.991
314.891
314.797
314.726
310.557
310.607
310.674
310.746
310.818
310.888
310.95
311.002
311.039
311.058
311.058
311.039
311.002
310.95
310.888
310.818
310.746
310.674
310.607
310.557
306.355
306.385
306.425
306.468
306.512
306.553
306.591
306.622
306.644
306.655
306.655
306.644
306.622
306.591
306.553
306.512
306.468
306.425
306.385
306.355
302.133
302.142
302.156
302.17
302.185
302.199
302.211
302.222
302.229
302.233
302.233
302.229
302.222
302.211
302.199
302.185
302.17
302.156
302.142
302.133
331.781
331.934
332.124
332.326
332.527
332.719
332.891
333.033
333.134
333.187
333.187
333.134
333.033
332.891
332.719
332.527
332.326
332.124
331.934
331.781
327.754
327.883
328.048
328.222
328.397
328.563
328.712
328.835
328.922
328.968
328.968
328.922
328.835
328.712
328.563
328.397
328.222
328.048
327.883
327.754
323.638
323.745
323.884
324.032
324.179
324.32
324.446
324.55
324.624
324.662
324.662
324.624
324.55
324.446
324.32
324.179
324.032
323.884
323.745
323.638
319.447
319.533
319.646
319.767
319.888
320.003
320.106
320.191
320.251
320.283
320.283
320.251
320.191
320.106
320.003
319.888
319.767
319.646
319.533
319.447
315.194
315.26
315.348
315.441
315.535
315.625
315.705
315.771
315.818
315.843
315.843
315.818
315.771
315.705
315.625
315.535
315.441
315.348
315.26
315.194
310.892
310.939
311.002
311.069
311.136
311.2
311.257
311.304
311.338
311.355
311.355
311.338
311.304
311.257
311.2
311.136
311.069
311.002
310.939
310.892
306.557
306.585
306.622
306.662
306.703
306.741
306.775
306.804
306.824
306.834
306.834
306.824
306.804
306.775
306.741
306.703
306.662
306.622
306.585
306.557
302.2
302.21
302.222
302.236
302.249
302.262
302.273
302.283
302.29
302.293
302.293
302.29
302.283
302.273
302.262
302.249
302.236
302.222
302.21
302.2
332.871
333.014
333.191
333.378
333.563
333.739
333.896
334.025
334.117
334.164
334.164
334.117
334.025
333.896
333.739
333.563
333.378
333.191
333.014
332.871
328.706
328.827
328.98
329.142
329.302
329.455
329.591
329.702
329.782
329.823
329.823
329.782
329.702
329.591
329.455
329.302
329.142
328.98
328.827
328.706
324.449
324.549
324.678
324.815
324.951
325.08
325.195
325.289
325.356
325.391
325.391
325.356
325.289
325.195
325.08
324.951
324.815
324.678
324.549
324.449
320.114
320.195
320.3
320.412
320.523
320.628
320.722
320.8
320.854
320.883
320.883
320.854
320.8
320.722
320.628
320.523
320.412
320.3
320.195
320.114
315.715
315.777
315.858
315.945
316.032
316.114
316.187
316.247
316.29
316.312
316.312
316.29
316.247
316.187
316.114
316.032
315.945
315.858
315.777
315.715
311.266
311.31
311.368
311.43
311.492
311.551
311.603
311.646
311.676
311.692
311.692
311.676
311.646
311.603
311.551
311.492
311.43
311.368
311.31
311.266
306.782
306.808
306.843
306.88
306.917
306.952
306.984
307.009
307.028
307.037
307.037
307.028
307.009
306.984
306.952
306.917
306.88
306.843
306.808
306.782
302.276
302.284
302.296
302.309
302.321
302.333
302.343
302.352
302.358
302.361
302.361
302.358
302.352
302.343
302.333
302.321
302.309
302.296
302.284
302.276
334.074
334.207
334.372
334.544
334.714
334.875
335.017
335.133
335.216
335.259
335.259
335.216
335.133
335.017
334.875
334.714
334.544
334.372
334.207
334.074
329.757
329.87
330.012
330.161
330.308
330.447
330.571
330.671
330.743
330.78
330.78
330.743
330.671
330.571
330.447
330.308
330.161
330.012
329.87
329.757
325.344
325.438
325.557
325.683
325.808
325.926
326.03
326.115
326.176
326.207
326.207
326.176
326.115
326.03
325.926
325.808
325.683
325.557
325.438
325.344
320.85
320.926
321.023
321.126
321.228
321.325
321.41
321.48
321.529
321.555
321.555
321.529
321.48
321.41
321.325
321.228
321.126
321.023
320.926
320.85
316.29
316.348
316.424
316.504
316.583
316.658
316.725
316.779
316.817
316.837
316.837
316.817
316.779
316.725
316.658
316.583
316.504
316.424
316.348
316.29
311.679
311.719
311.773
311.831
311.887
311.941
311.988
312.027
312.055
312.069
312.069
312.055
312.027
311.988
311.941
311.887
311.831
311.773
311.719
311.679
307.03
307.054
307.087
307.121
307.155
307.187
307.216
307.239
307.256
307.264
307.264
307.256
307.239
307.216
307.187
307.155
307.121
307.087
307.054
307.03
302.359
302.367
302.378
302.389
302.401
302.412
302.421
302.429
302.435
302.437
302.437
302.435
302.429
302.421
302.412
302.401
302.389
302.378
302.367
302.359
335.392
335.515
335.667
335.825
335.981
336.126
336.255
336.36
336.434
336.473
336.473
336.434
336.36
336.255
336.126
335.981
335.825
335.667
335.515
335.392
330.908
331.012
331.143
331.28
331.415
331.541
331.653
331.744
331.808
331.841
331.841
331.808
331.744
331.653
331.541
331.415
331.28
331.143
331.012
330.908
326.324
326.411
326.521
326.637
326.751
326.858
326.952
327.029
327.084
327.112
327.112
327.084
327.029
326.952
326.858
326.751
326.637
326.521
326.411
326.324
321.656
321.726
321.816
321.911
322.004
322.092
322.169
322.232
322.276
322.299
322.299
322.276
322.232
322.169
322.092
322.004
321.911
321.816
321.726
321.656
316.92
316.974
317.043
317.117
317.19
317.258
317.318
317.367
317.401
317.419
317.419
317.401
317.367
317.318
317.258
317.19
317.117
317.043
316.974
316.92
312.13
312.168
312.218
312.27
312.322
312.371
312.414
312.449
312.473
312.486
312.486
312.473
312.449
312.414
312.371
312.322
312.27
312.218
312.168
312.13
307.302
307.324
307.354
307.386
307.417
307.446
307.472
307.493
307.508
307.515
307.515
307.508
307.493
307.472
307.446
307.417
307.386
307.354
307.324
307.302
302.45
302.458
302.468
302.478
302.489
302.499
302.507
302.514
302.519
302.522
302.522
302.519
302.514
302.507
302.499
302.489
302.478
302.468
302.458
302.45
336.822
336.937
337.076
337.221
337.363
337.495
337.611
337.705
337.771
337.806
337.806
337.771
337.705
337.611
337.495
337.363
337.221
337.076
336.937
336.822
332.157
332.253
332.374
332.499
332.622
332.736
332.837
332.919
332.976
333.006
333.006
332.976
332.919
332.837
332.736
332.622
332.499
332.374
332.253
332.157
327.388
327.468
327.569
327.675
327.779
327.876
327.961
328.03
328.079
328.104
328.104
328.079
328.03
327.961
327.876
327.779
327.675
327.569
327.468
327.388
322.531
322.596
322.679
322.765
322.85
322.93
322.999
323.056
323.096
323.116
323.116
323.096
323.056
322.999
322.93
322.85
322.765
322.679
322.596
322.531
317.603
317.653
317.717
317.785
317.851
317.912
317.967
318.011
318.042
318.058
318.058
318.042
318.011
317.967
317.912
317.851
317.785
317.717
317.653
317.603
312.62
312.655
312.701
312.749
312.796
312.84
312.879
312.91
312.933
312.944
312.944
312.933
312.91
312.879
312.84
312.796
312.749
312.701
312.655
312.62
307.596
307.617
307.645
307.674
307.702
307.729
307.752
307.771
307.784
307.791
307.791
307.784
307.771
307.752
307.729
307.702
307.674
307.645
307.617
307.596
302.549
302.556
302.565
302.575
302.585
302.593
302.601
302.608
302.612
302.614
302.614
302.612
302.608
302.601
302.593
302.585
302.575
302.565
302.556
302.549
338.363
338.469
338.597
338.729
338.858
338.977
339.082
339.166
339.225
339.256
339.256
339.225
339.166
339.082
338.977
338.858
338.729
338.597
338.469
338.363
333.501
333.59
333.701
333.816
333.927
334.031
334.121
334.194
334.246
334.272
334.272
334.246
334.194
334.121
334.031
333.927
333.816
333.701
333.59
333.501
328.532
328.606
328.699
328.796
328.891
328.978
329.055
329.117
329.16
329.183
329.183
329.16
329.117
329.055
328.978
328.891
328.796
328.699
328.606
328.532
323.473
323.532
323.608
323.687
323.765
323.836
323.899
323.95
323.985
324.004
324.004
323.985
323.95
323.899
323.836
323.765
323.687
323.608
323.532
323.473
318.339
318.384
318.443
318.505
318.565
318.621
318.67
318.709
318.737
318.751
318.751
318.737
318.709
318.67
318.621
318.565
318.505
318.443
318.384
318.339
313.147
313.179
313.221
313.265
313.308
313.348
313.383
313.411
313.431
313.441
313.441
313.431
313.411
313.383
313.348
313.308
313.265
313.221
313.179
313.147
307.914
307.933
307.958
307.984
308.01
308.034
308.055
308.072
308.084
308.09
308.09
308.084
308.072
308.055
308.034
308.01
307.984
307.958
307.933
307.914
302.655
302.662
302.67
302.679
302.688
302.696
302.703
302.709
302.713
302.715
302.715
302.713
302.709
302.703
302.696
302.688
302.679
302.67
302.662
302.655
340.007
340.104
340.221
340.342
340.458
340.566
340.66
340.735
340.788
340.816
340.816
340.788
340.735
340.66
340.566
340.458
340.342
340.221
340.104
340.007
334.934
335.016
335.118
335.222
335.324
335.417
335.498
335.564
335.61
335.633
335.633
335.61
335.564
335.498
335.417
335.324
335.222
335.118
335.016
334.934
329.751
329.819
329.905
329.993
330.079
330.158
330.227
330.282
330.321
330.341
330.341
330.321
330.282
330.227
330.158
330.079
329.993
329.905
329.819
329.751
324.474
324.529
324.599
324.671
324.741
324.806
324.862
324.908
324.939
324.956
324.956
324.939
324.908
324.862
324.806
324.741
324.671
324.599
324.529
324.474
319.12
319.162
319.216
319.273
319.327
319.378
319.422
319.457
319.482
319.494
319.494
319.482
319.457
319.422
319.378
319.327
319.273
319.216
319.162
319.12
313.707
313.737
313.775
313.815
313.854
313.89
313.922
313.947
313.965
313.974
313.974
313.965
313.947
313.922
313.89
313.854
313.815
313.775
313.737
313.707
308.251
308.268
308.291
308.315
308.339
308.361
308.379
308.395
308.405
308.411
308.411
308.405
308.395
308.379
308.361
308.339
308.315
308.291
308.268
308.251
302.769
302.774
302.782
302.79
302.798
302.805
302.812
302.817
302.82
302.822
302.822
302.82
302.817
302.812
302.805
302.798
302.79
302.782
302.774
302.769
341.733
341.822
341.93
342.039
342.145
342.242
342.327
342.394
342.441
342.466
342.466
342.441
342.394
342.327
342.242
342.145
342.039
341.93
341.822
341.733
336.437
336.512
336.605
336.7
336.792
336.876
336.949
337.008
337.049
337.07
337.07
337.049
337.008
336.949
336.876
336.792
336.7
336.605
336.512
336.437
331.027
331.089
331.168
331.248
331.326
331.397
331.459
331.509
331.544
331.561
331.561
331.544
331.509
331.459
331.397
331.326
331.248
331.168
331.089
331.027
325.521
325.571
325.635
325.701
325.765
325.823
325.874
325.914
325.943
325.957
325.957
325.943
325.914
325.874
325.823
325.765
325.701
325.635
325.571
325.521
319.936
319.975
320.024
320.076
320.125
320.171
320.21
320.242
320.264
320.275
320.275
320.264
320.242
320.21
320.171
320.125
320.076
320.024
319.975
319.936
314.291
314.318
314.353
314.39
314.425
314.458
314.486
314.509
314.525
314.533
314.533
314.525
314.509
314.486
314.458
314.425
314.39
314.353
314.318
314.291
308.602
308.618
308.639
308.661
308.682
308.702
308.719
308.732
308.742
308.747
308.747
308.742
308.732
308.719
308.702
308.682
308.661
308.639
308.618
308.602
302.886
302.892
302.899
302.906
302.913
302.92
302.926
302.93
302.933
302.935
302.935
302.933
302.93
302.926
302.92
302.913
302.906
302.899
302.892
302.886
343.494
343.576
343.674
343.775
343.871
343.958
344.034
344.095
344.137
344.159
344.159
344.137
344.095
344.034
343.958
343.871
343.775
343.674
343.576
343.494
337.962
338.031
338.117
338.203
338.287
338.363
338.429
338.481
338.518
338.537
338.537
338.518
338.481
338.429
338.363
338.287
338.203
338.117
338.031
337.962
332.317
332.374
332.446
332.519
332.59
332.655
332.71
332.755
332.786
332.802
332.802
332.786
332.755
332.71
332.655
332.59
332.519
332.446
332.374
332.317
326.575
326.621
326.68
326.74
326.798
326.851
326.897
326.933
326.959
326.972
326.972
326.959
326.933
326.897
326.851
326.798
326.74
326.68
326.621
326.575
320.756
320.791
320.837
320.884
320.929
320.97
321.006
321.034
321.054
321.064
321.064
321.054
321.034
321.006
320.97
320.929
320.884
320.837
320.791
320.756
314.876
314.901
314.934
314.967
314.999
315.029
315.054
315.074
315.089
315.096
315.096
315.089
315.074
315.054
315.029
314.999
314.967
314.934
314.901
314.876
308.953
308.968
308.987
309.008
309.027
309.045
309.06
309.072
309.081
309.085
309.085
309.081
309.072
309.06
309.045
309.027
309.008
308.987
308.968
308.953
303.004
303.009
303.016
303.022
303.029
303.035
303.04
303.044
303.047
303.048
303.048
303.047
303.044
303.04
303.035
303.029
303.022
303.016
303.009
303.004
345.172
345.247
345.338
345.43
345.518
345.598
345.667
345.722
345.76
345.78
345.78
345.76
345.722
345.667
345.598
345.518
345.43
345.338
345.247
345.172
339.398
339.462
339.54
339.62
339.697
339.766
339.826
339.874
339.907
339.924
339.924
339.907
339.874
339.826
339.766
339.697
339.62
339.54
339.462
339.398
333.517
333.571
333.637
333.705
333.77
333.829
333.879
333.92
333.948
333.963
333.963
333.948
333.92
333.879
333.829
333.77
333.705
333.637
333.571
333.517
327.548
327.591
327.645
327.701
327.754
327.802
327.844
327.877
327.9
327.912
327.912
327.9
327.877
327.844
327.802
327.754
327.701
327.645
327.591
327.548
321.506
321.539
321.582
321.625
321.666
321.704
321.736
321.762
321.78
321.79
321.79
321.78
321.762
321.736
321.704
321.666
321.625
321.582
321.539
321.506
315.409
315.432
315.462
315.493
315.523
315.55
315.573
315.592
315.605
315.611
315.611
315.605
315.592
315.573
315.55
315.523
315.493
315.462
315.432
315.409
309.272
309.286
309.304
309.322
309.34
309.356
309.37
309.381
309.389
309.393
309.393
309.389
309.381
309.37
309.356
309.34
309.322
309.304
309.286
309.272
303.111
303.115
303.121
303.128
303.134
303.139
303.144
303.147
303.15
303.151
303.151
303.15
303.147
303.144
303.139
303.134
303.128
303.121
303.115
303.111
346.469
346.54
346.626
346.712
346.794
346.869
346.933
346.984
347.019
347.037
347.037
347.019
346.984
346.933
346.869
346.794
346.712
346.626
346.54
346.469
340.466
340.527
340.601
340.676
340.748
340.813
340.869
340.914
340.944
340.96
340.96
340.944
340.914
340.869
340.813
340.748
340.676
340.601
340.527
340.466
334.385
334.435
334.498
334.562
334.623
334.678
334.726
334.763
334.79
334.803
334.803
334.79
334.763
334.726
334.678
334.623
334.562
334.498
334.435
334.385
328.234
328.275
328.326
328.378
328.428
328.474
328.513
328.544
328.566
328.577
328.577
328.566
328.544
328.513
328.474
328.428
328.378
328.326
328.275
328.234
322.026
322.057
322.097
322.138
322.177
322.213
322.243
322.268
322.284
322.293
322.293
322.284
322.268
322.243
322.213
322.177
322.138
322.097
322.057
322.026
315.773
315.795
315.824
315.853
315.881
315.906
315.928
315.946
315.958
315.964
315.964
315.958
315.946
315.928
315.906
315.881
315.853
315.824
315.795
315.773
309.488
309.501
309.518
309.536
309.552
309.568
309.581
309.591
309.599
309.602
309.602
309.599
309.591
309.581
309.568
309.552
309.536
309.518
309.501
309.488
303.183
303.187
303.193
303.199
303.204
303.209
303.214
303.217
303.22
303.221
303.221
303.22
303.217
303.214
303.209
303.204
303.199
303.193
303.187
303.183
)
;

boundaryField
{
    hotSide
    {
        type            fixedGradient;
        gradient        nonuniform List<scalar> 
400
(
266.166
267.213
269.309
272.459
276.668
281.945
288.3
295.74
304.278
313.923
324.685
336.574
349.597
363.764
379.079
395.55
413.181
431.976
451.937
473.068
268.97
269.995
272.047
275.133
279.262
284.442
290.688
298.01
306.423
315.94
326.573
338.333
351.23
365.275
380.474
396.835
414.361
433.059
452.93
473.978
272.005
273.003
275.003
278.014
282.046
287.113
293.231
300.417
308.686
318.056
328.541
340.157
352.914
366.824
381.896
398.136
415.551
434.145
453.921
474.88
275.22
276.187
278.127
281.05
284.971
289.908
295.881
302.911
311.019
320.225
330.548
342.005
354.61
368.376
383.311
399.425
416.722
435.208
454.885
475.754
278.525
279.457
281.33
284.155
287.953
292.745
298.558
305.418
313.351
322.381
332.531
343.821
356.267
369.882
384.677
400.662
417.84
436.218
455.796
476.577
281.783
282.678
284.478
287.199
290.866
295.506
301.152
307.835
315.587
324.437
334.412
345.533
357.819
371.285
385.944
401.802
418.866
437.14
456.624
477.321
284.806
285.665
287.392
290.01
293.547
298.038
303.519
310.031
317.609
326.286
336.094
347.056
359.193
372.522
387.054
402.797
419.757
437.937
457.338
477.959
287.373
288.198
289.86
292.385
295.806
300.163
305.5
311.86
319.285
327.813
337.476
348.303
360.313
373.525
387.95
403.597
420.471
438.573
457.905
478.465
289.251
290.05
291.663
294.117
297.45
301.705
306.933
313.179
320.49
328.906
338.463
349.189
361.107
374.234
388.582
404.159
420.971
439.018
458.3
478.816
290.246
291.032
292.617
295.033
298.317
302.518
307.686
313.871
321.121
329.478
338.978
349.65
361.519
374.601
388.908
404.449
421.228
439.246
458.503
478.997
290.246
291.032
292.617
295.033
298.317
302.518
307.686
313.871
321.121
329.478
338.978
349.65
361.519
374.601
388.908
404.449
421.228
439.246
458.503
478.997
289.251
290.05
291.663
294.117
297.45
301.705
306.933
313.179
320.49
328.906
338.463
349.189
361.107
374.234
388.582
404.159
420.971
439.018
458.3
478.816
287.373
288.198
289.86
292.385
295.806
300.163
305.5
311.86
319.285
327.813
337.476
348.303
360.313
373.525
387.95
403.597
420.471
438.573
457.905
478.465
284.806
285.665
287.392
290.01
293.547
298.038
303.519
310.031
317.609
326.286
336.094
347.056
359.193
372.522
387.054
402.797
419.757
437.937
457.338
477.959
281.783
282.678
284.478
287.199
290.866
295.506
301.152
307.835
315.587
324.437
334.412
345.533
357.819
371.285
385.944
401.802
418.866
437.14
456.624
477.321
278.525
279.457
281.33
284.155
287.953
292.745
298.558
305.418
313.351
322.381
332.531
343.821
356.267
369.882
384.677
400.662
417.84
436.218
455.796
476.577
275.22
276.187
278.127
281.05
284.971
289.908
295.881
302.911
311.019
320.225
330.548
342.005
354.61
368.376
383.311
399.425
416.722
435.208
454.885
475.754
272.005
273.003
275.003
278.014
282.046
287.113
293.231
300.417
308.686
318.056
328.541
340.157
352.914
366.824
381.896
398.136
415.551
434.145
453.921
474.88
268.97
269.995
272.047
275.133
279.262
284.442
290.688
298.01
306.423
315.94
326.573
338.333
351.23
365.275
380.474
396.835
414.361
433.059
452.93
473.978
266.166
267.213
269.309
272.459
276.668
281.945
288.3
295.74
304.278
313.923
324.685
336.574
349.597
363.764
379.079
395.55
413.181
431.976
451.937
473.068
)
;
    }
    coldSide
    {
        type            mixed;
        refValue        uniform 300;
        refGradient     uniform 0;
        valueFraction   uniform 0.991591;
        source          uniform 0;
        value           nonuniform List<scalar> 
400
(
300.016
300.016
300.016
300.016
300.016
300.017
300.017
300.017
300.018
300.018
300.019
300.02
300.021
300.021
300.022
300.023
300.024
300.025
300.026
300.027
300.016
300.016
300.016
300.016
300.016
300.017
300.017
300.018
300.018
300.019
300.019
300.02
300.021
300.021
300.022
300.023