/*--------------------------------*- C++ -*----------------------------------*\
| =========                 |                                                 |
| \\      /  F ield         | OpenFOAM: The Open Source CFD Toolbox           |
|  \\    /   O peration     | Version:  2212                                  |
|   \\  /    A nd           | Website:  www.openfoam.com                      |
|    \\/     M anipulation  |                                                 |
\*---------------------------------------------------------------------------*/
FoamFile
{
    version     2.0;
    format      ascii;
    arch        "LSB;label=32;scalar=64";
    class       volScalarField;
    location    "0";
    object      T;
}
// * * * * * * * * * * * * * * * * * * * * * * * * * * * * * * * * * * * * * //

dimensions      [0 0 0 1 0 0 0];

internalField   nonuniform List<scalar> 
3200
(
346.632
345.142
343.904
343.339
343.076
343.454
343.833
344.559
345.102
345.457
345.591
345.635
345.759
345.143
344.988
344.742
344.838
345.391
346.643
348.276
340.51
339.28
338.233
337.71
337.469
337.781
338.102
338.701
339.162
339.449
339.565
339.604
339.763
339.175
339.079
338.884
338.956
339.443
340.505
341.885
334.347
333.345
332.47
331.997
331.788
332.019
332.321
332.811
333.175
333.419
333.499
333.527
333.71
333.171
333.109
332.996
333.023
333.44
334.331
335.461
328.154
327.379
326.646
326.232
326.062
326.23
326.488
326.9
327.163
327.378
327.423
327.446
327.616
327.15
327.111
327.076
327.06
327.397
328.124
329.023
321.934
321.343
320.778
320.427
320.298
320.399
320.62
320.961
321.12
321.321
321.342
321.343
321.493
321.129
321.107
321.099
321.093
321.358
321.883
322.576
315.691
315.271
314.865
314.59
314.525
314.587
314.728
314.983
315.097
315.253
315.254
315.22
315.354
315.104
315.091
315.086
315.096
315.296
315.635
316.135
309.436
309.175
308.927
308.755
308.743
308.77
308.852
309
309.087
309.155
309.175
309.135
309.241
309.077
309.074
309.073
309.05
309.181
309.37
309.696
303.162
303.07
302.987
302.926
302.941
302.941
302.96
303.012
303.052
303.074
303.072
303.066
303.108
303.046
303.046
303.038
303.027
303.082
303.141
303.253
347.011
345.437
344.171
343.607
343.414
343.829
344.404
345.044
345.728
346.062
346.245
346.172
346.097
345.517
345.283
345.15
345.197
345.675
347.028
348.658
340.847
339.548
338.443
337.939
337.749
338.097
338.567
339.122
339.701
339.994
340.135
340.049
340.002
339.475
339.299
339.218
339.264
339.692
340.857
342.238
334.624
333.563
332.649
332.21
332.012
332.325
332.689
333.166
333.615
333.89
334.011
333.909
333.9
333.419
333.296
333.239
333.282
333.655
334.649
335.796
328.374
327.51
326.781
326.418
326.259
326.511
326.784
327.195
327.524
327.756
327.857
327.759
327.769
327.341
327.274
327.241
327.295
327.586
328.41
329.338
322.106
321.451
320.862
320.593
320.457
320.662
320.868
321.176
321.41
321.627
321.685
321.605
321.609
321.272
321.228
321.219
321.257
321.492
322.13
322.853
315.782
315.346
314.92
314.713
314.65
314.784
314.933
315.156
315.282
315.477
315.496
315.419
315.448
315.202
315.162
315.17
315.202
315.373
315.813
316.352
309.461
309.216
308.962
308.847
308.81
308.904
308.974
309.119
309.183
309.319
309.306
309.255
309.276
309.123
309.113
309.103
309.119
309.241
309.506
309.835
303.175
303.095
303.013
302.968
302.95
302.994
302.997
303.062
303.085
303.123
303.118
303.11
303.107
303.05
303.053
303.049
303.059
303.101
303.185
303.3
347.623
346.054
344.821
344.222
344.186
344.727
345.27
345.927
346.51
347.005
347.219
347.202
346.939
346.48
346.128
345.902
345.939
346.417
347.696
349.221
341.383
340.069
338.999
338.444
338.4
338.86
339.307
339.876
340.391
340.781
340.969
340.926
340.721
340.322
340.027
339.87
339.893
340.302
341.458
342.729
335.096
334.006
333.108
332.613
332.579
332.937
333.313
333.813
334.21
334.539
334.678
334.636
334.498
334.15
333.898
333.786
333.8
334.176
335.17
336.202
328.764
327.896
327.158
326.746
326.716
326.985
327.294
327.737
328.021
328.282
328.387
328.37
328.252
327.978
327.765
327.678
327.69
328.038
328.848
329.673
322.39
321.727
321.184
320.847
320.794
320.988
321.245
321.638
321.809
322.01
322.083
322.072
321.974
321.808
321.609
321.521
321.549
321.861
322.492
323.126
316.006
315.543
315.175
314.906
314.865
314.973
315.178
315.5
315.585
315.73
315.767
315.769
315.689
315.616
315.451
315.38
315.412
315.649
316.114
316.548
309.615
309.345
309.141
308.961
308.927
308.977
309.114
309.323
309.357
309.454
309.459
309.456
309.41
309.389
309.271
309.244
309.264
309.409
309.687
309.947
303.218
303.14
303.078
303.007
302.997
303.007
303.058
303.126
303.145
303.172
303.166
303.167
303.157
303.148
303.11
303.094
303.1
303.156
303.237
303.336
348.577
347.038
345.845
345.247
345.197
345.658
346.351
346.898
347.54
348.097
348.376
348.328
348.006
347.636
347.263
346.899
346.921
347.331
348.574
350.093
342.216
340.931
339.894
339.352
339.276
339.643
340.239
340.701
341.242
341.737
341.954
341.913
341.655
341.307
341.013
340.711
340.759
341.113
342.177
343.475
335.826
334.734
333.859
333.389
333.309
333.597
334.089
334.495
334.925
335.336
335.516
335.497
335.281
334.978
334.74
334.505
334.56
334.852
335.763
336.833
329.389
328.485
327.778
327.366
327.289
327.52
327.916
328.277
328.581
328.952
329.078
329.058
328.887
328.64
328.452
328.271
328.303
328.557
329.293
330.187
322.88
322.189
321.659
321.329
321.243
321.443
321.745
322.027
322.246
322.516
322.643
322.62
322.477
322.299
322.151
321.993
322.019
322.234
322.805
323.514
316.362
315.869
315.497
315.252
315.162
315.339
315.554
315.757
315.882
316.083
316.209
316.176
316.082
315.941
315.837
315.703
315.762
315.879
316.289
316.817
309.836
309.527
309.322
309.144
309.106
309.222
309.361
309.472
309.542
309.654
309.734
309.725
309.644
309.585
309.532
309.432
309.501
309.525
309.793
310.108
303.296
303.191
303.127
303.057
303.051
303.102
303.14
303.176
303.203
303.233
303.262
303.262
303.226
303.209
303.189
303.159
303.194
303.201
303.293
303.388
349.899
348.382
347.078
346.515
346.464
346.862
347.54
348.225
348.914
349.441
349.77
349.65
349.314
348.871
348.499
348.097
348.023
348.539
349.822
351.233
343.364
342.097
340.944
340.46
340.374
340.697
341.282
341.863
342.435
342.877
343.15
343.036
342.74
342.393
342.088
341.767
341.67
342.161
343.263
344.451
336.763
335.725
334.739
334.32
334.247
334.495
334.971
335.461
335.938
336.331
336.511
336.406
336.177
335.865
335.637
335.406
335.306
335.721
336.671
337.642
330.169
329.305
328.492
328.147
328.099
328.264
328.643
329.04
329.415
329.725
329.873
329.775
329.602
329.36
329.172
329.012
328.929
329.271
330.043
330.82
323.51
322.826
322.197
321.942
321.911
321.995
322.339
322.621
322.905
323.108
323.245
323.155
323.024
322.854
322.725
322.596
322.52
322.794
323.38
323.997
316.83
316.324
315.866
315.692
315.67
315.716
316.01
316.183
316.383
316.504
316.61
316.513
316.467
316.325
316.26
316.165
316.104
316.303
316.734
317.146
310.118
309.799
309.541
309.43
309.413
309.443
309.629
309.741
309.841
309.905
309.991
309.915
309.91
309.82
309.78
309.708
309.706
309.809
310.059
310.301
303.393
303.282
303.199
303.161
303.156
303.167
303.23
303.27
303.305
303.313
303.35
303.323
303.333
303.287
303.287
303.25
303.258
303.283
303.38
303.449
351.262
349.799
348.601
348.024
348.005
348.258
348.954
349.699
350.421
350.934
351.287
351.175
350.78
350.268
349.967
349.579
349.406
350.104
351.242
352.551
344.532
343.303
342.234
341.739
341.681
341.894
342.511
343.1
343.72
344.157
344.464
344.37
344.018
343.581
343.358
343.03
342.879
343.496
344.496
345.607
337.762
336.758
335.837
335.409
335.333
335.497
336.004
336.477
337.036
337.383
337.629
337.554
337.274
336.895
336.727
336.45
336.331
336.858
337.71
338.634
330.942
330.155
329.361
329.023
328.973
329.091
329.479
329.833
330.327
330.599
330.809
330.728
330.511
330.197
330.08
329.828
329.762
330.181
330.899
331.642
324.105
323.507
322.853
322.607
322.582
322.646
322.935
323.213
323.608
323.818
323.99
323.897
323.735
323.5
323.42
323.196
323.18
323.519
324.077
324.641
317.238
316.842
316.357
316.181
316.154
316.189
316.407
316.613
316.873
317.019
317.156
317.085
316.966
316.819
316.74
316.579
316.572
316.82
317.222
317.617
310.361
310.118
309.831
309.725
309.715
309.741
309.869
309.995
310.139
310.226
310.317
310.273
310.182
310.108
310.045
309.942
309.959
310.104
310.37
310.577
303.474
303.392
303.301
303.261
303.26
303.27
303.312
303.357
303.405
303.429
303.463
303.441
303.418
303.386
303.367
303.332
303.332
303.388
303.473
303.547
352.844
351.49
350.326
349.61
349.698
349.845
350.472
351.298
352.048
352.596
352.861
352.799
352.582
351.978
351.568
351.226
351.232
351.67
352.774
354.22
345.898
344.748
343.744
343.079
343.159
343.285
343.787
344.482
345.148
345.575
345.829
345.755
345.586
345.074
344.722
344.433
344.468
344.848
345.806
347.022
338.908
337.95
337.1
336.546
336.55
336.693
337.077
337.657
338.206
338.572
338.778
338.721
338.588
338.173
337.86
337.628
337.674
338.005
338.795
339.805
331.873
331.094
330.413
329.966
329.921
330.033
330.354
330.82
331.276
331.554
331.753
331.688
331.572
331.26
330.99
330.827
330.862
331.146
331.747
332.574
324.822
324.204
323.697
323.345
323.279
323.385
323.607
323.966
324.346
324.538
324.697
324.659
324.563
324.333
324.133
324.002
324.033
324.256
324.699
325.341
317.74
317.315
316.941
316.705
316.629
316.727
316.872
317.127
317.407
317.504
317.65
317.62
317.54
317.398
317.258
317.167
317.181
317.35
317.657
318.11
310.643
310.378
310.172
310.044
309.987
310.043
310.134
310.289
310.463
310.498
310.586
310.581
310.514
310.461
310.363
310.313
310.323
310.433
310.62
310.888
303.561
303.474
303.404
303.369
303.354
303.359
303.39
303.447
303.515
303.516
303.548
303.541
303.514
303.493
303.482
303.45
303.459
303.499
303.556
303.658
354.744
353.379
352.172
351.6
351.497
351.655
352.328
352.892
353.745
354.345
354.608
354.53
354.273
353.702
353.334
353.05
353.006
353.528
354.529
355.911
347.56
346.399
345.34
344.814
344.73
344.837
345.386
345.883
346.601
347.133
347.335
347.251
347.045
346.53
346.271
346.024
346.002
346.456
347.332
348.493
340.307
339.374
338.439
337.966
337.915
337.973
338.414
338.847
339.451
339.875
340.076
339.986
339.822
339.366
339.166
338.96
338.959
339.358
340.097
341.059
333.006
332.287
331.489
331.076
331.067
331.083
331.439
331.795
332.299
332.63
332.804
332.728
332.587
332.208
332.054
331.868
331.906
332.242
332.83
333.61
325.698
325.147
324.51
324.186
324.186
324.195
324.474
324.748
325.132
325.373
325.516
325.476
325.36
325.053
324.945
324.784
324.84
325.108
325.566
326.153
318.382
317.972
317.505
317.286
317.282
317.303
317.501
317.686
317.956
318.117
318.246
318.204
318.115
317.906
317.826
317.69
317.76
317.939
318.296
318.689
311.039
310.801
310.517
310.382
310.39
310.416
310.511
310.623
310.77
310.875
310.961
310.924
310.895
310.767
310.696
310.626
310.649
310.768
310.988
311.219
303.692
303.623
303.52
303.481
303.477
303.489
303.525
303.561
303.611
303.648
303.673
303.665
303.646
303.605
303.579
303.561
303.563
303.599
303.686
303.764
356.699
355.443
354.367
353.69
353.471
353.597
354.179
354.659
355.493
355.988
356.299
356.209
356.008
355.533
355.088
354.848
354.949
355.502
356.478
357.784
349.229
348.174
347.216
346.622
346.441
346.514
347.007
347.416
348.12
348.507
348.798
348.704
348.531
348.144
347.764
347.581
347.664
348.159
349.032
350.095
341.678
340.836
340.03
339.52
339.351
339.4
339.829
340.164
340.739
341.02
341.287
341.203
341.045
340.736
340.427
340.292
340.377
340.785
341.566
342.382
334.125
333.46
332.823
332.362
332.247
332.281
332.628
332.888
333.327
333.544
333.793
333.729
333.574
333.324
333.076
332.98
333.06
333.413
334.046
334.662
326.552
326.061
325.565
325.199
325.101
325.148
325.396
325.601
325.913
326.073
326.307
326.242
326.115
325.932
325.735
325.657
325.732
326.028
326.489
326.949
318.986
318.64
318.286
317.995
317.954
317.997
318.168
318.296
318.513
318.627
318.817
318.733
318.663
318.529
318.39
318.321
318.397
318.6
318.932
319.271
311.42
311.209
310.983
310.807
310.798
310.825
310.902
310.985
311.134
311.203
311.307
311.252
311.217
311.12
311.035
311
311.061
311.173
311.375
311.599
303.832
303.76
303.676
303.621
303.628
303.622
303.663
303.683
303.736
303.752
303.787
303.777
303.757
303.73
303.694
303.69
303.71
303.752
303.82
303.894
358.708
357.575
356.37
355.712
355.419
355.533
356.037
356.494
357.076
357.655
358.055
358.053
357.796
357.286
356.907
356.772
356.935
357.488
358.493
359.627
350.942
349.991
348.984
348.392
348.113
348.18
348.619
348.976
349.483
349.965
350.319
350.296
350.06
349.655
349.332
349.246
349.39
349.883
350.773
351.72
343.161
342.366
341.532
341.013
340.76
340.815
341.166
341.457
341.899
342.262
342.569
342.547
342.316
342.011
341.75
341.693
341.83
342.258
342.994
343.806
335.35
334.703
334.052
333.588
333.389
333.425
333.697
333.955
334.293
334.558
334.844
334.796
334.582
334.368
334.174
334.135
334.247
334.604
335.203
335.896
327.528
327.035
326.511
326.142
325.991
326.018
326.233
326.448
326.691
326.878
327.109
327.06
326.885
326.74
326.609
326.552
326.648
326.951
327.389
327.944
319.682
319.336
318.965
318.681
318.58
318.607
318.768
318.925
319.074
319.196
319.374
319.331
319.205
319.121
319.033
318.971
319.06
319.275
319.582
319.981
311.819
311.615
311.408
311.214
311.171
311.184
311.283
311.389
311.457
311.533
311.636
311.603
311.534
311.484
311.442
311.391
311.466
311.574
311.754
312.011
303.951
303.904
303.823
303.761
303.743
303.756
303.791
303.807
303.845
303.869
303.902
303.886
303.856
303.843
303.834
303.821
303.85
303.885
303.937
304.021
360.949
359.73
358.546
357.808
357.581
357.635
358.057
358.372
358.961
359.354
359.869
359.855
359.512
359.158
358.961
358.663
358.92
359.402
360.598
361.653
352.926
351.901
350.843
350.219
350.006
350.047
350.37
350.621
351.143
351.43
351.899
351.864
351.601
351.288
351.125
350.873
351.133
351.547
352.626
353.482
344.855
344.01
343.11
342.556
342.389
342.409
342.675
342.862
343.298
343.506
343.921
343.87
343.668
343.401
343.284
343.084
343.306
343.664
344.6
345.285
336.745
336.08
335.316
334.865
334.726
334.718
334.953
335.096
335.452
335.572
335.959
335.874
335.74
335.483
335.42
335.278
335.463
335.755
336.524
337.056
328.61
328.131
327.518
327.116
327.042
327.036
327.195
327.307
327.577
327.668
327.964
327.902
327.809
327.605
327.559
327.462
327.607
327.835
328.432
328.843
320.453
320.137
319.685
319.373
319.324
319.339
319.444
319.523
319.709
319.745
319.992
319.937
319.878
319.71
319.674
319.625
319.749
319.896
320.348
320.604
312.281
312.104
311.838
311.641
311.612
311.618
311.703
311.729
311.826
311.855
312.006
311.973
311.946
311.849
311.798
311.786
311.875
311.968
312.228
312.389
304.116
304.06
303.969
303.901
303.889
303.895
303.928
303.929
303.966
303.959
304.024
304.019
304.004
303.973
303.949
303.947
303.986
304.01
304.102
304.158
363.292
361.944
360.803
360.184
359.868
359.77
359.982
360.344
360.825
361.27
361.658
361.578
361.199
361.022
360.87
360.724
360.865
361.489
362.495
363.577
354.94
353.799
352.807
352.255
351.977
351.871
352.033
352.324
352.745
353.092
353.427
353.364
353.027
352.895
352.788
352.66
352.805
353.366
354.237
355.154
346.546
345.62
344.758
344.292
344.043
343.951
344.064
344.327
344.659
344.896
345.213
345.161
344.844
344.766
344.671
344.566
344.722
345.228
345.949
346.714
338.103
337.399
336.648
336.297
336.08
335.999
336.082
336.303
336.54
336.716
336.988
336.958
336.693
336.634
336.558
336.476
336.619
337.055
337.617
338.255
329.656
329.145
328.53
328.275
328.097
328.017
328.093
328.267
328.424
328.547
328.788
328.747
328.55
328.501
328.452
328.372
328.521
328.856
329.292
329.757
321.204
320.858
320.393
320.236
320.1
320.027
320.08
320.209
320.297
320.404
320.577
320.556
320.411
320.354
320.333
320.26
320.406
320.62
320.946
321.256
312.726
312.538
312.255
312.162
312.087
312.019
312.073
312.152
312.183
312.256
312.357
312.35
312.274
312.228
312.23
312.177
312.276
312.38
312.582
312.758
304.266
304.21
304.102
304.087
304.059
304.04
304.043
304.08
304.082
304.101
304.142
304.142
304.12
304.085
304.106
304.08
304.105
304.148
304.216
304.282
365.564
364.331
363.137
362.386
361.957
361.838
361.952
362.286
362.644
363.002
363.212
363.326
363.113
362.992
362.882
362.722
362.934
363.578
364.544
365.678
356.923
355.863
354.82
354.176
353.768
353.642
353.733
354.039
354.286
354.599
354.776
354.883
354.704
354.622
354.52
354.417
354.591
355.174
356.048
356.991
348.249
347.331
346.455
345.91
345.558
345.425
345.506
345.758
345.931
346.207
346.359
346.451
346.301
346.239
346.146
346.083
346.229
346.73
347.499
348.291
339.54
338.777
338.068
337.597
337.339
337.207
337.291
337.452
337.593
337.835
337.931
338.031
337.893
337.852
337.784
337.726
337.862
338.278
338.902
339.547
330.792
330.211
329.647
329.268
329.079
328.981
329.041
329.12
329.238
329.455
329.499
329.605
329.462
329.455
329.386
329.372
329.455
329.804
330.288
330.768
322.032
321.599
321.19
320.918
320.798
320.742
320.767
320.799
320.896
321.042
321.077
321.163
321.045
321.055
320.972
321.003
321.067
321.29
321.677
321.977
313.242
312.997
312.732
312.565
312.514
312.459
312.462
312.495
312.537
312.63
312.663
312.707
312.637
312.644
312.578
312.624
312.654
312.797
313.043
313.201
304.443
304.366
304.263
304.21
304.207
304.172
304.174
304.181
304.199
304.229
304.242
304.258
304.231
304.24
304.218
304.234
304.233
304.289
304.368
304.431
367.811
366.517
365.537
364.597
364.171
364.066
364.024
364.267
364.559
364.795
365.061
365.07
365.009
364.903
364.668
364.661
364.959
365.764
366.653
367.727
358.885
357.757
356.9
356.073
355.699
355.61
355.552
355.748
355.981
356.171
356.409
356.424
356.371
356.284
356.083
356.091
356.345
357.059
357.84
358.776
349.909
348.936
348.211
347.523
347.176
347.116
347.054
347.22
347.389
347.541
347.764
347.776
347.723
347.642
347.481
347.508
347.761
348.338
348.973
349.768
340.864
340.084
339.477
338.93
338.632
338.577
338.532
338.647
338.784
338.902
339.124
339.109
339.056
338.984
338.863
338.887
339.103
339.586
340.096
340.709
331.789
331.237
330.708
330.294
330.068
330
329.974
330.053
330.172
330.268
330.444
330.446
330.387
330.311
330.242
330.257
330.429
330.813
331.196
331.655
322.712
322.345
321.951
321.658
321.499
321.427
321.418
321.467
321.561
321.636
321.768
321.786
321.717
321.668
321.613
321.62
321.738
322.016
322.291
322.611
313.648
313.449
313.183
313.008
312.926
312.875
312.857
312.886
312.956
312.987
313.087
313.104
313.054
313.007
312.991
313.009
313.068
313.215
313.403
313.592
304.575
304.51
304.42
304.354
304.345
304.305
304.305
304.32
304.352
304.354
304.39
304.393
304.377
304.358
304.365
304.359
304.382
304.425
304.495
304.558
370.162
368.867
367.753
366.889
366.399
366.079
366.083
366.269
366.371
366.651
366.801
366.829
366.689
366.655
366.675
366.725
367.056
367.862
368.663
369.776
360.899
359.818
358.816
358.09
357.641
357.374
357.336
357.498
357.549
357.799
357.916
357.919
357.834
357.818
357.833
357.88
358.179
358.897
359.587
360.531
351.59
350.702
349.85
349.201
348.831
348.616
348.556
348.709
348.707
348.91
349.02
349.035
348.963
348.956
348.951
349.021
349.269
349.908
350.474
351.252
342.241
341.524
340.855
340.282
339.986
339.834
339.755
339.876
339.887
340.019
340.114
340.114
340.103
340.076
340.066
340.128
340.342
340.895
341.351
341.973
332.866
332.334
331.826
331.366
331.124
331.002
330.957
331.033
331.051
331.144
331.213
331.22
331.217
331.189
331.174
331.227
331.427
331.828
332.212
332.674
323.49
323.125
322.776
322.419
322.236
322.154
322.145
322.164
322.205
322.264
322.303
322.318
322.296
322.3
322.27
322.332
322.488
322.744
323.049
323.351
314.111
313.901
313.696
313.459
313.356
313.307
313.316
313.304
313.345
313.395
313.399
313.411
313.399
313.394
313.385
313.403
313.528
313.652
313.862
314.029
304.724
304.663
304.59
304.502
304.469
304.461
304.466
304.461
304.491
304.495
304.491
304.488
304.483
304.478
304.498
304.496
304.542
304.566
304.646
304.696
372.305
371.153
370.062
369.143
368.664
368.22
368.131
368.197
368.186
368.414
368.611
368.649
368.541
368.613
368.577
368.713
369.198
369.934
370.845
371.943
362.763
361.778
360.835
360.023
359.611
359.204
359.122
359.164
359.137
359.354
359.483
359.52
359.43
359.509
359.488
359.627
360.05
360.675
361.487
362.404
353.179
352.346
351.563
350.856
350.515
350.147
350.094
350.107
350.075
350.28
350.346
350.372
350.32
350.395
350.371
350.497
350.858
351.404
352.121
352.829
343.528
342.895
342.27
341.681
341.37
341.043
341.023
341.038
340.999
341.156
341.219
341.22
341.193
341.247
341.202
341.357
341.646
342.107
342.712
343.257
333.873
333.418
332.927
332.453
332.211
331.946
331.931
331.949
331.926
332.02
332.09
332.061
332.068
332.1
332.05
332.206
332.41
332.774
333.271
333.675
324.205
323.905
323.533
323.192
323.012
322.824
322.826
322.827
322.815
322.893
322.931
322.897
322.929
322.955
322.892
323.029
323.171
323.429
323.805
324.079
314.551
314.352
314.154
313.916
313.817
313.706
313.728
313.714
313.695
313.778
313.773
313.744
313.779
313.794
313.737
313.837
313.914
314.077
314.324
314.481
304.888
304.808
304.745
304.655
304.638
304.599
304.619
304.59
304.593
304.625
304.616
304.603
304.617
304.624
304.605
304.638
304.661
304.717
304.811
304.856
374.477
373.405
372.386
371.392
370.734
370.334
370.152
370.176
370.144
370.203
370.353
370.392
370.357
370.43
370.555
370.715
371.246
372.075
372.965
373.94
364.649
363.721
362.837
361.985
361.396
361.02
360.857
360.872
360.833
360.885
361.003
361.041
361.016
361.094
361.21
361.349
361.805
362.533
363.318
364.155
354.769
354.016
353.221
352.534
352.016
351.694
351.515
351.534
351.514
351.549
351.639
351.68
351.641
351.716
351.835
351.957
352.33
352.96
353.64
354.339
344.84
344.254
343.583
343.039
342.619
342.34
342.171
342.199
342.192
342.216
342.256
342.287
342.244
342.338
342.425
342.531
342.842
343.352
343.94
344.495
334.905
334.466
333.944
333.511
333.2
332.974
332.832
332.838
332.853
332.849
332.891
332.901
332.866
332.956
333.017
333.092
333.326
333.732
334.209
334.65
324.936
324.653
324.27
323.967
323.753
323.59
323.471
323.478
323.498
323.482
323.513
323.513
323.484
323.575
323.605
323.644
323.803
324.106
324.469
324.773
314.983
314.807
314.602
314.396
314.261
314.183
314.105
314.102
314.127
314.099
314.135
314.131
314.105
314.177
314.176
314.197
314.27
314.466
314.731
314.891
305.028
304.969
304.904
304.817
304.78
304.758
304.716
304.737
304.742
304.727
304.743
304.733
304.723
304.756
304.753
304.749
304.78
304.841
304.934
304.987
376.69
375.572
374.482
373.505
372.8
372.385
372.121
372.016
372.074
372.069
372.063
372.007
372.185
372.279
372.459
372.714
373.281
373.852
374.958
376.032
366.56
365.592
364.638
363.792
363.182
362.794
362.53
362.472
362.501
362.508
362.479
362.426
362.577
362.69
362.852
363.069
363.57
364.061
365.047
365.94
356.362
355.564
354.763
354.031
353.517
353.158
352.92
352.898
352.933
352.932
352.875
352.84
352.949
353.083
353.221
353.39
353.823
354.257
355.098
355.826
346.141
345.503
344.857
344.229
343.823
343.524
343.282
343.288
343.351
343.335
343.287
343.245
343.321
343.468
343.563
343.716
344.053
344.442
345.13
345.691
335.919
335.416
334.922
334.413
334.103
333.891
333.675
333.695
333.771
333.714
333.666
333.648
333.674
333.84
333.881
334.016
334.275
334.601
335.148
335.542
325.684
325.309
324.982
324.592
324.38
324.222
324.063
324.09
324.149
324.077
324.054
324.063
324.061
324.181
324.217
324.289
324.497
324.743
325.137
325.411
315.435
315.207
315.014
314.771
314.643
314.545
314.458
314.476
314.516
314.452
314.43
314.46
314.441
314.516
314.55
314.579
314.718
314.86
315.108
315.26
305.17
305.102
305.031
304.955
304.918
304.879
304.848
304.851
304.868
304.839
304.832
304.856
304.834
304.862
304.874
304.888
304.936
304.988
305.068
305.115
378.624
377.45
376.417
375.481
374.8
374.251
373.885
373.717
373.777
373.651
373.689
373.773
373.773
373.998
374.202
374.479
375.123
375.719
376.92
377.96
368.201
367.189
366.308
365.454
364.886
364.387
364.069
363.89
363.935
363.843
363.872
363.934
363.95
364.126
364.332
364.571
365.149
365.663
366.732
367.603
357.734
356.893
356.138
355.386
354.943
354.533
354.258
354.077
354.096
354.028
354.058
354.08
354.118
354.299
354.445
354.635
355.149
355.606
356.486
357.223
347.272
346.629
345.947
345.341
344.981
344.636
344.437
344.248
344.272
344.193
344.237
344.243
344.265
344.454
344.552
344.687
345.131
345.544
346.233
346.807
336.799
336.31
335.751
335.282
335.007
334.721
334.604
334.417
334.468
334.383
334.403
334.4
334.419
334.595
334.655
334.74
335.103
335.458
335.985
336.395
326.298
325.972
325.567
325.202
325.022
324.816
324.737
324.601
324.65
324.565
324.57
324.58
324.586
324.728
324.761
324.819
325.08
325.337
325.718
325.99
315.801
315.61
315.372
315.128
315.03
314.902
314.854
314.785
314.796
314.749
314.753
314.765
314.756
314.857
314.872
314.906
315.076
315.212
315.433
315.621
305.295
305.229
305.145
305.073
305.04
304.999
304.986
304.975
304.962
304.939
304.941
304.945
304.937
304.982
304.989
304.998
305.054
305.103
305.174
305.246
379.958
378.95
377.857
376.96
376.264
375.608
375.243
375.092
375.146
374.957
374.982
374.974
375.083
375.106
375.484
375.907
376.603
377.165
378.237
379.21
369.276
368.432
367.492
366.702
366.087
365.506
365.203
365.033
365.094
364.923
364.953
364.924
365.043
365.045
365.391
365.772
366.383
366.866
367.774
368.622
358.607
357.895
357.101
356.441
355.928
355.418
355.159
355.004
355.059
354.913
354.943
354.876
355.005
354.987
355.293
355.63
356.123
356.544
357.322
358.047
347.937
347.357
346.733
346.19
345.758
345.347
345.13
344.983
345.037
344.92
344.935
344.846
344.996
344.968
345.212
345.503
345.868
346.235
346.91
347.461
337.272
336.842
336.34
335.944
335.586
335.27
335.116
334.962
335.013
334.935
334.926
334.85
335.014
334.961
335.143
335.371
335.669
335.951
336.493
336.9
326.642
326.312
325.976
325.668
325.435
325.187
325.064
324.987
324.997
324.958
324.944
324.899
325.019
324.994
325.093
325.279
325.48
325.689
326.088
326.352
316.004
315.806
315.602
315.407
315.254
315.111
315.048
314.992
314.997
314.98
314.963
314.968
315.029
315.029
315.06
315.189
315.32
315.428
315.673
315.833
305.36
305.299
305.23
305.163
305.106
305.057
305.051
305.02
305.026
305.024
305.018
305.011
305.045
305.042
305.046
305.095
305.129
305.167
305.25
305.308
)
;

boundaryField
{
    hotSide
    {
        type            fixedGradient;
        gradient        nonuniform List<scalar> 
400
(
485.78
488.498
494.906
504.921
518.197
534.232
552.482
572.45
593.717
615.949
638.888
662.335
686.135
710.167
734.335
758.559
782.772
806.921
830.972
854.908
462.054
464.954
471.802
482.497
496.624
513.589
532.773
553.628
575.707
598.665
622.24
646.236
670.506
694.937
719.441
743.943
768.384
792.714
816.901
840.937
447.824
451.198
458.479
469.558
484.025
501.295
520.754
541.853
564.142
587.272
610.978
635.062
659.378
683.816
708.293
732.743
757.113
781.361
805.463
829.416
442.536
446.653
454.374
465.593
479.964
496.991
516.137
536.897
558.842
581.625
604.98
628.704
652.65
676.709
700.803
724.872
748.874
772.781
796.576
820.265
443.854
448.849
457.055
468.363
482.498
499.064
517.617
537.721
558.981
581.068
603.72
626.738
649.976
673.331
696.735
720.142
743.522
766.859
790.151
813.404
449.143
455.046
463.804
475.301
489.301
505.482
523.469
542.883
563.367
584.616
606.382
628.48
650.779
673.197
695.682
718.21
740.77
763.36
785.988
808.665
456.296
463.086
472.463
484.298
498.371
514.39
532.016
550.898
570.701
591.137
611.977
633.063
654.297
675.63
697.047
718.553
740.162
761.888
783.749
805.759
463.778
471.394
481.427
493.734
508.091
524.208
541.745
560.344
579.663
599.414
619.388
639.461
659.588
679.775
700.057
720.481
741.087
761.91
782.973
804.29
470.453
478.778
489.438
502.278
517.066
533.494
551.195
569.769
588.836
608.084
627.314
646.45
665.515
684.591
703.779
723.167
742.827
762.806
783.13
803.814
475.467
484.299
495.45
508.762
523.993
540.815
558.821
577.556
596.572
615.515
634.185
652.559
670.741
688.894
707.181
725.731
744.636
763.95
783.702
803.898
478.243
487.285
498.669
512.237
527.743
544.842
563.099
582.013
601.081
619.907
638.289
656.237
673.916
691.542
709.319
727.4
745.886
764.836
784.275
804.21
478.549
487.443
498.72
512.223
527.698
544.797
563.075
582.024
601.141
620.023
638.464
656.469
674.197
691.861
709.663
727.758
746.251
765.204
784.648
804.589
476.575
484.967
495.808
508.939
524.101
540.945
559.038
577.9
597.068
616.172
635
653.515
671.81
690.04
708.37
726.937
745.841
765.148
784.897
805.101
472.965
480.57
490.743
503.325
518.055
534.578
552.473
571.294
590.62
610.109
629.542
648.829
667.986
687.095
706.263
725.598
745.186
765.094
785.367
806.029
468.812
475.443
484.842
496.857
511.214
527.539
545.4
564.356
584.003
604.009
624.143
644.274
664.358
684.418
704.51
724.709
745.085
765.7
786.603
807.822
465.7
471.265
479.885
491.42
505.562
521.886
539.913
559.176
579.261
599.832
620.648
641.553
662.47
683.381
704.31
725.305
746.421
767.717
789.24
811.022
465.793
470.296
478.191
489.344
503.391
519.825
538.096
557.692
578.18
599.221
620.568
642.058
663.598
685.15
706.717
728.33
750.035
771.886
793.929
816.195
471.755
475.329
482.562
493.323
507.196
523.597
541.918
561.616
582.248
603.478
625.064
646.841
668.709
690.62
712.564
734.559
756.643
778.864
801.265
823.874
485.963
488.885
495.5
505.688
519.033
534.952
552.838
572.155
592.471
613.459
634.879
656.568
678.42
700.374
722.409
744.529
766.763
789.145
811.71
834.479
509.096
511.679
517.71
527.092
539.482
554.384
571.27
589.659
609.149
629.427
650.258
671.474
692.961
714.644
736.488
758.482
780.634
802.963
825.489
848.223
)
;
    }
    coldSide
    {
        type            mixed;
        refValue        uniform 300;
        refGradient     uniform 0;
        valueFraction   uniform 0.991591;
        source          uniform 0;
        value           nonuniform List<scalar> 
400
(
300.027
300.027
300.027
300.028
300.029
300.029
300.03
300.031
300.032
300.033
300.035
300.036
300.037
300.038
300.04
300.041
300.042
300.043
300.045
300.045
300.026
300.026
300.026
300.027
300.028
300.029
300.029
300.03
300.032
300.033
300.034
300.035
300.037
300.038
300.039
300.04
300.042
300.043
300.044
300.045
300.025
300.025
300.026