/*--------------------------------*- C++ -*----------------------------------*\
| =========                 |                                                 |
| \\      /  F ield         | OpenFOAM: The Open Source CFD Toolbox           |
|  \\    /   O peration     | Version:  2212                                  |
|   \\  /    A nd           | Website:  www.openfoam.com                      |
|    \\/     M anipulation  |                                                 |
\*---------------------------------------------------------------------------*/
FoamFile
{
    version     2.0;
    format      ascii;
    arch        "LSB;label=32;scalar=64";
    class       volScalarField;
    location    "0";
    object      Tdirect;
}
// * * * * * * * * * * * * * * * * * * * * * * * * * * * * * * * * * * * * * //

dimensions      [0 0 0 1 0 0 0];

internalField   nonuniform List<scalar> 
3200
(
342.53
343.616
345.003
346.515
348.071
349.599
351.009
352.199
353.067
353.525
353.525
353.067
352.199
351.009
349.599
348.071
346.515
345.003
343.616
342.53
336.921
337.841
339.037
340.344
341.691
343.012
344.231
345.259
346.008
346.404
346.404
346.008
345.259
344.231
343.012
341.691
340.344
339.037
337.841
336.921
331.287
332.05
333.058
334.162
335.3
336.416
337.445
338.313
338.945
339.278
339.278
338.945
338.313
337.445
336.416
335.3
334.162
333.058
332.05
331.287
325.633
326.247
327.068
327.97
328.9
329.812
330.653
331.361
331.877
332.149
332.149
331.877
331.361
330.653
329.812
328.9
327.97
327.068
326.247
325.633
319.96
320.432
321.069
321.77
322.493
323.201
323.854
324.404
324.804
325.016
325.016
324.804
324.404
323.854
323.201
322.493
321.77
321.069
320.432
319.96
314.274
314.608
315.062
315.563
316.079
316.585
317.051
317.443
317.729
317.879
317.879
317.729
317.443
317.051
316.585
316.079
315.563
315.062
314.608
314.274
308.578
308.777
309.05
309.35
309.66
309.964
310.243
310.479
310.65
310.741
310.741
310.65
310.479
310.243
309.964
309.66
309.35
309.05
308.777
308.578
302.876
302.943
303.034
303.135
303.238
303.34
303.434
303.513
303.57
303.601
303.601
303.57
303.513
303.434
303.34
303.238
303.135
303.034
302.943
302.876
342.617
343.695
345.071
346.568
348.108
349.619
351.013
352.188
353.044
353.496
353.496
353.044
352.188
351.013
349.619
348.108
346.568
345.071
343.695
342.617
336.997
337.909
339.095
340.39
341.723
343.03
344.235
345.25
345.989
346.38
346.38
345.989
345.25
344.235
343.03
341.723
340.39
339.095
337.909
336.997
331.351
332.108
333.107
334.201
335.328
336.432
337.449
338.306
338.929
339.258
339.258
338.929
338.306
337.449
336.432
335.328
334.201
333.107
332.108
331.351
325.685
326.294
327.108
328.002
328.923
329.825
330.656
331.355
331.864
332.133
332.133
331.864
331.355
330.656
329.825
328.923
328.002
327.108
326.294
325.685
320.001
320.469
321.1
321.795
322.51
323.211
323.856
324.4
324.795
325.003
325.003
324.795
324.4
323.856
323.211
322.51
321.795
321.1
320.469
320.001
314.303
314.634
315.084
315.58
316.091
316.592
317.052
317.44
317.722
317.871
317.871
317.722
317.44
317.052
316.592
316.091
315.58
315.084
314.634
314.303
308.596
308.793
309.063
309.361
309.667
309.968
310.244
310.477
310.646
310.735
310.735
310.646
310.477
310.244
309.968
309.667
309.361
309.063
308.793
308.596
302.882
302.948
303.038
303.138
303.241
303.342
303.434
303.512
303.569
303.599
303.599
303.569
303.512
303.434
303.342
303.241
303.138
303.038
302.948
302.882
342.794
343.855
345.207
346.676
348.186
349.664
351.025
352.172
353.006
353.446
353.446
353.006
352.172
351.025
349.664
348.186
346.676
345.207
343.855
342.794
337.149
338.047
339.213
340.484
341.79
343.069
344.246
345.237
345.957
346.337
346.337
345.957
345.237
344.246
343.069
341.79
340.484
339.213
338.047
337.149
331.48
332.225
333.207
334.281
335.385
336.465
337.458
338.295
338.903
339.223
339.223
338.903
338.295
337.458
336.465
335.385
334.281
333.207
332.225
331.48
325.79
326.389
327.19
328.067
328.97
329.852
330.664
331.347
331.843
332.104
332.104
331.843
331.347
330.664
329.852
328.97
328.067
327.19
326.389
325.79
320.082
320.543
321.163
321.845
322.547
323.232
323.863
324.393
324.778
324.981
324.981
324.778
324.393
323.863
323.232
322.547
321.845
321.163
320.543
320.082
314.361
314.687
315.13
315.616
316.117
316.607
317.057
317.435
317.71
317.855
317.855
317.71
317.435
317.057
316.607
316.117
315.616
315.13
314.687
314.361
308.63
308.825
309.09
309.382
309.683
309.977
310.247
310.474
310.639
310.726
310.726
310.639
310.474
310.247
309.977
309.683
309.382
309.09
308.825
308.63
302.894
302.959
303.048
303.145
303.246
303.345
303.435
303.511
303.567
303.596
303.596
303.567
303.511
303.435
303.345
303.246
303.145
303.048
302.959
302.894
343.061
344.097
345.415
346.844
348.309
349.74
351.055
352.161
352.964
353.387
353.387
352.964
352.161
351.055
349.74
348.309
346.844
345.415
344.097
343.061
337.38
338.257
339.393
340.63
341.898
343.136
344.273
345.228
345.922
346.287
346.287
345.922
345.228
344.273
343.136
341.898
340.63
339.393
338.257
337.38
331.675
332.402
333.36
334.404
335.476
336.522
337.482
338.288
338.873
339.182
339.182
338.873
338.288
337.482
336.522
335.476
334.404
333.36
332.402
331.675
325.949
326.534
327.315
328.168
329.044
329.899
330.683
331.342
331.82
332.071
332.071
331.82
331.342
330.683
329.899
329.044
328.168
327.315
326.534
325.949
320.206
320.655
321.261
321.924
322.605
323.269
323.878
324.39
324.761
324.956
324.956
324.761
324.39
323.878
323.269
322.605
321.924
321.261
320.655
320.206
314.449
314.768
315.199
315.673
316.159
316.633
317.068
317.433
317.698
317.837
317.837
317.698
317.433
317.068
316.633
316.159
315.673
315.199
314.768
314.449
308.683
308.873
309.132
309.416
309.708
309.993
310.254
310.473
310.632
310.716
310.716
310.632
310.473
310.254
309.993
309.708
309.416
309.132
308.873
308.683
302.911
302.975
303.061
303.157
303.255
303.35
303.438
303.511
303.564
303.592
303.592
303.564
303.511
303.438
303.35
303.255
303.157
303.061
302.975
302.911
343.423
344.427
345.702
347.08
348.488
349.86
351.116
352.17
352.934
353.336
353.336
352.934
352.17
351.116
349.86
348.488
347.08
345.702
344.427
343.423
337.692
338.543
339.642
340.834
342.053
343.24
344.326
345.237
345.897
346.245
346.245
345.897
345.237
344.326
343.24
342.053
340.834
339.642
338.543
337.692
331.938
332.643
333.569
334.577
335.607
336.61
337.528
338.297
338.854
339.147
339.147
338.854
338.297
337.528
336.61
335.607
334.577
333.569
332.643
331.938
326.164
326.732
327.486
328.31
329.152
329.971
330.721
331.349
331.804
332.044
332.044
331.804
331.349
330.721
329.971
329.152
328.31
327.486
326.732
326.164
320.373
320.809
321.394
322.034
322.689
323.325
323.908
324.396
324.749
324.935
324.935
324.749
324.396
323.908
323.325
322.689
322.034
321.394
320.809
320.373
314.569
314.877
315.294
315.751
316.219
316.674
317.09
317.438
317.69
317.823
317.823
317.69
317.438
317.09
316.674
316.219
315.751
315.294
314.877
314.569
308.755
308.939
309.189
309.463
309.744
310.017
310.267
310.476
310.627
310.707
310.707
310.627
310.476
310.267
310.017
309.744
309.463
309.189
308.939
308.755
302.935
302.997
303.081
303.173
303.267
303.358
303.442
303.512
303.563
303.589
303.589
303.563
303.512
303.442
303.358
303.267
303.173
303.081
302.997
302.935
343.883
344.849
346.072
347.39
348.732
350.035
351.224
352.218
352.937
353.315
353.315
352.937
352.218
351.224
350.035
348.732
347.39
346.072
344.849
343.883
338.09
338.908
339.963
341.103
342.265
343.392
344.42
345.28
345.901
346.228
346.228
345.901
345.28
344.42
343.392
342.265
341.103
339.963
338.908
338.09
332.274
332.952
333.841
334.805
335.787
336.739
337.608
338.334
338.858
339.134
339.134
338.858
338.334
337.608
336.739
335.787
334.805
333.841
332.952
332.274
326.438
326.984
327.708
328.496
329.299
330.077
330.787
331.38
331.809
332.034
332.034
331.809
331.38
330.787
330.077
329.299
328.496
327.708
326.984
326.438
320.585
321.005
321.567
322.179
322.803
323.408
323.96
324.42
324.753
324.928
324.928
324.753
324.42
323.96
323.408
322.803
322.179
321.567
321.005
320.585
314.72
315.017
315.418
315.855
316.3
316.733
317.126
317.455
317.693
317.818
317.818
317.693
317.455
317.126
316.733
316.3
315.855
315.418
315.017
314.72
308.846
309.023
309.263
309.526
309.793
310.053
310.289
310.487
310.629
310.704
310.704
310.629
310.487
310.289
310.053
309.793
309.526
309.263
309.023
308.846
302.966
303.025
303.106
303.193
303.283
303.37
303.449
303.515
303.563
303.588
303.588
303.563
303.515
303.449
303.37
303.283
303.193
303.106
303.025
302.966
344.445
345.369
346.535
347.786
349.054
350.28
351.394
352.323
352.993
353.345
353.345
352.993
352.323
351.394
350.28
349.054
347.786
346.535
345.369
344.445
338.576
339.358
340.363
341.446
342.544
343.605
344.569
345.372
345.952
346.256
346.256
345.952
345.372
344.569
343.605
342.544
341.446
340.363
339.358
338.576
332.684
333.333
334.179
335.094
336.023
336.919
337.734
338.413
338.902
339.159
339.159
338.902
338.413
337.734
336.919
336.023
335.094
334.179
333.333
332.684
326.773
327.295
327.985
328.733
329.492
330.225
330.891
331.446
331.845
332.055
332.055
331.845
331.446
330.891
330.225
329.492
328.733
327.985
327.295
326.773
320.846
321.246
321.782
322.363
322.953
323.523
324.041
324.472
324.782
324.945
324.945
324.782
324.472
324.041
323.523
322.953
322.363
321.782
321.246
320.846
314.906
315.19
315.571
315.986
316.408
316.815
317.185
317.492
317.714
317.83
317.83
317.714
317.492
317.185
316.815
316.408
315.986
315.571
315.19
314.906
308.957
309.127
309.356
309.605
309.858
310.102
310.324
310.509
310.642
310.712
310.712
310.642
310.509
310.324
310.102
309.858
309.605
309.356
309.127
308.957
303.003
303.06
303.136
303.22
303.305
303.387
303.461
303.523
303.568
303.591
303.591
303.568
303.523
303.461
303.387
303.305
303.22
303.136
303.06
303.003
345.115
345.994
347.096
348.275
349.465
350.61
351.646
352.507
353.125
353.449
353.449
353.125
352.507
351.646
350.61
349.465
348.275
347.096
345.994
345.115
339.155
339.898
340.849
341.87
342.9
343.891
344.788
345.532
346.067
346.348
346.348
346.067
345.532
344.788
343.891
342.9
341.87
340.849
339.898
339.155
333.173
333.789
334.591
335.453
336.324
337.162
337.92
338.549
339.001
339.238
339.238
339.001
338.549
337.92
337.162
336.324
335.453
334.591
333.789
333.173
327.172
327.668
328.321
329.026
329.739
330.424
331.043
331.557
331.927
332.12
332.12
331.927
331.557
331.043
330.424
329.739
329.026
328.321
327.668
327.172
321.156
321.536
322.043
322.591
323.145
323.678
324.159
324.559
324.846
324.996
324.996
324.846
324.559
324.159
323.678
323.145
322.591
322.043
321.536
321.156
315.127
315.397
315.758
316.149
316.545
316.925
317.269
317.555
317.76
317.867
317.867
317.76
317.555
317.269
316.925
316.545
316.149
315.758
315.397
315.127
309.09
309.251
309.468
309.703
309.94
310.169
310.375
310.546
310.669
310.734
310.734
310.669
310.546
310.375
310.169
309.94
309.703
309.468
309.251
309.09
303.048
303.101
303.174
303.253
303.332
303.409
303.478
303.536
303.577
303.598
303.598
303.577
303.536
303.478
303.409
303.332
303.253
303.174
303.101
303.048
345.898
346.728
347.766
348.869
349.978
351.039
351.996
352.787
353.354
353.65
353.65
353.354
352.787
351.996
351.039
349.978
348.869
347.766
346.728
345.898
339.832
340.534
341.429
342.384
343.344
344.263
345.091
345.776
346.267
346.523
346.523
346.267
345.776
345.091
344.263
343.344
342.384
341.429
340.534
339.832
333.744
334.326
335.08
335.888
336.7
337.477
338.177
338.756
339.17
339.387
339.387
339.17
338.756
338.177
337.477
336.7
335.888
335.08
334.326
333.744
327.639
328.107
328.722
329.382
330.046
330.682
331.254
331.727
332.066
332.243
332.243
332.066
331.727
331.254
330.682
330.046
329.382
328.722
328.107
327.639
321.518
321.878
322.355
322.868
323.384
323.878
324.323
324.691
324.954
325.092
325.092
324.954
324.691
324.323
323.878
323.384
322.868
322.355
321.878
321.518
315.386
315.641
315.981
316.347
316.716
317.069
317.387
317.649
317.837
317.936
317.936
317.837
317.649
317.387
317.069
316.716
316.347
315.981
315.641
315.386
309.245
309.397
309.601
309.821
310.043
310.255
310.446
310.603
310.716
310.775
310.775
310.716
310.603
310.446
310.255
310.043
309.821
309.601
309.397
309.245
303.1
303.151
303.219
303.293
303.367
303.438
303.502
303.555
303.592
303.612
303.612
303.592
303.555
303.502
303.438
303.367
303.293
303.219
303.151
303.1
346.799
347.579
348.55
349.577
350.604
351.582
352.459
353.181
353.698
353.967
353.967
353.698
353.181
352.459
351.582
350.604
349.577
348.55
347.579
346.799
340.611
341.27
342.108
342.997
343.887
344.733
345.493
346.118
346.565
346.798
346.798
346.565
346.118
345.493
344.733
343.887
342.997
342.108
341.27
340.611
334.402
334.949
335.654
336.407
337.159
337.875
338.517
339.046
339.423
339.621
339.621
339.423
339.046
338.517
337.875
337.159
336.407
335.654
334.949
334.402
328.176
328.616
329.191
329.806
330.421
331.007
331.532
331.965
332.273
332.434
332.434
332.273
331.965
331.532
331.007
330.421
329.806
329.191
328.616
328.176
321.935
322.273
322.72
323.198
323.676
324.132
324.54
324.876
325.116
325.241
325.241
325.116
324.876
324.54
324.132
323.676
323.198
322.72
322.273
321.935
315.684
315.923
316.241
316.583
316.924
317.25
317.542
317.782
317.953
318.042
318.042
317.953
317.782
317.542
317.25
316.924
316.583
316.241
315.923
315.684
309.424
309.567
309.758
309.963
310.168
310.363
310.539
310.683
310.786
310.839
310.839
310.786
310.683
310.539
310.363
310.168
309.963
309.758
309.567
309.424
303.16
303.207
303.271
303.34
303.409
303.474
303.533
303.581
303.616
303.634
303.634
303.616
303.581
303.533
303.474
303.409
303.34
303.271
303.207
303.16
347.823
348.552
349.456
350.408
351.354
352.25
353.05
353.706
354.173
354.417
354.417
354.173
353.706
353.05
352.25
351.354
350.408
349.456
348.552
347.823
341.496
342.113
342.892
343.717
344.536
345.312
346.005
346.573
346.978
347.188
347.188
346.978
346.573
346.005
345.312
344.536
343.717
342.892
342.113
341.496
335.149
335.661
336.318
337.015
337.708
338.364
338.95
339.431
339.773
339.951
339.951
339.773
339.431
338.95
338.364
337.708
337.015
336.318
335.661
335.149
328.787
329.198
329.734
330.303
330.87
331.408
331.887
332.28
332.559
332.705
332.705
332.559
332.28
331.887
331.408
330.87
330.303
329.734
329.198
328.787
322.41
322.726
323.141
323.584
324.025
324.443
324.816
325.121
325.339
325.452
325.452
325.339
325.121
324.816
324.443
324.025
323.584
323.141
322.726
322.41
316.023
316.246
316.542
316.859
317.174
317.472
317.739
317.957
318.112
318.193
318.193
318.112
317.957
317.739
317.472
317.174
316.859
316.542
316.246
316.023
309.628
309.761
309.939
310.129
310.318
310.497
310.657
310.788
310.881
310.93
310.93
310.881
310.788
310.657
310.497
310.318
310.129
309.939
309.761
309.628
303.228
303.272
303.332
303.396
303.459
303.519
303.573
303.617
303.648
303.664
303.664
303.648
303.617
303.573
303.519
303.459
303.396
303.332
303.272
303.228
348.975
349.654
350.491
351.369
352.236
353.054
353.78
354.373
354.794
355.013
355.013
354.794
354.373
353.78
353.054
352.236
351.369
350.491
349.654
348.975
342.492
343.066
343.789
344.549
345.3
346.008
346.637
347.151
347.516
347.705
347.705
347.516
347.151
346.637
346.008
345.3
344.549
343.789
343.066
342.492
335.99
336.466
337.076
337.718
338.354
338.953
339.485
339.92
340.228
340.388
340.388
340.228
339.92
339.485
338.953
338.354
337.718
337.076
336.466
335.99
329.474
329.857
330.353
330.879
331.399
331.889
332.324
332.68
332.932
333.063
333.063
332.932
332.68
332.324
331.889
331.399
330.879
330.353
329.857
329.474
322.944
323.238
323.623
324.032
324.436
324.818
325.156
325.432
325.629
325.73
325.73
325.629
325.432
325.156
324.818
324.436
324.032
323.623
323.238
322.944
316.404
316.612
316.887
317.178
317.467
317.74
317.982
318.179
318.319
318.392
318.392
318.319
318.179
317.982
317.74
317.467
317.178
316.887
316.612
316.404
309.856
309.981
310.145
310.32
310.494
310.658
310.803
310.922
311.006
311.049
311.049
311.006
310.922
310.803
310.658
310.494
310.32
310.145
309.981
309.856
303.304
303.346
303.401
303.46
303.518
303.573
303.622
303.661
303.69
303.704
303.704
303.69
303.661
303.622
303.573
303.518
303.46
303.401
303.346
303.304
350.257
350.887
351.661
352.467
353.259
354.002
354.658
355.193
355.571
355.767
355.767
355.571
355.193
354.658
354.002
353.259
352.467
351.661
350.887
350.257
343.601
344.134
344.801
345.499
346.186
346.829
347.398
347.861
348.189
348.358
348.358
348.189
347.861
347.398
346.829
346.186
345.499
344.801
344.134
343.601
336.927
337.369
337.931
338.522
339.103
339.647
340.129
340.52
340.797
340.941
340.941
340.797
340.52
340.129
339.647
339.103
338.522
337.931
337.369
336.927
330.239
330.594
331.053
331.536
332.011
332.457
332.851
333.171
333.398
333.515
333.515
333.398
333.171
332.851
332.457
332.011
331.536
331.053
330.594
330.239
323.539
323.811
324.167
324.543
324.912
325.259
325.565
325.814
325.991
326.082
326.082
325.991
325.814
325.565
325.259
324.912
324.543
324.167
323.811
323.539
316.828
317.021
317.275
317.543
317.807
318.055
318.274
318.452
318.578
318.643
318.643
318.578
318.452
318.274
318.055
317.807
317.543
317.275
317.021
316.828
310.111
310.226
310.379
310.54
310.698
310.847
310.979
311.085
311.161
311.2
311.2
311.161
311.085
310.979
310.847
310.698
310.54
310.379
310.226
310.111
303.39
303.428
303.479
303.533
303.587
303.636
303.68
303.716
303.742
303.755
303.755
303.742
303.716
303.68
303.636
303.587
303.533
303.479
303.428
303.39
351.674
352.256
352.968
353.707
354.428
355.101
355.693
356.172
356.511
356.686
356.686
356.511
356.172
355.693
355.101
354.428
353.707
352.968
352.256
351.674
344.826
345.318
345.933
346.572
347.198
347.781
348.294
348.709
349.003
349.154
349.154
349.003
348.709
348.294
347.781
347.198
346.572
345.933
345.318
344.826
337.962
338.37
338.888
339.429
339.958
340.452
340.886
341.237
341.485
341.614
341.614
341.485
341.237
340.886
340.452
339.958
339.429
338.888
338.37
337.962
331.084
331.413
331.835
332.277
332.71
333.114
333.47
333.757
333.96
334.065
334.065
333.96
333.757
333.47
333.114
332.71
332.277
331.835
331.413
331.084
324.195
324.448
324.775
325.119
325.456
325.77
326.046
326.27
326.428
326.51
326.51
326.428
326.27
326.046
325.77
325.456
325.119
324.775
324.448
324.195
317.297
317.476
317.709
317.955
318.196
318.42
318.618
318.778
318.89
318.949
318.949
318.89
318.778
318.618
318.42
318.196
317.955
317.709
317.476
317.297
310.393
310.499
310.639
310.787
310.931
311.066
311.185
311.281
311.349
311.384
311.384
311.349
311.281
311.185
311.066
310.931
310.787
310.639
310.499
310.393
303.484
303.52
303.567
303.616
303.665
303.71
303.75
303.782
303.805
303.816
303.816
303.805
303.782
303.75
303.71
303.665
303.616
303.567
303.52
303.484
353.225
353.762
354.416
355.09
355.745
356.353
356.885
357.315
357.617
357.774
357.774
357.617
357.315
356.885
356.353
355.745
355.09
354.416
353.762
353.225
346.167
346.621
347.185
347.769
348.337
348.864
349.326
349.698
349.96
350.096
350.096
349.96
349.698
349.326
348.864
348.337
347.769
347.185
346.621
346.167
339.094
339.471
339.946
340.44
340.921
341.367
341.758
342.073
342.295
342.409
342.409
342.295
342.073
341.758
341.367
340.921
340.44
339.946
339.471
339.094
332.009
332.312
332.7
333.104
333.497
333.863
334.182
334.44
334.622
334.715
334.715
334.622
334.44
334.182
333.863
333.497
333.104
332.7
332.312
332.009
324.914
325.147
325.447
325.761
326.068
326.352
326.6
326.801
326.942
327.015
327.015
326.942
326.801
326.6
326.352
326.068
325.761
325.447
325.147
324.914
317.81
317.975
318.189
318.414
318.632
318.836
319.013
319.157
319.258
319.31
319.31
319.258
319.157
319.013
318.836
318.632
318.414
318.189
317.975
317.81
310.701
310.799
310.927
311.062
311.194
311.316
311.422
311.509
311.569
311.6
311.6
311.569
311.509
311.422
311.316
311.194
311.062
310.927
310.799
310.701
303.587
303.62
303.663
303.708
303.753
303.793
303.829
303.858
303.878
303.889
303.889
303.878
303.858
303.829
303.793
303.753
303.708
303.663
303.62
303.587
354.905
355.399
355.998
356.613
357.207
357.756
358.234
358.618
358.888
359.027
359.027
358.888
358.618
358.234
357.756
357.207
356.613
355.998
355.399
354.905
347.618
348.037
348.553
349.086
349.601
350.077
350.492
350.825
351.059
351.179
351.179
351.059
350.825
350.492
350.077
349.601
349.086
348.553
348.037
347.618
340.32
340.666
341.102
341.552
341.988
342.391
342.742
343.024
343.222
343.324
343.324
343.222
343.024
342.742
342.391
341.988
341.552
341.102
340.666
340.32
333.01
333.288
333.644
334.012
334.369
334.699
334.986
335.217
335.379
335.463
335.463
335.379
335.217
334.986
334.699
334.369
334.012
333.644
333.288
333.01
325.691
325.905
326.18
326.467
326.745
327.001
327.225
327.404
327.53
327.595
327.595
327.53
327.404
327.225
327.001
326.745
326.467
326.18
325.905
325.691
318.365
318.516
318.713
318.917
319.116
319.299
319.459
319.587
319.677
319.724
319.724
319.677
319.587
319.459
319.299
319.116
318.917
318.713
318.516
318.365
311.033
311.124
311.241
311.364
311.484
311.594
311.69
311.767
311.821
311.849
311.849
311.821
311.767
311.69
311.594
311.484
311.364
311.241
311.124
311.033
303.699
303.729
303.769
303.81
303.85
303.887
303.919
303.945
303.963
303.972
303.972
303.963
303.945
303.919
303.887
303.85
303.81
303.769
303.729
303.699
356.697
357.152
357.7
358.26
358.799
359.294
359.723
360.067
360.308
360.432
360.432
360.308
360.067
359.723
359.294
358.799
358.26
357.7
357.152
356.697
349.165
349.549
350.022
350.507
350.975
351.404
351.776
352.075
352.284
352.391
352.391
352.284
352.075
351.776
351.404
350.975
350.507
350.022
349.549
349.165
341.622
341.941
342.34
342.75
343.146
343.509
343.825
344.077
344.254
344.345
344.345
344.254
344.077
343.825
343.509
343.146
342.75
342.34
341.941
341.622
334.072
334.328
334.653
334.989
335.313
335.611
335.869
336.076
336.221
336.295
336.295
336.221
336.076
335.869
335.611
335.313
334.989
334.653
334.328
334.072
326.514
326.711
326.964
327.225
327.477
327.708
327.91
328.071
328.183
328.241
328.241
328.183
328.071
327.91
327.708
327.477
327.225
326.964
326.711
326.514
318.952
319.091
319.271
319.458
319.638
319.803
319.947
320.062
320.143
320.184
320.184
320.143
320.062
319.947
319.803
319.638
319.458
319.271
319.091
318.952
311.386
311.469
311.577
311.689
311.797
311.896
311.983
312.052
312.1
312.125
312.125
312.1
312.052
311.983
311.896
311.797
311.689
311.577
311.469
311.386
303.817
303.845
303.881
303.918
303.955
303.988
304.017
304.04
304.056
304.065
304.065
304.056
304.04
304.017
303.988
303.955
303.918
303.881
303.845
303.817
358.556
358.974
359.476
359.987
360.476
360.924
361.31
361.619
361.834
361.945
361.945
361.834
361.619
361.31
360.924
360.476
359.987
359.476
358.974
358.556
350.76
351.114
351.548
351.991
352.415
352.803
353.139
353.407
353.594
353.69
353.69
353.594
353.407
353.139
352.803
352.415
351.991
351.548
351.114
350.76
342.961
343.254
343.62
343.995
344.355
344.684
344.968
345.195
345.353
345.435
345.435
345.353
345.195
344.968
344.684
344.355
343.995
343.62
343.254
342.961
335.159
335.395
335.694
336.001
336.295
336.565
336.798
336.984
337.113
337.18
337.18
337.113
336.984
336.798
336.565
336.295
336.001
335.694
335.395
335.159
327.355
327.537
327.768
328.007
328.236
328.446
328.628
328.772
328.873
328.925
328.925
328.873
328.772
328.628
328.446
328.236
328.007
327.768
327.537
327.355
319.55
319.678
319.844
320.014
320.178
320.328
320.458
320.561
320.634
320.671
320.671
320.634
320.561
320.458
320.328
320.178
320.014
319.844
319.678
319.55
311.744
311.82
311.919
312.022
312.12
312.21
312.288
312.351
312.394
312.416
312.416
312.394
312.351
312.288
312.21
312.12
312.022
311.919
311.82
311.744
303.937
303.962
303.995
304.03
304.063
304.093
304.119
304.14
304.155
304.162
304.162
304.155
304.14
304.119
304.093
304.063
304.03
303.995
303.962
303.937
360.359
360.745
361.209
361.678
362.125
362.533
362.884
363.163
363.358
363.458
363.458
363.358
363.163
362.884
362.533
362.125
361.678
361.209
360.745
360.359
352.289
352.616
353.017
353.424
353.813
354.168
354.473
354.716
354.885
354.972
354.972
354.885
354.716
354.473
354.168
353.813
353.424
353.017
352.616
352.289
344.23
344.502
344.84
345.185
345.515
345.815
346.074
346.281
346.424
346.498
346.498
346.424
346.281
346.074
345.815
345.515
345.185
344.84
344.502
344.23
336.181
336.399
336.675
336.958
337.229
337.475
337.688
337.857
337.974
338.035
338.035
337.974
337.857
337.688
337.475
337.229
336.958
336.675
336.399
336.181
328.139
328.307
328.522
328.742
328.953
329.145
329.31
329.442
329.534
329.581
329.581
329.534
329.442
329.31
329.145
328.953
328.742
328.522
328.307
328.139
320.104
320.223
320.376
320.534
320.685
320.822
320.941
321.035
321.1
321.134
321.134
321.1
321.035
320.941
320.822
320.685
320.534
320.376
320.223
320.104
312.074
312.145
312.237
312.332
312.422
312.505
312.576
312.633
312.672
312.693
312.693
312.672
312.633
312.576
312.505
312.422
312.332
312.237
312.145
312.074
304.047
304.071
304.102
304.133
304.164
304.191
304.215
304.234
304.248
304.254
304.254
304.248
304.234
304.215
304.191
304.164
304.133
304.102
304.071
304.047
361.784
362.147
362.583
363.023
363.441
363.822
364.148
364.408
364.588
364.68
364.68
364.588
364.408
364.148
363.822
363.441
363.023
362.583
362.147
361.784
353.451
353.76
354.138
354.521
354.886
355.218
355.503
355.729
355.886
355.967
355.967
355.886
355.729
355.503
355.218
354.886
354.521
354.138
353.76
353.451
345.165
345.421
345.741
346.067
346.377
346.659
346.901
347.094
347.228
347.297
347.297
347.228
347.094
346.901
346.659
346.377
346.067
345.741
345.421
345.165
336.914
337.121
337.383
337.65
337.905
338.137
338.336
338.494
338.604
338.661
338.661
338.604
338.494
338.336
338.137
337.905
337.65
337.383
337.121
336.914
328.691
328.851
329.054
329.263
329.462
329.643
329.798
329.922
330.007
330.052
330.052
330.007
329.922
329.798
329.643
329.462
329.263
329.054
328.851
328.691
320.489
320.602
320.748
320.897
321.04
321.169
321.281
321.369
321.431
321.462
321.462
321.431
321.369
321.281
321.169
321.04
320.897
320.748
320.602
320.489
312.302
312.369
312.457
312.546
312.632
312.71
312.777
312.83
312.867
312.886
312.886
312.867
312.83
312.777
312.71
312.632
312.546
312.457
312.369
312.302
304.123
304.145
304.175
304.205
304.234
304.26
304.282
304.3
304.312
304.319
304.319
304.312
304.3
304.282
304.26
304.234
304.205
304.175
304.145
304.123
)
;

boundaryField
{
    hotSide
    {
        type            fixedGradient;
        gradient        nonuniform List<scalar> 
400
(
446.438
447.406
449.353
452.303
456.287
461.345
467.525
474.876
483.45
493.3
504.477
517.028
530.996
546.422
563.338
581.776
601.758
623.306
646.435
671.158
460.749
461.604
463.329
465.954
469.523
474.089
479.713
486.461
494.399
503.594
514.11
526.005
539.331
554.135
570.458
588.332
607.784
628.836
651.504
675.8
476.237
476.956
478.416
480.657
483.735
487.722
492.696
498.743
505.947
514.393
524.159
535.315
547.925
562.043
577.714
594.976
613.857
634.379
656.558
680.404
492.645
493.207
494.359
496.153
498.666
501.987
506.221
511.473
517.854
525.464
534.401
544.748
556.581
569.961
584.938
601.552
619.834
639.805
661.48
684.867
509.514
509.899
510.705
512
513.882
516.467
519.885
524.271
529.757
536.47
544.523
554.017
565.035
577.648
591.911
607.865
625.541
644.959
666.131
689.064
526.141
526.337
526.773
527.537
528.75
530.558
533.121
536.605
541.169
546.962
554.119
562.752
572.958
584.813
598.374
613.685
630.776
649.663
670.358
692.86
541.575
541.581
541.648
541.884
542.435
543.478
545.205
547.812
551.487
556.4
562.704
570.528
579.974
591.124
604.04
618.763
635.322
653.732
673.997
696.117
554.674
554.509
554.244
554.005
553.964
554.327
555.313
557.148
560.044
564.193
569.762
576.89
585.689
596.244
608.616
622.848
638.966
656.98
676.894
698.701
564.26
563.964
563.445
562.844
562.352
562.198
562.626
563.881
566.194
569.773
574.798
581.414
589.739
599.86
611.839
625.716
641.516
659.248
678.91
700.495
569.34
568.972
568.315
567.517
566.78
566.346
566.472
567.414
569.415
572.69
577.424
583.768
591.842
601.733
613.505
627.196
642.83
660.414
679.946
701.415
569.34
568.972
568.315
567.517
566.78
566.346
566.472
567.414
569.415
572.69
577.424
583.768
591.842
601.733
613.505
627.196
642.83
660.414
679.946
701.415
564.26
563.964
563.445
562.844
562.352
562.198
562.626
563.881
566.194
569.773
574.798
581.414
589.739
599.86
611.839
625.716
641.516
659.248
678.91
700.495
554.674
554.509
554.244
554.005
553.964
554.327
555.313
557.148
560.044
564.193
569.762
576.89
585.689
596.244
608.616
622.848
638.966
656.98
676.894
698.701
541.575
541.581
541.648
541.884
542.435
543.478
545.205
547.812
551.487
556.4
562.704
570.528
579.974
591.124
604.04
618.763
635.322
653.732
673.997
696.117
526.141
526.337
526.773
527.537
528.75
530.558
533.121
536.605
541.169
546.962
554.119
562.752
572.958
584.813
598.374
613.685
630.776
649.663
670.358
692.86
509.514
509.899
510.705
512
513.882
516.467
519.885
524.271
529.757
536.47
544.523
554.017
565.035
577.648
591.911
607.865
625.541
644.959
666.131
689.064
492.645
493.207
494.359
496.153
498.666
501.987
506.221
511.473
517.854
525.464
534.401
544.748
556.581
569.961
584.938
601.552
619.834
639.805
661.48
684.867
476.237
476.956
478.416
480.657
483.735
487.722
492.696
498.743
505.947
514.393
524.159
535.315
547.925
562.043
577.714
594.976
613.857
634.379
656.558
680.404
460.749
461.604
463.329
465.954
469.523
474.089
479.713
486.461
494.399
503.594
514.11
526.005
539.331
554.135
570.458
588.332
607.784
628.836
651.504
675.8
446.438
447.406
449.353
452.303
456.287
461.345
467.525
474.876
483.45
493.3
504.477
517.028
530.996
546.422
563.338
581.776
601.758
623.306
646.435
671.158
)
;
    }
    coldSide
    {
        type            mixed;
        refValue        uniform 300;
        refGradient     uniform 0;
        valueFraction   uniform 0.991591;
        source          uniform 0;
        value           nonuniform List<scalar> 
400
(
300.024
300.024
300.024
300.024
300.025
300.025
300.025
300.026
300.026
300.027
300.027
300.028
300.029
300.029
300.03
300.031
300.032
300.033
300.034
300.035
300.025
300.025
300.025
300.025
300.025
300.025
300.026
300.026
300.026
300.027
300.028
300.028
300.029
300.03
300.03
300.031
300.032
300.033
300.034