/*--------------------------------*- C++ -*----------------------------------*\
| =========                 |                                                 |
| \\      /  F ield         | OpenFOAM: The Open Source CFD Toolbox           |
|  \\    /   O peration     | Version:  2212                                  |
|   \\  /    A nd           | Website:  www.openfoam.com                      |
|    \\/     M anipulation  |                                                 |
\*---------------------------------------------------------------------------*/
FoamFile
{
    version     2.0;
    format      ascii;
    arch        "LSB;label=32;scalar=64";
    class       volScalarField;
    location    "0";
    object      Ttrue;
}
// * * * * * * * * * * * * * * * * * * * * * * * * * * * * * * * * * * * * * //

dimensions      [0 0 0 1 0 0 0];

internalField   nonuniform List<scalar> 
3200
(
328.456
328.671
328.946
329.245
329.554
329.857
330.136
330.372
330.544
330.635
330.635
330.544
330.372
330.136
329.857
329.554
329.245
328.946
328.671
328.456
324.843
325.025
325.262
325.521
325.788
326.05
326.291
326.495
326.644
326.722
326.722
326.644
326.495
326.291
326.05
325.788
325.521
325.262
325.025
324.843
321.153
321.304
321.504
321.723
321.948
322.169
322.373
322.545
322.671
322.737
322.737
322.671
322.545
322.373
322.169
321.948
321.723
321.504
321.304
321.153
317.398
317.52
317.683
317.862
318.046
318.227
318.393
318.534
318.636
318.69
318.69
318.636
318.534
318.393
318.227
318.046
317.862
317.683
317.52
317.398
313.591
313.684
313.81
313.949
314.093
314.233
314.363
314.472
314.551
314.593
314.593
314.551
314.472
314.363
314.233
314.093
313.949
313.81
313.684
313.591
309.742
309.808
309.898
309.997
310.1
310.2
310.292
310.37
310.427
310.457
310.457
310.427
310.37
310.292
310.2
310.1
309.997
309.898
309.808
309.742
305.864
305.903
305.957
306.017
306.078
306.138
306.194
306.24
306.274
306.292
306.292
306.274
306.24
306.194
306.138
306.078
306.017
305.957
305.903
305.864
301.968
301.981
301.999
302.019
302.039
302.06
302.078
302.094
302.105
302.111
302.111
302.105
302.094
302.078
302.06
302.039
302.019
301.999
301.981
301.968
328.569
328.783
329.055
329.352
329.657
329.956
330.233
330.466
330.635
330.725
330.725
330.635
330.466
330.233
329.956
329.657
329.352
329.055
328.783
328.569
324.941
325.122
325.357
325.614
325.878
326.137
326.376
326.577
326.724
326.801
326.801
326.724
326.577
326.376
326.137
325.878
325.614
325.357
325.122
324.941
321.237
321.387
321.585
321.802
322.025
322.244
322.446
322.615
322.739
322.804
322.804
322.739
322.615
322.446
322.244
322.025
321.802
321.585
321.387
321.237
317.467
317.588
317.75
317.927
318.109
318.288
318.453
318.592
318.692
318.746
318.746
318.692
318.592
318.453
318.288
318.109
317.927
317.75
317.588
317.467
313.645
313.737
313.863
314
314.142
314.281
314.409
314.517
314.595
314.636
314.636
314.595
314.517
314.409
314.281
314.142
314
313.863
313.737
313.645
309.781
309.846
309.935
310.034
310.135
310.234
310.326
310.403
310.458
310.488
310.488
310.458
310.403
310.326
310.234
310.135
310.034
309.935
309.846
309.781
305.887
305.926
305.98
306.039
306.099
306.159
306.214
306.26
306.293
306.311
306.311
306.293
306.26
306.214
306.159
306.099
306.039
305.98
305.926
305.887
301.975
301.988
302.006
302.026
302.047
302.066
302.085
302.1
302.112
302.117
302.117
302.112
302.1
302.085
302.066
302.047
302.026
302.006
301.988
301.975
328.796
329.006
329.274
329.565
329.864
330.157
330.427
330.654
330.819
330.906
330.906
330.819
330.654
330.427
330.157
329.864
329.565
329.274
329.006
328.796
325.139
325.317
325.548
325.8
326.059
326.312
326.546
326.742
326.885
326.96
326.96
326.885
326.742
326.546
326.312
326.059
325.8
325.548
325.317
325.139
321.405
321.553
321.748
321.96
322.179
322.393
322.59
322.756
322.877
322.94
322.94
322.877
322.756
322.59
322.393
322.179
321.96
321.748
321.553
321.405
317.606
317.725
317.883
318.057
318.236
318.411
318.572
318.708
318.806
318.858
318.858
318.806
318.708
318.572
318.411
318.236
318.057
317.883
317.725
317.606
313.753
313.844
313.967
314.102
314.241
314.377
314.502
314.608
314.684
314.724
314.724
314.684
314.608
314.502
314.377
314.241
314.102
313.967
313.844
313.753
309.858
309.923
310.01
310.107
310.206
310.303
310.393
310.468
310.522
310.551
310.551
310.522
310.468
310.393
310.303
310.206
310.107
310.01
309.923
309.858
305.934
305.972
306.025
306.083
306.142
306.201
306.254
306.299
306.332
306.349
306.349
306.332
306.299
306.254
306.201
306.142
306.083
306.025
305.972
305.934
301.991
302.004
302.022
302.041
302.061
302.08
302.098
302.113
302.124
302.13
302.13
302.124
302.113
302.098
302.08
302.061
302.041
302.022
302.004
301.991
329.136
329.341
329.602
329.885
330.176
330.459
330.72
330.939
331.098
331.182
331.182
331.098
330.939
330.72
330.459
330.176
329.885
329.602
329.341
329.136
325.436
325.61
325.835
326.08
326.332
326.577
326.802
326.992
327.129
327.202
327.202
327.129
326.992
326.802
326.577
326.332
326.08
325.835
325.61
325.436
321.658
321.803
321.992
322.199
322.412
322.619
322.809
322.969
323.085
323.146
323.146
323.085
322.969
322.809
322.619
322.412
322.199
321.992
321.803
321.658
317.814
317.93
318.085
318.254
318.428
318.597
318.753
318.883
318.978
319.028
319.028
318.978
318.883
318.753
318.597
318.428
318.254
318.085
317.93
317.814
313.916
314.005
314.125
314.256
314.391
314.523
314.644
314.745
314.819
314.857
314.857
314.819
314.745
314.644
314.523
314.391
314.256
314.125
314.005
313.916
309.975
310.038
310.123
310.217
310.314
310.408
310.494
310.566
310.619
310.646
310.646
310.619
310.566
310.494
310.408
310.314
310.217
310.123
310.038
309.975
306.004
306.041
306.093
306.149
306.207
306.263
306.315
306.359
306.39
306.407
306.407
306.39
306.359
306.315
306.263
306.207
306.149
306.093
306.041
306.004
302.015
302.027
302.044
302.063
302.083
302.102
302.119
302.133
302.144
302.15
302.15
302.144
302.133
302.119
302.102
302.083
302.063
302.044
302.027
302.015
329.591
329.79
330.042
330.315
330.594
330.866
331.115
331.324
331.475
331.555
331.555
331.475
331.324
331.115
330.866
330.594
330.315
330.042
329.79
329.591
325.833
326.002
326.22
326.456
326.698
326.933
327.148
327.329
327.46
327.528
327.528
327.46
327.329
327.148
326.933
326.698
326.456
326.22
326.002
325.833
321.996
322.136
322.32
322.519
322.724
322.922
323.104
323.257
323.367
323.425
323.425
323.367
323.257
323.104
322.922
322.724
322.519
322.32
322.136
321.996
318.092
318.205
318.354
318.517
318.684
318.847
318.996
319.12
319.21
319.258
319.258
319.21
319.12
318.996
318.847
318.684
318.517
318.354
318.205
318.092
314.133
314.219
314.335
314.462
314.592
314.718
314.834
314.93
315
315.037
315.037
315
314.93
314.834
314.718
314.592
314.462
314.335
314.219
314.133
310.13
310.192
310.274
310.365
310.458
310.548
310.63
310.699
310.749
310.776
310.776
310.749
310.699
310.63
310.548
310.458
310.365
310.274
310.192
310.13
306.097
306.134
306.183
306.238
306.294
306.348
306.397
306.439
306.469
306.484
306.484
306.469
306.439
306.397
306.348
306.294
306.238
306.183
306.134
306.097
302.046
302.058
302.075
302.093
302.112
302.13
302.146
302.16
302.17
302.176
302.176
302.17
302.16
302.146
302.13
302.112
302.093
302.075
302.058
302.046
330.161
330.352
330.594
330.856
331.122
331.38
331.615
331.812
331.955
332.03
332.03
331.955
331.812
331.615
331.38
331.122
330.856
330.594
330.352
330.161
326.331
326.493
326.702
326.928
327.158
327.382
327.586
327.756
327.879
327.944
327.944
327.879
327.756
327.586
327.382
327.158
326.928
326.702
326.493
326.331
322.42
322.555
322.731
322.922
323.117
323.305
323.478
323.621
323.725
323.78
323.78
323.725
323.621
323.478
323.305
323.117
322.922
322.731
322.555
322.42
318.441
318.549
318.693
318.849
319.008
319.162
319.303
319.421
319.505
319.55
319.55
319.505
319.421
319.303
319.162
319.008
318.849
318.693
318.549
318.441
314.405
314.488
314.599
314.721
314.845
314.965
315.074
315.165
315.231
315.266
315.266
315.231
315.165
315.074
314.965
314.845
314.721
314.599
314.488
314.405
310.326
310.384
310.464
310.55
310.639
310.725
310.803
310.868
310.915
310.94
310.94
310.915
310.868
310.803
310.725
310.639
310.55
310.464
310.384
310.326
306.215
306.25
306.298
306.35
306.403
306.454
306.501
306.54
306.568
306.583
306.583
306.568
306.54
306.501
306.454
306.403
306.35
306.298
306.25
306.215
302.085
302.097
302.113
302.131
302.148
302.166
302.181
302.194
302.204
302.209
302.209
302.204
302.194
302.181
302.166
302.148
302.131
302.113
302.097
302.085
330.847
331.03
331.261
331.509
331.76
332.003
332.224
332.408
332.541
332.61
332.61
332.541
332.408
332.224
332.003
331.76
331.509
331.261
331.03
330.847
326.93
327.085
327.284
327.499
327.716
327.927
328.118
328.277
328.392
328.452
328.452
328.392
328.277
328.118
327.927
327.716
327.499
327.284
327.085
326.93
322.93
323.059
323.227
323.408
323.592
323.77
323.931
324.066
324.163
324.214
324.214
324.163
324.066
323.931
323.77
323.592
323.408
323.227
323.059
322.93
318.86
318.964
319.101
319.249
319.399
319.545
319.677
319.787
319.866
319.907
319.907
319.866
319.787
319.677
319.545
319.399
319.249
319.101
318.964
318.86
314.733
314.812
314.918
315.034
315.151
315.264
315.366
315.452
315.513
315.546
315.546
315.513
315.452
315.366
315.264
315.151
315.034
314.918
314.812
314.733
310.561
310.617
310.692
310.775
310.858
310.939
311.012
311.073
311.117
311.14
311.14
311.117
311.073
311.012
310.939
310.858
310.775
310.692
310.617
310.561
306.356
306.39
306.435
306.485
306.535
306.583
306.627
306.664
306.69
306.704
306.704
306.69
306.664
306.627
306.583
306.535
306.485
306.435
306.39
306.356
302.133
302.144
302.159
302.176
302.193
302.209
302.224
302.236
302.245
302.249
302.249
302.245
302.236
302.224
302.209
302.193
302.176
302.159
302.144
302.133
331.65
331.824
332.042
332.276
332.512
332.739
332.944
333.115
333.237
333.302
333.302
333.237
333.115
332.944
332.739
332.512
332.276
332.042
331.824
331.65
327.631
327.779
327.967
328.169
328.374
328.57
328.748
328.895
329.001
329.057
329.057
329.001
328.895
328.748
328.57
328.374
328.169
327.967
327.779
327.631
323.527
323.65
323.808
323.979
324.152
324.318
324.468
324.593
324.683
324.73
324.73
324.683
324.593
324.468
324.318
324.152
323.979
323.808
323.65
323.527
319.351
319.45
319.579
319.719
319.86
319.996
320.119
320.221
320.294
320.332
320.332
320.294
320.221
320.119
319.996
319.86
319.719
319.579
319.45
319.351
315.116
315.192
315.292
315.401
315.511
315.616
315.712
315.791
315.848
315.878
315.878
315.848
315.791
315.712
315.616
315.511
315.401
315.292
315.192
315.116
310.836
310.889
310.961
311.038
311.117
311.192
311.26
311.317
311.357
311.379
311.379
311.357
311.317
311.26
311.192
311.117
311.038
310.961
310.889
310.836
306.522
306.554
306.597
306.643
306.69
306.736
306.777
306.811
306.835
306.848
306.848
306.835
306.811
306.777
306.736
306.69
306.643
306.597
306.554
306.522
302.188
302.199
302.213
302.229
302.245
302.26
302.274
302.285
302.293
302.298
302.298
302.293
302.285
302.274
302.26
302.245
302.229
302.213
302.199
302.188
332.571
332.736
332.941
333.16
333.38
333.59
333.78
333.936
334.049
334.108
334.108
334.049
333.936
333.78
333.59
333.38
333.16
332.941
332.736
332.571
328.436
328.575
328.752
328.941
329.132
329.314
329.478
329.614
329.711
329.762
329.762
329.711
329.614
329.478
329.314
329.132
328.941
328.752
328.575
328.436
324.212
324.328
324.477
324.637
324.798
324.952
325.091
325.206
325.288
325.331
325.331
325.288
325.206
325.091
324.952
324.798
324.637
324.477
324.328
324.212
319.915
320.008
320.129
320.26
320.392
320.518
320.632
320.725
320.792
320.828
320.828
320.792
320.725
320.632
320.518
320.392
320.26
320.129
320.008
319.915
315.556
315.628
315.722
315.824
315.926
316.024
316.113
316.186
316.238
316.265
316.265
316.238
316.186
316.113
316.024
315.926
315.824
315.722
315.628
315.556
311.151
311.201
311.269
311.341
311.415
311.485
311.548
311.6
311.637
311.657
311.657
311.637
311.6
311.548
311.485
311.415
311.341
311.269
311.201
311.151
306.712
306.742
306.782
306.826
306.87
306.912
306.95
306.981
307.003
307.015
307.015
307.003
306.981
306.95
306.912
306.87
306.826
306.782
306.742
306.712
302.252
302.262
302.276
302.29
302.305
302.319
302.332
302.342
302.35
302.354
302.354
302.35
302.342
302.332
302.319
302.305
302.29
302.276
302.262
302.252
333.612
333.766
333.958
334.162
334.366
334.559
334.733
334.876
334.979
335.032
335.032
334.979
334.876
334.733
334.559
334.366
334.162
333.958
333.766
333.612
329.344
329.475
329.641
329.817
329.993
330.161
330.312
330.436
330.524
330.57
330.57
330.524
330.436
330.312
330.161
329.993
329.817
329.641
329.475
329.344
324.986
325.094
325.234
325.383
325.532
325.674
325.801
325.906
325.981
326.02
326.02
325.981
325.906
325.801
325.674
325.532
325.383
325.234
325.094
324.986
320.551
320.638
320.752
320.874
320.996
321.112
321.216
321.302
321.363
321.395
321.395
321.363
321.302
321.216
321.112
320.996
320.874
320.752
320.638
320.551
316.053
316.12
316.209
316.304
316.398
316.489
316.57
316.636
316.684
316.709
316.709
316.684
316.636
316.57
316.489
316.398
316.304
316.209
316.12
316.053
311.507
311.555
311.618
311.685
311.753
311.818
311.876
311.923
311.957
311.975
311.975
311.957
311.923
311.876
311.818
311.753
311.685
311.618
311.555
311.507
306.926
306.954
306.992
307.033
307.074
307.112
307.147
307.176
307.196
307.207
307.207
307.196
307.176
307.147
307.112
307.074
307.033
306.992
306.954
306.926
302.324
302.334
302.346
302.36
302.373
302.386
302.398
302.408
302.415
302.418
302.418
302.415
302.408
302.398
302.386
302.373
302.36
302.346
302.334
302.324
334.772
334.917
335.096
335.284
335.472
335.649
335.808
335.938
336.03
336.079
336.079
336.03
335.938
335.808
335.649
335.472
335.284
335.096
334.917
334.772
330.357
330.479
330.634
330.797
330.959
331.113
331.251
331.363
331.444
331.485
331.485
331.444
331.363
331.251
331.113
330.959
330.797
330.634
330.479
330.357
325.848
325.95
326.08
326.218
326.355
326.486
326.602
326.697
326.765
326.8
326.8
326.765
326.697
326.602
326.486
326.355
326.218
326.08
325.95
325.848
321.26
321.342
321.448
321.561
321.673
321.78
321.875
321.953
322.008
322.037
322.037
322.008
321.953
321.875
321.78
321.673
321.561
321.448
321.342
321.26
316.608
316.67
316.753
316.84
316.928
317.011
317.085
317.145
317.188
317.211
317.211
317.188
317.145
317.085
317.011
316.928
316.84
316.753
316.67
316.608
311.904
311.949
312.007
312.07
312.133
312.192
312.245
312.288
312.319
312.335
312.335
312.319
312.288
312.245
312.192
312.133
312.07
312.007
311.949
311.904
307.165
307.192
307.227
307.265
307.302
307.338
307.369
307.395
307.414
307.423
307.423
307.414
307.395
307.369
307.338
307.302
307.265
307.227
307.192
307.165
302.404
302.413
302.425
302.438
302.45
302.462
302.473
302.481
302.488
302.491
302.491
302.488
302.481
302.473
302.462
302.45
302.438
302.425
302.413
302.404
336.053
336.188
336.354
336.528
336.699
336.861
337.005
337.123
337.206
337.25
337.25
337.206
337.123
337.005
336.861
336.699
336.528
336.354
336.188
336.053
331.475
331.589
331.732
331.883
332.032
332.172
332.297
332.399
332.471
332.509
332.509
332.471
332.399
332.297
332.172
332.032
331.883
331.732
331.589
331.475
326.8
326.895
327.016
327.143
327.269
327.388
327.493
327.579
327.641
327.672
327.672
327.641
327.579
327.493
327.388
327.269
327.143
327.016
326.895
326.8
322.044
322.119
322.218
322.322
322.425
322.522
322.609
322.679
322.729
322.755
322.755
322.729
322.679
322.609
322.522
322.425
322.322
322.218
322.119
322.044
317.219
317.278
317.354
317.435
317.515
317.591
317.658
317.713
317.752
317.772
317.772
317.752
317.713
317.658
317.591
317.515
317.435
317.354
317.278
317.219
312.343
312.384
312.439
312.496
312.554
312.608
312.656
312.695
312.723
312.737
312.737
312.723
312.695
312.656
312.608
312.554
312.496
312.439
312.384
312.343
307.429
307.454
307.486
307.521
307.556
307.588
307.617
307.64
307.657
307.666
307.666
307.657
307.64
307.617
307.588
307.556
307.521
307.486
307.454
307.429
302.493
302.501
302.512
302.524
302.535
302.546
302.556
302.564
302.569
302.572
302.572
302.569
302.564
302.556
302.546
302.535
302.524
302.512
302.501
302.493
337.455
337.58
337.733
337.893
338.05
338.197
338.327
338.433
338.508
338.547
338.547
338.508
338.433
338.327
338.197
338.05
337.893
337.733
337.58
337.455
332.699
332.805
332.937
333.075
333.211
333.339
333.452
333.544
333.608
333.642
333.642
333.608
333.544
333.452
333.339
333.211
333.075
332.937
332.805
332.699
327.842
327.93
328.041
328.158
328.274
328.382
328.477
328.555
328.61
328.638
328.638
328.61
328.555
328.477
328.382
328.274
328.158
328.041
327.93
327.842
322.9
322.971
323.062
323.157
323.252
323.34
323.418
323.482
323.527
323.55
323.55
323.527
323.482
323.418
323.34
323.252
323.157
323.062
322.971
322.9
317.889
317.943
318.013
318.088
318.161
318.23
318.29
318.34
318.375
318.393
318.393
318.375
318.34
318.29
318.23
318.161
318.088
318.013
317.943
317.889
312.823
312.861
312.911
312.964
313.017
313.066
313.109
313.145
313.17
313.182
313.182
313.17
313.145
313.109
313.066
313.017
312.964
312.911
312.861
312.823
307.718
307.741
307.771
307.803
307.834
307.864
307.89
307.911
307.926
307.934
307.934
307.926
307.911
307.89
307.864
307.834
307.803
307.771
307.741
307.718
302.59
302.597
302.607
302.618
302.629
302.639
302.647
302.654
302.659
302.662
302.662
302.659
302.654
302.647
302.639
302.629
302.618
302.607
302.597
302.59
338.977
339.093
339.234
339.38
339.523
339.656
339.774
339.869
339.936
339.97
339.97
339.936
339.869
339.774
339.656
339.523
339.38
339.234
339.093
338.977
334.028
334.125
334.247
334.374
334.498
334.613
334.715
334.797
334.855
334.885
334.885
334.855
334.797
334.715
334.613
334.498
334.374
334.247
334.125
334.028
328.973
329.054
329.157
329.264
329.369
329.467
329.553
329.622
329.672
329.697
329.697
329.672
329.622
329.553
329.467
329.369
329.264
329.157
329.054
328.973
323.83
323.895
323.979
324.067
324.153
324.233
324.303
324.36
324.4
324.421
324.421
324.4
324.36
324.303
324.233
324.153
324.067
323.979
323.895
323.83
318.615
318.665
318.73
318.798
318.865
318.927
318.982
319.026
319.058
319.074
319.074
319.058
319.026
318.982
318.927
318.865
318.798
318.73
318.665
318.615
313.343
313.378
313.425
313.473
313.521
313.566
313.605
313.637
313.659
313.671
313.671
313.659
313.637
313.605
313.566
313.521
313.473
313.425
313.378
313.343
308.031
308.052
308.08
308.109
308.138
308.165
308.188
308.207
308.221
308.228
308.228
308.221
308.207
308.188
308.165
308.138
308.109
308.08
308.052
308.031
302.695
302.702
302.711
302.721
302.731
302.74
302.747
302.754
302.758
302.761
302.761
302.758
302.754
302.747
302.74
302.731
302.721
302.711
302.702
302.695
340.616
340.723
340.852
340.986
341.116
341.236
341.342
341.427
341.487
341.518
341.518
341.487
341.427
341.342
341.236
341.116
340.986
340.852
340.723
340.616
335.458
335.548
335.659
335.775
335.888
335.992
336.084
336.158
336.21
336.236
336.236
336.21
336.158
336.084
335.992
335.888
335.775
335.659
335.548
335.458
330.19
330.265
330.359
330.457
330.552
330.641
330.718
330.781
330.825
330.847
330.847
330.825
330.781
330.718
330.641
330.552
330.457
330.359
330.265
330.19
324.831
324.891
324.968
325.048
325.126
325.198
325.261
325.313
325.349
325.367
325.367
325.349
325.313
325.261
325.198
325.126
325.048
324.968
324.891
324.831
319.396
319.442
319.502
319.564
319.625
319.681
319.73
319.77
319.798
319.813
319.813
319.798
319.77
319.73
319.681
319.625
319.564
319.502
319.442
319.396
313.903
313.935
313.978
314.022
314.066
314.106
314.141
314.17
314.19
314.2
314.2
314.19
314.17
314.141
314.106
314.066
314.022
313.978
313.935
313.903
308.368
308.387
308.413
308.44
308.466
308.49
308.511
308.528
308.54
308.546
308.546
308.54
308.528
308.511
308.49
308.466
308.44
308.413
308.387
308.368
302.808
302.814
302.823
302.832
302.841
302.849
302.856
302.862
302.866
302.868
302.868
302.866
302.862
302.856
302.849
302.841
302.832
302.823
302.814
302.808
342.364
342.462
342.581
342.703
342.821
342.929
343.024
343.1
343.154
343.181
343.181
343.154
343.1
343.024
342.929
342.821
342.703
342.581
342.462
342.364
336.981
337.064
337.167
337.272
337.374
337.469
337.551
337.617
337.663
337.687
337.687
337.663
337.617
337.551
337.469
337.374
337.272
337.167
337.064
336.981
331.486
331.554
331.641
331.73
331.817
331.896
331.966
332.022
332.061
332.081
332.081
332.061
332.022
331.966
331.896
331.817
331.73
331.641
331.554
331.486
325.895
325.95
326.021
326.094
326.165
326.23
326.287
326.333
326.365
326.381
326.381
326.365
326.333
326.287
326.23
326.165
326.094
326.021
325.95
325.895
320.227
320.269
320.324
320.381
320.436
320.487
320.531
320.567
320.592
320.604
320.604
320.592
320.567
320.531
320.487
320.436
320.381
320.324
320.269
320.227
314.498
314.528
314.567
314.607
314.647
314.683
314.715
314.74
314.758
314.767
314.767
314.758
314.74
314.715
314.683
314.647
314.607
314.567
314.528
314.498
308.726
308.744
308.767
308.791
308.815
308.837
308.856
308.871
308.882
308.888
308.888
308.882
308.871
308.856
308.837
308.815
308.791
308.767
308.744
308.726
302.928
302.934
302.942
302.95
302.958
302.965
302.972
302.977
302.98
302.982
302.982
302.98
302.977
302.972
302.965
302.958
302.95
302.942
302.934
302.928
344.201
344.291
344.399
344.51
344.617
344.715
344.8
344.868
344.916
344.941
344.941
344.916
344.868
344.8
344.715
344.617
344.51
344.399
344.291
344.201
338.579
338.655
338.749
338.845
338.937
339.023
339.096
339.156
339.197
339.218
339.218
339.197
339.156
339.096
339.023
338.937
338.845
338.749
338.655
338.579
332.842
332.905
332.984
333.065
333.144
333.216
333.278
333.328
333.363
333.382
333.382
333.363
333.328
333.278
333.216
333.144
333.065
332.984
332.905
332.842
327.007
327.058
327.123
327.189
327.253
327.312
327.364
327.405
327.433
327.448
327.448
327.433
327.405
327.364
327.312
327.253
327.189
327.123
327.058
327.007
321.094
321.133
321.183
321.234
321.284
321.33
321.37
321.402
321.425
321.436
321.436
321.425
321.402
321.37
321.33
321.284
321.234
321.183
321.133
321.094
315.118
315.146
315.181
315.218
315.254
315.287
315.316
315.338
315.354
315.363
315.363
315.354
315.338
315.316
315.287
315.254
315.218
315.181
315.146
315.118
309.099
309.115
309.137
309.159
309.18
309.2
309.217
309.231
309.241
309.245
309.245
309.241
309.231
309.217
309.2
309.18
309.159
309.137
309.115
309.099
303.053
303.058
303.066
303.073
303.08
303.087
303.093
303.097
303.1
303.102
303.102
303.1
303.097
303.093
303.087
303.08
303.073
303.066
303.058
303.053
346.073
346.156
346.256
346.357
346.454
346.543
346.619
346.681
346.723
346.745
346.745
346.723
346.681
346.619
346.543
346.454
346.357
346.256
346.156
346.073
340.201
340.271
340.357
340.444
340.529
340.606
340.672
340.725
340.762
340.781
340.781
340.762
340.725
340.672
340.606
340.529
340.444
340.357
340.271
340.201
334.213
334.271
334.343
334.418
334.489
334.554
334.611
334.656
334.687
334.703
334.703
334.687
334.656
334.611
334.554
334.489
334.418
334.343
334.271
334.213
328.128
328.175
328.234
328.295
328.353
328.406
328.453
328.49
328.515
328.529
328.529
328.515
328.49
328.453
328.406
328.353
328.295
328.234
328.175
328.128
321.964
322
322.046
322.094
322.139
322.181
322.217
322.245
322.265
322.276
322.276
322.265
322.245
322.217
322.181
322.139
322.094
322.046
322
321.964
315.74
315.765
315.798
315.832
315.864
315.894
315.92
315.94
315.955
315.962
315.962
315.955
315.94
315.92
315.894
315.864
315.832
315.798
315.765
315.74
309.472
309.487
309.507
309.527
309.547
309.565
309.58
309.592
309.601
309.605
309.605
309.601
309.592
309.58
309.565
309.547
309.527
309.507
309.487
309.472
303.178
303.183
303.19
303.197
303.203
303.209
303.214
303.218
303.221
303.223
303.223
303.221
303.218
303.214
303.209
303.203
303.197
303.19
303.183
303.178
347.859
347.935
348.027
348.12
348.209
348.289
348.359
348.414
348.453
348.473
348.473
348.453
348.414
348.359
348.289
348.209
348.12
348.027
347.935
347.859
341.728
341.792
341.872
341.953
342.03
342.1
342.16
342.209
342.242
342.259
342.259
342.242
342.209
342.16
342.1
342.03
341.953
341.872
341.792
341.728
335.49
335.543
335.61
335.679
335.744
335.804
335.855
335.896
335.925
335.939
335.939
335.925
335.896
335.855
335.804
335.744
335.679
335.61
335.543
335.49
329.162
329.205
329.26
329.316
329.37
329.419
329.461
329.494
329.518
329.53
329.53
329.518
329.494
329.461
329.419
329.37
329.316
329.26
329.205
329.162
322.762
322.795
322.838
322.882
322.923
322.962
322.994
323.021
323.039
323.048
323.048
323.039
323.021
322.994
322.962
322.923
322.882
322.838
322.795
322.762
316.306
316.33
316.36
316.392
316.421
316.449
316.472
316.491
316.504
316.511
316.511
316.504
316.491
316.472
316.449
316.421
316.392
316.36
316.33
316.306
309.811
309.825
309.843
309.862
309.88
309.896
309.91
309.922
309.929
309.933
309.933
309.929
309.922
309.91
309.896
309.88
309.862
309.843
309.825
309.811
303.291
303.296
303.302
303.308
303.314
303.32
303.325
303.329
303.331
303.332
303.332
303.331
303.329
303.325
303.32
303.314
303.308
303.302
303.296
303.291
349.24
349.312
349.398
349.485
349.568
349.643
349.708
349.76
349.795
349.814
349.814
349.795
349.76
349.708
349.643
349.568
349.485
349.398
349.312
349.24
342.865
342.926
343.001
343.077
343.149
343.215
343.272
343.316
343.348
343.364
343.364
343.348
343.316
343.272
343.215
343.149
343.077
343.001
342.926
342.865
336.412
336.463
336.526
336.591
336.652
336.708
336.756
336.795
336.821
336.835
336.835
336.821
336.795
336.756
336.708
336.652
336.591
336.526
336.463
336.412
329.891
329.932
329.984
330.037
330.088
330.134
330.173
330.205
330.227
330.238
330.238
330.227
330.205
330.173
330.134
330.088
330.037
329.984
329.932
329.891
323.315
323.346
323.386
323.428
323.467
323.503
323.534
323.559
323.576
323.584
323.584
323.576
323.559
323.534
323.503
323.467
323.428
323.386
323.346
323.315
316.693
316.716
316.745
316.774
316.802
316.828
316.85
316.868
316.88
316.886
316.886
316.88
316.868
316.85
316.828
316.802
316.774
316.745
316.716
316.693
310.04
310.054
310.071
310.089
310.106
310.121
310.134
310.145
310.152
310.156
310.156
310.152
310.145
310.134
310.121
310.106
310.089
310.071
310.054
310.04
303.368
303.372
303.378
303.384
303.39
303.395
303.399
303.403
303.405
303.407
303.407
303.405
303.403
303.399
303.395
303.39
303.384
303.378
303.372
303.368
)
;

boundaryField
{
    hotSide
    {
        type            fixedGradient;
        gradient        nonuniform List<scalar> 
400
(
281.994
283.114
285.357
288.728
293.232
298.878
305.674
313.632
322.76
333.07
344.571
357.273
371.185
386.313
402.666
420.249
439.066
459.123
480.421
502.963
284.826
285.924
288.123
291.43
295.852
301.4
308.086
315.924
324.927
335.107
346.477
359.049
372.834
387.84
404.075
421.546
440.259
460.217
481.424
503.882
287.891
288.962
291.109
294.339
298.664
304.098
310.656
318.355
327.212
337.244
348.466
360.892
374.535
389.405
405.511
422.861
441.461
461.314
482.424
504.793
291.138
292.178
294.264
297.406
301.619
306.921
313.332
320.874
329.568
339.435
350.493
362.759
376.248
390.972
406.941
424.163
442.644
462.388
483.398
505.676
294.476
295.481
297.499
300.542
304.63
309.786
316.036
323.407
331.924
341.613
352.496
364.593
377.921
392.493
408.321
425.412
443.773
463.408
484.319
506.507
297.767
298.734
300.679
303.617
307.572
312.575
318.656
325.848
334.182
343.689
354.395
366.322
379.489
393.911
409.6
426.564
444.809
464.339
485.155
507.258
300.821
301.751
303.623
306.456
310.281
315.132
321.047
328.066
336.224
345.557
356.094
367.861
380.877
395.16
410.721
427.569
445.709
465.144
485.875
507.902
303.413
304.31
306.115
308.855
312.562
317.279
323.048
329.913
337.918
347.099
357.491
369.12
382.008
396.173
411.627
428.377
446.43
465.787
486.448
508.414
305.311
306.181
307.936
310.604
314.222
318.836
324.495
331.246
339.135
348.204
358.487
370.015
382.81
396.889
412.264
428.945
446.935
466.235
486.847
508.769
306.316
307.172
308.9
311.529
315.099
319.657
325.256
331.945
339.772
348.781
359.007
370.481
383.226
397.26
412.594
429.238
447.195
466.466
487.052
508.951
306.316
307.172
308.9
311.529
315.099
319.657
325.256
331.945
339.772
348.781
359.007
370.481
383.226
397.26
412.594
429.238
447.195
466.466
487.052
508.951
305.311
306.181
307.936
310.604
314.222
318.836
324.495
331.246
339.135
348.204
358.487
370.015
382.81
396.889
412.264
428.945
446.935
466.235
486.847
508.769
303.413
304.31
306.115
308.855
312.562
317.279
323.048
329.913
337.918
347.099
357.491
369.12
382.008
396.173
411.627
428.377
446.43
465.787
486.448
508.414
300.821
301.751
303.623
306.456
310.281
315.132
321.047
328.066
336.224
345.557
356.094
367.861
380.877
395.16
410.721
427.569
445.709
465.144
485.875
507.902
297.767
298.734
300.679
303.617
307.572
312.575
318.656
325.848
334.182
343.689
354.395
366.322
379.489
393.911
409.6
426.564
444.809
464.339
485.155
507.258
294.476
295.481
297.499
300.542
304.63
309.786
316.036
323.407
331.924
341.613
352.496
364.593
377.921
392.493
408.321
425.412
443.773
463.408
484.319
506.507
291.138
292.178
294.264
297.406
301.619
306.921
313.332
320.874
329.568
339.435
350.493
362.759
376.248
390.972
406.941
424.163
442.644
462.388
483.398
505.676
287.891
288.962
291.109
294.339
298.664
304.098
310.656
318.355
327.212
337.244
348.466
360.892
374.535
389.405
405.511
422.861
441.461
461.314
482.424
504.793
284.826
285.924
288.123
291.43
295.852
301.4
308.086
315.924
324.927
335.107
346.477
359.049
372.834
387.84
404.075
421.546
440.259
460.217
481.424
503.882
281.994
283.114
285.357
288.728
293.232
298.878
305.674
313.632
322.76
333.07
344.571
357.273
371.185
386.313
402.666
420.249
439.066
459.123
480.421
502.963
)
;
    }
    coldSide
    {
        type            mixed;
        refValue        uniform 300;
        refGradient     uniform 0;
        valueFraction   uniform 0.991591;
        source          uniform 0;
        value           nonuniform List<scalar> 
400
(
300.017
300.017
300.017
300.017
300.017
300.018
300.018
300.018
300.019
300.02
300.02
300.021
300.022
300.023
300.024
300.025
300.026
300.027
300.028
300.028
300.017
300.017
300.017
300.017
300.017
300.018
300.018
300.018
300.019
300.02
300.02
300.021
300.022
300.023
300.024
300.025
300.026
300.027
300.028
300.028
300.017