/*--------------------------------*- C++ -*----------------------------------*\
| =========                 |                                                 |
| \\      /  F ield         | OpenFOAM: The Open Source CFD Toolbox           |
|  \\    /   O peration     | Version:  2212                                  |
|   \\  /    A nd           | Website:  www.openfoam.com                      |
|    \\/     M anipulation  |                                                 |
\*---------------------------------------------------------------------------*/
FoamFile
{
    version     2.0;
    format      ascii;
    arch        "LSB;label=32;scalar=64";
    class       volScalarField;
    location    "0";
    object      T;
}
// * * * * * * * * * * * * * * * * * * * * * * * * * * * * * * * * * * * * * //

dimensions      [0 0 0 1 0 0 0];

internalField   nonuniform List<scalar> 
3200
(
340.949
341.965
342.81
343.533
344.406
345.119
345.383
345.691
345.771
346.108
345.904
345.827
345.266
344.943
344.075
343.494
342.582
341.491
340.615
339.804
335.571
336.429
337.182
337.856
338.546
339.209
339.372
339.735
339.766
340.05
339.864
339.836
339.308
339.041
338.327
337.784
336.974
336.005
335.234
334.613
330.147
330.86
331.529
332.096
332.705
333.266
333.396
333.712
333.693
333.91
333.746
333.809
333.34
333.11
332.538
332.003
331.374
330.489
329.845
329.305
324.688
325.232
325.813
326.312
326.848
327.253
327.35
327.599
327.618
327.762
327.651
327.699
327.304
327.14
326.661
326.241
325.737
324.948
324.436
323.984
319.22
319.63
320.094
320.513
320.948
321.223
321.308
321.459
321.498
321.615
321.545
321.547
321.278
321.142
320.768
320.489
320.058
319.444
319.008
318.699
313.731
314.006
314.361
314.665
315.006
315.199
315.251
315.276
315.346
315.494
315.369
315.368
315.226
315.14
314.861
314.671
314.315
313.958
313.611
313.355
308.238
308.4
308.66
308.831
309.02
309.168
309.191
309.154
309.211
309.3
309.206
309.198
309.152
309.087
308.921
308.834
308.611
308.405
308.186
308.032
302.767
302.811
302.9
302.962
303.024
303.102
303.089
303.056
303.109
303.131
303.071
303.079
303.068
303.038
302.978
302.975
302.89
302.824
302.758
302.689
341.727
342.691
343.542
344.262
345.237
345.843
346.348
346.608
346.536
346.848
346.73
346.678
346.193
345.735
345.062
344.487
343.478
342.379
341.193
340.547
336.216
337.063
337.756
338.373
339.222
339.757
340.172
340.476
340.401
340.64
340.512
340.527
340.081
339.689
339.07
338.563
337.715
336.749
335.739
335.238
330.694
331.403
331.936
332.467
333.185
333.633
334.007
334.266
334.231
334.421
334.328
334.303
334
333.615
333.086
332.656
331.963
331.093
330.259
329.875
325.156
325.746
326.108
326.596
327.167
327.497
327.826
328.045
328.029
328.2
328.129
328.094
327.874
327.502
327.115
326.738
326.195
325.431
324.793
324.496
319.581
320.085
320.276
320.715
321.127
321.362
321.673
321.815
321.825
321.952
321.925
321.895
321.736
321.43
321.142
320.868
320.39
319.799
319.282
319.059
313.988
314.35
314.46
314.812
315.115
315.282
315.509
315.625
315.599
315.7
315.659
315.654
315.575
315.375
315.114
314.948
314.616
314.149
313.769
313.64
308.394
308.589
308.695
308.917
309.095
309.184
309.31
309.414
309.373
309.454
309.428
309.401
309.36
309.258
309.084
309.006
308.79
308.489
308.256
308.221
302.82
302.865
302.906
303.004
303.048
303.093
303.142
303.167
303.146
303.177
303.15
303.151
303.133
303.112
303.05
303.037
302.955
302.86
302.775
302.767
342.556
343.771
344.733
345.425
346.183
346.878
347.489
347.516
347.817
347.831
347.947
347.806
347.227
346.543
346.047
345.508
344.332
343.269
342.519
341.328
336.902
337.936
338.801
339.402
340.035
340.671
341.173
341.204
341.493
341.475
341.58
341.502
340.949
340.343
339.938
339.499
338.475
337.512
336.895
335.89
331.234
332.103
332.862
333.372
333.878
334.449
334.874
334.898
335.144
335.086
335.255
335.156
334.686
334.154
333.841
333.511
332.583
331.764
331.215
330.409
325.525
326.294
326.9
327.272
327.714
328.209
328.511
328.569
328.757
328.723
328.853
328.768
328.407
327.971
327.738
327.461
326.703
326.025
325.554
324.873
319.897
320.46
320.889
321.24
321.563
321.954
322.172
322.232
322.39
322.319
322.402
322.399
322.131
321.787
321.567
321.431
320.807
320.235
319.908
319.346
314.239
314.592
314.942
315.215
315.404
315.696
315.805
315.911
315.977
315.916
315.981
316.041
315.829
315.592
315.41
315.318
314.896
314.457
314.212
313.808
308.55
308.768
308.986
309.13
309.264
309.447
309.474
309.541
309.626
309.578
309.605
309.621
309.499
309.351
309.247
309.168
308.962
308.651
308.496
308.286
302.847
302.945
303.002
303.057
303.111
303.179
303.15
303.197
303.235
303.22
303.209
303.219
303.183
303.128
303.095
303.067
303.008
302.87
302.839
302.761
343.731
344.809
345.78
346.465
347.252
348.092
348.576
348.679
348.914
349.136
349.014
348.998
348.491
347.777
347.132
346.418
345.472
344.443
343.383
342.274
337.929
338.858
339.698
340.301
341.005
341.698
342.117
342.197
342.44
342.589
342.502
342.506
342.08
341.442
340.902
340.281
339.44
338.564
337.617
336.657
332.097
332.881
333.599
334.137
334.722
335.295
335.649
335.691
335.932
336.052
336.015
336.01
335.629
335.109
334.64
334.122
333.413
332.686
331.851
331.064
326.266
326.885
327.515
327.951
328.444
328.917
329.168
329.212
329.388
329.489
329.473
329.469
329.129
328.727
328.402
327.936
327.37
326.761
326.084
325.458
320.429
320.926
321.457
321.747
322.132
322.529
322.692
322.718
322.88
322.912
322.928
322.93
322.625
322.395
322.159
321.755
321.304
320.801
320.282
319.815
314.611
314.982
315.36
315.51
315.811
316.088
316.196
316.276
316.405
316.382
316.364
316.43
316.139
316.049
315.851
315.554
315.19
314.839
314.481
314.132
308.824
309.002
309.203
309.307
309.484
309.655
309.742
309.783
309.847
309.866
309.833
309.865
309.684
309.656
309.507
309.327
309.106
308.892
308.707
308.506
302.969
303.02
303.085
303.114
303.187
303.219
303.257
303.292
303.293
303.314
303.317
303.311
303.253
303.238
303.185
303.124
303.053
302.99
302.927
302.851
344.79
345.844
346.938
347.434
348.359
349.126
349.531
349.939
350.265
350.347
350.096
349.843
349.632
348.735
348.054
347.421
346.662
345.765
344.421
343.346
338.836
339.739
340.696
341.159
341.927
342.576
342.958
343.269
343.579
343.638
343.45
343.246
343.027
342.229
341.678
341.124
340.504
339.749
338.51
337.598
332.903
333.647
334.482
334.843
335.506
336.025
336.386
336.651
336.882
336.935
336.803
336.613
336.416
335.741
335.267
334.789
334.303
333.651
332.629
331.854
326.961
327.53
328.274
328.532
329.042
329.482
329.798
329.981
330.149
330.22
330.112
329.944
329.771
329.257
328.923
328.489
328.1
327.538
326.677
326.114
321.003
321.46
322.035
322.219
322.584
322.944
323.202
323.311
323.431
323.498
323.412
323.265
323.135
322.762
322.535
322.171
321.884
321.407
320.749
320.36
315.04
315.355
315.804
315.894
316.158
316.396
316.587
316.636
316.706
316.773
316.725
316.624
316.492
316.277
316.128
315.863
315.661
315.276
314.846
314.546
309.065
309.237
309.531
309.584
309.713
309.859
309.944
310.005
310.025
310.032
310.002
309.946
309.926
309.765
309.677
309.529
309.413
309.177
308.93
308.719
303.052
303.075
303.207
303.204
303.249
303.291
303.322
303.361
303.371
303.354
303.35
303.323
303.321
303.261
303.251
303.174
303.149
303.071
302.998
302.926
346.054
346.649
348.006
348.745
349.502
350.342
350.933
351.093
351.238
351.262
351.128
350.9
350.48
349.813
349.279
348.461
347.534
346.612
345.19
344.298
339.97
340.445
341.621
342.239
342.946
343.663
344.175
344.286
344.406
344.479
344.326
344.114
343.795
343.164
342.706
342.032
341.243
340.432
339.199
338.456
333.882
334.274
335.253
335.763
336.374
336.954
337.41
337.509
337.579
337.689
337.52
337.342
337.108
336.535
336.15
335.59
334.976
334.254
333.171
332.608
327.744
328.099
328.897
329.295
329.794
330.255
330.639
330.782
330.763
330.845
330.71
330.53
330.384
329.879
329.603
329.098
328.659
328.047
327.188
326.7
321.603
321.897
322.536
322.786
323.205
323.517
323.869
324.017
323.895
323.999
323.891
323.742
323.618
323.208
323.008
322.693
322.34
321.85
321.173
320.774
315.458
315.66
316.182
316.288
316.525
316.8
317.077
317.167
317.018
317.169
317.078
316.938
316.866
316.547
316.469
316.279
315.998
315.651
315.127
314.835
309.3
309.42
309.755
309.836
309.869
310.099
310.255
310.332
310.217
310.33
310.23
310.196
310.119
309.91
309.905
309.755
309.633
309.399
309.117
308.888
303.136
303.178
303.261
303.312
303.3
303.397
303.428
303.449
303.415
303.475
303.4
303.405
303.399
303.303
303.324
303.266
303.27
303.151
303.081
302.982
346.839
347.764
348.845
349.699
350.601
351.242
351.856
352.142
352.182
352.223
352.245
351.969
351.506
350.908
350.068
349.498
348.507
347.408
346.054
345.196
340.632
341.411
342.324
343.036
343.87
344.453
344.928
345.218
345.283
345.269
345.258
345.038
344.684
344.154
343.402
342.926
342.053
341.113
339.889
339.176
334.426
335.042
335.844
336.45
337.163
337.639
338.004
338.256
338.325
338.342
338.298
338.123
337.843
337.352
336.707
336.298
335.593
334.807
333.749
333.192
328.203
328.696
329.36
329.83
330.415
330.824
331.106
331.308
331.389
331.398
331.316
331.233
330.958
330.542
330.042
329.673
329.143
328.506
327.586
327.197
321.975
322.349
322.871
323.18
323.666
324.025
324.207
324.35
324.44
324.403
324.347
324.284
324.049
323.7
323.381
323.086
322.709
322.209
321.466
321.195
315.749
315.991
316.381
316.513
316.908
317.194
317.293
317.415
317.453
317.444
317.417
317.283
317.167
316.906
316.724
316.527
316.26
315.871
315.36
315.119
309.503
309.642
309.858
309.927
310.152
310.295
310.375
310.44
310.442
310.445
310.488
310.37
310.298
310.14
310.07
309.967
309.785
309.558
309.219
309.073
303.194
303.264
303.314
303.322
303.393
303.439
303.474
303.5
303.493
303.487
303.536
303.46
303.444
303.388
303.384
303.361
303.283
303.205
303.077
303.037
347.807
348.631
349.788
350.636
351.647
352.208
352.658
352.929
353.18
353.277
353.251
352.776
352.389
351.811
351.068
350.446
349.291
348.172
346.909
345.854
341.505
342.167
343.179
343.912
344.775
345.249
345.668
345.836
346.099
346.218
346.18
345.718
345.438
344.92
344.319
343.754
342.71
341.803
340.675
339.808
335.207
335.679
336.55
337.153
337.877
338.268
338.666
338.794
339.054
339.157
339.08
338.71
338.475
338.034
337.552
337.045
336.146
335.392
334.42
333.743
328.866
329.17
329.892
330.374
330.987
331.313
331.644
331.722
331.991
332.066
331.993
331.692
331.47
331.113
330.746
330.354
329.606
328.995
328.178
327.641
322.418
322.7
323.273
323.638
324.158
324.348
324.624
324.656
324.925
324.956
324.883
324.656
324.497
324.189
323.944
323.656
323.1
322.604
321.944
321.502
316.021
316.247
316.622
316.877
317.282
317.411
317.598
317.637
317.895
317.843
317.776
317.642
317.55
317.298
317.126
316.927
316.533
316.186
315.675
315.354
309.607
309.77
309.982
310.147
310.373
310.412
310.573
310.58
310.803
310.701
310.699
310.6
310.538
310.393
310.329
310.18
309.948
309.734
309.416
309.186
303.208
303.27
303.351
303.397
303.464
303.493
303.548
303.546
303.638
303.588
303.6
303.559
303.535
303.475
303.456
303.403
303.313
303.28
303.159
303.08
348.748
349.535
350.559
351.462
352.333
352.965
353.615
353.888
354.337
354.227
354.044
353.852
353.42
352.876
352.085
351.283
350.346
348.947
347.687
346.706
342.308
342.958
343.825
344.633
345.396
345.941
346.459
346.752
347.147
347.022
346.919
346.664
346.324
345.819
345.167
344.46
343.663
342.425
341.366
340.533
335.826
336.376
337.091
337.777
338.405
338.914
339.312
339.592
339.962
339.832
339.737
339.516
339.252
338.809
338.191
337.627
336.957
335.93
334.992
334.318
329.269
329.761
330.392
330.889
331.48
331.899
332.139
332.42
332.744
332.612
332.516
332.357
332.181
331.78
331.238
330.801
330.264
329.411
328.651
328.075
322.739
323.167
323.683
324.053
324.494
324.835
324.975
325.207
325.514
325.412
325.312
325.183
325.104
324.703
324.301
323.943
323.544
322.925
322.326
321.878
316.216
316.558
316.938
317.215
317.496
317.762
317.83
318.02
318.274
318.159
318.075
317.978
317.961
317.652
317.374
317.081
316.808
316.395
315.969
315.626
309.699
309.931
310.179
310.377
310.541
310.647
310.703
310.85
311.002
310.893
310.845
310.776
310.819
310.588
310.423
310.247
310.085
309.836
309.601
309.384
303.25
303.331
303.407
303.483
303.533
303.55
303.582
303.648
303.705
303.643
303.632
303.602
303.626
303.549
303.488
303.432
303.36
303.296
303.2
303.148
349.08
350.28
351.105
352.053
353.164
353.851
354.314
354.597
354.891
354.85
354.912
354.467
354.055
353.693
352.922
351.872
350.788
349.593
348.427
347.426
342.566
343.565
344.271
345.138
346.061
346.713
347.102
347.315
347.575
347.526
347.602
347.241
346.889
346.536
345.904
344.998
343.992
343.011
342.02
341.163
335.977
336.855
337.473
338.181
338.968
339.536
339.827
340.11
340.28
340.231
340.262
339.955
339.692
339.325
338.828
338.076
337.216
336.412
335.615
334.858
329.421
330.158
330.66
331.297
331.921
332.395
332.603
332.838
332.997
332.905
332.929
332.681
332.48
332.184
331.81
331.163
330.449
329.799
329.197
328.576
322.829
323.473
323.845
324.358
324.865
325.238
325.378
325.562
325.668
325.599
325.603
325.422
325.285
325.056
324.751
324.22
323.674
323.149
322.689
322.209
316.309
316.768
317.037
317.4
317.752
318.031
318.165
318.286
318.337
318.281
318.263
318.152
318.065
317.906
317.675
317.301
316.883
316.512
316.235
315.843
309.801
310.077
310.26
310.453
310.663
310.854
310.933
310.956
311.048
311.018
310.942
310.906
310.848
310.747
310.62
310.403
310.14
309.912
309.741
309.491
303.293
303.379
303.436
303.492
303.573
303.639
303.675
303.689
303.715
303.685
303.655
303.654
303.618
303.583
303.561
303.495
303.404
303.329
303.249
303.186
349.915
350.753
351.914
353.095
354.13
354.588
354.991
355.34
355.683
355.781
355.617
355.304
355.003
354.376
353.726
352.696
351.561
350.453
349.079
348.114
343.322
343.999
344.988
346.008
346.948
347.33
347.726
347.965
348.287
348.341
348.234
347.99
347.688
347.133
346.606
345.677
344.699
343.781
342.612
341.782
336.662
337.239
338.063
338.917
339.715
340.057
340.36
340.587
340.863
340.869
340.835
340.57
340.351
339.873
339.445
338.745
337.804
337.03
336.103
335.371
330.003
330.495
331.116
331.836
332.504
332.787
332.999
333.19
333.405
333.396
333.415
333.194
333.036
332.643
332.269
331.754
330.935
330.285
329.553
329
323.333
323.715
324.158
324.788
325.258
325.528
325.688
325.802
325.958
325.946
325.974
325.813
325.763
325.381
325.122
324.746
324.057
323.545
322.983
322.609
316.622
316.897
317.237
317.755
318.061
318.248
318.366
318.423
318.575
318.51
318.533
318.43
318.441
318.111
317.967
317.647
317.192
316.807
316.414
316.197
309.93
310.09
310.331
310.684
310.855
310.96
311.029
311.064
311.159
311.119
311.095
311.093
311.121
310.897
310.827
310.564
310.355
310.078
309.864
309.744
303.304
303.372
303.438
303.576
303.64
303.658
303.712
303.711
303.754
303.74
303.709
303.714
303.738
303.669
303.626
303.531
303.467
303.373
303.323
303.28
350.535
351.363
352.692
353.628
354.564
354.998
355.389
355.865
356.276
356.357
356.238
355.818
355.817
355.116
354.196
353.316
352.092
350.942
349.848
348.805
343.807
344.516
345.681
346.505
347.326
347.656
347.988
348.392
348.739
348.84
348.792
348.39
348.384
347.747
346.976
346.246
345.138
344.165
343.194
342.387
337.072
337.667
338.653
339.346
340.095
340.359
340.629
340.885
341.237
341.373
341.308
340.991
340.919
340.38
339.747
339.149
338.172
337.426
336.543
335.918
330.326
330.845
331.63
332.185
332.846
333.053
333.283
333.419
333.745
333.859
333.8
333.569
333.457
333.029
332.546
332.097
331.209
330.645
329.902
329.465
323.562
323.993
324.63
325.08
325.534
325.709
325.923
326.004
326.241
326.342
326.32
326.064
326.008
325.678
325.375
324.976
324.247
323.826
323.235
322.973
316.822
317.158
317.605
317.94
318.239
318.362
318.551
318.55
318.764
318.804
318.833
318.587
318.595
318.328
318.163
317.884
317.319
316.974
316.603
316.422
310.078
310.286
310.569
310.799
310.947
311.023
311.168
311.121
311.262
311.284
311.299
311.137
311.191
311.021
310.951
310.736
310.377
310.189
309.991
309.885
303.367
303.449
303.528
303.618
303.668
303.688
303.754
303.746
303.766
303.791
303.794
303.744
303.745
303.706
303.669
303.611
303.466
303.409
303.348
303.305
351.002
351.898
353.046
354.003
354.87
355.691
356.359
356.414
356.917
357.085
356.939
356.505
356.119
355.339
354.69
353.805
352.756
351.342
350.291
349.22
344.241
344.968
345.947
346.832
347.6
348.336
348.843
348.899
349.31
349.459
349.375
349.018
348.683
347.968
347.435
346.657
345.727
344.488
343.615
342.766
337.499
338.07
338.875
339.65
340.262
340.98
341.344
341.403
341.725
341.817
341.765
341.502
341.194
340.588
340.17
339.51
338.705
337.659
336.897
336.222
330.721
331.152
331.824
332.502
332.951
333.6
333.83
333.874
334.179
334.236
334.165
333.976
333.721
333.239
332.893
332.361
331.651
330.84
330.183
329.664
323.917
324.194
324.756
325.349
325.637
326.112
326.32
326.323
326.61
326.644
326.553
326.464
326.224
325.844
325.639
325.235
324.588
324.02
323.483
323.125
317.096
317.265
317.737
318.131
318.324
318.624
318.79
318.812
319.043
319.025
318.946
318.954
318.738
318.506
318.348
318.083
317.541
317.159
316.766
316.516
310.265
310.367
310.67
310.912
311.009
311.19
311.307
311.299
311.481
311.432
311.41
311.406
311.286
311.129
311.045
310.879
310.513
310.304
310.076
309.891
303.445
303.489
303.591
303.65
303.677
303.752
303.809
303.795
303.871
303.846
303.828
303.84
303.787
303.752
303.73
303.637
303.524
303.454
303.376
303.314
351.228
352.201
353.411
354.42
355.394
356.41
357.061
357.103
357.42
357.583
357.434
357.011
356.416
355.823
355.012
354.025
352.901
351.816
350.857
349.607
344.422
345.263
346.297
347.179
348.027
348.885
349.467
349.514
349.779
349.944
349.805
349.423
348.896
348.427
347.656
346.814
345.85
344.969
344.105
343.01
337.637
338.326
339.184
339.948
340.682
341.387
341.873
341.899
342.117
342.29
342.151
341.775
341.362
340.994
340.281
339.647
338.82
338.081
337.332
336.382
330.806
331.374
332.086
332.709
333.289
333.87
334.223
334.25
334.45
334.643
334.481
334.144
333.843
333.563
332.972
332.449
331.778
331.189
330.568
329.766
323.931
324.361
324.977
325.436
325.886
326.358
326.601
326.618
326.793
326.955
326.819
326.493
326.271
326.117
325.719
325.24
324.752
324.302
323.76
323.163
317.096
317.378
317.839
318.18
318.479
318.833
319.013
319.022
319.123
319.27
319.146
318.898
318.788
318.659
318.422
318.027
317.677
317.348
316.945
316.546
310.251
310.417
310.686
310.931
311.084
311.318
311.443
311.424
311.504
311.538
311.495
311.356
311.292
311.229
311.085
310.849
310.612
310.427
310.166
309.964
303.432
303.499
303.569
303.682
303.731
303.777
303.854
303.821
303.844
303.871
303.863
303.797
303.779
303.774
303.712
303.65
303.563
303.505
303.408
303.343
351.379
352.784
353.81
354.682
355.764
356.725
357.309
357.561
357.666
357.98
357.726
357.342
356.836
356.309
355.472
354.337
353.528
352.13
350.919
349.788
344.541
345.71
346.657
347.374
348.376
349.198
349.671
349.924
349.961
350.322
350.079
349.697
349.278
348.832
348.071
347.091
346.43
345.161
344.191
343.21
337.706
338.68
339.493
340.105
340.944
341.636
342.038
342.306
342.246
342.611
342.413
342.097
341.704
341.33
340.661
339.861
339.323
338.197
337.476
336.604
330.871
331.662
332.333
332.861
333.514
334.108
334.446
334.592
334.602
334.932
334.738
334.504
334.101
333.876
333.319
332.588
332.208
331.218
330.709
329.972
324.013
324.633
325.149
325.612
326.096
326.536
326.806
326.905
326.941
327.206
327.082
326.895
326.539
326.386
325.923
325.351
325.092
324.271
323.921
323.348
317.139
317.613
317.971
318.328
318.642
318.973
319.143
319.248
319.266
319.447
319.337
319.224
318.956
318.866
318.528
318.1
317.927
317.329
317.1
316.676
310.286
310.567
310.789
311.006
311.18
311.36
311.424
311.58
311.545
311.707
311.627
311.524
311.4
311.331
311.097
310.864
310.766
310.394
310.251
310.005
303.449
303.549
303.639
303.669
303.736
303.792
303.813
303.876
303.854
303.934
303.885
303.861
303.823
303.795
303.719
303.639
303.596
303.474
303.433
303.344
351.884
352.882
354.065
354.945
356.181
356.933
357.533
357.95
358.057
358.079
358.049
357.66
357.074
356.544
355.908
354.643
353.859
352.455
351.233
350.09
344.983
345.824
346.847
347.589
348.703
349.361
349.891
350.275
350.32
350.347
350.347
349.97
349.502
348.995
348.446
347.359
346.691
345.49
344.45
343.482
338.027
338.767
339.626
340.278
341.173
341.771
342.265
342.567
342.57
342.663
342.656
342.319
341.893
341.471
341.031
340.1
339.519
338.517
337.621
336.829
331.099
331.736
332.41
332.994
333.704
334.122
334.636
334.845
334.816
334.94
334.921
334.661
334.268
333.951
333.6
332.805
332.28
331.537
330.816
330.186
324.158
324.701
325.196
325.7
326.231
326.554
326.989
327.118
327.054
327.232
327.148
327.012
326.669
326.421
326.172
325.492
325.086
324.552
324.016
323.498
317.242
317.661
318.008
318.39
318.741
318.938
319.284
319.375
319.332
319.462
319.35
319.337
319.091
318.908
318.682
318.205
317.952
317.552
317.176
316.786
310.367
310.605
310.79
311.103
311.261
311.358
311.609
311.645
311.611
311.707
311.601
311.589
311.479
311.391
311.23
310.949
310.765
310.576
310.334
310.068
303.472
303.539
303.607
303.728
303.78
303.794
303.899
303.898
303.87
303.921
303.896
303.889
303.843
303.832
303.795
303.694
303.594
303.546
303.458
303.386
352.052
352.879
354.323
355.505
356.216
356.88
357.715
358.095
358.158
358.209
358.226
357.787
357.304
356.904
356.041
354.936
354.071
352.76
351.4
350.098
345.102
345.84
347.092
348.083
348.739
349.301
350.049
350.403
350.433
350.427
350.515
350.132
349.67
349.358
348.59
347.632
346.888
345.727
344.59
343.471
338.144
338.779
339.856
340.653
341.312
341.757
342.392
342.65
342.659
342.669
342.81
342.45
342.017
341.767
341.145
340.286
339.71
338.696
337.75
336.774
331.241
331.745
332.58
333.285
333.817
334.19
334.669
334.914
334.937
334.917
335.05
334.788
334.38
334.163
333.67
332.958
332.48
331.693
330.863
330.059
324.361
324.715
325.333
325.903
326.331
326.656
326.944
327.157
327.185
327.16
327.239
327.05
326.747
326.562
326.192
325.652
325.275
324.685
323.996
323.392
317.455
317.695
318.09
318.506
318.83
319.096
319.292
319.381
319.436
319.411
319.462
319.295
319.12
318.948
318.722
318.325
318.045
317.624
317.166
316.732
310.526
310.651
310.863
311.115
311.282
311.467
311.606
311.654
311.684
311.672
311.698
311.568
311.474
311.379
311.259
310.991
310.838
310.574
310.304
310.079
303.543
303.585
303.624
303.717
303.771
303.83
303.899
303.899
303.915
303.912
303.916
303.872
303.828
303.807
303.78
303.678
303.645
303.551
303.442
303.375
352.062
353.198
354.167
355.447
356.386
357.183
357.678
358.105
358.427
358.377
358.385
358.072
357.372
356.703
355.846
355.044
354.041
352.659
351.596
350.075
345.149
346.137
347.011
348.074
348.906
349.559
350.025
350.381
350.654
350.626
350.607
350.367
349.74
349.148
348.434
347.731
346.859
345.629
344.734
343.431
338.235
339.062
339.807
340.701
341.41
341.936
342.358
342.624
342.887
342.865
342.858
342.651
342.059
341.616
341.03
340.38
339.683
338.648
337.882
336.805
331.33
332.007
332.598
333.332
333.896
334.284
334.674
334.878
335.135
335.076
335.11
334.915
334.415
334.089
333.58
333.051
332.492
331.644
330.967
330.165
324.406
324.967
325.387
325.999
326.366
326.73
326.971
327.13
327.33
327.27
327.347
327.15
326.79
326.555
326.134
325.702
325.274
324.643
324.067
323.464
317.482
317.921
318.161
318.58
318.852
319.13
319.249
319.392
319.559
319.484
319.559
319.387
319.166
319.024
318.657
318.343
318.059
317.617
317.194
316.713
310.51
310.809
310.921
311.145
311.31
311.482
311.527
311.627
311.772
311.707
311.75
311.623
311.49
311.414
311.184
310.997
310.85
310.569
310.347
310.016
303.514
303.643
303.669
303.726
303.786
303.861
303.85
303.905
303.953
303.912
303.939
303.883
303.864
303.841
303.747
303.696
303.642
303.559
303.479
303.361
352.408
353.194
354.396
355.226
356.391
357.104
357.739
358.095
358.436
358.406
358.318
357.888
357.15
356.856
355.86
355.113
353.986
352.634
351.454
350.132
345.413
346.12
347.166
347.878
348.882
349.501
350.057
350.355
350.649
350.639
350.547
350.205
349.55
349.323
348.46
347.829
346.816
345.66
344.631
343.502
338.414
339.063
339.941
340.508
341.35
341.873
342.358
342.657
342.865
342.897
342.836
342.505
341.96
341.757
341.023
340.478
339.606
338.644
337.787
336.841
331.448
331.963
332.696
333.172
333.828
334.277
334.683
334.896
335.083
335.105
335.074
334.786
334.331
334.173
333.594
333.111
332.402
331.66
330.943
330.171
324.484
324.893
325.428
325.824
326.304
326.684
326.977
327.121
327.285
327.318
327.3
327.065
326.736
326.578
326.15
325.798
325.252
324.634
324.031
323.503
317.472
317.842
318.147
318.459
318.784
319.098
319.27
319.368
319.499
319.499
319.501
319.346
319.167
318.964
318.669
318.498
318.016
317.591
317.146
316.822
310.47
310.747
310.905
311.07
311.258
311.468
311.566
311.629
311.692
311.688
311.718
311.62
311.529
311.358
311.227
311.108
310.832
310.582
310.302
310.127
303.503
303.595
303.66
303.704
303.771
303.823
303.885
303.898
303.922
303.908
303.923
303.893
303.863
303.805
303.773
303.719
303.616
303.535
303.465
303.396
352.021
353.121
354.269
355.116
356.238
356.964
357.759
358.281
358.155
358.447
358.417
357.768
357.394
356.808
355.901
355.137
354.068
352.54
351.332
350.095
345.148
346.092
347.065
347.789
348.775
349.37
350.07
350.563
350.426
350.654
350.619
350.084
349.775
349.22
348.462
347.852
346.911
345.543
344.528
343.44
338.32
338.987
339.828
340.449
341.318
341.748
342.376
342.838
342.731
342.857
342.824
342.425
342.154
341.668
341.017
340.525
339.74
338.52
337.68
336.78
331.411
331.885
332.59
333.144
333.834
334.16
334.69
335.066
334.993
335.092
335.034
334.745
334.526
334.142
333.558
333.183
332.508
331.493
330.817
330.14
324.448
324.752
325.337
325.784
326.345
326.56
326.984
327.275
327.226
327.303
327.227
327.056
326.861
326.565
326.109
325.778
325.337
324.461
323.945
323.484
317.466
317.644
318.074
318.433
318.868
318.99
319.292
319.489
319.46
319.552
319.46
319.371
319.212
319.042
318.679
318.406
318.123
317.451
317.138
316.799
310.471
310.584
310.859
311.076
311.33
311.413
311.629
311.729
311.669
311.764
311.694
311.636
311.564
311.479
311.226
311.077
310.871
310.476
310.277
310.081
303.514
303.543
303.641
303.718
303.789
303.832
303.906
303.925
303.9
303.95
303.909
303.891
303.886
303.86
303.759
303.71
303.631
303.496
303.448
303.385
)
;

boundaryField
{
    hotSide
    {
        type            fixedGradient;
        gradient        nonuniform List<scalar> 
400
(
427.137
439.505
451.47
462.977
473.976
484.413
494.24
503.409
511.874
519.594
526.528
532.642
537.902
542.281
545.755
548.304
549.915
550.578
550.288
549.044
438.238
450.942
463.232
475.054
486.355
497.081
507.181
516.607
525.311
533.251
540.385
546.677
552.094
556.606
560.19
562.826
564.498
565.197
564.917
563.659
448.137
461.14
473.721
485.825
497.396
508.38
518.724
528.38
537.298
545.434
552.748
559.2
564.758
569.391
573.074
575.787
577.515
578.247
577.978
576.707
456.772
470.036
482.871
495.221
507.027
518.237
528.795
538.651
547.757
556.066
563.536
570.129
575.81
580.549
584.319
587.101
588.878
589.64
589.381
588.101
464.091
477.577
490.627
503.185
515.192
526.592
537.331
547.358
556.623
565.078
572.682
579.395
585.181
590.01
593.855
596.695
598.515
599.303
599.053
597.765
470.054
483.72
496.945
509.672
521.842
533.398
544.285
554.45
563.844
572.419
580.132
586.942
592.814
597.717
601.623
604.512
606.367
607.176
606.934
605.641
474.631
488.434
501.794
514.65
526.944
538.619
549.619
559.891
569.383
578.05
585.846
592.731
598.669
603.628
607.582
610.508
612.389
613.216
612.98
611.684
477.802
491.7
505.151
518.096
530.475
542.231
553.309
563.653
573.214
581.944
589.797
596.733
602.716
607.715
611.701
614.652
616.553
617.391
617.16
615.861
479.558
493.506
507.006
519.998
532.423
544.223
555.342
565.725
575.323
584.086
591.97
598.934
604.941
609.961
613.964
616.93
618.84
619.685
619.457
618.157
479.896
493.851
507.357
520.355
532.786
544.592
555.716
566.104
575.706
584.474
592.362
599.33
605.341
610.363
614.369
617.336
619.248
620.094
619.867
618.566
478.825
492.742
506.212
519.175
531.572
543.345
554.439
564.799
574.374
583.117
590.982
597.93
603.923
608.93
612.923
615.881
617.786
618.627
618.398
617.099
476.358
490.195
503.587
516.474
528.798
540.502
551.529
561.827
571.344
580.033
587.849
594.753
600.708
605.682
609.647
612.583
614.472
615.303
615.071
613.773
472.52
486.234
499.506
512.278
524.49
536.088
547.014
557.216
566.645
575.252
582.994
589.831
595.726
600.649
604.573
607.476
609.34
610.156
609.917
608.623
467.339
480.889
494.002
506.619
518.683
530.138
540.93
551.005
560.315
568.813
576.455
583.203
589.02
593.875
597.742
600.6
602.433
603.228
602.981
601.691
460.855
474.201
487.115
499.54
511.419
522.698
533.322
543.24
552.402
560.765
568.283
574.919
580.638
585.41
589.207
592.01
593.802
594.573
594.316
593.032
453.112
466.215
478.893
491.09
502.75
513.819
524.244
533.975
542.963
551.164
558.536
565.041
570.644
575.316
579.031
581.768
583.513
584.254
583.986
582.709
444.16
456.985
469.392
481.327
492.735
503.563
513.759
523.275
532.063
540.079
547.282
553.636
559.106
563.664
567.285
569.948
571.639
572.346
572.066
570.797
434.061
446.572
458.675
470.316
481.441
491.998
501.938
511.213
519.776
527.585
534.6
540.785
546.106
550.537
554.052
556.632
558.263
558.934
558.641
557.383
422.879
435.045
446.813
458.129
468.943
479.203
488.861
497.87
506.186
513.768
520.575
526.574
531.733
536.024
539.424
541.914
543.48
544.111
543.804
542.559
410.688
422.48
433.884
444.849
455.325
465.262
474.615
483.337
491.386
498.721
505.304
511.103
516.086
520.227
523.502
525.895
527.391
527.982
527.661
526.431
)
;
    }
    coldSide
    {
        type            mixed;
        refValue        uniform 300;
        refGradient     uniform 0;
        valueFraction   uniform 0.991591;
        source          uniform 0;
        value           nonuniform List<scalar> 
400
(
300.023
300.024
300.024
300.025
300.026
300.026
300.027
300.027
300.027
300.028
300.028
300.028
300.029
300.029
300.029
300.029
300.03
300.03
300.029
300.03
300.024
300.024
300.025
300.025
300.026
300.027
300.027
300.027
300.028
300.028
300.028
300.029
300.029
300.029
300.03
300.03
300.03
300.031
300.03
300.03
300.024
300.024
300.025