/*--------------------------------*- C++ -*----------------------------------*\
| =========                 |                                                 |
| \\      /  F ield         | OpenFOAM: The Open Source CFD Toolbox           |
|  \\    /   O peration     | Version:  2212                                  |
|   \\  /    A nd           | Website:  www.openfoam.com                      |
|    \\/     M anipulation  |                                                 |
\*---------------------------------------------------------------------------*/
FoamFile
{
    version     2.0;
    format      ascii;
    arch        "LSB;label=32;scalar=64";
    class       volScalarField;
    location    "./ITHACAoutput/true/3.8";
    object      error;
}
// * * * * * * * * * * * * * * * * * * * * * * * * * * * * * * * * * * * * * //

dimensions      [0 0 0 1 0 0 0];

internalField   nonuniform List<scalar> 
3200
(
1.72935
1.70624
1.79515
2.11042
2.56467
3.10754
3.74575
4.28856
4.78113
5.01324
5.13462
4.93437
4.53438
4.14138
3.79056
3.25306
2.95534
2.73855
2.70224
2.82676
1.4814
1.41266
1.47819
1.7711
2.18013
2.56975
3.16726
3.67929
4.13443
4.33304
4.42173
4.2955
4.01324
3.60308
3.25531
2.82884
2.56716
2.44154
2.33184
2.36256
1.19525
1.24577
1.30928
1.51899
1.74117
2.17151
2.65208
3.0792
3.40142
3.68467
3.71014
3.65386
3.32648
3.05215
2.74881
2.41898
2.12852
1.99872
2.03771
2.026
0.963939
0.998987
1.09731
1.17549
1.47312
1.81798
2.15604
2.53678
2.82446
3.00702
3.09401
2.96843
2.73976
2.53041
2.21411
1.94652
1.72267
1.52882
1.62722
1.66073
0.785021
0.729391
0.796128
0.906485
1.25776
1.35883
1.70106
1.93279
2.17913
2.31683
2.30473
2.30494
2.09626
1.96235
1.72839
1.49568
1.29562
1.21555
1.30014
1.19786
0.588187
0.525621
0.462381
0.651936
0.762066
1.01345
1.18434
1.3809
1.60224
1.73373
1.64033
1.63492
1.46729
1.39568
1.20494
1.05352
1.03347
0.860893
0.862029
0.868963
0.295319
0.328315
0.319044
0.466487
0.513262
0.63026
0.714235
0.789095
0.907365
1.00305
1.03159
0.946482
0.870891
0.84342
0.735732
0.736533
0.573242
0.512143
0.48978
0.50225
0.110833
0.148721
0.199115
0.118434
0.121154
0.199334
0.240211
0.216874
0.289013
0.336016
0.355492
0.358695
0.234031
0.25558
0.232356
0.221372
0.219996
0.198041
0.184148
0.133162
1.10368
0.932184
1.06012
1.32595
1.69401
2.3022
2.88053
3.3916
3.91871
4.06622
4.28246
4.0826
3.7596
3.36187
2.96041
2.50175
2.21402
2.05514
2.01181
2.12675
0.925794
0.89999
0.884554
1.18356
1.48541
1.99278
2.46824
2.97917
3.38702
3.58803
3.74803
3.58292
3.33903
2.93197
2.48274
2.23957
1.94621
1.75384
1.77151
1.83581
0.681039
0.754808
0.764052
0.971777
1.33373
1.73748
2.13584
2.5223
2.92622
3.08975
3.05162
3.05712
2.80622
2.53637
2.20145
1.91742
1.65075
1.51893
1.51744
1.63598
0.607514
0.566494
0.650757
0.858023
1.06113
1.3523
1.74566
2.10698
2.30644
2.58359
2.54238
2.47514
2.32131
2.04031
1.76406
1.55516
1.35908
1.2656
1.23428
1.265
0.478496
0.505457
0.485376
0.665942
0.814136
1.10827
1.44368
1.60524
1.83355
1.91363
2.04559
2.03092
1.81011
1.61921
1.35292
1.17367
1.08176
0.94858
0.929497
1.04257
0.407075
0.348625
0.371212
0.423018
0.54726
0.763245
1.02764
1.20029
1.30218
1.33985
1.40138
1.3746
1.27903
1.16578
0.963468
0.90785
0.725079
0.69037
0.746231
0.747064
0.114691
0.224203
0.290599
0.313698
0.339519
0.401541
0.536195
0.729906
0.751793
0.825506
0.881814
0.829394
0.711696
0.720339
0.597461
0.533976
0.503676
0.484647
0.423196
0.482861
0.0864121
0.0359932
0.0179137
0.134794
0.175278
0.146565
0.17332
0.249382
0.304583
0.289664
0.350954
0.21681
0.291332
0.215569
0.161072
0.128995
0.135639
0.0951984
0.153393
0.138692
0.173432
0.127581
0.186199
0.389464
0.759207
1.20776
1.79529
2.34775
2.7547
3.03453
3.11758
2.95146
2.67906
2.26196
1.84529
1.59396
1.28347
1.1491
1.14939
1.37836
0.233414
0.113444
0.204746
0.408526
0.717285
1.1461
1.64398
2.01923
2.37462
2.71149
2.67193
2.60596
2.37451
1.99089
1.77789
1.42835
1.19498
0.980118
1.03928
1.19091
0.227886
0.174498
0.17591
0.310581
0.688088
0.953266
1.38148
1.75893
2.09736
2.31004
2.34017
2.3145
2.01631
1.75249
1.47683
1.24378
1.02815
0.906031
0.894718
1.03034
0.157698
0.136922
0.138836
0.289202
0.482548
0.835461
1.12518
1.45546
1.73962
1.88199
1.92212
1.82493
1.72342
1.52197
1.20269
0.964972
0.877219
0.72347
0.751259
0.888707
0.16932
0.10185
0.191253
0.207149
0.437432
0.633232
0.912161
1.0706
1.39179
1.4998
1.49507
1.40797
1.3355
1.12573
0.967365
0.843592
0.688666
0.657708
0.715917
0.622386
0.129171
0.101651
0.0767343
0.203319
0.325969
0.495741
0.64649
0.838812
0.885606
1.05353
1.05597
1.02783
0.950336
0.836354
0.635452
0.539811
0.470788
0.475444
0.459697
0.499629
0.0944809
0.0362822
0.0684408
0.114811
0.200931
0.307539
0.46025
0.481612
0.540642
0.711536
0.672224
0.633403
0.488806
0.448834
0.394097
0.345576
0.191941
0.318998
0.289012
0.258346
-0.00788327
0.0657439
0.0377886
0.0886803
0.0424639
0.14573
0.0841649
0.124763
0.250489
0.224279
0.198788
0.182263
0.207794
0.155044
0.1226
0.147328
0.0698862
0.110507
0.0428381
0.134608
-0.602113
-0.668692
-0.705862
-0.456052
-0.16352
0.186424
0.705738
1.20214
1.59991
1.8874
1.95013
1.86743
1.66549
1.28586
0.934709
0.593454
0.440701
0.397847
0.362803
0.6053
-0.425394
-0.588821
-0.478233
-0.380604
-0.139644
0.274866
0.662632
1.16315
1.51954
1.66625
1.71827
1.69714
1.46257
1.10744
0.864169
0.591318
0.402256
0.303258
0.449843
0.652944
-0.355601
-0.436073
-0.388873
-0.164938
0.00184833
0.333374
0.655392
1.00337
1.21419
1.47156
1.45637
1.43821
1.22363
0.97606
0.766926
0.523958
0.404813
0.346238
0.425309
0.541645
-0.214604
-0.307771
-0.325552
-0.180523
0.0137646
0.302806
0.535344
0.843178
1.0998
1.19425
1.28455
1.14323
1.06448
0.816989
0.66328
0.507251
0.271659
0.24856
0.301305
0.395729
-0.274162
-0.279919
-0.169579
-0.0974024
-0.092431
0.206917
0.422265
0.648789
0.872774
0.911525
1.04468
0.904328
0.92089
0.720755
0.495959
0.367561
0.235115
0.287182
0.314149
0.355857
-0.17773
-0.217635
-0.141356
-0.032399
-0.0102575
0.0918314
0.304081
0.455507
0.617885
0.72845
0.694305
0.648772
0.639646
0.412464
0.379527
0.292667
0.206137
0.234031
0.209872
0.262275
-0.104124
-0.106109
-0.106185
-0.0236624
0.0122402
0.108978
0.19497
0.254825
0.421917
0.355293
0.488817
0.466461
0.348309
0.339738
0.230268
0.130607
0.120135
0.11249
0.148365
0.188612
0.0232184
-0.0267577
-0.0507022
-0.026545
-0.0244635
0.0431884
0.0377227
0.155891
0.189959
0.128463
0.167548
0.151618
0.141014
0.120662
0.107913
0.0153879
0.0894424
0.0813157
0.0060955
0.119613
-1.14766
-1.34797
-1.4123
-1.29986
-1.04127
-0.575995
-0.285174
0.26829
0.493589
0.798527
0.869449
0.784723
0.597569
0.273631
0.0213055
-0.267828
-0.373213
-0.331286
-0.224084
0.0778772
-0.904878
-1.07115
-1.08675
-1.07775
-0.873013
-0.505034
-0.11822
0.275335
0.549602
0.756085
0.781357
0.769791
0.529676
0.284403
0.0906092
-0.1675
-0.19095
-0.229648
-0.100721
0.101668
-0.7798
-0.947129
-0.914826
-0.875917
-0.664748
-0.407965
-0.115765
0.272219
0.533451
0.685563
0.761808
0.669936
0.52824
0.345871
0.131669
-0.085631
-0.197083
-0.227629
-0.130869
0.0874177
-0.634122
-0.664523
-0.692892
-0.667788
-0.533558
-0.287523
-0.0839891
0.148177
0.391475
0.606264
0.636907
0.533315
0.472071
0.268929
0.161198
-0.0694417
-0.115693
-0.112876
-0.0290514
0.090915
-0.402336
-0.531018
-0.537881
-0.583029
-0.44476
-0.193346
0.0090209
0.203422
0.316236
0.453927
0.524431
0.486452
0.322618
0.311611
0.0845726
-0.0488952
-0.14815
-0.0766025
-0.00782463
0.0761235
-0.343374
-0.370365
-0.432915
-0.462812
-0.296097
-0.193188
-0.0166119
0.164445
0.301056
0.286913
0.317668
0.314957
0.254204
0.245088
0.0658933
-0.00884433
-0.0703706
-0.0254278
-0.0197074
0.0764112
-0.18269
-0.241406
-0.297266
-0.155076
-0.205885
-0.14006
-0.0420826
0.0462739
0.209051
0.232246
0.201649
0.25754
0.161454
0.0743348
0.0912085
-0.0648965
-0.10551
-0.054964
0.0430595
0.0852642
-0.0792907
-0.0684141
-0.0644364
-0.143761
-0.0349081
-0.0971324
0.0345135
0.0370667
0.069288
-0.000223076
0.0356365
0.0834082
0.061446
0.101375
-0.0218318
0.0224616
0.0502743
-0.0553795
-0.000498944
0.050934
-1.61717
-1.84994
-1.91251
-1.87751
-1.73618
-1.37559
-1.02448
-0.657757
-0.336935
-0.0985122
-0.0402168
-0.148402
-0.253745
-0.555881
-0.736693
-0.894035
-1.06021
-0.92154
-0.73265
-0.392554
-1.29792
-1.52752
-1.58531
-1.64864
-1.43022
-1.22373
-0.919161
-0.51788
-0.243271
-0.0254143
-0.0535067
-0.0849317
-0.165272
-0.461647
-0.58902
-0.759561
-0.795919
-0.786857
-0.524642
-0.25493
-1.07095
-1.26408
-1.32326
-1.24622
-1.11837
-0.939422
-0.673352
-0.402364
-0.191421
-0.00983895
0.0172719
0.0503342
-0.14865
-0.311857
-0.475572
-0.56446
-0.577396
-0.645915
-0.411749
-0.2662
-0.796565
-1.02782
-1.08821
-0.95289
-0.913649
-0.768159
-0.616665
-0.293357
-0.163727
0.0132683
0.0413753
-0.023663
-0.0785974
-0.236565
-0.329716
-0.456975
-0.570487
-0.409495
-0.276006
-0.11038
-0.653069
-0.775761
-0.804083
-0.865359
-0.674147
-0.584227
-0.400426
-0.288937
-0.0896126
0.015207
0.0498414
-0.0159313
0.0312142
-0.148136
-0.247954
-0.278769
-0.380044
-0.339438
-0.225186
-0.0588881
-0.473518
-0.528758
-0.652595
-0.561736
-0.520358
-0.334456
-0.263068
-0.193541
-0.0999357
-0.0101755
0.0606887
0.0784913
-0.046739
-0.0926329
-0.124898
-0.214871
-0.272264
-0.202476
-0.203947
-0.0492011
-0.278246
-0.280946
-0.346929
-0.349661
-0.289427
-0.21338
-0.16365
-0.0886168
-0.01865
0.0166919
0.141059
-0.0421288
-0.0042796
-0.0368035
-0.0922463
-0.18258
-0.146565
-0.14329
-0.0606614
-0.0504449
-0.097578
-0.114106
-0.129341
-0.103156
-0.0544334
-0.0630699
-0.0336336
-0.0665151
-0.0289851
0.0293779
0.00795865
-0.00300526
-0.0233626
0.0145591
-0.0605879
-0.109128
-0.0437894
-0.0415941
-0.0585573
0.0111553
-1.7895
-2.05757
-2.23207
-2.36148
-2.32762
-2.07618
-1.67258
-1.4145
-1.12866
-1.01726
-0.907528
-0.956604
-1.04944
-1.14382
-1.41588
-1.42933
-1.46302
-1.23971
-0.949775
-0.606071
-1.49613
-1.74861
-1.97144
-1.93339
-1.93211
-1.67558
-1.42302
-1.06981
-0.953982
-0.752011
-0.693816
-0.771552
-0.88456
-0.99988
-1.10772
-1.14517
-1.1696
-1.04112
-0.781791
-0.505367
-1.18453
-1.49082
-1.6665
-1.61054
-1.59746
-1.44342
-1.08049
-0.976035
-0.718649
-0.53524
-0.62546
-0.623316
-0.627159
-0.842222
-0.850619
-0.99894
-0.996768
-0.820187
-0.649759
-0.393126
-0.905319
-1.16829
-1.25452
-1.26369
-1.21601
-1.13761
-0.964709
-0.728557
-0.617081
-0.480234
-0.390234
-0.458838
-0.504797
-0.584194
-0.711107
-0.739717
-0.748738
-0.645123
-0.475428
-0.343214
-0.813201
-0.902223
-1.00636
-0.910467
-0.970914
-0.824397
-0.759496
-0.568573
-0.413468
-0.426738
-0.342898
-0.311406
-0.410771
-0.470955
-0.544567
-0.651731
-0.505518
-0.448063
-0.339779
-0.203236
-0.542903
-0.588265
-0.628074
-0.653311
-0.678307
-0.559019
-0.494341
-0.35973
-0.334173
-0.179426
-0.223312
-0.290043
-0.287464
-0.28711
-0.370543
-0.426168
-0.438194
-0.359356
-0.24605
-0.13554
-0.292967
-0.371966
-0.439947
-0.510067
-0.475206
-0.315737
-0.34354
-0.189216
-0.16669
-0.169076
-0.12759
-0.0930429
-0.232496
-0.213356
-0.266177
-0.211053
-0.182222
-0.142394
-0.131075
-0.112592
-0.128375
-0.234954
-0.177836
-0.0894868
-0.121949
-0.132899
-0.0835683
-0.091209
-0.0405184
-0.0527851
0.00500754
-0.0694197
-0.0614897
-0.0640559
-0.0713058
-0.0779034
-0.0713021
-0.0817292
-0.0186144
-0.0779329
-1.8686
-2.18482
-2.48646
-2.55154
-2.64016
-2.43079
-2.23065
-1.98124
-1.79394
-1.63873
-1.53652
-1.56494
-1.6135
-1.69966
-1.83306
-1.7649
-1.60656
-1.3677
-1.02446
-0.647101
-1.56316
-1.84715
-2.12071
-2.15901
-2.20461
-2.06891
-1.92282
-1.65211
-1.5263
-1.29471
-1.27887
-1.2516
-1.36913
-1.39787
-1.4673
-1.44511
-1.42341
-1.18669
-0.84674
-0.475429
-1.25566
-1.51255
-1.68351
-1.88932
-1.83072
-1.60292
-1.49131
-1.3896
-1.17965
-1.09365
-1.04847
-0.986394
-1.00332
-1.05503
-1.16704
-1.18067
-1.13384
-0.91325
-0.672881
-0.369631
-1.04707
-1.19794
-1.40294
-1.46928
-1.43469
-1.41643
-1.18643
-1.07695
-0.892876
-0.833015
-0.754439
-0.742982
-0.83405
-0.929985
-0.92497
-1.01762
-0.897832
-0.793103
-0.491485
-0.324745
-0.779547
-0.958315
-1.04078
-1.09506
-1.15067
-1.05375
-0.961778
-0.766339
-0.769817
-0.588338
-0.546419
-0.580114
-0.615942
-0.679517
-0.725111
-0.709807
-0.639778
-0.496139
-0.367664
-0.263094
-0.599172
-0.662843
-0.779717
-0.747538
-0.81963
-0.780371
-0.62769
-0.57048
-0.513804
-0.509907
-0.451293
-0.417162
-0.441558
-0.450023
-0.488268
-0.490244
-0.443757
-0.450894
-0.227612
-0.144353
-0.318876
-0.433206
-0.425481
-0.510337
-0.46361
-0.452043
-0.315751
-0.306279
-0.292492
-0.326378
-0.256976
-0.243236
-0.239992
-0.357398
-0.302058
-0.383513
-0.247393
-0.244413
-0.170126
-0.0712585
-0.139549
-0.0514552
-0.197892
-0.220338
-0.123493
-0.157345
-0.0847643
-0.13081
-0.0776066
-0.0638396
-0.0431102
-0.0526089
-0.0438731
-0.123789
-0.114402
-0.0830032
-0.101834
-0.0740403
-0.0199268
-0.0481979
-1.68567
-2.15892
-2.44871
-2.66197
-2.72349
-2.66195
-2.54578
-2.27497
-2.19
-2.00812
-1.87777
-1.93259
-1.97122
-1.98638
-1.96996
-1.89894
-1.69638
-1.4028
-0.974945
-0.425617
-1.36723
-1.6921
-2.04253
-2.20826
-2.39163
-2.19497
-2.11045
-1.95172
-1.75113
-1.70795
-1.59925
-1.66252
-1.58882
-1.63733
-1.69258
-1.59203
-1.35627
-1.12113
-0.794301
-0.348529
-1.23612
-1.40919
-1.64151
-1.82641
-1.89834
-1.85502
-1.77415
-1.63864
-1.51101
-1.35161
-1.38414
-1.29246
-1.30487
-1.30493
-1.39974
-1.30505
-1.16138
-0.910447
-0.593331
-0.261025
-0.893726
-1.17475
-1.31171
-1.46907
-1.54357
-1.47216
-1.44496
-1.30509
-1.15151
-1.12935
-1.05572
-1.03543
-1.13061
-1.10841
-1.0697
-1.06921
-0.981132
-0.795354
-0.460544
-0.196196
-0.68396
-0.923283
-1.03988
-1.08516
-1.17562
-1.14181
-1.08428
-0.990491
-0.846653
-0.84596
-0.818617
-0.738542
-0.836706
-0.798511
-0.800218
-0.871347
-0.686368
-0.557972
-0.395148
-0.123593
-0.531667
-0.656438
-0.719351
-0.792647
-0.87329
-0.707779
-0.784225
-0.651899
-0.622858
-0.589106
-0.58565
-0.639768
-0.603479
-0.587526
-0.521637
-0.593093
-0.432858
-0.357669
-0.238311
-0.0102668
-0.331161
-0.37066
-0.420492
-0.464227
-0.477405
-0.492806
-0.459515
-0.463328
-0.401574
-0.343642
-0.345675
-0.301169
-0.326023
-0.318615
-0.390376
-0.328121
-0.314182
-0.199215
-0.114674
0.0017175
-0.0698516
-0.0935888
-0.134731
-0.173863
-0.173216
-0.17806
-0.16713
-0.073178
-0.0693419
-0.100738
-0.150155
-0.151686
-0.0834358
-0.0294517
-0.141915
-0.124877
-0.0514857
-0.0867722
-0.0901472
-0.0276867
-1.24321
-1.7924
-2.17436
-2.45848
-2.63918
-2.63775
-2.5698
-2.42519
-2.29064
-2.24364
-2.10552
-2.1102
-2.01608
-2.05286
-1.99115
-1.83687
-1.52712
-1.16817
-0.72659
-0.127739
-1.06046
-1.46799
-1.82169
-2.12564
-2.20342
-2.19518
-2.13209
-2.06585
-1.96742
-1.8091
-1.75561
-1.71634
-1.72613
-1.72864
-1.5625
-1.47474
-1.23586
-0.857469
-0.523437
-0.042322
-0.85437
-1.22741
-1.46317
-1.71894
-1.81364
-1.83386
-1.76012
-1.6635
-1.62161
-1.50187
-1.54656
-1.42471
-1.42898
-1.44604
-1.3603
-1.23153
-1.02021
-0.735503
-0.325176
0.000364123
-0.638904
-0.977982
-1.23303
-1.38009
-1.4163
-1.42759
-1.38637
-1.34436
-1.23494
-1.23931
-1.13341
-1.13494
-1.14649
-1.0923
-1.07236
-1.02443
-0.858596
-0.627767
-0.362531
-0.00500108
-0.531861
-0.789291
-1.01394
-1.05875
-1.0786
-1.16455
-1.0422
-1.02621
-0.955206
-0.883658
-0.857614
-0.818228
-0.865378
-0.89282
-0.76743
-0.733189
-0.546513
-0.44043
-0.189401
0.00301339
-0.376596
-0.481852
-0.658924
-0.727354
-0.803061
-0.801717
-0.80111
-0.732659
-0.737938
-0.627323
-0.615377
-0.584597
-0.66563
-0.524643
-0.573865
-0.51672
-0.39247
-0.29271
-0.0739325
0.09196
-0.221804
-0.333151
-0.349577
-0.42843
-0.475598
-0.463933
-0.421978
-0.449462
-0.444863
-0.404662
-0.39451
-0.330422
-0.296172
-0.410512
-0.305814
-0.366359
-0.224794
-0.22337
-0.12214
-0.0587532
-0.0719445
-0.0336169
-0.166434
-0.102505
-0.172478
-0.140656
-0.155507
-0.169974
-0.0825873
-0.137516
-0.199478
-0.0676403
-0.125783
-0.103962
-0.15243
0.0250965
-0.113117
-0.131153
-0.106512
0.0421661
-0.645194
-1.19598
-1.73493
-2.01632
-2.25696
-2.37797
-2.40208
-2.36997
-2.27486
-2.1672
-2.05455
-1.98426
-1.96774
-1.89478
-1.68503
-1.44961
-1.1654
-0.610235
0.0427903
0.616311
-0.537162
-0.965281
-1.41879
-1.65243
-1.90308
-2.00499
-2.00389
-1.89366
-1.86047
-1.79366
-1.74112
-1.73568
-1.61003
-1.53235
-1.38054
-1.27241
-0.917152
-0.552614
0.0650724
0.469456
-0.425802
-0.776657
-1.15372
-1.40887
-1.55144
-1.67247
-1.69595
-1.5948
-1.54254
-1.51405
-1.41324
-1.40924
-1.28566
-1.23608
-1.1923
-0.960373
-0.698804
-0.42128
0.0237843
0.49266
-0.330461
-0.652212
-0.918672
-1.12517
-1.24669
-1.26853
-1.31061
-1.30665
-1.26489
-1.12542
-1.18476
-1.06774
-1.05027
-1.00676
-0.891529
-0.759775
-0.597535
-0.329383
0.0474916
0.316907
-0.220595
-0.452416
-0.702608
-0.882191
-0.91558
-1.02213
-0.984512
-0.964269
-0.904015
-0.890785
-0.894971
-0.82452
-0.793051
-0.798239
-0.706568
-0.558339
-0.472523
-0.187841
0.0279519
0.246053
-0.153709
-0.354179
-0.532875
-0.605586
-0.792213
-0.735574
-0.761148
-0.716534
-0.657288
-0.624592
-0.555235
-0.578528
-0.594079
-0.549081
-0.52071
-0.35707
-0.286418
-0.116494
0.0898308
0.212241
-0.118869
-0.195129
-0.275553
-0.301596
-0.351054
-0.393719
-0.427688
-0.345203
-0.385434
-0.418048
-0.339629
-0.325859
-0.307334
-0.32516
-0.314898
-0.238417
-0.210708
-0.0771395
0.0856615
0.156295
-0.0545955
-0.0974191
-0.155716
-0.121602
-0.146655
-0.128079
-0.151928
-0.112673
-0.159967
-0.124057
-0.150348
-0.0967605
-0.100522
-0.0809703
-0.0704674
-0.0686051
-0.0964278
-0.0285979
0.0362431
0.0222342
0.176124
-0.419771
-1.0016
-1.40456
-1.75476
-1.82641
-1.99905
-2.02457
-1.87768
-1.88236
-1.80437
-1.65099
-1.60209
-1.36244
-1.19768
-0.873418
-0.470514
0.0226333
0.759101
1.32664
0.200295
-0.32694
-0.821323
-1.19735
-1.39869
-1.54132
-1.67361
-1.65649
-1.59715
-1.4817
-1.45923
-1.33361
-1.23049
-1.07856
-0.956824
-0.746699
-0.294602
0.149449
0.696471
1.25654
0.205864
-0.270426
-0.64074
-0.940411
-1.18464
-1.24758
-1.29238
-1.33221
-1.24063
-1.22741
-1.21483
-1.13851
-1.06225
-0.971946
-0.73468
-0.546071
-0.321089
0.138749
0.632222
1.15284
0.161148
-0.108056
-0.508085
-0.679099
-0.896382
-1.00963
-1.07023
-1.00958
-1.04586
-1.03619
-0.922549
-0.905257
-0.828918
-0.723813
-0.579544
-0.494581
-0.119714
0.156294
0.553161
0.927467
0.189723
-0.132175
-0.390551
-0.572421
-0.62528
-0.758909
-0.769598
-0.840413
-0.814282
-0.70986
-0.71036
-0.694957
-0.615058
-0.561769
-0.458648
-0.352328
-0.110647
0.0672885
0.475251
0.698995
0.122205
-0.018652
-0.190684
-0.442354
-0.457253
-0.596563
-0.568712
-0.493949
-0.503518
-0.54142
-0.536612
-0.412643
-0.403998
-0.377996
-0.324804
-0.189121
-0.0432534
0.0812635
0.343844
0.452479
0.102937
-0.0543945
-0.124765
-0.204772
-0.254848
-0.303557
-0.291237
-0.34783
-0.356939
-0.330488
-0.268554
-0.186666
-0.178721
-0.19254
-0.146571
-0.111532
-0.00387956
0.0669709
0.218789
0.323714
0.0334798
-0.0857372
-0.0502165
-0.0042539
-0.101316
-0.0923155
-0.0788513
-0.179102
-0.149755
-0.132155
-0.0991954
-0.158122
-0.0823679
-0.10939
-0.0564147
-0.0583367
0.015796
-0.00287739
0.0786495
0.147599
1.26956
0.6096
0.0113535
-0.451748
-0.835174
-1.09577
-1.2274
-1.38099
-1.27453
-1.26841
-1.20417
-1.05872
-0.898022
-0.725227
-0.462858
-0.0771011
0.491878
1.08997
1.76672
2.44717
1.15255
0.539189
0.0840252
-0.371954
-0.698865
-0.901928
-1.0503
-1.05339
-1.01093
-1.07337
-0.994516
-0.828065
-0.722549
-0.526819
-0.328853
-0.0398898
0.457307
0.968202
1.63984
2.176
1.06112
0.614011
0.0839993
-0.284766
-0.474357
-0.771209
-0.813279
-0.824481
-0.852314
-0.731049
-0.73973
-0.715602
-0.530249
-0.440513
-0.207881
0.0495348
0.325256
0.865386
1.39805
1.76669
0.79936
0.438781
0.10606
-0.171889
-0.369469
-0.541516
-0.6549
-0.689458
-0.685211
-0.644262
-0.575423
-0.517373
-0.471792
-0.341818
-0.167118
0.0326781
0.353187
0.772485
1.14077
1.51376
0.693981
0.46663
0.15133
-0.155833
-0.296212
-0.382487
-0.448371
-0.529765
-0.538251
-0.432339
-0.421272
-0.333037
-0.304019
-0.231293
-0.101803
0.0551781
0.284373
0.587604
0.924185
1.17579
0.455869
0.310197
0.108964
-0.0907605
-0.218879
-0.293123
-0.374427
-0.382266
-0.331486
-0.33867
-0.342207
-0.25806
-0.162341
-0.158114
-0.119072
0.0624057
0.181398
0.400172
0.712918
0.857765
0.361646
0.158639
0.049692
-0.0414532
-0.119889
-0.0881769
-0.162211
-0.145329
-0.177314
-0.206638
-0.189182
-0.164388
-0.129025
-0.0802306
-0.0148534
0.0681973
0.140034
0.28101
0.332756
0.551939
0.0634295
0.079394
-0.0153212
0.0276445
-0.0553276
-0.0568594
-0.0989155
-0.121476
0.00442898
-0.0945095
-0.0396669
-0.0586341
-0.04927
-0.037512
-0.0170385
0.0694441
0.0643208
0.0557838
0.140507
0.185915
2.62013
1.96538
1.25861
0.593452
0.250799
-0.101708
-0.221247
-0.383116
-0.369577
-0.39334
-0.332542
-0.183806
0.0295287
0.25892
0.529757
0.952726
1.57114
2.25488
3.08944
3.81454
2.30197
1.67567
1.14782
0.684597
0.247231
-0.0124286
-0.185782
-0.254065
-0.295217
-0.264271
-0.158071
-0.0463235
0.14252
0.320479
0.604564
0.920347
1.4251
2.04389
2.65008
3.35204
1.97986
1.5034
0.920064
0.624501
0.312149
0.0619485
-0.112727
-0.193789
-0.180294
-0.0762351
-0.0839631
0.0191559
0.141333
0.291534
0.59242
0.898474
1.32925
1.79945
2.42324
2.90398
1.56634
1.25597
0.824868
0.480273
0.207453
0.0685038
-0.093168
-0.0964972
-0.143053
-0.0930683
-0.115337
0.0541115
0.158743
0.317685
0.538138
0.734885
1.05245
1.47856
1.90263
2.30374
1.29559
0.988642
0.737075
0.433425
0.259204
0.0305791
0.0170158
-0.073075
-0.0381821
-0.0686457
-0.0372487
-0.00346036
0.138734
0.228462
0.356375
0.625631
0.84522
1.18115
1.48947
1.86048
0.933344
0.743914
0.558153
0.310337
0.165842
-0.0209964
0.0170262
0.0211672
-0.0500701
-0.032779
0.0042681
-0.0117989
0.093139
0.203149
0.322187
0.392912
0.61857
0.87764
1.10154
1.34361
0.457868
0.430359
0.280029
0.195699
0.0969246
0.0129236
0.0146247
0.0433439
-0.0306804
-0.012183
-0.0246874
0.037517
0.111468
0.142014
0.173029
0.214031
0.399919
0.542845
0.673091
0.776756
0.148729
0.120306
0.120409
0.0739053
0.0605
-0.012204
0.00455689
0.0152069
-0.0262508
0.0257568
0.0476704
0.0167275
-0.0741448
0.0606299
0.0140323
0.107455
0.147
0.1716
0.221424
0.321262
4.27776
3.45923
2.75544
2.17751
1.61538
1.27114
0.912701
0.811599
0.755829
0.735887
0.849119
1.01986
1.21292
1.46446
1.88462
2.41185
2.97486
3.74492
4.57384
5.43273
3.61849
3.09388
2.39407
1.90946
1.4493
1.14761
0.901921
0.798949
0.735896
0.740451
0.764502
0.968093
1.09368
1.38075
1.67645
2.12467
2.70958
3.24565
4.07667
4.74418
3.15519
2.62135
2.13885
1.60324
1.26265
0.937715
0.783362
0.724253
0.674338
0.701389
0.720337
0.847549
1.02678
1.16731
1.46004
1.80637
2.3758
2.85591
3.44297
3.96065
2.57191
2.17519
1.75187
1.28284
1.0391
0.837137
0.751925
0.705666
0.562201
0.554356
0.674291
0.622961
0.865025
1.0638
1.34668
1.56301
1.91735
2.32637
2.81865
3.34406
1.93183
1.71426
1.35593
1.03512
0.881129
0.646136
0.541952
0.490507
0.478782
0.47611
0.497903
0.647584
0.732834
0.84854
0.987785
1.18251
1.48767
1.84182
2.20631
2.60956
1.45582
1.20043
0.9581
0.788025
0.599368
0.478453
0.402036
0.347721
0.264022
0.315271
0.407182
0.468245
0.504992
0.63821
0.656564
0.821148
1.12659
1.29982
1.66087
1.76516
0.886089
0.752957
0.579062
0.472573
0.389821
0.263045
0.304227
0.201983
0.193895
0.213483
0.257862
0.212553
0.296302
0.329425
0.481659
0.492974
0.612967
0.816519
1.01249
1.14637
0.318906
0.30998
0.265355
0.129367
0.104213
0.133648
0.0502884
0.128732
0.0922106
0.0822161
0.0322025
0.0953927
0.130645
0.132803
0.135162
0.208031
0.223875
0.267214
0.318088
0.404012
6.08759
5.28793
4.4774
3.75083
3.21462
2.76122
2.41501
2.32783
2.23487
2.27701
2.28619
2.42448
2.71928
3.08252
3.41413
4.02463
4.68177
5.4643
6.32572
7.23271
5.25762
4.60381
3.95746
3.27328
2.90326
2.483
2.20551
2.09111
1.95064
1.94608
2.01208
2.17707
2.41553
2.66501
3.1188
3.52176
4.10014
4.85567
5.55205
6.29986
4.44071
3.97205
3.35483
2.86815
2.44962
2.14949
1.93286
1.78343
1.65915
1.77823
1.80547
1.91657
2.10372
2.32545
2.64835
2.99654
3.57148
4.11728
4.76784
5.32284
3.6769
3.24906
2.73368
2.45459
2.04697
1.77512
1.62158
1.465
1.41091
1.43414
1.48623
1.58556
1.71459
1.86788
2.19688
2.51624
2.94379
3.43706
3.94677
4.48293
2.91996
2.46535
2.15486
1.824
1.56842
1.39724
1.2991
1.15506
1.18932
1.16388
1.16324
1.26255
1.34102
1.52994
1.7168
1.98037
2.31776
2.67831
3.07475
3.41066
2.02455
1.81612
1.5557
1.32752
1.21999
0.970671
0.903029
0.82156
0.828716
0.811393
0.870425
0.889489
0.98319
1.03982
1.23044
1.37931
1.61802
1.92107
2.14907
2.48554
1.22234
1.17082
0.980598
0.800487
0.642704
0.661238
0.575666
0.50092
0.571012
0.523071
0.468013
0.537837
0.610157
0.615612
0.724343
0.803017
1.02737
1.1023
1.3407
1.49045
0.416672
0.366739
0.242063
0.216932
0.25215
0.18986
0.148125
0.203693
0.191206
0.253258
0.119396
0.167783
0.202702
0.241157
0.220705
0.330069
0.319668
0.353732
0.395651
0.47841
8.11137
7.26277
6.36441
5.69197
5.00858
4.55341
4.25517
4.07252
3.94649
3.97011
3.98537
4.13927
4.45055
4.81292
5.29526
5.84192
6.59296
7.44992
8.37441
9.29728
7.01592
6.3356
5.60667
4.92766
4.48928
4.07386
3.76672
3.58176
3.47614
3.43028
3.56042
3.63845
3.88776
4.21903
4.58645
5.11645
5.78115
6.54333
7.28664
8.06976
5.98869
5.38545
4.78118
4.27203
3.80255
3.47308
3.23079
3.07073
2.96679
2.95393
3.04393
3.16299
3.36024
3.64408
4.00893
4.37359
4.94434
5.49311
6.22133
6.82808
4.88343
4.45838
3.93743
3.50496
3.13485
2.85767
2.66029
2.50289
2.50373
2.43873
2.51214
2.68154
2.80015
3.00055
3.281
3.65073
4.09719
4.60476
5.09794
5.60483
3.8791
3.46005
3.1009
2.74754
2.4883
2.2449
2.05337
2.00796
1.86972
1.91062
1.94251
2.0382
2.15047
2.27672
2.54565
2.82905
3.20719
3.51141
3.98801
4.36603
2.75563
2.44075
2.14036
1.90804
1.76593
1.61493
1.56913
1.41723
1.36596
1.34656
1.47266
1.47402
1.5525
1.67581
1.85718
2.03406
2.22291
2.52093
2.85064
3.10971
1.69556
1.48613
1.26459
1.22486
1.0027
0.974235
0.940134
0.842318
0.788316
0.853156
0.862642
0.947333
0.942683
0.956491
1.17376
1.20733
1.40698
1.57082
1.72311
1.83314
0.5872
0.531143
0.520736
0.390574
0.362008
0.317689
0.351812
0.2908
0.269157
0.252414
0.254354
0.186012
0.318613
0.352485
0.396456
0.395489
0.505946
0.504935
0.602596
0.596903
10.3432
9.45163
8.53614
7.8064
7.17834
6.65326
6.2295
5.97074
5.81088
5.83616
5.94487
6.0566
6.34034
6.813
7.33263
7.86596
8.68609
9.6227
10.5455
11.4687
8.94902
8.25388
7.41536
6.68947
6.15162
5.70918
5.45431
5.18638
5.09115
5.04108
5.19032
5.3257
5.58428
6.00638
6.31033
6.92934
7.51098
8.31183
9.14102
9.97556
7.54463
6.96218
6.29984
5.69932
5.20898
4.98747
4.64681
4.50984
4.2886
4.41006
4.38413
4.61236
4.74696
5.02345
5.46448
5.91068
6.4126
6.9856
7.75251
8.4895
6.14861
5.66737
5.12845
4.78527
4.29751
4.04195
3.78679
3.63477
3.58981
3.62694
3.54837
3.69124
3.9192
4.07904
4.42601
4.82463
5.28589
5.80594
6.36044
6.93064
4.81352
4.437
4.04686
3.65826
3.44703
3.14874
2.98905
2.84821
2.76713
2.77675
2.84311
2.90459
3.0295
3.23349
3.47713
3.7128
4.14414
4.53789
4.92799
5.31985
3.48214
3.14289
2.84905
2.62137
2.43589
2.29195
2.14452
2.03184
2.00501
1.99163
1.98571
2.08559
2.2192
2.33585
2.46317
2.68982
2.92485
3.29743
3.54632
3.86392
2.1263
1.92735
1.74481
1.60576
1.44063
1.39497
1.27624
1.24614
1.16023
1.20544
1.22993
1.18399
1.27758
1.37146
1.46296
1.63613
1.7792
1.97784
2.08376
2.24667
0.651983
0.586914
0.578476
0.551597
0.494635
0.417359
0.428705
0.30997
0.43222
0.370707
0.420642
0.434144
0.448266
0.430067
0.543574
0.555338
0.589912
0.6702
0.685741
0.752135
12.5423
11.6573
10.6784
9.8759
9.1611
8.6836
8.29323
7.98676
7.85482
7.80347
7.87493
8.02067
8.32505
8.70038
9.30825
9.86121
10.8369
11.7256
12.7212
13.6924
10.7619
10.0985
9.26671
8.53868
7.93737
7.56012
7.10911
6.93092
6.82816
6.68882
6.78888
6.96856
7.21409
7.61331
8.03334
8.72739
9.37419
10.1737
11.0142
11.8056
9.13959
8.56002
7.83124
7.23751
6.68266
6.31342
6.11442
5.82285
5.76858
5.64798
5.68547
5.86484
6.18375
6.42977
6.86596
7.30747
7.96006
8.55592
9.25985
9.89632
7.41568
7.01424
6.42686
5.95451
5.52128
5.17767
4.90869
4.82569
4.70714
4.68406
4.67654
4.8215
5.04963
5.33842
5.60821
5.8969
6.49009
7.03883
7.60791
8.1243
5.80558
5.39364
4.94216
4.56959
4.26073
4.00588
3.80795
3.73665
3.62408
3.69919
3.69736
3.74454
3.96307
4.08425
4.32469
4.64321
5.03924
5.38533
5.93682
6.3321
4.09672
3.86442
3.59933
3.23731
3.06524
2.91153
2.69101
2.64632
2.64099
2.55002
2.60983
2.75071
2.76417
2.91487
3.04381
3.36581
3.56907
3.88269
4.21982
4.53037
2.4733
2.33159
2.1601
1.96438
1.85478
1.64671
1.62892
1.59263
1.55141
1.5136
1.52541
1.5683
1.61105
1.71756
1.93233
1.99623
2.15237
2.29911
2.5271
2.76964
0.822202
0.860117
0.738999
0.657365
0.620374
0.574932
0.492728
0.525136
0.507481
0.464728
0.492405
0.477646
0.556416
0.589624
0.612321
0.73371
0.737158
0.777922
0.867193
0.899506
14.3482
13.3843
12.4769
11.569
10.8794
10.3098
9.86932
9.62802
9.53469
9.40641
9.45627
9.63054
9.99857
10.4461
10.9606
11.7072
12.5848
13.4933
14.5199
15.4663
12.2884
11.5286
10.7006
10.0366
9.35096
8.89247
8.48035
8.24745
8.11125
8.03041
8.17225
8.22664
8.54172
8.9543
9.42004
9.98485
10.7555
11.5701
12.464
13.2853
10.327
9.67556
8.99742
8.37809
7.86561
7.47112
7.1083
6.91255
6.78393
6.68953
6.78283
6.94872
7.15802
7.51882
7.88006
8.43466
8.9751
9.69982
10.3924
11.102
8.30442
7.80491
7.33991
6.84171
6.38707
6.07638
5.76694
5.62226
5.51807
5.46559
5.55104
5.71128
5.8591
6.06206
6.46355
6.85233
7.31218
7.91866
8.46671
9.02377
6.4561
6.07492
5.56672
5.30007
4.89965
4.67528
4.48582
4.28958
4.25973
4.19976
4.2673
4.34451
4.52408
4.74374
4.99792
5.29525
5.68823
6.10637
6.59132
6.94516
4.61575
4.30153
4.03242
3.7422
3.47513
3.328
3.17486
3.0625
2.98601
3.01387
3.03364
3.14456
3.24519
3.41401
3.55583
3.84225
3.94373
4.42649
4.74015
5.04528
2.79414
2.59705
2.37538
2.251
2.06333
1.95748
1.92529
1.84355
1.81561
1.7615
1.87423
1.86208
1.97055
2.05677
2.09339
2.26538
2.39178
2.65015
2.82018
2.98165
0.917348
0.824648
0.800951
0.710206
0.649196
0.686403
0.646553
0.666538
0.535562
0.641631
0.632166
0.674879
0.695475
0.628358
0.674995
0.740902
0.800121
0.84956
0.919094
1.00852
)
;

boundaryField
{
    hotSide
    {
        type            calculated;
        value           nonuniform List<scalar> 
400
(
2.6808
2.05506
1.12473
0.349173
-0.196194
-0.665157
-0.836405
-0.913682
-0.727995
-0.281626
0.321656
1.14977
2.25173
3.61267
5.28267
7.10699
9.14748
11.3982
13.6187
15.4484
2.71412
1.93955
1.13399
0.336425
-0.344296
-0.847677
-1.05641
-1.18422
-1.15807
-0.790217
-0.191141
0.589282
1.62463
2.98833
4.49222
6.33318