/*--------------------------------*- C++ -*----------------------------------*\
| =========                 |                                                 |
| \\      /  F ield         | OpenFOAM: The Open Source CFD Toolbox           |
|  \\    /   O peration     | Version:  2212                                  |
|   \\  /    A nd           | Website:  www.openfoam.com                      |
|    \\/     M anipulation  |                                                 |
\*---------------------------------------------------------------------------*/
FoamFile
{
    version     2.0;
    format      ascii;
    arch        "LSB;label=32;scalar=64";
    class       volScalarField;
    location    "0";
    object      relativeErrorField;
}
// * * * * * * * * * * * * * * * * * * * * * * * * * * * * * * * * * * * * * //

dimensions      [0 0 0 1 0 0 0];

internalField   nonuniform List<scalar> 
3200
(
0.00501797
0.00493867
0.00517962
0.00606846
0.00734873
0.00887363
0.0106623
0.0121749
0.013547
0.0141901
0.0145337
0.0139811
0.0128727
0.0117884
0.010824
0.00932122
0.00849799
0.00790166
0.00782157
0.00820227
0.00437378
0.00416192
0.00434292
0.00518782
0.00636614
0.00748111
0.00919489
0.0106563
0.0119541
0.0125171
0.0127733
0.0124198
0.0116235
0.0104601
0.00947695
0.00826042
0.0075196
0.00717326
0.00686998
0.00697539
0.00359192
0.00373698
0.00391817
0.00453392
0.00518323
0.00644741
0.00785536
0.00910202
0.0100398
0.0108674
0.0109425
0.0107849
0.00983299
0.00904035
0.00816147
0.00720099
0.00635329
0.00598137
0.00611259
0.00608844
0.00294947
0.00305219
0.00334596
0.00357662
0.00447224
0.00550717
0.00651818
0.00765632
0.00851413
0.00905858
0.00932062
0.0089481
0.00826891
0.00764996
0.00670716
0.00590941
0.00524148
0.00466175
0.00497161
0.00508151
0.00244655
0.00227055
0.00247443
0.00281259
0.00389562
0.00420139
0.00525119
0.00595858
0.0067115
0.00713193
0.00709469
0.00709898
0.00646253
0.0060578
0.00534405
0.00463253
0.00401999
0.00377804
0.00404726
0.00373319
0.00186776
0.00166769
0.00146538
0.00206354
0.00240902
0.00319966
0.00373488
0.00435046
0.00504421
0.00545612
0.00516219
0.00514709
0.00462265
0.00440134
0.00380424
0.00333037
0.00327118
0.00272834
0.00273505
0.00275935
0.000955845
0.0010621
0.0010314
0.00150689
0.00165668
0.00203275
0.00230196
0.0025417
0.00292139
0.00322872
0.00332058
0.00304733
0.00280517
0.00271831
0.00237292
0.00237735
0.00185174
0.00165564
0.00158444
0.00162561
0.000365781
0.000490736
0.000656866
0.000390605
0.000399465
0.000657066
0.000791615
0.000714562
0.000952106
0.00110686
0.00117102
0.00118166
0.000771091
0.000842264
0.000765915
0.000729901
0.000725562
0.000653326
0.000607637
0.000439472
0.00320136
0.00269728
0.00305789
0.00381168
0.00485281
0.00657268
0.0081981
0.00962723
0.0111022
0.0115085
0.0121205
0.0115665
0.0106718
0.009568
0.00845183
0.00716674
0.00636461
0.00592799
0.00582118
0.00616889
0.00273251
0.00265073
0.00259812
0.00346597
0.0043366
0.00580039
0.00716455
0.00862756
0.00979215
0.0103641
0.0108263
0.0103585
0.00966972
0.00851059
0.00722654
0.00653833
0.00569936
0.00515141
0.00521761
0.00541846
0.00204607
0.00226364
0.00228597
0.00289999
0.00396962
0.00515797
0.00632551
0.00745513
0.00863646
0.00911209
0.00899965
0.00902278
0.00829429
0.00751169
0.00653532
0.00570689
0.00492617
0.0045445
0.00455076
0.00491504
0.00185846
0.00173043
0.00198394
0.00261022
0.00322098
0.00409599
0.00527697
0.00635858
0.00695212
0.00778256
0.00765842
0.00746062
0.00700539
0.00616765
0.00534315
0.00472058
0.0041345
0.00385838
0.00377027
0.00386978
0.00149098
0.00157319
0.00150835
0.00206597
0.0025213
0.00342634
0.00445629
0.00494843
0.00564683
0.00589049
0.00629668
0.00625468
0.00557998
0.00499811
0.00418269
0.00363475
0.00335596
0.0029478
0.00289298
0.00324862
0.00129248
0.00110598
0.00117632
0.00133882
0.00172983
0.00240954
0.00324052
0.00378129
0.00409939
0.00421645
0.00441006
0.0043274
0.00402935
0.00367612
0.00304163
0.00286962
0.00229482
0.00218768
0.00236735
0.00237196
0.000371187
0.000725244
0.000939373
0.00101328
0.00109582
0.00129501
0.00172807
0.00235099
0.00242044
0.00265716
0.00283841
0.00267028
0.00229233
0.00232154
0.00192688
0.00172345
0.00162692
0.00156664
0.00136894
0.00156273
0.000285177
0.000118764
5.90948e-05
0.000444549
0.000577914
0.000483118
0.000571171
0.000821662
0.00100339
0.000954171
0.00115606
0.00071424
0.000959879
0.0007104
0.000530937
0.000425313
0.000447338
0.000314046
0.00050614
0.00045771
0.0005027
0.000368905
0.000536752
0.00111896
0.00217384
0.00344669
0.00510775
0.00666242
0.00780272
0.00858688
0.00882191
0.00836003
0.00760261
0.00643546
0.00526605
0.004564
0.0036875
0.00331248
0.00332351
0.00399523
0.000688497
0.000333926
0.000601053
0.00119576
0.00209319
0.00333476
0.00477056
0.00584623
0.00686387
0.00783083
0.00771658
0.00753256
0.00687483
0.00577723
0.00517305
0.00416824
0.00349771
0.00287724
0.00305915
0.00351281
0.000684276
0.000523044
0.00052606
0.000926448
0.00204722
0.00282903
0.00409035
0.00519777
0.00618908
0.0068116
0.00690044
0.00682986
0.00595835
0.00518886
0.00438283
0.00370054
0.00306694
0.00270949
0.00268185
0.00309382
0.000482201
0.000418068
0.000423098
0.000879479
0.00146429
0.00252987
0.00340057
0.00439161
0.00524286
0.00566841
0.00578928
0.00549996
0.00520016
0.00459977
0.00364189
0.0029282
0.00266767
0.00220475
0.00229384
0.00271744
0.000527411
0.000316891
0.000594154
0.000642464
0.00135435
0.0019573
0.00281514
0.00329987
0.00428586
0.00461619
0.00460161
0.00433568
0.00411637
0.00347426
0.0029901
0.00261189
0.00213587
0.00204326
0.00222747
0.00193865
0.000410016
0.000322399
0.000243104
0.000643358
0.00103017
0.0015648
0.00203835
0.00264225
0.00278775
0.00331516
0.00332284
0.00323545
0.00299355
0.00263698
0.0020058
0.00170598
0.00148971
0.00150627
0.00145799
0.00158593
0.00030573
0.000117347
0.000221208
0.000370804
0.000648449
0.000991754
0.0014832
0.00155114
0.00174054
0.00229021
0.00216368
0.00203917
0.00157432
0.00144641
0.00127089
0.00111525
0.00061991
0.00103104
0.000934747
0.00083598
2.60149e-05
0.000216919
0.000124653
0.000292455
0.000140004
0.000480347
0.000277356
0.00041106
0.000825174
0.000738775
0.000654807
0.000600421
0.000684624
0.000510928
0.000404108
0.000485741
0.000230475
0.00036453
0.000141343
0.000444208
0.00174337
0.00193158
0.00203285
0.00130917
0.00046786
0.000531677
0.00200682
0.00340993
0.00453011
0.0053391
0.00551654
0.00528758
0.00472425
0.00365643
0.00266577
0.00169798
0.0012651
0.00114578
0.00104799
0.0017526
0.00125358
0.00173166
0.00140274
0.0011132
0.000407245
0.000799318
0.00192194
0.00336635
0.00439084
0.00481076
0.00496096
0.00490404
0.0042329
0.00321208
0.00251302
0.00172446
0.00117652
0.00088951
0.00132294
0.00192415
0.0010669
0.00130609
0.0011621
0.000491685
5.49611e-06
0.000988883
0.00193972
0.00296404
0.00358193
0.00433807
0.00429331
0.00424279
0.0036147
0.00288879
0.00227492
0.00155802
0.00120676
0.00103468
0.00127385
0.00162508
0.000655761
0.000939125
0.000991521
0.000548688
4.17491e-05
0.000916558
0.0016174
0.00254345
0.00331379
0.00359623
0.00386814
0.00344463
0.00321099
0.00246831
0.00200767
0.00153853
0.000825688
0.000757029
0.000919396
0.00120922
0.000853522
0.000870486
0.000526574
0.000301961
0.000286073
0.000639372
0.00130286
0.00199929
0.00268709
0.00280507
0.00321484
0.00278424
0.00283779
0.00222382
0.00153251
0.0011376
0.00072889
0.00089175
0.000976931
0.00110785
0.000563934
0.000690001
0.000447681
0.000102488
3.24081e-05
0.000289797
0.000958567
0.00143461
0.00194473
0.00229193
0.0021845
0.00204195
0.00201455
0.00130023
0.00119769
0.000924671
0.000652076
0.000741188
0.000665389
0.000832194
0.000336854
0.000343107
0.000343128
7.64078e-05
3.94953e-05
0.000351384
0.000628234
0.000820641
0.0013582
0.00114349
0.00157323
0.00150159
0.0011217
0.00109471
0.000742466
0.000421428
0.000387925
0.000363502
0.000479746
0.000610183
7.66151e-05
8.82792e-05
0.000167239
8.7536e-05
8.06513e-05
0.000142349
0.000124305
0.000513599
0.000625755
0.000423146
0.000551889
0.000499455
0.000464587
0.000397612
0.000355679
5.07309e-05
0.000294949
0.000268216
2.01103e-05
0.000394693
0.00331815
0.00388838
0.0040622
0.00372715
0.00297621
0.00164127
0.000810309
0.000760536
0.00139683
0.00225776
0.00245828
0.00222071
0.00169396
0.000777508
6.07091e-05
0.000765524
0.00107013
0.000952881
0.000646398
0.000225161
0.00266318
0.00314634
0.00318406
0.00314901
0.00254368
0.00146751
0.000342666
0.000796414
0.00158735
0.00218199
0.00225492
0.0022233
0.00153211
0.000824357
0.000263289
0.00048804
0.000557927
0.000672844
0.000295851
0.000299222
0.00233705
0.00283381
0.0027312
0.00260885
0.00197513
0.00120932
0.000342427
0.000803768
0.00157306
0.00202023
0.00224491
0.00197552
0.00155971
0.00102307
0.000390303
0.000254431
0.000586997
0.000679582
0.000391562
0.000261989
0.0019359
0.00202595
0.00210862
0.00202821
0.00161727
0.000869808
0.000253629
0.000446793
0.00117913
0.00182504
0.00191729
0.00160636
0.00142342
0.000812107
0.000487653
0.000210485
0.000351383
0.000343505
8.85698e-05
0.000277553
0.00125165
0.00165021
0.00166915
0.00180642
0.00137582
0.000597169
2.78225e-05
0.000626657
0.000973355
0.00139653
0.00161343
0.00149727
0.000993849
0.00096108
0.000261211
0.000151252
0.000459021
0.000237712
2.43162e-05
0.000236817
0.00108895
0.00117364
0.00137042
0.00146339
0.00093516
0.000609453
5.23515e-05
0.000517794
0.000947353
0.000902553
0.000999297
0.000991095
0.000800419
0.000772385
0.000207874
2.7933e-05
0.000222509
8.04935e-05
6.24502e-05
0.000242324
0.000590833
0.000780359
0.000960315
0.000500622
0.000664174
0.000451513
0.000135576
0.000149
0.000672874
0.000747382
0.000648921
0.000828947
0.000519872
0.000239481
0.000294029
0.000209352
0.000340614
0.000177561
0.000139193
0.000275751
0.00026161
0.000225688
0.000212521
0.000474029
0.000115076
0.000320125
0.000113723
0.000122114
0.000228236
7.34765e-07
0.000117379
0.000274748
0.00020243
0.000334034
7.19524e-05
7.40455e-05
0.000165772
0.00018265
1.64595e-06
0.000168051
0.00466707
0.00532715
0.0054921
0.00537556
0.0049559
0.00391513
0.00290807
0.00186296
0.000952771
0.000278334
0.000113628
0.000419644
0.000718679
0.00157792
0.00209674
0.00255202
0.00303552
0.00264635
0.00210976
0.00113289
0.00381382
0.00447999
0.00463817
0.00481082
0.00416234
0.00355222
0.00266186
0.00149683
0.000702133
7.32966e-05
0.000154317
0.000245131
0.000477686
0.00133691
0.0017098
0.00221053
0.00232254
0.00230212
0.0015387
0.000749088
0.00320519
0.00377714
0.00394572
0.00370763
0.00331961
0.00278225
0.0019902
0.00118725
0.000564135
2.89777e-05
5.08694e-05
0.000148339
0.000438618
0.000921745
0.00140849
0.00167546
0.00171781
0.001926
0.00123033
0.000796697
0.00242903
0.00313013
0.00330827
0.00289143
0.00276704
0.0023221
0.001861
0.000884058
0.000492904
3.99231e-05
0.000124495
7.12382e-05
0.00023686
0.000713916
0.000996713
0.00138398
0.00173107
0.00124491
0.000840547
0.000336592
0.00202982
0.0024087
0.0024932
0.0026792
0.00208402
0.00180339
0.00123437
0.000889698
0.000275713
4.67679e-05
0.000153283
4.90161e-05
9.61151e-05
0.000456653
0.000765383
0.00086177
0.00117664
0.00105249
0.000699191
0.000183032
0.00150068
0.00167451
0.00206462
0.00177523
0.00164264
0.00105466
0.000828737
0.000609211
0.000314383
3.20008e-05
0.000190859
0.000246922
0.000147121
0.00029182
0.000393848
0.000678296
0.000860424
0.000640576
0.000645873
0.000155929
0.000899503
0.000907823
0.00112035
0.00112842
0.000933398
0.000687693
0.000527103
0.000285285
6.00184e-05
5.37068e-05
0.000453862
0.000135577
1.37773e-05
0.000118541
0.000297296
0.000588819
0.000472991
0.000462731
0.000196016
0.000163076
0.000321903
0.000376371
0.000426531
0.000340102
0.000179424
0.000207845
0.000110815
0.000219115
9.54716e-05
9.67592e-05
2.62126e-05
9.89877e-06
7.69617e-05
4.79692e-05
0.000199666
0.000359709
0.000144373
0.000137166
0.000193147
3.68004e-05
0.00515302
0.00591257
0.00639712
0.00674895
0.00663325
0.00590044
0.00474159
0.00400165
0.00318827
0.00287133
0.0025616
0.00270223
0.00296889
0.00324262
0.00402389
0.00407331
0.00418121
0.003553
0.00272924
0.00174523
0.00438768
0.0051189
0.00575787
0.00563271
0.00561482
0.00485752
0.00411628
0.0030889
0.00275086
0.00216697
0.00199927
0.00222481
0.00255404
0.00289229
0.00321129
0.00332793
0.0034075
0.00304073
0.00228862
0.00148209
0.0035392
0.00444753
0.00496176
0.00478489
0.00473574
0.00427013
0.00319041
0.00287743
0.00211623
0.0015752
0.00184072
0.0018355
0.00184891
0.00248686
0.00251642
0.0029614
0.00296138
0.00244199
0.00193842
0.0011746
0.00275682
0.00355316
0.0038091
0.0038301
0.00367892
0.00343571
0.00290892
0.00219395
0.0018565
0.00144407
0.00117344
0.00138042
0.00152013
0.00176154
0.00214763
0.00223794
0.00226934
0.00195879
0.00144593
0.00104514
0.00252475
0.00279839
0.0031173
0.00281627
0.00299894
0.00254285
0.00233972
0.00174973
0.00127145
0.00131174
0.00105403
0.000957601
0.00126411
0.00145083
0.00167971
0.00201305
0.00156368
0.00138793
0.00105388
0.000630987
0.00171919
0.00186152
0.00198561
0.00206325
0.00213995
0.00176183
0.00155656
0.00113184
0.00105085
0.000564067
0.000702032
0.000912079
0.000904467
0.000904043
0.00116782
0.00134449
0.00138388
0.00113608
0.000778607
0.00042921
0.000946628
0.00120137
0.00142011
0.0016454
0.00153196
0.00101724
0.00110619
0.000608984
0.000536303
0.000543884
0.000410433
0.000299353
0.000748278
0.000687
0.000857564
0.000680388
0.000587823
0.000459633
0.000423345
0.000363804
0.000423428
0.000774853
0.000586366
0.000294995
0.000401918
0.000437915
0.000275312
0.000300436
0.000133449
0.000173839
1.64915e-05
0.000228637
0.000202543
0.000211029
0.000234959
0.000256754
0.000235049
0.00026948
6.13883e-05
0.000257052
0.00536678
0.00626258
0.0071095
0.00727624
0.00750889
0.00689577
0.00631336
0.00559673
0.00506067
0.00461949
0.00433136
0.00441466
0.00455792
0.00481052
0.0052001
0.00501957
0.00458143
0.00391064
0.0029365
0.00185853
0.00457376
0.00539549
0.006181
0.00627791
0.00639543
0.00598821
0.005554
0.004764
0.00439587
0.0037265
0.00368092
0.00360472
0.00394801
0.00403771
0.00424692
0.00419216
0.00413896
0.00345872
0.00247331
0.00139109
0.00374432
0.00450385
0.00500347
0.00560383
0.005419
0.00473544
0.00439795
0.00409202
0.00347014
0.00321539
0.00308255
0.00290164
0.00295454
0.00311134
0.00344775
0.00349483
0.00336305
0.00271423
0.0020036
0.00110222
0.00318323
0.00363758
0.00425342
0.00444708
0.00433501
0.00427285
0.00357378
0.00324003
0.0026839
0.00250281
0.00226673
0.00223333
0.00250927
0.0028013
0.0027903
0.00307481
0.00271747
0.00240452
0.00149241
0.000987271
0.00241712
0.00296866
0.00322014
0.00338355
0.00355058
0.00324731
0.00296043
0.00235657
0.00236561
0.00180728
0.00167851
0.00178266
0.00189408
0.00209161
0.00223455
0.00219023
0.0019768
0.00153503
0.00113894
0.000815768
0.00189558
0.00209561
0.00246289
0.00235895
0.0025839
0.00245781
0.00197525
0.00179395
0.00161491
0.00160223
0.00141806
0.00131116
0.00138854
0.00141616
0.00153782
0.00154551
0.00140033
0.00142424
0.000719605
0.000456684
0.00102974
0.00139838
0.00137269
0.00164547
0.00149391
0.00145578
0.00101633
0.000985417
0.000940763
0.00104958
0.000826397
0.00078234
0.000772144
0.00115038
0.000972764
0.00123581
0.000797664
0.000788527
0.000549163
0.000230115
0.000460194
0.000169661
0.000652381
0.000726226
0.000406945
0.000518393
0.000279217
0.000430829
0.000255573
0.000210224
0.000141962
0.000173251
0.000144498
0.000407765
0.000376914
0.000273519
0.000335642
0.000244084
6.57038e-05
0.000158943
0.00482687
0.00617048
0.0069824
0.00757174
0.00772754
0.00753508
0.00719089
0.00641465
0.00616729
0.00565139
0.00528455
0.00544239
0.00555819
0.00561077
0.00557627
0.005388
0.0048252
0.00400004
0.00278652
0.00121874
0.00398988
0.00493
0.00593879
0.00640665
0.00692343
0.00634084
0.00608521
0.00561878
0.00503571
0.00490868
0.00459628
0.00478089
0.00457405
0.00472104
0.00488954
0.0046087
0.00393484
0.00325977
0.00231423
0.00101709
0.00367766
0.00418684
0.00486851
0.00540669
0.00560899
0.00547112
0.00522411
0.00481862
0.00443902
0.00396877
0.00406427
0.00379696
0.00383711
0.00384243
0.00412833
0.00385602
0.00343802
0.00270027
0.00176285
0.000776592
0.00271189
0.00356064
0.00396994
0.00443919
0.00465696
0.00443482
0.00434697
0.00392178
0.0034575
0.00338954
0.00316857
0.00310896
0.00339748
0.0033345
0.00322243
0.00322581
0.00296476
0.00240717
0.0013959
0.000595332
0.00211754
0.00285598
0.00321291
0.00334862
0.00362323
0.00351482
0.0033341
0.003043
0.00259945
0.00259645
0.00251253
0.00226752
0.00257054
0.00245539
0.00246329
0.00268546
0.00211802
0.00172397
0.00122231
0.000382644
0.00168018
0.00207316
0.00226993
0.00249894
0.00275067
0.00222739
0.00246602
0.00204859
0.00195642
0.00184995
0.00183909
0.00200953
0.00189643
0.0018475
0.0016416
0.00186811
0.00136465
0.00112864
0.000752633
3.24451e-05
0.0010687
0.00119571
0.00135576
0.00149593
0.00153753
0.00158628
0.0014784
0.00149007
0.0012911
0.00110468
0.00111122
0.00096829
0.0010485
0.00102508
0.00125657
0.00105675
0.00101242
0.000642312
0.000369927
5.54259e-06
0.000230298
0.000308519
0.000444065
0.000572933
0.00057069
0.000586541
0.000550446
0.00024098
0.000228325
0.000331688
0.000494398
0.000499463
0.00027476
9.69999e-05
0.000467477
0.000411429
0.000169662
0.000285997
0.000297173
9.1282e-05
0.00354777
0.00510605
0.00618067
0.00697226
0.00746758
0.00744731
0.00724135
0.0068229
0.006437
0.00630116
0.00591325
0.00592995
0.00567194
0.00578467
0.00562173
0.00519745
0.00433091
0.00332054
0.00206985
0.00036453
0.00308538
0.00426462
0.00528203
0.00615083
0.00636299
0.006327
0.0061346
0.00593557
0.00564706
0.0051899
0.00503645
0.0049264
0.00495949
0.00497375
0.00450347
0.00425871
0.00357613
0.00248624
0.00152063
0.000123134
0.0025353
0.00363764
0.00432921
0.00507708
0.00534743
0.00539808
0.0051733
0.00488334
0.00475621
0.004403
0.00453402
0.00417868
0.00419487
0.00425017
0.00400412
0.00363112
0.0030133
0.0021762
0.000963712
1.08052e-06
0.00193448
0.00295805
0.00372438
0.00416247
0.00426544
0.00429349
0.00416432
0.00403401
0.00370296
0.00371466
0.00339722
0.00340311
0.00344026
0.00328101
0.00322512
0.00308525
0.0025896
0.00189618
0.00109653
1.51424e-05
0.00164383
0.00243746
0.0031278
0.00326224
0.00331956
0.00358013
0.00320084
0.00314914
0.00292956
0.00270931
0.00262946
0.00250946
0.0026556
0.00274204
0.00235927
0.0022565
0.00168393
0.00135864
0.000584902
9.3135e-06
0.00118864
0.00151995
0.00207686
0.0022906
0.00252688
0.00252061
0.00251688
0.00230046
0.00231605
0.00196844
0.00193096
0.00183478
0.00208999
0.00164829
0.00180424
0.00162589
0.00123597
0.000922589
0.000233212
0.000290249
0.000715242
0.00107391
0.00112631
0.00137966
0.00153075
0.00149247
0.00135689
0.00144474
0.00142959
0.00130022
0.0012676
0.00106182
0.00095201
0.00132003
0.000983799
0.00117916
0.000723894
0.000719682
0.000393719
0.000189459
0.000237136
0.000110791
0.000548425
0.000337707
0.000568136
0.000463239
0.000512071
0.000559639
0.000271893
0.000452707
0.000656689
0.000222685
0.000414141
0.000342336
0.000502014
8.2667e-05
0.00037267
0.000432168
0.00035103
0.000138984
0.00183415
0.00339438
0.00491409
0.00569898
0.00636575
0.0066937
0.00674962
0.00664972
0.00637628
0.00607126
0.00575568
0.00556174
0.00552113
0.00532416
0.00474317
0.0040886
0.00329393
0.00172845
0.000121446
0.00175204
0.00155758
0.00279503
0.00410091
0.00476727
0.00548019
0.00576351
0.00575133
0.00542797
0.00532796
0.00513422
0.00498381
0.00497061
0.00461499
0.00439797
0.00396849
0.00366409
0.002646
0.00159729
0.000188421
0.00136125
0.00125987
0.00229525
0.0034044
0.00415055
0.00456323
0.00491174
0.00497394
0.00467211
0.00451542
0.00443021
0.00413526
0.00412524
0.00376646
0.00362522
0.00350158
0.00282473
0.00205869
0.00124311
7.02897e-05
0.00145769
0.000998148
0.00196806
0.00276859
0.00338631
0.003747
0.00380782
0.00392968
0.00391417
0.00378655
0.00336788
0.00354548
0.00319639
0.00314615
0.00301862
0.00267615
0.00228355
0.00179835
0.000992657
0.000143307
0.00095721
0.000680483
0.00139452
0.00216353
0.0027136
0.00281329
0.00313753
0.00301932
0.00295505
0.00276895
0.00272768
0.00274049
0.00252546
0.00243035
0.00244805
0.00216887
0.0017156
0.00145347
0.000578414
8.61586e-05
0.000759013
0.000484466
0.00111569
0.00167736
0.00190475
0.0024898
0.00231008
0.00238882
0.00224759
0.00206096
0.00195805
0.00174062
0.00181401
0.00186348
0.00172326
0.0016353
0.00112221
0.00090087
0.000366696
0.000282974
0.000668946
0.000382982
0.000628468
0.000887099
0.000970475
0.00112908
0.00126572
0.00137437
0.00110893
0.00123788
0.00134246
0.00109064
0.00104655
0.000987285
0.00104489
0.00101233
0.000766805
0.000678015
0.000248338
0.000275898
0.000503563
0.000179899
0.000320971
0.000512963
0.000400518
0.000482955
0.000421716
0.000500173
0.000370896
0.000526535
0.00040832
0.000494853
0.00031849
0.000330897
0.000266569
0.000232024
0.000225927
0.000317603
9.4208e-05
0.000119412
7.32645e-05
0.000498555
0.00118646
0.00282569
0.0039548
0.00493136
0.00512347
0.00559877
0.00566282
0.0052471
0.00525764
0.0050398
0.00461363
0.00448112
0.0038158
0.00335973
0.00245455
0.00132482
6.38525e-05
0.00214555
0.00375534
0.000578609
0.000943224
0.00236564
0.00344275
0.00401485
0.00441719
0.00478952
0.00473502
0.00456164
0.0042301
0.00416595
0.00380896
0.00351731
0.00308661
0.0027421
0.00214335
0.000847075
0.000430455
0.00200932
0.00362988
0.000607148
0.000796676
0.00188496
0.00276243
0.00347473
0.00365429
0.00378086
0.00389348
0.00362326
0.00358335
0.00354662
0.00332503
0.00310451
0.00284343
0.00215195
0.00160171
0.00094319
0.000408179
0.00186253
0.00340002
0.000485432
0.000325204
0.00152733
0.00203887
0.00268792
0.00302399
0.00320223
0.00301822
0.00312483
0.00309498
0.00275554
0.00270473
0.00247811
0.00216571
0.00173583
0.00148306
0.000359419
0.00046983
0.00166479
0.00279384
0.000583994
0.000406565
0.0012002
0.00175736
0.00191776
0.00232547
0.00235629
0.00257139
0.00249026
0.00217038
0.00217191
0.00212534
0.00188188
0.00171998
0.0014054
0.0010806
0.000339691
0.000206783
0.00146185
0.00215161
0.000384567
5.86658e-05
0.000599348
0.00138938
0.00143514
0.00187112
0.0017827
0.0015476
0.00157703
0.00169544
0.00168038
0.00129241
0.00126577
0.00118488
0.00101875
0.000593579
0.000135853
0.000255423
0.00108149
0.00142391
0.000331331
0.00017503
0.000401298
0.000658345
0.000818977
0.000975104
0.000935185
0.00111658
0.00114557
0.00106056
0.000861811
0.000599091
0.000573715
0.000618261
0.000470823
0.00035842
1.24728e-05
0.000215408
0.000704015
0.00104197
0.000110284
0.000282392
0.000165373
1.40069e-05
0.000333556
0.000303879
0.000259525
0.000589424
0.000492806
0.000434873
0.000326415
0.00052034
0.000271072
0.000360037
0.000185703
0.000192057
5.20116e-05
9.47584e-06
0.000259047
0.000486197
0.00357699
0.00171515
3.18891e-05
0.00126659
0.00233753
0.00306188
0.00342475
0.00384877
0.00354914
0.00353058
0.00335177
0.00294818
0.00250276
0.00202356
0.00129336
0.000215795
0.0013791
0.00306144
0.00497079
0.00689489
0.00331573
0.0015493
0.000241073
0.00106548
0.00199883
0.00257588
0.0029958
0.00300148
0.00287839
0.00305499
0.00283056
0.00235772
0.0020588
0.00150266
0.000939193
0.000114089
0.00130997
0.00277783
0.00471192
0.00626008
0.00311839
0.00180259
0.000246282
0.000833785
0.00138704
0.00225222
0.00237245
0.00240297
0.00248251
0.0021286
0.00215388
0.00208431
0.00154542
0.00128504
0.000607091
0.000144842
0.000952339
0.00253728
0.00410435
0.00519189
0.00240078
0.00131672
0.000317927
0.000514668
0.00110502
0.00161788
0.00195483
0.00205644
0.00204268
0.00192008
0.00171492
0.00154234
0.00140721
0.0010203
0.000499297
9.77352e-05
0.00105751
0.00231561
0.00342329
0.00454639
0.00213114
0.00143202
0.000464012
0.000477385
0.000906619
0.0011697
0.00137018
0.00161793
0.00164315
0.00131954
0.00128576
0.00101668
0.000928492
0.000706807
0.000311328
0.000168884
0.000871161
0.00180173
0.00283619
0.0036107
0.0014321
0.000974011
0.00034193
0.000284618
0.000685941
0.000918048
0.00117206
0.00119607
0.00103686
0.00105916
0.00107023
0.000807192
0.000507949
0.000494939
0.000372928
0.000195572
0.00056885
0.00125574
0.00223854
0.00269465
0.00116283
0.000509934
0.000159671
0.000133143
0.000384916
0.000282995
0.000520426
0.000466139
0.000568618
0.000662592
0.00060662
0.000527168
0.000413842
0.000257406
4.76704e-05
0.000218954
0.000449773
0.000902943
0.00106962
0.0017747
0.000208863
0.000261406
5.04387e-05
9.0995e-05
0.000182092
0.00018711
0.000325468
0.000399664
1.45706e-05
0.00031091
0.000130493
0.000192897
0.000162101
0.000123428
5.60692e-05
0.000228552
0.000211719
0.000183645
0.00046262
0.000612187
0.00734466
0.00550219
0.00351802
0.00165611
0.000698779
0.000282962
0.000614736
0.00106337
0.00102504
0.00109053
0.000921966
0.000509793
8.19594e-05
0.000719409
0.00147384
0.0026545
0.00438449
0.00630276
0.00864907
0.0106928
0.00659269
0.00479368
0.00327909
0.00195294
0.000704283
3.53591e-05
0.000527935
0.000721306
0.000837588
0.000749532
0.000448325
0.000131429
0.000404622
0.000910703
0.00171997
0.00262178
0.00406537
0.00583898
0.00758123
0.00959999
0.00579576
0.00439685
0.00268762
0.00182198
0.000909586
0.00018031
0.000327782
0.000563036
0.000523531
0.000221303
0.000243737
5.56241e-05
0.000410632
0.000847708
0.00172433
0.00261811
0.00387809
0.00525642
0.00708704
0.00850103
0.00468908
0.00375701
0.00246499
0.00143373
0.000618665
0.000204099
0.000277351
0.000287067
0.000425364
0.000276667
0.000342865
0.000160899
0.000472242
0.000945714
0.00160331
0.00219157
0.00314181
0.00441845
0.00569139
0.00689657
0.00396834
0.00302633
0.00225448
0.00132461
0.000791526
9.33082e-05
5.1887e-05
0.000222711
0.000116323
0.000209091
0.000113458
1.05421e-05
0.000422821
0.000696658
0.00108743
0.00191048
0.00258312
0.00361275
0.00455942
0.00569858
0.00292655
0.00233156
0.00174834
0.000971499
0.000518853
6.56531e-05
5.3213e-05
6.61291e-05
0.000156382
0.000102363
1.33285e-05
3.68512e-05
0.000290978
0.000634913
0.00100744
0.00122927
0.00193641
0.00274909
0.00345241
0.00421295
0.00147051
0.00138179
0.000898796
0.000627891
0.000310865
4.14355e-05
4.68755e-05
0.000138893
9.82971e-05
3.90296e-05
7.90889e-05
0.000120201
0.000357194
0.000455188
0.000554762
0.000686459
0.00128312
0.00174234
0.00216115
0.00249467
0.000489545
0.000395953
0.000396247
0.000243178
0.000199045
4.01464e-05
1.49888e-05
5.00154e-05
8.63337e-05
8.47062e-05
0.000156774
5.50136e-05
0.000243862
0.000199428
4.61608e-05
0.000353526
0.000483689
0.000564706
0.000728756
0.00105744
0.0119253
0.0096321
0.00766144
0.00604558
0.00447849
0.00351944
0.00252408
0.00224239
0.00208692
0.00203117
0.00234371
0.00281594
0.0033512
0.00404997
0.005218
0.00668661
0.00825932
0.0104126
0.0127357
0.015145
0.0103127
0.00880861
0.00680756
0.00542247
0.00411048
0.00325102
0.00255238
0.0022591
0.0020796
0.00209183
0.00215978
0.00273577
0.00309246
0.00390745
0.00474913
0.00602596
0.00769466
0.00922903
0.0116067
0.013521
0.0091976
0.00763482
0.00622274
0.00465916
0.00366532
0.00271931
0.00226967
0.0020969
0.0019514
0.00202915
0.00208396
0.00245263
0.00297279
0.00338209
0.004234
0.0052437
0.0069043
0.00830893
0.0100278
0.0115456
0.00767236
0.00648426
0.00521761
0.00381706
0.00308898
0.00248646
0.00223169
0.00209313
0.00166688
0.00164326
0.00199878
0.00184703
0.00256582
0.00315735
0.0039999
0.00464641
0.00570504
0.00692863
0.00840241
0.00997579
0.0059006
0.00523314
0.00413627
0.00315524
0.00268388
0.00196676
0.00164865
0.00149144
0.00145529
0.00144692
0.00151315
0.00196838
0.00222826
0.00258132
0.0030067
0.00360188
0.0045347
0.00561847
0.00673521
0.00797067
0.00455549
0.00375479
0.00299524
0.00246219
0.00187172
0.00149338
0.00125431
0.00108447
0.000823227
0.000982898
0.00126944
0.00146
0.00157497
0.00199115
0.00204931
0.0025643
0.00352002
0.00406353
0.00519501
0.00552345
0.00284224
0.0024146
0.00185635
0.00151445
0.00124884
0.00084244
0.000974069
0.000646563
0.00062058
0.000683219
0.000825245
0.000680297
0.00094849
0.00105475
0.00154258
0.0015793
0.00196437
0.00261759
0.00324687
0.00367713
0.00104924
0.00101978
0.000872874
0.0004255
0.000342726
0.000439483
0.000165351
0.000423247
0.000303155
0.000270288
0.000105867
0.000313617
0.000429536
0.000436661
0.000444461
0.000684151
0.000736343
0.00087899
0.00104646
0.00132924
0.0168708
0.0146388
0.0123789
0.0103562
0.00886426
0.00760495
0.00664453
0.00639932
0.00614018
0.00625408
0.00627929
0.00666114
0.00747544
0.00848108
0.00940319
0.0110978
0.0129266
0.0151074
0.0175118
0.0200443
0.0149063
0.0130405
0.0111968
0.00925002
0.00819497
0.00700134
0.00621316
0.00588652
0.00548826
0.00547395
0.00565962
0.00612533
0.00679977
0.00750761
0.00879409
0.00994081
0.0115867
0.013738
0.0157264
0.0178612
0.0128868
0.0115176
0.00971824
0.00829991
0.00708171
0.00620835
0.00557821
0.00514366
0.00478308
0.00512519
0.00520369
0.00552516
0.00606741
0.00671121
0.00764922
0.00866283
0.0103352
0.0119269
0.0138252
0.0154468
0.0109275
0.00964969
0.00811227
0.0072778
0.00606414
0.00525474
0.00479703
0.00433148
0.00416999
0.00423781
0.00439174
0.00468618
0.00506944
0.00552562
0.00650325
0.00745436
0.00872827
0.0101996
0.0117219
0.0133229
0.00889212
0.00750384
0.00655447
0.00554428
0.00476423
0.00424165
0.00394162
0.00350308
0.00360589
0.00352822
0.00352628
0.00382792
0.00406707
0.00464203
0.00521175
0.00601559
0.00704511
0.00814665
0.0093587
0.0103864
0.00632128
0.00566839
0.00485323
0.0041393
0.00380216
0.00302378
0.00281197
0.00255747
0.00257918
0.00252498
0.00270868
0.00276832
0.00306062
0.00323791
0.00383301
0.00429869
0.00504509
0.00599306
0.00670758
0.00776066
0.00391552
0.00374962
0.0031395
0.00256207
0.00205643
0.00211516
0.00184098
0.00160163
0.00182549
0.00167211
0.0014961
0.00171943
0.00195091
0.00196873
0.00231702
0.00256938
0.00328823
0.00352914
0.00429368
0.00477436
0.00137026
0.00120596
0.0007959
0.000713197
0.000828892
0.000624066
0.000486844
0.000669434
0.000628368
0.000832271
0.000392368
0.000551392
0.000666177
0.000792616
0.000725456
0.00108504
0.00105096
0.00116307
0.00130103
0.00157329
0.02234
0.0199831
0.0174906
0.0156236
0.0137318
0.0124706
0.011643
0.0111349
0.0107847
0.0108464
0.0108881
0.0113116
0.0121686
0.0131691
0.0145023
0.0160166
0.0180967
0.0204737
0.0230417
0.0256061
0.0197826
0.017849
0.0157789
0.013853
0.0126076
0.0114301
0.0105596
0.0100345
0.00973408
0.0096034
0.00996775
0.0101886
0.0108918
0.0118276
0.0128683
0.0143689
0.0162524
0.0184149
0.0205283
0.022754
0.0172969
0.0155434
0.0137868
0.0123072
0.0109448
0.00998829