/*--------------------------------*- C++ -*----------------------------------*\
| =========                 |                                                 |
| \\      /  F ield         | OpenFOAM: The Open Source CFD Toolbox           |
|  \\    /   O peration     | Version:  2212                                  |
|   \\  /    A nd           | Website:  www.openfoam.com                      |
|    \\/     M anipulation  |                                                 |
\*---------------------------------------------------------------------------*/
FoamFile
{
    version     2.0;
    format      ascii;
    arch        "LSB;label=32;scalar=64";
    class       volScalarField;
    location    "0";
    object      stateMean;
}
// * * * * * * * * * * * * * * * * * * * * * * * * * * * * * * * * * * * * * //

dimensions      [0 0 0 1 0 0 0];

internalField   nonuniform List<scalar> 
3200
(
342.902
343.78
344.784
345.659
346.43
347.091
347.563
347.958
348.149
348.278
348.156
347.996
347.713
347.168
346.408
345.742
344.814
343.84
342.784
341.804
337.219
338.011
338.889
339.625
340.277
340.928
341.292
341.59
341.725
341.837
341.748
341.563
341.256
340.856
340.243
339.628
338.829
337.925
337.092
336.337
331.567
332.117
332.848
333.508
334.183
334.631
334.962
335.219
335.394
335.373
335.348
335.141
334.972
334.562
334.054
333.505
332.898
332.158
331.325
330.736
325.854
326.303
326.852
327.485
327.92
328.293
328.618
328.795
328.914
328.946
328.859
328.77
328.592
328.244
327.897
327.446
326.937
326.42
325.675
325.157
320.084
320.511
320.946
321.389
321.607
322.064
322.237
322.438
322.507
322.536
322.548
322.381
322.275
321.976
321.695
321.369
320.999
320.526
319.94
319.671
314.328
314.653
315.075
315.279
315.576
315.724
315.92
316.033
316.037
316.024
316.118
316.004
315.947
315.708
315.532
315.284
314.898
314.676
314.317
314.047
308.666
308.79
309.013
309.103
309.3
309.423
309.559
309.67
309.687
309.662
309.633
309.648
309.588
309.43
309.317
309.076
308.996
308.82
308.628
308.459
302.893
302.907
302.929
303.09
303.169
303.171
303.204
303.289
303.262
303.239
303.22
303.192
303.272
303.188
303.138
303.069
302.988
302.93
302.872
302.871
343.65
344.67
345.625
346.539
347.384
347.967
348.485
348.9
349.048
349.257
349.041
348.884
348.532
348.004
347.309
346.576
345.651
344.63
343.59
342.627
337.881
338.625
339.574
340.295
341.045
341.566
342.04
342.329
342.504
342.61
342.45
342.308
341.969
341.576
341.076
340.29
339.533
338.705
337.753
336.971
332.171
332.693
333.471
334.125
334.65
335.117
335.52
335.809
335.896
335.992
336.03
335.765
335.525
335.12
334.653
334.067
333.446
332.716
331.931
331.216
326.283
326.805
327.362
327.859
328.382
328.801
329.062
329.253
329.455
329.388
329.43
329.286
329.039
328.768
328.389
327.888
327.358
326.747
326.137
325.626
320.448
320.789
321.307
321.673
322.089
322.348
322.52
322.788
322.87
322.954
322.822
322.673
322.583
322.345
322.103
321.729
321.257
320.843
320.365
319.883
314.55
314.869
315.201
315.54
315.819
315.997
316.095
316.229
316.349
316.428
316.367
316.276
316.15
315.957
315.797
315.458
315.238
314.882
314.472
314.21
308.87
308.917
309.063
309.274
309.49
309.665
309.749
309.738
309.85
309.846
309.79
309.773
309.756
309.565
309.47
309.296
309.084
308.869
308.718
308.502
302.926
303.028
303.117
303.079
303.12
303.227
303.274
303.26
303.249
303.287
303.226
303.337
303.218
303.231
303.213
303.166
303.078
303.04
302.911
302.873
344.828
345.708
346.714
347.669
348.488
349.204
349.689
350.039
350.289
350.356
350.273
350.093
349.708
349.222
348.567
347.653
346.775
345.751
344.687
343.623
338.787
339.614
340.44
341.238
341.959
342.537
342.966
343.372
343.584
343.547
343.586
343.353
343.016
342.619
341.905
341.248
340.452
339.665
338.688
337.829
332.804
333.445
334.216
334.927
335.42
336.006
336.361
336.642
336.783
336.823
336.793
336.565
336.385
335.99
335.482
334.864
334.21
333.486
332.724
332.002
326.88
327.374
328.002
328.544
329.061
329.404
329.754
329.962
330.068
330.132
330.092
329.983
329.694
329.357
329.036
328.579
327.956
327.418
326.76
326.149
320.871
321.301
321.701
322.222
322.545
322.89
323.108
323.366
323.349
323.401
323.406
323.333
323.101
322.894
322.556
322.138
321.74
321.234
320.687
320.418
314.909
315.193
315.567
315.824
316.096
316.312
316.517
316.622
316.792
316.738
316.736
316.65
316.511
316.327
316.173
315.882
315.556
315.169
314.835
314.538
308.94
309.151
309.328
309.512
309.663
309.788
309.849
310.006
310.077
309.974
310.014
309.985
309.999
309.86
309.702
309.518
309.435
309.077
308.898
308.776
303.037
303.014
303.112
303.138
303.264
303.238
303.371
303.39
303.309
303.358
303.383
303.377
303.307
303.3
303.261
303.159
303.157
303.039
303.037
302.894
345.975
346.858
347.933
348.808
349.67
350.448
350.964
351.338
351.573
351.619
351.556
351.306
350.875
350.384
349.699
348.913
347.911
346.829
345.826
344.768
339.767
340.621
341.405
342.283
343.04
343.601
344.109
344.361
344.551
344.693
344.641
344.374
344.061
343.665
343.012
342.309
341.5
340.624
339.582
338.689
333.66
334.313
335.02
335.619
336.296
336.789
337.224
337.511
337.762
337.747
337.763
337.538
337.29
336.903
336.355
335.774
335.049
334.285
333.452
332.762
327.475
328.029
328.662
329.19
329.685
330.07
330.456
330.667
330.786
330.891
330.8
330.743
330.446
330.174
329.71
329.192
328.737
328.087
327.42
326.864
321.487
321.847
322.213
322.663
323.195
323.419
323.685
323.861
323.929
324.044
323.911
323.898
323.589
323.386
323.13
322.735
322.331
321.756
321.253
320.857
315.339
315.63
315.893
316.157
316.519
316.79
316.921
317.057
317.104
317.104
317.138
317.073
316.873
316.813
316.502
316.216
315.919
315.518
315.202
314.899
309.212
309.364
309.568
309.71
309.904
310.031
310.151
310.264
310.222
310.355
310.221
310.178
310.171
310.006
309.91
309.785
309.566
309.35
309.11
308.919
303.03
303.13
303.223
303.274
303.348
303.356
303.43
303.37
303.378
303.462
303.422
303.416
303.385
303.347
303.291
303.309
303.158
303.091
303.097
302.933
347.022
348.013
349.08
350.054
350.904
351.52
352.218
352.496
352.871
352.883
352.813
352.58
352.166
351.659
350.923
350.131
349.127
347.999
346.889
345.796
340.679
341.515
342.396
343.327
344.082
344.649
345.118
345.443
345.688
345.756
345.731
345.468
345.188
344.716
344.053
343.376
342.44
341.539
340.545
339.672
334.449
335.171
335.869
336.624
337.224
337.758
338.189
338.407
338.585
338.663
338.587
338.448
338.151
337.727
337.218
336.645
335.945
335.182
334.355
333.582
328.193
328.671
329.293
329.917
330.447
330.847
331.234
331.497
331.612
331.586
331.555
331.47
331.173
330.881
330.398
329.982
329.365
328.713
328.035
327.468
321.846
322.318
322.787
323.336
323.714
323.964
324.221
324.412
324.577
324.586
324.516
324.407
324.292
323.918
323.686
323.318
322.901
322.326
321.795
321.368
315.67
315.94
316.332
316.722
316.923
317.179
317.331
317.424
317.486
317.604
317.573
317.472
317.334
317.069
316.92
316.636
316.329
315.924
315.59
315.251
309.39
309.593
309.847
309.921
310.193
310.342
310.441
310.518
310.474
310.514
310.544
310.425
310.403
310.325
310.111
310.052
309.872
309.605
309.309
309.122
303.166
303.203
303.265
303.418
303.383
303.517
303.451
303.504
303.512
303.602
303.566
303.498
303.48
303.385
303.442
303.326
303.224
303.256
303.135
303.036
348.123
349.117
350.143
351.146
352.061
352.727
353.312
353.729
353.974
354.034
353.975
353.785
353.325
352.844
352.088
351.219
350.328
349.152
348
346.899
341.619
342.493
343.381
344.343
345.04
345.721
346.227
346.503
346.717
346.757
346.786
346.559
346.15
345.77
345.086
344.37
343.49
342.583
341.49
340.576
335.201
335.929
336.688
337.37
338.016
338.587
339.006
339.307
339.509
339.545
339.518
339.268
339.054
338.645
338.124
337.462
336.701
336.011
335.077
334.396
328.732
329.393
330.024
330.51
331.104
331.571
331.98
332.123
332.332
332.332
332.304
332.192
331.909
331.6
331.133
330.647
330.127
329.345
328.641
328.045
322.39
322.843
323.314
323.857
324.158
324.545
324.796
325.048
325.111
325.144
325.109
325.037
324.728
324.544
324.209
323.763
323.372
322.849
322.292
321.796
316.01
316.298
316.738
316.992
317.301
317.456
317.695
317.885
317.979
317.987
317.916
317.801
317.738
317.525
317.247
316.996
316.702
316.287
315.973
315.585
309.611
309.753
310.008
310.218
310.368
310.497
310.634
310.715
310.757
310.78
310.656
310.78
310.63
310.507
310.376
310.262
310.015
309.804
309.533
309.383
303.227
303.289
303.368
303.411
303.433
303.51
303.544
303.629
303.628
303.59
303.611
303.602
303.585
303.495
303.508
303.488
303.352
303.281
303.234
303.118
349.061
350.058
351.15
352.264
353.23
353.944
354.419
354.892
355.134
355.299
355.19
354.962
354.527
353.89
353.284
352.331
351.366
350.158
348.95
347.878
342.479
343.348
344.362
345.177
346.041
346.621
347.128
347.408
347.748
347.786
347.728
347.566
347.223
346.705
346.053
345.254
344.414
343.432
342.381
341.488
335.875
336.692
337.534
338.2
338.917
339.47
339.749
340.18
340.308
340.326
340.416
340.212
339.831
339.511
338.878
338.319
337.586
336.688
335.851
335.083
329.297
329.972
330.602
331.201
331.751
332.251
332.603
332.804
333.006
333.035
332.945
332.848
332.58
332.222
331.824
331.275
330.686
329.992
329.279
328.735
322.905
323.31
323.835
324.198
324.724
325.026
325.369
325.518
325.607
325.749
325.665
325.505
325.36
325.081
324.747
324.405
323.794
323.277
322.748
322.295
316.332
316.601
316.941
317.294
317.651
317.853
318.079
318.187
318.336
318.273
318.317
318.292
318.114
317.872
317.665
317.399
317.079
316.672
316.259
315.925
309.778
309.99
310.239
310.505
310.67
310.703
310.906
310.897
310.98
311.036
310.995
310.906
310.94
310.775
310.653
310.406
310.177
309.941
309.749
309.598
303.308
303.459
303.463
303.439
303.539
303.615
303.624
303.68
303.665
303.696
303.638
303.693
303.65
303.604
303.553
303.495
303.421
303.367
303.243
303.258
350.047
351.054
352.224
353.219
354.244
354.936
355.553
355.981
356.281
356.382
356.28
356.052
355.614
355.022
354.338
353.369
352.274
351.106
349.893
348.825
343.329
344.198
345.222
346.064
346.921
347.566
348.127
348.442
348.738
348.728
348.712
348.464
348.159
347.602
346.964
346.161
345.328
344.288
343.198
342.241
336.607
337.349
338.152
339.036
339.665
340.097
340.582
340.977
341.123
341.224
341.178
340.929
340.59
340.146
339.661
339.015
338.281
337.381
336.509
335.721
329.979
330.521
331.241
331.862
332.39
332.911
333.169
333.465
333.572
333.665
333.586
333.422
333.222
332.913
332.42
331.973
331.291
330.631
329.814
329.257
323.291
323.769
324.252
324.738
325.23
325.553
325.84
325.959
326.19
326.126
326.084
326
325.809
325.558
325.224
324.789
324.283
323.707
323.179
322.774
316.688
316.964
317.366
317.642
318.026
318.286
318.405
318.572
318.677
318.758
318.699
318.58
318.444
318.227
317.994
317.696
317.338
317.037
316.529
316.233
309.984
310.224
310.387
310.657
310.798
310.967
310.993
311.118
311.201
311.286
311.217
311.152
311.052
311.034
310.817
310.718
310.394
310.206
309.961
309.736
303.38
303.333
303.537
303.621
303.587
303.681
303.664
303.755
303.735
303.738
303.717
303.71
303.668
303.703
303.638
303.547
303.503
303.413
303.302
303.288
350.912
352.038
353.146
354.228
355.162
355.937
356.575
356.927
357.289
357.341
357.211
357.032
356.623
356.015
355.245
354.338
353.262
352.1
350.854
349.652
344.04
344.917
345.973
346.891
347.832
348.359
348.926
349.308
349.493
349.652
349.543
349.405
348.945
348.453
347.857
347.032
346.039
345.051
344.019
343.022
337.352
337.984
338.811
339.631
340.343
340.912
341.383
341.704
341.903
341.914
341.946
341.684
341.37
340.914
340.457
339.75
338.966
338.079
337.168
336.377
330.452
331.101
331.723
332.4
332.999
333.427
333.851
334.084
334.198
334.315
334.242
334.081
333.91
333.514
333.025
332.524
331.912
331.206
330.387
329.754
323.681
324.203
324.696
325.146
325.644
325.999
326.292
326.488
326.552
326.66
326.633
326.444
326.335
326.007
325.657
325.339
324.747
324.214
323.675
323.121
316.967
317.292
317.623
317.986
318.356
318.47
318.796
318.871
318.99
319.034
319.031
319.007
318.822
318.6
318.284
318.076
317.626
317.262
316.874
316.445
310.204
310.363
310.573
310.791
310.978
311.161
311.279
311.406
311.434
311.422
311.424
311.333
311.269
311.138
311.058
310.829
310.641
310.352
310.107
309.871
303.38
303.443
303.538
303.635
303.693
303.754
303.793
303.741
303.767
303.814
303.863
303.85
303.751
303.655
303.718
303.645
303.512
303.49
303.439
303.338
351.665
352.827
353.974
355.067
356.057
356.826
357.449
357.874
358.146
358.312
358.174
357.965
357.465
356.932
356.179
355.255
354.136
352.968
351.762
350.55
344.766
345.693
346.707
347.712
348.49
349.149
349.684
350.111
350.364
350.39
350.337
350.113
349.771
349.281
348.516
347.762
346.822
345.742
344.748
343.748
337.843
338.647
339.439
340.287
340.975
341.559
341.992
342.312
342.568
342.603
342.648
342.371
342.077
341.678
341.085
340.393
339.588
338.712
337.745
336.989
330.91
331.595
332.303
332.935
333.456
333.93
334.302
334.6
334.735
334.866
334.76
334.635
334.402
334.008
333.574
333.064
332.414
331.698
330.98
330.276
324.083
324.606
325.183
325.605
326.002
326.447
326.646
326.895
327.013
327.04
327.014
326.876
326.734
326.497
326.049
325.656
325.093
324.609
324.006
323.548
317.208
317.501
317.929
318.266
318.611
318.867
319.096
319.217
319.357
319.317
319.305
319.204
319.15
318.82
318.639
318.325
317.931
317.563
317.093
316.739
310.332
310.555
310.723
310.962
311.172
311.314
311.41
311.551
311.628
311.631
311.621
311.513
311.398
311.399
311.156
311.062
310.759
310.596
310.344
310.169
303.461
303.461
303.643
303.634
303.757
303.778
303.839
303.891
303.832
303.901
303.962
303.817
303.847
303.787
303.789
303.56
303.644
303.608
303.534
303.347
352.413
353.537
354.788
355.819
356.805
357.632
358.286
358.771
359.044
359.128
359.016
358.753
358.369
357.779
356.939
355.998
354.968
353.663
352.298
351.152
345.407
346.321
347.389
348.271
349.168
349.881
350.426
350.764
351.049
351.149
351.096
350.925
350.48
349.954
349.257
348.537
347.536
346.523
345.291
344.401
338.398
339.152
340.046
340.85
341.539
342.177
342.663
342.94
343.158
343.269
343.168
343.024
342.631
342.203
341.697
340.948
340.14
339.313
338.351
337.479
331.404
332.05
332.739
333.394
333.963
334.408
334.828
335.133
335.312
335.287
335.347
335.115
334.876
334.524
334.031
333.476
332.867
332.149
331.351
330.757
324.396
324.876
325.454
325.982
326.364
326.799
327.056
327.276
327.387
327.464
327.468
327.308
327.105
326.869
326.484
326.006
325.573
324.939
324.396
323.929
317.43
317.806
318.219
318.541
318.976
319.155
319.39
319.518
319.58
319.612
319.542
319.502
319.395
319.178
318.94
318.541
318.221
317.802
317.362
317.064
310.497
310.678
310.899
311.074
311.273
311.457
311.617
311.637
311.751
311.822
311.744
311.692
311.599
311.514
311.378
311.16
310.983
310.7
310.397
310.222
303.534
303.611
303.717
303.733
303.808
303.836
303.902
303.898
303.97
303.947
303.973
303.907
303.886
303.831
303.778
303.73
303.707
303.59
303.478
303.457
353.092
354.222
355.464
356.558
357.591
358.306
359.051
359.545
359.729
359.906
359.828
359.502
359.122
358.414
357.678
356.709
355.624
354.439
353.043
351.941
345.967
346.947
348.01
348.985
349.779
350.479
351.107
351.494
351.723
351.757
351.734
351.46
351.068
350.512
349.895
349.127
348.083
347.04
345.924
344.91
338.862
339.713
340.564
341.369
342.115
342.65
343.114
343.496
343.648
343.76
343.748
343.546
343.226
342.794
342.137
341.476
340.75
339.784
338.811
337.915
331.808
332.379
333.17
333.755
334.382
334.882
335.285
335.506
335.74
335.834
335.721
335.599
335.325
334.939
334.452
333.981
333.196
332.506
331.718
331.042
324.681
325.234
325.797
326.3
326.672
327.106
327.384
327.672
327.801
327.777
327.777
327.682
327.447
327.176
326.806
326.399
325.839
325.339
324.627
324.172
317.651
317.956
318.344
318.825
319.068
319.423
319.586
319.666
319.787
319.881
319.877
319.696
319.576
319.395
319.151
318.8
318.426
318.072
317.593
317.321
310.573
310.827
311.028
311.246
311.433
311.611
311.713
311.863
311.939
311.946
311.885
311.769
311.694
311.615
311.454
311.29
311.045
310.836
310.554
310.352
303.546
303.697
303.705
303.705
303.848
303.882
303.908
304.039
304.032
304.026
303.993
304.04
303.942
303.938
303.846
303.805
303.685
303.658
303.532
303.431
353.655
354.81
356.019
357.117
358.124
358.97
359.618
360.193
360.385
360.533
360.469
360.169
359.71
359.116
358.337
357.366
356.173
354.94
353.653
352.478
346.447
347.481
348.462
349.468
350.336
351.046
351.642
352.01
352.226
352.422
352.344
352.043
351.68
351.119
350.473
349.677
348.639
347.578
346.38
345.424
339.217
340.012
340.985
341.819
342.466
343.193
343.614
343.933
344.18
344.172
344.181
344.044
343.639
343.242
342.63
341.942
341.209
340.204
339.228
338.511
332.159
332.799
333.493
334.152
334.723
335.248
335.671
335.957
336.132
336.184
336.115
335.964
335.74
335.358
334.873
334.321
333.627
332.827
332.097
331.444
324.945
325.387
325.983
326.586
327.018
327.377
327.684
327.963
328.11
328.076
328.065
327.905
327.737
327.467
327.097
326.667
326.146
325.546
324.93
324.463
317.866
318.164
318.565
318.976
319.312
319.582
319.835
319.983
320.032
320.091
320.094
319.959
319.763
319.619
319.408
319.031
318.704
318.274
317.761
317.464
310.643
310.937
311.166
311.384
311.588
311.673
311.851
311.918
312.01
312.07
312.052
311.997
311.902
311.769
311.6
311.4
311.203
310.935
310.763
310.453
303.626
303.64
303.774
303.774
303.899
303.94
304.017
304.067
303.962
304.072
304.017
304.025
303.995
303.956
303.9
303.775
303.738
303.703
303.578
303.503
354.12
355.234
356.501
357.748
358.659
359.541
360.127
360.667
360.92
361.081
361.021
360.734
360.254
359.647
358.909
357.957
356.77
355.505
354.11
352.925
346.869
347.882
348.894
349.861
350.792
351.51
352.089
352.484
352.756
352.845
352.739
352.507
352.087
351.583
350.893
350.119
349.121
347.998
346.908
345.819
339.624
340.423
341.414
342.135
342.865
343.504
344.021
344.379
344.561
344.558
344.566
344.362
344.044
343.616
342.974
342.279
341.431
340.535
339.503
338.7
332.475
333.044
333.808
334.501
335.116
335.572
336.014
336.244
336.451
336.484
336.506
336.254
335.989
335.603
335.103
334.588
333.929
333.154
332.397
331.737
325.185
325.691
326.201
326.776
327.215
327.691
327.923
328.189
328.279
328.374
328.342
328.244
327.977
327.712
327.366
326.848
326.364
325.757
325.191
324.621
317.99
318.319
318.689
319.131
319.465
319.829
319.946
320.068
320.228
320.257
320.22
320.19
319.996
319.76
319.486
319.238
318.822
318.369
317.961
317.579
310.908
311.02
311.28
311.48
311.693
311.884
311.975
312.023
312.15
312.159
312.172
312.081
311.955
311.848
311.724
311.576
311.276
311.017
310.777
310.589
303.661
303.718
303.755
303.84
303.892
304
304.014
304.029
304.088
304.046
304.024
304.045
304.118
303.958
303.974
303.845
303.767
303.703
303.617
303.489
354.435
355.677
356.896
358.004
359.083
359.906
360.684
361.123
361.418
361.561
361.448
361.154
360.722
360.133
359.292
358.286
357.207
355.906
354.562
353.28
347.258
348.14
349.284
350.229
351.137
351.853
352.463
352.86
353.129
353.232
353.207
352.897
352.565
351.984
351.325
350.461
349.428
348.432
347.157
346.132
339.89
340.72
341.577
342.502
343.221
343.898
344.361
344.668
344.893
344.956
344.937
344.719
344.365
343.977
343.376
342.678
341.729
340.86
339.898
339.084
332.646
333.282
334.01
334.797
335.352
335.841
336.178
336.428
336.715
336.797
336.677
336.654
336.269
335.866
335.331
334.828
334.163
333.436
332.638
331.874
325.463
325.864
326.459
327.028
327.423
327.882
328.182
328.391
328.515
328.575
328.553
328.346
328.149
327.875
327.54
327.121
326.575
325.973
325.372
324.785
318.119
318.505
318.916
319.263
319.624
319.905
320.121
320.288
320.452
320.442
320.35
320.248
320.131
319.885
319.726
319.402
318.924
318.574
318.044
317.81
310.871
311.082
311.357
311.569
311.756
311.979
312.022
312.192
312.248
312.254
312.209
312.229
312.098
311.997
311.76
311.653
311.429
311.119
310.823
310.611
303.622
303.657
303.736
303.907
303.967
303.969
304.082
304.025
304.078
304.097
304.147
304.075
304.023
303.999
303.968
303.863
303.812
303.734
303.649
303.537
354.748
355.938
357.22
358.43
359.435
360.321
361.044
361.434
361.739
361.807
361.798
361.55
361.043
360.376
359.668
358.625
357.499
356.233
354.9
353.603
347.453
348.436
349.49
350.594
351.37
352.164
352.768
353.146
353.47
353.57
353.504
353.244
352.821
352.309
351.528
350.751
349.767
348.591
347.488
346.411
340.152
340.894
341.854
342.696
343.458
344.076
344.569
344.941
345.221
345.182
345.155
344.963
344.62
344.177
343.577
342.911
341.993
341.092
340.098
339.27
332.805
333.452
334.247
334.816
335.506
336.038
336.417
336.756
336.938
336.981
336.929
336.763
336.506
336.171
335.616
335.037
334.327
333.544
332.754
331.999
325.456
326.08
326.607
327.164
327.639
328.012
328.286
328.572
328.637
328.714
328.715
328.563
328.386
328.055
327.692
327.227
326.67
326.084
325.47
324.965
318.25
318.578
318.993
319.383
319.647
320.041
320.235
320.417
320.481
320.536
320.477
320.421
320.256
320.098
319.782
319.488
319.093
318.628
318.245
317.789
310.956
311.078
311.361
311.638
311.89
311.958
312.119
312.255
312.228
312.298
312.353
312.261
312.146
312.079
311.895
311.73
311.411
311.24
310.908
310.688
303.665
303.739
303.895
303.952
303.949
304.04
304.107
304.072
304.099
304.044
304.178
304.122
304.073
304.014
304.009
303.871
303.849
303.783
303.71
303.604
354.977
356.183
357.513
358.626
359.734
360.58
361.216
361.669
361.986
362.06
362.045
361.793
361.291
360.658
359.838
358.901
357.725
356.427
355.072
353.791
347.636
348.619
349.721
350.782
351.589
352.342
352.943
353.363
353.634
353.764
353.634
353.472
353.057
352.491
351.83
350.962
349.929
348.785
347.668
346.582
340.24
341.094
342.013
342.845
343.626
344.242
344.733
345.092
345.336
345.42
345.33
345.14
344.803
344.32
343.706
343.055
342.173
341.301
340.258
339.401
332.932
333.559
334.336
335.033
335.658
336.17
336.572
336.892
337.005
337.128
337.055
336.827
336.595
336.231
335.747
335.142
334.441
333.668
332.919
332.21
325.531
326.105
326.663
327.222
327.681
328.106
328.457
328.629
328.856
328.86
328.828
328.688
328.487
328.233
327.805
327.34
326.763
326.253
325.577
325.044
318.257
318.681
319.124
319.503
319.787
320.069
320.228
320.471
320.585
320.637
320.511
320.477
320.335
320.121
319.827
319.519
319.188
318.743
318.271
317.903
310.924
311.199
311.505
311.634
311.941
312.048
312.15
312.303
312.395
312.35
312.34
312.236
312.202
312.134
311.848
311.737
311.452
311.199
310.962
310.787
303.643
303.721
303.759
303.919
303.977
304.047
304.036
304.115
304.15
304.173
304.171
304.233
304.087
304.036
303.969
303.944
303.804
303.775
303.649
303.633
355.067
356.287
357.598
358.731
359.744
360.622
361.349
361.852
362.181
362.244
362.135
361.935
361.483
360.766
359.942
359.056
357.851
356.511
355.193
353.941
347.696
348.67
349.851
350.926
351.797
352.546
353.066
353.545
353.787
353.913
353.764
353.552
353.147
352.514
351.945
351.02
350.104
348.954
347.783
346.669
340.356
341.17
342.12
343.016
343.79
344.271
344.835
345.151
345.497
345.44
345.466
345.174
344.914
344.459
343.794
343.088
342.302
341.434
340.379
339.412
333.025
333.692
334.467
335.051
335.771
336.239
336.678
336.976
337.124
337.139
337.218
337.023
336.692
336.386
335.855
335.244
334.55
333.789
332.999
332.243
325.647
326.166
326.739
327.316
327.708
328.171
328.474
328.73
328.89
328.921
328.855
328.752
328.549
328.23
327.843
327.442
326.83
326.248
325.675
325.141
318.278
318.718
319.142
319.504
319.819
320.081
320.33
320.525
320.609
320.651
320.657
320.528
320.338
320.139
319.91
319.565
319.2
318.694
318.315
317.896
310.941
311.2
311.46
311.68
311.923
312.04
312.221
312.3
312.42
312.392
312.367
312.396
312.268
312.126
311.972
311.728
311.507
311.227
311.043
310.82
303.728
303.813
303.848
303.901
303.984
304.086
304.095
304.23
304.119
304.186
304.136
304.117
304.092
304.094
303.959
303.924
303.863
303.756
303.714
303.628
355.11
356.299
357.643
358.815
359.882
360.681
361.348
361.874
362.16
362.291
362.219
361.994
361.536
360.941
360.057
359.182
357.854
356.595
355.235
353.96
347.785
348.707
349.853
350.902
351.811
352.467
353.159
353.528
353.764
353.972
353.872
353.623
353.245
352.655
351.994
351.021
350.067
348.946
347.791
346.741
340.339
341.133
342.128
342.993
343.808
344.415
344.819
345.272
345.439
345.618
345.581
345.343
344.911
344.503
343.862
343.184
342.271
341.403
340.433
339.583
333.028
333.602
334.406
335.101
335.749
336.286
336.722
336.939
337.15
337.221
337.228
337.036
336.715
336.293
335.856
335.373
334.566
333.794
333.008
332.32
325.629
326.174
326.795
327.34
327.816
328.222
328.551
328.725
328.911
328.873
328.875
328.79
328.499
328.275
327.903
327.434
326.871
326.352
325.631
325.103
318.352
318.679
319.064
319.551
319.841
320.103
320.417
320.537
320.593
320.711
320.651
320.483
320.419
320.193
319.971
319.54
319.219
318.78
318.323
317.919
311.005
311.202
311.447
311.717
311.898
312.171
312.245
312.326
312.399
312.452
312.441
312.382
312.308
312.156
311.886
311.757
311.529
311.308
311.007
310.708
303.695
303.676
303.821
303.928
303.989
304.056
304.157
304.14
304.168
304.215
304.188
304.197
304.109
304.06
304.019
303.875
303.848
303.782
303.669
303.617
355.07
356.32
357.57
358.825
359.845
360.713
361.412
361.857
362.092
362.294
362.244
361.996
361.486
360.835
360.062
359.017
357.809
356.554
355.184
353.952
347.699
348.702
349.827
350.793
351.767
352.487
353.124
353.535
353.795
353.94
353.798
353.679
353.24
352.65
351.959
351.133
350.074
348.958
347.767
346.702
340.31
341.164
342.095
342.97
343.727
344.344
344.898
345.245
345.48
345.628
345.535
345.315
345
344.487
343.935
343.158
342.373
341.392
340.448
339.535
333.049
333.711
334.382
335.091
335.747
336.241
336.707
336.977
337.167
337.264
337.179
336.974
336.74
336.412
335.853
335.282
334.621
333.803
333.049
332.329
325.664
326.171
326.839
327.27
327.827
328.195
328.506
328.8
328.898
328.992
328.925
328.813
328.566
328.248
327.872
327.432
326.882
326.3
325.655
325.175
318.311
318.714
319.098
319.506
319.885
320.134
320.375
320.557
320.683
320.679
320.659
320.524
320.375
320.136
319.906
319.518
319.304
318.704
318.276
317.882
310.967
311.217
311.507
311.702
311.958
312.125
312.21
312.333
312.39
312.46
312.347
312.344
312.206
312.078
311.989
311.756
311.561
311.232
310.994
310.779
303.694
303.804
303.851
303.965
304.049
304.033
304.089
304.084
304.224
304.123
304.133
304.085
304.056
304.108
304.044
303.957
303.875
303.802
303.71
303.602
)
;

boundaryField
{
    hotSide
    {
        type            fixedGradient;
        gradient        nonuniform List<scalar> 
400
(
321.511
322.87
325.591
329.677
335.133
341.965
350.181
359.788
370.794
383.208
397.037
412.289
428.971
447.088
466.647
487.651
510.105
534.011
559.372
586.191
323.738
325.08
327.767
331.802
337.194
343.949
352.078
361.591
372.498
384.81
398.537
413.687
430.268
448.289
467.755
488.672
511.043
534.872
560.161
586.913
326.149
327.47
330.116
334.091
339.406
346.071
354.099
363.503
374.296
386.491
400.101
415.136
431.606
449.52
468.885
489.706
511.988
535.735
560.948
587.63
328.704
330
332.597
336.503
341.73
348.292
356.205
365.485
376.15
388.215
401.695
416.604
432.954
450.753
470.009
490.73
512.919
536.579
561.714
588.325
331.33
332.599
335.142
338.97
344.099
350.546
358.332
367.477
378.003
389.928
403.271
418.047
434.27
451.949
471.095
491.712
513.807
537.382
562.439
588.978
333.918
335.158
337.643
341.389
346.414
352.74
360.392
369.397
379.779
391.562
404.765
419.407
435.503
453.065
472.101
492.618
514.622
538.114
563.096
589.569
336.321
337.531
339.959
343.622
348.544
354.751
362.274
371.142
381.385
393.031
406.101
420.618
436.595
454.047
472.983
493.409
515.33
538.747
563.663
590.076
338.36
339.543
341.92
345.509
350.339
356.44
363.847
372.595
382.718
394.244
407.2
421.608
437.485
454.844
473.695
494.045
515.897
539.253
564.114
590.478
339.852
341.015
343.352
346.885
351.645
357.665
364.985
373.643
383.675
395.113
407.984
422.312
438.116
455.407
474.197
494.491
516.294
539.606
564.428
590.758
340.643
341.795
344.11
347.613
352.334
358.311
365.584
374.193
384.176
395.567
408.393
422.679
438.443
455.699
474.456
494.722
516.498
539.788
564.589
590.901
340.643
341.795
344.11
347.613
352.334
358.311
365.584
374.193
384.176
395.567
408.393
422.679
438.443
455.699
474.456
494.722
516.498
539.788
564.589
590.901
339.852
341.015
343.352
346.885
351.645
357.665
364.985
373.643
383.675
395.113
407.984
422.312
438.116
455.407
474.197
494.491
516.294
539.606
564.428
590.758
338.36
339.543
341.92
345.509
350.339
356.44
363.847
372.595
382.718
394.244
407.2
421.608
437.485
454.844
473.695
494.045
515.897
539.253
564.114
590.478
336.321
337.531
339.959
343.622
348.544
354.751
362.274
371.142
381.385
393.031
406.101
420.618
436.595
454.047
472.983
493.409
515.33
538.747
563.663
590.076
333.918
335.158
337.643
341.389
346.414
352.74
360.392
369.397
379.779
391.562
404.765
419.407
435.503
453.065
472.101
492.618
514.622
538.114
563.096
589.569
331.33
332.599
335.142
338.97
344.099
350.546
358.332
367.477
378.003
389.928
403.271
418.047
434.27
451.949
471.095
491.712
513.807
537.382
562.439
588.978
328.704
330
332.597
336.503
341.73
348.292
356.205
365.485
376.15
388.215
401.695
416.604
432.954
450.753
470.009
490.73
512.919
536.579
561.714
588.325
326.149
327.47
330.116
334.091
339.406
346.071
354.099
363.503
374.296
386.491
400.101
415.136
431.606
449.52
468.885
489.706
511.988
535.735
560.948
587.63
323.738
325.08
327.767
331.802
337.194
343.949
352.078
361.591
372.498
384.81
398.537
413.687
430.268
448.289
467.755
488.672
511.043
534.872
560.161
586.913
321.511
322.87
325.591
329.677
335.133
341.965
350.181
359.788
370.794
383.208
397.037
412.289
428.971
447.088
466.647
487.651
510.105
534.011
559.372
586.191
)
;
    }
    coldSide
    {
        type            mixed;
        refValue        uniform 300;
        refGradient     uniform 0;
        valueFraction   uniform 0.991591;
        source          uniform 0;
        value           nonuniform List<scalar> 
400
(
300.024
300.025
300.026
300.025
300.027
300.027
300.028
300.028
300.028
300.029
300.03
300.03
300.03
300.031
300.03
300.031
300.031
300.031
300.031
300.031
300.024
300.025
300.025
300.026
300.027
300.028
300.029
300.028
300.029
300.029
300.03
300.031
300.031
300.031
300.031
300.031
300.031
300.032
300.031