/*--------------------------------*- C++ -*----------------------------------*\
| =========                 |                                                 |
| \\      /  F ield         | OpenFOAM: The Open Source CFD Toolbox           |
|  \\    /   O peration     | Version:  2212                                  |
|   \\  /    A nd           | Website:  www.openfoam.com                      |
|    \\/     M anipulation  |                                                 |
\*---------------------------------------------------------------------------*/
FoamFile
{
    version     2.0;
    format      ascii;
    arch        "LSB;label=32;scalar=64";
    class       volScalarField;
    location    "0";
    object      T;
}
// * * * * * * * * * * * * * * * * * * * * * * * * * * * * * * * * * * * * * //

dimensions      [0 0 0 1 0 0 0];

internalField   nonuniform List<scalar> 
3200
(
317.369
316.81
316.526
316.411
316.609
316.942
317.127
317.478
317.713
317.843
317.844
317.717
317.518
317.198
316.791
316.495
316.269
316.161
316.505
316.795
314.951
314.483
314.244
314.125
314.355
314.664
314.813
315.114
315.319
315.44
315.457
315.341
315.159
314.901
314.562
314.278
314.091
313.994
314.315
314.538
312.583
312.185
312.009
311.882
312.099
312.388
312.514
312.758
312.935
313.052
313.069
312.989
312.803
312.604
312.318
312.092
311.899
311.852
312.107
312.306
310.264
309.923
309.776
309.688
309.879
310.1
310.235
310.402
310.599
310.654
310.666
310.625
310.453
310.317
310.082
309.894
309.713
309.703
309.938
310.067
307.965
307.691
307.579
307.532
307.667
307.841
307.951
308.057
308.238
308.29
308.284
308.266
308.125
308.052
307.85
307.716
307.547
307.568
307.727
307.818
305.668
305.491
305.415
305.383
305.473
305.596
305.679
305.737
305.875
305.914
305.915
305.915
305.792
305.761
305.611
305.512
305.407
305.408
305.506
305.603
303.38
303.288
303.257
303.24
303.274
303.358
303.397
303.428
303.518
303.551
303.56
303.562
303.489
303.471
303.365
303.309
303.261
303.263
303.3
303.372
301.133
301.092
301.093
301.095
301.087
301.131
301.131
301.15
301.172
301.193
301.187
301.183
301.173
301.166
301.129
301.116
301.096
301.102
301.107
301.137
317.6
317.102
316.667
316.615
316.705
317.079
317.32
317.54
317.93
318.107
318.209
318.03
317.719
317.352
316.987
316.602
316.473
316.423
316.628
316.899
315.152
314.731
314.365
314.345
314.435
314.769
314.979
315.179
315.505
315.706
315.774
315.624
315.347
315.056
314.727
314.392
314.27
314.224
314.425
314.64
312.743
312.403
312.103
312.082
312.177
312.486
312.641
312.827
313.102
313.284
313.322
313.209
312.962
312.75
312.458
312.194
312.082
312.007
312.216
312.396
310.388
310.113
309.869
309.858
309.946
310.222
310.346
310.473
310.705
310.851
310.867
310.808
310.606
310.469
310.198
310.01
309.882
309.806
309.984
310.163
308.084
307.847
307.688
307.664
307.726
307.958
308.045
308.124
308.303
308.449
308.442
308.4
308.26
308.171
307.956
307.813
307.689
307.624
307.77
307.899
305.773
305.591
305.496
305.472
305.518
305.692
305.749
305.795
305.906
306.054
306.032
306.007
305.895
305.859
305.695
305.593
305.505
305.433
305.565
305.663
303.465
303.349
303.312
303.29
303.31
303.418
303.451
303.466
303.535
303.652
303.647
303.611
303.525
303.52
303.409
303.36
303.32
303.25
303.352
303.413
301.166
301.117
301.108
301.106
301.105
301.146
301.152
301.16
301.19
301.224
301.226
301.212
301.179
301.184
301.152
301.127
301.112
301.093
301.128
301.156
317.856
317.295
316.931
316.956
316.992
317.409
317.743
318.053
318.266
318.378
318.433
318.329
318.061
317.743
317.288
316.88
316.666
316.545
316.825
317.068
315.384
314.913
314.614
314.634
314.697
315.044
315.344
315.614
315.786
315.911
315.969
315.88
315.662
315.408
315.008
314.622
314.456
314.353
314.615
314.784
312.927
312.557
312.323
312.334
312.398
312.708
312.956
313.188
313.316
313.455
313.504
313.406
313.255
313.05
312.704
312.414
312.242
312.177
312.378
312.536
310.525
310.24
310.048
310.052
310.111
310.392
310.597
310.789
310.88
311.019
311.039
310.952
310.843
310.676
310.408
310.172
310.009
309.985
310.155
310.276
308.158
307.953
307.812
307.792
307.84
308.09
308.236
308.4
308.451
308.561
308.583
308.518
308.417
308.288
308.127
307.922
307.779
307.765
307.916
308.009
305.809
305.674
305.579
305.561
305.592
305.784
305.875
305.999
306.042
306.12
306.123
306.066
306.002
305.937
305.831
305.678
305.584
305.545
305.681
305.733
303.478
303.401
303.343
303.315
303.374
303.503
303.52
303.615
303.642
303.706
303.674
303.635
303.605
303.563
303.516
303.406
303.372
303.327
303.427
303.459
301.174
301.142
301.119
301.11
301.134
301.178
301.171
301.208
301.227
301.248
301.233
301.216
301.212
301.196
301.179
301.145
301.133
301.115
301.142
301.163
318.155
317.859
317.407
317.406
317.495
317.864
318.116
318.541
318.698
318.93
318.968
318.738
318.52
318.136
317.743
317.327
317.111
316.924
317.114
317.428
315.651
315.396
315.022
315.027
315.092
315.448
315.661
316.029
316.191
316.377
316.402
316.205
316.031
315.724
315.4
315.025
314.828
314.663
314.851
315.099
313.19
312.999
312.663
312.657
312.728
313.035
313.214
313.552
313.682
313.848
313.865
313.659
313.586
313.32
313.051
312.741
312.536
312.426
312.572
312.792
310.758
310.615
310.352
310.318
310.408
310.638
310.791
311.06
311.213
311.337
311.336
311.152
311.143
310.904
310.674
310.447
310.248
310.188
310.292
310.481
308.339
308.253
308.032
308.007
308.082
308.271
308.384
308.601
308.726
308.812
308.822
308.677
308.679
308.476
308.308
308.148
307.93
307.935
307.994
308.163
305.947
305.89
305.72
305.704
305.758
305.911
305.977
306.148
306.235
306.301
306.296
306.198
306.216
306.056
305.943
305.839
305.637
305.675
305.711
305.835
303.575
303.547
303.434
303.406
303.439
303.558
303.575
303.681
303.752
303.79
303.783
303.734
303.752
303.634
303.598
303.518
303.366
303.416
303.435
303.507
301.202
301.187
301.16
301.137
301.154
301.188
301.196
301.231
301.26
301.272
301.27
301.245
301.261
301.214
301.21
301.189
301.124
301.148
301.156
301.176
318.85
318.321
318.007
317.886
318.046
318.33
318.667
319.053
319.18
319.41
319.533
319.432
319.22
318.71
318.254
317.788
317.429
317.342
317.473
317.774
316.232
315.813
315.575
315.43
315.59
315.858
316.137
316.465
316.574
316.805
316.909
316.834
316.667
316.209
315.824
315.442
315.095
315.058
315.16
315.412
313.664
313.335
313.145
313.035
313.155
313.399
313.626
313.898
313.991
314.204
314.318
314.232
314.118
313.708
313.396
313.079
312.78
312.767
312.823
313.059
311.12
310.87
310.741
310.635
310.769
310.938
311.161
311.362
311.446
311.616
311.715
311.623
311.557
311.229
310.968
310.705
310.486
310.476
310.507
310.706
308.627
308.434
308.364
308.268
308.374
308.487
308.697
308.837
308.882
309.025
309.118
309.005
308.996
308.746
308.518
308.328
308.173
308.161
308.189
308.339
306.155
306.001
305.99
305.917
305.973
306.045
306.239
306.318
306.333
306.45
306.527
306.435
306.421
306.274
306.084
305.921
305.842
305.854
305.874
305.976
303.717
303.599
303.614
303.563
303.584
303.62
303.756
303.801
303.794
303.876
303.922
303.846
303.865
303.78
303.662
303.555
303.511
303.511
303.55
303.606
301.262
301.209
301.223
301.195
301.197
301.206
301.263
301.276
301.271
301.299
301.314
301.288
301.292
301.264
301.227
301.182
301.169
301.178
301.191
301.215
319.316
318.873
318.58
318.486
318.595
318.912
319.216
319.58
319.834
320.057
320.208
319.974
319.625
319.231
318.624
318.355
317.941
317.802
317.936
318.206
316.641
316.283
316.073
315.972
316.073
316.353
316.616
316.929
317.17
317.367
317.501
317.285
316.987
316.653
316.152
315.924
315.55
315.444
315.553
315.797
314.027
313.73
313.618
313.479
313.555
313.787
314.035
314.307
314.498
314.663
314.815
314.616
314.377
314.098
313.68
313.474
313.176
313.088
313.162
313.361
311.447
311.188
311.173
311.011
311.078
311.261
311.478
311.701
311.852
311.958
312.136
311.966
311.753
311.536
311.219
311.024
310.808
310.729
310.782
310.946
308.882
308.675
308.706
308.566
308.621
308.735
308.915
309.104
309.219
309.279
309.435
309.313
309.161
308.971
308.753
308.583
308.43
308.36
308.401
308.516
306.344
306.199
306.254
306.125
306.161
306.221
306.366
306.504
306.575
306.619
306.748
306.678
306.556
306.403
306.269
306.138
306.02
306
306.023
306.083
303.808
303.712
303.784
303.663
303.697
303.732
303.837
303.903
303.937
303.969
304.084
304.03
303.946
303.835
303.78
303.688
303.608
303.608
303.622
303.655
301.272
301.246
301.267
301.226
301.243
301.251
301.286
301.318
301.317
301.338
301.382
301.356
301.324
301.284
301.271
301.237
301.208
301.211
301.215
301.227
319.884
319.4
319.149
319.264
319.257
319.572
319.931
320.26
320.496
320.648
320.746
320.591
320.242
319.884
319.31
318.903
318.528
318.347
318.356
318.55
317.15
316.735
316.541
316.644
316.634
316.916
317.234
317.515
317.733
317.854
317.975
317.84
317.538
317.213
316.752
316.384
316.077
315.908
315.92
316.086
314.438
314.116
313.965
314.057
314.045
314.283
314.568
314.796
314.982
315.086
315.194
315.108
314.827
314.556
314.201
313.877
313.633
313.48
313.469
313.582
311.769
311.505
311.412
311.495
311.484
311.666
311.898
312.094
312.236
312.323
312.414
312.351
312.139
311.893
311.635
311.388
311.186
311.043
311.013
311.113
309.136
308.919
308.88
308.933
308.908
309.069
309.266
309.405
309.497
309.578
309.646
309.621
309.448
309.259
309.058
308.861
308.718
308.58
308.555
308.662
306.519
306.37
306.366
306.381
306.363
306.478
306.63
306.713
306.78
306.838
306.882
306.88
306.734
306.62
306.462
306.35
306.244
306.123
306.109
306.205
303.915
303.842
303.852
303.84
303.824
303.902
303.981
304.017
304.077
304.127
304.13
304.129
304.037
303.965
303.878
303.82
303.755
303.681
303.673
303.718
301.314
301.286
301.303
301.289
301.28
301.315
301.341
301.339
301.364
301.381
301.38
301.38
301.335
301.325
301.297
301.282
301.265
301.238
301.232
301.246
320.795
320.184
319.99
319.849
319.918
320.183
320.519
320.903
321.093
321.226
321.373
321.278
320.88
320.393
319.867
319.499
319.03
318.797
319.01
319.305
317.938
317.421
317.275
317.148
317.213
317.461
317.768
318.086
318.263
318.398
318.503
318.446
318.1
317.686
317.218
316.919
316.504
316.307
316.485
316.755
315.126
314.72
314.579
314.457
314.552
314.784
315.022
315.289
315.437
315.576
315.65
315.583
315.31
314.994
314.578
314.337
313.996
313.827
313.958
314.195
312.352
312.03
311.906
311.811
311.883
312.065
312.284
312.502
312.627
312.76
312.809
312.749
312.539
312.282
311.96
311.735
311.483
311.328
311.439
311.617
309.593
309.362
309.261
309.183
309.236
309.365
309.539
309.723
309.812
309.96
309.972
309.913
309.761
309.561
309.317
309.132
308.973
308.833
308.9
309.048
306.852
306.694
306.629
306.564
306.608
306.693
306.804
306.943
307.006
307.137
307.133
307.099
306.964
306.842
306.661
306.525
306.435
306.339
306.349
306.453
304.122
304.013
303.967
303.925
303.964
304.024
304.083
304.168
304.201
304.282
304.296
304.259
304.183
304.106
304.009
303.913
303.873
303.804
303.81
303.872
301.377
301.34
301.325
301.306
301.329
301.351
301.356
301.391
301.406
301.433
301.441
301.415
301.397
301.379
301.337
301.322
301.299
301.278
301.272
301.307
321.457
320.931
320.708
320.609
320.531
320.866
321.148
321.499
321.721
321.96
321.971
321.894
321.528
321.08
320.539
320.019
319.633
319.482
319.597
319.915
318.52
318.078
317.922
317.807
317.752
318.057
318.305
318.605
318.816
319.026
319.016
318.989
318.661
318.272
317.812
317.373
317.047
316.906
317.006
317.267
315.615
315.25
315.146
315.044
314.994
315.277
315.472
315.726
315.909
316.082
316.061
316.079
315.784
315.47
315.099
314.737
314.435
314.333
314.416
314.605
312.757
312.457
312.376
312.285
312.256
312.486
312.658
312.853
313.025
313.154
313.138
313.169
312.908
312.653
312.358
312.088
311.831
311.745
311.826
311.937
309.897
309.683
309.603
309.542
309.532
309.686
309.86
309.993
310.142
310.229
310.232
310.243
310.018
309.855
309.64
309.413
309.223
309.155
309.198
309.295
307.066
306.903
306.854
306.801
306.825
306.909
307.047
307.145
307.263
307.31
307.336
307.314
307.152
307.041
306.901
306.718
306.605
306.561
306.551
306.653
304.233
304.15
304.116
304.08
304.1
304.164
304.213
304.284
304.371
304.402
304.403
304.376
304.3
304.245
304.148
304.024
303.974
303.948
303.931
304.011
301.411
301.401
301.379
301.365
301.376
301.407
301.413
301.439
301.472
301.478
301.48
301.469
301.452
301.428
301.39
301.349
301.326
301.322
301.316
301.345
322.248
321.73
321.506
321.398
321.357
321.561
321.819
322.113
322.436
322.605
322.748
322.552
322.093
321.673
321.084
320.547
320.245
320.128
320.2
320.467
319.2
318.772
318.592
318.528
318.474
318.65
318.882
319.14
319.427
319.572
319.712
319.552
319.141
318.797
318.273
317.83
317.575
317.46
317.525
317.762
316.197
315.86
315.699
315.663
315.633
315.756
315.97
316.174
316.449
316.571
316.663
316.559
316.206
315.915
315.482
315.111
314.889
314.806
314.851
315.026
313.2
312.94
312.836
312.815
312.799
312.886
313.075
313.221
313.46
313.567
313.608
313.537
313.266
313.032
312.669
312.39
312.2
312.118
312.177
312.294
310.24
310.034
309.979
309.984
309.949
310.019
310.169
310.269
310.47
310.546
310.591
310.525
310.326
310.127
309.862
309.643
309.489
309.45
309.508
309.566
307.296
307.139
307.119
307.147
307.103
307.145
307.278
307.326
307.5
307.53
307.571
307.538
307.377
307.246
307.049
306.884
306.768
306.772
306.812
306.847
304.367
304.283
304.269
304.31
304.281
304.277
304.373
304.389
304.512
304.516
304.545
304.533
304.423
304.367
304.23
304.13
304.044
304.071
304.1
304.13
301.463
301.433
301.432
301.452
301.441
301.43
301.463
301.468
301.526
301.52
301.524
301.53
301.48
301.466
301.421
301.381
301.351
301.359
301.372
301.392
323.034
322.619
322.408
322.22
322.179
322.303
322.515
322.767
323.034
323.289
323.288
323.093
322.712
322.187
321.718
321.277
320.906
320.751
320.753
320.944
319.891
319.54
319.375
319.211
319.175
319.294
319.491
319.705
319.934
320.186
320.19
320.009
319.693
319.234
318.834
318.442
318.156
317.977
318.021
318.162
316.776
316.492
316.341
316.241
316.194
316.313
316.49
316.664
316.845
317.093
317.107
316.948
316.674
316.268
315.967
315.617
315.397
315.23
315.27
315.376
313.69
313.479
313.33
313.304
313.22
313.346
313.486
313.631
313.772
314.008
314.011
313.886
313.626
313.296
313.069
312.815
312.614
312.48
312.525
312.579
310.633
310.478
310.345
310.351
310.284
310.385
310.47
310.63
310.711
310.907
310.89
310.795
310.574
310.358
310.18
310.012
309.828
309.744
309.772
309.799
307.585
307.463
307.395
307.381
307.36
307.409
307.478
307.612
307.661
307.78
307.75
307.716
307.538
307.385
307.271
307.176
307.034
306.958
306.984
307.022
304.55
304.47
304.46
304.431
304.421
304.444
304.492
304.584
304.609
304.661
304.637
304.65
304.518
304.437
304.357
304.325
304.231
304.165
304.19
304.206
301.525
301.499
301.488
301.487
301.49
301.489
301.503
301.539
301.547
301.552
301.551
301.558
301.503
301.49
301.454
301.444
301.419
301.394
301.403
301.418
323.884
323.515
323.285
323.01
322.983
323.146
323.182
323.36
323.662
323.8
323.909
323.597
323.189
322.633
322.325
321.937
321.605
321.312
321.398
321.547
320.633
320.325
320.137
319.92
319.884
320.054
320.085
320.233
320.483
320.628
320.736
320.452
320.111
319.616
319.389
319.04
318.767
318.485
318.553
318.658
317.419
317.167
317.017
316.827
316.795
316.957
317.002
317.11
317.321
317.453
317.54
317.305
317.033
316.594
316.449
316.141
315.893
315.643
315.698
315.789
314.236
314.037
313.913
313.76
313.703
313.839
313.922
313.979
314.186
314.295
314.356
314.157
313.927
313.587
313.475
313.218
313.009
312.792
312.837
312.929
311.074
310.936
310.81
310.71
310.64
310.754
310.849
310.864
311.045
311.14
311.163
311.008
310.834
310.576
310.484
310.282
310.111
309.949
309.999
310.07
307.912
307.818
307.73
307.66
307.582
307.671
307.761
307.752
307.895
307.965
307.981
307.876
307.736
307.547
307.488
307.344
307.228
307.109
307.169
307.21
304.739
304.692
304.635
304.602
304.549
304.61
304.683
304.661
304.728
304.771
304.807
304.724
304.635
304.533
304.492
304.425
304.352
304.257
304.319
304.33
301.598
301.562
301.551
301.544
301.526
301.542
301.57
301.569
301.594
301.601
301.617
301.587
301.548
301.521
301.5
301.48
301.463
301.419
301.444
301.451
324.559
324.34
324.07
323.833
323.849
323.842
323.805
323.986
324.244
324.235
324.427
324.086
323.7
323.174
322.851
322.413
322.235
322.059
321.951
322.137
321.219
321.046
320.832
320.641
320.637
320.649
320.597
320.766
321.001
320.992
321.171
320.873
320.542
320.077
319.833
319.45
319.285
319.138
319.017
319.186
317.927
317.772
317.621
317.467
317.44
317.483
317.416
317.567
317.766
317.744
317.902
317.679
317.404
316.982
316.8
316.479
316.324
316.21
316.086
316.253
314.642
314.509
314.411
314.289
314.281
314.292
314.265
314.36
314.558
314.511
314.64
314.492
314.264
313.915
313.781
313.499
313.373
313.263
313.163
313.317
311.362
311.262
311.201
311.127
311.119
311.119
311.111
311.156
311.332
311.291
311.397
311.308
311.1
310.845
310.731
310.537
310.408
310.314
310.25
310.363
308.124
308.032
307.979
307.956
307.937
307.931
307.933
307.953
308.106
308.068
308.149
308.107
307.916
307.786
307.662
307.54
307.448
307.359
307.319
307.407
304.891
304.841
304.779
304.774
304.761
304.745
304.768
304.781
304.871
304.846
304.896
304.881
304.75
304.688
304.588
304.521
304.468
304.42
304.394
304.457
301.65
301.624
301.603
301.595
301.591
301.59
301.594
301.606
301.628
301.617
301.64
301.634
301.589
301.579
301.545
301.513
301.491
301.489
301.48
301.492
325.409
325.072
324.861
324.626
324.574
324.55
324.44
324.737
324.836
324.837
324.829
324.566
324.249
323.753
323.314
323.001
322.906
322.758
322.714
322.817
321.958
321.678
321.526
321.32
321.269
321.26
321.148
321.417
321.522
321.523
321.521
321.29
321.045
320.597
320.227
319.941
319.863
319.752
319.717
319.785
318.546
318.29
318.197
318.031
317.985
317.991
317.883
318.122
318.189
318.228
318.2
318.028
317.836
317.453
317.125
316.876
316.831
316.721
316.709
316.747
315.148
314.907
314.892
314.751
314.699
314.74
314.648
314.805
314.874
314.913
314.884
314.756
314.604
314.297
314.015
313.791
313.755
313.667
313.695
313.725
311.741
311.584
311.583
311.468
311.423
311.467
311.395
311.5
311.572
311.598
311.583
311.481
311.349
311.134
310.914
310.723
310.704
310.633
310.671
310.681
308.367
308.283
308.271
308.196
308.161
308.189
308.14
308.211
308.268
308.279
308.272
308.204
308.105
307.982
307.796
307.65
307.667
307.578
307.641
307.634
305.021
304.978
304.97
304.929
304.904
304.919
304.906
304.927
304.975
304.961
304.958
304.945
304.87
304.821
304.663
304.59
304.627
304.544
304.589
304.59
301.674
301.67
301.66
301.665
301.644
301.651
301.652
301.656
301.666
301.656
301.659
301.659
301.622
301.615
301.564
301.541
301.561
301.516
301.536
301.543
326.285
325.853
325.64
325.452
325.228
325.24
325.2
325.383
325.309
325.332
325.247
325.022
324.793
324.329
323.855
323.577
323.385
323.372
323.458
323.426
322.712
322.359
322.179
322.02
321.84
321.859
321.819
321.998
321.924
321.95
321.879
321.708
321.503
321.113
320.682
320.449
320.292
320.286
320.376
320.332
319.187
318.901
318.719
318.585
318.475
318.501
318.445
318.601
318.533
318.573
318.499
318.388
318.187
317.879
317.502
317.322
317.172
317.172
317.275
317.236
315.684
315.437
315.263
315.181
315.115
315.157
315.088
315.22
315.138
315.214
315.147
315.076
314.903
314.632
314.323
314.182
314.055
314.059
314.153
314.135
312.205
311.999
311.846
311.771
311.773
311.801
311.747
311.843
311.735
311.837
311.771
311.735
311.599
311.42
311.155
311.052
310.941
310.937
311.038
310.997
308.735
308.556
308.462
308.373
308.402
308.456
308.403
308.46
308.358
308.475
308.401
308.38
308.296
308.183
307.978
307.916
307.823
307.836
307.904
307.874
305.247
305.133
305.071
305.02
305.043
305.085
305.055
305.076
305.006
305.086
305.036
305.039
305
304.926
304.802
304.757
304.701
304.701
304.754
304.72
301.752
301.723
301.7
301.675
301.707
301.713
301.702
301.708
301.673
301.707
301.69
301.697
301.665
301.651
301.609
301.596
301.573
301.575
301.595
301.577
327.109
326.752
326.308
326.156
326.026
325.929
325.816
325.929
325.916
325.944
325.881
325.563
325.279
324.952
324.439
324.168
324.075
324.028
324.071
324.174
323.442
323.114
322.764
322.617
322.522
322.431
322.368
322.457
322.468
322.495
322.434
322.147
321.926
321.638
321.214
320.933
320.898
320.88
320.9
320.97
319.81
319.502
319.225
319.102
319.036
318.959
318.915
319
319.008
319.031
318.978
318.734
318.587
318.305
317.961
317.702
317.717
317.686
317.716
317.751
316.195
315.914
315.704
315.618
315.569
315.485
315.47
315.525
315.541
315.576
315.523
315.335
315.206
314.969
314.712
314.486
314.518
314.463
314.503
314.534
312.599
312.35
312.206
312.158
312.094
312.045
312.038
312.044
312.107
312.101
312.068
311.925
311.827
311.649
311.449
311.286
311.321
311.268
311.306
311.294
309.02
308.777
308.715
308.706
308.63
308.597
308.596
308.607
308.662
308.642
308.62
308.525
308.448
308.341
308.177
308.042
308.07
308.074
308.084
308.078
305.427
305.255
305.223
305.234
305.187
305.165
305.162
305.161
305.2
305.194
305.187
305.11
305.081
305.021
304.905
304.817
304.839
304.863
304.86
304.852
301.812
301.763
301.755
301.757
301.744
301.729
301.726
301.729
301.735
301.739
301.738
301.713
301.7
301.677
301.637
301.613
301.618
301.631
301.624
301.623
327.936
327.469
327.141
326.815
326.777
326.584
326.444
326.383
326.488
326.425
326.371
326.07
325.802
325.553
325.025
324.878
324.668
324.6
324.662
324.789
324.172
323.761
323.487
323.214
323.172
323.008
322.915
322.864
322.947
322.9
322.866
322.62
322.371
322.151
321.692
321.568
321.406
321.347
321.407
321.521
320.438
320.075
319.866
319.647
319.589
319.47
319.392
319.342
319.409
319.381
319.336
319.153
318.943
318.734
318.361
318.258
318.146
318.082
318.137
318.202
316.722
316.41
316.254
316.074
316.026
315.958
315.878
315.803
315.869
315.854
315.817
315.679
315.537
315.317
315.047
314.945
314.887
314.822
314.849
314.883
312.999
312.775
312.642
312.507
312.466
312.451
312.347
312.267
312.33
312.333
312.297
312.197
312.116
311.91
311.729
311.63
311.61
311.564
311.581
311.595
309.283
309.135
309.053
308.949
308.914
308.9
308.784
308.723
308.801
308.826
308.79
308.737
308.692
308.518
308.393
308.306
308.31
308.286
308.279
308.294
305.571
305.48
305.449
305.376
305.368
305.347
305.262
305.207
305.283
305.287
305.264
305.255
305.213
305.117
305.042
304.973
304.981
305.001
304.989
304.99
301.871
301.845
301.827
301.804
301.801
301.791
301.76
301.737
301.768
301.772
301.759
301.76
301.741
301.707
301.699
301.663
301.676
301.687
301.675
301.676
328.728
328.207
327.802
327.604
327.357
327.27
327.148
326.883
327.007
326.888
326.784
326.581
326.148
325.922
325.532
325.305
325.23
325.115
325.233
325.367
324.819
324.397
324.039
323.908
323.706
323.609
323.513
323.274
323.392
323.276
323.218
323.047
322.65
322.477
322.131
321.967
321.882
321.798
321.879
321.994
320.955
320.599
320.323
320.205
320.066
319.983
319.895
319.682
319.794
319.695
319.63
319.506
319.172
319.016
318.734
318.621
318.516
318.479
318.546
318.628
317.121
316.806
316.646
316.523
316.414
316.363
316.277
316.107
316.192
316.107
316.064
315.969
315.714
315.545
315.341
315.248
315.165
315.159
315.197
315.246
313.299
313.061
312.939
312.841
312.781
312.728
312.671
312.52
312.584
312.529
312.52
312.423
312.254
312.087
311.951
311.865
311.807
311.809
311.836
311.872
309.504
309.326
309.242
309.162
309.144
309.079
309.063
308.928
308.956
308.932
308.937
308.887
308.764
308.642
308.551
308.463
308.44
308.43
308.456
308.465
305.697
305.612
305.565
305.498
305.489
305.447
305.447
305.358
305.36
305.355
305.356
305.336
305.273
305.178
305.147
305.074
305.08
305.071
305.068
305.082
301.905
301.878
301.862
301.832
301.847
301.815
301.816
301.793
301.794
301.791
301.794
301.787
301.77
301.737
301.731
301.688
301.707
301.695
301.699
301.707
329.248
328.882
328.512
328.141
327.925
327.924
327.725
327.523
327.475
327.319
327.216
326.927
326.572
326.437
326.062
325.882
325.739
325.616
325.775
326.006
325.258
324.961
324.63
324.332
324.17
324.174
324.001
323.829
323.783
323.685
323.592
323.318
323.012
322.908
322.585
322.441
322.315
322.19
322.355
322.542
321.322
321.045
320.811
320.55
320.435
320.422
320.312
320.132
320.103
320.077
319.968
319.715
319.493
319.383
319.103
318.985
318.88
318.78
318.939
319.079
317.404
317.186
316.99
316.782
316.745
316.695
316.603
316.443
316.443
316.442
316.327
316.117
315.967
315.851
315.632
315.535
315.467
315.358
315.519
315.63
313.512
313.347
313.204
313.057
313.039
312.966
312.924
312.786
312.79
312.8
312.706
312.552
312.435
312.326
312.17
312.094
312.02
311.964
312.084
312.163
309.641
309.532
309.443
309.315
309.326
309.278
309.257
309.154
309.148
309.158
309.097
308.971
308.88
308.797
308.709
308.653
308.572
308.543
308.639
308.696
305.771
305.716
305.678
305.582
305.623
305.567
305.576
305.486
305.512
305.512
305.477
305.381
305.324
305.276
305.246
305.193
305.142
305.131
305.189
305.234
301.931
301.912
301.899
301.871
301.894
301.874
301.867
301.826
301.852
301.843
301.833
301.795
301.78
301.77
301.767
301.748
301.728
301.717
301.738
301.751
329.835
329.427
328.945
328.555
328.39
328.306
328.207
328.028
327.807
327.665
327.527
327.1
326.873
326.87
326.584
326.339
326.166
326.026
326.213
326.432
325.775
325.417
325.022
324.674
324.562
324.474
324.423
324.245
324.05
323.968
323.853
323.457
323.26
323.273
323.036
322.83
322.667
322.529
322.682
322.884
321.729
321.453
321.159
320.831
320.759
320.664
320.658
320.491
320.323
320.276
320.168
319.827
319.674
319.676
319.506
319.301
319.18
319.038
319.177
319.344
317.721
317.489
317.289
317.01
316.971
316.904
316.907
316.736
316.632
316.6
316.478
316.205
316.097
316.083
315.974
315.784
315.696
315.55
315.695
315.828
313.747
313.581
313.441
313.207
313.201
313.148
313.14
313.009
312.925
312.912
312.79
312.604
312.501
312.486
312.429
312.273
312.203
312.083
312.212
312.302
309.809
309.695
309.605
309.452
309.443
309.395
309.399
309.293
309.219
309.253
309.133
309.021
308.927
308.912
308.89
308.764
308.723
308.64
308.73
308.774
305.878
305.816
305.752
305.678
305.643
305.648
305.646
305.562
305.54
305.576
305.498
305.443
305.369
305.358
305.323
305.252
305.248
305.189
305.233
305.255
301.963
301.948
301.928
301.911
301.885
301.88
301.891
301.861
301.86
301.88
301.85
301.835
301.803
301.791
301.782
301.762
301.76
301.74
301.756
301.756
)
;

boundaryField
{
    hotSide
    {
        type            fixedGradient;
        gradient        nonuniform List<scalar> 
400
(
200.087
201.154
203.549
207.239
212.093
217.924
224.53
231.723
239.35
247.287
255.437
263.727
272.1
280.511
288.924
297.308
305.637
313.891
322.056
330.131
191.332
192.484
195.056
199.009
204.185
210.362
217.31
224.823
232.735
240.919
249.277
257.738
266.249
274.767
283.26
291.701
300.065
308.334
316.497
324.554
186.018
187.365
190.114
194.222
199.531
205.824
212.868
220.46
228.43
236.65
245.021
253.471
261.949
270.414
278.838
287.198
295.473
303.649
311.72
319.688
183.928
185.571
188.503
192.678
197.963
204.169
211.093
218.545
226.364
234.42
242.616
250.878
259.155
267.409
275.616
283.756
291.818
299.794
307.682
315.49
184.181
186.175
189.309
193.537
198.748
204.79
211.492
218.686
226.224
233.981
241.863
249.796
257.734
265.642
273.503
281.306
289.048
296.728
304.353
311.934
185.784
188.142
191.508
195.829
201.01
206.92
213.412
220.337
227.558
234.959
242.449
249.963
257.463
264.925
272.342
279.716
287.053
294.364
301.661
308.958
187.928
190.644
194.269
198.745
203.977
209.844
216.207
222.924
229.862
236.911
243.986
251.036
258.037
264.984
271.889
278.77
285.647
292.539
299.465
306.442
190.01
193.06
196.959
201.64
207.005
212.93
219.27
225.875
232.604
239.344
246.017
252.59
259.063
265.459
271.816
278.173
284.565
291.021
297.565
304.215
191.568
194.899
199.052
203.956
209.508
215.57
221.982
228.572
235.177
241.67
247.979
254.092
260.042
265.892
271.709
277.558
283.487
289.535
295.727
302.08
192.243
195.761
200.099
205.185
210.91
217.126
223.653
230.289
236.839
243.154
249.161
254.874
260.367
265.743
271.101
276.526
282.078
287.799
293.717
299.845
191.789
195.354
199.75
204.903
210.702
216.994
223.582
230.244
236.759
242.957
248.766
254.216
259.413
264.487
269.559
274.724
280.051
285.585
291.351
297.364
190.111
193.554
197.839
202.894
208.604
214.815
221.328
227.919
234.367
240.502
246.253
251.648
256.793
261.816
266.842
271.967
277.265
282.782
288.547
294.575
187.3
190.457
194.471
199.271
204.74
210.726
217.038
223.471
229.825
235.951
241.776
247.31
252.629
257.838
263.043
268.336
273.788
279.451
285.358
291.528
183.65
186.391
190.023
194.475
199.631
205.34
211.424
217.696
223.985
230.156
236.137
241.916
247.534
253.06
258.578
264.168
269.898
275.821
281.976
288.386
179.636
181.883
185.085
189.175
194.035
199.512
205.429
211.609
217.894
224.161
230.332
236.378
242.313
248.181
254.043
259.966
266.016
272.248
278.704
285.409
175.923
177.645
180.422
184.191
188.826
194.157
199.998
206.166
212.504
218.891
225.246
231.529
237.739
243.902
250.065
256.288
262.635
269.164
275.922
282.935
173.383
174.594
176.98
180.483
184.959
190.212
196.03
202.219
208.619
215.107
221.601
228.059
234.468
240.846
247.232
253.684
260.266
267.042
274.063
281.358
173.06
173.827
175.867
179.125
183.439
188.588
194.342
200.497
206.89
213.402
219.952
226.494
233.013
239.521
246.051
252.658
259.406
266.364
273.588
281.104
175.878
176.324
178.058
181.029
185.08
189.989
195.531
201.505
207.755
214.164
220.653
227.176
233.714
240.273
246.881
253.586
260.446
267.528
274.883
282.534
182.118
182.381
183.844
186.47
190.126
194.627
199.779
205.402
211.352
217.519
223.826
230.226
236.696
243.235
249.862
256.615
263.54
270.689
278.1
285.792
)
;
    }
    coldSide
    {
        type            mixed;
        refValue        uniform 300;
        refGradient     uniform 0;
        valueFraction   uniform 0.991591;
        source          uniform 0;
        value           nonuniform List<scalar> 
400
(
300.01
300.01
300.01
300.01
300.011
300.011
300.011
300.012
300.012
300.012
300.013
300.013
300.014
300.014
300.015
300.015
300.016
300.016
300.016
300.017
300.009
300.009
300.01
300.01
300.01
300.01
300.011
300.011
300.012
300.012
300.013
300.013
300.014
300.014
300.014
300.015
300.016
300.016
300.016
300.016
300.009
300.009