/*--------------------------------*- C++ -*----------------------------------*\
| =========                 |                                                 |
| \\      /  F ield         | OpenFOAM: The Open Source CFD Toolbox           |
|  \\    /   O peration     | Version:  2212                                  |
|   \\  /    A nd           | Website:  www.openfoam.com                      |
|    \\/     M anipulation  |                                                 |
\*---------------------------------------------------------------------------*/
FoamFile
{
    version     2.0;
    format      ascii;
    arch        "LSB;label=32;scalar=64";
    class       volScalarField;
    location    "0";
    object      Tdirect;
}
// * * * * * * * * * * * * * * * * * * * * * * * * * * * * * * * * * * * * * //

dimensions      [0 0 0 1 0 0 0];

internalField   nonuniform List<scalar> 
3200
(
330.242
330.68
331.239
331.848
332.476
333.092
333.66
334.14
334.489
334.674
334.674
334.489
334.14
333.66
333.092
332.476
331.848
331.239
330.68
330.242
326.334
326.705
327.187
327.714
328.257
328.789
329.281
329.695
329.997
330.157
330.157
329.997
329.695
329.281
328.789
328.257
327.714
327.187
326.705
326.334
322.374
322.681
323.087
323.533
323.991
324.441
324.856
325.206
325.461
325.595
325.595
325.461
325.206
324.856
324.441
323.991
323.533
323.087
322.681
322.374
318.369
318.616
318.948
319.311
319.686
320.054
320.393
320.679
320.887
320.996
320.996
320.887
320.679
320.393
320.054
319.686
319.311
318.948
318.616
318.369
314.328
314.518
314.775
315.058
315.349
315.635
315.898
316.12
316.282
316.367
316.367
316.282
316.12
315.898
315.635
315.349
315.058
314.775
314.518
314.328
310.259
310.394
310.577
310.779
310.987
311.191
311.379
311.537
311.653
311.713
311.713
311.653
311.537
311.379
311.191
310.987
310.779
310.577
310.394
310.259
306.171
306.251
306.361
306.482
306.607
306.729
306.842
306.937
307.006
307.043
307.043
307.006
306.937
306.842
306.729
306.607
306.482
306.361
306.251
306.171
302.07
302.097
302.133
302.174
302.216
302.257
302.295
302.327
302.35
302.362
302.362
302.35
302.327
302.295
302.257
302.216
302.174
302.133
302.097
302.07
330.341
330.775
331.329
331.933
332.554
333.163
333.724
334.198
334.543
334.725
334.725
334.543
334.198
333.724
333.163
332.554
331.933
331.329
330.775
330.341
326.42
326.787
327.265
327.787
328.325
328.852
329.337
329.747
330.045
330.202
330.202
330.045
329.747
329.337
328.852
328.325
327.787
327.265
326.787
326.42
322.446
322.751
323.154
323.595
324.049
324.494
324.904
325.25
325.501
325.634
325.634
325.501
325.25
324.904
324.494
324.049
323.595
323.154
322.751
322.446
318.429
318.674
319.002
319.363
319.734
320.098
320.433
320.715
320.92
321.029
321.029
320.92
320.715
320.433
320.098
319.734
319.363
319.002
318.674
318.429
314.375
314.563
314.818
315.098
315.387
315.669
315.929
316.149
316.308
316.392
316.392
316.308
316.149
315.929
315.669
315.387
315.098
314.818
314.563
314.375
310.293
310.426
310.608
310.808
311.014
311.216
311.401
311.558
311.672
311.731
311.731
311.672
311.558
311.401
311.216
311.014
310.808
310.608
310.426
310.293
306.191
306.27
306.379
306.499
306.623
306.744
306.856
306.95
307.018
307.054
307.054
307.018
306.95
306.856
306.744
306.623
306.499
306.379
306.27
306.191
302.077
302.103
302.14
302.18
302.221
302.262
302.299
302.331
302.354
302.366
302.366
302.354
302.331
302.299
302.262
302.221
302.18
302.14
302.103
302.077
330.538
330.965
331.51
332.102
332.711
333.306
333.855
334.317
334.654
334.831
334.831
334.654
334.317
333.855
333.306
332.711
332.102
331.51
330.965
330.538
326.591
326.953
327.423
327.935
328.462
328.977
329.452
329.851
330.142
330.295
330.295
330.142
329.851
329.452
328.977
328.462
327.935
327.423
326.953
326.591
322.592
322.892
323.288
323.721
324.166
324.602
325.002
325.339
325.584
325.714
325.714
325.584
325.339
325.002
324.602
324.166
323.721
323.288
322.892
322.592
318.548
318.79
319.112
319.466
319.83
320.186
320.513
320.789
320.989
321.094
321.094
320.989
320.789
320.513
320.186
319.83
319.466
319.112
318.79
318.548
314.468
314.654
314.904
315.179
315.462
315.738
315.993
316.206
316.362
316.444
316.444
316.362
316.206
315.993
315.738
315.462
315.179
314.904
314.654
314.468
310.36
310.491
310.669
310.866
311.068
311.265
311.447
311.599
311.71
311.769
311.769
311.71
311.599
311.447
311.265
311.068
310.866
310.669
310.491
310.36
306.231
306.309
306.416
306.534
306.655
306.774
306.883
306.975
307.041
307.076
307.076
307.041
306.975
306.883
306.774
306.655
306.534
306.416
306.309
306.231
302.09
302.116
302.152
302.192
302.232
302.272
302.308
302.339
302.361
302.373
302.373
302.361
302.339
302.308
302.272
302.232
302.192
302.152
302.116
302.09
330.834
331.252
331.783
332.359
332.949
333.526
334.056
334.502
334.825
334.996
334.996
334.825
334.502
334.056
333.526
332.949
332.359
331.783
331.252
330.834
326.849
327.203
327.661
328.159
328.67
329.169
329.628
330.013
330.293
330.44
330.44
330.293
330.013
329.628
329.169
328.67
328.159
327.661
327.203
326.849
322.811
323.104
323.49
323.911
324.343
324.765
325.152
325.477
325.713
325.838
325.838
325.713
325.477
325.152
324.765
324.343
323.911
323.49
323.104
322.811
318.728
318.964
319.279
319.623
319.976
320.321
320.637
320.903
321.095
321.197
321.197
321.095
320.903
320.637
320.321
319.976
319.623
319.279
318.964
318.728
314.608
314.79
315.034
315.301
315.576
315.843
316.089
316.296
316.445
316.524
316.524
316.445
316.296
316.089
315.843
315.576
315.301
315.034
314.79
314.608
310.46
310.588
310.762
310.953
311.149
311.341
311.516
311.663
311.77
311.826
311.826
311.77
311.663
311.516
311.341
311.149
310.953
310.762
310.588
310.46
306.291
306.368
306.472
306.587
306.705
306.819
306.925
307.013
307.077
307.111
307.111
307.077
307.013
306.925
306.819
306.705
306.587
306.472
306.368
306.291
302.11
302.136
302.171
302.209
302.249
302.287
302.322
302.352
302.374
302.385
302.385
302.374
302.352
302.322
302.287
302.249
302.209
302.171
302.136
302.11
331.232
331.636
332.15
332.705
333.273
333.826
334.332
334.757
335.065
335.227
335.227
335.065
334.757
334.332
333.826
333.273
332.705
332.15
331.636
331.232
327.195
327.538
327.981
328.461
328.953
329.431
329.869
330.237
330.503
330.643
330.643
330.503
330.237
329.869
329.431
328.953
328.461
327.981
327.538
327.195
323.105
323.389
323.762
324.169
324.584
324.988
325.358
325.669
325.893
326.011
326.011
325.893
325.669
325.358
324.988
324.584
324.169
323.762
323.389
323.105
318.969
319.198
319.502
319.834
320.174
320.504
320.807
321.06
321.244
321.34
321.34
321.244
321.06
320.807
320.504
320.174
319.834
319.502
319.198
318.969
314.796
314.972
315.208
315.466
315.73
315.987
316.222
316.419
316.561
316.636
316.636
316.561
316.419
316.222
315.987
315.73
315.466
315.208
314.972
314.796
310.595
310.719
310.887
311.071
311.26
311.443
311.611
311.752
311.853
311.907
311.907
311.853
311.752
311.611
311.443
311.26
311.071
310.887
310.719
310.595
306.372
306.446
306.547
306.658
306.771
306.881
306.982
307.066
307.127
307.16
307.16
307.127
307.066
306.982
306.881
306.771
306.658
306.547
306.446
306.372
302.137
302.162
302.196
302.233
302.271
302.308
302.342
302.37
302.39
302.401
302.401
302.39
302.37
302.342
302.308
302.271
302.233
302.196
302.162
302.137
331.732
332.121
332.614
333.145
333.686
334.211
334.69
335.091
335.381
335.533
335.533
335.381
335.091
334.69
334.211
333.686
333.145
332.614
332.121
331.732
327.63
327.96
328.385
328.845
329.313
329.768
330.182
330.529
330.779
330.911
330.911
330.779
330.529
330.182
329.768
329.313
328.845
328.385
327.96
327.63
323.475
323.748
324.106
324.495
324.891
325.275
325.625
325.918
326.129
326.241
326.241
326.129
325.918
325.625
325.275
324.891
324.495
324.106
323.748
323.475
319.273
319.493
319.785
320.102
320.426
320.74
321.026
321.266
321.438
321.529
321.529
321.438
321.266
321.026
320.74
320.426
320.102
319.785
319.493
319.273
315.033
315.202
315.429
315.675
315.927
316.171
316.394
316.58
316.714
316.784
316.784
316.714
316.58
316.394
316.171
315.927
315.675
315.429
315.202
315.033
310.764
310.884
311.045
311.221
311.401
311.576
311.734
311.867
311.963
312.013
312.013
311.963
311.867
311.734
311.576
311.401
311.221
311.045
310.884
310.764
306.474
306.546
306.642
306.748
306.856
306.961
307.056
307.136
307.193
307.224
307.224
307.193
307.136
307.056
306.961
306.856
306.748
306.642
306.546
306.474
302.172
302.195
302.228
302.263
302.3
302.335
302.367
302.393
302.413
302.423
302.423
302.413
302.393
302.367
302.335
302.3
302.263
302.228
302.195
302.172
332.336
332.708
333.178
333.682
334.193
334.687
335.137
335.511
335.781
335.923
335.923
335.781
335.511
335.137
334.687
334.193
333.682
333.178
332.708
332.336
328.156
328.472
328.877
329.313
329.756
330.184
330.572
330.896
331.13
331.252
331.252
331.13
330.896
330.572
330.184
329.756
329.313
328.877
328.472
328.156
323.921
324.183
324.524
324.893
325.267
325.629
325.958
326.231
326.428
326.532
326.532
326.428
326.231
325.958
325.629
325.267
324.893
324.524
324.183
323.921
319.639
319.85
320.128
320.43
320.736
321.031
321.3
321.524
321.685
321.769
321.769
321.685
321.524
321.3
321.031
320.736
320.43
320.128
319.85
319.639
315.319
315.481
315.696
315.931
316.169
316.399
316.607
316.781
316.906
316.972
316.972
316.906
316.781
316.607
316.399
316.169
315.931
315.696
315.481
315.319
310.969
311.083
311.237
311.404
311.574
311.739
311.888
312.012
312.101
312.148
312.148
312.101
312.012
311.888
311.739
311.574
311.404
311.237
311.083
310.969
306.597
306.665
306.758
306.858
306.96
307.059
307.148
307.223
307.277
307.305
307.305
307.277
307.223
307.148
307.059
306.96
306.858
306.758
306.665
306.597
302.213
302.236
302.267
302.3
302.335
302.368
302.398
302.423
302.441
302.45
302.45
302.441
302.423
302.398
302.368
302.335
302.3
302.267
302.236
302.213
333.046
333.4
333.845
334.32
334.8
335.261
335.679
336.026
336.275
336.406
336.406
336.275
336.026
335.679
335.261
334.8
334.32
333.845
333.4
333.046
328.775
329.074
329.458
329.869
330.285
330.684
331.046
331.346
331.562
331.675
331.675
331.562
331.346
331.046
330.684
330.285
329.869
329.458
329.074
328.775
324.447
324.695
325.018
325.366
325.717
326.055
326.361
326.614
326.797
326.892
326.892
326.797
326.614
326.361
326.055
325.717
325.366
325.018
324.695
324.447
320.071
320.27
320.534
320.818
321.105
321.382
321.632
321.839
321.988
322.066
322.066
321.988
321.839
321.632
321.382
321.105
320.818
320.534
320.27
320.071
315.655
315.809
316.013
316.234
316.458
316.672
316.867
317.028
317.143
317.204
317.204
317.143
317.028
316.867
316.672
316.458
316.234
316.013
315.809
315.655
311.21
311.318
311.464
311.622
311.781
311.935
312.073
312.189
312.271
312.314
312.314
312.271
312.189
312.073
311.935
311.781
311.622
311.464
311.318
311.21
306.742
306.807
306.894
306.989
307.085
307.177
307.26
307.329
307.379
307.405
307.405
307.379
307.329
307.26
307.177
307.085
306.989
306.894
306.807
306.742
302.261
302.283
302.312
302.344
302.376
302.407
302.435
302.458
302.475
302.484
302.484
302.475
302.458
302.435
302.407
302.376
302.344
302.312
302.283
302.261
333.865
334.2
334.618
335.063
335.51
335.937
336.323
336.642
336.871
336.99
336.99
336.871
336.642
336.323
335.937
335.51
335.063
334.618
334.2
333.865
329.488
329.771
330.131
330.517
330.904
331.274
331.608
331.884
332.082
332.185
332.185
332.082
331.884
331.608
331.274
330.904
330.517
330.131
329.771
329.488
325.052
325.287
325.591
325.916
326.244
326.557
326.839
327.073
327.24
327.327
327.327
327.24
327.073
326.839
326.557
326.244
325.916
325.591
325.287
325.052
320.568
320.756
321.004
321.271
321.538
321.795
322.025
322.216
322.353
322.424
322.424
322.353
322.216
322.025
321.795
321.538
321.271
321.004
320.756
320.568
316.043
316.188
316.38
316.587
316.795
316.995
317.174
317.322
317.429
317.484
317.484
317.429
317.322
317.174
316.995
316.795
316.587
316.38
316.188
316.043
311.487
311.59
311.727
311.875
312.023
312.166
312.294
312.4
312.476
312.515
312.515
312.476
312.4
312.294
312.166
312.023
311.875
311.727
311.59
311.487
306.909
306.97
307.052
307.141
307.231
307.316
307.393
307.457
307.502
307.526
307.526
307.502
307.457
307.393
307.316
307.231
307.141
307.052
306.97
306.909
302.317
302.338
302.365
302.395
302.425
302.454
302.48
302.501
302.516
302.524
302.524
302.516
302.501
302.48
302.454
302.425
302.395
302.365
302.338
302.317
334.795
335.109
335.5
335.914
336.328
336.722
337.076
337.367
337.575
337.684
337.684
337.575
337.367
337.076
336.722
336.328
335.914
335.5
335.109
334.795
330.297
330.563
330.9
331.259
331.617
331.959
332.265
332.517
332.697
332.791
332.791
332.697
332.517
332.265
331.959
331.617
331.259
330.9
330.563
330.297
325.739
325.96
326.244
326.547
326.851
327.14
327.399
327.612
327.764
327.844
327.844
327.764
327.612
327.399
327.14
326.851
326.547
326.244
325.96
325.739
321.132
321.309
321.541
321.789
322.037
322.273
322.485
322.659
322.784
322.849
322.849
322.784
322.659
322.485
322.273
322.037
321.789
321.541
321.309
321.132
316.483
316.619
316.799
316.992
317.185
317.368
317.533
317.669
317.765
317.816
317.816
317.765
317.669
317.533
317.368
317.185
316.992
316.799
316.619
316.483
311.802
311.898
312.027
312.164
312.302
312.433
312.551
312.648
312.717
312.753
312.753
312.717
312.648
312.551
312.433
312.302
312.164
312.027
311.898
311.802
307.098
307.156
307.233
307.315
307.398
307.477
307.548
307.606
307.647
307.669
307.669
307.647
307.606
307.548
307.477
307.398
307.315
307.233
307.156
307.098
302.381
302.4
302.426
302.454
302.481
302.508
302.532
302.551
302.565
302.572
302.572
302.565
302.551
302.532
302.508
302.481
302.454
302.426
302.4
302.381
335.837
336.13
336.495
336.878
337.26
337.621
337.943
338.208
338.396
338.494
338.494
338.396
338.208
337.943
337.621
337.26
336.878
336.495
336.13
335.837
331.204
331.452
331.766
332.099
332.429
332.742
333.021
333.25
333.414
333.499
333.499
333.414
333.25
333.021
332.742
332.429
332.099
331.766
331.452
331.204
326.51
326.716
326.98
327.261
327.541
327.806
328.042
328.236
328.374
328.446
328.446
328.374
328.236
328.042
327.806
327.541
327.261
326.98
326.716
326.51
321.764
321.93
322.146
322.375
322.604
322.821
323.014
323.172
323.285
323.344
323.344
323.285
323.172
323.014
322.821
322.604
322.375
322.146
321.93
321.764
316.976
317.103
317.271
317.449
317.627
317.796
317.946
318.069
318.157
318.203
318.203
318.157
318.069
317.946
317.796
317.627
317.449
317.271
317.103
316.976
312.155
312.245
312.364
312.492
312.619
312.74
312.847
312.935
312.998
313.03
313.03
312.998
312.935
312.847
312.74
312.619
312.492
312.364
312.245
312.155
307.311
307.364
307.436
307.513
307.589
307.661
307.726
307.779
307.816
307.836
307.836
307.816
307.779
307.726
307.661
307.589
307.513
307.436
307.364
307.311
302.452
302.47
302.494
302.52
302.545
302.57
302.591
302.609
302.622
302.628
302.628
302.622
302.609
302.591
302.57
302.545
302.52
302.494
302.47
302.452
336.993
337.266
337.604
337.957
338.307
338.636
338.929
339.168
339.338
339.426
339.426
339.338
339.168
338.929
338.636
338.307
337.957
337.604
337.266
336.993
332.21
332.441
332.732
333.039
333.342
333.627
333.881
334.088
334.235
334.312
334.312
334.235
334.088
333.881
333.627
333.342
333.039
332.732
332.441
332.21
327.364
327.556
327.801
328.061
328.317
328.559
328.773
328.948
329.073
329.137
329.137
329.073
328.948
328.773
328.559
328.317
328.061
327.801
327.556
327.364
322.465
322.62
322.82
323.032
323.241
323.439
323.615
323.758
323.86
323.913
323.913
323.86
323.758
323.615
323.439
323.241
323.032
322.82
322.62
322.465
317.523
317.641
317.797
317.961
318.125
318.278
318.415
318.526
318.606
318.647
318.647
318.606
318.526
318.415
318.278
318.125
317.961
317.797
317.641
317.523
312.547
312.63
312.741
312.859
312.975
313.085
313.183
313.263
313.319
313.348
313.348
313.319
313.263
313.183
313.085
312.975
312.859
312.741
312.63
312.547
307.546
307.596
307.663
307.733
307.803
307.869
307.928
307.976
308.01
308.027
308.027
308.01
307.976
307.928
307.869
307.803
307.733
307.663
307.596
307.546
302.531
302.548
302.57
302.594
302.617
302.639
302.659
302.675
302.687
302.692
302.692
302.687
302.675
302.659
302.639
302.617
302.594
302.57
302.548
302.531
338.264
338.517
338.829
339.154
339.473
339.773
340.038
340.253
340.405
340.484
340.484
340.405
340.253
340.038
339.773
339.473
339.154
338.829
338.517
338.264
333.316
333.531
333.8
334.081
334.358
334.618
334.847
335.034
335.166
335.234
335.234
335.166
335.034
334.847
334.618
334.358
334.081
333.8
333.531
333.316
328.304
328.482
328.708
328.946
329.181
329.4
329.594
329.752
329.864
329.922
329.922
329.864
329.752
329.594
329.4
329.181
328.946
328.708
328.482
328.304
323.236
323.379
323.564
323.759
323.951
324.131
324.289
324.419
324.51
324.557
324.557
324.51
324.419
324.289
324.131
323.951
323.759
323.564
323.379
323.236
318.124
318.234
318.377
318.529
318.678
318.818
318.941
319.042
319.113
319.15
319.15
319.113
319.042
318.941
318.818
318.678
318.529
318.377
318.234
318.124
312.977
313.055
313.157
313.265
313.372
313.472
313.56
313.632
313.683
313.709
313.709
313.683
313.632
313.56
313.472
313.372
313.265
313.157
313.055
312.977
307.805
307.851
307.913
307.978
308.042
308.102
308.155
308.198
308.228
308.244
308.244
308.228
308.198
308.155
308.102
308.042
307.978
307.913
307.851
307.805
302.618
302.634
302.654
302.676
302.697
302.717
302.735
302.75
302.76
302.765
302.765
302.76
302.75
302.735
302.717
302.697
302.676
302.654
302.634
302.618
339.65
339.885
340.172
340.469
340.76
341.031
341.27
341.463
341.6
341.67
341.67
341.6
341.463
341.27
341.031
340.76
340.469
340.172
339.885
339.65
334.523
334.721
334.969
335.227
335.479
335.714
335.921
336.088
336.206
336.268
336.268
336.206
336.088
335.921
335.714
335.479
335.227
334.969
334.721
334.523
329.328
329.493
329.701
329.92
330.133
330.332
330.507
330.649
330.749
330.801
330.801
330.749
330.649
330.507
330.332
330.133
329.92
329.701
329.493
329.328
324.077
324.21
324.38
324.558
324.733
324.896
325.039
325.155
325.237
325.279
325.279
325.237
325.155
325.039
324.896
324.733
324.558
324.38
324.21
324.077
318.78
318.881
319.013
319.152
319.288
319.415
319.526
319.617
319.68
319.713
319.713
319.68
319.617
319.526
319.415
319.288
319.152
319.013
318.881
318.78
313.446
313.518
313.612
313.712
313.809
313.899
313.979
314.043
314.089
314.112
314.112
314.089
314.043
313.979
313.899
313.809
313.712
313.612
313.518
313.446
308.087
308.13
308.187
308.246
308.304
308.359
308.407
308.446
308.473
308.487
308.487
308.473
308.446
308.407
308.359
308.304
308.246
308.187
308.13
308.087
302.713
302.727
302.746
302.766
302.785
302.804
302.82
302.833
302.842
302.847
302.847
302.842
302.833
302.82
302.804
302.785
302.766
302.746
302.727
302.713
341.15
341.367
341.63
341.902
342.166
342.411
342.626
342.799
342.921
342.984
342.984
342.921
342.799
342.626
342.411
342.166
341.902
341.63
341.367
341.15
335.828
336.011
336.238
336.473
336.703
336.915
337.101
337.251
337.357
337.412
337.412
337.357
337.251
337.101
336.915
336.703
336.473
336.238
336.011
335.828
330.436
330.588
330.779
330.979
331.172
331.352
331.51
331.637
331.726
331.773
331.773
331.726
331.637
331.51
331.352
331.172
330.979
330.779
330.588
330.436
324.986
325.108
325.264
325.427
325.586
325.733
325.862
325.966
326.039
326.077
326.077
326.039
325.966
325.862
325.733
325.586
325.427
325.264
325.108
324.986
319.488
319.582
319.703
319.83
319.953
320.068
320.168
320.249
320.306
320.336
320.336
320.306
320.249
320.168
320.068
319.953
319.83
319.703
319.582
319.488
313.953
314.02
314.106
314.197
314.285
314.367
314.439
314.497
314.537
314.558
314.558
314.537
314.497
314.439
314.367
314.285
314.197
314.106
314.02
313.953
308.392
308.432
308.484
308.538
308.591
308.64
308.683
308.718
308.742
308.755
308.755
308.742
308.718
308.683
308.64
308.591
308.538
308.484
308.432
308.392
302.815
302.828
302.846
302.864
302.882
302.898
302.912
302.924
302.932
302.937
302.937
302.932
302.924
302.912
302.898
302.882
302.864
302.846
302.828
302.815
342.757
342.956
343.198
343.446
343.685
343.906
344.099
344.254
344.363
344.419
344.419
344.363
344.254
344.099
343.906
343.685
343.446
343.198
342.956
342.757
337.224
337.393
337.601
337.816
338.024
338.216
338.383
338.517
338.611
338.66
338.66
338.611
338.517
338.383
338.216
338.024
337.816
337.601
337.393
337.224
331.621
331.761
331.936
332.118
332.294
332.456
332.598
332.711
332.791
332.832
332.832
332.791
332.711
332.598
332.456
332.294
332.118
331.936
331.761
331.621
325.958
326.07
326.213
326.362
326.506
326.639
326.755
326.848
326.913
326.947
326.947
326.913
326.848
326.755
326.639
326.506
326.362
326.213
326.07
325.958
320.245
320.331
320.443
320.558
320.67
320.774
320.864
320.936
320.987
321.013
321.013
320.987
320.936
320.864
320.774
320.67
320.558
320.443
320.331
320.245
314.495
314.556
314.635
314.718
314.798
314.872
314.936
314.988
315.025
315.043
315.043
315.025
314.988
314.936
314.872
314.798
314.718
314.635
314.556
314.495
308.718
308.754
308.802
308.851
308.899
308.944
308.983
309.014
309.035
309.047
309.047
309.035
309.014
308.983
308.944
308.899
308.851
308.802
308.754
308.718
302.924
302.936
302.952
302.969
302.985
303
303.013
303.023
303.031
303.034
303.034
303.031
303.023
303.013
303
302.985
302.969
302.952
302.936
302.924
344.453
344.636
344.857
345.083
345.3
345.499
345.672
345.811
345.908
345.958
345.958
345.908
345.811
345.672
345.499
345.3
345.083
344.857
344.636
344.453
338.695
338.85
339.041
339.237
339.425
339.598
339.748
339.869
339.953
339.996
339.996
339.953
339.869
339.748
339.598
339.425
339.237
339.041
338.85
338.695
332.867
332.995
333.156
333.321
333.481
333.627
333.755
333.857
333.928
333.965
333.965
333.928
333.857
333.755
333.627
333.481
333.321
333.156
332.995
332.867
326.977
327.081
327.212
327.347
327.478
327.598
327.702
327.785
327.844
327.874
327.874
327.844
327.785
327.702
327.598
327.478
327.347
327.212
327.081
326.977
321.039
321.118
321.22
321.325
321.427
321.52
321.601
321.666
321.712
321.735
321.735
321.712
321.666
321.601
321.52
321.427
321.325
321.22
321.118
321.039
315.062
315.118
315.191
315.266
315.339
315.406
315.464
315.51
315.543
315.559
315.559
315.543
315.51
315.464
315.406
315.339
315.266
315.191
315.118
315.062
309.058
309.092
309.135
309.181
309.224
309.264
309.299
309.327
309.347
309.357
309.357
309.347
309.327
309.299
309.264
309.224
309.181
309.135
309.092
309.058
303.038
303.05
303.064
303.079
303.094
303.107
303.119
303.128
303.135
303.138
303.138
303.135
303.128
303.119
303.107
303.094
303.079
303.064
303.05
303.038
346.191
346.359
346.562
346.768
346.965
347.145
347.301
347.426
347.513
347.557
347.557
347.513
347.426
347.301
347.145
346.965
346.768
346.562
346.359
346.191
340.196
340.339
340.514
340.692
340.863
341.02
341.155
341.263
341.339
341.378
341.378
341.339
341.263
341.155
341.02
340.863
340.692
340.514
340.339
340.196
334.132
334.25
334.398
334.549
334.694
334.827
334.941
335.033
335.097
335.13
335.13
335.097
335.033
334.941
334.827
334.694
334.549
334.398
334.25
334.132
328.01
328.105
328.225
328.349
328.468
328.576
328.67
328.745
328.798
328.825
328.825
328.798
328.745
328.67
328.576
328.468
328.349
328.225
328.105
328.01
321.84
321.913
322.006
322.102
322.195
322.28
322.353
322.411
322.452
322.473
322.473
322.452
322.411
322.353
322.28
322.195
322.102
322.006
321.913
321.84
315.633
315.685
315.752
315.82
315.887
315.947
316
316.041
316.07
316.085
316.085
316.07
316.041
316
315.947
315.887
315.82
315.752
315.685
315.633
309.401
309.432
309.472
309.513
309.553
309.589
309.621
309.646
309.663
309.672
309.672
309.663
309.646
309.621
309.589
309.553
309.513
309.472
309.432
309.401
303.153
303.163
303.177
303.191
303.204
303.216
303.227
303.235
303.241
303.244
303.244
303.241
303.235
303.227
303.216
303.204
303.191
303.177
303.163
303.153
347.857
348.012
348.199
348.388
348.569
348.733
348.874
348.987
349.066
349.106
349.106
349.066
348.987
348.874
348.733
348.569
348.388
348.199
348.012
347.857
341.617
341.749
341.91
342.075
342.231
342.374
342.497
342.595
342.664
342.699
342.699
342.664
342.595
342.497
342.374
342.231
342.075
341.91
341.749
341.617
335.317
335.427
335.563
335.702
335.835
335.956
336.061
336.144
336.202
336.232
336.232
336.202
336.144
336.061
335.956
335.835
335.702
335.563
335.427
335.317
328.967
329.055
329.167
329.281
329.39
329.489
329.575
329.643
329.691
329.715
329.715
329.691
329.643
329.575
329.489
329.39
329.281
329.167
329.055
328.967
322.577
322.645
322.732
322.82
322.905
322.983
323.05
323.103
323.14
323.159
323.159
323.14
323.103
323.05
322.983
322.905
322.82
322.732
322.645
322.577
316.156
316.204
316.266
316.33
316.39
316.446
316.494
316.532
316.558
316.572
316.572
316.558
316.532
316.494
316.446
316.39
316.33
316.266
316.204
316.156
309.714
309.742
309.779
309.817
309.854
309.887
309.916
309.939
309.955
309.963
309.963
309.955
309.939
309.916
309.887
309.854
309.817
309.779
309.742
309.714
303.258
303.267
303.28
303.292
303.305
303.316
303.325
303.333
303.338
303.341
303.341
303.338
303.333
303.325
303.316
303.305
303.292
303.28
303.267
303.258
349.154
349.3
349.476
349.653
349.822
349.976
350.107
350.212
350.285
350.322
350.322
350.285
350.212
350.107
349.976
349.822
349.653
349.476
349.3
349.154
342.682
342.806
342.959
343.113
343.26
343.394
343.509
343.6
343.664
343.696
343.696
343.664
343.6
343.509
343.394
343.26
343.113
342.959
342.806
342.682
336.178
336.282
336.411
336.542
336.667
336.781
336.879
336.957
337.011
337.038
337.038
337.011
336.957
336.879
336.781
336.667
336.542
336.411
336.282
336.178
329.647
329.73
329.836
329.943
330.046
330.14
330.22
330.284
330.328
330.351
330.351
330.328
330.284
330.22
330.14
330.046
329.943
329.836
329.73
329.647
323.091
323.155
323.237
323.321
323.401
323.474
323.537
323.587
323.622
323.64
323.64
323.622
323.587
323.537
323.474
323.401
323.321
323.237
323.155
323.091
316.516
316.561
316.62
316.68
316.737
316.79
316.835
316.87
316.895
316.908
316.908
316.895
316.87
316.835
316.79
316.737
316.68
316.62
316.561
316.516
309.926
309.953
309.989
310.025
310.059
310.091
310.118
310.14
310.154
310.162
310.162
310.154
310.14
310.118
310.091
310.059
310.025
309.989
309.953
309.926
303.328
303.337
303.349
303.361
303.373
303.384
303.393
303.4
303.405
303.407
303.407
303.405
303.4
303.393
303.384
303.373
303.361
303.349
303.337
303.328
)
;

boundaryField
{
    hotSide
    {
        type            fixedGradient;
        gradient        nonuniform List<scalar> 
400
(
307.835
308.839
310.852
313.883
317.946
323.055
329.231
336.492
344.861
354.358
365.003
376.817
389.815
404.015
419.43
436.071
453.95
473.072
493.446
515.077
313.595
314.554
316.478
319.378
323.274
328.185
334.137
341.156
349.268
358.502
368.881
380.43
393.17
407.12
422.296
438.71
456.375
475.298
495.487
516.945
319.829
320.734
322.551
325.297
328.994
333.672
339.363
346.099
353.917
362.848
372.926
384.178
396.63
410.303
425.217
441.385
458.82
477.529
497.521
518.799
326.434
327.275
328.968
331.534
335.004
339.415
344.807
351.224
358.709
367.305
377.049
387.975
400.114
413.49
428.124
444.032
461.225
479.714
499.502
520.595
333.224
333.994
335.548
337.913
341.129
345.243
350.307
356.375
363.501
371.735
381.123
391.706
403.517
416.585
430.931
446.573
463.523
481.788
501.375
522.284
339.917
340.611
342.015
344.167
347.114
350.915
355.635
361.34
368.094
375.958
384.985
395.222
406.706
419.468
433.533
448.916
465.63
483.682
503.076
523.812
346.13
346.747
348.003
349.942
352.622
356.116
360.499
365.851
372.247
379.757
388.441
398.352
409.53
422.009
435.813
450.96
467.46
485.319
504.541
525.123
351.402
351.951
353.073
354.821
357.263
360.482
364.568
369.609
375.692
382.894
391.282
400.913
411.831
424.07
437.655
452.604
468.926
486.627
505.707
526.163
355.261
355.756
356.777
358.379
360.64
363.651
367.511
372.319
378.167
385.14
393.309
402.734
413.461
425.525
438.952
453.759
469.953
487.54
506.518
526.885
357.306
357.772
358.737
360.26
362.422
365.321
369.059
373.741
379.464
386.314
394.366
403.681
414.307
426.28
439.623
454.354
470.482
488.009
506.935
527.256
357.306
357.772
358.737
360.26
362.422
365.321
369.059
373.741
379.464
386.314
394.366
403.681
414.307
426.28
439.623
454.354
470.482
488.009
506.935
527.256
355.261
355.756
356.777
358.379
360.64
363.651
367.511
372.319
378.167
385.14
393.309
402.734
413.461
425.525
438.952
453.759
469.953
487.54
506.518
526.885
351.402
351.951
353.073
354.821
357.263
360.482
364.568
369.609
375.692
382.894
391.282
400.913
411.831
424.07
437.655
452.604
468.926
486.627
505.707
526.163
346.13
346.747
348.003
349.942
352.622
356.116
360.499
365.851
372.247
379.757
388.441
398.352
409.53
422.009
435.813
450.96
467.46
485.319
504.541
525.123
339.917
340.611
342.015
344.167
347.114
350.915
355.635
361.34
368.094
375.958
384.985
395.222
406.706
419.468
433.533
448.916
465.63
483.682
503.076
523.812
333.224
333.994
335.548
337.913
341.129
345.243
350.307
356.375
363.501
371.735
381.123
391.706
403.517
416.585
430.931
446.573
463.523
481.788
501.375
522.284
326.434
327.275
328.968
331.534
335.004
339.415
344.807
351.224
358.709
367.305
377.049
387.975
400.114
413.49
428.124
444.032
461.225
479.714
499.502
520.595
319.829
320.734
322.551
325.297
328.994
333.672
339.363
346.099
353.917
362.848
372.926
384.178
396.63
410.303
425.217
441.385
458.82
477.529
497.521
518.799
313.595
314.554
316.478
319.378
323.274
328.185
334.137
341.156
349.268
358.502
368.881
380.43
393.17
407.12
422.296
438.71
456.375
475.298
495.487
516.945
307.835
308.839
310.852
313.883
317.946
323.055
329.231
336.492
344.861
354.358
365.003
376.817
389.815
404.015
419.43
436.071
453.95
473.072
493.446
515.077
)
;
    }
    coldSide
    {
        type            mixed;
        refValue        uniform 300;
        refGradient     uniform 0;
        valueFraction   uniform 0.991591;
        source          uniform 0;
        value           nonuniform List<scalar> 
400
(
300.017
300.017
300.018
300.018
300.018
300.018
300.019
300.019
300.019
300.02
300.021
300.021
300.022
300.023
300.024
300.025
300.026
300.027
300.027
300.028
300.018
300.018
300.018
300.018
300.018
300.018
300.019
300.019
300.02
300.02
300.021
300.021
300.022
300.023
300.024
300.025
300.026