/*--------------------------------*- C++ -*----------------------------------*\
| =========                 |                                                 |
| \\      /  F ield         | OpenFOAM: The Open Source CFD Toolbox           |
|  \\    /   O peration     | Version:  2212                                  |
|   \\  /    A nd           | Website:  www.openfoam.com                      |
|    \\/     M anipulation  |                                                 |
\*---------------------------------------------------------------------------*/
FoamFile
{
    version     2.0;
    format      ascii;
    arch        "LSB;label=32;scalar=64";
    class       volScalarField;
    location    "0";
    object      Ttrue;
}
// * * * * * * * * * * * * * * * * * * * * * * * * * * * * * * * * * * * * * //

dimensions      [0 0 0 1 0 0 0];

internalField   nonuniform List<scalar> 
3200
(
332.137
332.583
333.153
333.775
334.415
335.043
335.623
336.113
336.469
336.658
336.658
336.469
336.113
335.623
335.043
334.415
333.775
333.153
332.583
332.137
327.977
328.355
328.847
329.384
329.938
330.482
330.983
331.406
331.714
331.877
331.877
331.714
331.406
330.983
330.482
329.938
329.384
328.847
328.355
327.977
323.764
324.078
324.492
324.947
325.415
325.874
326.297
326.654
326.914
327.051
327.051
326.914
326.654
326.297
325.874
325.415
324.947
324.492
324.078
323.764
319.507
319.76
320.098
320.469
320.852
321.227
321.572
321.864
322.076
322.188
322.188
322.076
321.864
321.572
321.227
320.852
320.469
320.098
319.76
319.507
315.214
315.408
315.67
315.959
316.256
316.547
316.816
317.042
317.207
317.294
317.294
317.207
317.042
316.816
316.547
316.256
315.959
315.67
315.408
315.214
310.893
311.03
311.217
311.423
311.635
311.843
312.035
312.196
312.314
312.376
312.376
312.314
312.196
312.035
311.843
311.635
311.423
311.217
311.03
310.893
306.551
306.633
306.745
306.869
306.996
307.121
307.236
307.333
307.404
307.441
307.441
307.404
307.333
307.236
307.121
306.996
306.869
306.745
306.633
306.551
302.197
302.225
302.262
302.304
302.346
302.388
302.427
302.459
302.483
302.495
302.495
302.483
302.459
302.427
302.388
302.346
302.304
302.262
302.225
302.197
332.243
332.686
333.251
333.867
334.5
335.122
335.695
336.178
336.53
336.716
336.716
336.53
336.178
335.695
335.122
334.5
333.867
333.251
332.686
332.243
328.069
328.444
328.932
329.465
330.013
330.55
331.046
331.464
331.768
331.928
331.928
331.768
331.464
331.046
330.55
330.013
329.465
328.932
328.444
328.069
323.843
324.154
324.565
325.015
325.478
325.932
326.351
326.703
326.96
327.095
327.095
326.96
326.703
326.351
325.932
325.478
325.015
324.565
324.154
323.843
319.572
319.822
320.157
320.525
320.904
321.275
321.617
321.905
322.114
322.224
322.224
322.114
321.905
321.617
321.275
320.904
320.525
320.157
319.822
319.572
315.264
315.457
315.717
316.002
316.297
316.585
316.851
317.074
317.237
317.322
317.322
317.237
317.074
316.851
316.585
316.297
316.002
315.717
315.457
315.264
310.929
311.065
311.25
311.454
311.664
311.87
312.06
312.219
312.335
312.396
312.396
312.335
312.219
312.06
311.87
311.664
311.454
311.25
311.065
310.929
306.573
306.654
306.765
306.888
307.014
307.137
307.251
307.347
307.416
307.453
307.453
307.416
307.347
307.251
307.137
307.014
306.888
306.765
306.654
306.573
302.205
302.232
302.269
302.31
302.352
302.394
302.432
302.464
302.487
302.5
302.5
302.487
302.464
302.432
302.394
302.352
302.31
302.269
302.232
302.205
332.456
332.892
333.448
334.052
334.673
335.281
335.841
336.312
336.655
336.836
336.836
336.655
336.312
335.841
335.281
334.673
334.052
333.448
332.892
332.456
328.255
328.624
329.103
329.626
330.163
330.689
331.173
331.581
331.877
332.033
332.033
331.877
331.581
331.173
330.689
330.163
329.626
329.103
328.624
328.255
324
324.307
324.71
325.152
325.606
326.051
326.459
326.803
327.053
327.185
327.185
327.053
326.803
326.459
326.051
325.606
325.152
324.71
324.307
324
319.701
319.948
320.277
320.638
321.009
321.372
321.706
321.987
322.191
322.299
322.299
322.191
321.987
321.706
321.372
321.009
320.638
320.277
319.948
319.701
315.365
315.555
315.81
316.09
316.379
316.661
316.921
317.139
317.297
317.381
317.381
317.297
317.139
316.921
316.661
316.379
316.09
315.81
315.555
315.365
311.001
311.135
311.317
311.517
311.723
311.925
312.11
312.266
312.379
312.438
312.438
312.379
312.266
312.11
311.925
311.723
311.517
311.317
311.135
311.001
306.616
306.696
306.805
306.925
307.049
307.17
307.281
307.375
307.443
307.478
307.478
307.443
307.375
307.281
307.17
307.049
306.925
306.805
306.696
306.616
302.219
302.246
302.282
302.323
302.364
302.405
302.442
302.473
302.496
302.508
302.508
302.496
302.473
302.442
302.405
302.364
302.323
302.282
302.246
302.219
332.777
333.203
333.745
334.332
334.935
335.523
336.064
336.519
336.849
337.023
337.023
336.849
336.519
336.064
335.523
334.935
334.332
333.745
333.203
332.777
328.534
328.895
329.362
329.87
330.392
330.901
331.369
331.762
332.047
332.197
332.197
332.047
331.762
331.369
330.901
330.392
329.87
329.362
328.895
328.534
324.238
324.537
324.93
325.36
325.801
326.231
326.626
326.958
327.198
327.325
327.325
327.198
326.958
326.626
326.231
325.801
325.36
324.93
324.537
324.238
319.896
320.136
320.457
320.809
321.169
321.521
321.843
322.114
322.311
322.414
322.414
322.311
322.114
321.843
321.521
321.169
320.809
320.457
320.136
319.896
315.517
315.702
315.951
316.224
316.504
316.777
317.028
317.238
317.391
317.471
317.471
317.391
317.238
317.028
316.777
316.504
316.224
315.951
315.702
315.517
311.109
311.24
311.418
311.613
311.813
312.008
312.187
312.337
312.446
312.503
312.503
312.446
312.337
312.187
312.008
311.813
311.613
311.418
311.24
311.109
306.681
306.759
306.866
306.983
307.103
307.22
307.328
307.418
307.483
307.518
307.518
307.483
307.418
307.328
307.22
307.103
306.983
306.866
306.759
306.681
302.241
302.267
302.303
302.342
302.382
302.422
302.458
302.488
302.51
302.521
302.521
302.51
302.488
302.458
302.422
302.382
302.342
302.303
302.267
302.241
333.207
333.62
334.144
334.71
335.29
335.854
336.37
336.804
337.118
337.283
337.283
337.118
336.804
336.37
335.854
335.29
334.71
334.144
333.62
333.207
328.908
329.258
329.71
330.2
330.701
331.189
331.636
332.011
332.283
332.425
332.425
332.283
332.011
331.636
331.189
330.701
330.2
329.71
329.258
328.908
324.555
324.845
325.226
325.64
326.064
326.477
326.854
327.171
327.4
327.52
327.52
327.4
327.171
326.854
326.477
326.064
325.64
325.226
324.845
324.555
320.156
320.39
320.7
321.039
321.385
321.723
322.031
322.29
322.477
322.575
322.575
322.477
322.29
322.031
321.723
321.385
321.039
320.7
320.39
320.156
315.72
315.899
316.14
316.403
316.673
316.935
317.175
317.375
317.521
317.597
317.597
317.521
317.375
317.175
316.935
316.673
316.403
316.14
315.899
315.72
311.255
311.382
311.553
311.741
311.934
312.121
312.292
312.435
312.539
312.594
312.594
312.539
312.435
312.292
312.121
311.934
311.741
311.553
311.382
311.255
306.769
306.845
306.948
307.06
307.176
307.288
307.391
307.477
307.539
307.572
307.572
307.539
307.477
307.391
307.288
307.176
307.06
306.948
306.845
306.769
302.27
302.296
302.33
302.368
302.407
302.444
302.479
302.508
302.529
302.539
302.539
302.529
302.508
302.479
302.444
302.407
302.368
302.33
302.296
302.27
333.748
334.145
334.648
335.19
335.742
336.277
336.766
337.175
337.471
337.626
337.626
337.471
337.175
336.766
336.277
335.742
335.19
334.648
334.145
333.748
329.379
329.715
330.149
330.618
331.096
331.559
331.982
332.336
332.591
332.726
332.726
332.591
332.336
331.982
331.559
331.096
330.618
330.149
329.715
329.379
324.955
325.234
325.599
325.996
326.4
326.791
327.149
327.447
327.663
327.777
327.777
327.663
327.447
327.149
326.791
326.4
325.996
325.599
325.234
324.955
320.484
320.709
321.007
321.331
321.661
321.981
322.273
322.517
322.694
322.786
322.786
322.694
322.517
322.273
321.981
321.661
321.331
321.007
320.709
320.484
315.976
316.148
316.379
316.631
316.888
317.137
317.364
317.554
317.69
317.762
317.762
317.69
317.554
317.364
317.137
316.888
316.631
316.379
316.148
315.976
311.438
311.56
311.725
311.905
312.088
312.266
312.428
312.563
312.661
312.712
312.712
312.661
312.563
312.428
312.266
312.088
311.905
311.725
311.56
311.438
306.879
306.952
307.051
307.159
307.269
307.375
307.473
307.554
307.613
307.644
307.644
307.613
307.554
307.473
307.375
307.269
307.159
307.051
306.952
306.879
302.307
302.332
302.365
302.401
302.438
302.474
302.506
302.533
302.553
302.563
302.563
302.553
302.533
302.506
302.474
302.438
302.401
302.365
302.332
302.307
334.401
334.781
335.26
335.774
336.296
336.8
337.258
337.64
337.916
338.06
338.06
337.916
337.64
337.258
336.8
336.296
335.774
335.26
334.781
334.401
329.947
330.269
330.682
331.127
331.579
332.015
332.412
332.742
332.981
333.106
333.106
332.981
332.742
332.412
332.015
331.579
331.127
330.682
330.269
329.947
325.437
325.704
326.052
326.429
326.811
327.179
327.515
327.794
327.995
328.101
328.101
327.995
327.794
327.515
327.179
326.811
326.429
326.052
325.704
325.437
320.88
321.095
321.379
321.687
321.999
322.3
322.575
322.803
322.967
323.053
323.053
322.967
322.803
322.575
322.3
321.999
321.687
321.379
321.095
320.88
316.285
316.449
316.67
316.909
317.152
317.386
317.599
317.776
317.904
317.971
317.971
317.904
317.776
317.599
317.386
317.152
316.909
316.67
316.449
316.285
311.659
311.776
311.933
312.103
312.277
312.444
312.596
312.723
312.814
312.862
312.862
312.814
312.723
312.596
312.444
312.277
312.103
311.933
311.776
311.659
307.012
307.081
307.176
307.278
307.382
307.483
307.574
307.65
307.705
307.734
307.734
307.705
307.65
307.574
307.483
307.382
307.278
307.176
307.081
307.012
302.352
302.375
302.407
302.441
302.476
302.51
302.54
302.566
302.584
302.594
302.594
302.584
302.566
302.54
302.51
302.476
302.441
302.407
302.375
302.352
335.169
335.53
335.983
336.468
336.957
337.428
337.854
338.208
338.462
338.596
338.596
338.462
338.208
337.854
337.428
336.957
336.468
335.983
335.53
335.169
330.615
330.921
331.312
331.732
332.155
332.563
332.932
333.238
333.458
333.573
333.573
333.458
333.238
332.932
332.563
332.155
331.732
331.312
330.921
330.615
326.005
326.258
326.588
326.942
327.301
327.645
327.957
328.216
328.402
328.499
328.499
328.402
328.216
327.957
327.645
327.301
326.942
326.588
326.258
326.005
321.346
321.55
321.819
322.109
322.402
322.683
322.938
323.15
323.302
323.381
323.381
323.302
323.15
322.938
322.683
322.402
322.109
321.819
321.55
321.346
316.648
316.804
317.013
317.238
317.466
317.685
317.883
318.048
318.166
318.228
318.228
318.166
318.048
317.883
317.685
317.466
317.238
317.013
316.804
316.648
311.919
312.03
312.178
312.339
312.502
312.659
312.8
312.918
313.002
313.046
313.046
313.002
312.918
312.8
312.659
312.502
312.339
312.178
312.03
311.919
307.168
307.234
307.323
307.42
307.518
307.612
307.697
307.767
307.818
307.844
307.844
307.818
307.767
307.697
307.612
307.518
307.42
307.323
307.234
307.168
302.404
302.426
302.456
302.489
302.521
302.553
302.581
302.605
302.622
302.631
302.631
302.622
302.605
302.581
302.553
302.521
302.489
302.456
302.426
302.404
336.053
336.394
336.821
337.275
337.731
338.167
338.56
338.886
339.119
339.241
339.241
339.119
338.886
338.56
338.167
337.731
337.275
336.821
336.394
336.053
331.385
331.673
332.042
332.435
332.829
333.207
333.548
333.83
334.031
334.137
334.137
334.031
333.83
333.548
333.207
332.829
332.435
332.042
331.673
331.385
326.658
326.898
327.208
327.54
327.874
328.194
328.482
328.72
328.89
328.979
328.979
328.89
328.72
328.482
328.194
327.874
327.54
327.208
326.898
326.658
321.882
322.075
322.328
322.599
322.873
323.134
323.369
323.564
323.703
323.776
323.776
323.703
323.564
323.369
323.134
322.873
322.599
322.328
322.075
321.882
317.066
317.214
317.41
317.621
317.834
318.037
318.22
318.371
318.48
318.536
318.536
318.48
318.371
318.22
318.037
317.834
317.621
317.41
317.214
317.066
312.218
312.323
312.463
312.614
312.765
312.911
313.041
313.149
313.227
313.267
313.267
313.227
313.149
313.041
312.911
312.765
312.614
312.463
312.323
312.218
307.348
307.411
307.494
307.585
307.676
307.763
307.842
307.907
307.953
307.978
307.978
307.953
307.907
307.842
307.763
307.676
307.585
307.494
307.411
307.348
302.465
302.486
302.514
302.544
302.575
302.604
302.63
302.652
302.667
302.676
302.676
302.667
302.652
302.63
302.604
302.575
302.544
302.514
302.486
302.465
337.057
337.377
337.776
338.199
338.621
339.023
339.384
339.681
339.893
340.004
340.004
339.893
339.681
339.384
339.023
338.621
338.199
337.776
337.377
337.057
332.258
332.529
332.873
333.239
333.605
333.954
334.266
334.523
334.707
334.803
334.803
334.707
334.523
334.266
333.954
333.605
333.239
332.873
332.529
332.258
327.4
327.624
327.915
328.224
328.533
328.828
329.092
329.31
329.465
329.546
329.546
329.465
329.31
329.092
328.828
328.533
328.224
327.915
327.624
327.4
322.491
322.671
322.908
323.161
323.414
323.655
323.871
324.049
324.176
324.242
324.242
324.176
324.049
323.871
323.655
323.414
323.161
322.908
322.671
322.491
317.54
317.679
317.863
318.059
318.256
318.444
318.612
318.75
318.849
318.9
318.9
318.849
318.75
318.612
318.444
318.256
318.059
317.863
317.679
317.54
312.558
312.656
312.787
312.927
313.068
313.202
313.322
313.421
313.491
313.528
313.528
313.491
313.421
313.322
313.202
313.068
312.927
312.787
312.656
312.558
307.552
307.611
307.69
307.774
307.858
307.939
308.011
308.07
308.113
308.135
308.135
308.113
308.07
308.011
307.939
307.858
307.774
307.69
307.611
307.552
302.533
302.553
302.579
302.607
302.636
302.663
302.687
302.707
302.721
302.728
302.728
302.721
302.707
302.687
302.663
302.636
302.607
302.579
302.553
302.533
338.181
338.48
338.852
339.243
339.632
340.001
340.33
340.6
340.792
340.892
340.892
340.792
340.6
340.33
340.001
339.632
339.243
338.852
338.48
338.181
333.236
333.49
333.81
334.149
334.486
334.806
335.091
335.324
335.491
335.577
335.577
335.491
335.324
335.091
334.806
334.486
334.149
333.81
333.49
333.236
328.23
328.44
328.711
328.997
329.282
329.552
329.793
329.991
330.132
330.205
330.205
330.132
329.991
329.793
329.552
329.282
328.997
328.711
328.44
328.23
323.172
323.341
323.562
323.796
324.029
324.25
324.447
324.609
324.724
324.784
324.784
324.724
324.609
324.447
324.25
324.029
323.796
323.562
323.341
323.172
318.072
318.201
318.372
318.555
318.736
318.908
319.061
319.187
319.277
319.323
319.323
319.277
319.187
319.061
318.908
318.736
318.555
318.372
318.201
318.072
312.938
313.03
313.152
313.282
313.412
313.535
313.644
313.734
313.798
313.831
313.831
313.798
313.734
313.644
313.535
313.412
313.282
313.152
313.03
312.938
307.781
307.836
307.909
307.987
308.065
308.139
308.205
308.259
308.297
308.317
308.317
308.297
308.259
308.205
308.139
308.065
307.987
307.909
307.836
307.781
302.61
302.628
302.653
302.679
302.705
302.73
302.752
302.77
302.783
302.789
302.789
302.783
302.77
302.752
302.73
302.705
302.679
302.653
302.628
302.61
339.427
339.706
340.051
340.412
340.768
341.104
341.403
341.647
341.82
341.91
341.91
341.82
341.647
341.403
341.104
340.768
340.412
340.051
339.706
339.427
334.321
334.557
334.854
335.167
335.476
335.767
336.026
336.237
336.387
336.465
336.465
336.387
336.237
336.026
335.767
335.476
335.167
334.854
334.557
334.321
329.151
329.347
329.597
329.862
330.123
330.37
330.589
330.767
330.894
330.96
330.96
330.894
330.767
330.589
330.37
330.123
329.862
329.597
329.347
329.151
323.928
324.085
324.29
324.506
324.72
324.922
325.101
325.247
325.351
325.405
325.405
325.351
325.247
325.101
324.922
324.72
324.506
324.29
324.085
323.928
318.661
318.782
318.94
319.108
319.275
319.432
319.571
319.685
319.766
319.807
319.807
319.766
319.685
319.571
319.432
319.275
319.108
318.94
318.782
318.661
313.36
313.446
313.559
313.679
313.798
313.91
314.009
314.09
314.148
314.178
314.178
314.148
314.09
314.009
313.91
313.798
313.679
313.559
313.446
313.36
308.035
308.086
308.154
308.226
308.297
308.364
308.424
308.473
308.508
308.526
308.526
308.508
308.473
308.424
308.364
308.297
308.226
308.154
308.086
308.035
302.695
302.712
302.735
302.759
302.783
302.805
302.825
302.842
302.853
302.859
302.859
302.853
302.842
302.825
302.805
302.783
302.759
302.735
302.712
302.695
340.798
341.056
341.374
341.706
342.032
342.337
342.607
342.827
342.982
343.063
343.063
342.982
342.827
342.607
342.337
342.032
341.706
341.374
341.056
340.798
335.513
335.732
336.006
336.294
336.576
336.841
337.075
337.265
337.4
337.47
337.47
337.4
337.265
337.075
336.841
336.576
336.294
336.006
335.732
335.513
330.163
330.345
330.576
330.819
331.058
331.282
331.48
331.641
331.755
331.814
331.814
331.755
331.641
331.48
331.282
331.058
330.819
330.576
330.345
330.163
324.758
324.905
325.093
325.292
325.487
325.671
325.833
325.965
326.058
326.106
326.106
326.058
325.965
325.833
325.671
325.487
325.292
325.093
324.905
324.758
319.308
319.421
319.567
319.721
319.874
320.016
320.142
320.245
320.317
320.355
320.355
320.317
320.245
320.142
320.016
319.874
319.721
319.567
319.421
319.308
313.824
313.903
314.007
314.118
314.226
314.328
314.418
314.492
314.543
314.57
314.57
314.543
314.492
314.418
314.328
314.226
314.118
314.007
313.903
313.824
308.314
308.361
308.423
308.49
308.555
308.616
308.67
308.714
308.746
308.762
308.762
308.746
308.714
308.67
308.616
308.555
308.49
308.423
308.361
308.314
302.788
302.804
302.825
302.847
302.869
302.89
302.908
302.923
302.933
302.939
302.939
302.933
302.923
302.908
302.89
302.869
302.847
302.825
302.804
302.788
342.292
342.531
342.824
343.127
343.424
343.701
343.944
344.141
344.281
344.353
344.353
344.281
344.141
343.944
343.701
343.424
343.127
342.824
342.531
342.292
336.813
337.015
337.268
337.531
337.788
338.028
338.239
338.41
338.531
338.593
338.593
338.531
338.41
338.239
338.028
337.788
337.531
337.268
337.015
336.813
331.267
331.435
331.648
331.87
332.088
332.291
332.469
332.614
332.716
332.769
332.769
332.716
332.614
332.469
332.291
332.088
331.87
331.648
331.435
331.267
325.664
325.799
325.972
326.154
326.333
326.499
326.645
326.763
326.847
326.89
326.89
326.847
326.763
326.645
326.499
326.333
326.154
325.972
325.799
325.664
320.014
320.118
320.253
320.394
320.533
320.662
320.776
320.868
320.933
320.967
320.967
320.933
320.868
320.776
320.662
320.533
320.394
320.253
320.118
320.014
314.329
314.402
314.498
314.599
314.698
314.791
314.872
314.938
314.984
315.008
315.008
314.984
314.938
314.872
314.791
314.698
314.599
314.498
314.402
314.329
308.617
308.661
308.719
308.779
308.839
308.894
308.943
308.983
309.011
309.025
309.025
309.011
308.983
308.943
308.894
308.839
308.779
308.719
308.661
308.617
302.89
302.905
302.924
302.945
302.965
302.983
303
303.013
303.022
303.027
303.027
303.022
303.013
303
302.983
302.965
302.945
302.924
302.905
302.89
343.907
344.128
344.397
344.674
344.944
345.194
345.413
345.589
345.714
345.778
345.778
345.714
345.589
345.413
345.194
344.944
344.674
344.397
344.128
343.907
338.218
338.405
338.637
338.877
339.111
339.327
339.517
339.67
339.778
339.834
339.834
339.778
339.67
339.517
339.327
339.111
338.877
338.637
338.405
338.218
332.459
332.614
332.81
333.013
333.211
333.394
333.555
333.685
333.776
333.823
333.823
333.776
333.685
333.555
333.394
333.211
333.013
332.81
332.614
332.459
326.642
326.766
326.926
327.092
327.254
327.404
327.536
327.642
327.717
327.755
327.755
327.717
327.642
327.536
327.404
327.254
327.092
326.926
326.766
326.642
320.777
320.872
320.996
321.125
321.251
321.368
321.471
321.553
321.611
321.641
321.641
321.611
321.553
321.471
321.368
321.251
321.125
320.996
320.872
320.777
314.874
314.942
315.03
315.122
315.212
315.296
315.369
315.428
315.47
315.491
315.491
315.47
315.428
315.369
315.296
315.212
315.122
315.03
314.942
314.874
308.945
308.986
309.039
309.094
309.148
309.198
309.242
309.278
309.303
309.316
309.316
309.303
309.278
309.242
309.198
309.148
309.094
309.039
308.986
308.945
303
303.014
303.032
303.05
303.068
303.085
303.1
303.112
303.12
303.124
303.124
303.12
303.112
303.1
303.085
303.068
303.05
303.032
303.014
303
345.638
345.841
346.087
346.34
346.584
346.81
347.007
347.165
347.276
347.333
347.333
347.276
347.165
347.007
346.81
346.584
346.34
346.087
345.841
345.638
339.722
339.893
340.106
340.325
340.537
340.733
340.903
341.04
341.137
341.186
341.186
341.137
341.04
340.903
340.733
340.537
340.325
340.106
339.893
339.722
333.734
333.877
334.056
334.241
334.421
334.586
334.731
334.847
334.928
334.97
334.97
334.928
334.847
334.731
334.586
334.421
334.241
334.056
333.877
333.734
327.687
327.802
327.948
328.099
328.246
328.382
328.5
328.595
328.662
328.696
328.696
328.662
328.595
328.5
328.382
328.246
328.099
327.948
327.802
327.687
321.591
321.679
321.792
321.91
322.024
322.13
322.222
322.296
322.348
322.375
322.375
322.348
322.296
322.222
322.13
322.024
321.91
321.792
321.679
321.591
315.457
315.519
315.6
315.684
315.766
315.841
315.907
315.96
315.997
316.016
316.016
315.997
315.96
315.907
315.841
315.766
315.684
315.6
315.519
315.457
309.295
309.332
309.381
309.432
309.481
309.526
309.566
309.597
309.62
309.631
309.631
309.62
309.597
309.566
309.526
309.481
309.432
309.381
309.332
309.295
303.118
303.13
303.146
303.163
303.18
303.195
303.208
303.219
303.226
303.23
303.23
303.226
303.219
303.208
303.195
303.18
303.163
303.146
303.13
303.118
347.463
347.65
347.875
348.105
348.327
348.531
348.707
348.849
348.948
348.999
348.999
348.948
348.849
348.707
348.531
348.327
348.105
347.875
347.65
347.463
341.305
341.463
341.657
341.857
342.049
342.225
342.379
342.502
342.587
342.632
342.632
342.587
342.502
342.379
342.225
342.049
341.857
341.657
341.463
341.305
335.074
335.205
335.369
335.538
335.701
335.851
335.981
336.084
336.157
336.195
336.195
336.157
336.084
335.981
335.851
335.701
335.538
335.369
335.205
335.074
328.784
328.889
329.023
329.161
329.295
329.417
329.523
329.609
329.668
329.699
329.699
329.668
329.609
329.523
329.417
329.295
329.161
329.023
328.889
328.784
322.444
322.525
322.629
322.737
322.84
322.936
323.018
323.085
323.131
323.155
323.155
323.131
323.085
323.018
322.936
322.84
322.737
322.629
322.525
322.444
316.067
316.124
316.198
316.275
316.349
316.417
316.476
316.524
316.557
316.574
316.574
316.557
316.524
316.476
316.417
316.349
316.275
316.198
316.124
316.067
309.662
309.696
309.74
309.786
309.831
309.872
309.907
309.936
309.956
309.966
309.966
309.956
309.936
309.907
309.872
309.831
309.786
309.74
309.696
309.662
303.241
303.252
303.267
303.282
303.297
303.311
303.323
303.332
303.339
303.343
303.343
303.339
303.332
303.323
303.311
303.297
303.282
303.267
303.252
303.241
349.334
349.505
349.712
349.922
350.123
350.307
350.466
350.593
350.682
350.728
350.728
350.682
350.593
350.466
350.307
350.123
349.922
349.712
349.505
349.334
342.919
343.065
343.243
343.425
343.6
343.76
343.898
344.008
344.085
344.125
344.125
344.085
344.008
343.898
343.76
343.6
343.425
343.243
343.065
342.919
336.436
336.556
336.707
336.861
337.009
337.144
337.261
337.355
337.42
337.454
337.454
337.42
337.355
337.261
337.144
337.009
336.861
336.707
336.556
336.436
329.894
329.991
330.114
330.24
330.361
330.472
330.568
330.645
330.698
330.726
330.726
330.698
330.645
330.568
330.472
330.361
330.24
330.114
329.991
329.894
323.306
323.38
323.475
323.574
323.668
323.754
323.829
323.889
323.93
323.952
323.952
323.93
323.889
323.829
323.754
323.668
323.574
323.475
323.38
323.306
316.681
316.733
316.801
316.872
316.939
317.001
317.054
317.097
317.127
317.142
317.142
317.127
317.097
317.054
317.001
316.939
316.872
316.801
316.733
316.681
310.03
310.061
310.102
310.144
310.185
310.222
310.254
310.28
310.298
310.307
310.307
310.298
310.28
310.254
310.222
310.185
310.144
310.102
310.061
310.03
303.364
303.374
303.388
303.402
303.416
303.428
303.439
303.448
303.454
303.457
303.457
303.454
303.448
303.439
303.428
303.416
303.402
303.388
303.374
303.364
351.127
351.285
351.476
351.669
351.853
352.021
352.165
352.28
352.36
352.401
352.401
352.36
352.28
352.165
352.021
351.853
351.669
351.476
351.285
351.127
344.448
344.583
344.747
344.915
345.075
345.221
345.346
345.446
345.516
345.552
345.552
345.516
345.446
345.346
345.221
345.075
344.915
344.747
344.583
344.448
337.711
337.822
337.961
338.103
338.239
338.363
338.469
338.554
338.613
338.644
338.644
338.613
338.554
338.469
338.363
338.239
338.103
337.961
337.822
337.711
330.924
331.014
331.128
331.244
331.356
331.457
331.544
331.614
331.662
331.687
331.687
331.662
331.614
331.544
331.457
331.356
331.244
331.128
331.014
330.924
324.099
324.168
324.256
324.347
324.433
324.513
324.581
324.635
324.673
324.692
324.692
324.673
324.635
324.581
324.513
324.433
324.347
324.256
324.168
324.099
317.243
317.292
317.355
317.42
317.482
317.538
317.587
317.626
317.653
317.667
317.667
317.653
317.626
317.587
317.538
317.482
317.42
317.355
317.292
317.243
310.366
310.395
310.433
310.472
310.509
310.543
310.573
310.596
310.612
310.621
310.621
310.612
310.596
310.573
310.543
310.509
310.472
310.433
310.395
310.366
303.476
303.486
303.499
303.512
303.524
303.536
303.545
303.553
303.559
303.562
303.562
303.559
303.553
303.545
303.536
303.524
303.512
303.499
303.486
303.476
352.523
352.673
352.852
353.033
353.205
353.362
353.496
353.603
353.677
353.715
353.715
353.677
353.603
353.496
353.362
353.205
353.033
352.852
352.673
352.523
345.594
345.721
345.877
346.034
346.185
346.321
346.438
346.531
346.596
346.629
346.629
346.596
346.531
346.438
346.321
346.185
346.034
345.877
345.721
345.594
338.637
338.743
338.875
339.008
339.136
339.252
339.352
339.431
339.486
339.515
339.515
339.486
339.431
339.352
339.252
339.136
339.008
338.875
338.743
338.637
331.655
331.74
331.848
331.958
332.063
332.158
332.24
332.305
332.351
332.374
332.374
332.351
332.305
332.24
332.158
332.063
331.958
331.848
331.74
331.655
324.651
324.717
324.8
324.886
324.968
325.042
325.106
325.157
325.193
325.211
325.211
325.193
325.157
325.106
325.042
324.968
324.886
324.8
324.717
324.651
317.629
317.676
317.736
317.797
317.856
317.909
317.955
317.991
318.017
318.03
318.03
318.017
317.991
317.955
317.909
317.856
317.797
317.736
317.676
317.629
310.595
310.623
310.658
310.695
310.731
310.763
310.79
310.812
310.828
310.835
310.835
310.828
310.812
310.79
310.763
310.731
310.695
310.658
310.623
310.595
303.552
303.562
303.574
303.586
303.598
303.609
303.618
303.625
303.63
303.633
303.633
303.63
303.625
303.618
303.609
303.598
303.586
303.574
303.562
303.552
)
;

boundaryField
{
    hotSide
    {
        type            fixedGradient;
        gradient        nonuniform List<scalar> 
400
(
327.908
328.999
331.186
334.478
338.888
344.433
351.132
359.005
368.075
378.362
389.887
402.67
416.729
432.08
448.736
466.711
486.014
506.653
528.635
551.965
333.785
334.83
336.925
340.084
344.324
349.666
356.137
363.763
372.571
382.589
393.843
406.357
420.152
435.247
451.66
469.403
488.488
508.924
530.716
553.871
340.145
341.134
343.121
346.122
350.16
355.265
361.469
368.807
377.314
387.024
397.97
410.18
423.681
438.495
454.64
472.132
490.982
511.2
532.792
555.762
346.883
347.807
349.668
352.485
356.291
361.123
367.023
374.035
382.203
391.57
402.176
414.054
427.236
441.746
457.606
474.832
493.437
513.428
534.813
557.594
353.811
354.662
356.38
358.993
362.54
367.069
372.634
379.29
387.091
396.09
406.332
417.86
430.707
444.903
460.47
477.425
495.78
515.544
536.723
559.318
360.639
361.413
362.979
365.373
368.645
372.856
378.069
384.355
391.777
400.399
410.273
421.447
433.961
447.845
463.124
479.815
497.93
517.477
538.459
560.877
366.977
367.673
369.087
371.265
374.265
378.161
383.032
388.957
396.015
404.274
413.799
424.64
436.842
450.437
465.451
481.9
499.797
519.147
539.953
562.214
372.356
372.982
374.26
376.243
379
382.616
387.183
392.791
399.529
407.474
416.697
427.253
439.189
452.539
467.33
483.578
501.293
520.481
541.143
563.275
376.292
376.864
378.038
379.872
382.444
385.849
390.186
395.556
402.054
409.766
418.765
429.111
440.852
454.024
468.653
484.755
502.34
521.412
541.971
564.012
378.378
378.921
380.038
381.791
384.263
387.552
391.765
397.007
403.377
410.964
419.843
430.078
441.716
454.794
469.337
485.363
502.88
521.891
542.396
564.39
378.378
378.921
380.038
381.791
384.263
387.552
391.765
397.007
403.377
410.964
419.843
430.078
441.716
454.794
469.337
485.363
502.88
521.891
542.396
564.39
376.292
376.864
378.038
379.872
382.444
385.849
390.186
395.556
402.054
409.766
418.765
429.111
440.852
454.024
468.653
484.755
502.34
521.412
541.971
564.012
372.356
372.982
374.26
376.243
379
382.616
387.183
392.791
399.529
407.474
416.697
427.253
439.189
452.539
467.33
483.578
501.293
520.481
541.143
563.275
366.977
367.673
369.087
371.265
374.265
378.161
383.032
388.957
396.015
404.274
413.799
424.64
436.842
450.437
465.451
481.9
499.797
519.147
539.953
562.214
360.639
361.413
362.979
365.373
368.645
372.856
378.069
384.355
391.777
400.399
410.273
421.447
433.961
447.845
463.124
479.815
497.93
517.477
538.459
560.877
353.811
354.662
356.38
358.993
362.54
367.069
372.634
379.29
387.091
396.09
406.332
417.86
430.707
444.903
460.47
477.425
495.78
515.544
536.723
559.318
346.883
347.807
349.668
352.485
356.291
361.123
367.023
374.035
382.203
391.57
402.176
414.054
427.236
441.746
457.606
474.832
493.437
513.428
534.813
557.594
340.145
341.134
343.121
346.122
350.16
355.265
361.469
368.807
377.314
387.024
397.97
410.18
423.681
438.495
454.64
472.132
490.982
511.2
532.792
555.762
333.785
334.83
336.925
340.084
344.324
349.666
356.137
363.763
372.571
382.589
393.843
406.357
420.152
435.247
451.66
469.403
488.488
508.924
530.716
553.871
327.908
328.999
331.186
334.478
338.888
344.433
351.132
359.005
368.075
378.362
389.887
402.67
416.729
432.08
448.736
466.711
486.014
506.653
528.635
551.965
)
;
    }
    coldSide
    {
        type            mixed;
        refValue        uniform 300;
        refGradient     uniform 0;
        valueFraction   uniform 0.991591;
        source          uniform 0;
        value           nonuniform List<scalar> 
400
(
300.018
300.019
300.019
300.019
300.019
300.019
300.02
300.02
300.021
300.021
300.022
300.023
300.023
300.024
300.025
300.026
300.027
300.028
300.029
300.03
300.019
300.019
300.019
300.019
300.019
300.02
300.02
300.02
300.021
300.021
300.022
300.023
300.024
300.024
300.025
300.026
300.027
300.028
300.029
300.03
300.019