/*--------------------------------*- C++ -*----------------------------------*\
| =========                 |                                                 |
| \\      /  F ield         | OpenFOAM: The Open Source CFD Toolbox           |
|  \\    /   O peration     | Version:  2212                                  |
|   \\  /    A nd           | Website:  www.openfoam.com                      |
|    \\/     M anipulation  |                                                 |
\*---------------------------------------------------------------------------*/
FoamFile
{
    version     2.0;
    format      ascii;
    arch        "LSB;label=32;scalar=64";
    class       volScalarField;
    location    "0";
    object      T;
}
// * * * * * * * * * * * * * * * * * * * * * * * * * * * * * * * * * * * * * //

dimensions      [0 0 0 1 0 0 0];

internalField   nonuniform List<scalar> 
3200
(
348.053
348.891
349.757
350.849
351.651
352.421
353.057
353.76
353.872
353.785
353.627
353.554
353.027
352.724
352.118
351.223
350.112
349.185
347.691
347.021
341.923
342.6
343.326
344.348
345.02
345.692
346.268
346.939
346.992
346.891
346.726
346.63
346.3
346.003
345.504
344.655
343.663
342.899
341.621
341.069
335.696
336.177
336.852
337.711
338.258
338.803
339.363
339.972
339.985
339.863
339.681
339.654
339.377
339.184
338.733
337.952
337.078
336.479
335.428
334.953
329.377
329.703
330.253
330.929
331.437
331.82
332.376
332.855
332.859
332.729
332.534
332.584
332.371
332.248
331.807
331.162
330.439
329.941
329.154
328.807
322.975
323.184
323.588
324.14
324.509
324.83
325.258
325.617
325.57
325.52
325.36
325.429
325.254
325.197
324.787
324.35
323.751
323.368
322.768
322.54
316.49
316.566
316.865
317.279
317.562
317.801
318.062
318.32
318.274
318.252
318.165
318.226
318.06
318.021
317.764
317.465
316.993
316.732
316.312
316.159
309.952
309.929
310.11
310.383
310.574
310.744
310.883
311.048
310.992
310.944
310.921
311.017
310.853
310.856
310.694
310.525
310.201
310.067
309.79
309.724
303.337
303.333
303.395
303.49
303.559
303.613
303.656
303.681
303.722
303.674
303.666
303.707
303.646
303.637
303.597
303.533
303.431
303.37
303.291
303.262
349.045
349.811
350.963
352.041
352.915
353.569
354.255
354.766
354.772
354.745
354.821
354.706
354.157
353.903
353.089
352.283
350.991
350.129
348.915
347.935
342.733
343.399
344.39
345.289
346.064
346.642
347.276
347.652
347.7
347.695
347.762
347.636
347.167
346.968
346.253
345.499
344.425
343.67
342.6
341.764
336.333
336.902
337.746
338.479
339.114
339.601
340.175
340.469
340.541
340.454
340.59
340.471
340.113
339.903
339.282
338.576
337.778
337.133
336.202
335.547
329.826
330.295
330.943
331.595
332.109
332.5
333.023
333.191
333.309
333.22
333.337
333.21
332.942
332.799
332.288
331.615
330.992
330.48
329.754
329.245
323.257
323.626
324.103
324.715
325.01
325.338
325.758
325.826
325.999
325.907
325.977
325.894
325.67
325.622
325.174
324.589
324.159
323.777
323.226
322.821
316.704
316.964
317.258
317.746
317.873
318.159
318.424
318.449
318.634
318.537
318.623
318.527
318.363
318.367
317.999
317.545
317.328
317.007
316.646
316.335
310.054
310.184
310.382
310.712
310.747
310.944
311.055
311.093
311.251
311.136
311.207
311.167
311.036
311.055
310.858
310.533
310.411
310.259
310.011
309.82
303.359
303.416
303.472
303.596
303.615
303.667
303.69
303.737
303.777
303.733
303.754
303.731
303.697
303.705
303.664
303.542
303.503
303.442
303.361
303.274
350.489
351.364
352.673
353.575
354.402
355.131
355.865
356.336
356.391
356.321
356.467
356.132
355.735
355.283
354.511
353.753
352.733
351.773
350.336
349.205
343.974
344.712
345.872
346.615
347.309
348.011
348.611
349.042
349.091
348.999
349.146
348.824
348.562
348.158
347.428
346.811
345.928
345.09
343.831
342.9
337.37
337.965
338.936
339.561
340.128
340.782
341.273
341.656
341.702
341.633
341.708
341.402
341.249
340.899
340.257
339.734
339.005
338.306
337.22
336.474
330.685
331.164
331.938
332.439
332.94
333.441
333.883
334.193
334.214
334.166
334.212
333.94
333.854
333.604
333.059
332.571
331.996
331.467
330.58
329.955
323.939
324.302
324.898
325.289
325.693
326.07
326.45
326.637
326.679
326.639
326.676
326.456
326.367
326.227
325.772
325.363
324.942
324.591
323.922
323.369
317.122
317.411
317.805
318.116
318.409
318.673
318.922
319.068
319.11
319.069
319.107
318.922
318.852
318.773
318.431
318.114
317.843
317.644
317.174
316.726
310.326
310.5
310.737
310.898
311.096
311.201
311.382
311.477
311.508
311.434
311.504
311.397
311.297
311.31
311.07
310.869
310.756
310.615
310.331
310.066
303.454
303.53
303.593
303.656
303.749
303.759
303.82
303.853
303.866
303.848
303.849
303.837
303.778
303.784
303.715
303.637
303.617
303.581
303.471
303.367
351.819
352.938
354.382
355.413
356.056
356.854
357.317
357.831
358.218
358.192
358.062
357.922
357.405
356.743
356.195
355.508
354.422
353.197
351.861
350.67
345.099
346.055
347.301
348.22
348.767
349.441
349.86
350.318
350.642
350.614
350.482
350.394
349.92
349.412
348.914
348.309
347.398
346.316
345.145
344.117
338.323
339.125
340.12
340.941
341.402
341.913
342.333
342.729
343.026
342.958
342.839
342.762
342.383
341.965
341.548
340.985
340.303
339.353
338.326
337.487
331.456
332.121
332.903
333.553
333.983
334.378
334.736
335.071
335.309
335.242
335.117
335.06
334.816
334.439
334.146
333.592
333.064
332.332
331.426
330.786
324.528
325.053
325.635
326.11
326.484
326.801
327.076
327.348
327.594
327.43
327.343
327.326
327.161
326.855
326.628
326.199
325.793
325.246
324.459
324.038
317.557
317.969
318.351
318.657
318.957
319.162
319.438
319.59
319.817
319.601
319.583
319.544
319.436
319.239
319.047
318.755
318.448
318.087
317.486
317.253
310.55
310.813
311.022
311.199
311.424
311.514
311.708
311.779
311.936
311.798
311.796
311.763
311.688
311.556
311.447
311.261
311.062
310.897
310.528
310.38
303.54
303.635
303.693
303.754
303.853
303.867
303.947
303.945
303.988
303.957
303.956
303.926
303.923
303.874
303.843
303.763
303.718
303.654
303.53
303.497
353.44
354.434
355.871
357.065
357.732
358.473
359.17
359.47
359.803
359.894
359.85
359.636
359.137
358.579
357.94
356.933
355.814
354.728
353.269
352.198
346.528
347.364
348.604
349.647
350.189
350.818
351.481
351.725
352.028
352.153
352.059
351.881
351.427
351
350.43
349.511
348.6
347.599
346.429
345.425
339.507
340.216
341.277
342.166
342.595
343.116
343.693
343.918
344.146
344.255
344.251
344.051
343.636
343.269
342.801
342.033
341.327
340.395
339.444
338.622
332.419
332.989
333.814
334.614
334.95
335.329
335.822
336.03
336.188
336.281
336.326
336.134
335.78
335.482
335.112
334.449
333.944
333.12
332.368
331.738
325.263
325.722
326.337
326.998
327.258
327.522
327.893
328.076
328.218
328.248
328.302
328.144
327.888
327.664
327.346
326.794
326.499
325.787
325.196
324.743
318.097
318.426
318.853
319.318
319.509
319.714
319.98
320.1
320.192
320.218
320.233
320.113
319.946
319.797
319.594
319.17
318.994
318.46
318.01
317.737
310.902
311.088
311.312
311.611
311.736
311.872
312.02
312.095
312.122
312.177
312.159
312.115
312.007
311.89
311.794
311.524
311.419
311.065
310.827
310.681
303.675
303.735
303.772
303.888
303.929
303.986
304.02
304.055
304.08
304.077
304.082
304.071
304.025
303.984
303.952
303.889
303.826
303.713
303.627
303.573
354.959
356.061
357.246
358.288
359.492
360.23
360.785
361.039
361.466
361.528
361.615
361.247
360.938
360.213
359.499
358.438
357.274
356.118
354.733
353.565
347.823
348.761
349.835
350.726
351.7
352.379
352.874
353.077
353.468
353.534
353.587
353.279
352.997
352.369
351.775
350.875
349.866
348.815
347.612
346.622
340.619
341.402
342.361
343.087
343.857
344.451
344.863
345.007
345.401
345.447
345.432
345.234
344.965
344.45
343.982
343.194
342.295
341.436
340.398
339.6
333.295
333.973
334.793
335.364
335.929
336.467
336.808
336.859
337.267
337.276
337.242
337.065
336.85
336.444
336.058
335.445
334.686
333.96
333.146
332.536
325.971
326.499
327.121
327.552
327.971
328.375
328.674
328.702
329.043
328.993
329.043
328.869
328.754
328.411
328.085
327.638
327.069
326.48
325.851
325.4
318.599
318.984
319.404
319.712
320.01
320.283
320.491
320.521
320.754
320.735
320.776
320.623
320.567
320.329
320.101
319.785
319.383
318.955
318.52
318.161
311.152
311.403
311.675
311.874
312.035
312.164
312.333
312.363
312.454
312.471
312.507
312.4
312.35
312.219
312.102
311.896
311.669
311.402
311.148
310.908
303.737
303.833
303.898
303.988
304.041
304.057
304.141
304.126
304.17
304.193
304.208
304.16
304.128
304.103
304.06
304.013
303.908
303.835
303.753
303.666
356.413
357.507
358.856
359.899
361.1
361.667
362.11
362.437
363.119
363.039
363.234
363.061
362.526
361.781
361.021
360.138
358.787
357.356
356.23
354.833
349.116
350.057
351.169
352.09
353.142
353.581
353.987
354.286
354.913
354.795
354.964
354.871
354.392
353.73
353.08
352.349
351.126
349.908
348.922
347.731
341.737
342.507
343.417
344.204
345.079
345.437
345.776
346.069
346.597
346.471
346.604
346.521
346.17
345.617
345.027
344.427
343.371
342.366
341.515
340.541
334.256
334.881
335.625
336.241
336.931
337.248
337.562
337.785
338.246
338.08
338.253
338.118
337.86
337.387
336.929
336.459
335.549
334.759
334.054
333.224
326.72
327.196
327.772
328.236
328.777
328.996
329.252
329.433
329.799
329.697
329.804
329.677
329.486
329.163
328.764
328.432
327.713
327.11
326.548
325.86
319.111
319.466
319.879
320.224
320.538
320.733
320.903
321.041
321.318
321.236
321.324
321.214
321.102
320.845
320.54
320.328
319.837
319.407
319.003
318.507
311.463
311.694
311.936
312.156
312.321
312.466
312.595
312.654
312.801
312.788
312.828
312.758
312.69
312.518
312.33
312.206
311.968
311.675
311.404
311.126
303.84
303.929
303.987
304.076
304.119
304.185
304.235
304.246
304.276
304.288
304.282
304.262
304.242
304.21
304.15
304.087
304.03
303.923
303.816
303.737
357.815
358.802
360.114
361.429
362.348
363.24
363.74
364.13
364.436
364.721
364.501
364.361
364.054
363.167
362.487
361.505
360.278
358.854
357.132
355.944
350.355
351.168
352.284
353.432
354.257
355.009
355.455
355.776
355.999
356.319
356.069
356.008
355.708
354.944
354.324
353.529
352.432
351.187
349.691
348.684
342.778
343.429
344.367
345.317
346.047
346.656
347.034
347.285
347.567
347.826
347.545
347.541
347.293
346.633
346.122
345.466
344.474
343.384
342.114
341.283
335.105
335.635
336.361
337.131
337.753
338.248
338.528
338.762
339.056
339.243
338.978
338.976
338.8
338.294
337.889
337.324
336.448
335.563
334.524
333.812
327.369
327.793
328.313
328.957
329.437
329.783
329.976
330.226
330.448
330.593
330.389
330.386
330.214
329.856
329.552
329.134
328.362
327.704
326.917
326.318
319.571
319.909
320.248
320.704
321.036
321.306
321.42
321.612
321.755
321.893
321.772
321.746
321.626
321.361
321.144
320.874
320.28
319.837
319.28
318.85
311.738
311.978
312.176
312.436
312.644
312.817
312.886
313
313.105
313.183
313.068
313.071
312.999
312.846
312.675
312.589
312.181
311.928
311.551
311.362
303.934
304.03
304.106
304.164
304.249
304.3
304.325
304.377
304.39
304.427
304.378
304.37
304.357
304.313
304.252
304.211
304.082
304.024
303.866
303.812
358.954
360.252
361.388
362.939
363.689
364.675
365.112
365.542
365.971
366.095
365.923
365.926
365.43
364.819
363.823
362.829
361.527
359.994
358.443
357.257
351.299
352.378
353.359
354.695
355.366
356.265
356.652
357.018
357.383
357.496
357.35
357.336
356.909
356.401
355.52
354.69
353.522
352.191
350.837
349.87
343.549
344.426
345.24
346.33
347.014
347.742
348.105
348.399
348.684
348.76
348.668
348.638
348.312
347.903
347.108
346.438
345.412
344.267
343.129
342.359
335.733
336.395
337.07
337.97
338.561
339.194
339.439
339.702
339.903
339.955
339.905
339.88
339.646
339.342
338.659
338.095
337.228
336.307
335.367
334.789
327.846
328.317
328.905
329.57
330.039
330.524
330.7
330.978
331.107
331.113
331.078
331.075
330.936
330.679
330.134
329.718
328.973
328.288
327.591
327.133
319.931
320.277
320.668
321.119
321.505
321.843
321.95
322.187
322.258
322.257
322.257
322.235
322.166
321.939
321.541
321.284
320.703
320.221
319.768
319.431
311.974
312.203
312.422
312.682
312.915
313.157
313.229
313.388
313.403
313.379
313.385
313.36
313.299
313.154
312.927
312.825
312.427
312.142
311.895
311.695
304.013
304.094
304.165
304.243
304.333
304.417
304.447
304.489
304.515
304.481
304.489
304.464
304.449
304.411
304.327
304.307
304.185
304.06
303.976
303.92
360.502
361.394
362.792
363.954
364.834
365.954
366.717
367.167
367.55
367.607
367.35
367.226
366.855
366.228
365.212
364.122
362.852
361.197
359.816
358.44
352.649
353.401
354.616
355.606
356.371
357.288
358.02
358.412
358.714
358.752
358.587
358.51
358.143
357.599
356.71
355.787
354.695
353.23
352.049
350.865
344.705
345.297
346.374
347.146
347.804
348.587
349.232
349.55
349.81
349.828
349.731
349.646
349.318
348.899
348.103
347.348
346.458
345.172
344.216
343.231
336.681
337.129
338.065
338.641
339.161
339.821
340.372
340.65
340.828
340.844
340.793
340.722
340.437
340.064
339.473
338.824
338.096
337.082
336.283
335.486
328.589
328.909
329.688
330.126
330.521
330.991
331.448
331.65
331.785
331.776
331.779
331.769
331.56
331.205
330.766
330.225
329.691
328.928
328.279
327.667
320.45
320.702
321.222
321.542
321.826
322.161
322.524
322.628
322.738
322.725
322.708
322.722
322.563
322.334
321.974
321.594
321.236
320.713
320.206
319.798
312.331
312.467
312.746
312.949
313.127
313.336
313.52
313.623
313.678
313.659
313.63
313.647
313.566
313.396
313.197
312.951
312.761
312.457
312.115
311.922
304.135
304.191
304.278
304.334
304.386
304.457
304.53
304.573
304.59
304.561
304.559
304.569
304.548
304.468
304.434
304.335
304.28
304.171
304.041
304.016
361.473
362.579
364.068
365.35
366.212
367.143
367.849
368.638
368.735
368.79
368.682
368.465
368.089
367.336
366.352
365.419
363.935
362.643
361.006
359.85
353.541
354.36
355.713
356.84
357.549
358.376
358.963
359.68
359.771
359.799
359.706
359.553
359.233
358.567
357.701
356.882
355.6
354.508
353.077
352.12
345.47
346.102
347.256
348.211
348.822
349.504
349.993
350.604
350.713
350.697
350.647
350.559
350.279
349.702
348.962
348.271
347.214
346.308
345.068
344.284
337.282
337.799
338.755
339.53
340.03
340.551
340.994
341.506
341.592
341.569
341.518
341.506
341.216
340.756
340.157
339.606
338.765
338.005
336.991
336.32
329.032
329.477
330.186
330.795
331.184
331.563
331.949
332.354
332.419
332.366
332.337
332.34
332.132
331.777
331.312
330.87
330.274
329.593
328.838
328.307
320.754
321.111
321.596
322.031
322.299
322.6
322.883
323.149
323.246
323.121
323.133
323.131
322.994
322.727
322.434
322.066
321.678
321.186
320.667
320.248
312.466
312.693
313.007
313.271
313.362
313.571
313.775
313.938
314.004
313.909
313.888
313.917
313.787
313.651
313.513
313.278
313.029
312.749
312.438
312.198
304.184
304.24
304.363
304.449
304.478
304.53
304.611
304.677
304.705
304.67
304.656
304.648
304.612
304.574
304.521
304.444
304.388
304.289
304.177
304.098
362.068
363.604
365.086
366.455
367.62
368.062
368.981
369.853
369.939
369.922
369.755
369.79
369.182
368.364
367.215
366.286
365.165
363.805
362.253
360.662
353.971
355.257
356.621
357.76
358.767
359.166
359.961
360.718
360.818
360.836
360.641
360.698
360.243
359.428
358.466
357.652
356.686
355.502
354.159
352.736
345.825
346.861
348.049
349.02
349.848
350.184
350.822
351.498
351.622
351.629
351.406
351.461
351.184
350.424
349.618
348.908
348.075
347.096
345.942
344.733
337.603
338.43
339.378
340.208
340.901
341.143
341.643
342.174
342.343
342.35
342.135
342.19
341.996
341.341
340.717
340.088
339.403
338.655
337.695
336.72
329.319
329.918
330.675
331.342
331.868
332.093
332.417
332.833
333.005
332.992
332.819
332.862
332.777
332.21
331.752
331.29
330.719
330.093
329.356
328.61
320.992
321.396
321.99
322.419
322.821
322.933
323.205
323.471
323.597
323.593
323.444
323.497
323.501
323.029
322.734
322.385
322.004
321.539
321.008
320.5
312.583
312.869
313.227
313.464
313.695
313.773
313.925
314.087
314.159
314.179
314.063
314.122
314.13
313.848
313.648
313.436
313.223
312.957
312.645
312.35
304.221
304.317
304.447
304.506
304.597
304.615
304.655
304.714
304.749
304.765
304.716
304.73
304.741
304.639
304.587
304.504
304.444
304.337
304.235
304.167
363.2
364.419
366
367.066
368.327
369.395
370.156
370.797
371.113
371.007
370.702
370.696
369.964
369.317
368.255
367.493
365.937
364.71
363.043
361.505
354.944
355.998
357.42
358.261
359.441
360.36
360.992
361.592
361.819
361.69
361.454
361.479
360.796
360.308
359.362
358.668
357.393
356.269
354.856
353.533
346.586
347.526
348.705
349.399
350.43
351.184
351.728
352.252
352.467
352.288
352.123
352.137
351.544
351.212
350.372
349.802
348.687
347.761
346.564
345.436
338.198
338.957
339.898
340.462
341.375
341.932
342.412
342.825
343.05
342.887
342.712
342.737
342.219
342.018
341.294
340.822
339.91
339.171
338.212
337.257
329.784
330.397
331.033
331.474
332.242
332.679
333.039
333.384
333.591
333.423
333.279
333.263
332.866
332.737
332.221
331.781
331.069
330.508
329.762
329.006
321.304
321.783
322.175
322.49
323.069
323.377
323.658
323.904
324.059
323.957
323.831
323.788
323.499
323.4
323.038
322.71
322.253
321.867
321.271
320.772
312.808
313.103
313.318
313.53
313.823
314.061
314.266
314.352
314.463
314.405
314.337
314.327
314.15
314.051
313.837
313.603
313.41
313.179
312.766
312.483
304.283
304.407
304.463
304.528
304.615
304.703
304.773
304.81
304.874
304.828
304.818
304.803
304.739
304.705
304.636
304.56
304.497
304.428
304.268
304.183
364.181
365.399
366.874
368.064
369.292
370.22
370.923
371.679
371.822
371.734
371.792
371.698
370.924
370.343
369.283
368.216
366.725
365.314
363.817
362.263
355.806
356.839
358.108
359.136
360.235
361.073
361.622
362.346
362.452
362.357
362.452
362.357
361.694
361.124
360.216
359.322
358.035
356.777
355.483
354.193
347.387
348.186
349.239
350.105
351.058
351.795
352.276
352.88
353.007
352.9
352.989
352.951
352.361
351.865
351.111
350.348
349.241
348.126
347.122
346.002
338.902
339.489
340.341
341.05
341.824
342.419
342.864
343.319
343.436
343.341
343.47
343.466
342.955
342.542
341.909
341.293
340.395
339.482
338.691
337.746
330.317
330.74
331.379
331.998
332.61
333.007
333.415
333.739
333.871
333.745
333.859
333.917
333.502
333.116
332.727
332.167
331.47
330.779
330.157
329.421
321.678
322.006
322.439
322.875
323.325
323.571
323.892
324.141
324.266
324.116
324.211
324.267
323.967
323.68
323.429
323.037
322.499
322.039
321.568
321.069
313.018
313.219
313.504
313.737
313.992
314.143
314.342
314.502
314.597
314.491
314.516
314.593
314.396
314.213
314.104
313.864
313.511
313.268
312.966
312.654
304.348
304.439
304.528
304.605
304.694
304.721
304.806
304.859
304.872
304.858
304.857
304.873
304.835
304.761
304.728
304.654
304.527
304.435
304.345
304.232
364.731
366.072
367.555
368.774
369.884
371.005
371.84
372.506
372.693
372.622
372.731
372.341
371.816
371.018
370.022
369.078
367.55
366.041
364.525
362.828
356.32
357.433
358.704
359.78
360.773
361.718
362.416
363.009
363.177
363.115
363.259
362.925
362.427
361.749
360.897
360.087
358.74
357.461
356.097
354.701
347.809
348.729
349.808
350.721
351.559
352.355
352.912
353.421
353.537
353.52
353.651
353.366
352.964
352.422
351.691
351.011
349.829
348.769
347.641
346.443
339.224
339.98
340.814
341.538
342.25
342.892
343.368
343.803
343.892
343.863
343.996
343.735
343.445
342.961
342.401
341.88
340.875
339.998
339.144
338.13
330.584
331.147
331.799
332.323
332.885
333.416
333.797
334.095
334.169
334.188
334.286
334.071
333.873
333.443
333.048
332.646
331.862
331.164
330.526
329.736
321.873
322.304
322.755
323.086
323.526
323.862
324.179
324.379
324.477
324.549
324.528
324.401
324.304
323.911
323.624
323.339
322.821
322.289
321.79
321.294
313.146
313.399
313.677
313.883
314.147
314.318
314.549
314.611
314.728
314.785
314.72
314.654
314.644
314.376
314.169
313.982
313.761
313.418
313.091
312.807
304.409
304.485
304.566
304.671
304.756
304.806
304.876
304.886
304.94
304.953
304.905
304.904
304.899
304.824
304.745
304.688
304.63
304.505
304.389
304.281
365.293
366.766
368.146
369.444
370.717
371.662
372.705
373.244
373.416
373.509
373.52
373.006
372.547
371.551
370.605
369.622
368.217
366.586
364.913
363.209
356.791
358.046
359.207
360.323
361.393
362.266
363.239
363.634
363.831
363.917
363.922
363.467
363.076
362.224
361.372
360.534
359.339
357.93
356.471
354.961
348.216
349.247
350.209
351.187
352.031
352.814
353.649
353.956
354.169
354.219
354.221
353.827
353.481
352.795
352.047
351.36
350.328
349.223
347.978
346.621
339.496
340.398
341.144
341.945
342.632
343.283
343.978
344.228
344.38
344.415
344.424
344.141
343.804
343.305
342.648
342.111
341.242
340.358
339.371
338.229
330.748
331.474
332.01
332.673
333.181
333.7
334.239
334.437
334.564
334.594
334.583
334.414
334.071
333.747
333.198
332.805
332.136
331.447
330.702
329.762
321.976
322.502
322.886
323.366
323.679
324.104
324.48
324.684
324.692
324.756
324.742
324.601
324.348
324.111
323.744
323.457
322.985
322.508
321.958
321.268
313.196
313.508
313.739
314.045
314.205
314.473
314.702
314.844
314.848
314.893
314.852
314.794
314.623
314.453
314.26
314.07
313.833
313.545
313.18
312.74
304.405
304.536
304.62
304.724
304.76
304.851
304.912
304.983
304.97
304.973
304.982
304.955
304.92
304.822
304.801
304.688
304.628
304.546
304.404
304.265
365.895
367.235
368.691
370.015
371.33
372.22
373.168
373.817
373.836
373.968
374.058
373.581
372.918
372.051
370.93
369.761
368.579
367.038
365.25
363.877
357.289
358.41
359.739
360.846
361.989
362.721
363.595
364.174
364.233
364.288
364.394
363.994
363.41
362.657
361.635
360.634
359.637
358.292
356.726
355.567
348.598
349.533
350.632
351.58
352.552
353.169
353.905
354.42
354.527
354.541
354.598
354.287
353.767
353.202
352.279
351.462
350.59
349.492
348.122
347.138
339.816
340.603
341.482
342.304
343.082
343.555
344.156
344.624
344.774
344.691
344.785
344.509
344.099
343.643
342.871
342.215
341.466
340.571
339.481
338.654
331.024
331.622
332.331
332.991
333.55
333.873
334.376
334.767
334.916
334.849
334.86
334.669
334.348
334.019
333.413
332.897
332.242
331.6
330.78
330.104
322.202
322.608
323.109
323.634
323.988
324.204
324.566
324.866
324.992
324.934
324.907
324.783
324.567
324.365
323.915
323.546
323.024
322.602
322.029
321.503
313.329
313.612
313.893
314.223
314.427
314.549
314.746
314.923
315.018
314.977
314.952
314.874
314.74
314.677
314.381
314.192
313.841
313.559
313.244
312.887
304.461
304.561
304.668
304.741
304.833
304.873
304.938
304.986
305.034
305.028
305.001
304.983
304.945
304.941
304.821
304.74
304.661
304.551
304.437
304.316
366.154
367.555
368.841
370.23
371.627
372.548
373.433
374.25
374.345
374.299
374.354
374.053
373.253
372.505
371.552
370.277
369.087
367.268
365.508
364.391
357.524
358.697
359.805
361.005
362.202
363.039
363.799
364.56
364.599
364.579
364.647
364.403
363.644
362.993
362.204
361.084
360.054
358.522
357.011
356.044
348.763
349.775
350.719
351.697
352.767
353.449
354.123
354.771
354.798
354.792
354.834
354.633
353.979
353.415
352.779
351.848
350.929
349.67
348.41
347.553
339.975
340.803
341.561
342.361
343.264
343.793
344.383
344.852
344.94
344.931
344.917
344.804
344.279
343.813
343.297
342.515
341.778
340.719
339.735
339.007
331.17
331.741
332.359
333.014
333.707
334.113
334.552
334.911
335.005
335.042
334.951
334.911
334.547
334.167
333.722
333.135
332.561
331.698
330.998
330.406
322.326
322.675
323.134
323.623
324.102
324.414
324.689
324.951
325.043
325.091
325.016
324.962
324.721
324.419
324.162
323.721
323.282
322.671
322.18
321.729
313.417
313.619
313.904
314.212
314.467
314.687
314.833
314.985
315.049
315.097
315.054
314.996
314.872
314.69
314.514
314.271
314.016
313.62
313.34
313.041
304.496
304.555
304.657
304.778
304.835
304.93
304.967
305.016
305.051
305.065
305.054
305.028
304.999
304.945
304.856
304.803
304.687
304.562
304.468
304.369
366.476
367.813
369.277
370.648
372.019
372.959
373.787
374.459
374.759
374.613
374.551
374.418
373.7
372.523
371.702
370.645
369.322
367.641
365.842
364.406
357.759
358.969
360.164
361.376
362.581
363.403
364.102
364.724
365.009
364.819
364.773
364.631
364.05
363.029
362.289
361.435
360.283
358.785
357.204
356.08
348.97
350.037
351.004
352.049
353.091
353.808
354.386
354.886
355.167
354.984
354.929
354.804
354.276
353.442
352.825
352.118
351.163
349.84
348.526
347.618
340.097
341.026
341.807
342.697
343.563
344.137
344.566
344.974
345.199
345.092
345.024
344.946
344.422
343.814
343.331
342.752
341.926
340.858
339.779
339.056
331.179
331.974
332.619
333.288
333.945
334.384
334.707
335.048
335.215
335.173
335.08
335.067
334.578
334.143
333.739
333.345
332.66
331.854
330.978
330.421
322.302
322.892
323.347
323.819
324.314
324.585
324.78
325.079
325.178
325.141
325.09
325.131
324.715
324.423
324.145
323.841
323.377
322.795
322.144
321.774
313.421
313.767
314.046
314.268
314.616
314.773
314.855
315.055
315.113
315.111
315.085
315.121
314.849
314.691
314.497
314.328
314.066
313.689
313.302
313.073
304.486
304.637
304.704
304.77
304.9
304.953
304.963
305.047
305.051
305.06
305.06
305.048
304.966
304.94
304.847
304.807
304.732
304.565
304.471
304.403
366.466
367.971
369.711
370.995
372.148
373.164
374.001
374.322
375.047
374.776
374.793
374.442
373.591
372.598
371.904
370.811
369.565
367.793
365.996
364.419
357.762
359.104
360.607
361.752
362.684
363.621
364.295
364.613
365.23
364.956
365.042
364.718
363.954
363.046
362.549
361.586
360.518
358.915
357.365
356.046
348.998
350.177
351.376
352.39
353.172
353.988
354.523
354.801
355.305
355.081
355.142
354.939
354.263
353.475
353.084
352.267
351.342
349.98
348.667
347.584
340.18
341.159
342.077
342.962
343.554
344.285
344.665
344.923
345.361
345.172
345.174
345.082
344.502
343.801
343.508
342.863
342.119
340.974
339.905
339.087
331.35
332.061
332.768
333.479
333.885
334.526
334.79
335.017
335.387
335.208
335.17
335.161
334.683
334.079
333.937
333.372
332.824
331.921
331.084
330.505
322.453
322.947
323.454
323.961
324.195
324.696
324.896
325.067
325.335
325.184
325.097
325.186
324.804
324.304
324.282
323.879
323.498
322.799
322.247
321.837
313.492
313.812
314.105
314.417
314.545
314.863
314.968
315.059
315.237
315.17
315.039
315.17
314.882
314.586
314.58
314.386
314.149
313.742
313.379
313.167
304.529
304.619
304.739
304.857
304.881
304.988
305.031
305.041
305.102
305.088
305.036
305.092
304.99
304.892
304.889
304.833
304.734
304.604
304.485
304.409
)
;

boundaryField
{
    hotSide
    {
        type            fixedGradient;
        gradient        nonuniform List<scalar> 
400
(
476.002
493.649
510.963
527.864
544.277
560.123
575.327
589.815
603.513
616.354
628.272
639.204
649.094
657.89
665.545
672.019
677.277
681.291
684.041
685.513
488.482
506.609
524.395
541.76
558.623
574.907
590.532
605.423
619.505
632.707
644.961
656.205
666.38
675.431
683.312
689.979
695.399
699.542
702.387
703.918
499.643
518.2
536.408
554.186
571.452
588.126
604.127
619.378
633.802
647.326
659.882
671.404
681.833
691.113
699.195
706.036
711.6
715.859
718.788
720.374
509.418
528.348
546.925
565.063
582.681
599.695
616.025
631.589
646.312
660.117
672.936
684.701
695.351
704.83
713.088
720.08
725.771
730.129
733.133
734.766
517.749
536.996
555.884
574.327
592.242
609.545
626.152
641.982
656.956
671
684.04
696.01
706.847
716.495
724.901
732.021
737.818
742.261
745.327
747
524.59
544.095
563.235
581.926
600.082
617.618
634.45
650.495
665.673
679.909
693.129
705.265
716.253
726.036
734.562
741.785
747.668
752.178
755.294
756.997
529.908
549.608
568.941
587.82
606.159
623.872
640.874
657.082
672.416
686.797
700.153
712.414
723.516
733.401
742.016
749.317
755.263
759.824
762.975
764.701
533.679
553.512
572.975
591.982
610.445
628.278
645.395
661.713
677.15
691.629
705.076
717.42
728.599
738.551
747.226
754.576
760.564
765.156
768.33
770.069
535.888
555.791
575.322
594.396
612.923
630.818
647.994
664.368
679.858
694.387
707.879
720.265
731.48
741.466
750.168
757.542
763.548
768.154
771.335
773.077
536.532
556.441
575.979
595.057
613.589
631.488
648.667
665.043
680.535
695.064
708.555
720.941
732.154
742.137
750.837
758.207
764.208
768.808
771.984
773.719
535.616
555.469
574.95
593.972
612.449
630.293
647.419
663.744
679.186
693.667
707.113
719.456
730.629
740.575
749.24
756.579
762.552
767.129
770.284
772.003
533.152
552.886
572.25
591.156
609.519
627.251
644.27
660.49
675.831
690.217
703.573
715.831
726.926
736.799
745.4
752.681
758.605
763.139
766.26
767.952
529.163
548.717
567.903
586.634
604.825
622.39
639.246
655.31
670.502
684.745
697.967
710.1
721.079
730.847
739.353
746.551
752.402
756.876
759.95
761.607
523.678
542.993
561.942
580.44
598.404
615.747
632.388
648.245
663.239
677.295
690.341
702.309
713.136
722.767
731.148
738.237
743.996
748.393
751.406
753.019
516.734
535.753
554.409
572.619
590.3
607.37
623.745
639.347
654.097
667.922
680.75
692.516
703.157
712.618
720.849
727.805
733.45
737.754
740.694
742.255
508.377
527.044
545.353
563.223
580.57
597.315
613.377
628.677
643.14
656.692
669.264
680.792
691.214
700.476
708.53
715.331
720.844
725.039
727.895
729.397
498.661
516.924
534.835
552.313
569.278
585.651
601.354
616.309
630.442
643.683
655.962
667.218
677.391
686.426
694.278
700.903
706.266
710.34
713.102
714.538
487.646
505.457
522.921
539.961
556.498
572.455
587.755
602.324
616.09
628.982
640.936
651.888
661.782
670.566
678.193
684.623
689.821
693.76
696.419
697.784
475.404
492.716
509.689
526.247
542.314
557.813
572.672
586.818
600.18
612.69
624.286
634.907
644.497
653.006
660.388
666.606
671.624
675.417
677.965
679.254
462.011
478.784
495.225
511.261
526.818
541.823
556.205
569.893
582.819
594.917
606.127
616.39
625.653
633.866
640.986
646.975
651.802
655.44
657.87
659.081
)
;
    }
    coldSide
    {
        type            mixed;
        refValue        uniform 300;
        refGradient     uniform 0;
        valueFraction   uniform 0.991591;
        source          uniform 0;
        value           nonuniform List<scalar> 
400
(
300.028
300.028
300.029
300.03
300.031
300.031
300.032
300.033
300.034
300.035
300.035
300.035
300.036
300.037
300.037
300.037
300.038
300.038
300.038
300.038
300.028
300.029
300.03
300.031
300.031
300.032
300.033
300.034
300.034
300.035
300.036
300.036
300.037
300.037
300.038
300.038
300.038
300.038