/*--------------------------------*- C++ -*----------------------------------*\
| =========                 |                                                 |
| \\      /  F ield         | OpenFOAM: The Open Source CFD Toolbox           |
|  \\    /   O peration     | Version:  2212                                  |
|   \\  /    A nd           | Website:  www.openfoam.com                      |
|    \\/     M anipulation  |                                                 |
\*---------------------------------------------------------------------------*/
FoamFile
{
    version     2.0;
    format      ascii;
    arch        "LSB;label=32;scalar=64";
    class       volScalarField;
    location    "0";
    object      relativeErrorField;
}
// * * * * * * * * * * * * * * * * * * * * * * * * * * * * * * * * * * * * * //

dimensions      [0 0 0 1 0 0 0];

internalField   nonuniform List<scalar> 
3200
(
0.00799696
0.0037719
0.000148381
0.00198157
0.00292965
0.00250604
0.00128189
0.000133526
0.00122964
0.00244484
0.00368814
0.00444538
0.00540977
0.00605968
0.00684574
0.00760804
0.00914377
0.012146
0.0160909
0.0207855
0.00664614
0.0033785
0.000102421
0.00160708
0.00235527
0.00196107
0.00120782
0.000237798
0.000736989
0.0019568
0.0029728
0.00384535
0.00427744
0.00506024
0.00548616
0.0062137
0.00759545
0.0100267
0.0134984
0.0174174
0.00598046
0.00273713
8.94084e-05
0.00149473
0.00201846
0.0020057
0.001134
0.000297167
0.000633512
0.00168605
0.00247336
0.00320861
0.00350281
0.00425142
0.0043912
0.00483689
0.00619307
0.00829837
0.0113125
0.0146204
0.00481743
0.00217964
0.000183028
0.00117149
0.00175715
0.00142121
0.000959113
0.000395525
0.00048173
0.00133281
0.00190682
0.00241827
0.00281787
0.00305252
0.00341654
0.00407779
0.00483265
0.00638158
0.00903185
0.0117049
0.00368813
0.00176706
8.1016e-05
0.00098775
0.00147707
0.00113457
0.000798989
0.000145081
3.23009e-05
0.000879631
0.00135984
0.00160162
0.0022562
0.00259546
0.00279939
0.00295009
0.00377905
0.00499082
0.00712263
0.00911409
0.0026963
0.00140178
7.85021e-05
0.000754757
0.000844172
0.0010025
0.000601917
9.19746e-06
0.000187975
0.000515405
0.00110095
0.00146077
0.00156641
0.00164938
0.00209805
0.00231439
0.00283887
0.00364792
0.00487674
0.0065431
0.00167791
0.000883549
2.14274e-05
0.000521083
0.000534418
0.000513254
9.78185e-05
0.000132947
0.000201496
0.000267833
0.000507077
0.000931163
0.000970109
0.00103324
0.00126932
0.00121514
0.00163711
0.00212763
0.00330599
0.00405216
0.000615337
0.000102948
3.23782e-05
7.17001e-05
0.00020409
0.0002976
0.000338653
0.00033504
5.07109e-05
5.54328e-05
0.000126277
0.000209893
0.000297982
0.000415686
0.000348501
0.000433863
0.000399247
0.000730118
0.00108778
0.00130561
0.00834776
0.00407036
0.000360981
0.00126007
0.00215329
0.00163014
0.000689648
0.00102711
0.00217207
0.00378445
0.00499077
0.00588326
0.0065323
0.00712409
0.00751773
0.00825236
0.00992154
0.0123252
0.0162576
0.0208714
0.00704572
0.00361025
8.15034e-05
0.00141531
0.00184434
0.0015752
0.000889671
0.000657898
0.00186614
0.00328035
0.00408031
0.00504077
0.00536802
0.00598546
0.00620798
0.00666165
0.0080288
0.0104675
0.0136754
0.0176545
0.00618469
0.0030776
0.000406207
0.00129884
0.00164616
0.00137202
0.000578218
0.000323755
0.00141624
0.00240193
0.00339335
0.00387243
0.00424415
0.00481999
0.00493912
0.00560062
0.00681367
0.00885809
0.0112088
0.0147331
0.00509645
0.00233135
0.000157445
0.00123561
0.00134025
0.00121434
0.000765685
0.000324013
0.00125734
0.0020265
0.00260288
0.00316517
0.00376862
0.00381466
0.00412976
0.00448939
0.00551153
0.00691698
0.00925316
0.0118613
0.00398387
0.0015864
1.41652e-05
0.00063374
0.000977415
0.000873453
0.000388574
0.000374995
0.000880849
0.00144558
0.00194336
0.00243167
0.00282394
0.00298954
0.00314927
0.00324427
0.00404336
0.00542003
0.0070712
0.00915787
0.00286544
0.00147818
0.000185763
0.000505168
0.000866679
0.00085495
0.000293661
0.000110465
0.000558351
0.00106216
0.00139655
0.00165431
0.00170322
0.00202981
0.00209779
0.00227845
0.00270755
0.0039964
0.00524392
0.00644299
0.00171624
0.000937222
9.25307e-05
0.000213396
0.000285533
0.000446403
0.000365378
0.000123985
0.000385904
0.000546395
0.00102143
0.000979648
0.00127966
0.00110764
0.00129963
0.00155781
0.00168363
0.00220685
0.00308032
0.00393982
0.000327439
0.000531908
3.66247e-05
0.000168663
3.05687e-05
0.000157486
0.000186066
7.6824e-05
0.000197881
0.000334812
0.000306691
0.000488622
0.000403836
0.00033466
0.000191717
0.00036986
0.000362743
0.000872837
0.00116734
0.00144564
0.00886305
0.00464671
0.00105629
0.00045431
0.00116789
0.000459982
0.00123678
0.002587
0.0041072
0.00575728
0.0069786
0.00783624
0.00827105
0.00877496
0.0087913
0.00951453
0.010715
0.0129918
0.0166855
0.0211732
0.00755656
0.00391726
0.00107596
0.000559501
0.00106415
0.000318072
0.00059404
0.00177257
0.00339733
0.00481402
0.00565033
0.0066162
0.00705716
0.00705706
0.00746822
0.00779217
0.00884686
0.0111121
0.0143194
0.0179676
0.00665223
0.00356295
0.00101904
0.000668699
0.000862095
0.000341424
0.000491102
0.00145445
0.00283699
0.00402023
0.00487035
0.00547786
0.00560679
0.00593421
0.00598805
0.00637678
0.00732293
0.00922305
0.0119312
0.014983
0.00533757
0.00285919
0.000816822
0.00049934
0.000866001
0.000246339
0.000189506
0.00136369
0.00214408
0.00296915
0.00404104
0.00449161
0.00479072
0.00486807
0.00480936
0.00516803
0.00574383
0.00729322
0.00970863
0.0119333
0.00395676
0.0023521
0.000414342
0.000100562
0.000754888
0.000182133
9.7924e-05
0.00107114
0.00176334
0.00230263
0.00289759
0.00328151
0.00359113
0.00374237
0.0037709
0.00404282
0.00444456
0.0056265
0.00766867
0.00921051
0.00284241
0.00169932
0.000354069
0.000130702
0.000222127
0.000177323
8.02842e-05
0.000899068
0.00130965
0.00173946
0.00229165
0.00247322
0.00262289
0.0027877
0.00260169
0.00271118
0.00323892
0.0039435
0.00537243
0.00656723
0.00174686
0.000860135
0.000179869
4.08496e-05
0.000234135
0.000219077
5.42223e-05
0.000276388
0.000659667
0.00115596
0.00106266
0.00151964
0.00161868
0.00172295
0.00156328
0.00171039
0.00207671
0.0026885
0.00342256
0.00391075
0.000724116
0.000292034
4.64793e-05
0.00013301
7.01282e-05
5.21968e-05
0.000114508
9.8222e-05
0.000232629
0.000342099
0.000131287
0.000537329
0.00059668
0.000404025
0.000624059
0.000553306
0.000879752
0.000868823
0.00118775
0.00103183
0.00943367
0.0055247
0.00226999
0.000545772
0.000378163
0.000948019
0.00270965
0.00446459
0.00600396
0.00795939
0.00937348
0.00989834
0.0106433
0.0106157
0.0107603
0.0106282
0.0120575
0.0144471
0.0179749
0.0219557
0.00837586
0.00482883
0.0019972
0.000240532
0.000200866
0.0007409
0.00198275
0.00351521
0.00543924
0.00648541
0.00792852
0.00832938
0.0088315
0.00877512
0.00879574
0.00916334
0.00993734
0.0119464
0.0149595
0.0186243
0.00715081
0.00429205
0.00159383
0.000435569
0.000102098
0.000714897
0.001929
0.00304099
0.00431602
0.00548499
0.00641329
0.00740389
0.00749109
0.00763846
0.00712185
0.00780501
0.00842119
0.00988343
0.0127176
0.0155472
0.00590635
0.0036023
0.0012243
0.000559051
3.18822e-05
0.000582312
0.00125491
0.00236129
0.00346234
0.00405948
0.00523073
0.00556365
0.00597281
0.00593744
0.00614099
0.00608453
0.00680381
0.00806734
0.0101515
0.0126385
0.00446464
0.0029274
0.001324
0.000221422
0.000174555
0.000363408
0.00108037
0.00175382
0.00244178
0.00327574
0.004004
0.00430588
0.00482816
0.00470599
0.00476611
0.00451758
0.00545923
0.00630225
0.00789119
0.00942907
0.00339261
0.00208891
0.000786313
6.86509e-07
5.19526e-05
0.000183548
0.000880207
0.00137753
0.00185601
0.00238306
0.00299511
0.00348712
0.00348511
0.00331712
0.00330994
0.00325787
0.00377753
0.00455431
0.00570412
0.00696926
0.00201335
0.00102984
0.000633431
9.04202e-05
0.000101036
0.000339324
0.000473091
0.000570858
0.00130907
0.00132537
0.00185112
0.00171342
0.00192383
0.00199472
0.00206304
0.00216822
0.00193374
0.00268224
0.00346536
0.00425772
0.000579518
0.000239111
0.000200782
0.000151851
0.000201656
0.000197577
0.000222452
0.000195569
0.000580447
0.000506675
0.000557443
0.000842801
0.000533009
0.000808643
0.000545803
0.000771793
0.000848158
0.00077649
0.00123025
0.00143033
0.0106584
0.00715778
0.00362241
0.0021887
0.00208401
0.00280461
0.00473047
0.00632656
0.00831008
0.0103253
0.0115533
0.0125373
0.0125337
0.0122693
0.0122248
0.0126114
0.0135489
0.0154176
0.0187248
0.0229128
0.00912903
0.0061856
0.00321396
0.00195843
0.00186526
0.00250195
0.00383669
0.00528647
0.00706549
0.00885723
0.0101371
0.0103831
0.0108803
0.010886
0.0105145
0.0104169
0.0117005
0.0131407
0.0161272
0.0194831
0.00787381
0.00520733
0.00268427
0.00156116
0.00149754
0.00209103
0.00312871
0.00443642
0.00612459
0.00746073
0.00853752
0.00895472
0.00888927
0.00873681
0.00870932
0.00882671
0.0094365
0.0111597
0.0133938
0.0162187
0.00698737
0.00440375
0.00251442
0.00137316
0.00121336
0.00196141
0.00247757
0.00384191
0.00497368
0.00572396
0.0069009
0.00734999
0.00719593
0.0070766
0.00693892
0.00702918
0.00758049
0.00910264
0.0109501
0.013022
0.00511012
0.00353602
0.0019728
0.000997294
0.000873615
0.00128826
0.00195947
0.00285038
0.00383905
0.0046159
0.00515198
0.005461
0.00566991
0.00563444
0.00558928
0.00527406
0.00611133
0.00710381
0.00844792
0.0103858
0.00380434
0.00231685
0.00133223
0.00086083
0.000581063
0.000954706
0.00140595
0.00212542
0.00263256
0.00333337
0.00357208
0.00396586
0.00405913
0.00410723
0.00376741
0.00384759
0.0041888
0.0049491
0.00610597
0.0073074
0.00250631
0.00165015
0.000908071
0.000317591
0.000189808
0.000388431
0.000742991
0.00111874
0.00172023
0.00199951
0.00214154
0.00246272
0.00257741
0.00221708
0.00251979
0.00243273
0.00240154
0.00291062
0.00346845
0.00439035
0.000865156
0.000311945
0.000361444
0.000126233
0.000112031
1.78883e-05
0.000101266
0.000243363
0.000649634
0.000589808
0.000883003
0.000644243
0.000665617
0.00102791
0.000739572
0.000864696
0.000967414
0.00104873
0.00133804
0.00170519
0.0121732
0.00853268
0.00553327
0.00377721
0.00397551
0.00466168
0.00631854
0.00828908
0.0108267
0.0126371
0.0141245
0.014915
0.0150811
0.0146292
0.0140675
0.0144189
0.0150011
0.0170981
0.0200795
0.0241074
0.0106426
0.00738169
0.0048467
0.00351541
0.00323971
0.00415991
0.00558022
0.00728731
0.00903692
0.0108989
0.0120088
0.0129225
0.0126611
0.0126321
0.0121449
0.0118963
0.0127531
0.014313
0.017127
0.0205325
0.00894985
0.00650134
0.00418263
0.00310723
0.00262756
0.00364866
0.00463941
0.00621592
0.00756756
0.00929011
0.0100276
0.0106746
0.0108843
0.0105697
0.0097309
0.0101418
0.0106098
0.0119112
0.0142109
0.0170381
0.00736555
0.00518863
0.00349593
0.00250624
0.00240918
0.0028383
0.00365825
0.00466648
0.00623832
0.00724193
0.00815124
0.00869025
0.00870441
0.00856226
0.00818676
0.00814889
0.00877367
0.00960834
0.0117056
0.0136875
0.00595497
0.00411585
0.0024607
0.00197397
0.00167926
0.00240716
0.00295598
0.00390921
0.00500869
0.00590602
0.00647042
0.00673879
0.00678511
0.00658922
0.00629295
0.00635954
0.0064769
0.00761067
0.00899179
0.0108009
0.00417302
0.00296363
0.00201135
0.00122856
0.00157292
0.00177722
0.00244534
0.00275973
0.00381831
0.00426117
0.00430891
0.00499769
0.00486287
0.00457041
0.004432
0.00459235
0.00485823
0.00545669
0.00665338
0.00761124
0.00247677
0.00181296
0.0012383
0.000815476
0.000931927
0.000680971
0.0014483
0.00182664
0.00213559
0.00251493
0.00275619
0.00287701
0.00309852
0.00287471
0.00259684
0.00284743
0.00285827
0.00340874
0.00413188
0.00478655
0.000685218
0.000630538
0.000327657
0.000498587
0.000475667
0.000226604
0.000459041
0.000378537
0.000677382
0.000618626
0.000963262
0.00120081
0.00104371
0.00106334
0.000844934
0.000856075
0.00118141
0.0011672
0.00130509
0.00114077
0.0138387
0.0102913
0.00736469
0.00596035
0.00573419
0.00660537
0.00852703
0.0106607
0.0124393
0.0149954
0.0165947
0.0169828
0.0170008
0.0165163
0.0161193
0.0159702
0.0167331
0.0183672
0.0213748
0.0250676
0.0119039
0.00887483
0.00647616
0.00501641
0.00485031
0.00585328
0.00721123
0.00911038
0.0111108
0.0127333
0.0141465
0.0148653
0.0147812
0.01421
0.01398
0.0137296
0.014078
0.0156318
0.018329
0.02155
0.0102187
0.0075686
0.00581223
0.00431169
0.00423431
0.0050556
0.00591993
0.00756436
0.00913133
0.0106631
0.0117553
0.0124524
0.0123629
0.0120281
0.0115563
0.0114433
0.0121838
0.013112
0.0151894
0.0178116
0.00854111
0.00629983
0.00472179
0.00362648
0.00351193
0.0041841
0.00477375
0.00631446
0.00758088
0.00875927
0.00960958
0.010037
0.00970952
0.00958137
0.00933215
0.00895535
0.00968101
0.0108246
0.0125108
0.0145695
0.0066721
0.00504269
0.00349004
0.00266526
0.00257772
0.00306398
0.00368305
0.00470515
0.00592191
0.00691372
0.00751478
0.00780217
0.00805585
0.00766184
0.00718683
0.00707071
0.0076498
0.00809252
0.0098379
0.0111038
0.00471536
0.00395877
0.00275666
0.00203313
0.00188053
0.00235535
0.0028267
0.00336492
0.00426461
0.00513929
0.00543045
0.00577396
0.00569188
0.00533432
0.00511057
0.0052039
0.00559175
0.00596545
0.00709453
0.008013
0.0029
0.00202728
0.00144015
0.00126651
0.00104872
0.00123596
0.00179283
0.00224485
0.00262996
0.00290751
0.00339214
0.00353966
0.00333683
0.0034391
0.00330954
0.00321234
0.0032198
0.0037016
0.00433342
0.00506096
0.000788739
0.000701995
0.000459842
0.000445783
0.000467087
0.000422479
0.000646378
0.00084147
0.000820311
0.00107522
0.00120431
0.000846554
0.00112943
0.00111469
0.00094912
0.00107499
0.00103008
0.00112413
0.0013561
0.00174418
0.0150185
0.0119037
0.00915565
0.00760445
0.00747344
0.00865674
0.0103754
0.0124735
0.01478
0.0167974
0.0183744
0.0191457
0.0190103
0.0183419
0.0178337
0.0175556
0.0181113
0.019914
0.0223867
0.0261036
0.0131586
0.0102674
0.00777041
0.0068532
0.00632636
0.00745624
0.00859972
0.0108511
0.0129104
0.0145801
0.0156791
0.0164141
0.0163956
0.0156676
0.0152393
0.014965
0.0153252
0.0170561
0.0192349
0.0221457
0.0111781
0.00877117
0.00684401
0.00570203
0.00550705
0.00621365
0.0075566
0.00923214
0.0109336
0.0123677
0.0133838
0.0138431
0.0137717
0.0132677
0.0129855
0.0127744
0.0129315
0.0141434
0.0161764
0.0186732
0.00910753
0.00748289
0.00545142
0.0047523
0.00469003
0.00505541
0.00617635
0.00723518
0.00883143
0.010268
0.0108778
0.0115474
0.0111137
0.0107893
0.0107405
0.0104544
0.0105564
0.0114516
0.0131162
0.0152166
0.00746648
0.00584651
0.00442877
0.0036255
0.00367992
0.00406409
0.00463452
0.00597533
0.00675388
0.00818302
0.00851647
0.00906259
0.00881949
0.00860681
0.00828787
0.00795026
0.00815682
0.00900011
0.0101945
0.0116791
0.00535255
0.00391799
0.00323633
0.00278353
0.00257087
0.00290971
0.00344323
0.00440069
0.00516036
0.00587089
0.00625093
0.00649062
0.00647633
0.00601049
0.00601624
0.00584897
0.00599989
0.00652643
0.00756262
0.00848504
0.00324699
0.00232853
0.00194583
0.00162406
0.00155093
0.00148725
0.00238821
0.00249062
0.0029775
0.0036195
0.00351028
0.00392905
0.00406699
0.00347217
0.00325231
0.00339106
0.00371455
0.00373957
0.00425679
0.00505214
0.00110828
0.000871655
0.000812404
0.000619396
0.000450003
0.00079494
0.000885224
0.000957025
0.00109419
0.00120482
0.0011428
0.00128002
0.00151463
0.00122371
0.00121604
0.00121333
0.0012106
0.00130748
0.00150667
0.00185693
0.0167565
0.0133351
0.0105266
0.00946197
0.0091287
0.0100233
0.0118672
0.0137287
0.0163574
0.0184268
0.0200703
0.0206863
0.0204712
0.0197565
0.0189686
0.0188086
0.0195666
0.0208728
0.023529
0.0266062
0.0144066
0.0117429
0.00945499
0.00839345
0.00814877
0.00888193
0.0102015
0.0121351
0.0141954
0.0160549
0.0174557
0.0178394
0.0175508
0.0171885
0.0162255
0.0160808
0.0164944
0.0177236
0.0201614
0.0229223
0.0121977
0.00997522
0.00826676
0.00717634
0.00679531
0.00746893
0.00888103
0.0101834
0.0119879
0.0135026
0.0144937
0.0150453
0.0150298
0.0144066
0.0136086
0.013409
0.0140132
0.0149367
0.0169884
0.0191662
0.0102992
0.00832468
0.00659856
0.00564177
0.00562683
0.00613174
0.00706166
0.00849343
0.00988641
0.0108996
0.0121872
0.0124038
0.012217
0.011814
0.0112393
0.0110029
0.0113093
0.012292
0.0139036
0.0157049
0.00765176
0.00649671
0.00524813
0.00455757
0.00449082
0.00516613
0.00542671
0.00637559
0.0075829
0.00870468
0.00941875
0.00979052
0.00968052
0.00915082
0.00897231
0.00872835
0.0088812
0.00962625
0.0110444
0.0122512
0.00561483
0.00473919
0.00411057
0.00329416
0.00300655
0.00351795
0.00400955
0.0048481
0.00575027
0.00636673
0.00676079
0.00684799
0.0065969
0.00692368
0.00633521
0.005955
0.00635327
0.00682724
0.0078378
0.00860382
0.00339777
0.00284159
0.00248106
0.00224282
0.00194003
0.00211561
0.00247289
0.00278195
0.0032459
0.00383186
0.00414823
0.00402879
0.00414684
0.0038414
0.00393223
0.00378905
0.00408153
0.00415402
0.00472089
0.00528332
0.0011826
0.00118854
0.000862063
0.000778343
0.000526448
0.000691395
0.000988108
0.000788527
0.00130103
0.00134452
0.000964689
0.00143394
0.00158513
0.00126494
0.00134247
0.00128293
0.00120324
0.00124242
0.00147196
0.00187957
0.0177046
0.0148946
0.0119043
0.0107457
0.0106478
0.0113774
0.0128753
0.0151544
0.0174279
0.0196522
0.0208697
0.0217352
0.0215422
0.0208945
0.0199489
0.0198464
0.0200107
0.021975
0.0242942
0.0271839
0.0151437
0.0127105
0.0107665
0.0092626
0.00934778
0.00982238
0.0111029
0.0130064
0.0152982
0.0167338
0.0183985
0.0187536
0.0184106
0.0179896
0.0170054
0.0170016
0.01723
0.0187564
0.0208081
0.0233941
0.0132008
0.0112131
0.00915761
0.00782818
0.00773113
0.00843061
0.00928966
0.0113426
0.012651
0.0142892
0.015451
0.0158708
0.0155125
0.0150154
0.0146584
0.0144516
0.0146144
0.0155032
0.0177236
0.0196777
0.0108159
0.00940038
0.00759151
0.00645661
0.00641391
0.00680999
0.00764732
0.00891408
0.0104715
0.0120291
0.0127637
0.0129161
0.012885
0.0125499
0.0121266
0.0116997
0.0118454
0.0126231
0.0141852
0.0162801
0.00866396
0.00722033
0.00585853
0.00510987
0.00520025
0.0055429
0.00602653
0.0072962
0.00821471
0.00916243
0.00988444
0.0102854
0.0103479
0.00970681
0.00944352
0.00924548
0.00918774
0.00992728
0.0109325
0.0125513
0.00614672
0.00528622
0.00442188
0.00379554
0.00363864
0.00405126
0.00433686
0.00517621
0.00597041
0.00694392
0.0073494
0.0074493
0.00732454
0.00692176
0.00666347
0.00665945
0.00667815
0.00712218
0.00812076
0.00904352
0.0035474
0.00333906
0.00253394
0.00256382
0.00230289
0.00260251
0.00296454
0.00314403
0.00381763
0.00400453
0.00438162
0.00447735
0.00431508
0.00406754
0.00384463
0.00388273
0.00423592
0.0044525
0.00487381
0.00567317
0.00124579
0.00104879
0.000981717
0.000745628
0.000772767
0.000888029
0.00104776
0.00103852
0.00121782
0.00142813
0.0013324
0.00144197
0.00142532
0.0014378
0.00147596
0.00137061
0.00137289
0.00160626
0.00156524
0.00187716
0.0186859
0.0155079
0.0131409
0.0120115
0.0118271
0.0125261
0.0136732
0.0160201
0.0180516
0.0201488
0.0215592
0.0221547
0.0220751
0.0213179
0.0206324
0.0201074
0.0207811
0.0222186
0.024586
0.0274126
0.0162063
0.0137668
0.0117544
0.0105021
0.0102815
0.0105147
0.0119065
0.0136831
0.015959
0.0174552
0.0188255
0.0190753
0.0188178
0.018136
0.0177803
0.0172738
0.0177113
0.0190287
0.0209349
0.0233782
0.0136671
0.0117418
0.00999751
0.00881631
0.00871862
0.0092189
0.0103256
0.011811
0.0132104
0.0148376
0.0158245
0.0161714
0.0159416
0.0156011
0.0148208
0.014554
0.0149609
0.0161039
0.0178951
0.0198518
0.0114965
0.00993258
0.00814592
0.00745654
0.00733834
0.00746615
0.00845687
0.00977723
0.0109294
0.0120237
0.0131461
0.0133368
0.0131777
0.0125901
0.0120667
0.0120889
0.012272
0.0132101
0.014384
0.0161363
0.00897997
0.00780797
0.00657605
0.00596395
0.00549644
0.00590328
0.00644181
0.00742255
0.00861426
0.00954069
0.0101996
0.0102512
0.0103412
0.00991188
0.00940883
0.00928002
0.00958512
0.0102442
0.0113639
0.0125854
0.00635812
0.0055103
0.0047647
0.00390425
0.0042
0.00433153
0.00465822
0.00516245
0.00595224
0.00677697
0.00766464
0.00755031
0.00754252
0.00701187
0.00707555
0.00652686
0.00694239
0.00705083
0.00827716
0.00895221
0.00393484
0.00349128
0.00275997
0.00270078
0.00242405
0.00258564
0.00295004
0.00301648
0.00386744
0.00420996
0.00442006
0.00477627
0.00433891
0.00464685
0.00407207
0.00398409
0.00413068
0.00450404
0.00487672
0.00557584
0.001129
0.00121111
0.000978429
0.000769737
0.000900724
0.000967408
0.00085892
0.00113452
0.00106641
0.0016652
0.00152912
0.00155011
0.00159467
0.00157573
0.00152629
0.00148943
0.00134075
0.00164651
0.0015788
0.00196657
0.0189197
0.0165453
0.0138482
0.0127267
0.0124725
0.0130885
0.0143519
0.0161174
0.0184101
0.0201899
0.0215681
0.0222911
0.0219658
0.0212399
0.0204833
0.0203502
0.0209871
0.0223082
0.0246771
0.027048
0.0167321
0.0145415
0.0122652
0.0110659
0.0107698
0.0114655
0.0124338
0.0141037
0.0158142
0.0174349
0.0187646
0.0189416
0.0189117
0.0185311
0.0174642
0.0174421
0.0179177
0.0190173
0.0211151
0.0235384
0.0141824
0.0122819
0.010546
0.00940756
0.00943038
0.00986294
0.0108027
0.0120818
0.0134895
0.0148173
0.0156897
0.0163447
0.0159144
0.0155254
0.0147208
0.0148285
0.0150823
0.0161359
0.0179444
0.019787
0.0116088
0.0101539
0.00873268
0.00780502
0.00744103
0.00807452
0.00876574
0.0100002
0.0109385
0.0121762
0.0130698
0.0131927
0.0129593
0.0128591
0.0120633
0.0120426
0.0125088
0.0132279
0.0145697
0.0160742
0.00935611
0.00818366
0.00685137
0.00616581
0.00596347
0.00624948
0.00700016
0.00765121
0.0084656
0.0094667
0.0101291
0.0104099
0.0103194
0.0100294
0.00945554
0.00961026
0.00938882
0.0101469
0.011465
0.0125904
0.00657129
0.00583435
0.00514554
0.00477658
0.00421099
0.00446756
0.00489786
0.00537121
0.00618942
0.00684727
0.00736226
0.00771924
0.00720424
0.00726688
0.0068604
0.00687939
0.00677767
0.00735475
0.00820841
0.00898451
0.00399812
0.0035698
0.00319874
0.00260878
0.0026157
0.00265135
0.00300525
0.00336084
0.0038437
0.00419645
0.00450213
0.00457278
0.00439885
0.00441591
0.00434227
0.00404484
0.00415727
0.0046755
0.00517442
0.00533594
0.00147448
0.00121987
0.00117387
0.000902546
0.000878147
0.000947186
0.000905187
0.00100274
0.0013498
0.00135451
0.00164286
0.00128314
0.00145222
0.00151878
0.00122556
0.00145184
0.0014244
0.00141431
0.00177053
0.00199489
0.0191884
0.0168267
0.0144841
0.01333
0.0127273
0.0132068
0.0144249
0.0158812
0.0178003
0.019237
0.0206034
0.021181
0.0210019
0.0207536
0.0201659
0.0199903
0.020415
0.0215725
0.0243897
0.0269205
0.0168452
0.0145842
0.0125499
0.0114345
0.0110984
0.0115874
0.0125557
0.0138615
0.0156546
0.0168512
0.0179439
0.0184675
0.0183705
0.0178257
0.0175893
0.0170633
0.017675
0.0186634
0.0206815
0.0229159
0.0142213
0.0126243
0.0108803
0.00978905
0.00955941
0.00976496
0.0105943
0.0117832
0.0130725
0.014387
0.0152157
0.0155427
0.0153889
0.0151399
0.0147296
0.0144694
0.0148208
0.0156386
0.0174321
0.0194562
0.0117562
0.010411
0.0091022
0.00816252
0.0078206
0.00792169
0.00866043
0.00984897
0.0108445
0.0118236
0.0126395
0.0127253
0.0128616
0.0123698
0.011957
0.0118206
0.0122535
0.0128461
0.0142497
0.0155742
0.00934963
0.00818234
0.00699381
0.00644308
0.00617361
0.00626926
0.00677676
0.0075964
0.00870322
0.00928284
0.00996783
0.0100266
0.0102129
0.00957139
0.00958844
0.00949885
0.00934006
0.0100211
0.0112046
0.0122332
0.00643396
0.0059456
0.00499617
0.00476713
0.00444997
0.00455166
0.00490477
0.00540697
0.00611687
0.0067475
0.00696928
0.00732856
0.00745462
0.00695475
0.00657784
0.00664852
0.00684823
0.00738605
0.00796664
0.00897943
0.00410405
0.00346609
0.00309881
0.00278334
0.002581
0.00279559
0.00297357
0.00345745
0.00387251
0.00420664
0.00454596
0.004384
0.00435371
0.00411061
0.00402583
0.00410147
0.00431708
0.00454308
0.00480988
0.00532635
0.00118242
0.00117244
0.00117824
0.00102694
0.000733395
0.00109722
0.0012285
0.00111238
0.00125743
0.00123469
0.00120689
0.00137578
0.00156962
0.00137278
0.00150297
0.00124801
0.00142301
0.0016566
0.00173148
0.00192327
0.0191169
0.0167207
0.0145163
0.0132319
0.0127278
0.0129989
0.0142115
0.0156529
0.0170452
0.0184605
0.0191674
0.0199023
0.019997
0.0194908
0.0190467
0.0190884
0.0196871
0.0210841
0.0232753
0.0260423
0.0166997
0.0145366
0.0125603
0.0112945
0.0111509
0.0111122
0.0121766
0.0135551
0.0149217
0.016104
0.0168106
0.0171853
0.0168917
0.0166813
0.0164829
0.0164844
0.0168296
0.0180495
0.0201877
0.0221582
0.0143501
0.0121429
0.0107074
0.00964688
0.00943285
0.00940427
0.0102909
0.0112998
0.0122873
0.0132314
0.0141318
0.0147281
0.0148066
0.0141478
0.0138943
0.013876
0.0142716
0.0152394
0.0170995
0.0185708
0.0118449
0.0102963
0.00875949
0.00798912
0.00779342
0.00786144
0.00839192
0.00950952
0.0104521
0.0110909
0.0118675
0.0118675
0.0118265
0.0114069
0.0114898
0.0114788
0.011615
0.0123692
0.0136918
0.0154062
0.00929422
0.00809332
0.00702131
0.00643239
0.00575167
0.00633554
0.00680243
0.00723895
0.00810045
0.00867338
0.00930625
0.00954936
0.00947273
0.00914711
0.00907356
0.00880291
0.00904709
0.0097116
0.0108347
0.0117611
0.0065964
0.00603768
0.00512109
0.00473716
0.00453702
0.00442328
0.00480212
0.00518836
0.00601763
0.00655715
0.00662298
0.00677305
0.00677732
0.00673798
0.00634965
0.00622779
0.00658284
0.00698386
0.00758397
0.0086793
0.00413374
0.00375638
0.00305322
0.00277891
0.00270226
0.00261683
0.00309347
0.0033957
0.00389645
0.003753
0.00404702
0.00403995
0.00429308
0.00397494
0.00415843
0.00399057
0.00398429
0.00426241
0.00499435
0.00497438
0.00134233
0.00132098
0.00109444
0.000784821
0.000775483
0.000911761
0.000840671
0.00101277
0.00103416
0.00132185
0.00141422
0.00134113
0.00145805
0.00130665
0.00143742
0.00134233
0.00123292
0.00132369
0.00155618
0.00194252
0.0186706
0.0161876
0.0141152
0.0127219
0.0120814
0.012382
0.0130738
0.014374
0.0153761
0.0169268
0.0179374
0.0183804
0.01835
0.0179619
0.0178105
0.0176668
0.0182631
0.0198107
0.0221509
0.0243311
0.016334
0.0142436
0.0121693
0.0110918
0.0102595
0.0106423
0.011257
0.0125681
0.0134943
0.0146363
0.0152756
0.0156905
0.0158155
0.0156624
0.0152581
0.0154454
0.0158927
0.0170607
0.0189799
0.0213023
0.0137262
0.012208
0.0103381
0.0093964
0.00876251
0.00882483
0.00955911
0.010572
0.0116298
0.0123169
0.0127559
0.0134598
0.0131222
0.0132439
0.0128318
0.0127961
0.0134639
0.0141618
0.0160242
0.0178234
0.0115591
0.00993149
0.00855237
0.00777736
0.00717726
0.00745563
0.00797421
0.00853345
0.00940052
0.0102261
0.0107251
0.0108639
0.0107657
0.0107326
0.0102894
0.0106985
0.0107533
0.0120248
0.0130561
0.0144668
0.00908752
0.00790105
0.00665691
0.00592284
0.00577788
0.0058132
0.0061343
0.00663337
0.00748047
0.00806052
0.00840636
0.00853375
0.00867794
0.00832482
0.00844356
0.00815623
0.00854636
0.00905199
0.0103173
0.0114624
0.00683887
0.00578011
0.0048746
0.00445435
0.00416557
0.00426034
0.00446995
0.00485568
0.00536941
0.00592453
0.00629207
0.00630455
0.00651642
0.00590869
0.00570314
0.00587519
0.00601315
0.00676786
0.00732695
0.00816569
0.00391649
0.00366252
0.00312593
0.00278283
0.00256314
0.00265037
0.00284762
0.00288194
0.00328934
0.00365564
0.00343851
0.00369343
0.00382013
0.00340492
0.00348574
0.0037501
0.00366243
0.00424976
0.00449368
0.00491705
0.0013765
0.00113845
0.00106631
0.0010012
0.00103632
0.000638286
0.00077291
0.000933477
0.00123029
0.00109896
0.00127842
0.00152812
0.0014457
0.00108008
0.00116399
0.00129332
0.00127518
0.00134665
0.00168281
0.00194761
0.0176804
0.0154867
0.0131519
0.0118581
0.0112449
0.0113952
0.0118029
0.0127003
0.0138218
0.0151023
0.0161205
0.0160712
0.0164448
0.016267
0.0158698
0.0160798
0.0168915
0.0181921
0.0205847
0.0231556
0.015526
0.0133535
0.0115942
0.0103458
0.00962904
0.00962784
0.0103049
0.010929
0.0121125
0.0128288
0.0136091
0.0139707
0.0138308
0.0136937
0.0138575
0.0138316
0.0145291
0.015756
0.0177458
0.0197995
0.0128578
0.0114232
0.00974361
0.00874178
0.00827059
0.00811186
0.00885696
0.00927137
0.0101046
0.0110505
0.0115823
0.0117064
0.0119772
0.0116885
0.0114232
0.0116256
0.012115
0.0130166
0.0149416
0.0169536
0.0108074
0.00923446
0.0082102
0.00727941
0.00708598
0.00688751
0.0071007
0.00755986
0.00846271
0.0090768
0.0094324
0.00970203
0.00977082
0.00947732
0.00931422
0.00938876
0.00981763
0.0106525
0.0120694
0.0136743
0.00861632
0.00762059
0.00614451
0.00560814
0.00529412
0.00547106
0.00566941
0.00602124
0.00645673
0.0069325
0.00741234
0.00781572
0.00753476
0.00743377
0.00768437
0.00736202
0.00773927
0.00858189
0.00952003
0.010604
0.00624235
0.00535916
0.00476553
0.00419838
0.00372451
0.00375061
0.00407471
0.00431779
0.00474672
0.00523023
0.00543874
0.0055799
0.00540584
0.00549239
0.00552725
0.00531397
0.00549603
0.00617632
0.0070008
0.00788721
0.00392783
0.003551
0.00281081
0.00244354
0.00253893
0.00232869
0.0026733
0.00245806
0.00265374
0.00300095
0.00304909
0.00342505
0.00336084
0.00342727
0.00338385
0.00335281
0.00330191
0.00352247
0.00415312
0.00482763
0.00103455
0.00121931
0.00108118
0.000840022
0.000892625
0.000821386
0.00103408
0.000838555
0.00105857
0.000953471
0.00112343
0.00139336
0.00125652
0.000985256
0.00117054
0.00125971
0.00122652
0.00118791
0.00127997
0.00196466
0.0166511
0.0142639
0.012282
0.0106431
0.0100351
0.00982325
0.0100735
0.0110855
0.0119193
0.0128612
0.0135578
0.0137921
0.014
0.0138844
0.0140105
0.0143445
0.0150945
0.0166717
0.0186642
0.0211673
0.0144986
0.0124535
0.0104592
0.00910814
0.00840991
0.00861152
0.008943
0.00947051
0.0102481
0.0109315
0.0115216
0.0118686
0.0118604
0.0120007
0.0118999
0.0122018
0.0128167
0.0140533
0.0159547
0.0180643
0.0120756
0.0103122
0.0090071
0.00764198
0.00716753
0.00729845
0.00751303
0.00792056
0.00845778
0.00930437
0.00974219
0.0101355
0.00988531
0.00998501
0.0100097
0.0100341
0.0105487
0.0119195
0.0135264
0.0151673
0.00983946
0.00898497
0.00745497
0.00631695
0.00577088
0.00597447
0.00606933
0.00648115
0.00703363
0.0077104
0.00787197
0.00812589
0.00834059
0.00821512
0.00824274
0.00817914
0.0087194
0.00956169
0.0109283
0.0122987
0.00778686
0.00707592
0.00577686
0.0051858
0.00473715
0.00463885
0.00498642
0.00484507
0.00556459
0.00584507
0.00616701
0.00642567
0.00638551
0.00626542
0.00612751
0.00645401
0.00696499
0.00773839
0.00858246
0.00963505
0.00570549
0.00462302
0.0042241
0.00374036
0.00337628
0.00336726
0.00372685
0.003737
0.00393778
0.00446239
0.00451457
0.00471155
0.00443087
0.00451208
0.00475638
0.0044105
0.00484654
0.00544246
0.00628233
0.00709456
0.0035061
0.00306109
0.00282893
0.00225355
0.00207393
0.00196808
0.00207091
0.00228814
0.00241762
0.00240331
0.00256406
0.00290175
0.00300818
0.00300972
0.00259303
0.0024953
0.00294097
0.00324464
0.00383339
0.00440635
0.00105685
0.000920074
0.000889101
0.000716067
0.000506375
0.000587176
0.000826287
0.00084601
0.00101499
0.000759609
0.000815071
0.000840855
0.000989218
0.000937159
0.000835035
0.000920211