/*--------------------------------*- C++ -*----------------------------------*\
| =========                 |                                                 |
| \\      /  F ield         | OpenFOAM: The Open Source CFD Toolbox           |
|  \\    /   O peration     | Version:  2212                                  |
|   \\  /    A nd           | Website:  www.openfoam.com                      |
|    \\/     M anipulation  |                                                 |
\*---------------------------------------------------------------------------*/
FoamFile
{
    version     2.0;
    format      ascii;
    arch        "LSB;label=32;scalar=64";
    class       volScalarField;
    location    "./ITHACAoutput/true/15.8";
    object      error;
}
// * * * * * * * * * * * * * * * * * * * * * * * * * * * * * * * * * * * * * //

dimensions      [0 0 0 1 0 0 0];

internalField   nonuniform List<scalar> 
3200
(
0.0929189
2.1105
0.696397
4.20857
4.02231
4.98744
4.41209
5.25786
2.76882
4.69334
5.33872
3.25149
4.44425
1.29385
4.85408
0.296484
4.56222
1.73897
-1.36501
-2.87837
-1.07159
1.20618
3.89524
3.64748
3.48049
2.20671
-1.00283
4.80445
3.11628
0.636681
2.84462
2.46225
2.13249
2.12121
2.82539
0.875652
1.06606
2.79373
0.305071
-2.46961
-1.59729
-2.06373
3.25398
3.31314
1.77392
-0.391573
1.75534
3.42197
0.988202
1.09757
4.66893
1.14358
3.5795
1.77723
2.85158
1.91208
1.25617
0.512055
0.370513
-2.1174
-1.17542
2.2105
1.75696
1.5916
-0.47312
1.02856
2.93824
2.2509
2.50041
3.10194
2.92068
0.153176
3.78737
-2.63142
1.95953
2.10645
0.302081
-0.166623
-1.04632
-1.59334
-1.69905
-0.677754
2.03589
-0.152351
-3.76184
0.512243
3.01531
1.42422
0.0816371
3.82341
1.08508
-0.942318
0.84046
0.55552
-0.651223
2.10709
2.83215
-1.29197
0.510659
-5.26524
-1.23135
0.521187
2.21916
0.545324
2.45056
0.258603
2.14516
0.308553
2.65867
-0.368111
0.549442
-0.618486
0.983375
1.17603
1.76557
0.765099
2.77764
2.28191
-0.332824
1.64768
-0.328881
-1.82771
1.48056
0.762292
0.670025
0.412816
2.75948
1.31869
-0.835979
2.0261
1.97264
0.365087
1.72364
-1.20262
-0.304143
0.684257
0.661531
-0.265593
1.30559
1.27163
-1.22059
-2.07608
0.941218
0.86372
2.04251
0.0763644
-1.5841
-0.402382
0.287502
0.0584435
-1.09391
-0.0381872
-2.45641
-0.145133
2.71858
-2.03326
-0.612035
-0.768467
-0.375829
-0.389292
0.698761
2.48917
4.76974
4.40421
4.38142
5.99211
5.8721
4.6575
3.20484
3.79872
2.073
1.69095
2.79004
0.821476
1.60933
1.84397
3.19494
0.435356
1.23268
-1.17502
-0.656407
1.05722
1.56728
0.392085
4.02822
-0.487101
0.731744
-0.285362
3.35838
0.544379
0.272222
1.22247
0.143125
-1.35434
-0.120759
3.68453
-0.0605908
-0.129337
-0.263685
-1.4591
0.50371
0.819482
0.00789042
1.6176
4.65663
3.48263
3.39065
0.467471
1.69885
1.26448
4.26424
2.69242
1.45099
1.62046
4.09402
2.34765
0.705992
0.566581
-0.259912
-4.22528
-0.732756
0.897115
4.80166
2.04042
0.656777
0.502353
1.26035
2.17887
1.75353
3.39298
2.11019
-0.290103
2.16178
2.0349
0.735303
1.37403
1.07347
-1.00425
-0.489465
-2.36623
0.556128
2.08312
1.43007
-0.582464
-1.79601
2.33561
0.412001
-0.634908
2.7852
3.02572
3.85813
2.50965
1.12646
0.366087
-0.219757
1.89757
-0.840244
1.17135
3.25976
1.28383
0.00494197
-0.492426
2.97482
1.11854
1.61963
0.106629
3.702
-0.779632
0.854965
-0.632388
2.00092
0.808156
0.438205
-0.0975104
-1.32382
1.85831
1.17818
1.47299
-2.00326
-2.40343
-0.880003
2.33029
-0.351494
-0.101832
1.19297
1.36702
1.6614
0.214147
-0.566599
3.36606
2.92401
-1.6454
0.984175
0.853275
1.59188
1.43646
2.13499
-1.407
0.854792
-1.4696
2.50001
-0.830811
1.88275
1.81311
-2.12281
-1.61583
1.24968
1.65384
-2.12968
-1.99436
2.44914
-0.861839
-1.84363
-1.53257
1.08204
-1.02995
-0.594851
-0.305938
-1.30926
-0.984161
-1.42277
1.88853
4.64112
2.25895
2.51698
3.75035
5.12015
3.32451
2.54836
4.20528
4.0672
0.758951
2.86442
1.68313
4.37511
1.25185
2.28713
1.48844
-0.473252
-3.75275
-0.371293
-2.27
2.00179
3.90149
1.85366
4.28044
2.78478
1.67527
3.9149
3.64975
3.3138
2.38644
1.95443
2.32284
4.08045
3.14402
3.1312
-0.468952
0.789072
-1.85839
-1.39962
1.31701
3.55386
1.87267
1.69388
2.53961
4.20051
1.15585
2.65682
1.88857
2.02231
0.357537
3.99818
1.87835
-2.66296
0.288876
1.57256
-1.3388
-0.0496432
0.925031
-2.16702
-1.51155
1.14632
0.794057
2.18198
3.4945
4.54503
1.36098
1.05892
1.45377
0.669407
1.04079
1.37202
2.64221
0.877212
-0.563676
1.51897
1.13325
1.739
-0.990934
0.820454
1.16758
-0.230505
2.96465
0.981122
3.50698
1.1609
2.95511
0.562922
0.534909
0.873671
1.65213
0.219077
0.126263
0.824856
0.519346
2.08425
-1.63035
-0.94221
-0.837499
-0.881566
-1.22207
-0.450432
0.945298
-1.00392
1.30211
0.050563
2.76906
-2.36311
0.854463
0.835898
1.78771
1.33089
0.834814
1.11971
1.76213
-0.914501
1.73321
-3.52357
-1.28734
-2.44136
-1.20446
0.934078
0.401094
-0.990755
-0.0324756
-0.949728
1.55731
0.0617953
1.87946
0.156329
-3.49121
0.00846832
2.30025
-1.53111
1.53842
-0.328176
-0.0321282
-1.2596
0.828504
0.0394638
-0.840524
1.14336
1.27415
1.96779
0.901311
1.80048
-0.455745
-2.39844
-0.0519663
-0.867709
0.442801
-0.793214
1.75315
0.542588
-0.362078
0.150217
1.52509
-0.40354
0.633601
-1.89429
-0.543727
-0.270438
3.72331
3.20364
4.39489
1.87272
3.31137
3.26713
-0.146568
2.11782
0.851093
-0.655211
4.29661
2.64497
3.16478
1.33724
2.16517
-0.15982
-2.12974
-1.26591
-0.146406
1.14589
0.405856
3.00849
-0.0112918
4.47323
0.607629
0.717698
0.175761
-0.0345602
-0.924513
-0.193811
0.806856
-0.181446
0.4298
0.376586
-0.110209
-0.201891
-2.83422
-2.62183
0.146845
1.28323
3.10848
0.456676
1.41885
-1.67207
1.84023
0.575663
-1.00862
0.666208
0.93517
2.81612
1.7942
1.5626
1.15614
0.961713
-0.131519
0.883694
-3.21247
-0.232758
-0.471885
3.33303
-0.906666
2.4095
1.63904
1.06977
2.3217
2.32908
0.1923
-1.02879
2.22892
-0.839121
1.79767
2.64848
0.618063
1.551
1.71389
-1.41404
-1.54135
-0.135242
-3.31525
0.162346
0.788777
1.97221
2.83771
3.41284
1.99497
-0.492572
1.38615
0.884961
2.13913
-0.207999
0.119066
2.38773
1.81421
-0.770491
1.09593
-1.4228
-1.09773
0.714924
0.694067
0.17413
0.864941
0.0484905
0.618011
0.671351
2.01011
0.403136
-0.0323272
0.342688
1.17852
1.70455
0.67983
1.43246
-1.79358
-0.815791
-1.30232
-2.7084
-1.79744
-0.799166
2.89233
0.96289
2.50177
0.240103
-1.21265
-2.35272
0.294009
3.45609
1.64359
2.90892
1.57298
0.427849
2.31948
1.75862
-0.951107
-2.2124
-2.7518
-0.92103
1.01145
1.33552
0.332195
1.43882
-0.908769
-0.233119
2.17618
-2.84885
1.5205
0.955764
0.659917
0.0375307
2.75566
-0.932014
2.23156
1.1387
3.20104
-2.08387
1.13757
-0.115108
1.96364
-1.3887
-0.566338
-1.61065
1.66907
4.17834
4.4048
3.54784
1.41854
-0.963307
-1.20274
0.999696
0.470152
1.67669
3.21444
0.516665
-2.2174
0.986797
1.56451
0.166637
-4.87635
-1.88166
1.0682
-1.2307
1.14168
4.03072
1.84613
3.4072
1.22918
0.520759
-1.14331
2.06397
-1.34772
-1.24795
0.093912
1.51632
1.23262
-0.549815
0.152941
-1.50411
-2.00896
-4.21159
1.7442
1.37101
0.329448
0.0446646
-0.858933
2.25824
1.73303
0.468723
0.832333
1.13039
-0.0399887
0.122446
-0.464507
0.430064
0.403099
1.43262
-1.11192
-1.88634
-2.82866
1.55383
-0.574159
1.82275
1.06324
-2.37492
2.18798
-0.46157
-0.714746
-0.866125
1.69121
1.84191
0.0238369
-2.88897
-0.447082
1.35132
0.479113
-0.323336
0.15462
-1.52861
-3.84872
-1.37133
-0.573526
0.560436
1.5572
2.76171
1.40673
2.33242
-0.202121
-0.310024
3.57541
1.27267
0.838477
-1.61751
-0.131813
0.347697
-1.07199
-0.401053
-1.26754
0.20706
-1.43869
0.13563
1.5576
-0.490932
1.38053
-0.471966
-0.802042
2.32819
1.69115
-2.11963
-0.481019
-1.35659
-2.04556
0.940927
-0.734145
0.149739
-0.591324
-1.6531
-0.966245
-0.372114
-2.56686
-0.553706
0.320075
0.500486
0.571507
0.618082
4.07639
1.42932
0.974146
1.06133
1.89186
0.96624
-1.66762
1.54938
0.578272
1.18941
-0.446837
1.86114
0.873271
-0.20044
-0.270371
-1.5953
-0.227217
2.10315
1.00231
-2.52889
0.561604
2.34561
2.74522
0.384979
-1.24355
2.40926
-2.04328
1.00581
0.932275
-1.13992
-0.617825
0.671651
0.897415
0.112495
0.0935089
-2.73971
0.251377
1.36407
-1.16935
3.81799
1.61748
-0.613923
0.715343
-0.0736116
0.662251
-1.08558
-1.03577
-1.03801
-1.01551
-0.0409019
1.09907
1.40993
0.836655
0.786945
-5.32581
-0.88596
0.634604
1.19172
0.66643
-1.43017
0.158324
2.18712
0.217613
0.67706
0.295474
0.532991
-0.613224
-0.387825
-1.47035
0.349396
1.41902
-0.0630263
-0.024618
-0.352799
-0.54074
0.24338
-1.56703
0.384004
3.07679
3.11232
2.14011
1.90934
2.92816
3.14728
-1.9494
-1.92392
2.5077
-1.21049
-1.03223
0.962199
-1.76207
-0.778869
1.23112
-2.04057
-1.15176
-0.677696
-0.951298
1.06027
-1.93651
1.44951
0.508269
0.340576
-1.35474
2.57342
-0.667196
0.446644
1.69724
0.568233
2.01558
1.02532
1.34417
1.50522
-2.04416
-0.443814
-0.701418
-4.00276
-0.674245
1.32455
1.75763
2.29693
-0.619995
0.532355
0.194855
0.132022
-0.104473
3.24559
-0.873209
-3.00277
-1.55008
0.544331
-0.798504
2.35598
-0.135331
-0.408103
-2.32137
1.41705
2.1071
0.125736
0.966446
-0.23761
0.407946
2.23023
-0.456494
-0.257998
-0.299925
0.797424
-1.01523
1.63947
-0.871206
2.48679
0.300154
-1.83266
-0.276306
-0.587231
-2.86002
-2.34305
0.297301
-0.31799
-0.000919331
-0.824473
0.553713
0.639662
0.936891
1.80938
0.81299
-1.77343
0.421951
-0.591613
0.196863
-2.1056
0.0664487
1.34281
3.57567
1.21542
0.0105187
-1.97306
-1.12601
-0.541877
-1.7052
-0.73849
1.35325
1.04447
-0.489978
3.18886
-2.45529
-1.69566
-0.63719
1.47753
-1.15069
0.294544
0.854186
-1.45681
-2.84723
0.131361
-0.229626
-4.98249
-0.929405
2.90049
0.705681
1.8765
-0.0707086
0.198343
0.522729
-0.951429
2.77633
-1.62588
0.34681
-0.386102
0.538304
0.202352
1.40667
0.336408
-1.01764
-2.44021
-3.42541
-1.56055
-0.639778
0.477471
-0.124547
2.224
1.40501
-0.246943
0.901715
-0.029459
-2.08256
-0.622807
0.379203
-1.85852
-1.8564
-1.69232
1.31446
-2.68963
-2.15457
-3.19647
-5.69068
-4.10812
-2.1258
-1.30864
-0.268984
5.31169
3.05732
0.0718724
-2.17536
0.134489
3.6136
-3.59063
-2.08551
2.39445
-0.927137
-1.26039
2.51105
1.49215
1.77623
1.0377
-2.49324
-2.7166
-1.4223
-1.43713
0.878548
1.68265
-2.44888
0.386999
1.75881
0.962946
0.920418
2.50826
-1.21166
-0.258721
1.27157
-1.55284
0.683673
0.0843488
1.73549
-2.96297
-2.62969
-0.987222
-1.26493
1.95759
-1.12242
0.688103
2.92861
-1.3916
-1.4429
-0.0112039
1.75374
1.09787
-0.254518
2.88241
-1.3136
0.599195
0.498797
0.266148
-1.46093
-1.74269
-0.357159
-0.338487
0.353019
0.194209
-2.11807
1.54612
-1.03056
-0.645071
0.48247
-0.0175542
1.18731
-1.71217
-0.124845
0.247679
-0.343882
0.216719
0.367904
1.88093
-0.135763
-0.935962
-0.222421
-0.963075
0.051122
-2.13012
-0.517251
-1.77027
-0.965924
0.607183
0.345544
-2.7086
-1.62201
-1.50176
0.0348517
0.559237
-1.16143
-0.962541
0.657795
1.2293
1.32941
-2.05918
-2.80866
-0.120105
1.72095
1.89632
0.636585
0.849215
-1.63025
2.44801
1.10709
1.95082
1.64412
0.720679
-0.638296
-1.7046
1.00703
-0.352134
0.00804337
-0.297461
-0.343855
-1.16392
-0.29082
-4.69628
-2.3878
-1.49074
1.00636
-1.09217
1.041
0.354434
0.374756
1.05902
-0.314214
-0.448719
-0.0961576
-2.57519
0.0984551
0.167658
-1.33645
0.71801
-3.98557
-4.74184
-3.46587
-3.30957
-0.309967
-0.920301
-0.433721
-0.981692
0.226206
0.628308
-0.672388
0.622081
0.213132
-0.446416
1.21544
-0.243779
-2.38209
0.311653
-0.761746
0.194781
-2.84506
-0.18581
-4.44172
-4.74668
-1.73823
-2.50707
0.911784
0.4091
0.905707
-0.577527
-0.203282
-0.82189
-2.26384
-0.583968
-0.0492214
-1.13041
-1.0861
-1.02998
0.587084
-1.00291
-2.34256
-1.76762
-6.97124
-0.125625
-0.787795
-3.33112
1.29099
-1.94694
3.07845
-0.504359
-0.0179129
-2.22681
1.20236
0.512687
-0.0640779
-0.550058
-1.22523
-0.406608
-2.67676
-0.755464
-2.35248
-3.1596
-4.38783
-1.68229
-0.467153
-3.12131
0.404493
0.506655
-1.58925
0.637487
2.43472
-0.250366
1.3789
0.778894
0.00939841
0.0297205
-1.60455
0.351152
1.43869
-1.38904
-1.48548
-0.890787
-0.742255
1.28259
-0.162235
-1.10238
0.82495
0.918163
1.91739
-1.45026
0.0278102
0.212129
-0.052816
-0.778799
-2.28615
-4.7159
0.166495
0.742517
-0.958054
-1.98424
-0.752367
-0.282401
-0.728679
-0.69285
-0.720505
-0.620872
0.455397
-1.7293
0.330529
-1.31255
0.424016
-1.43587
1.35511
1.30482
-1.70932
1.03543
-0.130567
0.386552
1.79445
-1.22966
-0.801618
-0.551863
-0.906361
-3.37593
-0.0427916
-1.84287
-0.568944
0.254247
1.46172
-0.53137
2.3954
0.293575
-0.130731
1.2289
-0.287125
-0.233864
-0.306466
-0.344627
-1.2256
-1.15173
-0.558919
-2.78579
-0.481522
-3.97563
-2.4261
-0.757142
-1.06452
2.18369
-0.185235
3.31167
0.225914
-1.86402
-0.178656
-1.70641
-0.732637
-0.794845
-3.76733
-0.659535
-0.713671
-2.03669
-3.03171
-3.29351
-4.85769
-3.05772
-2.75607
-0.864391
-1.7015
0.758273
-2.00023
-0.190601
1.03442
-2.28901
-1.82948
-2.70323
-3.84543
-0.809233
-0.61315
-2.01032
-0.424061
-1.7625
-1.95652
-2.53616
-5.94516
-4.94198
-1.61563
-1.21628
0.580604
3.03921
1.71972
0.609023
1.21261
2.64831
-1.90263
-2.77391
-0.610473
-2.81672
-0.660904
0.562378
2.37724
-0.878051
-3.00297
-2.47647
-3.19672
-2.91002
-3.28086
1.34358
0.0649427
1.21358
0.183866
-0.231385
1.22165
-0.722083
-3.80184
0.107714
-0.43167
-2.82465
1.61624
0.0466345
0.0596876
0.214697
-1.63549
-1.25178
-2.94237
-1.48176
-4.17562
-0.221618
0.432591
-0.906726
-0.237125
-0.462052
1.09772
-1.38141
0.371438
-0.989358
0.279264
-1.09628
-1.02375
-0.56614
-0.981407
-1.80805
1.2463
0.856268
-3.20199
-1.91811
1.01111
-2.62788
-0.772972
0.726944
1.52343
3.00723
-2.2886
0.776658
-0.75044
-0.403358
-1.57757
-1.68165
0.290042
-0.697102
-1.60812
0.71487
-0.826436
0.42279
-2.21561
-3.03308
0.751949
-1.95435
-0.0340875
1.55572
1.18233
-3.47787
-2.81242
1.84634
0.3253
-0.786309
-3.13962
0.241408
1.55129
-0.17421
1.40435
1.55588
-0.999842
-5.32849
-0.656885
1.56765
2.95688
-0.715424
-1.49451
-1.00293
-0.143501
0.442067
3.00935
0.254624
2.55962
-1.14302
1.11861
-2.02782
0.689044
-0.118469
2.00667
1.44868
-0.19089
0.631307
-1.88391
-3.05438
-4.93952
-3.79164
-1.40215
-1.22855
-0.445078
-0.205924
-0.84974
-2.25013
-1.49089
-1.99326
-3.39195
-2.07723
-0.270818
-1.17322
0.75081
-1.23748
-2.57647
-3.30992
-6.5202
-5.03853
-0.634423
1.09994
-0.173763
0.679984
-0.632772
-0.058778
-0.46614
-0.434582
-0.130169
-0.33868
0.0597487
-0.632562
-2.98969
-0.739539
-0.455049
0.0349611
-2.39477
-0.707381
-4.87345
-1.1585
-3.52047
-2.16992
-1.17201
-1.44781
-3.14211
1.49881
2.81298
-0.388827
-2.57775
-3.46954
-0.0569586
-2.32235
0.408913
-0.691982
-1.90483
-2.38085
-3.03362
-4.68295
-5.26137
-3.24191
-2.52826
1.27545
0.0313659
0.364434
-0.215695
-3.39653
2.16292
0.391462
0.145571
0.714982
0.348656
-2.24731
-2.08112
0.372831
-0.293574
-0.527156
-2.41865
-1.48134
-2.44231
-2.30888
-1.20212
-3.85684
1.14465
-0.00783497
-1.36561
1.07787
-0.794196
-2.16621
-0.927751
0.132035
-1.73436
-0.853846
-0.974842
1.16625
-1.26557
0.710355
-1.90866
-4.74035
-2.74732
-2.0048
-0.343166
-1.74877
-2.73926
-0.0449043
-2.41254
-0.0203707
0.310653
1.14637
1.11854
-2.22581
-0.603135
-0.267011
0.648367
1.94925
0.334413
0.0982782
0.114085
-2.89351
-3.73403
-2.49055
-1.32657
0.869838
-0.232991
2.61929
-0.0398527
0.312583
-1.0502
1.3724
-0.0641096
-2.23195
0.686077
0.291668
0.522854
-1.20426
0.12874
-0.524808
-2.78068
-0.348871
-1.50443
-3.62208
0.195933
-1.12448
-0.111558
0.513799
2.45158
-1.7868
-0.419739
0.216456
0.291123
0.175393
-3.36569
-1.16708
-0.256662
-1.10997
0.817038
0.955647
-1.97298
-1.51941
-1.01245
-7.47123
-3.37001
-4.00222
-3.10804
1.4437
-1.18543
-0.981717
0.693594
-2.03764
0.295063
1.00924
-2.43219
-1.4989
-1.80232
0.226233
-2.8232
-0.778766
-0.804748
-4.32964
-5.39531
-4.6644
0.226907
-3.03348
0.0803071
-0.660582
-0.00263026
0.646738
-0.28925
-1.10637
-0.217273
-0.108087
1.6621
-0.284096
0.362956
-0.224016
1.4665
0.440724
0.195701
0.270924
-6.25801
-2.81693
-2.55536
-0.00849
-1.49969
1.19129
-0.955966
0.713413
-0.972148
-0.995587
-3.14062
-2.04254
0.183512
-2.26696
-0.238512
-1.35474
0.00810834
-0.736561
-2.27341
-2.22826
-1.6235
-1.36298
-1.31111
-1.00304
-1.2238
-0.0514146
-1.49236
-0.104452
-1.4934
0.969928
-3.6208
-2.42901
0.565525
-1.71965
0.196658
-2.21722
0.193574
-1.72278
-2.74228
-2.55695
-3.70062
-2.53007
1.13066
-1.54828
-1.81368
-1.72749
-2.32692
0.339375
-0.665748
-3.20065
0.0499691
-0.642131
1.48184
-0.559453
-2.19137
-0.543518
-0.793494
0.687655
-3.19458
-3.61595
-3.45613
-3.76643
-0.176619
2.3464
0.961085
-0.522623
-1.23039
0.681764
0.927193
0.347688
-0.00278102
-0.179426
-0.503885
0.326939
0.272179
0.179448
-2.27756
0.122839
-1.39992
-1.27298
-0.903043
0.81273
0.936686
-2.46772
-0.323863
1.3677
-0.255948
-0.624236
-1.08486
1.50718
-0.395587
0.47398
-0.883029
1.16441
1.2961
-3.6517
-1.24028
2.04407
2.85441
-0.781399
-1.40208
-2.43166
0.396579
0.701283
0.889182
-1.15212
0.594677
2.06074
-1.47445
1.35247
3.49562
-0.836147
1.60426
-1.17598
1.28049
-1.88738
-2.20289
-0.789132
-1.55829
-0.03487
-0.169134
-5.41025
-4.16051
-0.342944
-0.783719
3.51774
-0.0981677
0.180105
-0.0886106
-2.78257
-2.73978
0.320624
-3.0661
-2.29274
0.309986
-0.0280823
-1.34625
0.311982
-2.16085
-1.03612
-4.72335
-2.70536
-5.40095
-2.77138
-2.06217
-0.7736
-0.668076
0.726906
-2.4084
-3.38482
-1.49921
-1.07383
-1.93229
-3.04709
-3.1277
-3.24017
-0.507826
-2.10479
-3.8329
-3.15722
-3.2923
-4.1982
-3.14034
-1.38686
0.211081
0.769266
-3.94583
-0.669154
0.891392
-0.838619
-1.99939
1.40773
-1.6967
-0.132896
-2.8656
-0.432632
-0.629729
-0.104696
0.0230238
-1.4253
-2.20885
-2.41939
-1.75122
-3.5839
-0.840626
0.720898
-1.64987
-0.706487
-1.62612
-0.509657
-1.60963
-1.60099
0.302979
-1.9617
1.20053
-0.49557
-2.24854
-1.75957
-1.98624
-2.2321
-1.87326
-0.967836
-3.19483
0.332614
-2.20496
1.99043
1.0298
2.83862
-1.62462
-0.793979
1.21744
0.161622
-2.48349
-2.47755
-0.727509
-0.186483
-1.04104
1.37812
0.409402
-1.81568
-2.29648
-1.80074
-0.885809
-2.08749
1.84349
0.972469
-0.444998
1.11312
0.539896
0.352455
1.78142
-0.932232
2.66462
0.274673
1.1546
-0.145837
-0.879584
-1.13581
-0.396914
-0.896228
-2.33755
-0.640834
-0.49562
2.39838
2.09096
1.28245
-1.28614
-0.308879
0.419544
2.05738
-2.10291
-3.12149
-0.0471837
-0.822087
-2.16978
0.312792
0.0304361
0.971794
-2.27262
0.0429673
-1.73777
0.99264
-0.581453
-2.24278
3.19457
-0.53018
-1.71651
0.257325
-2.96907
-2.39167
-0.164429
-0.0210478
-0.177171
-0.401577
0.619949
0.464769
0.525601
-0.602019
1.64197
-0.484056
0.00549543
-3.17831
-4.73397
-1.05628
-3.32145
0.998088
0.137183
-1.41384
-1.38404
-0.573609
1.24551
-2.72843
-0.613145
-1.12926
1.46805
-0.623744
-3.2654
-2.51183
-3.25442
-5.66278
-5.31066
-3.67002
-0.286094
-2.06983
-0.279347
0.55286
-0.425263
-0.478438
0.274661
0.479286
-0.188847
-0.152042
-2.33398
-0.597284
-2.56504
-0.409916
-2.46613
-0.000361326
-2.87425
-0.377124
-2.1826
-3.85808
-3.11663
-2.1093
-0.17905
-1.36685
-1.4904
-0.511128
-0.655125
-2.47558
-1.89229
-0.815359
-1.11938
0.245468
-0.466795
-3.3482
-0.74305
0.118378
-3.09587
-1.68159
-0.0493687
-4.8772
-3.89197
-1.15594
-1.53058
-2.20237
-3.1493
-0.23031
0.54731
-2.42276
-0.100988
-1.04565
0.147979
-1.43426
-3.57142
1.12085
-1.69958
0.653384
-2.76837
-3.37122
-0.367529
0.42414
-0.0660718
-2.14071
-0.677643
-1.43795
0.221353
-1.52705
-2.51211
-2.47828
-1.217
0.552788
-2.66692
1.85179
0.416674
-1.83349
-0.861166
-1.97423
0.601664
-2.88547
-0.664816
-2.03353
-3.12234
-0.711554
-0.927156
-1.4512
-0.844409
1.34102
2.216
0.0908714
0.970144
0.31484
0.619645
0.278416
2.40994
-2.45751
-2.54237
0.182025
-2.83402
2.15951
-4.04259
-0.972215
-0.603142
-1.42771
1.5852
1.42294
-1.61852
-2.52496
-0.55858
1.74745
-3.27266
-2.0192
-0.0798319
-2.02105
1.78272
-1.24165
-0.552307
1.64535
-1.10229
0.26568
-1.15938
-0.464922
0.00844146
-1.6014
-1.1602
0.765367
-1.36123
0.642953
-1.3235
0.950529
-0.408523
0.817419
-1.49229
0.56717
1.90696
-0.273141
1.56618
1.61171
2.34434
1.6794
0.370359
-1.90704
-3.62992
-2.68202
-0.05482
0.656889
0.0438453
0.672003
1.74915
-1.31194
-0.985858
2.35932
-1.29678
-1.60742
-2.39463
-2.76005
-1.38947
-0.554882
-3.36157
-3.03713
-2.09455
-4.98291
-3.1576
-0.62843
0.95881
0.158538
1.56346
0.620644
0.655757
-0.780058
-0.393254
0.900846
1.32109
0.0780179
-0.728216
1.4236
1.30879
-2.71846
-0.380975
-2.38897
-3.37178
-4.04192
-2.78997
0.0750458
1.19154
-1.05054
1.52805
1.51027
-0.0261714
0.51872
-0.306693
-0.564217
0.369908
1.48358
-0.283862
0.50859
0.0444329
0.916009
-1.00747
-1.82605
-2.52921
-3.63259
-3.14936
-2.37275
-2.43313
2.38053
2.0903
0.308121
-0.538383
-0.0152995
-0.564894
1.91305
-1.25321
-0.415408
-1.05851
-1.44822
0.237151
-2.97694
-1.80561
-2.99167
-0.979761
-1.55279
-3.11275
-3.98286
-0.357823
0.139681
-2.59616
1.5155
-1.29016
1.00425
-0.266704
-2.47624
0.265453
-0.904331
-0.995879
-1.51385
0.168302
-0.116741
2.37772
-0.961722
-2.07945
-2.68485
0.0774586
-0.495681
-2.32165
-3.98053
0.350191
-0.538491
-0.889064
-0.338631
-0.911171
0.50843
-1.13292
0.340292
-0.40024
-1.5978
-1.85694
-2.43455
0.128496
-1.48596
-1.36178
-2.65174
2.00144
-0.506853
0.598369
0.55958
-1.94918
-2.56054
-0.286944
1.43383
1.17317
0.668962
0.668672
-4.01766
-0.565355
0.633419
1.67016
0.28909
-1.73226
2.38239
-0.612464
0.455194
-0.596204
1.39434
-1.01634
-0.0533102
-0.988154
0.258097
-0.78399
1.23355
1.80914
1.11069
1.2894
-0.307771
1.76283
1.87315
-0.423738
-0.910964
-0.990319
0.624703
-0.675894
-4.26915
-4.81641
-3.8264
0.668532
0.82559
1.07128
1.24901
-1.21569
-0.567952
-0.207251
0.899485
1.79858
-0.864655
0.545353
1.56608
-0.243553
-4.14927
-3.01154
-2.95322
-1.61253
-4.79191
0.0723195
-1.26421
0.400062
-0.345333
0.000435255
-0.756104
-0.300173
-0.179712
-0.0114755
0.23797
1.2726
0.191356
0.730106
-0.126591
0.347303
-0.221457
0.420356
-0.426433
-2.93831
-2.69208
-0.58622
-3.59039
-1.63996
0.812014
1.9874
-0.315119
-0.0831924
-0.604349
1.43804
-0.229656
3.35442
-0.128601
0.509448
0.369491
-1.86247
-0.583937
-0.191028
-1.51483
-3.35098
-0.952589
-2.62162
0.019657
0.584945
0.67775
-0.126896
-0.601998
0.287166
-0.168852
-0.47636
1.38681
1.12942
0.74619
1.21755
-0.511369
0.00556133
0.752584
0.353271
0.282504
-1.61039
-3.99048
-2.59216
-1.33632
0.430794
-0.877263
-0.0743322
1.5976
3.9543
1.71446
1.77032
-0.612691
2.01116
0.877225
0.469422
-0.821446
0.18612
1.1551
-0.363795
0.0981297
-0.687639
-3.50806
-2.01459
-1.26318
-0.424328
-0.300669
2.1616
0.448512
-0.112073
-0.894081
1.18662
2.18446
-0.956627
-1.48865
0.665737
-1.04535
0.34913
0.797809
-0.0273593
1.26848
-2.88862
-0.87538
-0.698667
-0.721569
-0.878652
-0.471985
-2.4766
1.33714
0.705907
-0.501677
0.557305
-0.867431
1.76873
0.99677
-0.975097
1.46844
0.062858
1.38101
0.0280574
1.60404
-0.555274
-0.79963
-0.46886
-0.91622
1.11818
1.41327
0.769522
1.05278
0.358119
1.5293
1.45255
0.168422
-1.40916
0.715913
-0.220945
-0.519483
-1.17378
-0.522465
-0.121323
0.957137
-2.1195
-1.76655
-2.11119
-0.841064
-0.0922573
0.556515
1.9825
1.53757
2.36564
0.342791
0.332779
1.93225
0.409144
1.59569
1.57321
1.9301
1.84242
2.94513
-0.124719
-3.27489
-3.53519
0.530632
-3.81132
0.23879
-1.79366
1.70621
0.987835
0.74552
1.72778
0.350516
1.4327
0.949531
-0.698635
0.265387
0.425649
1.40168
1.46925
0.977322
1.6124
-2.01258
-4.68879
-1.11825
-4.14132
-0.651723
-1.73807
1.11896
1.49873
3.6277
1.37344
1.65405
1.69559
0.0727082
1.77099
1.28701
1.96447
2.663
0.830623
0.748247
-1.27792
-1.78626
-1.90659
-1.41328
1.32906
1.02798
2.10668
2.57944
2.12591
-0.159949
3.15124
-1.13882
1.26295
0.854298
-1.25336
0.814785
2.42113
0.949852
-1.01453
0.491821
-3.61125
0.465093
-2.23394
-0.74882
-2.04937
1.10318
0.740538
1.09419
-0.790028
3.65707
-0.0429544
1.80721
0.274622
2.95858
0.260309
-0.577899
-1.23831
-1.73521
1.18239
-0.212384
0.382685
2.24064
-2.54659
-3.76263
0.300148
2.30627
-0.121549
2.83009
2.05195
-3.30791
2.59634
0.877542
2.18885
-0.051556
-0.266957
-2.14897
2.92303
-0.136433
2.73109
-0.675569
-0.442781
-0.936147
-0.242464
-1.05229
-1.95891
-0.483254
-1.93708
-0.151306
-1.92946
0.817627
-0.102478
-1.50319
-1.41218
0.37543
-1.66958
1.57117
-2.80244
3.90571
2.16402
-2.64207
-1.8198
2.68373
-0.836154
-0.454075
-1.2997
0.37678
-0.169272
0.372763
0.154031
2.76903
2.86409
0.133272
-0.76177
0.867624
-0.0796185
0.543136
0.239297
-0.835357
-1.22872
0.0766144
1.78041
1.37577
1.4365
-1.88145
-1.90548
-1.28961
0.244824
-1.60971
1.81031
3.50398
1.33258
1.08648
1.96007
3.08274
1.04502
1.80606
3.63031
1.37255
2.11127
-1.162
0.765967
-1.299
-4.43168
-4.16209
-0.133434
-0.737576
0.188159
3.48896
-0.199221
4.86449
-0.0156988
2.46937
-0.106891
0.102763
1.9355
0.0632593
-0.545185
0.337707
0.740376
-0.403419
-0.910052
-0.348059
-2.43181
-2.66039
-0.401326
-0.839703
0.45031
4.62893
-1.04592
0.375184
0.542485
0.758287
0.709564
-0.373592
2.20422
1.28974
0.627177
2.34538
1.96367
0.642706
-0.128864
-1.00449
-2.60497
-3.24006
-2.97331
-0.828586
0.665013
1.23658
-0.662327
1.58769
0.410914
2.05344
0.908605
-0.70556
0.840501
1.25254
2.02438
-1.52339
0.209399
0.342633
-0.85975
-2.42251
-0.47206
0.326518
-0.831181
0.3924
-2.15279
-8.55547e-05
0.218954
1.3329
1.31211
0.606692
2.56953
1.25037
2.79575
0.612437
0.633843
1.6544
0.133159
-1.09129
1.25827
0.0786312
0.130726
-1.02733
-1.61874
-1.86169
-2.70999
1.43284
1.64605
-0.269047
1.12074
-0.137754
-0.755677
1.10029
0.708718
1.50817
2.32903
1.04608
-0.00935531
-2.02408
-0.0787745
1.64452
-0.0215794
-0.523214
-0.289592
1.22153
1.18855
0.159479
0.998636
1.60859
0.648269
3.43392
1.66118
0.00531956
0.838793
1.15824
-0.00389998
0.672521
0.475095
-1.75158
0.947052
1.85665
-1.30434
-0.624002
0.0895678
0.794219
2.01424
1.77486
0.717616
-2.23046
0.17061
0.325027
-1.33917
0.0885284
-0.279958
1.19395
1.73659
-0.974085
1.4106
-1.86776
-0.518103
2.66338
-0.845591
-2.73151
-1.94985
3.02548
3.02267
1.92276
4.13478
4.36116
3.4249
4.04588
6.48131
2.90379
3.85499
5.34632
3.74514
-0.917129
0.703117
0.178127
0.795883
-0.0782092
-0.978186
0.914188
-0.383339
-0.979984
2.21904
0.628147
2.68999
2.6649
2.30995
1.54537
4.16269
3.90939
3.44941
2.35025
3.38658
4.5819
3.59722
1.69812
-1.18805
1.70073
-1.73724
-1.97431
0.0658279
-0.803907
5.37895
1.29321
3.06653
0.978514
3.39966
2.8454
4.21044
1.37435
1.41556
2.82489
2.10142
2.74923
2.01356
2.21758
0.329614
-1.17856
-1.30044
-0.925399
-0.998086
-2.86239
1.31329
0.359785
-0.430787
0.93305
0.426152
-0.292513
3.42717
2.31736
1.86749
1.54217
1.84877
2.85127
4.53547
0.378226
-2.48975
-0.853174
0.137303
-2.19147
-1.80939
1.22942
-0.386649
-1.32867
2.06383
1.33052
1.15753
1.25885
2.8447
1.57791
2.89323
3.07068
2.89936
-2.13869
2.3078
0.622624
0.29437
-0.251594
-1.65155
-1.27622
-0.807608
1.41803
-0.451295
0.636006
2.15137
-1.79577
-0.0744225
0.923372
2.04044
1.59924
-0.674763
1.74895
1.0959
1.32425
0.422339
3.24802
0.148443
-1.7737
-1.40086
0.814166
1.13233
0.394726
0.771779
-0.758618
-0.10753
-0.592777
1.06636
-0.0560358
1.61872
1.67272
0.818231
2.04528
3.33722
3.30482
2.80166
-1.09831
-1.15505
-0.21972
-0.532828
-2.4356
1.00429
1.20954
1.01045
0.105759
1.36814
-1.0181
0.306784
0.15022
0.79319
-0.252249
1.759
-2.37618
0.461074
1.03067
1.2847
-1.14445
1.07233
0.141969
0.280307
-1.96217
-1.59762
0.249862
3.51498
2.37825
1.96001
2.09955
5.23994
6.80125
5.26736
6.33425
6.47483
2.6625
5.55937
2.98213
4.57158
4.18864
2.15716
1.83207
-1.80231
0.359558
-0.391823
1.86456
0.579567
2.40756
0.277509
-0.190232
0.073337
2.22229
0.78622
1.06296
5.65618
0.110088
2.32413
0.769449
2.24196
-0.11748
-0.672313
0.35851
0.151036
0.657972
-2.2313
1.32078
0.943836
0.211568
3.07037
4.1397
4.481
4.32903
4.80112
5.98587
1.01899
4.18947
5.55954
0.472858
4.34145
-0.0366322
-0.364285
1.09746
0.776323
0.365233
1.11004
0.182875
2.46755
1.59778
2.1918
4.29999
4.47746
3.32277
2.41545
2.316
4.23836
3.85582
2.99959
2.29771
2.67791
1.37563
0.296635
-2.33978
0.879523
0.134344
-0.46631
-0.668485
-0.841854
1.24119
2.18772
-0.241727
0.828452
1.86224
0.696519
3.9196
0.326873
1.49759
3.84302
-0.462436
0.648184
4.88545
1.70151
4.02138
2.59286
2.28949
0.598281
1.63944
-0.962526
0.520505
1.95265
2.20184
0.0833777
3.70126
1.34507
1.27244
1.25131
2.30657
-0.605598
2.23069
0.535447
1.03644
-0.853385
2.09823
-0.618311
-0.634911
0.20733
-0.953199
0.302702
0.906649
1.92123
2.6097
0.0362388
0.980729
0.635615
-0.592389
1.04699
-2.71377
-0.902922
-0.678279
2.06078
-0.946365
-1.0544
-0.765055
0.914947
-0.302985
-0.264436
1.65553
0.00564992
2.03855
1.04286
1.30415
0.751636
-2.29118
-1.7577
0.419437
-0.0302678
0.253336
-2.25082
0.3662
-0.414928
-0.104932
1.75149
0.313599
-0.0132856
1.14437
-0.801869
2.68805
2.84269
2.72705
4.65387
5.27986
5.74196
6.76652
5.84194
5.76582
5.95485
3.43365
6.07956
3.75573
4.03789
6.19767
5.45874
2.47959
-0.271284
-1.54775
2.36594
4.63431
3.37039
2.36639
3.50293
4.3095
5.83538
3.21725
6.37649
5.9955
6.11825
7.35719
4.4489
3.06204
3.19086
4.8098
3.23296
0.86423
3.17439
1.1163
1.96369
2.75603
1.59203
3.05832
1.58152
1.9114
5.80233
4.17821
2.84766
3.98151
4.25545
2.89999
-1.20737
3.96793
-1.11256
3.4439
2.91363
0.95322
-1.42563
-2.95935
0.988076
1.05771
1.39641
1.42307
2.92458
2.53842
4.70692
4.63892
4.63095
4.23065
1.74772
2.39404
2.62408
4.46973
1.8678
-0.289152
1.92633
2.27952
0.965195
-1.58342
2.53267
-0.345029
1.05205
2.87838
1.41063
2.44688
4.12419
3.76327
2.78651
1.41244
2.05168
2.71901
1.54168
1.52755
0.457952
1.5835
-2.03984
-0.509502
-0.747148
-0.628852
0.670079
0.453264
-0.693755
2.19452
1.07144
0.821615
2.06839
0.461921
0.828173
-0.739975
5.59426
3.51084
1.29812
2.22511
2.65734
2.8622
3.37295
-0.0623124
0.549857
1.77238
0.324037
1.79515
0.982569
0.98899
0.675168
1.21383
1.48095
0.581248
-1.90083
1.20775
3.59241
2.03397
2.73975
2.45741
-1.29992
1.98223
-0.807603
1.51409
0.27874
0.42159
2.36899
0.527337
3.28872
-0.624861
-1.44168
-0.972733
1.95195
-1.67405
-0.388172
0.901992
-0.422652
2.68137
0.0151156
-0.492868
2.18732
1.47645
2.90195
-0.309555
-0.0764643
)
;

boundaryField
{
    hotSide
    {
        type            calculated;
        value           nonuniform List<scalar> 
400
(
1.10051
1.71059
-0.40246
-0.861247
-0.338648
-1.66836
-3.88552
-3.56937
-2.81439
-1.85443
-6.22815
-4.11958
-1.8356
-0.507799
-2.80887
-0.240719
-0.285538
-1.06097
-0.212461
2.9778
3.12535
3.50821
2.91593
0.496246
0.490433
1.32919
0.173743
-1.255
-1.2593
-3.73435
-2.12203
-2.86529
-3.38703
-2.22676
-3.35252
-0.582031
-0.306509
-0.27651
0.154666
1.03392
1.71912
5.79657
5.67619
0.777005
-0.546661
2.44881
4.01023
-0.351708
0.415519
-2.58097
-2.74914
0.957013
0.295028
-1.27485
-2.35883
0.691467
0.312448
4.70163
2.00471
4.52618
5.23962
5.4393
3.30212
4.77862
2.74065
-0.0773647
1.8223
2.15186
0.114188
-0.185865
-1.84976
0.521028
-1.96574
1.35638
2.13978