/*--------------------------------*- C++ -*----------------------------------*\
| =========                 |                                                 |
| \\      /  F ield         | OpenFOAM: The Open Source CFD Toolbox           |
|  \\    /   O peration     | Version:  2212                                  |
|   \\  /    A nd           | Website:  www.openfoam.com                      |
|    \\/     M anipulation  |                                                 |
\*---------------------------------------------------------------------------*/
FoamFile
{
    version     2.0;
    format      ascii;
    arch        "LSB;label=32;scalar=64";
    class       volScalarField;
    location    "0";
    object      relativeErrorField;
}
// * * * * * * * * * * * * * * * * * * * * * * * * * * * * * * * * * * * * * //

dimensions      [0 0 0 1 0 0 0];

internalField   nonuniform List<scalar> 
3200
(
0.000269158
0.00610893
0.00201383
0.0121577
0.0116072
0.0143773
0.0127065
0.0151299
0.00796278
0.0134932
0.0153487
0.00935089
0.0127887
0.00372617
0.0139929
0.000855567
0.0131793
0.00502874
0.00395107
0.00833778
0.00315929
0.0035538
0.011467
0.0107279
0.0102271
0.00647828
0.00294151
0.0140824
0.00912944
0.0018647
0.00833129
0.00721341
0.00625058
0.00622199
0.00829453
0.00257303
0.00313547
0.00822435
0.000898839
0.00728096
0.00479442
0.0061911
0.00975482
0.00992436
0.0053094
0.00117106
0.00524579
0.0102202
0.00295008
0.0032758
0.0139349
0.00341392
0.0106907
0.00531122
0.00852811
0.00572291
0.00376281
0.00153504
0.00111152
0.00635555
0.00359314
0.00675426
0.00536525
0.00485713
0.00144286
0.00313471
0.00894929
0.00685227
0.00760903
0.00943767
0.00888619
0.000466131
0.0115297
0.00801476
0.00597199
0.00642397
0.000921866
0.000508818
0.00319707
0.00487068
0.00529129
0.00210997
0.00633511
0.000473826
0.0116935
0.00159144
0.00936351
0.00442086
0.000253332
0.0118628
0.00336663
0.00292416
0.00260884
0.00172507
0.00202323
0.00654977
0.00880826
0.00402025
0.00158977
0.0163974
0.00390806
0.00165373
0.00703898
0.00172907
0.00776702
0.000819329
0.00679409
0.000976954
0.00841617
0.00116515
0.0017391
0.00195785
0.0031136
0.00372469
0.00559382
0.00242497
0.00880713
0.00723802
0.00105605
0.0052294
0.00106414
0.0059129
0.00478883
0.00246504
0.00216616
0.00133431
0.00891727
0.00426058
0.00270063
0.00654486
0.00637217
0.00117941
0.00556895
0.00388626
0.000983054
0.00221217
0.00213921
0.000859054
0.00422379
0.00411456
0.00402786
0.00685059
0.00310558
0.00284965
0.00673823
0.000251906
0.00522515
0.00132718
0.000948221
0.000192751
0.00360779
0.000125947
0.00810196
0.00047872
0.00896789
0.00670774
0.00201927
0.00253558
0.00124015
0.00128464
0.002023
0.00720111
0.0137857
0.0127162
0.0126371
0.0172648
0.0169029
0.0133959
0.0092124
0.0109162
0.00595707
0.0048607
0.00802473
0.00236463
0.0046369
0.00531844
0.00922471
0.00125829
0.0035661
0.00340183
0.0019343
0.00311343
0.0046117
0.00115266
0.0118313
0.00142936
0.00214544
0.000836078
0.00983463
0.00159372
0.000796955
0.00357987
0.00041934
0.00397086
0.000354357
0.0108218
0.000178127
0.000380571
0.000776534
0.00429966
0.0015113
0.0024574
2.36444e-05
0.00484352
0.013932
0.0104114
0.0101292
0.00139566
0.00506978
0.00377264
0.0127226
0.00803482
0.004332
0.00484093
0.0122392
0.00702385
0.00211392
0.00169781
0.000779403
0.0126773
0.00223919
0.00274023
0.014658
0.00622475
0.0020023
0.00153052
0.0038376
0.00663101
0.0053346
0.0103201
0.00641838
0.000882552
0.00657901
0.006196
0.00224024
0.00418899
0.00327486
0.00306567
0.00149506
0.00723082
0.00173146
0.00648338
0.00444878
0.00181105
0.00558135
0.0072545
0.00127909
0.00197033
0.00864086
0.0093856
0.0119677
0.00778599
0.00349578
0.00113654
0.000682574
0.00589699
0.00261256
0.00364392
0.0101455
0.0039971
1.56817e-05
0.00156216
0.00943404
0.0035459
0.00513246
0.00033777
0.0117228
0.00246807
0.00270598
0.0020013
0.00633226
0.00255783
0.00138722
0.000308777
0.00419346
0.00588879
0.00373499
0.00467128
0.00635509
0.0076265
0.00284703
0.00753792
0.00113676
0.000329257
0.00385637
0.00441801
0.00536826
0.00069182
0.0018302
0.0108722
0.00944439
0.00531491
0.00317946
0.00275707
0.0051447
0.00464349
0.00690318
0.00455038
0.00276505
0.00475451
0.00824953
0.00274137
0.00621192
0.00598171
0.00700288
0.00533001
0.00412192
0.00545464
0.00702372
0.00657731
0.00807713
0.00284237
0.00608062
0.005055
0.00356922
0.00339767
0.0019625
0.00100941
0.00432007
0.00324753
0.00411457
0.00545759
0.0133998
0.00651544
0.00725217
0.0107949
0.0147241
0.00955287
0.00731846
0.0120732
0.0116768
0.00217958
0.00823081
0.00484021
0.0125933
0.00360695
0.0065967
0.0042974
0.00136763
0.0108528
0.00109307
0.0066786
0.00588472
0.0114592
0.00543948
0.0125496
0.00815786
0.00490422
0.0114549
0.0106762
0.00969349
0.00698264
0.00572146
0.00680463
0.0119632
0.00922597
0.00919674
0.00137859
0.00232155
0.00547104
0.00419586
0.00394609
0.0106409
0.00560283
0.00506394
0.00758648
0.0125392
0.00344834
0.00792293
0.00563062
0.00602938
0.00106622
0.0119281
0.00560718
0.00795494
0.000863611
0.00470493
0.0040086
0.000148744
0.00277311
0.00661751
0.00461386
0.003497
0.00242084
0.00664785
0.0106399
0.0138304
0.00413941
0.00321952
0.0044192
0.00203488
0.00316441
0.00417298
0.00804019
0.00267091
0.00171736
0.00463087
0.00345713
0.00530814
0.00302605
0.00255301
0.00363194
0.000716693
0.00921315
0.00304742
0.0108873
0.00360233
0.00916625
0.00174559
0.00165848
0.0027088
0.00512316
0.00067954
0.000391801
0.00256075
0.00161312
0.00647714
0.00506912
0.00293089
0.00260605
0.00279624
0.00387533
0.0014279
0.00299556
0.00318014
0.00412319
0.000160056
0.00876292
0.00747671
0.00270317
0.00264444
0.0056562
0.00421169
0.00264259
0.00354561
0.00558194
0.00289797
0.00549442
0.0111737
0.00408333
0.00789649
0.0038952
0.00302018
0.00129657
0.00320198
0.000104933
0.00306805
0.00502994
0.000199567
0.00606929
0.000504829
0.0112748
2.73518e-05
0.00743086
0.00494719
0.00497195
0.00106086
0.000103881
0.00407354
0.00267977
0.000130212
0.00277319
0.00377211
0.00420324
0.00649096
0.00297285
0.00593822
0.00150301
0.00790952
0.00017137
0.00286145
0.00146026
0.00261596
0.00578213
0.00178965
0.00119435
0.000495547
0.00503148
0.00133142
0.00209058
0.00546923
0.00156874
0.000779558
0.0107222
0.00921648
0.0126312
0.00537749
0.00950143
0.00936934
0.0004202
0.00607167
0.00244073
0.00188002
0.0123377
0.00760181
0.00910467
0.00385092
0.00624128
0.000461109
0.00614903
0.0037214
0.000430128
0.00336386
0.0011904
0.00881632
3.3062e-05
0.0130871
0.00177653
0.00209733
0.000513496
0.00010097
0.00270171
0.000566646
0.00236057
0.000531266
0.00125952
0.00110455
0.000323528
0.000593139
0.00833181
0.00785009
0.000439446
0.00383757
0.00928918
0.00136366
0.00423364
0.00498582
0.00548412
0.00171484
0.00300392
0.00198413
0.00278577
0.00839237
0.00535
0.00466256
0.0034523
0.00287392
0.000393313
0.00264452
0.00961855
0.000710043
0.00143891
0.0101576
0.00276141
0.00733391
0.00498574
0.00325225
0.00705496
0.00707495
0.000584034
0.00312454
0.0067707
0.00254984
0.0054652
0.00805633
0.00188123
0.00472384
0.00522319
0.00431182
0.00470198
0.000420489
0.0103042
0.000504368
0.00244932
0.00612107
0.00880298
0.0105824
0.00618358
0.00152635
0.0042947
0.00274187
0.00662861
0.000644711
0.000369193
0.00740706
0.00563069
0.00239254
0.00340476
0.00442225
0.003413
0.00226632
0.00219967
0.000551682
0.00273935
0.000153518
0.00195588
0.002124
0.0063578
0.00127483
0.000102217
0.00108356
0.00372683
0.00539135
0.00215083
0.00453346
0.00567837
0.00258369
0.00412604
0.0085836
0.0056979
0.00258393
0.00935038
0.00311222
0.00808439
0.000775709
0.00391691
0.00759785
0.000949309
0.0111578
0.00530591
0.00939071
0.00507828
0.00138146
0.00749051
0.0056804
0.00307277
0.0071493
0.00889428
0.00297752
0.00327032
0.00440603
0.00109589
0.00474628
0.00299756
0.000768879
0.00717701
0.00939479
0.00501396
0.00315156
0.00217598
0.000123752
0.00908657
0.00307338
0.00735913
0.00375542
0.0105578
0.00687361
0.00375255
0.000379734
0.00647826
0.00400072
0.00163045
0.00463293
0.00479648
0.0119959
0.0126343
0.0101676
0.00406241
0.00275728
0.00344167
0.00286066
0.00134572
0.0048017
0.0092121
0.00148195
0.0063661
0.0028358
0.00450021
0.000479737
0.0140483
0.0055209
0.00313231
0.00360605
0.00334243
0.0117906
0.00539582
0.00995097
0.00358763
0.00151926
0.00333469
0.00601996
0.00393182
0.00364242
0.000274277
0.00443187
0.00360562
0.00160967
0.000448128
0.00441053
0.00589439
0.0125892
0.00521109
0.00409344
0.000982933
0.000133163
0.00255901
0.00672359
0.00515705
0.00139425
0.00247532
0.00336172
0.000118949
0.000364369
0.001383
0.00128129
0.0012018
0.00427432
0.00331989
0.00563577
0.00845534
0.00473352
0.00174838
0.00554743
0.003234
0.00721925
0.00664707
0.00140149
0.00216924
0.00262781
0.00513023
0.00558737
7.23206e-05
0.00876795
0.0013575
0.00410532
0.0014564
0.000983472
0.000470577
0.0046548
0.0117246
0.00425902
0.00178066
0.00173927
0.00483037
0.00856255
0.00435946
0.00722508
0.000625883
0.000959763
0.0110671
0.00393935
0.00259573
0.00500874
0.000408316
0.00107751
0.00332367
0.00124405
0.00393371
0.000642871
0.00446821
0.000429607
0.00493253
0.00155417
0.00436892
0.00149309
0.00253644
0.00736056
0.00534516
0.00669816
0.0015199
0.00428648
0.0064641
0.00297396
0.002321
0.000473547
0.00187069
0.00523152
0.0030589
0.00117839
0.00813049
0.00178941
0.00103424
0.00161688
0.00184593
0.00199594
0.0131609
0.00461377
0.003144
0.00342497
0.00610478
0.00311793
0.00538152
0.00500052
0.00186663
0.00384012
0.00144295
0.00601138
0.00282121
0.000647672
0.000873756
0.00526219
0.000749454
0.00693659
0.00330558
0.00833955
0.00185187
0.00773406
0.0090512
0.00126926
0.00409981
0.007943
0.00673657
0.00331624
0.00307395
0.00375885
0.00203741
0.00221507
0.00295984
0.000371053
0.000308445
0.00787136
0.000721746
0.00391321
0.00335161
0.0109332
0.00462772
0.00175505
0.00204361
0.000210193
0.00189053
0.003099
0.00295759
0.00296543
0.0029031
0.000117023
0.00314728
0.00404117
0.00240018
0.00225945
0.0153014
0.0025932
0.00185643
0.00348362
0.00194657
0.004174
0.000461713
0.00637368
0.000633789
0.00197106
0.00085999
0.00155129
0.00178522
0.00112952
0.00428486
0.00101893
0.00414148
0.000184093
7.19633e-05
0.00103206
0.00158274
0.000725995
0.00467216
0.00114421
0.0091616
0.00926092
0.00636377
0.00567409
0.00869731
0.00934468
0.00578692
0.00571127
0.00744568
0.00359543
0.00306752
0.00286117
0.00524317
0.0023192
0.00366832
0.00608404
0.00343566
0.00206094
0.00289185
0.00322143
0.00588039
0.00439901
0.00154165
0.00103248
0.00410524
0.00779582
0.00202085
0.00135282
0.00514154
0.00172191
0.0061104
0.00310993
0.00407932
0.00457073
0.00621081
0.00134915
0.00213308
0.0124146
0.00209053
0.00410512
0.00544491
0.00711233
0.00191893
0.00164701
0.000602642
0.000408214
0.000322992
0.0100341
0.00269997
0.00928686
0.00479568
0.00168475
0.00247253
0.00729852
0.000419427
0.00126534
0.00719975
0.004484
0.00666605
0.000397662
0.00305555
0.000750983
0.00128892
0.00704445
0.00144154
0.000814572
0.000946858
0.00251745
0.00320535
0.00517718
0.00275181
0.00785713
0.00094866
0.0057942
0.000873865
0.00185777
0.00905003
0.0075674
0.000960069
0.00102669
2.96764e-06
0.00266089
0.00178669
0.00206365
0.0030221
0.00583582
0.002622
0.00571956
0.00136092
0.00190835
0.000635112
0.00679424
0.000214455
0.00433466
0.0115447
0.00392494
3.39725e-05
0.00650689
0.00371327
0.00178685
0.00562252
0.00243484
0.00446143
0.00344321
0.00161519
0.0105115
0.00809327
0.00558935
0.00210039
0.00487062
0.00379337
0.000971061
0.0028163
0.00480352
0.00938878
0.000433192
0.000757278
0.0142682
0.00265984
0.00829427
0.00201626
0.00535689
0.000201687
0.00056532
0.00148895
0.00270885
0.00790271
0.00462799
0.000987415
0.00109978
0.00153428
0.000577181
0.00401566
0.000961178
0.00291004
0.00698358
0.00980924
0.00455455
0.00186622
0.0013918
0.000362777
0.00647309
0.00408637
0.000717739
0.00261938
8.55409e-05
0.00604592
0.00180808
0.0011011
0.00539879
0.00539563
0.00492198
0.00382583
0.00783426
0.00628045
0.00932404
0.0166086
0.012224
0.00632254
0.00388984
0.000799018
0.0157681
0.00907013
0.000213101
0.00644683
0.000398431
0.0107035
0.0106355
0.00617842
0.00709611
0.00274895
0.00373919
0.00745422
0.00443244
0.00527972
0.00308634
0.0074188
0.00824434
0.00431478
0.0043576
0.00266245
0.00509652
0.00741341
0.00117099
0.00531972
0.00291171
0.00278269
0.00758321
0.00366376
0.000782531
0.00384754
0.00470087
0.00207075
0.00025562
0.00526227
0.00898864
0.00798058
0.00305684
0.00391559
0.00605734
0.00347161
0.00212735
0.00905034
0.00429885
0.00445592
3.45915e-05
0.00541399
0.00338925
0.000785816
0.00890139
0.0040579
0.0018517
0.00154209
0.000823185
0.00452053
0.00539448
0.00110591
0.0010698
0.00111549
0.000613498
0.0066888
0.00488105
0.00325245
0.00203529
0.00152191
5.5364e-05
0.00374433
0.00539954
0.000393748
0.000781283
0.001085
0.00068397
0.00116146
0.00593993
0.000428869
0.00295751
0.000702969
0.00310819
0.000164967
0.00687255
0.00166853
0.00570937
0.00311465
0.00195754
0.00111387
0.00873035
0.00522777
0.00484019
0.000112334
0.00180271
0.00374442
0.00310374
0.00212147
0.00396544
0.00428915
0.00664483
0.00906455
0.000395991
0.0056738
0.00625159
0.00209849
0.00279924
0.00537339
0.0080683
0.00364863
0.00642912
0.00541823
0.00237501
0.00210356
0.00561785
0.00331902
0.00116065
2.6513e-05
0.000980574
0.00113358
0.0038373
0.000958846
0.0133974
0.00680779
0.00424705
0.00286478
0.00310655
0.00295873
0.00100667
0.00106377
0.00300483
0.000891351
0.00127291
0.000272835
0.00730984
0.000279633
0.000476517
0.00380138
0.00204394
0.0113547
0.0135193
0.00988731
0.00962671
0.000901157
0.0026738
0.00125923
0.00284813
0.000655834
0.00182051
0.00194724
0.00180088
0.000616884
0.0012921
0.00351863
0.000705982
0.00690206
0.000903566
0.00221002
0.000565512
0.0082659
0.000540198
0.0129199
0.0140831
0.00515499
0.0074309
0.00270087
0.00121109
0.00267965
0.00170778
0.000600851
0.00242853
0.00668812
0.00172523
0.00014544
0.00334121
0.00321166
0.00304733
0.00173798
0.0029708
0.0069433
0.00524215
0.0206832
0.000380324
0.00238416
0.0100765
0.00390322
0.00588344
0.00929815
0.00152269
5.40601e-05
0.00671862
0.00362721
0.00154664
0.000193332
0.00166005
0.00369905
0.00122812
0.00808888
0.00228409
0.00711615
0.00956214
0.013284
0.00519906
0.00144332
0.00964002
0.00124875
0.00156352
0.00490246
0.0019658
0.00750568
0.000771659
0.00424946
0.00240038
2.8967e-05
9.16213e-05
0.0049479
0.00108322
0.00443976
0.00428827
0.00458782
0.00275218
0.00229391
0.00404799
0.000511929
0.0034776
0.00260164
0.00289475
0.00604336
0.00456983
8.76126e-05
0.000668185
0.000166352
0.00245294
0.00720114
0.0148569
0.000524636
0.00234031
0.00302052
0.0062577
0.00237344
0.000891107
0.00229979
0.00223415
0.00232304
0.00200148
0.00146778
0.00557263
0.00106494
0.00422825
0.00136575
0.00462449
0.00436419
0.00420222
0.00550518
0.00333512
0.00042061
0.00124544
0.00578259
0.0039633
0.00258414
0.00177931
0.00292263
0.0111273
0.000141038
0.00607365
0.00187498
0.000837831
0.00481657
0.00175084
0.00789241
0.000967245
0.000430715
0.00404879
0.000945994
0.000770538
0.00100979
0.0011356
0.00403876
0.00379559
0.00184206
0.00918178
0.00158713
0.0112923
0.00688717
0.00214786
0.0030176
0.00618548
0.00052432
0.00936788
0.000638714
0.00526803
0.000504813
0.00482165
0.00207056
0.00224722
0.0106568
0.00186686
0.00202153
0.00577341
0.00860035
0.00934957
0.0137976
0.00886004
0.00798209
0.00250191
0.00492161
0.00219187
0.00577825
0.000550295
0.00298512
0.0066034
0.00527681
0.00779698
0.0110934
0.00233528
0.00177026
0.00580738
0.00122579
0.00509805
0.00566299
0.00734521
0.0172266
0.014614
0.00477566
0.00359333
0.00171433
0.00896868
0.00507214
0.00179537
0.00357325
0.00780164
0.00560412
0.00817042
0.00179839
0.00830015
0.00194831
0.00165867
0.00701521
0.0025926
0.00887183
0.00732023
0.00945308
0.00878563
0.00990191
0.00405327
0.000195823
0.00365759
0.000553903
0.00069677
0.0036775
0.00217314
0.0114404
0.00032413
0.00129913
0.00850297
0.00486698
0.000140488
0.000179892
0.000647382
0.00493388
0.00377797
0.00888329
0.00456927
0.0128729
0.000682981
0.00133266
0.00279224
0.000729956
0.0014219
0.00337717
0.00424914
0.00114241
0.00304291
0.000859002
0.00337275
0.00315044
0.00174278
0.00302222
0.00556994
0.00384085
0.00263976
0.0098739
0.00604406
0.00318545
0.00827692
0.00243393
0.00228837
0.00479438
0.00946178
0.00719931
0.00244281
0.00236018
0.00126858
0.0049619
0.00529001
0.000912571
0.00219385
0.00506226
0.00225098
0.00260299
0.00133198
0.00698149
0.00977081
0.00242206
0.00629406
0.000109761
0.00500855
0.00380584
0.0111934
0.00905056
0.00594113
0.0010467
0.00253007
0.0101026
0.000776869
0.00499275
0.000560772
0.00452125
0.00500991
0.00322003
0.0171633
0.0021161
0.00516533
0.0097424
0.00235707
0.00492363
0.00330393
0.000472706
0.00145614
0.00991214
0.000838651
0.00843048
0.00376469
0.00368434
0.00667919
0.00226966
0.000390246
0.00661051
0.00477262
0.000628916
0.00208005
0.00620739
0.00863326
0.0139544
0.0107046
0.00395584
0.00346368
0.001254
0.000579847
0.00239157
0.00633076
0.00419386
0.00560704
0.00954327
0.00584631
0.000762577
0.00330553
0.00211678
0.00349127
0.00727391
0.00935066
0.0184295
0.0145367
0.00182955
0.0031702
0.000500507
0.00195744
0.00182047
0.000169016
0.00133981
0.00124872
0.000373966
0.000973005
0.000171681
0.00181815
0.00859683
0.00212764
0.00130993
0.000100702
0.00690209
0.00203994
0.0140604
0.00341308
0.0103677
0.00638725
0.00344804
0.00425722
0.00923459
0.004403
0.00826055
0.00114152
0.00756672
0.0101845
0.000167219
0.00681977
0.00120125
0.00203372
0.00560106
0.00700445
0.00892958
0.0137912
0.0155006
0.0097572
0.00760694
0.00383597
9.42927e-05
0.00109508
0.000647869
0.0101981
0.0064922
0.00117475
0.000436799
0.00214537
0.00104629
0.00674551
0.0062486
0.00111985
0.000882158
0.00158474
0.00727417
0.00445701
0.00735065
0.00710228
0.0036969
0.0118571
0.00351779
2.40703e-05
0.00419398
0.0033093
0.00243777
0.00664798
0.00284695
0.000405171
0.00532266
0.00262086
0.00299299
0.00358174
0.00388804
0.00218309
0.0058678
0.0145781
0.00845094
0.00630585
0.00107919
0.00549824
0.00861024
0.00014111
0.00757947
6.39847e-05
0.000975592
0.00359965
0.00351204
0.00698869
0.00189387
0.000838538
0.00203653
0.00612394
0.00105088
0.000308915
0.000358691
0.00909954
0.0117449
0.00801421
0.00426823
0.00279829
0.00074942
0.00842366
0.000128148
0.00100499
0.00337614
0.00441158
0.000206072
0.0071743
0.0022054
0.000937642
0.00168103
0.00387233
0.00041403
0.00168805
0.00894553
0.00112249
0.00484101
0.0119301
0.000645323
0.00370337
0.000367388
0.00169198
0.0080728
0.00588346
0.00138204
0.000712688
0.000958518
0.000577479
0.0110817
0.00384276
0.000845123
0.00365502
0.00269056
0.00314718
0.00649785
0.00500432
0.00333472
0.0210034
0.0094693
0.011239
0.00872242
0.00404907
0.00332273
0.00275025
0.00194224
0.00570413
0.000825861
0.00282478
0.00680863
0.00419729
0.00504914
0.000634123
0.00791806
0.00218553
0.00225988
0.0121657
0.0151675
0.013393
0.000651247
0.00870179
0.000230239
0.00189282
7.53272e-06
0.0018513
0.000827667
0.00316493
0.000621449
0.000309154
0.00475465
0.000812918
0.00103897
0.000641551
0.00420207
0.00126355
0.000561385
0.000777582
0.0179687
0.00826474
0.00749464
2.4889e-05
0.00439433
0.00348897
0.0027985
0.0020876
0.00284376
0.00291163
0.00918375
0.00597277
0.000536688
0.00663138
0.000697936
0.00396586
2.37472e-05
0.00215824
0.00666465
0.0065353
0.00476327
0.00408802
0.00393129
0.00300643
0.00366661
0.000153981
0.00446774
0.000312597
0.00446808
0.00290134
0.0108297
0.00726514
0.00169165
0.00514499
0.000588543
0.00663779
0.000579732
0.00516161
0.00821945
0.0076669
0.0110994
0.00776134
0.00346766
0.00474701
0.00555896
0.00529308
0.00712759
0.00103926
0.00203825
0.0097975
0.000152948
0.00196547
0.00453606
0.00171281
0.00671055
0.00166485
0.00243129
0.00210767
0.00979457
0.0110899
0.0106021
0.0118231
0.000554328
0.00736268
0.00301504
0.00163914
0.0038581
0.00213737
0.00290633
0.00108972
8.71572e-06
0.000562322
0.00157927
0.00102481
0.000853297
0.000562693
0.00714328
0.000385359
0.00439274
0.0039953
0.00283471
0.00261201
0.00301009
0.00792909
0.00104046
0.00439332
0.000822041
0.00200465
0.00348352
0.00483926
0.00127011
0.0015218
0.00283524
0.00373897
0.00416225
0.0117283
0.00398403
0.00656688
0.00917157
0.00251107
0.0045061
0.00800579
0.00130562
0.00230866
0.00292709
0.00379247
0.00195742
0.0067828
0.00485289
0.00445131
0.0115048
0.00275192
0.00527999
0.00387051
0.00421464
0.00621245
0.00725132
0.00259773
0.00512998
0.000114799
0.000556842
0.0151194
0.0116217
0.000957423
0.0021867
0.0098094
0.000273598
0.000501721
0.000246747
0.00774623
0.00762601
0.000892437
0.00853554
0.0063844
0.000863532
7.82666e-05
0.00375409
0.000870477
0.00603262
0.00289422
0.0131998
0.00772721
0.0154205
0.00790881
0.00588189
0.00220541
0.00190367
0.00207041
0.00685737
0.00963512
0.00426707
0.00305634
0.00550041
0.00867587
0.00890849
0.00923279
0.00144773
0.00600345
0.0109381
0.00901434
0.00940367
0.0122615
0.00916884
0.0040475
0.000615759
0.00224309
0.0115008
0.00194965
0.00259638
0.00244215
0.00582179
0.004099
0.00494097
0.000387088
0.00834922
0.00126098
0.00183622
0.000305417
6.71941e-05
0.00416146
0.00645131
0.00722904
0.00523117
0.0107019
0.00250926
0.00215108
0.00492131
0.0021067
0.00484775
0.00151911
0.00479729
0.00477154
0.000903075
0.00584819
0.00357989
0.00147821
0.00670941
0.00525229
0.00593111
0.00666764
0.00559724
0.00296001
0.00976893
0.00101676
0.00673828
0.00608089
0.00314523
0.00866766
0.00495975
0.00242356
0.00371588
0.000493304
0.00758067
0.00756364
0.00222143
0.000569562
0.00318046
0.0042115
0.00125149
0.00555187
0.0070235
0.00564017
0.00277406
0.00653596
0.00577074
0.0030435
0.00139242
0.00348236
0.0016888
0.00110237
0.00557141
0.00291558
0.00833411
0.000859181
0.00361213
0.00045633
0.0027528
0.00355547
0.00124274
0.00280669
0.00732154
0.00205676
0.00159055
0.00769595
0.0067086
0.00411403
0.00412535
0.000990637
0.00134544
0.00659743
0.00674318
0.0100094
0.000151304
0.00263637
0.00695891
0.0010033
9.76376e-05
0.00311788
0.00729239
0.000137891
0.00557739
0.00326656
0.00191337
0.00737994
0.0105114
0.00174441
0.00564748
0.000846589
0.00976783
0.00786807
0.000540932
6.92423e-05
0.000582854
0.00132113
0.00203961
0.00152913
0.00172935
0.00198087
0.00540297
0.00159287
1.80843e-05
0.00882489
0.0131389
0.00293016
0.00920893
0.00276582
0.000379963
0.00391431
0.00383046
0.00158712
0.00344578
0.00754836
0.00169652
0.00312534
0.00406441
0.00172762
0.0090488
0.0069642
0.00902786
0.0157167
0.0147456
0.0104228
0.00081221
0.00587355
0.000792328
0.00156738
0.00120512
0.00135529
0.000777799
0.00135697
0.000534608
0.000430416
0.00660803
0.00169142
0.00726608
0.00116163
0.0069916
1.02485e-06
0.00815624
0.00107064
0.00619856
0.0112126
0.00905497
0.00612592
0.000519794
0.00396648
0.00432338
0.0014822
0.00189925
0.00717553
0.00548431
0.0023631
0.00324455
0.00071163
0.00135364
0.00971253
0.00215626
0.000343658
0.00899118
0.00488565
0.000143478
0.0145128
0.0115781
0.00343768
0.00455029
0.00654524
0.00935649
0.000684055
0.00162523
0.00719319
0.000299808
0.00310429
0.000439351
0.00425901
0.0106077
0.00333002
0.005051
0.00194245
0.00823292
0.010029
0.00109363
0.00129292
0.000201369
0.00652261
0.00206418
0.00437899
0.000673919
0.00464812
0.00764514
0.00754123
0.003703
0.00168198
0.00811525
0.00563558
0.0012683
0.00558214
0.00262251
0.00601374
0.00183324
0.00879413
0.00202658
0.006354
0.0097547
0.00222259
0.00289546
0.00453113
0.00263605
0.00418567
0.00691579
0.000283569
0.00302724
0.00098243
0.00193364
0.000868892
0.00752206
0.00767178
0.00793815
0.000568454
0.00885226
0.00674664
0.0126315
0.00311571
0.00193276
0.00457455
0.00507852
0.00455816
0.00518405
0.00808653
0.00178879
0.00559569
0.0104794
0.0064657
0.000255638
0.00647219
0.00570942
0.00397695
0.00176922
0.00527123
0.00353186
0.000851366
0.00371554
0.00152918
2.7764e-05
0.00526682
0.00381561
0.00251698
0.00447636
0.00211426
0.00435201
0.00312553
0.00134329
0.00268781
0.00490695
0.001865
0.00627078
0.000898215
0.00515053
0.00530048
0.00771026
0.00552357
0.00121815
0.00525836
0.0100051
0.00738901
0.000150956
0.00180801
0.000120626
0.00184808
0.00480884
0.00360606
0.00270946
0.00648419
0.00356437
0.0044192
0.0065855
0.00759337
0.00382434
0.00152796
0.00926117
0.00837122
0.00577541
0.0140644
0.00890951
0.00177245
0.00270311
0.000446769
0.00440419
0.00174773
0.00184609
0.0021956
0.00110676
0.00253532
0.00371842
0.000219637
0.00205065
0.00401022
0.00368824
0.00766398
0.00107452
0.00674072
0.00951694
0.0116844
0.00806297
0.000216804
0.00344104
0.00303276
0.00440975
0.00435715
7.54867e-05
0.0014959
0.000884371
0.00162696
0.00106675
0.00427911
0.000818944
0.00146772
0.000128271
0.00264534
0.00291055
0.00527727
0.00731143
0.0107611
0.00932742
0.00702525
0.00720179
0.00704396
0.00618343
0.00091124
0.0015919
4.52313e-05
0.00166992
0.0056553
0.00370497
0.00122828
0.00313046
0.00428406
0.000701728
0.0088114
0.00534607
0.0088604
0.00290242
0.0047166
0.00945325
0.0120929
0.00108616
0.000423895
0.0078769
0.00459721
0.003913
0.00304552
0.000808763
0.00750905
0.000805018
0.0027428
0.00302096
0.00459311
0.000510755
0.000354364
0.0072193
0.0029207
0.00631634
0.00836728
0.000241366
0.00154431
0.00723186
0.012397
0.00109045
0.00167655
0.00276771
0.0010541
0.00283618
0.00158258
0.00352655
0.00105935
0.00124612
0.00497535
0.00578327
0.00758353
0.000400333
0.00463033
0.00424396
0.00848457
0.0064033
0.00162143
0.00191398
0.00178971
0.00623343
0.00818783
0.000917491
0.00458438
0.00375088
0.00213881
0.00213794
0.0128463
0.00180783
0.00202566
0.0053417
0.000924701
0.00554153
0.00762211
0.00195965
0.00149636
0.00195984
0.00458329
0.00334064
0.000175221
0.00324777
0.000848263
0.0025766
0.00405402
0.00594561
0.0036502
0.00423756
0.0010115
0.00579373
0.00615648
0.00139275
0.00299429
0.00325525
0.00205352
0.00222186
0.0116843
0.0131775
0.0104644
0.00182749
0.00225587
0.00292603
0.00341031
0.00331842
0.00155001
0.000565556
0.00245455
0.00490853
0.00236021
0.00148904
0.00427751
0.000665492
0.0113424
0.00823594
0.00807986
0.00441333
0.0134364
0.000202722
0.00354243
0.00112057
0.000966913
1.21826e-06
0.00211566
0.000839709
0.000502641
3.20932e-05
0.000665526
0.00355936
0.000535302
0.00204292
0.000354324
0.000972429
0.000620303
0.00117788
0.00119535
0.00823898
0.00773798
0.00168457
0.0103141
0.0047095
0.00233111
0.00570365
0.000904119
0.000238639
0.00173332
0.0041241
0.000658621
0.00962074
0.000368894
0.00146168
0.0010604
0.00534673
0.0016769
0.000548764
0.00435303
0.00963187
0.00280846
0.00772752
5.79256e-05
0.00172324
0.00199609
0.000373634
0.00177214
0.000845196
0.000496906
0.00140177
0.00408093
0.00332373
0.00219621
0.00358418
0.00150568
1.63791e-05
0.0022171
0.00104103
0.000832713
0.00474782
0.0120749
0.00784242
0.00404207
0.00130276
0.00265235
0.000224693
0.00482839
0.0119493
0.00518031
0.00534882
0.00185117
0.0060768
0.00265084
0.00141872
0.00248308
0.000562723
0.00349314
0.0011004
0.000296885
0.00208075
0.0109023
0.00626015
0.00392458
0.00131813
0.000933849
0.00671268
0.00139264
0.000347952
0.00277564
0.00368368
0.00678133
0.00296981
0.00462181
0.00206713
0.00324624
0.00108436
0.00247832
8.50028e-05
0.00394168
0.0089772
0.00279606
0.00223145
0.00230437
0.00280574
0.00150701
0.00790685
0.00426862
0.00225337
0.00160136
0.00177888
0.00276878
0.0056458
0.00318185
0.00311286
0.00468819
0.0002007
0.00440988
8.9603e-05
0.00512308
0.00177361
0.00262705
0.00154032
0.00300991
0.00367325
0.00464247
0.00252773
0.00345809
0.00117629
0.00502312
0.00477098
0.000553192
0.00462851
0.00235152
0.000725744
0.0017064
0.00385576
0.00171631
0.000398563
0.00314443
0.00696326
0.00479695
0.00573098
0.00228224
0.000250244
0.00150894
0.00537347
0.00416624
0.00640843
0.000928444
0.000901248
0.00523301
0.00110816
0.00432265
0.00426281
0.00523146
0.00499556
0.00798853
0.000338428
0.00888993
0.00959958
0.00147754
0.0106096
0.000664497
0.00498957
0.00474471
0.00274615
0.00207196
0.00480081
0.000973794
0.00397998
0.00263775
0.00194093
0.000737403
0.00118297
0.00389664
0.00408577
0.0027187
0.00448695
0.00560245
0.0130559
0.00319486
0.0118291
0.001861
0.00496156
0.0031933
0.00427591
0.0103474
0.00391677
0.00471639
0.00483451
0.000207307
0.00504983
0.00367028
0.00560335
0.00759759
0.00237043
0.00213598
0.0036491
0.00510219
0.00544718
0.00414563
0.00389781
0.0030141
0.0061753
0.00755923
0.00622868
0.000468539
0.00922948
0.00333506
0.00369835
0.00250167
0.00367046
0.00238638
0.00709224
0.00278297
0.00297314
0.00144167
0.0105883
0.00136401
0.00655292
0.00225675
0.00617532
0.00332352
0.00223055
0.00329512
0.00237871
0.0110094
0.000129295
0.00543928
0.000826512
0.00890424
0.000783472
0.0017395
0.00372785
0.00522458
0.00356074
0.000639714
0.00115291
0.00675166
0.00767475
0.0116588
0.00092993
0.00714432
0.000376477
0.00876442
0.00635377
0.0102416
0.00803773
0.00271651
0.00677555
0.000159591
0.00082639
0.00665277
0.00904998
0.000422457
0.00845781
0.00209245
0.00137164
0.00290041
0.000751295
0.00335497
0.00624512
0.0015405
0.00617441
0.00048224
0.00614903
0.00260552
0.000326545
0.00478971
0.00449965
0.00119623
0.00531989
0.00500655
0.0089305
0.0124472
0.00689712
0.00842152
0.00580111
0.00855589
0.00266588
0.00149085
0.00426717
0.001237
0.000555716
0.00122373
0.000505649
0.00908992
0.00940176
0.000437478
0.00250056
0.00284803
0.000261354
0.00178292
0.000785541
0.00274229
0.00403372
0.000251524
0.00584524
0.00451693
0.0047164
0.00506715
0.00513037
0.00347096
0.000658705
0.00432948
0.00486748
0.00941874
0.00358121
0.00291938
0.0052663
0.00828269
0.00280797
0.00485366
0.00975833
0.00369046
0.00567848
0.00312638
0.00206159
0.00349746
0.0119354
0.0115053
0.000368758
0.00203773
0.000519669
0.00963308
0.000549897
0.0134239
4.33135e-05
0.00681214
0.000294856
0.000283467
0.00533938
0.000174534
0.00150447
0.000932154
0.00204419
0.00111419
0.00251424
0.000961896
0.00672222
0.00755309
0.00113916
0.00238284
0.0012775
0.0131285
0.00296571
0.0010636
0.00153762
0.00214904
0.00201083
0.00105872
0.0062469
0.00365564
0.00177797
0.0066503
0.00556933
0.00182332
0.000365679
0.00285124
0.00739575
0.00945419
0.00867429
0.00241676
0.00193921
0.00360511
0.00193055
0.00462696
0.00119734
0.00598285
0.00264714
0.00205559
0.00244885
0.00364972
0.00589959
0.00444038
0.000610479
0.000999135
0.00250766
0.0070674
0.00137742
0.000979909
0.00249409
0.00117725
0.00645743
2.5658e-07
0.000656541
0.00399616
0.00393339
0.00181857
0.0077019