/*--------------------------------*- C++ -*----------------------------------*\
| =========                 |                                                 |
| \\      /  F ield         | OpenFOAM: The Open Source CFD Toolbox           |
|  \\    /   O peration     | Version:  2212                                  |
|   \\  /    A nd           | Website:  www.openfoam.com                      |
|    \\/     M anipulation  |                                                 |
\*---------------------------------------------------------------------------*/
FoamFile
{
    version     2.0;
    format      ascii;
    arch        "LSB;label=32;scalar=64";
    class       volScalarField;
    location    "./ITHACAoutput/true/15.8";
    object      trueState;
}
// * * * * * * * * * * * * * * * * * * * * * * * * * * * * * * * * * * * * * //

dimensions      [0 0 0 1 0 0 0];

internalField   nonuniform List<scalar> 
3200
(
345.22
345.478
345.807
346.165
346.535
346.897
347.232
347.514
347.72
347.829
347.829
347.72
347.514
347.232
346.897
346.535
346.165
345.807
345.478
345.22
339.188
339.406
339.69
340
340.319
340.633
340.922
341.166
341.344
341.438
341.438
341.344
341.166
340.922
340.633
340.319
340
339.69
339.406
339.188
333.157
333.338
333.577
333.839
334.11
334.374
334.619
334.825
334.975
335.054
335.054
334.975
334.825
334.619
334.374
334.11
333.839
333.577
333.338
333.157
327.129
327.275
327.47
327.684
327.905
328.121
328.321
328.489
328.611
328.676
328.676
328.611
328.489
328.321
328.121
327.905
327.684
327.47
327.275
327.129
321.103
321.215
321.366
321.533
321.704
321.873
322.028
322.158
322.253
322.303
322.303
322.253
322.158
322.028
321.873
321.704
321.533
321.366
321.215
321.103
315.08
315.159
315.267
315.385
315.508
315.628
315.739
315.832
315.9
315.935
315.935
315.9
315.832
315.739
315.628
315.508
315.385
315.267
315.159
315.08
309.057
309.105
309.169
309.241
309.314
309.386
309.453
309.509
309.549
309.571
309.571
309.549
309.509
309.453
309.386
309.314
309.241
309.169
309.105
309.057
303.036
303.052
303.073
303.097
303.122
303.146
303.168
303.187
303.201
303.208
303.208
303.201
303.187
303.168
303.146
303.122
303.097
303.073
303.052
303.036
345.409
345.665
345.991
346.346
346.712
347.07
347.401
347.68
347.883
347.99
347.99
347.883
347.68
347.401
347.07
346.712
346.346
345.991
345.665
345.409
339.351
339.567
339.849
340.156
340.472
340.783
341.069
341.31
341.485
341.578
341.578
341.485
341.31
341.069
340.783
340.472
340.156
339.849
339.567
339.351
333.295
333.475
333.712
333.972
334.239
334.501
334.742
334.946
335.094
335.172
335.172
335.094
334.946
334.742
334.501
334.239
333.972
333.712
333.475
333.295
327.242
327.387
327.58
327.792
328.011
328.225
328.422
328.588
328.709
328.773
328.773
328.709
328.588
328.422
328.225
328.011
327.792
327.58
327.387
327.242
321.191
321.302
321.452
321.617
321.787
321.953
322.106
322.235
322.329
322.379
322.379
322.329
322.235
322.106
321.953
321.787
321.617
321.452
321.302
321.191
315.142
315.221
315.328
315.445
315.567
315.686
315.795
315.887
315.954
315.989
315.989
315.954
315.887
315.795
315.686
315.567
315.445
315.328
315.221
315.142
309.095
309.142
309.206
309.277
309.349
309.421
309.486
309.542
309.582
309.603
309.603
309.582
309.542
309.486
309.421
309.349
309.277
309.206
309.142
309.095
303.049
303.064
303.086
303.109
303.134
303.158
303.18
303.198
303.212
303.219
303.219
303.212
303.198
303.18
303.158
303.134
303.109
303.086
303.064
303.049
345.787
346.038
346.359
346.708
347.066
347.417
347.74
348.012
348.21
348.314
348.314
348.21
348.012
347.74
347.417
347.066
346.708
346.359
346.038
345.787
339.678
339.891
340.168
340.469
340.779
341.083
341.362
341.597
341.768
341.858
341.858
341.768
341.597
341.362
341.083
340.779
340.469
340.168
339.891
339.678
333.572
333.749
333.982
334.236
334.498
334.755
334.991
335.189
335.333
335.41
335.41
335.333
335.189
334.991
334.755
334.498
334.236
333.982
333.749
333.572
327.468
327.61
327.8
328.009
328.223
328.432
328.625
328.787
328.905
328.967
328.967
328.905
328.787
328.625
328.432
328.223
328.009
327.8
327.61
327.468
321.367
321.476
321.623
321.785
321.952
322.115
322.264
322.39
322.482
322.53
322.53
322.482
322.39
322.264
322.115
321.952
321.785
321.623
321.476
321.367
315.268
315.345
315.45
315.566
315.685
315.801
315.908
315.998
316.063
316.097
316.097
316.063
315.998
315.908
315.801
315.685
315.566
315.45
315.345
315.268
309.17
309.216
309.279
309.349
309.42
309.49
309.554
309.608
309.647
309.668
309.668
309.647
309.608
309.554
309.49
309.42
309.349
309.279
309.216
309.17
303.074
303.089
303.11
303.134
303.158
303.181
303.202
303.221
303.234
303.241
303.241
303.234
303.221
303.202
303.181
303.158
303.134
303.11
303.089
303.074
346.354
346.6
346.912
347.252
347.599
347.939
348.251
348.513
348.704
348.804
348.804
348.704
348.513
348.251
347.939
347.599
347.252
346.912
346.6
346.354
340.169
340.377
340.647
340.94
341.241
341.535
341.805
342.032
342.196
342.283
342.283
342.196
342.032
341.805
341.535
341.241
340.94
340.647
340.377
340.169
333.987
334.16
334.387
334.635
334.889
335.137
335.365
335.557
335.695
335.769
335.769
335.695
335.557
335.365
335.137
334.889
334.635
334.387
334.16
333.987
327.808
327.946
328.132
328.334
328.542
328.745
328.931
329.088
329.201
329.261
329.261
329.201
329.088
328.931
328.745
328.542
328.334
328.132
327.946
327.808
321.631
321.737
321.881
322.039
322.2
322.358
322.502
322.624
322.712
322.758
322.758
322.712
322.624
322.502
322.358
322.2
322.039
321.881
321.737
321.631
315.456
315.532
315.634
315.747
315.862
315.975
316.078
316.165
316.227
316.26
316.26
316.227
316.165
316.078
315.975
315.862
315.747
315.634
315.532
315.456
309.283
309.328
309.39
309.457
309.527
309.594
309.656
309.708
309.746
309.766
309.766
309.746
309.708
309.656
309.594
309.527
309.457
309.39
309.328
309.283
303.112
303.127
303.147
303.17
303.193
303.216
303.237
303.254
303.267
303.273
303.273
303.267
303.254
303.237
303.216
303.193
303.17
303.147
303.127
303.112
347.112
347.35
347.652
347.979
348.314
348.639
348.937
349.187
349.368
349.464
349.464
349.368
349.187
348.937
348.639
348.314
347.979
347.652
347.35
347.112
340.825
341.027
341.288
341.571
341.86
342.141
342.399
342.616
342.772
342.855
342.855
342.772
342.616
342.399
342.141
341.86
341.571
341.288
341.027
340.825
334.541
334.709
334.928
335.168
335.412
335.65
335.868
336.05
336.183
336.252
336.252
336.183
336.05
335.868
335.65
335.412
335.168
334.928
334.709
334.541
328.261
328.395
328.575
328.77
328.97
329.164
329.343
329.492
329.6
329.656
329.656
329.6
329.492
329.343
329.164
328.97
328.77
328.575
328.395
328.261
321.983
322.086
322.225
322.377
322.533
322.684
322.822
322.938
323.022
323.066
323.066
323.022
322.938
322.822
322.684
322.533
322.377
322.225
322.086
321.983
315.708
315.781
315.88
315.989
316.1
316.208
316.306
316.389
316.449
316.48
316.48
316.449
316.389
316.306
316.208
316.1
315.989
315.88
315.781
315.708
309.435
309.478
309.538
309.603
309.669
309.734
309.794
309.843
309.879
309.898
309.898
309.879
309.843
309.794
309.734
309.669
309.603
309.538
309.478
309.435
303.162
303.177
303.197
303.219
303.241
303.263
303.283
303.299
303.311
303.318
303.318
303.311
303.299
303.283
303.263
303.241
303.219
303.197
303.177
303.162
348.061
348.29
348.58
348.893
349.211
349.52
349.803
350.038
350.209
350.299
350.299
350.209
350.038
349.803
349.52
349.211
348.893
348.58
348.29
348.061
341.647
341.841
342.091
342.362
342.637
342.905
343.149
343.353
343.5
343.578
343.578
343.5
343.353
343.149
342.905
342.637
342.362
342.091
341.841
341.647
335.236
335.397
335.608
335.836
336.07
336.296
336.502
336.674
336.799
336.864
336.864
336.799
336.674
336.502
336.296
336.07
335.836
335.608
335.397
335.236
328.829
328.958
329.13
329.317
329.508
329.692
329.861
330.002
330.103
330.157
330.157
330.103
330.002
329.861
329.692
329.508
329.317
329.13
328.958
328.829
322.424
322.524
322.657
322.803
322.951
323.094
323.225
323.335
323.414
323.455
323.455
323.414
323.335
323.225
323.094
322.951
322.803
322.657
322.524
322.424
316.023
316.094
316.189
316.292
316.398
316.501
316.594
316.672
316.729
316.758
316.758
316.729
316.672
316.594
316.501
316.398
316.292
316.189
316.094
316.023
309.624
309.666
309.723
309.785
309.849
309.91
309.966
310.013
310.047
310.065
310.065
310.047
310.013
309.966
309.91
309.849
309.785
309.723
309.666
309.624
303.226
303.24
303.259
303.28
303.301
303.322
303.341
303.356
303.368
303.374
303.374
303.368
303.356
303.341
303.322
303.301
303.28
303.259
303.24
303.226
349.202
349.421
349.698
349.995
350.296
350.586
350.851
351.071
351.23
351.314
351.314
351.23
351.071
350.851
350.586
350.296
349.995
349.698
349.421
349.202
342.635
342.82
343.059
343.316
343.576
343.828
344.057
344.247
344.385
344.457
344.457
344.385
344.247
344.057
343.828
343.576
343.316
343.059
342.82
342.635
336.071
336.225
336.426
336.643
336.863
337.076
337.27
337.431
337.547
337.608
337.608
337.547
337.431
337.27
337.076
336.863
336.643
336.426
336.225
336.071
329.511
329.635
329.799
329.977
330.157
330.331
330.489
330.621
330.715
330.765
330.765
330.715
330.621
330.489
330.331
330.157
329.977
329.799
329.635
329.511
322.955
323.05
323.177
323.315
323.456
323.591
323.714
323.816
323.89
323.928
323.928
323.89
323.816
323.714
323.591
323.456
323.315
323.177
323.05
322.955
316.402
316.47
316.56
316.659
316.759
316.855
316.943
317.016
317.069
317.096
317.096
317.069
317.016
316.943
316.855
316.759
316.659
316.56
316.47
316.402
309.851
309.892
309.946
310.005
310.065
310.123
310.176
310.22
310.251
310.268
310.268
310.251
310.22
310.176
310.123
310.065
310.005
309.946
309.892
309.851
303.302
303.316
303.334
303.354
303.374
303.393
303.411
303.426
303.436
303.442
303.442
303.436
303.426
303.411
303.393
303.374
303.354
303.334
303.316
303.302
350.537
350.745
351.007
351.287
351.569
351.841
352.087
352.291
352.438
352.514
352.514
352.438
352.291
352.087
351.841
351.569
351.287
351.007
350.745
350.537
343.79
343.966
344.192
344.434
344.679
344.914
345.127
345.304
345.431
345.497
345.497
345.431
345.304
345.127
344.914
344.679
344.434
344.192
343.966
343.79
337.048
337.194
337.384
337.589
337.796
337.995
338.175
338.324
338.431
338.487
338.487
338.431
338.324
338.175
337.995
337.796
337.589
337.384
337.194
337.048
330.31
330.428
330.583
330.75
330.919
331.082
331.229
331.351
331.439
331.485
331.485
331.439
331.351
331.229
331.082
330.919
330.75
330.583
330.428
330.31
323.576
323.666
323.787
323.917
324.048
324.175
324.289
324.384
324.452
324.488
324.488
324.452
324.384
324.289
324.175
324.048
323.917
323.787
323.666
323.576
316.846
316.91
316.995
317.088
317.182
317.273
317.354
317.422
317.471
317.496
317.496
317.471
317.422
317.354
317.273
317.182
317.088
316.995
316.91
316.846
310.118
310.156
310.207
310.263
310.32
310.374
310.423
310.463
310.493
310.508
310.508
310.493
310.463
310.423
310.374
310.32
310.263
310.207
310.156
310.118
303.391
303.404
303.421
303.44
303.459
303.477
303.494
303.507
303.517
303.522
303.522
303.517
303.507
303.494
303.477
303.459
303.44
303.421
303.404
303.391
352.067
352.263
352.51
352.771
353.035
353.286
353.513
353.701
353.836
353.906
353.906
353.836
353.701
353.513
353.286
353.035
352.771
352.51
352.263
352.067
345.114
345.281
345.493
345.72
345.948
346.166
346.362
346.525
346.641
346.702
346.702
346.641
346.525
346.362
346.166
345.948
345.72
345.493
345.281
345.114
338.167
338.305
338.484
338.676
338.869
339.053
339.219
339.357
339.455
339.506
339.506
339.455
339.357
339.219
339.053
338.869
338.676
338.484
338.305
338.167
331.225
331.336
331.482
331.639
331.797
331.947
332.083
332.196
332.276
332.318
332.318
332.276
332.196
332.083
331.947
331.797
331.639
331.482
331.336
331.225
324.288
324.373
324.486
324.608
324.731
324.848
324.953
325.041
325.103
325.136
325.136
325.103
325.041
324.953
324.848
324.731
324.608
324.486
324.373
324.288
317.354
317.414
317.495
317.582
317.669
317.753
317.829
317.891
317.936
317.959
317.959
317.936
317.891
317.829
317.753
317.669
317.582
317.495
317.414
317.354
310.423
310.459
310.507
310.56
310.612
310.662
310.708
310.745
310.772
310.786
310.786
310.772
310.745
310.708
310.662
310.612
310.56
310.507
310.459
310.423
303.494
303.506
303.522
303.539
303.557
303.574
303.589
303.602
303.611
303.615
303.615
303.611
303.602
303.589
303.574
303.557
303.539
303.522
303.506
303.494
353.792
353.977
354.207
354.451
354.695
354.927
355.135
355.306
355.429
355.493
355.493
355.429
355.306
355.135
354.927
354.695
354.451
354.207
353.977
353.792
346.608
346.765
346.963
347.174
347.385
347.586
347.767
347.915
348.021
348.076
348.076
348.021
347.915
347.767
347.586
347.385
347.174
346.963
346.765
346.608
339.43
339.56
339.727
339.906
340.084
340.254
340.407
340.532
340.622
340.669
340.669
340.622
340.532
340.407
340.254
340.084
339.906
339.727
339.56
339.43
332.258
332.362
332.498
332.644
332.791
332.93
333.054
333.157
333.23
333.268
333.268
333.23
333.157
333.054
332.93
332.791
332.644
332.498
332.362
332.258
325.09
325.17
325.276
325.39
325.503
325.611
325.708
325.788
325.845
325.875
325.875
325.845
325.788
325.708
325.611
325.503
325.39
325.276
325.17
325.09
317.927
317.984
318.059
318.14
318.222
318.299
318.368
318.425
318.466
318.487
318.487
318.466
318.425
318.368
318.299
318.222
318.14
318.059
317.984
317.927
310.767
310.801
310.846
310.895
310.944
310.99
311.032
311.066
311.09
311.103
311.103
311.09
311.066
311.032
310.99
310.944
310.895
310.846
310.801
310.767
303.609
303.62
303.636
303.652
303.668
303.684
303.698
303.709
303.717
303.722
303.722
303.717
303.709
303.698
303.684
303.668
303.652
303.636
303.62
303.609
355.715
355.888
356.102
356.328
356.552
356.765
356.955
357.11
357.221
357.279
357.279
357.221
357.11
356.955
356.765
356.552
356.328
356.102
355.888
355.715
348.272
348.419
348.604
348.799
348.994
349.178
349.342
349.477
349.573
349.623
349.623
349.573
349.477
349.342
349.178
348.994
348.799
348.604
348.419
348.272
340.837
340.958
341.114
341.279
341.444
341.6
341.739
341.853
341.934
341.976
341.976
341.934
341.853
341.739
341.6
341.444
341.279
341.114
340.958
340.837
333.408
333.505
333.633
333.768
333.902
334.03
334.144
334.237
334.303
334.338
334.338
334.303
334.237
334.144
334.03
333.902
333.768
333.633
333.505
333.408
325.984
326.059
326.158
326.263
326.368
326.467
326.556
326.628
326.68
326.707
326.707
326.68
326.628
326.556
326.467
326.368
326.263
326.158
326.059
325.984
318.566
318.619
318.689
318.764
318.839
318.91
318.973
319.025
319.062
319.081
319.081
319.062
319.025
318.973
318.91
318.839
318.764
318.689
318.619
318.566
311.151
311.182
311.224
311.269
311.314
311.357
311.395
311.426
311.448
311.46
311.46
311.448
311.426
311.395
311.357
311.314
311.269
311.224
311.182
311.151
303.738
303.748
303.762
303.777
303.792
303.807
303.819
303.83
303.837
303.841
303.841
303.837
303.83
303.819
303.807
303.792
303.777
303.762
303.748
303.738
357.835
357.996
358.195
358.403
358.609
358.803
358.975
359.116
359.216
359.268
359.268
359.216
359.116
358.975
358.803
358.609
358.403
358.195
357.996
357.835
350.108
350.244
350.416
350.596
350.774
350.942
351.092
351.214
351.3
351.345
351.345
351.3
351.214
351.092
350.942
350.774
350.596
350.416
350.244
350.108
342.388
342.501
342.646
342.798
342.949
343.092
343.218
343.321
343.394
343.432
343.432
343.394
343.321
343.218
343.092
342.949
342.798
342.646
342.501
342.388
334.676
334.767
334.885
335.01
335.133
335.25
335.353
335.437
335.497
335.528
335.528
335.497
335.437
335.353
335.25
335.133
335.01
334.885
334.767
334.676
326.971
327.04
327.132
327.229
327.325
327.415
327.496
327.561
327.608
327.632
327.632
327.608
327.561
327.496
327.415
327.325
327.229
327.132
327.04
326.971
319.27
319.319
319.385
319.454
319.523
319.587
319.645
319.692
319.725
319.742
319.742
319.725
319.692
319.645
319.587
319.523
319.454
319.385
319.319
319.27
311.574
311.603
311.642
311.684
311.725
311.764
311.798
311.826
311.846
311.857
311.857
311.846
311.826
311.798
311.764
311.725
311.684
311.642
311.603
311.574
303.879
303.889
303.902
303.916
303.93
303.943
303.955
303.964
303.971
303.974
303.974
303.971
303.964
303.955
303.943
303.93
303.916
303.902
303.889
303.879
360.153
360.303
360.486
360.677
360.865
361.042
361.197
361.324
361.414
361.46
361.46
361.414
361.324
361.197
361.042
360.865
360.677
360.486
360.303
360.153
352.115
352.241
352.399
352.565
352.728
352.881
353.016
353.126
353.203
353.244
353.244
353.203
353.126
353.016
352.881
352.728
352.565
352.399
352.241
352.115
344.085
344.19
344.323
344.463
344.601
344.73
344.845
344.938
345.003
345.038
345.038
345.003
344.938
344.845
344.73
344.601
344.463
344.323
344.19
344.085
336.063
336.148
336.256
336.371
336.484
336.59
336.683
336.759
336.813
336.841
336.841
336.813
336.759
336.683
336.59
336.484
336.371
336.256
336.148
336.063
328.049
328.113
328.198
328.287
328.375
328.457
328.53
328.589
328.631
328.653
328.653
328.631
328.589
328.53
328.457
328.375
328.287
328.198
328.113
328.049
320.04
320.086
320.146
320.21
320.273
320.331
320.383
320.426
320.456
320.471
320.471
320.456
320.426
320.383
320.331
320.273
320.21
320.146
320.086
320.04
312.036
312.063
312.099
312.138
312.175
312.211
312.242
312.267
312.285
312.294
312.294
312.285
312.267
312.242
312.211
312.175
312.138
312.099
312.063
312.036
304.034
304.043
304.055
304.068
304.081
304.093
304.103
304.112
304.118
304.121
304.121
304.118
304.112
304.103
304.093
304.081
304.068
304.055
304.043
304.034
362.668
362.806
362.975
363.151
363.322
363.481
363.622
363.736
363.816
363.858
363.858
363.816
363.736
363.622
363.481
363.322
363.151
362.975
362.806
362.668
354.292
354.408
354.554
354.706
354.854
354.993
355.115
355.213
355.283
355.319
355.319
355.283
355.213
355.115
354.993
354.854
354.706
354.554
354.408
354.292
345.925
346.022
346.145
346.273
346.399
346.516
346.619
346.702
346.761
346.792
346.792
346.761
346.702
346.619
346.516
346.399
346.273
346.145
346.022
345.925
337.567
337.645
337.746
337.851
337.953
338.049
338.134
338.202
338.25
338.275
338.275
338.25
338.202
338.134
338.049
337.953
337.851
337.746
337.645
337.567
329.218
329.278
329.356
329.437
329.517
329.592
329.657
329.711
329.748
329.768
329.768
329.748
329.711
329.657
329.592
329.517
329.437
329.356
329.278
329.218
320.875
320.918
320.973
321.031
321.088
321.142
321.189
321.227
321.253
321.267
321.267
321.253
321.227
321.189
321.142
321.088
321.031
320.973
320.918
320.875
312.537
312.563
312.596
312.631
312.665
312.697
312.725
312.748
312.764
312.773
312.773
312.764
312.748
312.725
312.697
312.665
312.631
312.596
312.563
312.537
304.202
304.211
304.222
304.234
304.245
304.256
304.265
304.273
304.278
304.281
304.281
304.278
304.273
304.265
304.256
304.245
304.234
304.222
304.211
304.202
365.376
365.504
365.659
365.819
365.974
366.119
366.245
366.347
366.419
366.456
366.456
366.419
366.347
366.245
366.119
365.974
365.819
365.659
365.504
365.376
356.635
356.743
356.876
357.015
357.15
357.275
357.384
357.473
357.535
357.567
357.567
357.535
357.473
357.384
357.275
357.15
357.015
356.876
356.743
356.635
347.905
347.994
348.107
348.224
348.338
348.444
348.537
348.612
348.665
348.692
348.692
348.665
348.612
348.537
348.444
348.338
348.224
348.107
347.994
347.905
339.186
339.257
339.349
339.445
339.539
339.626
339.701
339.763
339.806
339.828
339.828
339.806
339.763
339.701
339.626
339.539
339.445
339.349
339.257
339.186
330.476
330.531
330.602
330.677
330.749
330.817
330.876
330.924
330.957
330.974
330.974
330.957
330.924
330.876
330.817
330.749
330.677
330.602
330.531
330.476
321.773
321.812
321.863
321.916
321.968
322.017
322.059
322.093
322.117
322.129
322.129
322.117
322.093
322.059
322.017
321.968
321.916
321.863
321.812
321.773
313.076
313.1
313.13
313.162
313.193
313.222
313.248
313.268
313.283
313.29
313.29
313.283
313.268
313.248
313.222
313.193
313.162
313.13
313.1
313.076
304.383
304.391
304.401
304.412
304.422
304.432
304.44
304.447
304.452
304.455
304.455
304.452
304.447
304.44
304.432
304.422
304.412
304.401
304.391
304.383
368.265
368.382
368.525
368.67
368.811
368.942
369.055
369.146
369.21
369.243
369.243
369.21
369.146
369.055
368.942
368.811
368.67
368.525
368.382
368.265
359.133
359.232
359.354
359.481
359.603
359.716
359.814
359.894
359.949
359.978
359.978
359.949
359.894
359.814
359.716
359.603
359.481
359.354
359.232
359.133
350.014
350.096
350.2
350.307
350.41
350.506
350.589
350.656
350.703
350.727
350.727
350.703
350.656
350.589
350.506
350.41
350.307
350.2
350.096
350.014
340.908
340.975
341.059
341.146
341.231
341.309
341.378
341.432
341.471
341.491
341.491
341.471
341.432
341.378
341.309
341.231
341.146
341.059
340.975
340.908
331.814
331.865
331.93
331.998
332.064
332.125
332.178
332.221
332.251
332.266
332.266
332.251
332.221
332.178
332.125
332.064
331.998
331.93
331.865
331.814
322.728
322.764
322.811
322.86
322.907
322.95
322.988
323.019
323.04
323.051
323.051
323.04
323.019
322.988
322.95
322.907
322.86
322.811
322.764
322.728
313.65
313.671
313.699
313.728
313.757
313.783
313.806
313.824
313.837
313.843
313.843
313.837
313.824
313.806
313.783
313.757
313.728
313.699
313.671
313.65
304.575
304.582
304.592
304.601
304.611
304.62
304.627
304.633
304.638
304.64
304.64
304.638
304.633
304.627
304.62
304.611
304.601
304.592
304.582
304.575
371.304
371.412
371.542
371.675
371.803
371.92
372.022
372.104
372.161
372.191
372.191
372.161
372.104
372.022
371.92
371.803
371.675
371.542
371.412
371.304
361.756
361.847
361.959
362.074
362.185
362.287
362.376
362.446
362.496
362.521
362.521
362.496
362.446
362.376
362.287
362.185
362.074
361.959
361.847
361.756
352.225
352.301
352.396
352.493
352.587
352.673
352.748
352.808
352.85
352.872
352.872
352.85
352.808
352.748
352.673
352.587
352.493
352.396
352.301
352.225
342.712
342.773
342.85
342.93
343.007
343.077
343.139
343.188
343.222
343.24
343.24
343.222
343.188
343.139
343.077
343.007
342.93
342.85
342.773
342.712
333.213
333.26
333.32
333.382
333.442
333.497
333.544
333.583
333.609
333.623
333.623
333.609
333.583
333.544
333.497
333.442
333.382
333.32
333.26
333.213
323.726
323.759
323.802
323.846
323.889
323.929
323.963
323.99
324.009
324.019
324.019
324.009
323.99
323.963
323.929
323.889
323.846
323.802
323.759
323.726
314.248
314.268
314.294
314.32
314.346
314.37
314.39
314.407
314.418
314.424
314.424
314.418
314.407
314.39
314.37
314.346
314.32
314.294
314.268
314.248
304.776
304.782
304.791
304.8
304.808
304.816
304.823
304.829
304.832
304.834
304.834
304.832
304.829
304.823
304.816
304.808
304.8
304.791
304.782
304.776
374.416
374.515
374.634
374.756
374.872
374.978
375.07
375.143
375.194
375.22
375.22
375.194
375.143
375.07
374.978
374.872
374.756
374.634
374.515
374.416
364.429
364.513
364.616
364.721
364.822
364.914
364.994
365.057
365.102
365.124
365.124
365.102
365.057
364.994
364.914
364.822
364.721
364.616
364.513
364.429
354.47
354.54
354.626
354.715
354.801
354.879
354.946
355
355.038
355.057
355.057
355.038
355
354.946
354.879
354.801
354.715
354.626
354.54
354.47
344.536
344.592
344.663
344.736
344.806
344.87
344.925
344.969
345
345.016
345.016
345
344.969
344.925
344.87
344.806
344.736
344.663
344.592
344.536
334.624
334.667
334.722
334.779
334.834
334.883
334.926
334.961
334.985
334.997
334.997
334.985
334.961
334.926
334.883
334.834
334.779
334.722
334.667
334.624
324.73
324.761
324.8
324.841
324.88
324.915
324.946
324.971
324.988
324.997
324.997
324.988
324.971
324.946
324.915
324.88
324.841
324.8
324.761
324.73
314.85
314.868
314.891
314.916
314.939
314.96
314.979
314.994
315.004
315.009
315.009
315.004
314.994
314.979
314.96
314.939
314.916
314.891
314.868
314.85
304.977
304.983
304.991
304.999
305.007
305.014
305.02
305.025
305.029
305.03
305.03
305.029
305.025
305.02
305.014
305.007
304.999
304.991
304.983
304.977
377.402
377.494
377.603
377.715
377.821
377.918
378.001
378.067
378.114
378.137
378.137
378.114
378.067
378.001
377.918
377.821
377.715
377.603
377.494
377.402
366.963
367.041
367.136
367.233
367.325
367.409
367.482
367.539
367.58
367.6
367.6
367.58
367.539
367.482
367.409
367.325
367.233
367.136
367.041
366.963
356.575
356.639
356.72
356.802
356.88
356.951
357.013
357.062
357.096
357.113
357.113
357.096
357.062
357.013
356.951
356.88
356.802
356.72
356.639
356.575
346.231
346.283
346.349
346.416
346.48
346.539
346.589
346.629
346.657
346.672
346.672
346.657
346.629
346.589
346.539
346.48
346.416
346.349
346.283
346.231
335.926
335.966
336.017
336.069
336.119
336.165
336.204
336.235
336.257
336.268
336.268
336.257
336.235
336.204
336.165
336.119
336.069
336.017
335.966
335.926
325.651
325.68
325.716
325.753
325.789
325.822
325.85
325.872
325.888
325.896
325.896
325.888
325.872
325.85
325.822
325.789
325.753
325.716
325.68
325.651
315.399
315.416
315.438
315.46
315.482
315.501
315.518
315.532
315.541
315.546
315.546
315.541
315.532
315.518
315.501
315.482
315.46
315.438
315.416
315.399
305.16
305.166
305.173
305.181
305.188
305.195
305.2
305.205
305.208
305.21
305.21
305.208
305.205
305.2
305.195
305.188
305.181
305.173
305.166
305.16
379.739
379.826
379.929
380.033
380.133
380.223
380.301
380.362
380.405
380.427
380.427
380.405
380.362
380.301
380.223
380.133
380.033
379.929
379.826
379.739
368.872
368.946
369.035
369.126
369.213
369.292
369.359
369.413
369.45
369.47
369.47
369.45
369.413
369.359
369.292
369.213
369.126
369.035
368.946
368.872
358.112
358.173
358.249
358.326
358.4
358.467
358.524
358.57
358.602
358.618
358.618
358.602
358.57
358.524
358.467
358.4
358.326
358.249
358.173
358.112
347.439
347.488
347.55
347.614
347.674
347.729
347.777
347.814
347.84
347.854
347.854
347.84
347.814
347.777
347.729
347.674
347.614
347.55
347.488
347.439
336.836
336.874
336.922
336.971
337.019
337.062
337.099
337.128
337.148
337.159
337.159
337.148
337.128
337.099
337.062
337.019
336.971
336.922
336.874
336.836
326.286
326.313
326.348
326.383
326.417
326.448
326.474
326.495
326.51
326.517
326.517
326.51
326.495
326.474
326.448
326.417
326.383
326.348
326.313
326.286
315.775
315.791
315.811
315.833
315.853
315.871
315.887
315.9
315.909
315.913
315.913
315.909
315.9
315.887
315.871
315.853
315.833
315.811
315.791
315.775
305.285
305.291
305.298
305.305
305.312
305.318
305.323
305.327
305.33
305.332
305.332
305.33
305.327
305.323
305.318
305.312
305.305
305.298
305.291
305.285
)
;

boundaryField
{
    hotSide
    {
        type            fixedGradient;
        gradient        nonuniform List<scalar> 
400
(
482.725
484.762
488.84
494.964
503.141
513.381
525.695
540.094
556.592
575.2
595.931
618.796
643.805
670.967
700.291
731.784
765.451
801.297
839.326
879.54
486.115
488.126
492.151
498.198
506.277
516.4
528.582
542.839
559.186
577.639
598.214
620.923
645.779
672.795
701.978
733.337
766.878
802.607
840.527
880.64
489.785
491.764
495.726
501.682
509.644
519.63
531.658
545.749
561.922
580.198
600.594
623.129
647.816
674.668
703.697
734.911
768.317
803.92
841.724
881.731
493.672
495.614
499.503
505.353
513.182
523.01
534.863
548.765
564.743
582.821
603.021
625.364
649.867
676.544
705.409
736.469
769.733
805.206
842.89
882.788
497.669
499.569
503.376
509.108
516.787
526.441
538.1
551.797
567.563
585.428
605.419
627.56
651.87
678.366
707.061
737.965
771.085
806.427
843.992
883.783
501.609
503.463
507.183
512.789
520.309
529.779
541.236
554.72
570.267
587.914
607.693
629.629
653.747
680.063
708.592
739.344
772.326
807.541
844.994
884.682
505.265
507.075
510.708
516.188
523.552
532.84
544.099
557.375
572.712
590.15
609.727
631.472
655.409
681.558
709.934
740.547
773.403
808.505
845.856
885.454
508.369
510.138
513.692
519.06
526.284
535.411
546.494
559.587
574.739
591.997
611.399
632.979
656.763
682.771
711.019
741.515
774.266
809.275
846.542
886.066
510.64
512.378
515.872
521.154
528.271
537.276
548.227
561.182
576.196
593.319
612.592
634.051
657.723
683.628
711.782
742.194
774.87
809.812
847.02
886.491
511.844
513.565
517.026
522.261
529.32
538.259
549.138
562.019
576.959
594.01
613.214
634.609
658.221
684.072
712.177
742.545
775.182
810.088
847.265
886.709
511.844
513.565
517.026
522.261
529.32
538.259
549.138
562.019
576.959
594.01
613.214
634.609
658.221
684.072
712.177
742.545
775.182
810.088
847.265
886.709
510.64
512.378
515.872
521.154
528.271
537.276
548.227
561.182
576.196
593.319
612.592
634.051
657.723
683.628
711.782
742.194
774.87
809.812
847.02
886.491
508.369
510.138
513.692
519.06
526.284
535.411
546.494
559.587
574.739
591.997
611.399
632.979
656.763
682.771
711.019
741.515
774.266
809.275
846.542
886.066
505.265
507.075
510.708
516.188
523.552
532.84
544.099
557.375
572.712
590.15
609.727
631.472
655.409
681.558
709.934
740.547
773.403
808.505
845.856
885.454
501.609
503.463
507.183
512.789
520.309
529.779
541.236
554.72
570.267
587.914
607.693
629.629
653.747
680.063
708.592
739.344
772.326
807.541
844.994
884.682
497.669
499.569
503.376
509.108
516.787
526.441
538.1
551.797
567.563
585.428
605.419
627.56
651.87
678.366
707.061
737.965
771.085
806.427
843.992
883.783
493.672
495.614
499.503
505.353
513.182
523.01
534.863
548.765
564.743
582.821
603.021
625.364
649.867
676.544
705.409
736.469
769.733
805.206
842.89
882.788
489.785
491.764
495.726
501.682
509.644
519.63
531.658
545.749
561.922
580.198
600.594
623.129
647.816
674.668
703.697
734.911
768.317
803.92
841.724
881.731
486.115
488.126
492.151
498.198
506.277
516.4
528.582
542.839
559.186
577.639
598.214
620.923
645.779
672.795
701.978
733.337
766.878
802.607
840.527
880.64
482.725
484.762
488.84
494.964
503.141
513.381
525.695
540.094
556.592
575.2
595.931
618.796
643.805
670.967
700.291
731.784
765.451
801.297
839.326
879.54
)
;
    }
    coldSide
    {
        type            mixed;
        refValue        uniform 300;
        refGradient     uniform 0;
        valueFraction   uniform 0.991591;
        source          uniform 0;
        value           nonuniform List<scalar> 
400
(
300.026
300.026
300.026
300.026
300.027
300.027
300.028
300.029
300.029
300.03
300.031
300.033
300.034
300.035
300.037
300.038
300.04
300.042
300.043
300.044
300.026
300.026
300.026
300.026
300.027
300.027
300.028
300.029
300.029
300.03
300.032
300.033
300.034
300.035
300.037
300.039
300.04
300.042