/*--------------------------------*- C++ -*----------------------------------*\
| =========                 |                                                 |
| \\      /  F ield         | OpenFOAM: The Open Source CFD Toolbox           |
|  \\    /   O peration     | Version:  2212                                  |
|   \\  /    A nd           | Website:  www.openfoam.com                      |
|    \\/     M anipulation  |                                                 |
\*---------------------------------------------------------------------------*/
FoamFile
{
    version     2.0;
    format      ascii;
    arch        "LSB;label=32;scalar=64";
    class       volScalarField;
    location    "0";
    object      stateMean;
}
// * * * * * * * * * * * * * * * * * * * * * * * * * * * * * * * * * * * * * //

dimensions      [0 0 0 1 0 0 0];

internalField   nonuniform List<scalar> 
3200
(
318.247
317.699
316.993
317.614
317.256
315.627
318.313
315.961
318.214
317.052
317.376
316.898
317.433
316.551
314.372
315.459
316.142
316.681
315.263
316.648
314.709
313.747
314.853
318.498
316.506
313.771
314.45
316.258
315.92
313.036
316.405
315.257
316.7
313.191
314.525
314.341
313.066
314.471
312.77
314.517
313.72
315.347
313.621
313.32
313.299
313.467
313.327
312.927
315.155
313.492
312.154
312.258
313.563
313.455
314.078
311.914
314.558
313.066
314.349
309.978
311.602
312.267
311.423
311.772
309.145
311.032
309.329
312.258
310.911
312.599
308.994
309.512
311.312
312.023
311.111
311.665
309.902
309.643
310.5
311.065
308.848
307.636
309.194
308.749
307.109
306.21
309.28
308.292
307.931
308.542
312.209
307.635
309.359
308.648
307.743
307.497
307.214
307.033
307.241
307.5
306.656
305.699
305.789
306.263
308.04
304.996
305.512
308.436
303.604
308.148
303.257
304.879
304.959
307.941
307.756
305.942
305.225
304.383
306.106
305.765
304.732
302.279
303.542
303.245
302.701
301.977
302.43
306.114
302.85
304.301
302.488
306.073
304.274
302.411
305.133
304.017
304.84
304.722
304.086
302.314
299.801
299.886
300.46
300.863
300.591
302.745
303.613
299.563
301.419
300.305
298.862
300.672
300.593
303.401
300.538
299.475
302.774
301.328
302.642
299.999
318.149
316.211
317.847
317.772
317.521
318.063
319.364
319.742
317.846
316.783
317.304
317.44
318.457
318.336
318.061
319.055
315.525
318.414
316.718
316.348
316.474
317.265
315.646
317.515
315.328
319.112
316.002
319.919
315.682
320.408
320.498
317.897
319.673
313.281
320.586
315.379
319.214
315.06
318.945
315.481
311.511
311.586
312.074
313.664
314.959
312.405
312.944
313.984
311.873
313.41
314.187
313.63
315.5
314.287
313.431
312.037
311.29
312.288
313.083
311.236
309.851
310.929
310.846
311.482
311.132
310.243
312.346
313.482
312.357
312.098
311.987
309.194
310.664
312.339
311.35
310.99
311.292
312.47
312.769
311.167
308.544
310.008
311.536
309.969
307.899
308.484
308.293
309.776
311.004
308.78
309.444
306.496
307.748
306.223
309.054
308.055
307.907
310.257
307.955
306.887
305.844
305.259
306.269
306.85
306.764
305.033
307.647
305.876
306.756
304.753
304.747
306.61
304.191
305.091
306.26
305.383
306.127
306.03
308.012
306.371
304.568
301.729
302.825
303.021
304.461
303.429
305.982
304.658
305.393
305.021
302.93
303.739
304.745
304.315
304.09
303.165
305.425
301.745
304.065
303.835
301.187
300.464
301.912
301.665
301.448
300.221
301.763
302.315
303.847
303.373
301.13
301.96
302.586
301.783
303.036
301.707
302.913
304.498
300.518
300.131
320.053
318.006
317.866
320.125
319.961
319.745
320.784
320.44
319.377
319.52
318.662
319.357
319.035
316.899
319.159
316.859
319.335
317.496
319.511
318.312
317.034
317.147
316.76
315.974
317.034
317.95
318.231
316.949
316.402
317.905
315.104
315.463
316.737
315.975
317.917
317.293
315.633
315.531
316.915
316.257
313.482
316.855
313.535
315.709
315.526
315.713
314.744
315.822
315.68
313.215
314.019
315.085
313.345
313.223
314.265
315.745
315.634
314.42
314.008
309.164
309.777
312.033
311.93
311.004
310.848
311.526
312.088
313.353
312.471
313.067
312.372
311.599
308.902
312.57
312.07
310.336
311.13
312.804
313.975
310.3
310.393
310.4
308.893
307.7
309.355
308.303
310.123
307.654
307.734
310.385
309.725
311.061
309.241
309.397
308.666
310.067
309.893
307.168
309.017
308.596
304.601
306.043
305.908
306.099
306.718
305.965
307.463
307.509
307.136
310.082
308.783
304.242
307.421
305.314
306.411
305.88
305.74
306.463
310.02
305.408
304.073
303.728
304.486
303.835
304.805
303.256
301.807
303.517
303.477
304.767
303.785
304.893
302.887
306.144
303.699
304.981
304.528
304.037
304.725
303.525
300.315
302.486
302.288
302.891
303.748
299.457
300.817
302.404
301.504
302.878
301.965
300.915
300.933
301.627
301.137
300.852
301.24
301.537
301.91
300.344
319.038
319.358
319.945
319.452
320.597
318.615
322.063
322.601
321.982
321.374
321.523
320.251
320.157
321.923
320.052
321.162
320.512
317.783
322.546
320.051
315.458
317.347
318.652
316.937
317.109
319.835
316.679
320.179
318.049
320.682
320.326
316.041
320.039
317.906
320.177
316.799
320.015
315.355
319.137
316.8
314.075
313.682
316.027
313.103
315.122
314.474
315.675
315.149
315.173
315.33
315.517
316.179
316.128
314.912
315.898
313.996
315.217
315.976
314.39
313.398
313.415
312.742
312.047
311.304
312.724
313.323
311.58
313.229
312.836
314.437
311.273
310.311
311.998
312.961
311.917
312.431
311.134
310.788
313.967
311.215
311.063
308.343
311.443
311.125
308.353
311.119
310.494
310.313
309.086
310.183
309.872
307.919
306.569
309.778
310.561
310.259
309.345
310.725
309.003
308.419
306.134
306.352
305.597
308.499
306.028
308.855
306.93
308.658
307.793
306.503
306.98
306.837
307.344
308.968
306.402
307.119
307.015
306.588
306.071
304.285
304.124
303.2
303.533
303.429
303.967
305.405
304.542
304.304
305.803
306.077
304.728
304.616
303.95
304.159
303.351
304.459
304.442
304.246
304.441
304.676
301.162
304.402
300.4
302.654
299.497
301.198
303.616
301.707
299.598
302.34
300.105
299.159
302.429
299.789
303.094
299.371
301.176
301.631
302.107
302.461
322.09
322.395
323.358
321.278
321.941
321.457
320.876
321.103
321.082
323.795
321.157
319.9
321.708
322.789
320.986
319.867
319.617
319.849
321.754
319.986
316.436
316.767
319.57
317.787
317.084
318.067
317.942
319.942
318.659
321.455
320.144
321.44
317.187
320.011
318.513
316.968
316.367
318.649
317.21
319.052
313.551
314.749
314.713
315.938
314.963
317.616
317.569
317.006
316.302
315.187
316.612
315.371
316.691
313.975
314.422
314.653
316.522
315.928
318.386
315.146
313.422
313.827
312.83
311.889
313.343
314.643
313.805
315.234
313.868
311.992
313.209
312.749
312.574
312.869
312.598
311.766
311.107
314.433
312.115
313.558
311.079
311.144
308.817
310.473
311.484
310.765
309.602
309.286
310.205
307.063
311.687
309.734
309.174
311.3
310.613
311.469
309.044
309.853
308.579
309.672
308.236
308.308
308.287
309.613
307.778
305.148
306.339
307.31
307.009
308.974
308.286
307.153
306.182
307.665
307.033
305.621
307.545
306.271
306.982
305.983
303.449
304.176
305.877
305.522
301.996
303.894
304.106
303.573
305.685
303.029
304.925
305.208
303.923
304.973
306.16
305.785
304.553
303.543
303.738
305.996
299.912
299.157
300.661
303.408
301.373
300.566
300.142
300.436
301.67
302.268
302.93
299.065
300.59
301.548
301.885
299.925
303.431
300.442
301.763
301.282
322.891
323.259
324.018
322.541
324.457
324.503
324.41
322.72
322.525
322.533
320.714
321.355
321.71
321.912
324.041
322.564
322.861
320.734
321.147
320.66
318.867
318.416
317.524
320.632
318.426
320.44
319.615
321.283
319.242
320.701
321.003
320.403
321.436
318.85
320.023
321.043
320.041
322.164
319.852
318.369
316.956
317.403
315.485
316.405
316.26
318.391
318.781
316.98
318.556
316.454
316.238
315.79
318.243
317.879
320.029
316.076
315.242
317.406
315.843
317.35
312.414
313.475
314.776
312.162
313.934
314.319
314.624
311.22
313.187
311.729
315.814
313.021
312.871
314.22
313.789
316.803
313.751
313.852
313.731
312.218
309.639
311.824
312.779
310.29
311.159
312.343
313.656
309.374
309.21
311.507
310.915
310.721
313.382
311.772
309.552
310.038
311.37
307.564
309.537
311.211
306.497
307.504
308.694
308.587
306.401
307.704
308.221
307.888
309.766
306.253
306.339
309.221
305.958
307.681
307.152
308.165
306.45
308.433
306.768
308.189
305.481
307.107
304.791
304.024
305.18
307.439
303.069
305.58
304.923
304.623
305.87
303.453
305.711
304.616
305.299
304.258
304.668
304.441
304.761
305.019
302.557
300.527
304.331
298.009
301.179
301.142
302.584
301.552
302.134
301.149
301.814
301.535
302.167
299.903
301.806
302.076
300.757
300.698
302.118
301.288
323.244
323.077
324.983
324.874
321.102
325.196
323.86
324.293
323.936
323.599
323.19
324.97
325.162
322.43
323.336
322.552
322.338
322.001
323.459
325.24
319.917
320.876
322.092
321.786
322.38
322.732
320.91
320.729
320.714
321.665
320.336
321.454
320.6
320.935
319.981
319.383
320.689
318.023
319.1
320.944
317.123
318.973
316.925
318.053
318.16
317.789
318.716
319.738
317.598
318.704
317.441
318.516
316.842
319.326
317.836
316.848
316.691
318.679
316.376
317.452
315.243
314.459
311.62
314.276
315.016
316.12
315.853
313.682
316.255
316.914
313.165
313.79
313.409
317.794
316.323
313.86
315.218
313.511
313.876
315.042
312.924
310.849
310.439
312.547
314.137
310.079
312.849
311.31
312.203
311.203
312.335
310.923
312.241
313.103
311.467
312.663
313.102
309.838
311.363
309.709
306.024
307.398
307.094
305.211
307.185
307.595
309.387
307.349
308.747
310.081
307.179
308.42
310.284
306.313
305.61
309.694
307.447
306.874
308.661
308.329
307.319
304.954
306.247
306.162
304.407
303.823
304.515
303.707
306.822
303.235
304.529
305.372
303.302
305.378
304.737
304.206
304.146
305.244
303.422
303.111
300.595
303.632
301.538
301.35
301.605
300.953
301.972
300.403
299.863
303.48
303.191
302.425
303.518
303.247
302.327
301.419
304.013
299.861
301.522
301.113
325.054
325.361
324.95
325.711
326.52
324.964
324.363
327.174
326.232
324.391
326.777
324.916
326.073
324.277
326.375
326.007
323.137
325.548
325.381
321.158
320.469
320.301
319.931
319.977
321.458
321.635
322.206
321.947
322.337
322.171
321.951
321.303
321.804
320.741
320.994
322.118
322.031
319.46
321.383
320.389
317.644
316.189
315.945
317.465
318.788
318.15
319.752
318.715
318.846
320.375
318.836
320.291
316.106
320.044
317.644
321.35
318.729
319.488
317.969
317.104
315.279
313.932
314.85
314.692
315.179
313.168
316.357
314.048
314.974
314.02
315.194
313.565
316.906
315.588
314.292
313.63
314.386
313.389
314.389
315.78
311.766
310.852
311.354
310.739
312.962
311.377
314.541
311.141
314.256
312.235
309.065
310.944
311.338
312.52
312.601
313.856
311.176
311.358
310.81
311.913
308.874
307.833
307.514
306.911
310.47
308.463
308.49
307.259
309.874
310.831
308.479
308.945
309.24
306.834
305.886
310.331
310.458
309.434
309.812
308.901
303.319
306.401
304.957
307.283
305.298
304.074
305.853
304.324
306.525
303.466
306.192
305.715
304.366
305.163
305.867
306.905
305.086
305.479
305.962
305.538
301.497
302.036
301.305
301.979
300.758
300.978
302.578
302.115
300.874
304.613
301.334
302.604
300.41
301.703
301.136
300.256
301.823
299.201
302.214
302.004
325.795
325.165
325.443
326.44
326.46
327.023
326.402
325.952
327.414
327.679
325.497
326.313
326.673
325.619
328.035
327.779
324.352
326.95
327.047
326.844
322.204
322.668
321.905
321.26
322.81
322.41
321.116
323.864
321.395
324.837
322.311
323.441
323.076
322.658
324.309
324.836
322.082
322.258
319.978
322.469
317.234
320.055
317.236
317.927
320.366
320.51
320.762
318.008
321.349
319.293
320.831
319.183
317.694
319.382
321.455
318.016
317.408
319.522
318.245
316.656
313.132
317.897
315.613
313.116
314.598
316.993
318.224
316.942
316.141
318.183
317.205
317.775
315.254
316.394
317.661
317.986
314.428
317.618
313.744
315.469
311.962
313.233
311.272
313.449
313.977
310.293
313.82
313.745
312.71
312.222
314.019
314.403
313.133
313.572
312.381
313.975
310.499
312.96
311.987
309.156
308.797
310.241
310.322
309.439
310.914
309.831
307.972
309.444
308.813
309.639
309.622
307.972
308.699
309.06
310.528
308.649
307.251
308.183
307.815
309.721
304.544
305.267
307.322
306.319
306.01
304.577
305.055
305.268
305.965
305.08
304.596
304.324
304.995
304.667
306.497
305.936
307.736
304.892
305.304
304.725
302.987
302.098
302.315
302.327
300.825
302.365
300.627
301.899
301.442
302.679
303.617
301.032
299.376
302.852
301.673
303.722
303.047
299.882
302.433
303.241
326.383
326.741
325.23
327.252
326.868
326.864
330.55
328.407
328.594
327.913
328.217
327.198
326.917
329.493
327.061
328.611
325.409
327.393
327.585
322.108
321.021
321.22
325.017
322.62
323.788
323.084
324.333
323.621
325.385
323.877
323.017
324.89
323.272
325.675
322.941
322.863
322.372
322.536
322.231
323.459
319.096
320.008
321.773
320.941
319.267
321.393
321.932
320.715
320.119
320.086
320.425
320.851
322.561
321.67
320.906
323.272
319.272
319.329
319.563
319.542
317.285
314.742
314.903
317.555
318.343
317.862
318.69
315.24
318.914
316.768
318.331
315.964
315.959
318.361
316.758
314.762
316.82
316.634
317.653
315.597
310.666
312.65
312.178
310.513
316.118
313.617
312.841
315.101
314.724
312.907
314.711
313.291
313.532
313.296
312.788
312.583
310.78
315.051
311.61
312.254
311.12
306.827
306.428
312.026
308.226
308.967
309.17
308.312
307.22
307.001
307.233
309.096
310.016
309.411
308.563
307.954
310.73
309.704
308.988
308.371
307.169
305.562
304.309
304.864
306.797
304.246
305.496
305.58
305.186
305.314
305.511
307.045
306.805
303.267
307.61
306.3
306.306
306.523
304.949
304.179
301.391
301.657
302.833
301.352
301.632
301.889
302.91
301.026
301.626
301.828
301.947
302.27
302.793
303.844
300.774
304.164
301.848
301.548
300.551
301.097
326.17
328.494
328.35
328.087
330.145
327.576
329.696
327.739
329.216
327.903
328.221
326.963
328.327
330.993
327.926
328.039
329.068
329.863
327.299
325.604
324.383
322.329
324.264
322.168
325.246
322.937
325.447
323.883
322.874
324.148
323.339
326.596
323.874
324.29
323.886
325.368
323.027
325.022
322.607
323.305
319.044
319.879
319.302
322.394
319.684
322.317
321.314
322.851
324.851
320.68
321.56
321.881
322.293
321.667
319.79
321.881
321.522
321.031
320.43
321.569
313.383
316.186
317.071
316.401
316.53
316.654
316.064
316.644
317.647
319.511
318.42
316.01
317.925
317.674
317.914
320.247
316.98
316.044
317.209
317.962
312.709
312.556
313.693
313.266
314.368
313.256
314.561
314.809
313.229
313.258
314.212
312.504
312.853
314.916
314.238
312.85
314.147
312.553
311.802
313.689
311.183
309.036
309.486
311.759
311.182
309.901
310.206
309.63
309.509
310.328
309.902
310.947
308.947
309.033
310.621
310.948
309.752
309.801
308.698
309.172
305.902
301.907
306.07
306.127
305.197
304.436
307.242
307.741
306.372
305.845
306.835
307.216
307.227
303.887
306.904
305.249
306.654
305.012
304.283
304.242
300.331
302.814
303.618
299.995
300.953
302.928
301.303
298.181
303.06
302.81
302.76
302.66
301.119
301.445
302.546
303.123
302.978
303.437
301.218
304.109
328.876
327.851
329.106
328.283
330.981
329.06
329.619
328.994
331.287
331.871
330.551
328.322
329.872
333.199
329.311
327.95
330.309
326.201
328.9
329.42
326.425
325.65
325.831
324.705
325.175
324.737
325.032
325.798
325.418
328.331
325.582
326.647
325.236
327.641
326.281
325.552
326.147
324.839
323.719
322.692
319.133
321.152
320.351
321.845
322.123
323.888
323.836
322.765
323.012
321.897
320.933
324.643
323.656
322.493
323.912
322.422
319.349
322.619
320.782
321.615
316.904
318.235
316.833
319.032
318.663
318.184
319.403
317.626
318.604
318.823
321.38
316.329
317.137
318.932
316.467
318.864
317.377
316.331
315.479
317.852
314.823
314.58
312.378
315.941
313.762
314.955
314.951
313.155
313.812
315.19
313.492
313.084
315.075
313.709
313.185
311.981
313.923
315.205
315.042
314.452
310.433
309.347
310.29
311.656
310.969
309.296
311.019
310.49
311.435
311.501
308.34
309.544
309.977
312.078
311.133
310.125
311.776
308.487
310.048
309.39
304.344
306.031
306.15
306.148
308.32
306.289
305.188
305.202
306.967
305.705
305.964
305.825
306.803
305.618
305.792
308.111
305.467
304.705
304.899
305.877
300.252
302.42
303.144
301.469
304.202
302.305
301.888
302.254
301.423
303.945
303.913
301.787
301.376
302.173
302.551
303.148
303.511
300.853
300.263
301.875
330.588
330.475
330.431
328.934
332.56
331.019
333.478
332.459
329.336
331.658
331.048
331.514
331.778
330.75
330.476
331.427
329.585
327.852
330.212
328.489
324.777
323.764
325.248
324.261
328.207
325.377
327.716
324.799
326.897
325.172
325.21
328.268
325.264
325.347
325.058
326.584
324.869
325.478
324.039
324.483
322.525
325.04
322.087
324.322
325.604
323.118
319.982
323.306
324.859
322.531
322.827
322.731
321.584
321.935
323.698
323.498
322.225
321.931
321.758
318.321
318.616
318.252
318.652
316.244
319.108
320.479
318.34
320.618
315.174
318.497
320.989
319.77
318.086
320.642
317.959
317.894
319.009
317.183
316.742
316.411
316.465
316.334
314.432
315.731
315.259
312.77
315.46
315.467
313.744
315.221
313.893
315.531
313.619
313.929
316.439
316.16
313.569
314.74
312.715
313.041
310.306
309.285
310.527
309.171
310.068
310.156
311.167
310.599
312.86
307.102
309.99
310.623
310.742
311.484
312.241
310.645
312.099
310.798
308.532
311.725
305.72
307.091
306.724
304.583
306.979
305.315
308.659
305.979
308.007
307.055
307.402
308.478
308.393
304.405
307.071
307.079
306.422
305.89
304.406
305.811
302.21
302.823
304.426
302.424
303.854
301.172
301.116
302.245
302.635
304.08
302.111
302.147
301.711
301.3
302.94
301.591
301.418
303.686
301.493
300.588
330.942
329.069
331.069
330.679
330.056
333.449
333.014
332.326
331.611
332.902
331.356
331.849
331.648
334.643
331.03
332.484
329.398
329.824
330.129
330.169
326.804
325.586
326.52
329.013
329.658
326.138
328.633
327.197
327.256
328.409
328.898
326.348
327.126
328.276
327.984
327.814
327.537
326.522
326.984
325.174
320.722
321.67
324.853
320.946
324.238
323.166
324.748
323.539
324.642
323.479
322.213
324.042
322.852
322.826
323.954
323.865
321.5
322.519
320.911
321.472
318.95
319.024
317.6
319.3
320.572
319.835
320.472
319.563
317.88
321.581
319.622
319.506
320.784
318.181
319.386
320.178
318.839
319.96
318.314
316.915
315.121
314.88
313.082
313.279
314.246
315.76
315.547
315.118
314.408
314.583
316.935
316.115
313.345
315.056
316.149
314.528
315.812
313.848
315.127
312.251
309.715
309.556
311.166
311.153
313.293
313.827
312.961
311.394
308.461
309.594
312.018
311.288
308.878
309.395
309.864
308.952
310.775
313.009
310.472
308.976
307.77
305.796
306.297
307.158
305.155
305.549
306.753
306.007
306.358
306.926
306.224
306.932
306.629
306.288
306.063
307.295
306.595
305.338
306.346
306.032
302.968
301.986
300.833
303.875
301.975
304.061
302.272
301.912
302.7
302.776
301.315
299.42
300.278
302.533
302.671
304.278
304.017
303.585
303.399
302.197
329.872
331.977
328.765
331.739
333.25
334.875
331.402
333.517
333.859
334.128
332.169
335.181
334.04
330.809
332.712
332.489
332.153
333.407
332.638
329.44
328.902
326.427
327.342
326.665
326.629
327.068
329.793
327.382
329.507
327.673
328.036
328.308
327.48
327.937
327.047
326.467
326.982
327.924
327.229
326.545
320.839
325.545
326.311
325.676
323.461
323.345
326.888
324.759
326.064
324.297
326.54
324.197
326.296
324.921
324.785
323.313
322.159
323.442
322.617
322.864
317.709
318.11
322.53
319.572
320.444
320.634
319.822
321.455
319.021
320.388
320.736
321.712
320.127
320.966
320.25
318.624
320.867
320.345
318.98
320.354
315.341
313.282
314.882
315.827
314.777
314.252
314.987
313.542
315.248
316.195
315.178
316.295
317.364
317.525
315.001
317.451
313.851
317.947
315.162
314.837
310.119
313.074
310.489
310.644
311.206
310.599
311.599
311.444
309.785
312.363
311.053
309.438
311.43
311.784
313.222
310.112
310.872
310.007
310.296
310.88
305.036
304.806
302.118
305.756
308.181
307.205
305.809
305.711
307.779
305.652
307.303
309.254
306.271
306.937
307.262
306.256
305.206
304.985
304.51
304.194
301.984
301.582
300.917
301.543
301.403
299.903
303.23
301.183
303.882
299.369
301.997
300.854
302.063
303.024
301.13
304.41
299.165
299.705
301.923
303.098
331.86
332.888
334.942
331.473
332.653
334.175
334.785
332.493
333.417
331.898
334.847
332.921
333.226
334.476
333.662
336.023
334.527
334.331
331.51
332.08
327.77
329.038
328.152
329.046
328.446
328.017
330.996
330.528
329.298
329.505
331.404
329.568
328.319
328.767
330.682
328.852
326.878
329.135
326.202
330.11
324.07
323.536
323.27
324.951
325.542
325.57
323.83
324.697
324.528
325.699
326.916
325.767
324.788
328.291
323.01
323.628
323.466
325.197
323.832
323.146
319.748
317.331
318.755
318.322
321.209
320.168
320.845
322.281
320.648
321.188
321.023
319.913
320.403
321.342
319.945
318.349
320.326
319.102
318.975
321.972
314.904
316.117
315.49
316.816
316.896
315.014
317.723
318.175
318.628
316.404
318.12
317.3
314.2
317.864
315.331
316.556
315.836
315.818
316.439
315.853
310.566
309.509
312.074
311.25
311.549
311.553
312.352
310.592
311.978
311.905
312.684
311.141
311.293
311.383
310.918
312.536
310.437
312.312
310.789
312.742
306.378
305.251
307.22
307.431
308.136
308.224
307.279
307.116
304.539
306.722
309.618
306.345
308.111
304.836
307.638
305.165
306.894
306.802
304.859
308.464
300.933
300.952
302.538
301.772
302.136
301.036
303.898
305.033
303.813
302.248
303.01
302.402
301.196
302.576
300.607
302.768
301.002
299.523
302.077
302.79
333.844
334.572
333.595
334.412
335.939
335.438
336.15
336.832
333.956
334.821
335.44
332.114
334.443
334.983
336.257
334.079
334.269
333.358
333.016
332.682
329.047
327.872
330.078
328.944
331.472
328.626
330.237
329.512
329.303
330.188
329.522
329.462
328.939
330.478
328.739
330.465
328.793
330.144
328.108
328.49
323.884
324.917
324.372
323.032
325.024
326.838
324.101
326.573
326.516
326.274
325.713
326.798
326.046
325.819
326.623
324.246
324.897
325.473
322.55
325.472
320.733
320.518
320.516
320.762
320.895
320.04
320.206
321.595
321.719
321.102
321.626
320.482
319.439
322.201
322.721
321.043
321.192
319.534
319.888
320.095
315.139
317.111
315.179
316.799
315.953
315.47
316.491
317.605
317.945
315.688
315.2
317.227
317.742
316.17
317.555
316.254
313.291
316.79
316.614
314.634
311.728
309.349
313.086
311.825
311.074
309.846
310.93
311.362
311.776
312.493
312.47
312.62
313.015
312.346
311.871
312.3
310.568
310.831
311.469
311.572
308.164
307.018
306.473
306.188
306.14
308.347
307.926
306.168
306.553
309.161
306.233
305.679
307.392
307.082
309.728
309.023
308.074
308.467
306.983
304.997
301.717
300.652
301.373
301.718
302.081
301.453
301.214
301.71
300.308
302.221
304.25
304.544
303.47
300.185
303.08
301.988
302.043
299.663
304.941
302.138
333.367
333.103
333.251
333.503
333.63
336.46
334.596
335.474
335.863
336.64
334.874
336.803
334.756
334.933
334.447
337.874
333.444
332.732
332.755
331.918
330.892
328.728
329.609
330.554
329.508
332.885
330.518
328.017
332.132
330.693
332.126
331.77
330.029
330.813
330.145
330.514
327.848
332.953
328.154
327.776
323.964
323.764
325.306
323.449
326.111
325.052
327.454
328.304
326.052
325.474
325.748
325.495
327.298
326.912
326.356
325.451
324.797
326.168
325.754
324.308
319.894
319.88
320.747
320.735
322.509
320.907
319.884
321.035
320.826
322.976
320.678
321.062
321.709
322.173
322.372
319.801
320.502
319.489
320.268
320.722
314.894
317.735
317.435
317.303
317.168
317.49
314.796
319.932
316.379
315.958
317.963
316.445
318.47
317.226
317.741
317.145
317.004
317.069
315.134
314.728
311.92
311.192
311.787
312.125
310.308
311.743
314.697
312.31
312.155
312.228
310.689
312.041
312.496
311.166
311.523
312.196
312.39
310.669
311.967
311.9
304.674
308.064
306.007
305.921
307.474
306.525
306.268
308.672
306.052
308.638
307.359
309.326
307.73
305.631
306.995
308.236
305.425
306.668
308.44
306.43
302.278
301.906
302.58
305.671
302.927
302.524
299.947
304.268
303.922
300.879
302.645
299.3
303.759
302.685
300.808
303.602
302.031
302.055
303.131
301.321
334.389
333.487
338.082
335.481
338.208
337.375
337.541
336.474
337.138
335.9
338.405
336.338
336.944
337.712
335.521
337.818
335.425
335.217
333.804
334.46
331
330.033
330.756
330.955
330.234
331.434
331.299
331.054
330.83
331.598
331.585
332.2
331.121
332.057
331.722
331.865
330.724
328.885
331.362
329.64
324.466
324.281
325.506
327.256
326.233
327.075
327.615
327.881
327.504
327.34
326.352
327.571
326.642
326.229
326.742
327.749
324.75
322.85
326.793
325.923
321.197
322.012
322.631
321.603
323.091
320.918
324.264
320.342
322.276
325.135
321.991
322.166
323.053
323.256
321.074
322.623
320.975
320.62
321.036
318.568
316.001
315.684
318.019
318.416
317.75
318.525
317.403
317.765
317.67
317.783
317.714
318.543
317.497
315.554
317.848
316.445
315.522
315.312
317.845
315.938
311.105
312.205
312.966
311.963
313.857
313.838
310.854
310.334
313.891
314.454
314.975
314.11
312.525
312.103
311.153
312.865
312.27
309.632
312.38
311.059
306.202
308.007
305.563
306.81
307.123
306.346
309.651
306.991
306.459
309.556
309.758
306.91
307.541
308.699
308.69
307.933
309.103
307.282
306.707
305.833
300.886
302.102
301.197
303.09
301.857
305.365
302.547
302.222
302.532
302.118
302.789
302.869
301.356
302.159
303.899
302.965
303.588
303.092
304.119
301.302
333.86
333.592
333.819
336.016
336.565
338.688
338.079
337.548
338.045
338.697
337.579
335.811
336.769
336.709
334.751
339.889
336.449
335.102
332.898
334.826
331.32
329.146
330.444
329.424
332.139
333.319
331.348
331.597
332.67
332.631
332.957
334.581
331.373
331.082
332.153
330.874
330.495
331.812
329.821
329.672
325.827
325.763
327.564
327.756
327.108
328.269
327.662
329.057
327.882
327.867
327.962
325.479
328.741
328.604
325.416
326.003
324.312
325.974
324.906
324.695
322.429
320.908
321.523
320.731
322.305
322.222
323.691
323.376
323.336
322.724
320.877
322.538
318.97
319.128
322.391
322.792
322.577
321.867
320.909
318.604
316.907
316.399
317.895
317.961
318.87
317.635
317.087
319.669
317.853
316.27
317.397
318.298
318.736
317.853
317.017
315.441
316.975
316.415
315.143
315.014
314.681
311.59
312.118
311.488
311.889
312.257
312.776
313.68
313.483
313.094
312.741
312.644
312.882
311.962
313.08
312.442
311.369
311.613
309.615
312.265
306.463
306.069
307.43
305.019
308.311
306.135
306.661
307.333
304.818
307.235
309.563
307.849
307.584
308.466
305.489
308.82
307.273
309.527
305.996
306.041
301.771
301.94
303.623
303.628
302.085
300.21
300.111
303.677
301.496
301.587
301.855
302.235
303.585
303.848
303.159
302.71
303.035
301.527
303.064
302.059
)
;

boundaryField
{
    hotSide
    {
        type            fixedGradient;
        gradient        nonuniform List<scalar> 
400
(
321.511
322.87
325.591
329.677
335.133
341.965
350.181
359.788
370.794
383.208
397.037
412.289
428.971
447.088
466.647
487.651
510.105
534.011
559.372
586.191
323.738
325.08
327.767
331.802
337.194
343.949
352.078
361.591
372.498
384.81
398.537
413.687
430.268
448.289
467.755
488.672
511.043
534.872
560.161
586.913
326.149
327.47
330.116
334.091
339.406
346.071
354.099
363.503
374.296
386.491
400.101
415.136
431.606
449.52
468.885
489.706
511.988
535.735
560.948
587.63
328.704
330
332.597
336.503
341.73
348.292
356.205
365.485
376.15
388.215
401.695
416.604
432.954
450.753
470.009
490.73
512.919
536.579
561.714
588.325
331.33
332.599
335.142
338.97
344.099
350.546
358.332
367.477
378.003
389.928
403.271
418.047
434.27
451.949
471.095
491.712
513.807
537.382
562.439
588.978
333.918
335.158
337.643
341.389
346.414
352.74
360.392
369.397
379.779
391.562
404.765
419.407
435.503
453.065
472.101
492.618
514.622
538.114
563.096
589.569
336.321
337.531
339.959
343.622
348.544
354.751
362.274
371.142
381.385
393.031
406.101
420.618
436.595
454.047
472.983
493.409
515.33
538.747
563.663
590.076
338.36
339.543
341.92
345.509
350.339
356.44
363.847
372.595
382.718
394.244
407.2
421.608
437.485
454.844
473.695
494.045
515.897
539.253
564.114
590.478
339.852
341.015
343.352
346.885
351.645
357.665
364.985
373.643
383.675
395.113
407.984
422.312
438.116
455.407
474.197
494.491
516.294
539.606
564.428
590.758
340.643
341.795
344.11
347.613
352.334
358.311
365.584
374.193
384.176
395.567
408.393
422.679
438.443
455.699
474.456
494.722
516.498
539.788
564.589
590.901
340.643
341.795
344.11
347.613
352.334
358.311
365.584
374.193
384.176
395.567
408.393
422.679
438.443
455.699
474.456
494.722
516.498
539.788
564.589
590.901
339.852
341.015
343.352
346.885
351.645
357.665
364.985
373.643
383.675
395.113
407.984
422.312
438.116
455.407
474.197
494.491
516.294
539.606
564.428
590.758
338.36
339.543
341.92
345.509
350.339
356.44
363.847
372.595
382.718
394.244
407.2
421.608
437.485
454.844
473.695
494.045
515.897
539.253
564.114
590.478
336.321
337.531
339.959
343.622
348.544
354.751
362.274
371.142
381.385
393.031
406.101
420.618
436.595
454.047
472.983
493.409
515.33
538.747
563.663
590.076
333.918
335.158
337.643
341.389
346.414
352.74
360.392
369.397
379.779
391.562
404.765
419.407
435.503
453.065
472.101
492.618
514.622
538.114
563.096
589.569
331.33
332.599
335.142
338.97
344.099
350.546
358.332
367.477
378.003
389.928
403.271
418.047
434.27
451.949
471.095
491.712
513.807
537.382
562.439
588.978
328.704
330
332.597
336.503
341.73
348.292
356.205
365.485
376.15
388.215
401.695
416.604
432.954
450.753
470.009
490.73
512.919
536.579
561.714
588.325
326.149
327.47
330.116
334.091
339.406
346.071
354.099
363.503
374.296
386.491
400.101
415.136
431.606
449.52
468.885
489.706
511.988
535.735
560.948
587.63
323.738
325.08
327.767
331.802
337.194
343.949
352.078
361.591
372.498
384.81
398.537
413.687
430.268
448.289
467.755
488.672
511.043
534.872
560.161
586.913
321.511
322.87
325.591
329.677
335.133
341.965
350.181
359.788
370.794
383.208
397.037
412.289
428.971
447.088
466.647
487.651
510.105
534.011
559.372
586.191
)
;
    }
    coldSide
    {
        type            mixed;
        refValue        uniform 300;
        refGradient     uniform 0;
        valueFraction   uniform 0.991591;
        source          uniform 0;
        value           nonuniform List<scalar> 
400
(
299.998
300.01
300.003
300.01
299.999
300.022
300.005
300.013
300.025
300.012
300.003
300.002
300.019
300.025
300.017
300.008
300.014
300.019
300.007
300.015
299.999
300.004
300.021
300.037
299.993
300.004
300.031
300.017
300.018
300.014
300.024
300.02
300.024
300.017
300.013
300.008
300.005
300.016