/*--------------------------------*- C++ -*----------------------------------*\
| =========                 |                                                 |
| \\      /  F ield         | OpenFOAM: The Open Source CFD Toolbox           |
|  \\    /   O peration     | Version:  2212                                  |
|   \\  /    A nd           | Website:  www.openfoam.com                      |
|    \\/     M anipulation  |                                                 |
\*---------------------------------------------------------------------------*/
FoamFile
{
    version     2.0;
    format      ascii;
    arch        "LSB;label=32;scalar=64";
    class       volScalarField;
    location    "0";
    object      T;
}
// * * * * * * * * * * * * * * * * * * * * * * * * * * * * * * * * * * * * * //

dimensions      [0 0 0 1 0 0 0];

internalField   nonuniform List<scalar> 
3200
(
323.183
322.54
322.198
322.173
322.437
322.804
323.261
323.903
324.194
324.44
324.406
324.408
324.119
323.709
323.198
322.673
322.366
322.065
322.215
322.696
320.202
319.657
319.355
319.336
319.532
319.84
320.239
320.83
321.097
321.272
321.259
321.229
320.981
320.641
320.188
319.75
319.479
319.2
319.333
319.756
317.175
316.718
316.459
316.456
316.591
316.829
317.19
317.7
317.962
318.076
318.073
318.013
317.793
317.53
317.143
316.774
316.546
316.316
316.421
316.768
314.115
313.732
313.528
313.522
313.617
313.791
314.116
314.556
314.771
314.849
314.857
314.77
314.59
314.399
314.065
313.76
313.586
313.402
313.471
313.771
311.004
310.703
310.554
310.565
310.626
310.76
311.007
311.357
311.562
311.584
311.588
311.495
311.382
311.234
310.969
310.728
310.58
310.451
310.501
310.759
307.879
307.651
307.569
307.582
307.618
307.705
307.877
308.126
308.307
308.306
308.295
308.21
308.146
308.053
307.868
307.673
307.555
307.48
307.537
307.712
304.742
304.606
304.538
304.575
304.589
304.644
304.744
304.885
305.011
304.999
304.977
304.92
304.903
304.853
304.732
304.61
304.547
304.503
304.551
304.617
301.589
301.555
301.521
301.538
301.535
301.559
301.594
301.644
301.681
301.678
301.664
301.642
301.652
301.63
301.58
301.546
301.527
301.512
301.529
301.537
323.175
322.605
322.342
322.326
322.454
322.977
323.531
324.149
324.559
324.795
324.787
324.72
324.392
324
323.478
322.931
322.465
322.227
322.298
322.753
320.184
319.706
319.472
319.46
319.543
320.013
320.492
321.026
321.379
321.592
321.586
321.528
321.24
320.907
320.453
319.962
319.574
319.352
319.404
319.789
317.137
316.76
316.55
316.56
316.604
317
317.379
317.858
318.193
318.363
318.334
318.297
318.072
317.771
317.379
316.962
316.632
316.448
316.489
316.805
314.063
313.758
313.6
313.627
313.612
313.949
314.253
314.67
314.946
315.084
315.041
315.007
314.823
314.592
314.279
313.927
313.641
313.49
313.558
313.795
310.986
310.741
310.621
310.634
310.607
310.873
311.132
311.443
311.674
311.783
311.727
311.702
311.548
311.391
311.134
310.851
310.617
310.525
310.595
310.77
307.867
307.713
307.603
307.613
307.615
307.778
307.975
308.186
308.355
308.46
308.404
308.37
308.272
308.173
307.978
307.774
307.59
307.543
307.594
307.704
304.732
304.634
304.577
304.572
304.599
304.685
304.812
304.919
305.032
305.102
305.054
305.025
304.968
304.93
304.811
304.676
304.564
304.536
304.576
304.622
301.585
301.553
301.534
301.528
301.55
301.572
301.617
301.65
301.687
301.715
301.703
301.685
301.667
301.659
301.618
301.565
301.531
301.531
301.536
301.551
323.271
322.878
322.606
322.528
322.744
323.289
323.861
324.515
325.045
325.261
325.271
325.155
324.843
324.326
323.859
323.257
322.738
322.511
322.505
322.882
320.25
319.952
319.686
319.617
319.794
320.291
320.769
321.338
321.814
321.984
321.996
321.876
321.6
321.185
320.768
320.215
319.786
319.605
319.609
319.901
317.206
316.965
316.73
316.677
316.812
317.246
317.612
318.129
318.537
318.688
318.667
318.568
318.333
317.986
317.637
317.142
316.796
316.68
316.673
316.9
314.12
313.936
313.719
313.706
313.813
314.174
314.439
314.876
315.206
315.335
315.301
315.234
315.025
314.758
314.453
314.08
313.767
313.692
313.684
313.863
311.016
310.868
310.692
310.686
310.75
311.073
311.284
311.603
311.844
311.968
311.933
311.879
311.709
311.517
311.269
311.004
310.725
310.679
310.679
310.797
307.891
307.781
307.654
307.662
307.714
307.916
308.072
308.293
308.456
308.575
308.541
308.516
308.389
308.254
308.073
307.897
307.658
307.645
307.651
307.707
304.754
304.692
304.599
304.639
304.664
304.763
304.859
304.988
305.081
305.153
305.139
305.125
305.045
304.969
304.853
304.736
304.6
304.59
304.612
304.631
301.59
301.572
301.535
301.561
301.571
301.603
301.632
301.672
301.721
301.731
301.722
301.722
301.698
301.666
301.63
301.585
301.544
301.542
301.551
301.561
323.629
323.302
322.99
323.044
323.329
323.864
324.403
325.052
325.613
325.891
326.024
325.767
325.538
324.817
324.282
323.58
323.092
323.034
322.92
323.212
320.581
320.299
320.025
320.071
320.302
320.79
321.23
321.794
322.322
322.547
322.618
322.399
322.205
321.582
321.154
320.515
320.101
320.07
319.963
320.199
317.49
317.269
317.058
317.042
317.252
317.684
318.024
318.491
318.977
319.129
319.176
318.99
318.826
318.335
317.962
317.406
317.078
317.061
316.977
317.137
314.369
314.186
314.017
313.986
314.153
314.516
314.816
315.146
315.561
315.68
315.717
315.557
315.435
315.027
314.726
314.277
314.046
314.025
313.947
314.055
311.221
311.064
310.938
310.892
311.023
311.317
311.553
311.806
312.122
312.226
312.212
312.103
311.99
311.721
311.459
311.104
310.959
310.948
310.886
310.949
308.038
307.934
307.835
307.8
307.883
308.09
308.277
308.434
308.668
308.757
308.741
308.647
308.55
308.392
308.206
307.946
307.84
307.859
307.79
307.839
304.843
304.767
304.711
304.688
304.747
304.843
304.973
305.076
305.214
305.284
305.251
305.209
305.128
305.045
304.935
304.779
304.701
304.738
304.676
304.709
301.627
301.596
301.58
301.573
301.603
301.626
301.665
301.709
301.756
301.768
301.757
301.737
301.713
301.691
301.653
301.593
301.56
301.596
301.565
301.588
324.112
323.782
323.576
323.67
323.997
324.511
324.984
325.654
326.174
326.576
326.576
326.457
326.217
325.389
324.905
324.131
323.632
323.419
323.529
323.814
320.99
320.707
320.564
320.629
320.897
321.338
321.729
322.329
322.769
323.126
323.121
323.007
322.795
322.091
321.67
320.986
320.585
320.406
320.493
320.711
317.809
317.599
317.486
317.524
317.759
318.127
318.439
318.948
319.32
319.637
319.612
319.532
319.345
318.779
318.421
317.829
317.515
317.344
317.415
317.553
314.602
314.44
314.362
314.388
314.601
314.873
315.14
315.553
315.835
316.105
316.104
316.015
315.852
315.413
315.126
314.621
314.406
314.231
314.303
314.401
311.384
311.257
311.204
311.217
311.389
311.608
311.826
312.129
312.357
312.57
312.558
312.491
312.352
312.035
311.81
311.395
311.261
311.108
311.156
311.242
308.146
308.066
308.037
308.035
308.144
308.323
308.478
308.688
308.842
308.992
308.974
308.945
308.837
308.638
308.456
308.149
308.07
307.938
307.997
308.064
304.884
304.859
304.837
304.835
304.903
305.009
305.115
305.235
305.308
305.412
305.395
305.39
305.315
305.205
305.084
304.889
304.851
304.788
304.807
304.846
301.643
301.634
301.616
301.627
301.639
301.692
301.716
301.751
301.779
301.813
301.823
301.799
301.778
301.743
301.697
301.63
301.62
301.605
301.615
301.611
324.839
324.48
324.2
324.48
324.696
325.11
325.64
326.307
326.819
327.188
327.346
327.198
326.868
326.284
325.472
324.842
324.439
324.028
324.059
324.394
321.609
321.321
321.087
321.327
321.49
321.84
322.31
322.891
323.338
323.652
323.795
323.67
323.357
322.863
322.193
321.632
321.293
320.925
320.956
321.25
318.352
318.11
317.922
318.137
318.255
318.551
318.946
319.428
319.823
320.071
320.187
320.103
319.833
319.422
318.874
318.385
318.118
317.787
317.791
318.038
315.063
314.859
314.7
314.91
314.992
315.226
315.53
315.933
316.278
316.476
316.565
316.477
316.275
315.919
315.512
315.101
314.876
314.605
314.587
314.801
311.761
311.598
311.469
311.636
311.709
311.876
312.115
312.409
312.695
312.879
312.919
312.826
312.698
312.391
312.116
311.77
311.603
311.388
311.379
311.543
308.425
308.31
308.201
308.343
308.371
308.506
308.689
308.873
309.103
309.25
309.266
309.182
309.107
308.856
308.68
308.42
308.326
308.148
308.154
308.273
305.068
305.002
304.913
305.022
305.04
305.109
305.243
305.332
305.479
305.588
305.585
305.549
305.475
305.333
305.219
305.057
305.017
304.896
304.911
304.983
301.711
301.678
301.652
301.687
301.682
301.717
301.763
301.79
301.844
301.885
301.883
301.866
301.839
301.798
301.75
301.699
301.685
301.642
301.656
301.671
325.594
325.339
325.067
325.239
325.347
325.883
326.267
326.968
327.583
327.951
328.201
327.966
327.571
326.916
326.21
325.509
325.094
324.65
324.721
325.041
322.293
322.082
321.844
321.986
322.053
322.51
322.857
323.462
324.001
324.3
324.512
324.324
323.975
323.393
322.807
322.2
321.879
321.494
321.534
321.801
318.947
318.771
318.543
318.681
318.718
319.107
319.388
319.926
320.364
320.621
320.8
320.642
320.335
319.844
319.371
318.867
318.613
318.27
318.29
318.522
315.563
315.415
315.199
315.336
315.362
315.671
315.904
316.374
316.715
316.916
317.072
316.914
316.672
316.272
315.91
315.484
315.284
315.014
315.008
315.21
312.142
312.023
311.842
311.955
311.978
312.234
312.388
312.775
313.014
313.198
313.305
313.177
313.008
312.694
312.422
312.075
311.916
311.711
311.694
311.86
308.674
308.605
308.487
308.551
308.572
308.773
308.88
309.137
309.32
309.453
309.517
309.441
309.307
309.082
308.89
308.643
308.52
308.377
308.376
308.49
305.215
305.175
305.107
305.143
305.162
305.297
305.339
305.484
305.597
305.683
305.724
305.673
305.595
305.47
305.348
305.198
305.129
305.034
305.041
305.108
301.744
301.74
301.72
301.73
301.735
301.785
301.786
301.83
301.874
301.9
301.907
301.901
301.885
301.843
301.79
301.74
301.712
301.689
301.692
301.708
326.469
326.108
325.916
325.875
326.039
326.622
327.145
327.756
328.362
328.805
328.942
328.816
328.422
327.644
326.972
326.22
325.619
325.468
325.391
325.71
323.076
322.752
322.589
322.529
322.691
323.183
323.631
324.137
324.698
325.057
325.188
325.051
324.711
324.037
323.485
322.826
322.289
322.186
322.103
322.387
319.616
319.343
319.194
319.15
319.294
319.7
320.057
320.49
320.94
321.279
321.395
321.25
320.994
320.406
319.951
319.395
318.934
318.836
318.767
319.013
316.118
315.91
315.743
315.721
315.848
316.164
316.455
316.806
317.192
317.459
317.551
317.451
317.222
316.732
316.367
315.921
315.527
315.474
315.404
315.594
312.575
312.421
312.28
312.267
312.373
312.602
312.819
313.089
313.418
313.596
313.692
313.591
313.437
313.041
312.771
312.424
312.097
312.09
312.014
312.149
308.99
308.905
308.795
308.789
308.856
309.017
309.156
309.365
309.611
309.729
309.813
309.718
309.603
309.318
309.144
308.905
308.646
308.665
308.606
308.718
305.428
305.354
305.293
305.282
305.328
305.418
305.487
305.647
305.775
305.848
305.902
305.836
305.771
305.592
305.518
305.358
305.21
305.211
305.17
305.266
301.818
301.793
301.774
301.767
301.793
301.811
301.838
301.891
301.933
301.967
301.988
301.962
301.925
301.871
301.848
301.793
301.755
301.735
301.727
301.765
327.354
326.93
326.751
326.727
326.948
327.382
327.974
328.579
329.19
329.566
329.706
329.558
329.089
328.422
327.778
326.965
326.318
326.168
326.169
326.438
323.824
323.465
323.309
323.276
323.464
323.812
324.346
324.856
325.398
325.713
325.823
325.696
325.306
324.721
324.167
323.438
322.925
322.806
322.788
323.007
320.226
319.966
319.817
319.775
319.919
320.185
320.685
321.102
321.556
321.821
321.926
321.812
321.486
320.991
320.495
319.907
319.486
319.392
319.366
319.545
316.594
316.401
316.28
316.27
316.352
316.552
317.002
317.311
317.673
317.903
317.997
317.897
317.608
317.217
316.803
316.329
316.013
315.943
315.906
316.051
312.944
312.803
312.683
312.699
312.764
312.903
313.244
313.489
313.778
313.954
314.053
313.986
313.737
313.417
313.103
312.713
312.495
312.456
312.394
312.528
309.276
309.193
309.069
309.117
309.148
309.233
309.465
309.654
309.855
309.995
310.043
310.02
309.821
309.597
309.363
309.083
308.955
308.938
308.873
308.99
305.578
305.543
305.451
305.477
305.5
305.553
305.684
305.796
305.918
306.022
306.029
306.023
305.903
305.768
305.622
305.467
305.383
305.392
305.332
305.412
301.878
301.865
301.827
301.831
301.834
301.857
301.905
301.949
301.986
302.016
302.025
302.014
301.984
301.933
301.889
301.833
301.81
301.813
301.795
301.819
328.155
327.88
327.701
327.687
327.738
328.25
328.807
329.306
329.87
330.311
330.486
330.16
329.753
328.985
328.46
327.768
327.266
326.91
327.042
327.118
324.513
324.29
324.113
324.121
324.127
324.575
325.081
325.497
325.99
326.354
326.492
326.227
325.87
325.223
324.76
324.161
323.74
323.438
323.546
323.606
320.831
320.648
320.486
320.505
320.479
320.859
321.297
321.651
322.078
322.365
322.483
322.251
321.947
321.43
321.017
320.518
320.164
319.931
319.998
320.05
317.1
316.972
316.812
316.836
316.8
317.089
317.463
317.78
318.112
318.324
318.449
318.262
318.001
317.606
317.248
316.839
316.556
316.376
316.406
316.446
313.352
313.238
313.1
313.123
313.088
313.306
313.609
313.859
314.117
314.265
314.377
314.247
314.039
313.732
313.444
313.125
312.896
312.779
312.793
312.853
309.575
309.476
309.373
309.4
309.364
309.506
309.71
309.924
310.112
310.197
310.288
310.195
310.037
309.83
309.63
309.369
309.233
309.149
309.142
309.205
305.753
305.704
305.641
305.652
305.634
305.71
305.842
305.963
306.082
306.125
306.176
306.124
306.037
305.922
305.784
305.631
305.55
305.515
305.494
305.533
301.927
301.92
301.887
301.911
301.899
301.915
301.962
301.999
302.036
302.048
302.067
302.039
302.024
301.989
301.933
301.89
301.868
301.852
301.836
301.853
328.997
328.816
328.488
328.67
328.635
329.085
329.516
329.982
330.599
330.981
331.123
330.865
330.395
329.744
329.186
328.486
328.008
327.634
327.692
327.884
325.249
325.117
324.833
324.983
324.947
325.351
325.688
326.083
326.622
326.953
327.076
326.852
326.418
325.885
325.398
324.809
324.406
324.068
324.131
324.28
321.451
321.361
321.119
321.258
321.177
321.561
321.803
322.131
322.601
322.872
323.002
322.808
322.41
321.993
321.556
321.084
320.742
320.468
320.498
320.635
317.626
317.559
317.335
317.461
317.376
317.703
317.887
318.15
318.558
318.763
318.863
318.728
318.37
318.059
317.697
317.312
317.023
316.808
316.824
316.942
313.754
313.71
313.538
313.619
313.54
313.768
313.951
314.138
314.476
314.613
314.7
314.602
314.324
314.084
313.819
313.503
313.285
313.105
313.127
313.228
309.862
309.826
309.706
309.769
309.689
309.839
309.994
310.111
310.37
310.438
310.539
310.457
310.258
310.076
309.882
309.664
309.508
309.374
309.398
309.471
305.947
305.92
305.837
305.864
305.819
305.912
306.009
306.081
306.225
306.264
306.338
306.281
306.18
306.062
305.958
305.813
305.7
305.652
305.658
305.695
301.994
301.981
301.957
301.966
301.943
301.98
302.011
302.042
302.094
302.098
302.136
302.098
302.065
302.032
302.011
301.95
301.918
301.904
301.9
301.904
330.014
329.603
329.422
329.518
329.608
329.857
330.315
330.717
331.215
331.574
331.689
331.556
331.116
330.396
329.871
329.117
328.733
328.401
328.326
328.606
326.142
325.796
325.628
325.731
325.774
326
326.384
326.727
327.131
327.474
327.592
327.456
327.067
326.444
325.999
325.347
325.027
324.73
324.69
324.903
322.211
321.969
321.78
321.871
321.901
322.094
322.408
322.698
323.017
323.31
323.444
323.313
322.969
322.445
322.095
321.54
321.278
321.016
321.001
321.171
318.235
318.071
317.856
317.979
317.977
318.143
318.393
318.623
318.855
319.144
319.219
319.139
318.858
318.422
318.144
317.68
317.485
317.229
317.267
317.381
314.226
314.105
313.921
314.044
314.027
314.125
314.346
314.501
314.682
314.944
315
314.934
314.716
314.385
314.164
313.797
313.654
313.423
313.475
313.588
310.194
310.089
309.964
310.071
310.047
310.099
310.253
310.349
310.513
310.71
310.746
310.694
310.536
310.322
310.155
309.895
309.789
309.615
309.644
309.759
306.121
306.076
305.996
306.061
306.048
306.079
306.155
306.215
306.332
306.446
306.49
306.433
306.332
306.192
306.109
305.964
305.866
305.772
305.795
305.873
302.051
302.042
302.013
302.036
302.034
302.041
302.063
302.083
302.12
302.16
302.183
302.157
302.123
302.084
302.045
301.999
301.965
301.927
301.948
301.961
330.835
330.51
330.3
330.398
330.57
330.652
331.03
331.419
331.849
332.12
332.244
332.189
331.695
331.034
330.399
329.818
329.457
329.242
329.137
329.279
326.836
326.594
326.382
326.475
326.66
326.715
327.039
327.363
327.72
327.951
328.079
328.031
327.584
326.993
326.479
325.955
325.661
325.491
325.369
325.509
322.79
322.607
322.409
322.493
322.666
322.699
322.985
323.28
323.548
323.716
323.859
323.807
323.417
322.91
322.516
322.051
321.803
321.666
321.546
321.703
318.706
318.575
318.404
318.467
318.635
318.631
318.875
319.136
319.33
319.449
319.587
319.551
319.218
318.796
318.496
318.103
317.904
317.8
317.695
317.853
314.572
314.489
314.373
314.39
314.548
314.521
314.72
314.905
315.085
315.151
315.275
315.24
314.996
314.653
314.436
314.11
313.977
313.892
313.811
313.95
310.442
310.379
310.317
310.311
310.43
310.394
310.549
310.665
310.801
310.858
310.939
310.923
310.745
310.487
310.331
310.093
310.012
309.956
309.895
309.992
306.287
306.262
306.222
306.205
306.272
306.259
306.348
306.43
306.49
306.509
306.576
306.583
306.463
306.322
306.212
306.039
306.019
305.992
305.934
306.016
302.106
302.101
302.09
302.082
302.103
302.099
302.12
302.154
302.18
302.179
302.194
302.209
302.165
302.112
302.089
302.019
302.009
302.01
301.992
302.018
331.683
331.406
331.192
331.188
331.394
331.462
331.875
332.144
332.423
332.633
332.735
332.675
332.223
331.61
331.077
330.502
330.141
329.974
329.835
329.946
327.587
327.349
327.183
327.176
327.336
327.389
327.766
327.978
328.229
328.413
328.489
328.427
328.059
327.526
327.048
326.562
326.253
326.111
325.981
326.081
323.421
323.226
323.101
323.104
323.23
323.277
323.59
323.75
323.971
324.131
324.203
324.157
323.847
323.392
322.966
322.576
322.287
322.183
322.058
322.165
319.231
319.074
318.961
318.983
319.08
319.131
319.386
319.487
319.667
319.801
319.858
319.832
319.571
319.202
318.818
318.532
318.274
318.208
318.089
318.192
315.005
314.889
314.779
314.787
314.881
314.929
315.132
315.193
315.328
315.424
315.482
315.445
315.268
314.992
314.669
314.437
314.233
314.191
314.093
314.183
310.735
310.681
310.581
310.587
310.653
310.704
310.854
310.883
310.964
311.033
311.082
311.045
310.924
310.744
310.488
310.325
310.164
310.151
310.083
310.176
306.448
306.438
306.362
306.37
306.401
306.433
306.531
306.554
306.572
306.629
306.666
306.637
306.551
306.465
306.287
306.207
306.099
306.12
306.059
306.132
302.162
302.163
302.136
302.125
302.139
302.163
302.196
302.192
302.197
302.23
302.24
302.222
302.192
302.173
302.117
302.085
302.041
302.057
302.026
302.057
332.53
332.16
332.085
332.032
332.251
332.266
332.522
332.755
333.025
333.159
333.209
333.086
332.643
332.309
331.735
331.285
330.759
330.631
330.659
330.831
328.334
328.015
327.962
327.916
328.104
328.111
328.295
328.509
328.764
328.831
328.912
328.796
328.408
328.122
327.644
327.26
326.795
326.676
326.705
326.864
324.071
323.815
323.751
323.735
323.872
323.888
324.01
324.216
324.458
324.474
324.586
324.452
324.11
323.873
323.485
323.167
322.769
322.647
322.69
322.85
319.75
319.562
319.502
319.485
319.596
319.614
319.686
319.883
320.071
320.068
320.209
320.068
319.772
319.596
319.297
319.004
318.696
318.585
318.606
318.779
315.401
315.267
315.227
315.19
315.292
315.281
315.344
315.488
315.618
315.607
315.763
315.632
315.414
315.294
315.05
314.809
314.596
314.495
314.5
314.665
311.023
310.936
310.899
310.854
310.937
310.928
310.99
311.063
311.162
311.143
311.284
311.171
311.047
310.961
310.765
310.615
310.452
310.367
310.377
310.501
306.631
306.586
306.556
306.52
306.578
306.575
306.597
306.642
306.705
306.692
306.798
306.702
306.68
306.584
306.485
306.381
306.285
306.228
306.235
306.319
302.22
302.212
302.208
302.197
302.205
302.219
302.208
302.225
302.239
302.25
302.27
302.249
302.239
302.203
302.178
302.153
302.114
302.085
302.082
302.127
333.496
333.244
332.912
332.815
332.782
332.861
333.135
333.487
333.639
333.642
333.739
333.539
333.038
332.77
332.317
331.899
331.608
331.286
331.355
331.52
329.175
328.97
328.699
328.584
328.573
328.638
328.855
329.172
329.288
329.27
329.4
329.212
328.753
328.56
328.118
327.793
327.522
327.283
327.308
327.449
324.797
324.6
324.405
324.316
324.294
324.309
324.516
324.78
324.876
324.865
324.985
324.809
324.424
324.298
323.882
323.654
323.367
323.185
323.187
323.335
320.355
320.196
320.063
319.985
319.945
319.933
320.11
320.335
320.442
320.418
320.518
320.378
320.063
319.96
319.598
319.447
319.161
319.042
319.018
319.16
315.854
315.766
315.671
315.595
315.559
315.532
315.661
315.843
315.94
315.928
315.986
315.883
315.661
315.558
315.283
315.164
314.91
314.873
314.83
314.969
311.342
311.306
311.227
311.184
311.133
311.113
311.195
311.322
311.405
311.388
311.433
311.377
311.223
311.122
310.946
310.841
310.651
310.655
310.615
310.733
306.809
306.807
306.77
306.723
306.711
306.673
306.729
306.806
306.858
306.854
306.881
306.857
306.758
306.689
306.59
306.526
306.414
306.418
306.389
306.456
302.286
302.29
302.275
302.25
302.255
302.236
302.239
302.284
302.299
302.307
302.305
302.29
302.276
302.246
302.209
302.193
302.145
302.155
302.136
302.163
334.39
334.132
333.801
333.664
333.685
333.64
333.92
333.999
334.192
334.283
334.195
334.068
333.676
333.312
332.88
332.468
332.228
332.058
331.997
332.291
329.954
329.721
329.45
329.327
329.324
329.279
329.54
329.605
329.768
329.838
329.792
329.675
329.289
329.01
328.656
328.271
328.082
327.936
327.866
328.15
325.47
325.258
325.044
324.938
324.912
324.861
325.097
325.139
325.297
325.356
325.333
325.21
324.878
324.651
324.349
324.02
323.853
323.745
323.676
323.943
320.915
320.746
320.552
320.499
320.447
320.401
320.597
320.611
320.79
320.82
320.811
320.706
320.439
320.244
319.984
319.714
319.589
319.494
319.429
319.675
316.316
316.2
316.032
316.003
315.944
315.912
316.066
316.069
316.233
316.227
316.239
316.15
315.965
315.825
315.59
315.372
315.263
315.217
315.152
315.367
311.657
311.607
311.491
311.469
311.422
311.377
311.477
311.51
311.617
311.605
311.609
311.555
311.436
311.359
311.182
311.022
310.92
310.884
310.865
311.011
306.993
306.993
306.908
306.905
306.869
306.839
306.898
306.925
306.968
306.984
306.98
306.946
306.887
306.839
306.722
306.641
306.571
306.543
306.551
306.63
302.341
302.34
302.316
302.311
302.304
302.28
302.314
302.322
302.343
302.339
302.335
302.336
302.318
302.292
302.253
302.234
302.207
302.203
302.201
302.228
335.344
334.96
334.641
334.391
334.358
334.34
334.533
334.544
334.741
334.834
334.689
334.576
334.174
333.856
333.493
333.107
332.816
332.789
332.898
333.113
330.766
330.48
330.19
329.974
329.93
329.904
330.065
330.075
330.253
330.314
330.218
330.102
329.748
329.486
329.183
328.837
328.613
328.578
328.659
328.86
326.152
325.914
325.648
325.471
325.416
325.374
325.534
325.541
325.704
325.763
325.68
325.562
325.267
325.058
324.801
324.525
324.346
324.304
324.351
324.522
321.452
321.278
321.064
320.941
320.874
320.792
320.945
320.963
321.1
321.165
321.114
320.977
320.738
320.592
320.381
320.138
320.025
319.979
319.998
320.143
316.713
316.592
316.445
316.363
316.296
316.204
316.289
316.359
316.446
316.496
316.49
316.386
316.168
316.064
315.918
315.684
315.639
315.602
315.597
315.72
311.933
311.867
311.785
311.736
311.688
311.586
311.64
311.716
311.759
311.799
311.805
311.723
311.571
311.5
311.435
311.226
311.202
311.189
311.181
311.249
307.176
307.134
307.086
307.053
307.03
306.952
306.994
307.044
307.061
307.082
307.08
307.049
306.961
306.915
306.885
306.75
306.727
306.743
306.736
306.773
302.409
302.393
302.378
302.363
302.366
302.339
302.351
302.363
302.363
302.372
302.366
302.359
302.345
302.313
302.309
302.261
302.249
302.263
302.262
302.274
336.072
335.787
335.414
335.092
334.981
334.977
335.094
335.238
335.275
335.274
335.236
335.064
334.732
334.388
334.012
333.739
333.515
333.501
333.488
333.7
331.41
331.177
330.852
330.548
330.475
330.45
330.567
330.679
330.721
330.68
330.708
330.524
330.257
329.93
329.611
329.379
329.216
329.207
329.164
329.372
326.705
326.491
326.219
325.928
325.875
325.866
325.945
326.048
326.098
326.064
326.094
325.948
325.703
325.404
325.146
324.96
324.834
324.847
324.778
324.971
321.932
321.746
321.543
321.261
321.24
321.223
321.306
321.379
321.418
321.387
321.443
321.307
321.108
320.835
320.643
320.474
320.401
320.437
320.356
320.519
317.102
316.962
316.792
316.565
316.573
316.528
316.646
316.672
316.688
316.67
316.74
316.611
316.463
316.251
316.099
315.981
315.928
315.964
315.886
316.021
312.241
312.144
312.026
311.854
311.874
311.817
311.94
311.948
311.933
311.92
311.991
311.882
311.775
311.636
311.535
311.448
311.413
311.441
311.372
311.479
307.355
307.296
307.235
307.147
307.148
307.115
307.195
307.187
307.191
307.16
307.208
307.133
307.066
306.998
306.938
306.878
306.873
306.883
306.825
306.916
302.477
302.444
302.42
302.401
302.403
302.382
302.409
302.417
302.411
302.415
302.423
302.386
302.374
302.341
302.323
302.303
302.311
302.31
302.293
302.322
336.713
336.373
335.969
335.708
335.516
335.389
335.43
335.645
335.684
335.608
335.474
335.285
335.042
334.764
334.387
334.158
333.921
334.009
333.94
334.219
331.948
331.682
331.351
331.08
330.895
330.783
330.831
331.005
331.05
330.977
330.857
330.718
330.502
330.276
329.927
329.733
329.547
329.602
329.546
329.785
327.148
326.935
326.672
326.386
326.225
326.145
326.167
326.298
326.354
326.295
326.201
326.096
325.916
325.71
325.401
325.252
325.103
325.148
325.107
325.288
322.267
322.122
321.904
321.639
321.507
321.466
321.48
321.567
321.609
321.592
321.522
321.425
321.245
321.089
320.84
320.716
320.614
320.639
320.629
320.744
317.354
317.267
317.087
316.858
316.735
316.728
316.747
316.816
316.811
316.832
316.797
316.71
316.556
316.445
316.263
316.159
316.077
316.099
316.091
316.173
312.436
312.352
312.224
312.047
311.957
311.958
311.98
312.031
312.037
312.038
312.026
311.963
311.849
311.767
311.63
311.554
311.526
311.534
311.502
311.59
307.489
307.414
307.342
307.254
307.192
307.184
307.203
307.244
307.244
307.229
307.244
307.21
307.141
307.05
306.99
306.94
306.946
306.946
306.91
306.964
302.517
302.486
302.454
302.426
302.408
302.404
302.412
302.436
302.433
302.425
302.431
302.423
302.394
302.361
302.344
302.317
302.333
302.335
302.31
302.335
)
;

boundaryField
{
    hotSide
    {
        type            fixedGradient;
        gradient        nonuniform List<scalar> 
400
(
235.039
235.949
238.409
242.373
247.679
254.094
261.367
269.272
277.619
286.261
295.089
304.023
313.008
322.011
331.014
340.009
349.001
357.999
367.013
376.052
226.869
227.941
230.672
235.007
240.747
247.616
255.328
263.631
272.321
281.247
290.295
299.391
308.482
317.542
326.558
335.531
344.475
353.404
362.337
371.29
223.02
224.41
227.433
232.026
237.992
245.055
252.929
261.358
270.138
279.113
288.169
297.23
306.249
315.201
324.081
332.895
341.661
350.403
359.143
367.901
223.201
225.054
228.396
233.164
239.184
246.219
254.012
262.326
270.962
279.766
288.624
297.459
306.226
314.904
323.492
332.004
340.461
348.892
357.324
365.782
226.292
228.693
232.402
237.349
243.389
250.324
257.936
266.012
274.368
282.854
291.36
299.812
308.169
316.418
324.567
332.635
340.654
348.656
356.674
364.736
231.02
234.003
238.134
243.334
249.47
256.369
263.838
271.683
279.731
287.841
295.907
303.867
311.692
319.382
326.96
334.46
341.925
349.395
356.909
364.499
236.324
239.897
244.5
250.046
256.4
263.394
270.84
278.547
286.342
294.086
301.683
309.086
316.288
323.317
330.22
337.054
343.877
350.741
357.692
364.766
241.384
245.52
250.622
256.589
263.277
270.508
278.079
285.78
293.421
300.854
307.99
314.805
321.329
327.629
333.792
339.903
346.04
352.269
358.643
365.199
245.536
250.165
255.738
262.147
269.237
276.81
284.632
292.455
300.051
307.247
313.957
320.189
326.024
331.586
337.006
342.406
347.883
353.516
359.358
365.447
248.245
253.227
259.164
265.942
273.401
281.321
289.436
297.45
305.08
312.117
318.473
324.192
329.418
334.333
339.118
343.923
348.863
354.021
359.451
365.187
249.125
254.248
260.345
267.306
274.962
283.085
291.385
299.53
307.197
314.144
320.278
325.673
330.516
335.034
339.435
343.889
348.519
353.411
358.619
364.174
248.008
253.012
259.006
265.879
273.46
281.518
289.762
297.858
305.482
312.394
318.499
323.87
328.69
333.184
337.562
341.996
346.613
351.501
356.717
362.294
245.007
249.637
255.272
261.799
269.048
276.793
284.757
292.638
300.15
307.08
313.339
318.966
324.099
328.922
333.617
338.345
343.23
348.364
353.81
359.608
240.518
244.576
249.672
255.696
262.48
269.806
277.419
285.053
292.467
299.478
305.997
312.027
317.652
323
328.215
333.434
338.776
344.334
350.177
356.349
235.2
238.566
243.043
248.526
254.851
261.8
269.131
276.599
283.99
291.139
297.954
304.411
310.55
316.455
322.235
328.004
333.872
339.932
346.257
352.895
229.954
232.581
236.438
241.431
247.386
254.074
261.243
268.652
276.094
283.411
290.506
297.339
303.924
310.316
316.598
322.87
329.235
335.788
342.605
349.735
225.934
227.841
231.128
235.707
241.385
247.906
254.993
262.395
269.904
277.364
284.677
291.796
298.718
305.482
312.155
318.829
325.605
332.583
339.843
347.434
224.499
225.777
228.558
232.76
238.172
244.509
251.476
258.812
266.309
273.818
281.239
288.523
295.659
302.674
309.626
316.599
323.69
331.005
338.625
346.597
226.844
227.657
229.992
233.779
238.812
244.809
251.482
258.579
265.9
273.301
280.684
287.999
295.227
302.387
309.526
316.716
324.048
331.617
339.501
347.739
233.359
233.887
235.832
239.14
243.641
249.1
255.269
261.922
268.877
276
283.194
290.406
297.613
304.822
312.068
319.407
326.912
334.657
342.703
351.081
)
;
    }
    coldSide
    {
        type            mixed;
        refValue        uniform 300;
        refGradient     uniform 0;
        valueFraction   uniform 0.991591;
        source          uniform 0;
        value           nonuniform List<scalar> 
400
(
300.013
300.013
300.013
300.014
300.014
300.014
300.015
300.015
300.016
300.016
300.017
300.017
300.018
300.018
300.019
300.019
300.02
300.02
300.021
300.021
300.013
300.013
300.013
300.013
300.014
300.014
300.015
300.015
300.016
300.016
300.017
300.017
300.018
300.018
300.019
300.019
300.02
300.02
300.021
300.021
300.013
300.013
300.013