/*--------------------------------*- C++ -*----------------------------------*\
| =========                 |                                                 |
| \\      /  F ield         | OpenFOAM: The Open Source CFD Toolbox           |
|  \\    /   O peration     | Version:  2212                                  |
|   \\  /    A nd           | Website:  www.openfoam.com                      |
|    \\/     M anipulation  |                                                 |
\*---------------------------------------------------------------------------*/
FoamFile
{
    version     2.0;
    format      ascii;
    arch        "LSB;label=32;scalar=64";
    class       volScalarField;
    location    "0";
    object      stateMean;
}
// * * * * * * * * * * * * * * * * * * * * * * * * * * * * * * * * * * * * * //

dimensions      [0 0 0 1 0 0 0];

internalField   nonuniform List<scalar> 
3200
(
351.193
351.791
348.468
349.848
352.145
351.017
351.283
351.912
350.87
349.716
355.409
353.224
349.22
351.416
347.382
350.02
348.777
348.138
350.574
348.562
345.918
343.55
344.41
343.896
343.766
341.887
345.535
343.668
347.687
346.411
345.684
343.262
345.06
343.034
343.025
340.65
341.439
341.575
342.262
342.706
339.692
336.612
336.036
336.143
336.201
337.186
337.174
339.393
337.39
338.286
336.894
339.632
337.697
336.008
336.415
335.889
333.755
334.109
334.613
338.971
332.685
330.037
332.26
326.893
330.701
329.234
330.787
330.185
332.458
331.144
330.542
330.569
331.297
331.516
327.414
327.826
328.987
329.152
329.911
329.436
324.018
323.696
324.27
323.911
324.721
322.469
324.689
326.01
322.686
322.938
324.691
325.403
323.721
323.483
323.031
322.732
321.683
321.734
324.468
324.254
315.998
317.252
316.491
317.57
315.82
314.191
316.01
317.097
317.398
318.523
315.549
318.084
317.853
316.54
317.145
314.965
317.021
317.337
316.301
315.704
307.709
310.775
312.084
309.923
309.12
312.32
310.346
309.674
310.759
311.034
310.46
310.795
309.542
309.073
310.965
307.55
309.104
309.619
307.35
310.775
299.741
303.032
303.158
303.094
301.897
304.291
302.799
302.616
303.054
303.814
303.208
305.083
302.558
303.514
303.819
304.112
304.6
303.972
303.957
304.078
353.456
351.41
351.294
350.177
350.768
352.356
350.657
351.51
352.681
353.126
351.823
350.665
351.165
349.747
349.333
347.79
346.265
350.857
347.078
351.372
345.47
344.502
344.514
345.384
343.169
346.775
344.195
348.328
342.781
348.716
349.46
346.688
347.555
347.032
346.734
342.285
345.773
338.866
343.939
343.944
340.321
338.935
338.465
336.177
336.924
336.867
338.591
338.905
338.874
338.966
337.552
337.404
338.296
336.62
338.812
334.827
335.054
338.265
335.555
336.539
330.423
328.13
330.954
330.468
331.354
332.233
331.339
329.698
333.178
330.398
332.081
328.658
333.564
329.36
328.632
329.636
329.266
330.678
330.039
331.066
325.637
324.77
324.935
323.036
324.844
321.181
325.11
323.242
324.029
322.983
325.839
324.21
324.854
325.297
322.818
323.13
321.456
320.62
325.132
323.95
316.735
316.043
317.937
317.254
317.481
318.085
318.186
317.746
315.179
313.055
318.814
316.719
319.546
316.071
317.192
315.192
316.092
316.007
317.109
317.946
308.011
309.797
309.562
308.671
310.118
309.369
309.879
310.651
310.688
311.771
310.034
310.264
309.94
310.933
309.84
309.018
308.038
310.038
309.424
311.21
302.863
300.972
303.074
304.691
301.516
304.09
303.712
304.533
301.115
305.793
301.428
302.538
300.942
304.85
303.69
304.491
303.686
302.888
304.443
304.198
353.336
353.201
349.534
351.469
350.898
349.292
352.583
351.975
356.478
355.432
353.357
353.316
355.016
352.114
351.165
350.536
348.794
350.61
348.587
351.025
345.867
344.15
343.607
343.112
343.355
345.766
346.205
345.233
347.425
346.713
347.895
347.901
345.015
344.207
343.449
343.139
342.788
342.44
342.594
345.874
338.704
338.881
337.901
337.094
336.728
336.272
336.573
339.137
339.945
339.231
341.059
338.764
339.349
337.995
336.618
338.341
337.245
338.121
337.457
335.507
329.692
330.235
330.657
332.173
330.946
328.741
330.757
332.299
331.37
329.223
331.681
332.936
329.771
331.025
332.244
329.505
329.884
328.463
327.798
332.204
325.34
323.26
324.157
321.279
324.22
325.164
321.97
326.005
325.429
325.215
326.423
326.914
325.065
326.08
324.532
322.994
322.639
322.257
323.622
323.359
318.621
316.824
316.47
315.782
318.325
317.15
315.759
318.052
319.568
318.415
320.878
317.281
316.907
317.916
317.207
317.227
314.721
316.807
318.759
317.647
313.226
311.861
311.812
307.564
311.476
310.451
310.455
311.781
311.056
311.063
312.634
311.248
310.012
309.277
310.165
309.404
307.674
308.484
308.295
310.537
302.618
302.937
303.952
303.666
302.852
301.971
303.533
302.909
303.062
303.458
303.206
303.142
302.431
303.975
304.886
303.005
302.304
302.86
302.299
304.589
355.351
353.795
351.24
351.16
351.593
352.629
354.036
353.799
353.162
354.554
356.045
355.369
354.805
351.834
351.249
351.593
347.34
349.082
349.497
353.198
347.551
344.753
343.667
345.767
343.367
347.747
346.557
348.137
349.466
348.98
349.799
344.905
349.062
346.767
347.339
343.817
345.538
342.953
344.696
345.142
338.125
340.648
338.445
337.575
338.351
339.022
339.806
342.828
340.836
341.291
340.271
340.943
341.266
337.582
337.171
336.753
337.902
334.806
335.043
336.867
334.715
330.931
332.345
330.291
330.528
332.219
332.323
331.045
331.224
334.922
332.445
331.342
334.199
333.033
328.467
330.98
329.038
328.551
330.372
330.552
325.016
322.559
324.139
323.08
322.414
323.361
324.431
326.054
325.554
325.949
326.518
324.144
325.472
325.33
323.572
323.304
324.906
321.012
325.914
323.809
318.596
319.392
315.573
318.531
318.401
316.869
316.08
316.82
319.039
319.661
316.812
319.479
319.759
319.34
317.739
316.491
317.632
317.374
318.168
317.311
311.876
312.025
311.009
310.605
309.691
307.952
310.892
314.315
309.898
311.189
312.099
311.201
310.036
312.306
312.693
310.971
312.121
309.934
310.111
309.01
302.667
303.585
305.601
304.251
304.587
305.612
304.391
303.533
305.767
302.835
303.593
303.593
304.637
303.741
303.254
304.182
303.064
303.412
305.936
302.889
355.316
352.829
353.202
353.597
352.555
352.246
354.67
356.106
356.034
356.424
355.794
356.432
356.926
353.062
353.202
351.595
354.496
349.536
353.28
352.793
344.814
347.843
347.504
345.336
345.911
344.908
347.038
346.492
349.423
350.424
350.301
349.864
348.893
347.082
343.938
345.559
346.843
344.302
345.267
345.838
341.169
338.488
337.591
339.84
339.346
340.313
340.385
341.411
340.582
343.085
342.992
340.563
341.84
341.576
337.965
337.264
339.073
337.358
338.881
339.165
331.581
333.366
329.381
331.742
331.365
331.51
331.023
332.4
335.146
332.88
335.021
331.161
335.895
332.13
333.551
330.701
330.476
330.066
331.613
333.546
325.81
327.526
326.634
325.092
324.834
325.707
325.054
323.938
327.065
325.105
326.869
325.755
327.757
325.838
326.293
325.928
323.913
324.807
323.805
326.88
317.713
319.134
317.076
318.478
318.385
317.321
318.666
321.596
318.826
320.434
318.338
318.686
317.075
319.698
318.766
316.922
316.645
317.117
316.3
320.099
311.275
311.29
311.779
311.538
310.194
311.602
311.229
312.634
309.228
311.527
310.62
311.109
310.018
310.544
310.888
310.234
310.449
310.039
311.61
312.745
300.069
305.39
303.409
303.019
304.559
306.64
302.779
302.418
303.857
304.263
304.051
305.539
304.467
302.005
302.569
302.939
302.492
304.285
303.903
304.358
355.311
355.072
354.103
353.294
354.793
357.021
356.241
356.86
356.471
355.017
358.495
358.356
358.223
355.03
354.192
352.892
353.811
350.52
353.955
357.238
349.73
346.057
347.218
347.327
345.836
348.855
349.827
349.135
349.354
350.444
350.165
348.677
349.711
348.538
348.816
346.411
347.105
344.533
345.788
347.284
340.24
342.065
341.142
342.515
338.696
339.327
338.511
340.043
343.729
342.31
344.236
343.764
340.078
343.451
339.889
339.859
339.655
339.324
336.974
342.846
334.637
333.22
330.98
331.298
331.245
336.03
332.423
332.925
334.016
331.894
336.163
333.888
335.717
334.752
334.152
333.611
332.85
332.138
333.513
331.185
327.263
325.948
326.489
325.432
328.045
326.706
326.873
326.992
325.82
328.771
326.78
327.516
326.044
326.111
326.138
325.095
325.953
324.476
325.027
326.536
321.809
316.465
317.341
318.52
318.59
318.314
317.001
318.911
320.399
318.527
319.833
318.734
316.362
316.939
319.275
319.244
316.794
317.698
319.819
316.338
313.287
312.048
310.428
308.776
312.272
310.011
313.224
313.027
310.228
311.71
311.356
312.664
310.857
309.422
307.695
309.519
312.263
308.992
309.313
310.479
304.169
302.509
302.693
304.974
302.399
301.394
303.653
302.706
305.548
303.393
303.57
303.085
302.775
303.261
304.341
303.93
302.476
305.834
302.721
303.849
357.871
356.971
356.035
357.264
357.75
355.806
356.916
359.9
360.861
360.179
360.047
359.125
360.847
361.252
353.284
355.142
355.428
353.957
354.058
356.089
353.426
348.752
347.945
349.341
347.235
349.25
348.815
352.523
351.546
353.115
351.966
355.066
351.622
349.842
349.623
346.003
346.074
346.981
347.597
349.735
341.197
342.58
340.88
342.81
339.308
341.809
342.099
343.781
344.773
344.138
345.442
341.26
343.613
341.55
341.402
340.73
341.351
339.153
339.051
342.277
334.951
332.57
332.859
331.922
330.922
335.457
335.153
336.408
336.169
335.455
336.455
338.4
335.106
334.531
333.112
334.744
334.817
332.473
334.568
332.258
328.595
325.237
326.331
325.458
324.59
326.768
327.173
329.481
328.535
327.844
326.585
326.958
325.571
328.076
325.346
325.059
325.571
325.761
328.975
326.277
318.82
316.286
317.885
318.919
320.179
319.652
317.831
319.549
318.569
320.997
320.446
322.771
318.661
319.33
317.825
316.434
320.355
318.524
318.636
321.858
314.476
312.652
312.227
310.99
311.229
310.848
313.78
310.996
312.871
311.477
311.967
313.755
312.643
311.484
308.662
310.075
309.085
312.218
310.766
311.554
302.888
301.547
304.908
305.699
303.048
305.462
303.135
301.335
304.225
305.918
306.047
305.091
305.166
306.241
304.659
304.634
301.098
305.913
305.85
302.629
359.791
357.921
358.984
355.341
357.199
357.203
359.872
359.079
361.902
361.067
362.268
362.678
358.045
357.773
356.792
359.359
355.832
356.784
357.698
359.006
355.356
348.329
348.682
348.995
350.089
350.528
347.981
351.215
354.051
351.685
351.857
354.312
350.86
351.188
349.759
351.296
349.224
347.742
348.52
348.516
342.929
341.768
341.915
340.925
344.085
341.951
342.232
344.942
344.694
345.857
343.466
344.177
344.354
343.54
342.036
343.433
341.191
341.083
343.445
340.719
334.384
334.223
334.261
336.178
334.603
336.235
335.083
333.145
335.024
338.196
337.735
334.824
333.934
337.74
337.208
333.922
334.901
333.777
334.234
335.209
327.347
328.756
327.145
329.029
328.465
325.681
327.977
329.88
329.25
328.839
329.708
330
327.832
328.987
326.113
326.532
325.805
325.629
326.119
328.009
322.092
319.581
317.278
318.964
318.606
321.117
320.421
318.661
320.666
320.079
320.899
320.983
323.781
318.224
318.667
319.892
320.277
319.862
318.712
319.354
312.321
311.369
308.537
311.953
312.622
312.895
313.893
313.385
310.565
313.315
315.282
311.521
313.254
312.023
312.579
312.405
310.538
309.822
310.197
311.92
303.374
305.312
303.193
301.942
304.719
305.937
303.338
303.747
303.369
302.748
301.247
303.847
301.081
302.564
303.395
306.248
304.437
303.078
304.069
303.85
359.342
361.29
357.871
358.787
359.339
358.994
361.509
363.404
360.273
364.32
365.752
360.596
361.543
358.579
360.883
358.49
357.189
358.186
360.316
357.528
352.88
352.445
350.15
352.057
348.764
350.174
354.072
351.705
352.567
353.132
354.852
355.46
354.011
352.731
351.422
350.457
349.915
350.736
350.115
351.732
343.586
342.049
344.519
344.262
344.518
343.608
342.592
344.322
349.817
347.935
344.602
347.058
346.505
344.553
345.686
343.183
342.772
342.722
341.411
343.542
335.841
335.494
337.177
333.729
335.117
336.952
337.015
334.711
335.926
338.644
337.388
338.525
337.281
335.65
338.992
334.925
338.305
334.359
337.383
334.547
327.553
328.346
326.898
327.355
327.072
328.86
329.193
329.017
329.815
329.627
329.415
330.228
329.828
328.397
327.165
326.282
324.862
325.585
327.478
326.542
319.008
319.852
318.658
318.151
319.451
318.725
320.981
318.503
320.507
321.105
321.775
323.607
319.693
318.356
319.881
319.28
317.349
320.436
318.619
318.667
313.43
310.521
310.385
309.593
310.57
311.312
312.385
311.869
312.685
314.443
312.122
310.486
313.675
313.044
312.12
312.44
310.038
309.815
313.043
311.184
303.197
304.174
303.199
304.567
303.814
303.439
303.535
305.548
302.848
305.467
305.24
304.764
302.428
303.702
305.491
302.3
301.918
306.647
304.696
304.557
364.08
364.474
362.128
359.086
361.154
362.603
364.014
365.494
364.615
366.932
366.16
365.493
364.729
365.868
361.974
362.552
357.076
358.715
360.804
361.841
354.257
350.955
350.045
351.797
354.241
352.061
353.469
353.113
355.005
353.976
354.41
356.779
353.368
354.52
351.994
353.348
351.276
349.795
350.525
352.888
344.233
344.655
344.831
344.756
345.107
343.264
344.591
345.026
347.011
347.691
347.803
345.764
347.466
344.524
344.307
345.073
343.181
343.003
343.053
343.457
339.583
337.987
336.865
337.072
335.304
337.124
335.601
337.42
335.715
340.412
340.639
337.44
340.65
340.883
335.816
337.117
337.105
334.943
336.79
337.875
328.788
331.163
326.436
329.813
328.711
328.684
329.331
330.851
329.242
330.271
330.988
331.074
330.543
327.354
328.801
330.521
331.301
327.849
326.822
328.838
320.275
321.142
320.971
319.806
320.54
320.05
322.409
321.624
320.887
319.06
323.137
322.166
320.244
318.633
321.266
322.342
319.009
320.362
320.332
322.037
311.146
312.153
312.12
311.141
311.671
313.672
311.334
312.963
310.961
313.602
313.297
314.475
311.42
313.073
316.167
311.038
313.786
314.521
311.807
311.692
302.513
303.995
305.767
304.265
304.827
304.283
303.922
305.527
307.216
304.834
304.165
304.054
304.705
304.924
302.757
304.433
304.445
304.146
304.626
302.439
365.781
363.12
362.544
364.841
361.228
361.69
362.276
367.147
364.324
366.848
365.092
365.973
366.53
364.439
364.722
366.434
362.062
362.153
361.307
362.333
355.065
351.933
352.691
352.547
353.832
353.793
355.111
355.045
357.302
355.791
355.412
360.291
354.97
356.311
354.023
354.776
353.243
352.558
352.524
353.208
347.4
345.944
346.891
345.899
346.098
347.083
348.068
345.962
345.559
350.731
349.674
348.975
347.358
349.859
347.226
348.789
345.974
344.144
347.37
348.358
337.968
338.453
335.731
336.514
338.083
338.96
338.519
340.573
340.163
339.784
342.542
340.783
339.55
338.516
338.371
338.585
335.256
336.165
335.278
337.675
330.321
329.656
330.869
327.674
329.552
329.439
329.324
328.83
331.427
331.099
331.85
332.498
330.734
332.674
326.605
330.665
328.216
327.943
328.488
329.539
323.401
320.805
322.259
318.671
319.483
323.046
322.627
320.438
321.198
322.915
321.559
322.467
321.276
321.151
321.447
320.177
322.708
318.496
319.346
319.147
314.703
311.234
311.289
312.189
313.809
311.181
311.927
314.96
312.004
312.025
312.973
314.38
310.845
312.958
313.049
312.318
311.272
312.356
311.447
311.979
305.172
305.335
304.558
304.963
304.821
305.35
302.879
304.617
303.528
303.305
304.311
305.918
304.24
306.506
304.476
305.666
306.738
305.608
306.753
303.68
366.727
365.662
365.95
366.52
366.032
364.726
365.965
365.409
365.347
369.779
367.758
368.557
366.769
366.855
365.39
366.679
361.902
365.684
364.26
365.493
360.221
354.661
354.814
355.667
358.55
357.909
358.615
356.983
355.836
358.984
359.136
357.488
357.624
358.794
357.622
356.45
356.692
355.897
356.171
355.783
348.428
350.005
345.357
345.594
347.96
346.002
349.754
349.45
348.407
348.005
349.73
347.825
349.503
349.503
346.324
347.892
346.276
347.26
348.436
348.614
340.481
340.781
336.054
338.701
335.592
340.435
337.512
339.63
342.427
340.272
338.944
340.655
341.165
337.795
337.621
335.977
339.048
336.679
340.486
338.895
332.801
330.395
329.549
332.774
329.92
329.898
330.601
332.248
330.059
331.334
332.893
329.873
332.888
331.029
330.183
330.609
328.76
328.644
332.397
328.983
321.364
322.052
320.478
322.137
321.292
324.428
319.628
322.113
318.97
322.112
319.929
323.221
321.697
320.187
319.482
321.322
320.689
323.566
321.838
321.882
314.557
313.011
312.494
315.448
314.203
311.087
312.726
313.709
313.565
314.089
313.186
314.225
312.898
314.136
312.293
313.611
314.563
314.739
312.69
312.676
305.072
306.293
303.934
306.849
302.461
303.883
303.308
303.638
303.494
302.898
303.533
302.895
304.806
302.78
304.723
303.64
305.454
303.052
305.641
303.382
368.983
367.622
367.299
363.691
367.501
365.77
366.382
368.571
370.307
366.964
370.664
370.111
370.933
368.797
369.934
368.743
365.957
368.761
367.358
367.054
359.813
355.605
358.448
356.485
357.567
357.039
357.961
357.945
358.066
358.083
357.541
359.661
357.678
360.466
357.4
358.974
357.168
356.586
355.729
359.08
347.582
349.449
350.051
347.925
349.428
348.659
347.407
351.827
351.919
353.077
352.35
351.336
348.27
347.389
350.048
347.94
349.867
350.981
351.133
349.498
340.971
339.243
340.394
340.835
340.646
340.3
343.385
340.516
341.269
340.849
341.528
341.149
341.863
340.058
342.845
340.453
340.598
338.597
342.07
340.918
332.889
331.377
330.267
331.114
332.127
330.147
332.837
333.143
331.747
333.409
332.899
333.196
332.51
330.843
334.125
331.622
329.708
330.039
331.209
331.473
322.107
323.007
322.471
322.701
321.859
320.829
323.116
319.176
322.137
324.048
325.865
322.478
325.667
322.358
321.449
322.281
321.663
322.73
322.941
324.747
311.467
312.721
312.417
315.321
312.562
314.18
312.796
315.228
313.511
313.688
313.447
313.339
313.527
314.188
312.02
309.543
312.92
315.07
313.639
313.427
302.944
307.073
303.949
306.355
305.201
302.668
304.377
304.652
303.726
305.477
305.609
305.588
305.69
307.084
305.381
304.889
303.898
304.127
304.851
304.074
370.875
371.037
369.2
367.627
369.448
368.209
369.775
370.901
368.898
371.404
372.423
368.738
370.489
368.686
370.641
369.413
367.604
370.094
370.03
369.373
361.023
360.537
359.255
358.718
358.525
359.907
359.87
360.595
363.062
361.032
363.686
364.023
360.424
361.991
360.902
360.612
357.846
357.78
358.934
358.776
353.15
351.996
352.19
350.866
348.774
350.371
351.026
350.211
350.916
353.276
354.141
350.989
351.992
354.568
351.299
351.293
348.601
352.573
352.42
351.328
341.045
342.222
340.601
340.987
339.285
342.154
342.113
340.211
343.314
343.912
342.296
342.036
341.575
342.399
340.862
340.934
342.457
339.621
342.14
341.462
335.614
334.149
331.819
332.634
328.695
333.064
330.737
332.532
331.743
332.685
332.937
333.443
334.322
333.686
332.533
333.942
332.387
332.422
331.502
333.314
323.515
324.577
322.877
322.817
323.837
322.579
325.219
322.77
323.375
323.652
324.941
322.483
326.621
324.724
324.077
321.569
320.513
324.036
322.934
323.66
312.729
315.221
313.355
314.654
312.752
313.25
312.735
315.888
312.131
312.567
314.15
314.428
311.787
312.703
315.875
311.842
315.584
313.349
314.396
313.642
305.519
304.2
305.402
305.391
305.811
306.822
303.622
305.674
303.674
303.727
304.391
306.301
304.388
307.008
306.034
305.702
305.142
304.941
304.353
302.555
371.721
372.478
370.714
371.197
370.226
369.441
371.216
370.871
374.203
372.619
373.299
371.293
371.284
371.238
370.565
369.618
369.689
370.62
370.127
372.729
362.492
359.867
361.512
360.363
360.584
361.298
361.73
361.309
362.776
361.587
362.126
364.682
361.912
363.573
361.02
361.085
360.51
362.03
360.569
364.217
353.413
351.732
350.46
350.223
350.112
350.766
352.66
351.273
353.417
353.559
354.177
353.242
353.931
352.709
351.445
353.285
352.778
352.929
350.946
353.791
344.913
340.821
342.007
342.012
341.502
340.821
343.391
341.852
342.51
348.093
345.347
343.67
343.738
343.749
343.956
341.694
343.077
343.042
341.706
342.072
333.452
332.659
332.12
331.066
333.513
334.006
331.94
332.248
333.46
334.104
332.499
332.842
334.565
332.998
332.402
330.189
333.211
332.586
333.246
330.915
325.469
325.466
322.179
324.057
324.785
324.783
322.941
322.271
324.067
328.033
325.933
323.247
323.685
322.794
323.426
324.841
323.347
323.162
321.665
324.833
315.003
313.792
316.543
315.117
315.369
313.286
313.979
313.849
313.836
315.26
316.903
313.827
313.877
314.061
314.076
312.979
314.768
313.651
315.626
314.57
302.369
306.371
305.412
303.411
304.295
306.407
304.434
306.1
304.855
304.494
304.573
305.789
304.243
305.592
302.836
305.67
306.76
304.791
306.017
304.62
373.507
372.512
372.124
372.214
371.998
373.636
374.192
374.618
372.066
373.006
375.513
373.97
373.9
372.962
374.424
374.019
372.844
373.392
371.817
375.816
366.023
364.494
362.705
364.937
361.299
363.631
363.352
365.511
364.471
362.304
364.945
365.55
364.015
364.295
364.348
361.308
361.693
366.906
363.59
363.67
354.526
354.406
352.852
353.405
351.863
353.332
354.95
352.797
354.816
355.392
355.471
352.649
355.749
353.611
356.693
352.085
352.522
353.248
354.327
354.036
341.182
341.611
344.001
342.158
343.177
344.328
342.083
343.539
343.117
343.962
344.411
343.6
342.644
345.512
343.375
342.148
344.053
342.053
344.532
344.215
334.122
333.053
333.977
331.627
335.329
333.95
334.916
334.288
336.446
335.494
337.123
334.682
334.982
334.093
333.67
333.581
332.416
334.551
335.195
333.01
323.98
322.398
323.509
326.405
323.574
322.83
324.346
324.245
324.455
324.813
326.539
325.069
323.554
324.22
322.72
321.812
324.922
324.198
324.197
324.134
316.078
313.227
314.522
316.235
314.448
313.39
312.98
315.706
315.44
313.059
316.336
315.468
315.447
313.569
315.056
313.712
314.919
317.742
314.671
315.194
307.288
305.447
305.889
305.308
305.884
303.827
306.061
304.585
302.93
305.739
303.476
303.708
305.859
305.298
305.605
306.414
305.717
304.065
306.52
305.417
376.282
372.574
375.299
374.872
372.487
372.974
373.742
375.928
374.911
372.857
376.265
374.109
374.599
377.454
374.266
372.435
375.362
374.718
372.618
374.443
366.252
364.447
366.395
365.152
365.067
366.018
361.585
366.264
365.661
367.251
366.25
364.916
366.519
366.179
365.089
365.658
365.417
366.626
364.607
366.672
356.41
354.384
355.004
353.338
355.266
355.713
354.974
356.376
354.578
356.29
354.063
354.236
353.43
355.065
355.74
353.897
355.183
354.201
355.378
355.913
347.246
345.259
343.598
344.815
344.417
342.612
345.194
344.377
345.676
344.921
347.007
345.795
344.412
346.033
344.906
347.201
345.68
343.943
344.108
345.463
336.145
335.489
335.146
334.447
332.076
336.305
335.828
335.096
335.034
334.757
333.681
337.87
336.124
331.838
333.991
334.632
334.492
331.954
336.845
335.682
326.35
323.349
323.479
322.729
323.507
324.381
324.755
325.378
321.065
324.159
323.346
323.872
324.911
325.435
325.99
325.94
325.166
323.753
324.574
324.191
315.314
315.623
314.997
312.939
314.001
314.546
313.858
317.878
314.066
314.265
313.204
315.069
314.5
312.746
316.023
315.892
315.063
317.519
316.286
314.492
305.089
304.028
305.11
305.518
304.179
303.918
303.515
304.911
306.638
303.196
304.451
306.1
305.232
308.109
306.132
303.917
300.795
304.853
303.319
304.418
379.557
376.843
377.814
373.385
374.873
377.151
375.609
377.499
374.763
377.904
374.247
373.655
378.27
379.837
376.139
376.405
375.951
376.735
378.832
378.906
367.864
364.767
365.904
366.612
368.324
366.429
366.39
366.947
366.043
366.647
368.166
368.032
366.414
368.027
365.223
364.966
364.839
367.021
367.659
366.791
357.968
356.311
355.377
355.433
353.567
357.065
354.092
358.598
355.287
354.077
356.768
355.759
357.092
356.704
355.525
353.818
354.747
356.321
354.907
356.183
345.726
349.778
344.206
344.324
346.423
347.294
344.602
344.878
344.926
345.003
344.949
344.5
345.914
346.847
347.406
345.973
342.339
344.947
347.373
348.295
335.382
337.292
335.787
332.773
335.149
337.245
335.135
336.249
336.156
336.643
334.315
336.74
336.523
334.601
333.983
334.598
334.575
337.081
337.322
337.03
326.865
326.673
327.381
325.751
323.021
325.045
324.706
324.704
324.031
325.22
325.212
326.302
324.704
325.742
327.038
324.649
327.073
327.272
324.201
327.816
316.643
314.008
314.881
315.827
313.803
315.801
315.86
317.089
316.963
314.061
315.661
314.54
315.536
317.191
314.438
314.526
317.021
313.029
317.641
314.14
306.855
304.291
305.425
303.596
304.765
304.084
305.464
304.306
305.707
302.341
303.58
302.98
305.146
305.717
302.667
304.835
307.112
307.438
301.478
304.765
380.064
379.056
376.999
377.678
379.156
377.698
378.715
377.702
376.846
380.576
379.469
379.103
377.436
377.997
378.373
376.402
379.047
378.568
378.577
377.995
369.843
368.985
366.264
369.787
366.458
370.548
366.901
370.576
368.928
371.305
371.166
368.063
371.325
368.656
369.76
367.685
369.699
367.354
369.338
369.421
358.281
357.867
358.903
357.577
356.253
356.187
355.189
355.957
355.077
356.915
358.999
357.909
355.915
356.926
357.497
356.295
358.656
357.953
356.591
357.373
347.754
349.088
348.093
344.794
347.162
347.866
348.695
346.919
346.423
345.717
347.571
347.91
345.576
346.482
344.193
344.988
348.676
347.052
346.063
346.903
339.222
336.385
336.042
336.812
336.068
336.563
336.046
336.138
337.367
337.191
337.008
336.836
335.94
336.317
336.548
335.694
335.328
336.348
337.034
336.884
328.543
324.156
325.816
323.817
325.036
324.23
324.138
325.005
325.474
326.407
324.714
325.041
324.607
326.449
324.834
326.927
325.046
327.386
324.509
325.287
317.958
314.704
313.715
314.233
315.498
317.194
316.874
314.303
316.362
315.73
316.649
316.781
317.234
316.098
314.613
313.864
316.825
315.623
318.336
315.055
305.424
305.47
304.526
303.861
304.208
305.199
305.305
303.735
304.852
304.352
306.728
305.559
306.329
304.766
306.411
302.447
306.633
304.076
303.065
304.741
380.894
380.361
380.631
380.032
377.238
379.626
379.681
379.063
381.225
378.803
378.133
379.731
378.393
382.105
379.128
379.234
379.065
378.367
383.531
381.036
370.069
367.801
370.115
371.199
366.846
368.963
368.522
369.699
369.947
364.78
369.012
369.002
368.233
369.443
369.412
369.236
367.438
370.161
370.684
371.738
360.421
358.337
354.213
355.762
358.198
357.286
357.451
357.985
354.998
357.953
358.174
360.456
355.987
356.083
358.077
359.995
358.19
361.001
357.502
357.559
351.015
347.514
348.383
348.619
345.459
347.659
346.317
345.705
348.307
348.008
347.024
346.528
345.87
346.015
347.574
347.225
344.924
348.949
348.987
347.105
338.852
336.169
338.721
335.949
335.542
336.838
335.931
336.503
336.666
338.539
338.201
336.106
336.86
335.135
337.398
336.269
337.051
334.88
336.437
339.495
327.198
325.088
326.11
325.608
325.601
326.027
325.682
327.989
326.13
327.483
324.435
328.001
327.597
327.096
326.539
326.553
326.388
324.833
327.917
327.563
317.361
315.801
315.248
316.8
317.749
316.131
316.568
317.284
314.585
316.172
315.877
318.12
313.955
314.151
314.364
315.774
315.21
315.437
316.198
317.029
303.774
303.504
307.369
307.313
305.483
305.641
304.079
304.073
304.36
304.243
305.681
306.443
303.26
305.478
304.797
304.694
304.661
304.756
305.383
304.972
)
;

boundaryField
{
    hotSide
    {
        type            fixedGradient;
        gradient        nonuniform List<scalar> 
400
(
321.511
322.87
325.591
329.677
335.133
341.965
350.181
359.788
370.794
383.208
397.037
412.289
428.971
447.088
466.647
487.651
510.105
534.011
559.372
586.191
323.738
325.08
327.767
331.802
337.194
343.949
352.078
361.591
372.498
384.81
398.537
413.687
430.268
448.289
467.755
488.672
511.043
534.872
560.161
586.913
326.149
327.47
330.116
334.091
339.406
346.071
354.099
363.503
374.296
386.491
400.101
415.136
431.606
449.52
468.885
489.706
511.988
535.735
560.948
587.63
328.704
330
332.597
336.503
341.73
348.292
356.205
365.485
376.15
388.215
401.695
416.604
432.954
450.753
470.009
490.73
512.919
536.579
561.714
588.325
331.33
332.599
335.142
338.97
344.099
350.546
358.332
367.477
378.003
389.928
403.271
418.047
434.27
451.949
471.095
491.712
513.807
537.382
562.439
588.978
333.918
335.158
337.643
341.389
346.414
352.74
360.392
369.397
379.779
391.562
404.765
419.407
435.503
453.065
472.101
492.618
514.622
538.114
563.096
589.569
336.321
337.531
339.959
343.622
348.544
354.751
362.274
371.142
381.385
393.031
406.101
420.618
436.595
454.047
472.983
493.409
515.33
538.747
563.663
590.076
338.36
339.543
341.92
345.509
350.339
356.44
363.847
372.595
382.718
394.244
407.2
421.608
437.485
454.844
473.695
494.045
515.897
539.253
564.114
590.478
339.852
341.015
343.352
346.885
351.645
357.665
364.985
373.643
383.675
395.113
407.984
422.312
438.116
455.407
474.197
494.491
516.294
539.606
564.428
590.758
340.643
341.795
344.11
347.613
352.334
358.311
365.584
374.193
384.176
395.567
408.393
422.679
438.443
455.699
474.456
494.722
516.498
539.788
564.589
590.901
340.643
341.795
344.11
347.613
352.334
358.311
365.584
374.193
384.176
395.567
408.393
422.679
438.443
455.699
474.456
494.722
516.498
539.788
564.589
590.901
339.852
341.015
343.352
346.885
351.645
357.665
364.985
373.643
383.675
395.113
407.984
422.312
438.116
455.407
474.197
494.491
516.294
539.606
564.428
590.758
338.36
339.543
341.92
345.509
350.339
356.44
363.847
372.595
382.718
394.244
407.2
421.608
437.485
454.844
473.695
494.045
515.897
539.253
564.114
590.478
336.321
337.531
339.959
343.622
348.544
354.751
362.274
371.142
381.385
393.031
406.101
420.618
436.595
454.047
472.983
493.409
515.33
538.747
563.663
590.076
333.918
335.158
337.643
341.389
346.414
352.74
360.392
369.397
379.779
391.562
404.765
419.407
435.503
453.065
472.101
492.618
514.622
538.114
563.096
589.569
331.33
332.599
335.142
338.97
344.099
350.546
358.332
367.477
378.003
389.928
403.271
418.047
434.27
451.949
471.095
491.712
513.807
537.382
562.439
588.978
328.704
330
332.597
336.503
341.73
348.292
356.205
365.485
376.15
388.215
401.695
416.604
432.954
450.753
470.009
490.73
512.919
536.579
561.714
588.325
326.149
327.47
330.116
334.091
339.406
346.071
354.099
363.503
374.296
386.491
400.101
415.136
431.606
449.52
468.885
489.706
511.988
535.735
560.948
587.63
323.738
325.08
327.767
331.802
337.194
343.949
352.078
361.591
372.498
384.81
398.537
413.687
430.268
448.289
467.755
488.672
511.043
534.872
560.161
586.913
321.511
322.87
325.591
329.677
335.133
341.965
350.181
359.788
370.794
383.208
397.037
412.289
428.971
447.088
466.647
487.651
510.105
534.011
559.372
586.191
)
;
    }
    coldSide
    {
        type            mixed;
        refValue        uniform 300;
        refGradient     uniform 0;
        valueFraction   uniform 0.991591;
        source          uniform 0;
        value           nonuniform List<scalar> 
400
(
299.998
300.024
300.022
300.022
300.001
300.035
300.024
300.028
300.027
300.021
300.043
300.043
300.025
300.046
300.02
300.061
300.043
300.058
300.046
300.032
300.025
300.008
300.025
300.03
300.045
300.021
300.013
300.045
300.035
300.034
300.045
300.053