/*--------------------------------*- C++ -*----------------------------------*\
| =========                 |                                                 |
| \\      /  F ield         | OpenFOAM: The Open Source CFD Toolbox           |
|  \\    /   O peration     | Version:  2212                                  |
|   \\  /    A nd           | Website:  www.openfoam.com                      |
|    \\/     M anipulation  |                                                 |
\*---------------------------------------------------------------------------*/
FoamFile
{
    version     2.0;
    format      ascii;
    arch        "LSB;label=32;scalar=64";
    class       volScalarField;
    location    "./ITHACAoutput/true/6.6";
    object      trueState;
}
// * * * * * * * * * * * * * * * * * * * * * * * * * * * * * * * * * * * * * //

dimensions      [0 0 0 1 0 0 0];

internalField   nonuniform List<scalar> 
3200
(
349.883
350.529
351.355
352.255
353.182
354.091
354.931
355.639
356.156
356.429
356.429
356.156
355.639
354.931
354.091
353.182
352.255
351.355
350.529
349.883
343.261
343.809
344.521
345.299
346.101
346.888
347.614
348.226
348.672
348.907
348.907
348.672
348.226
347.614
346.888
346.101
345.299
344.521
343.809
343.261
336.628
337.082
337.682
338.34
339.018
339.682
340.295
340.812
341.188
341.387
341.387
341.188
340.812
340.295
339.682
339.018
338.34
337.682
337.082
336.628
329.986
330.352
330.841
331.378
331.932
332.475
332.976
333.398
333.705
333.867
333.867
333.705
333.398
332.976
332.475
331.932
331.378
330.841
330.352
329.986
323.336
323.617
323.996
324.414
324.845
325.267
325.656
325.983
326.222
326.347
326.347
326.222
325.983
325.656
325.267
324.845
324.414
323.996
323.617
323.336
316.681
316.88
317.15
317.448
317.756
318.057
318.335
318.569
318.739
318.828
318.828
318.739
318.569
318.335
318.057
317.756
317.448
317.15
316.88
316.681
310.021
310.14
310.302
310.481
310.666
310.847
311.013
311.154
311.256
311.31
311.31
311.256
311.154
311.013
310.847
310.666
310.481
310.302
310.14
310.021
303.36
303.399
303.454
303.514
303.575
303.636
303.692
303.739
303.773
303.791
303.791
303.773
303.739
303.692
303.636
303.575
303.514
303.454
303.399
303.36
350.053
350.694
351.513
352.404
353.322
354.221
355.051
355.751
356.26
356.53
356.53
356.26
355.751
355.051
354.221
353.322
352.404
351.513
350.694
350.053
343.408
343.951
344.657
345.429
346.222
347.001
347.718
348.323
348.763
348.995
348.995
348.763
348.323
347.718
347.001
346.222
345.429
344.657
343.951
343.408
336.753
337.203
337.798
338.449
339.12
339.778
340.384
340.894
341.265
341.461
341.461
341.265
340.894
340.384
339.778
339.12
338.449
337.798
337.203
336.753
330.088
330.45
330.935
331.468
332.016
332.553
333.048
333.465
333.768
333.928
333.928
333.768
333.465
333.048
332.553
332.016
331.468
330.935
330.45
330.088
323.415
323.694
324.07
324.484
324.91
325.327
325.712
326.036
326.271
326.395
326.395
326.271
326.036
325.712
325.327
324.91
324.484
324.07
323.694
323.415
316.737
316.934
317.203
317.498
317.802
318.101
318.375
318.606
318.774
318.862
318.862
318.774
318.606
318.375
318.101
317.802
317.498
317.203
316.934
316.737
310.055
310.173
310.334
310.511
310.694
310.873
311.038
311.176
311.277
311.33
311.33
311.277
311.176
311.038
310.873
310.694
310.511
310.334
310.173
310.055
303.371
303.41
303.464
303.524
303.585
303.645
303.7
303.746
303.78
303.798
303.798
303.78
303.746
303.7
303.645
303.585
303.524
303.464
303.41
303.371
350.394
351.025
351.83
352.704
353.603
354.483
355.294
355.977
356.473
356.735
356.735
356.473
355.977
355.294
354.483
353.603
352.704
351.83
351.025
350.394
343.703
344.238
344.932
345.689
346.467
347.228
347.929
348.519
348.948
349.174
349.174
348.948
348.519
347.929
347.228
346.467
345.689
344.932
344.238
343.703
337.002
337.445
338.03
338.67
339.327
339.97
340.562
341.06
341.422
341.613
341.613
341.422
341.06
340.562
339.97
339.327
338.67
338.03
337.445
337.002
330.292
330.648
331.125
331.648
332.185
332.711
333.194
333.601
333.897
334.052
334.052
333.897
333.601
333.194
332.711
332.185
331.648
331.125
330.648
330.292
323.574
323.848
324.218
324.624
325.042
325.45
325.826
326.142
326.371
326.492
326.492
326.371
326.142
325.826
325.45
325.042
324.624
324.218
323.848
323.574
316.851
317.044
317.308
317.598
317.896
318.188
318.456
318.682
318.846
318.932
318.932
318.846
318.682
318.456
318.188
317.896
317.598
317.308
317.044
316.851
310.123
310.239
310.397
310.571
310.75
310.926
311.087
311.222
311.32
311.372
311.372
311.32
311.222
311.087
310.926
310.75
310.571
310.397
310.239
310.123
303.394
303.432
303.485
303.544
303.604
303.662
303.716
303.762
303.795
303.812
303.812
303.795
303.762
303.716
303.662
303.604
303.544
303.485
303.432
303.394
350.907
351.523
352.308
353.158
354.031
354.883
355.666
356.324
356.802
357.054
357.054
356.802
356.324
355.666
354.883
354.031
353.158
352.308
351.523
350.907
344.147
344.669
345.346
346.082
346.837
347.574
348.251
348.82
349.233
349.451
349.451
349.233
348.82
348.251
347.574
346.837
346.082
345.346
344.669
344.147
337.377
337.81
338.38
339.002
339.64
340.263
340.835
341.316
341.664
341.848
341.848
341.664
341.316
340.835
340.263
339.64
339.002
338.38
337.81
337.377
330.598
330.947
331.411
331.92
332.442
332.951
333.418
333.81
334.095
334.245
334.245
334.095
333.81
333.418
332.951
332.442
331.92
331.411
330.947
330.598
323.812
324.08
324.44
324.835
325.241
325.637
326
326.304
326.525
326.642
326.642
326.525
326.304
326
325.637
325.241
324.835
324.44
324.08
323.812
317.021
317.21
317.467
317.749
318.039
318.322
318.581
318.798
318.956
319.039
319.039
318.956
318.798
318.581
318.322
318.039
317.749
317.467
317.21
317.021
310.226
310.339
310.493
310.662
310.836
311.006
311.161
311.292
311.386
311.436
311.436
311.386
311.292
311.161
311.006
310.836
310.662
310.493
310.339
310.226
303.428
303.466
303.517
303.574
303.632
303.689
303.741
303.785
303.817
303.834
303.834
303.817
303.785
303.741
303.689
303.632
303.574
303.517
303.466
303.428
351.593
352.191
352.95
353.77
354.609
355.425
356.173
356.801
357.256
357.495
357.495
357.256
356.801
356.173
355.425
354.609
353.77
352.95
352.191
351.593
344.742
345.248
345.902
346.612
347.338
348.045
348.692
349.234
349.627
349.834
349.834
349.627
349.234
348.692
348.045
347.338
346.612
345.902
345.248
344.742
337.88
338.299
338.851
339.451
340.064
340.662
341.208
341.666
341.998
342.173
342.173
341.998
341.666
341.208
340.662
340.064
339.451
338.851
338.299
337.88
331.009
331.347
331.796
332.287
332.788
333.277
333.723
334.098
334.368
334.511
334.511
334.368
334.098
333.723
333.277
332.788
332.287
331.796
331.347
331.009
324.132
324.391
324.74
325.121
325.511
325.89
326.237
326.528
326.738
326.849
326.849
326.738
326.528
326.237
325.89
325.511
325.121
324.74
324.391
324.132
317.249
317.433
317.681
317.953
318.232
318.503
318.751
318.958
319.108
319.187
319.187
319.108
318.958
318.751
318.503
318.232
317.953
317.681
317.433
317.249
310.363
310.472
310.621
310.785
310.952
311.114
311.263
311.388
311.478
311.525
311.525
311.478
311.388
311.263
311.114
310.952
310.785
310.621
310.472
310.363
303.474
303.511
303.56
303.615
303.671
303.726
303.776
303.817
303.848
303.863
303.863
303.848
303.817
303.776
303.726
303.671
303.615
303.56
303.511
303.474
352.457
353.032
353.76
354.544
355.344
356.119
356.827
357.419
357.847
358.072
358.072
357.847
357.419
356.827
356.119
355.344
354.544
353.76
353.032
352.457
345.489
345.976
346.604
347.283
347.975
348.646
349.258
349.77
350.14
350.335
350.335
350.14
349.77
349.258
348.646
347.975
347.283
346.604
345.976
345.489
338.511
338.915
339.444
340.018
340.603
341.17
341.688
342.12
342.433
342.597
342.597
342.433
342.12
341.688
341.17
340.603
340.018
339.444
338.915
338.511
331.525
331.851
332.282
332.751
333.229
333.693
334.116
334.469
334.724
334.858
334.858
334.724
334.469
334.116
333.693
333.229
332.751
332.282
331.851
331.525
324.533
324.783
325.117
325.482
325.854
326.214
326.543
326.817
327.016
327.12
327.12
327.016
326.817
326.543
326.214
325.854
325.482
325.117
324.783
324.533
317.536
317.712
317.951
318.211
318.477
318.734
318.969
319.165
319.306
319.381
319.381
319.306
319.165
318.969
318.734
318.477
318.211
317.951
317.712
317.536
310.535
310.64
310.783
310.94
311.099
311.254
311.394
311.512
311.597
311.642
311.642
311.597
311.512
311.394
311.254
311.099
310.94
310.783
310.64
310.535
303.532
303.567
303.615
303.667
303.721
303.772
303.82
303.859
303.887
303.902
303.902
303.887
303.859
303.82
303.772
303.721
303.667
303.615
303.567
303.532
353.499
354.049
354.742
355.487
356.242
356.972
357.636
358.189
358.588
358.797
358.797
358.588
358.189
357.636
356.972
356.242
355.487
354.742
354.049
353.499
346.391
346.857
347.455
348.1
348.753
349.385
349.96
350.438
350.783
350.964
350.964
350.783
350.438
349.96
349.385
348.753
348.1
347.455
346.857
346.391
339.274
339.66
340.164
340.709
341.262
341.796
342.281
342.686
342.977
343.13
343.13
342.977
342.686
342.281
341.796
341.262
340.709
340.164
339.66
339.274
332.149
332.46
332.871
333.316
333.768
334.205
334.602
334.932
335.17
335.295
335.295
335.17
334.932
334.602
334.205
333.768
333.316
332.871
332.46
332.149
325.018
325.256
325.575
325.921
326.273
326.613
326.921
327.178
327.363
327.459
327.459
327.363
327.178
326.921
326.613
326.273
325.921
325.575
325.256
325.018
317.882
318.051
318.278
318.525
318.776
319.019
319.239
319.422
319.554
319.624
319.624
319.554
319.422
319.239
319.019
318.776
318.525
318.278
318.051
317.882
310.743
310.843
310.98
311.128
311.279
311.425
311.557
311.667
311.746
311.788
311.788
311.746
311.667
311.557
311.425
311.279
311.128
310.98
310.843
310.743
303.601
303.635
303.681
303.73
303.781
303.83
303.874
303.911
303.937
303.951
303.951
303.937
303.911
303.874
303.83
303.781
303.73
303.681
303.635
303.601
354.723
355.245
355.902
356.604
357.312
357.994
358.611
359.123
359.492
359.685
359.685
359.492
359.123
358.611
357.994
357.312
356.604
355.902
355.245
354.723
347.451
347.893
348.459
349.067
349.68
350.271
350.805
351.248
351.567
351.734
351.734
351.567
351.248
350.805
350.271
349.68
349.067
348.459
347.893
347.451
340.17
340.536
341.014
341.527
342.046
342.545
342.997
343.371
343.641
343.782
343.782
343.641
343.371
342.997
342.545
342.046
341.527
341.014
340.536
340.17
332.881
333.177
333.566
333.986
334.41
334.818
335.187
335.493
335.713
335.829
335.829
335.713
335.493
335.187
334.818
334.41
333.986
333.566
333.177
332.881
325.587
325.814
326.116
326.442
326.772
327.089
327.376
327.614
327.785
327.875
327.875
327.785
327.614
327.376
327.089
326.772
326.442
326.116
325.814
325.587
318.288
318.449
318.664
318.897
319.133
319.36
319.565
319.735
319.857
319.921
319.921
319.857
319.735
319.565
319.36
319.133
318.897
318.664
318.449
318.288
310.987
311.082
311.212
311.352
311.493
311.629
311.752
311.854
311.928
311.966
311.966
311.928
311.854
311.752
311.629
311.493
311.352
311.212
311.082
310.987
303.683
303.715
303.758
303.805
303.853
303.898
303.94
303.974
303.998
304.011
304.011
303.998
303.974
303.94
303.898
303.853
303.805
303.758
303.715
303.683
356.132
356.626
357.243
357.901
358.561
359.192
359.762
360.233
360.571
360.747
360.747
360.571
360.233
359.762
359.192
358.561
357.901
357.243
356.626
356.132
348.671
349.088
349.621
350.19
350.762
351.309
351.802
352.21
352.502
352.655
352.655
352.502
352.21
351.802
351.309
350.762
350.19
349.621
349.088
348.671
341.201
341.547
341.996
342.478
342.961
343.424
343.841
344.185
344.432
344.561
344.561
344.432
344.185
343.841
343.424
342.961
342.478
341.996
341.547
341.201
333.724
334.003
334.37
334.763
335.158
335.537
335.878
336.16
336.361
336.467
336.467
336.361
336.16
335.878
335.537
335.158
334.763
334.37
334.003
333.724
326.243
326.457
326.741
327.047
327.354
327.649
327.914
328.133
328.29
328.372
328.372
328.29
328.133
327.914
327.649
327.354
327.047
326.741
326.457
326.243
318.757
318.908
319.111
319.329
319.549
319.759
319.949
320.105
320.217
320.276
320.276
320.217
320.105
319.949
319.759
319.549
319.329
319.111
318.908
318.757
311.268
311.358
311.48
311.611
311.743
311.869
311.983
312.077
312.144
312.179
312.179
312.144
312.077
311.983
311.869
311.743
311.611
311.48
311.358
311.268
303.777
303.808
303.848
303.892
303.936
303.979
304.017
304.048
304.071
304.083
304.083
304.071
304.048
304.017
303.979
303.936
303.892
303.848
303.808
303.777
357.729
358.193
358.771
359.383
359.994
360.576
361.099
361.529
361.836
361.997
361.997
361.836
361.529
361.099
360.576
359.994
359.383
358.771
358.193
357.729
350.053
350.446
350.945
351.474
352.004
352.508
352.961
353.333
353.599
353.738
353.738
353.599
353.333
352.961
352.508
352.004
351.474
350.945
350.446
350.053
342.37
342.695
343.116
343.564
344.012
344.438
344.821
345.136
345.361
345.478
345.478
345.361
345.136
344.821
344.438
344.012
343.564
343.116
342.695
342.37
334.68
334.942
335.285
335.651
336.018
336.367
336.68
336.937
337.121
337.217
337.217
337.121
336.937
336.68
336.367
336.018
335.651
335.285
334.942
334.68
326.986
327.187
327.453
327.738
328.023
328.294
328.537
328.737
328.88
328.955
328.955
328.88
328.737
328.537
328.294
328.023
327.738
327.453
327.187
326.986
319.288
319.43
319.619
319.823
320.026
320.22
320.394
320.537
320.639
320.693
320.693
320.639
320.537
320.394
320.22
320.026
319.823
319.619
319.43
319.288
311.587
311.672
311.785
311.907
312.03
312.146
312.251
312.336
312.398
312.43
312.43
312.398
312.336
312.251
312.146
312.03
311.907
311.785
311.672
311.587
303.884
303.913
303.951
303.992
304.033
304.072
304.107
304.135
304.156
304.167
304.167
304.156
304.135
304.107
304.072
304.033
303.992
303.951
303.913
303.884
359.518
359.951
360.489
361.056
361.619
362.153
362.629
363.02
363.298
363.443
363.443
363.298
363.02
362.629
362.153
361.619
361.056
360.489
359.951
359.518
351.602
351.969
352.433
352.924
353.412
353.874
354.286
354.625
354.866
354.991
354.991
354.866
354.625
354.286
353.874
353.412
352.924
352.433
351.969
351.602
343.679
343.983
344.374
344.789
345.202
345.593
345.942
346.229
346.432
346.538
346.538
346.432
346.229
345.942
345.593
345.202
344.789
344.374
343.983
343.679
335.751
335.996
336.315
336.654
336.992
337.312
337.597
337.831
337.998
338.085
338.085
337.998
337.831
337.597
337.312
336.992
336.654
336.315
335.996
335.751
327.818
328.006
328.253
328.517
328.78
329.029
329.251
329.433
329.563
329.63
329.63
329.563
329.433
329.251
329.029
328.78
328.517
328.253
328.006
327.818
319.882
320.015
320.191
320.38
320.568
320.745
320.904
321.034
321.127
321.175
321.175
321.127
321.034
320.904
320.745
320.568
320.38
320.191
320.015
319.882
311.944
312.023
312.129
312.242
312.355
312.462
312.557
312.635
312.69
312.719
312.719
312.69
312.635
312.557
312.462
312.355
312.242
312.129
312.023
311.944
304.004
304.03
304.066
304.104
304.141
304.177
304.209
304.235
304.254
304.264
304.264
304.254
304.235
304.209
304.177
304.141
304.104
304.066
304.03
304.004
361.499
361.903
362.402
362.924
363.441
363.927
364.36
364.713
364.964
365.094
365.094
364.964
364.713
364.36
363.927
363.441
362.924
362.402
361.903
361.499
353.317
353.659
354.089
354.542
354.989
355.411
355.786
356.092
356.309
356.422
356.422
356.309
356.092
355.786
355.411
354.989
354.542
354.089
353.659
353.317
345.129
345.413
345.775
346.158
346.537
346.894
347.211
347.47
347.653
347.749
347.749
347.653
347.47
347.211
346.894
346.537
346.158
345.775
345.413
345.129
336.937
337.165
337.46
337.773
338.083
338.375
338.635
338.846
338.997
339.075
339.075
338.997
338.846
338.635
338.375
338.083
337.773
337.46
337.165
336.937
328.74
328.915
329.145
329.388
329.629
329.856
330.058
330.223
330.339
330.4
330.4
330.339
330.223
330.058
329.856
329.629
329.388
329.145
328.915
328.74
320.541
320.664
320.828
321.002
321.174
321.336
321.481
321.598
321.682
321.725
321.725
321.682
321.598
321.481
321.336
321.174
321.002
320.828
320.664
320.541
312.339
312.413
312.511
312.615
312.719
312.816
312.903
312.974
313.024
313.05
313.05
313.024
312.974
312.903
312.816
312.719
312.615
312.511
312.413
312.339
304.136
304.161
304.194
304.229
304.264
304.296
304.325
304.349
304.366
304.375
304.375
304.366
304.349
304.325
304.296
304.264
304.229
304.194
304.161
304.136
363.676
364.051
364.511
364.991
365.463
365.905
366.296
366.614
366.839
366.956
366.956
366.839
366.614
366.296
365.905
365.463
364.991
364.511
364.051
363.676
355.202
355.519
355.916
356.332
356.741
357.124
357.463
357.739
357.934
358.035
358.035
357.934
357.739
357.463
357.124
356.741
356.332
355.916
355.519
355.202
346.723
346.986
347.32
347.672
348.018
348.343
348.629
348.863
349.028
349.113
349.113
349.028
348.863
348.629
348.343
348.018
347.672
347.32
346.986
346.723
338.239
338.451
338.724
339.012
339.295
339.56
339.795
339.986
340.121
340.191
340.191
340.121
339.986
339.795
339.56
339.295
339.012
338.724
338.451
338.239
329.753
329.915
330.127
330.351
330.571
330.778
330.96
331.109
331.214
331.268
331.268
331.214
331.109
330.96
330.778
330.571
330.351
330.127
329.915
329.753
321.264
321.379
321.53
321.69
321.847
321.995
322.125
322.231
322.306
322.345
322.345
322.306
322.231
322.125
321.995
321.847
321.69
321.53
321.379
321.264
312.773
312.842
312.933
313.029
313.123
313.212
313.29
313.354
313.399
313.422
313.422
313.399
313.354
313.29
313.212
313.123
313.029
312.933
312.842
312.773
304.282
304.305
304.335
304.367
304.399
304.429
304.455
304.476
304.492
304.499
304.499
304.492
304.476
304.455
304.429
304.399
304.367
304.335
304.305
304.282
366.048
366.395
366.819
367.258
367.688
368.089
368.441
368.727
368.928
369.032
369.032
368.928
368.727
368.441
368.089
367.688
367.258
366.819
366.395
366.048
357.256
357.549
357.915
358.295
358.668
359.015
359.321
359.568
359.743
359.833
359.833
359.743
359.568
359.321
359.015
358.668
358.295
357.915
357.549
357.256
348.459
348.702
349.01
349.332
349.647
349.941
350.2
350.409
350.557
350.634
350.634
350.557
350.409
350.2
349.941
349.647
349.332
349.01
348.702
348.459
339.659
339.854
340.106
340.369
340.627
340.868
341.079
341.251
341.372
341.434
341.434
341.372
341.251
341.079
340.868
340.627
340.369
340.106
339.854
339.659
330.856
331.007
331.202
331.406
331.607
331.794
331.959
332.092
332.186
332.235
332.235
332.186
332.092
331.959
331.794
331.607
331.406
331.202
331.007
330.856
322.052
322.158
322.298
322.444
322.587
322.721
322.839
322.934
323.001
323.036
323.036
323.001
322.934
322.839
322.721
322.587
322.444
322.298
322.158
322.052
313.247
313.31
313.394
313.481
313.568
313.648
313.719
313.776
313.816
313.837
313.837
313.816
313.776
313.719
313.648
313.568
313.481
313.394
313.31
313.247
304.441
304.462
304.49
304.519
304.548
304.575
304.599
304.618
304.631
304.638
304.638
304.631
304.618
304.599
304.575
304.548
304.519
304.49
304.462
304.441
368.613
368.933
369.322
369.724
370.114
370.476
370.793
371.049
371.229
371.322
371.322
371.229
371.049
370.793
370.476
370.114
369.724
369.322
368.933
368.613
359.475
359.746
360.082
360.429
360.768
361.082
361.357
361.578
361.734
361.815
361.815
361.734
361.578
361.357
361.082
360.768
360.429
360.082
359.746
359.475
350.335
350.559
350.842
351.136
351.423
351.688
351.921
352.109
352.241
352.309
352.309
352.241
352.109
351.921
351.688
351.423
351.136
350.842
350.559
350.335
341.192
341.373
341.604
341.844
342.079
342.296
342.487
342.64
342.748
342.804
342.804
342.748
342.64
342.487
342.296
342.079
341.844
341.604
341.373
341.192
332.048
332.187
332.366
332.553
332.735
332.905
333.053
333.173
333.257
333.3
333.3
333.257
333.173
333.053
332.905
332.735
332.553
332.366
332.187
332.048
322.903
323.001
323.129
323.263
323.393
323.514
323.62
323.706
323.766
323.797
323.797
323.766
323.706
323.62
323.514
323.393
323.263
323.129
323.001
322.903
313.758
313.816
313.893
313.973
314.051
314.124
314.188
314.239
314.275
314.294
314.294
314.275
314.239
314.188
314.124
314.051
313.973
313.893
313.816
313.758
304.612
304.631
304.657
304.684
304.71
304.735
304.756
304.773
304.785
304.791
304.791
304.785
304.773
304.756
304.735
304.71
304.684
304.657
304.631
304.612
371.361
371.655
372.011
372.377
372.731
373.058
373.343
373.572
373.732
373.815
373.815
373.732
373.572
373.343
373.058
372.731
372.377
372.011
371.655
371.361
361.851
362.1
362.408
362.725
363.032
363.315
363.562
363.761
363.9
363.972
363.972
363.9
363.761
363.562
363.315
363.032
362.725
362.408
362.1
361.851
352.341
352.548
352.807
353.075
353.335
353.575
353.784
353.952
354.07
354.131
354.131
354.07
353.952
353.784
353.575
353.335
353.075
352.807
352.548
352.341
342.831
342.997
343.209
343.428
343.641
343.837
344.009
344.146
344.243
344.293
344.293
344.243
344.146
344.009
343.837
343.641
343.428
343.209
342.997
342.831
333.322
333.449
333.613
333.784
333.95
334.102
334.236
334.343
334.418
334.457
334.457
334.418
334.343
334.236
334.102
333.95
333.784
333.613
333.449
333.322
323.812
323.903
324.02
324.142
324.26
324.369
324.464
324.541
324.595
324.622
324.622
324.595
324.541
324.464
324.369
324.26
324.142
324.02
323.903
323.812
314.303
314.357
314.427
314.501
314.572
314.637
314.695
314.741
314.773
314.79
314.79
314.773
314.741
314.695
314.637
314.572
314.501
314.427
314.357
314.303
304.795
304.813
304.836
304.861
304.885
304.907
304.926
304.941
304.952
304.958
304.958
304.952
304.941
304.926
304.907
304.885
304.861
304.836
304.813
304.795
374.261
374.531
374.858
375.191
375.512
375.806
376.062
376.267
376.411
376.484
376.484
376.411
376.267
376.062
375.806
375.512
375.191
374.858
374.531
374.261
364.355
364.583
364.865
365.154
365.432
365.688
365.91
366.088
366.212
366.276
366.276
366.212
366.088
365.91
365.688
365.432
365.154
364.865
364.583
364.355
354.452
354.642
354.879
355.124
355.36
355.576
355.764
355.915
356.02
356.074
356.074
356.02
355.915
355.764
355.576
355.36
355.124
354.879
354.642
354.452
344.553
344.706
344.9
345.1
345.293
345.47
345.624
345.747
345.833
345.878
345.878
345.833
345.747
345.624
345.47
345.293
345.1
344.9
344.706
344.553
334.658
334.775
334.925
335.081
335.231
335.369
335.489
335.585
335.652
335.687
335.687
335.652
335.585
335.489
335.369
335.231
335.081
334.925
334.775
334.658
324.765
324.848
324.956
325.067
325.174
325.273
325.358
325.427
325.475
325.5
325.5
325.475
325.427
325.358
325.273
325.174
325.067
324.956
324.848
324.765
314.875
314.925
314.989
315.056
315.12
315.179
315.231
315.272
315.301
315.316
315.316
315.301
315.272
315.231
315.179
315.12
315.056
314.989
314.925
314.875
304.986
305.003
305.024
305.047
305.068
305.088
305.105
305.119
305.129
305.134
305.134
305.129
305.119
305.105
305.088
305.068
305.047
305.024
305.003
304.986
377.239
377.488
377.787
378.091
378.383
378.649
378.879
379.063
379.191
379.257
379.257
379.191
379.063
378.879
378.649
378.383
378.091
377.787
377.488
377.239
366.914
367.124
367.383
367.646
367.899
368.131
368.331
368.49
368.602
368.659
368.659
368.602
368.49
368.331
368.131
367.899
367.646
367.383
367.124
366.914
356.601
356.776
356.994
357.217
357.431
357.627
357.797
357.932
358.026
358.075
358.075
358.026
357.932
357.797
357.627
357.431
357.217
356.994
356.776
356.601
346.3
346.441
346.618
346.801
346.977
347.137
347.276
347.387
347.464
347.504
347.504
347.464
347.387
347.276
347.137
346.977
346.801
346.618
346.441
346.3
336.009
336.117
336.255
336.397
336.534
336.659
336.767
336.854
336.914
336.945
336.945
336.914
336.854
336.767
336.659
336.534
336.397
336.255
336.117
336.009
325.727
325.803
325.902
326.003
326.101
326.191
326.268
326.33
326.373
326.395
326.395
326.373
326.33
326.268
326.191
326.101
326.003
325.902
325.803
325.727
315.451
315.497
315.556
315.617
315.675
315.729
315.776
315.813
315.839
315.852
315.852
315.839
315.813
315.776
315.729
315.675
315.617
315.556
315.497
315.451
305.179
305.194
305.214
305.234
305.254
305.272
305.288
305.3
305.309
305.313
305.313
305.309
305.3
305.288
305.272
305.254
305.234
305.214
305.194
305.179
380.105
380.335
380.61
380.89
381.156
381.399
381.608
381.775
381.891
381.95
381.95
381.891
381.775
381.608
381.399
381.156
380.89
380.61
380.335
380.105
369.346
369.541
369.779
370.022
370.254
370.465
370.647
370.791
370.892
370.944
370.944
370.892
370.791
370.647
370.465
370.254
370.022
369.779
369.541
369.346
358.622
358.783
358.985
359.19
359.387
359.566
359.72
359.843
359.928
359.972
359.972
359.928
359.843
359.72
359.566
359.387
359.19
358.985
358.783
358.622
347.927
348.057
348.222
348.39
348.552
348.698
348.825
348.926
348.996
349.032
349.032
348.996
348.926
348.825
348.698
348.552
348.39
348.222
348.057
347.927
337.259
337.359
337.487
337.618
337.743
337.858
337.957
338.035
338.09
338.118
338.118
338.09
338.035
337.957
337.858
337.743
337.618
337.487
337.359
337.259
326.611
326.682
326.773
326.867
326.957
327.039
327.109
327.166
327.205
327.225
327.225
327.205
327.166
327.109
327.039
326.957
326.867
326.773
326.682
326.611
315.979
316.021
316.076
316.132
316.186
316.235
316.278
316.311
316.335
316.347
316.347
316.335
316.311
316.278
316.235
316.186
316.132
316.076
316.021
315.979
305.355
305.369
305.388
305.407
305.425
305.441
305.455
305.467
305.475
305.479
305.479
305.475
305.467
305.455
305.441
305.425
305.407
305.388
305.369
305.355
382.352
382.568
382.828
383.09
383.339
383.566
383.76
383.915
384.022
384.077
384.077
384.022
383.915
383.76
383.566
383.339
383.09
382.828
382.568
382.352
371.182
371.365
371.59
371.819
372.036
372.234
372.403
372.538
372.632
372.68
372.68
372.632
372.538
372.403
372.234
372.036
371.819
371.59
371.365
371.182
360.099
360.252
360.442
360.636
360.821
360.989
361.134
361.249
361.328
361.369
361.369
361.328
361.249
361.134
360.989
360.821
360.636
360.442
360.252
360.099
349.088
349.211
349.367
349.526
349.678
349.817
349.935
350.03
350.095
350.129
350.129
350.095
350.03
349.935
349.817
349.678
349.526
349.367
349.211
349.088
338.133
338.228
338.349
338.474
338.592
338.7
338.793
338.866
338.918
338.944
338.944
338.918
338.866
338.793
338.7
338.592
338.474
338.349
338.228
338.133
327.221
327.289
327.375
327.464
327.549
327.626
327.693
327.746
327.782
327.801
327.801
327.782
327.746
327.693
327.626
327.549
327.464
327.375
327.289
327.221
316.339
316.38
316.432
316.485
316.536
316.583
316.623
316.654
316.676
316.688
316.688
316.676
316.654
316.623
316.583
316.536
316.485
316.432
316.38
316.339
305.475
305.489
305.506
305.524
305.541
305.557
305.57
305.581
305.588
305.592
305.592
305.588
305.581
305.57
305.557
305.541
305.524
305.506
305.489
305.475
)
;

boundaryField
{
    hotSide
    {
        type            fixedGradient;
        gradient        nonuniform List<scalar> 
400
(
528.671
530.509
534.193
539.735
547.155
556.477
567.728
580.938
596.139
613.361
632.634
653.987
677.446
703.034
730.771
760.676
792.762
827.041
863.523
902.216
537.179
538.95
542.502
547.851
555.024
564.053
574.974
587.826
602.648
619.481
638.361
659.324
682.401
707.62
735.004
764.573
796.344
830.329
866.537
904.975
546.387
548.078
551.471
556.592
563.474
572.158
582.693
595.128
609.514
625.901
644.335
664.859
687.51
712.321
739.318
768.524
799.954
833.624
869.541
907.713
556.142
557.739
560.949
565.805
572.35
580.639
590.733
602.696
616.592
632.483
650.424
670.468
692.657
717.028
743.613
772.433
803.508
836.85
872.468
910.366
566.171
567.663
570.668
575.226
581.397
589.248
598.857
610.304
623.669
639.026
656.442
675.978
697.683
721.599
747.758
776.186
806.901
839.914
875.233
912.861
576.056
577.435
580.22
584.463
590.236
597.625
606.726
617.637
630.454
645.264
662.147
681.171
702.393
725.858
751.601
779.647
810.013
842.711
877.746
915.118
585.232
586.498
589.064
592.993
598.372
605.306
613.911
624.3
636.588
650.875
667.251
685.794
706.564
729.611
754.969
782.666
812.716
845.13
879.91
917.055
593.02
594.184
596.553
600.199
605.226
611.756
619.92
629.851
641.675
655.508
671.447
689.576
709.962
732.654
757.69
785.094
814.882
847.061
881.631
918.59
598.719
599.806
602.023
605.454
610.213
616.436
624.267
633.853
645.331
658.825
674.441
692.266
712.37
734.804
759.606
786.799
816.398
848.409
882.83
919.657
601.739
602.783
604.918
608.232
612.846
618.902
626.554
635.954
647.246
660.559
676.002
693.666
713.62
735.918
760.596
787.679
817.18
849.102
883.446
920.204
601.739
602.783
604.918
608.232
612.846
618.902
626.554
635.954
647.246
660.559
676.002
693.666
713.62
735.918
760.596
787.679
817.18
849.102
883.446
920.204
598.719
599.806
602.023
605.454
610.213
616.436
624.267
633.853
645.331
658.825
674.441
692.266
712.37
734.804
759.606
786.799
816.398
848.409
882.83
919.657
593.02
594.184
596.553
600.199
605.226
611.756
619.92
629.851
641.675
655.508
671.447
689.576
709.962
732.654
757.69
785.094
814.882
847.061
881.631
918.59
585.232
586.498
589.064
592.993
598.372
605.306
613.911
624.3
636.588
650.875
667.251
685.794
706.564
729.611
754.969
782.666
812.716
845.13
879.91
917.055
576.056
577.435
580.22
584.463
590.236
597.625
606.726
617.637
630.454
645.264
662.147
681.171
702.393
725.858
751.601
779.647
810.013
842.711
877.746
915.118
566.171
567.663
570.668
575.226
581.397
589.248
598.857
610.304
623.669
639.026
656.442
675.978
697.683
721.599
747.758
776.186
806.901
839.914
875.233
912.861
556.142
557.739
560.949
565.805
572.35
580.639
590.733
602.696
616.592
632.483
650.424
670.468
692.657
717.028
743.613
772.433
803.508
836.85
872.468
910.366
546.387
548.078
551.471
556.592
563.474
572.158
582.693
595.128
609.514
625.901
644.335
664.859
687.51
712.321
739.318
768.524
799.954
833.624
869.541
907.713
537.179
538.95
542.502
547.851
555.024
564.053
574.974
587.826
602.648
619.481
638.361
659.324
682.401
707.62
735.004
764.573
796.344
830.329
866.537
904.975
528.671
530.509
534.193
539.735
547.155
556.477
567.728
580.938
596.139
613.361
632.634
653.987
677.446
703.034
730.771
760.676
792.762
827.041
863.523
902.216
)
;
    }
    coldSide
    {
        type            mixed;
        refValue        uniform 300;
        refGradient     uniform 0;
        valueFraction   uniform 0.991591;
        source          uniform 0;
        value           nonuniform List<scalar> 
400
(
300.028
300.028
300.029
300.029
300.029
300.03
300.03
300.031
300.032
300.033
300.034
300.035
300.036
300.037
300.039
300.04
300.042
300.044
300.045
300.046
300.029
300.029
300.029
300.029
300.03
300.03
300.031
300.031