/*--------------------------------*- C++ -*----------------------------------*\
| =========                 |                                                 |
| \\      /  F ield         | OpenFOAM: The Open Source CFD Toolbox           |
|  \\    /   O peration     | Version:  2212                                  |
|   \\  /    A nd           | Website:  www.openfoam.com                      |
|    \\/     M anipulation  |                                                 |
\*---------------------------------------------------------------------------*/
FoamFile
{
    version     2.0;
    format      ascii;
    arch        "LSB;label=32;scalar=64";
    class       volScalarField;
    location    "0";
    object      relativeErrorField;
}
// * * * * * * * * * * * * * * * * * * * * * * * * * * * * * * * * * * * * * //

dimensions      [0 0 0 1 0 0 0];

internalField   nonuniform List<scalar> 
3200
(
0.0194983
0.0133667
0.00765776
0.00303195
0.000452829
0.00288489
0.00486915
0.00632333
0.00685557
0.00697166
0.00698403
0.00657468
0.00552951
0.00470701
0.00346275
0.00178144
0.000927784
0.00471962
0.00956623
0.0152636
0.0167191
0.0115456
0.00644227
0.00266958
0.000746848
0.00294162
0.00448213
0.00555043
0.00627681
0.00661601
0.00665235
0.00607256
0.00538103
0.00440428
0.00337418
0.00174502
0.000363014
0.00357456
0.00805205
0.0127481
0.0140853
0.0096875
0.00551991
0.00195575
0.000797637
0.00266517
0.00403033
0.00498118
0.00553117
0.0059848
0.00584728
0.00545072
0.00483142
0.00416476
0.00330665
0.00192649
0.000190429
0.00275521
0.00640772
0.0104939
0.0113321
0.00794513
0.00428698
0.00135557
0.000614088
0.00239992
0.0033706
0.00443154
0.00468129
0.00488617
0.00480823
0.00445846
0.00414947
0.00354064
0.00267917
0.00179737
2.00731e-05
0.002069
0.00518418
0.00815898
0.00892629
0.0059952
0.00353358
0.00118254
0.00060746
0.00199537
0.00294069
0.00328971
0.0041022
0.00382403
0.00399401
0.00388568
0.00318037
0.002966
0.00209972
0.00149319
0.000198449
0.00147678
0.0042948
0.00637664
0.00645708
0.00438458
0.00236967
0.000925167
0.000632844
0.0013701
0.00240613
0.00265646
0.00284527
0.00312822
0.00292219
0.00278424
0.00248899
0.00219974
0.00171472
0.00105349
0.000238758
0.00110733
0.00284702
0.00441799
0.00390585
0.00297768
0.00150436
0.000497052
0.000221808
0.000993249
0.00117881
0.00166389
0.00202744
0.00199543
0.00167716
0.00170089
0.00167448
0.00141355
0.00105184
0.000580745
3.57697e-05
0.000621821
0.00175367
0.00282407
0.00122466
0.000757536
0.00064573
0.000184565
0.000208003
0.000339334
0.000431004
0.000388014
0.000751413
0.000576094
0.000620132
0.000407818
0.000444819
0.000208353
0.000158259
0.000183105
0.000292858
0.00029101
0.000555702
0.000570247
0.0191213
0.0130285
0.00714603
0.00303163
0.000582761
0.00272334
0.00456564
0.00567573
0.00593214
0.0063144
0.00591001
0.00575768
0.00481238
0.00407263
0.00316373
0.00149835
0.000954794
0.00423094
0.00928553
0.0147701
0.0163445
0.0113073
0.00644317
0.00203281
0.000438968
0.00254716
0.00424936
0.00499822
0.00575014
0.00577578
0.00567153
0.00520639
0.00479054
0.00410938
0.00305169
0.00148166
0.000410013
0.00345171
0.00771135
0.0123892
0.0139408
0.00966539
0.00551843
0.00187206
0.000545282
0.00257951
0.00371318
0.00450569
0.00492518
0.0050691
0.00485791
0.0047358
0.0040055
0.00354243
0.00302268
0.00172996
2.69848e-05
0.00283018
0.00621589
0.0100347
0.0113031
0.00764996
0.0043366
0.0013029
0.000751347
0.0021285
0.00327249
0.00377085
0.00423458
0.00451028
0.0042902
0.00409326
0.0034689
0.00323729
0.00265022
0.00149371
0.000122053
0.00189401
0.0053359
0.00798008
0.00878588
0.00604304
0.00323201
0.00105438
0.00059826
0.0015442
0.00275457
0.00306166
0.00353326
0.00338636
0.00327222
0.00329932
0.00314396
0.00258632
0.00204847
0.00120338
0.000154278
0.00156254
0.0038722
0.00636297
0.00634147
0.00439842
0.00239317
0.000838324
0.000547673
0.0013869
0.00230044
0.00241776
0.00244287
0.00254215
0.00250965
0.00243291
0.00215792
0.0019119
0.00173446
0.00111994
0.00017751
0.00114217
0.00289029
0.00462506
0.00373031
0.00304548
0.00146655
0.000504107
0.000205952
0.00109927
0.00145495
0.0014404
0.00144508
0.00157597
0.0017218
0.001704
0.00115711
0.00129957
0.00085728
0.000470085
6.00732e-05
0.00085866
0.00197497
0.00276671
0.00126305
0.0010256
0.000430507
3.94384e-05
9.30765e-05
0.000372117
0.000462807
0.000599704
0.000545644
0.000642793
0.000719685
0.000580419
0.000599281
0.000467314
0.00046118
0.000250462
7.25506e-06
0.000302378
0.000475519
0.000873809
0.0188297
0.0127584
0.00720648
0.00296392
0.000247865
0.00228571
0.00365839
0.00441079
0.00474156
0.00443294
0.00418087
0.00364965
0.0034232
0.00281987
0.00201302
0.000686386
0.00111907
0.00447595
0.00934623
0.0144295
0.0157749
0.0111462
0.00587367
0.00244448
0.00051365
0.00212224
0.00365672
0.00401661
0.00438917
0.0046353
0.00414719
0.00392519
0.00328033
0.00272796
0.00227685
0.00115362
0.000812722
0.00372901
0.00759977
0.0118745
0.0133383
0.00925356
0.00509225
0.00187576
0.000651232
0.00220355
0.00318439
0.00376303
0.00414683
0.00403291
0.00380023
0.00347878
0.00312736
0.00260769
0.00195124
0.00100843
0.00043631
0.00284515
0.00624501
0.0101199
0.0108408
0.0076252
0.00415115
0.00156135
0.000472398
0.00178264
0.00266184
0.00323251
0.00355958
0.00364107
0.00315839
0.00310755
0.00254514
0.00253298
0.00198814
0.00108053
0.000211538
0.00225414
0.00504671
0.00787394
0.00849936
0.00621873
0.00311259
0.00100896
0.000575899
0.00164656
0.00211781
0.002929
0.00267961
0.0028835
0.00281883
0.00249232
0.00215849
0.00222058
0.00183621
0.00114627
0.000196214
0.00162451
0.00385243
0.00604398
0.00609611
0.00439542
0.00232531
0.000677149
0.00053197
0.000995096
0.00159474
0.00191087
0.00194098
0.00236214
0.00213846
0.00170409
0.00165575
0.00151636
0.00115893
0.000851148
7.56059e-05
0.00126681
0.00289306
0.00435406
0.003597
0.00255984
0.00126899
0.000305108
7.96222e-05
0.000532347
0.00110305
0.00116291
0.00162448
0.00119283
0.0013914
0.00128749
0.0012092
0.00101048
0.000854588
0.000541185
3.59925e-05
0.000697507
0.00175365
0.00253256
0.00126747
0.0009051
0.000291197
0.000173576
4.45402e-05
0.000114998
0.00036459
0.000563443
0.000313268
0.000278098
0.000368654
0.000299984
0.000200932
0.000365916
0.000101442
9.48567e-05
0.000220644
0.000395845
0.000616978
0.000802615
0.0184188
0.0125274
0.00736743
0.00316171
0.000467333
0.00162871
0.00252242
0.00271975
0.00276918
0.00251039
0.00201956
0.00188657
0.00153946
0.00108798
0.000741307
0.000380254
0.00202654
0.00494197
0.00951936
0.0143585
0.0157639
0.010848
0.00596555
0.00268934
7.15501e-05
0.00143823
0.00229798
0.00274108
0.00267915
0.00246656
0.00229123
0.00166036
0.00155911
0.00131867
0.00104421
0.000291235
0.00153638
0.00404207
0.00790889
0.0121696
0.0131997
0.00919038
0.00494599
0.0022801
0.000127438
0.00148328
0.00242381
0.00265865
0.00271221
0.00228366
0.00203382
0.0017499
0.00173006
0.00167504
0.00112732
0.000565138
0.000839364
0.00306834
0.00663869
0.0101391
0.0108961
0.00758841
0.00424124
0.00186924
0.000202547
0.00124556
0.00230696
0.00214929
0.00248923
0.00182909
0.00202941
0.00171351
0.00158043
0.00120919
0.000879647
0.000641165
0.000536772
0.00270891
0.00536171
0.00805891
0.0086154
0.00611982
0.00319864
0.00141272
0.000180846
0.000991731
0.0014813
0.0019204
0.00185486
0.00159494
0.00168965
0.00141186
0.00129935
0.00113233
0.00116306
0.000419103
0.000516218
0.00197168
0.00412611
0.00606163
0.00598519
0.00443593
0.00250072
0.000869393
8.4151e-05
0.000851729
0.00111956
0.00129269
0.00147121
0.00132174
0.00126169
0.00110279
0.000960031
0.000965848
0.000751221
0.000523154
0.000374393
0.00115063
0.00299391
0.00432498
0.00364317
0.0027238
0.0018037
0.000534501
0.000319304
0.000502762
0.000835542
0.000893564
0.00104647
0.00109433
0.000585228
0.000709869
0.000675243
0.000354858
0.000450581
0.000196167
0.000169595
0.000715536
0.00161128
0.00285054
0.00113044
0.000682758
0.000484813
0.000187669
6.77613e-05
0.000178765
0.000228501
0.000308861
7.98511e-05
0.000444692
0.000603402
0.000237171
0.000304633
0.000189338
0.000196833
7.56513e-05
0.000120241
0.000368306
0.000584502
0.000783135
0.0182246
0.0128274
0.00760506
0.00374395
0.00143447
0.00039709
0.00125154
0.00103561
0.000973362
4.33201e-05
0.000286119
0.000690842
0.000615475
0.000643831
0.000665922
0.00149356
0.00282858
0.00579459
0.00995464
0.0145338
0.0157671
0.0112534
0.00650213
0.00314416
0.00104035
0.000458889
0.00120591
0.00125612
0.000909073
0.000412725
0.000162056
0.000261347
5.33863e-05
0.000325505
0.00024129
0.000694548
0.00205356
0.0044001
0.00836686
0.0122388
0.0132418
0.00954412
0.00568409
0.00277286
0.000651962
0.000427881
0.00105438
0.00161825
0.00104263
0.000718971
0.000507277
5.3248e-05
4.58031e-06
4.07331e-05
2.37282e-05
0.000510105
0.00154935
0.00392857
0.00675802
0.0100774
0.0108464
0.00776978
0.00456075
0.00217821
0.000397336
0.000579549
0.00110625
0.00120145
0.00093236
0.000546425
0.000268764
0.000376491
0.000172524
0.000226338
5.54657e-05
0.000335392
0.00114591
0.00283452
0.00562287
0.00802401
0.00847628
0.00621284
0.00331252
0.00153197
0.000526574
0.000460575
0.000979328
0.000853417
0.00100589
0.000824871
0.00023239
0.000251315
0.000172991
0.000116531
0.000308433
0.000104463
0.000916198
0.00208631
0.0041252
0.006415
0.00616939
0.00425828
0.00259667
0.00109566
0.000440863
0.000528091
0.000629234
0.00103568
0.000610532
0.000605875
0.000498754
0.00037545
9.51621e-05
0.000374345
0.000353305
0.000274559
0.000527444
0.00116773
0.00297582
0.00455678
0.00336599
0.00257483
0.0015183
0.000647447
7.67652e-05
0.000222331
0.000616158
0.000457129
0.000509343
0.000588221
0.000326075
0.000345505
6.80868e-05
0.000209727
8.03981e-05
7.24212e-05
0.00031163
0.00114106
0.0018132
0.00280765
0.00126985
0.00108291
0.000777797
0.000145142
3.62805e-05
0.000142491
7.95974e-05
0.000280382
0.000204573
0.000212857
0.000127962
0.000116178
9.87052e-05
0.000339334
3.00697e-05
7.24442e-05
0.000134991
0.000265116
0.000682705
0.000924306
0.0182256
0.0131466
0.00835645
0.00461663
0.00218078
0.000895274
0.000368357
0.000653163
0.00114031
0.0022615
0.00278509
0.00309691
0.00323997
0.00264306
0.00233874
0.00291088
0.00402811
0.00664862
0.0107017
0.0148408
0.0158121
0.0112935
0.00728465
0.00403241
0.00191023
0.000632929
0.000188946
0.000204955
0.000959605
0.00162988
0.0019648
0.00225713
0.00236828
0.00193223
0.00178398
0.0021462
0.0029707
0.00536752
0.00882574
0.0126199
0.0134977
0.00967066
0.00587996
0.00320713
0.00137636
0.000384879
0.000101979
7.9736e-05
0.000609272
0.000961318
0.00165068
0.0018308
0.00165327
0.00134798
0.00120989
0.00145477
0.00268054
0.00444266
0.00744298
0.010462
0.0107583
0.0079657
0.00482003
0.00257862
0.001279
0.00024137
6.0409e-05
0.00019177
0.000254411
0.000621613
0.00127169
0.00126002
0.00122743
0.000941279
0.000985371
0.00105356
0.00196991
0.0035248
0.0059117
0.00855946
0.00836804
0.00633259
0.00377466
0.00199417
0.00101696
2.86601e-05
0.000265548
0.00017752
0.000185421
0.000584708
0.000919542
0.000996756
0.000812399
0.000633774
0.000782793
0.000905619
0.00119743
0.00277391
0.00440522
0.00643071
0.00619394
0.00440401
0.00280199
0.0014403
0.000487681
1.28579e-05
0.000107092
0.000165952
0.000163822
0.000520904
0.00058545
0.00045336
0.000648298
0.000805776
0.00035798
0.000519958
0.000954949
0.00173592
0.00325462
0.00448558
0.00379115
0.00240937
0.00174838
0.000875409
0.000675569
3.38611e-05
0.000224782
0.000174204
9.38417e-05
0.000335486
0.000213399
0.000350543
0.000250828
0.000334973
0.000211164
0.000546183
0.000720918
0.00118825
0.00196977
0.00295444
0.00148546
0.000779703
0.000684344
0.00036003
0.000133077
2.75516e-05
0.000270085
0.00013597
8.38208e-05
0.000114172
0.000231988
0.000174977
0.00015991
7.82619e-05
4.22707e-05
0.000186693
0.00019938
0.000329973
0.000836576
0.000954247
0.0185863
0.0136301
0.00892514
0.0055057
0.00320464
0.00208926
0.00203357
0.00250438
0.00340416
0.00435256
0.00514843
0.00518375
0.00511813
0.00452868
0.00407477
0.00416432
0.00503877
0.00761503
0.0113035
0.015326
0.015927
0.0117559
0.00755844
0.00465996
0.0027062
0.00168077
0.00157354
0.00172746
0.00261162
0.00359136
0.00428277
0.0045177
0.00419615
0.00350821
0.00346585
0.00347507
0.00410556
0.00624806
0.00934302
0.0129047
0.0132836
0.00993359
0.00649155
0.00381984
0.00213656
0.00118605
0.00114279
0.00146671
0.00190655
0.0028066
0.00327452
0.00348851
0.0031099
0.00276654
0.002412
0.00258004
0.00334255
0.00532328
0.00802491
0.01056
0.0109435
0.0083286
0.0053439
0.00308775
0.00170126
0.00088749
0.000766645
0.00104217
0.00182692
0.00206186
0.00268625
0.00292307
0.0028345
0.00231964
0.00193931
0.00193833
0.00247352
0.0041586
0.00643962
0.00874271
0.00872516
0.00652152
0.00401555
0.00252198
0.00131734
0.000605827
0.000426549
0.000680292
0.0012542
0.00175916
0.00192019
0.00207467
0.00174906
0.00170625
0.00156575
0.00158228
0.00192377
0.00290895
0.00486644
0.00696509
0.00623489
0.00470833
0.00311392
0.00159509
0.000745732
0.000426159
0.000294865
0.000337852
0.000556016
0.00120371
0.00140787
0.001459
0.00137614
0.00117188
0.000891413
0.0012247
0.00135269
0.00229928
0.00324387
0.00483327
0.00377171
0.00275698
0.00162895
0.00104443
0.000603516
2.64379e-05
0.000338897
0.000512626
0.000692766
0.000608027
0.000870699
0.000946169
0.000972533
0.000839777
0.00071034
0.000866019
0.00083154
0.00143135
0.00226441
0.00289569
0.0010999
0.000818774
0.000514238
0.000427248
0.000285958
0.000183928
0.000150326
0.000120409
0.000388002
0.0004278
0.000345615
0.00058844
0.000461112
0.000154277
6.19212e-05
1.7691e-05
0.000267563
0.00017054
0.000579486
0.000827008
0.0185133
0.0137222
0.00946382
0.00619875
0.00403145
0.00330941
0.00307772
0.00421981
0.00540495
0.00658922
0.00742629
0.00723211
0.00687689
0.00611826
0.00538158
0.00530168
0.00602745
0.00819127
0.0117436
0.015481
0.0159413
0.0118658
0.00819895
0.00537014
0.00327251
0.00264511
0.00262802
0.00331178
0.00455399
0.00512947
0.00614684
0.00605689
0.00595847
0.00483683
0.00433519
0.00429168
0.00506209
0.00694042
0.00996262
0.013269
0.0133628
0.0100313
0.0068272
0.00433281
0.00290015
0.00209555
0.00218893
0.00264483
0.00341708
0.00442724
0.00509341
0.00514459
0.00479595
0.00402876
0.00351373
0.00361068
0.00412934
0.00574282
0.0080841
0.0109449
0.0109916
0.00853965
0.00555769
0.00327447
0.00220098
0.00177076
0.00174849
0.00202872
0.00262416
0.0035118
0.00384206
0.00420641
0.00357593
0.00321121
0.00283493
0.0026514
0.00312382
0.00445374
0.00642394
0.00882684
0.00864742
0.00655614
0.00431124
0.00266947
0.00199918
0.00129193
0.00123185
0.00164854
0.00237409
0.00281254
0.00296089
0.00303881
0.0029451
0.00256433
0.00205595
0.00200185
0.00236855
0.00345965
0.00521192
0.00698364
0.0063603
0.00488469
0.00316772
0.00218608
0.00126338
0.000955559
0.000833547
0.0012616
0.00149325
0.00175138
0.00202724
0.00225678
0.00197192
0.00184983
0.00172615
0.00137525
0.00149694
0.00254661
0.00375728
0.00497342
0.00359716
0.00296442
0.00184048
0.000987718
0.000826742
0.000495405
0.000595379
0.000475841
0.000849128
0.000969174
0.00123083
0.0012482
0.00116674
0.000948903
0.00104165
0.000819086
0.00113681
0.00148633
0.00244605
0.00279355
0.00130616
0.000904235
0.000833103
0.000366862
8.44735e-05
0.000314154
0.000110926
0.000261932
0.000268119
0.00036967
0.000534891
0.000290591
0.00063581
0.000425757
0.000448062
0.0002685
0.000296449
0.0005307
0.000614878
0.000896186
0.0185741
0.0140177
0.00993945
0.00658472
0.00519756
0.00416023
0.00423411
0.00555606
0.00659542
0.00793613
0.00913069
0.00917803
0.00860111
0.00735444
0.00686771
0.0063694
0.00704143
0.00887272
0.0120007
0.0160504
0.0160807
0.011966
0.00830036
0.00570261
0.00426109
0.00355
0.00371772
0.00448677
0.00571734
0.00679514
0.0075154
0.00748587
0.00718362
0.00627059
0.00542389
0.00530296
0.00574131
0.00752219
0.0103849
0.0132917
0.0134516
0.010425
0.00712491
0.00457034
0.00349818
0.00280179
0.00275228
0.00369955
0.00440694
0.00547262
0.0060058
0.00650605
0.00600938
0.00507318
0.00457693
0.00448945
0.00466949
0.00617
0.00846508
0.0111829
0.0110212
0.00825249
0.00568432
0.00399724
0.00265234
0.00230373
0.00228095
0.00304852
0.00350396
0.00468031
0.00488012
0.0050491
0.00448574
0.00397826
0.00374707
0.00367813
0.00376235
0.00494878
0.00687702
0.00888625
0.00853494
0.00660263
0.00474733
0.00306578
0.00210413
0.00161755
0.00189699
0.00192772
0.00267558
0.00332104
0.0038652
0.00399841
0.00364279
0.00311555
0.00285772
0.00256642
0.00295977
0.00399449
0.00524922
0.0068651
0.00612994
0.00474699
0.00310966
0.0022624
0.0014716
0.00123365
0.00126294
0.0014896
0.00194437
0.00228973
0.00286939
0.0027094
0.00264268
0.00250851
0.00192676
0.00155957
0.00199042
0.0027243
0.00363365
0.00494031
0.00348633
0.00268777
0.00203831
0.00127152
0.00104097
0.000634017
0.000605797
0.000907381
0.000948365
0.00137324
0.00156681
0.0017762
0.00162899
0.00143877
0.0011028
0.000972777
0.00138455
0.00160552
0.00232739
0.00309307
0.00119634
0.000911209
0.000610489
0.000293207
0.000339754
0.000135339
0.000280649
0.000327838
0.000335123
0.0004681
0.000582602
0.000697624
0.000440858
0.000493238
0.000323341
0.000310207
0.000555484
0.000484758
0.000972127
0.000904331
0.0183037
0.0139244
0.0102274
0.00718895
0.005417
0.004859
0.00531131
0.00629015
0.00761066
0.00915855
0.00999784
0.010054
0.00958233
0.0082862
0.00746917
0.00711298
0.00748121
0.00917882
0.0121698
0.0156062
0.015557
0.0119412
0.0087228
0.00601625
0.00474242
0.00418008
0.00427549
0.00510986
0.00660427
0.00791314
0.00825144
0.00857852
0.00828779
0.00698037
0.00615808
0.00547973
0.00619725
0.00762732
0.0103247
0.0130831
0.0131705
0.010048
0.00734169
0.00507458
0.0038206
0.00346376
0.00359075
0.00411847
0.00498822
0.00618657
0.00715272
0.007076
0.00651812
0.00571012
0.0049373
0.00474594
0.00513761
0.00633703
0.00875449
0.0108517
0.0108128
0.00830842
0.00599317
0.0039242
0.00291652
0.00260565
0.00273389
0.00333424
0.00446172
0.0051893
0.00561307
0.00580374
0.00528168
0.00447148
0.00393822
0.00379868
0.00398813
0.00543762
0.00683789
0.00885431
0.0087958
0.00631049
0.00448999
0.00307022
0.00217825
0.00213777
0.00215178
0.00247624
0.00363787
0.00397725
0.00455926
0.00438042
0.00406606
0.00327092
0.00282323
0.00295642
0.00311879
0.00411386
0.00543803
0.00672882
0.00616327
0.00464889
0.00329279
0.00249799
0.00161526
0.00125934
0.00139084
0.00181025
0.00237076
0.00288051
0.00302593
0.00307661
0.00284284
0.00261295
0.00224662
0.00186718
0.00201618
0.0027902
0.0041354
0.00513083
0.00365794
0.00277315
0.00194658
0.00114353
0.000964571
0.000884666
0.00065347
0.00134052
0.00157561
0.00178943
0.00194194
0.00186307
0.00194216
0.00146545
0.00153923
0.00143676
0.00126223
0.00175166
0.00213131
0.00293643
0.00118444
0.00100956
0.000807723
0.000436559
0.000475198
0.000350897
0.000356888
0.000620082
0.000491737
0.000489843
0.000524757
0.00094515
0.000576138
0.000758282
0.000364857
0.000373943
0.000367624
0.000502023
0.000845574
0.000966836
0.0178146
0.0135106
0.00980243
0.00694556
0.00553436
0.00517207
0.00528567
0.00680852
0.00815432
0.01
0.0104448
0.0106648
0.0100846
0.00855033
0.00778674
0.00720596
0.00743145
0.00910777
0.0119163
0.0153383
0.0151173
0.0116464
0.00834087
0.00596716
0.004641
0.00411696
0.00437587
0.00579113
0.00690448
0.00788506
0.00875545
0.00895827
0.00831154
0.00737329
0.00638332
0.00581454
0.00609504
0.00769212
0.0101798
0.0129991
0.0127408
0.0101105
0.00711749
0.0050216
0.00377729
0.00357016
0.00379188
0.00460965
0.00557454
0.00660084
0.0076283
0.00744854
0.00700525
0.00605719
0.00544321
0.00471559
0.00505107
0.00649198
0.00849895
0.010775
0.0103694
0.00786004
0.00584707
0.00401123
0.00303929
0.00265396
0.00311785
0.00360166
0.00443511
0.00555844
0.00579465
0.00592724
0.00565091
0.00488404
0.00404013
0.00371723
0.00410473
0.00484101
0.00702119
0.00851807
0.00801678
0.0062256
0.00428552
0.00306922
0.00227403
0.00234495
0.00235569
0.00299071
0.00353136
0.00393493
0.00462645
0.00479198
0.0043635
0.00389617
0.00312863
0.00272333
0.00310742
0.00387644
0.00522686
0.0066887
0.00592925
0.00454121
0.00326228
0.00224554
0.00153353
0.00140285
0.00161991
0.00212295
0.00241568
0.00301391
0.00341885
0.00337174
0.00291866
0.00261189
0.00223987
0.00184468
0.00228403
0.00281081
0.00362877
0.00455013
0.00341324
0.00284484
0.00182964
0.00108279
0.000896598
0.00102451
0.00101438
0.00105285
0.00147129
0.00193998
0.00210545
0.00207702
0.00192598
0.001689
0.00124047
0.00112783
0.00132429
0.00163512
0.0022917
0.00288866
0.00103064
0.000694724
0.000738458
0.000400629
0.000381297
0.000286199
0.000604026
0.000307895
0.000524911
0.000643238
0.0005293
0.000796562
0.000654898
0.000578938
0.000170565
0.000535934
0.000523356
0.000545441
0.000539938
0.00115848
0.0168517
0.0130126
0.00942672
0.00664957
0.00528191
0.00518972
0.00555589
0.00655301
0.00798186
0.00919914
0.0103442
0.0104125
0.00947082
0.00844334
0.0073207
0.00675257
0.00710941
0.00881828
0.0111954
0.014527
0.0146924
0.011036
0.00808638
0.00576519
0.00457748
0.00425386
0.00459774
0.00550394
0.00692301
0.00788056
0.00854679
0.00885946
0.00798443
0.00719788
0.00612184
0.00561081
0.005966
0.00729025
0.0093405
0.0123449
0.0122123
0.00949121
0.00669782
0.00475019
0.00344662
0.00347265
0.00347475
0.00443092
0.00571063
0.00652426
0.00713945
0.00718698
0.00669309
0.00558571
0.0051536
0.00458215
0.00491124
0.00571689
0.00797409
0.0102291
0.0101125
0.00773002
0.00533949
0.00369465
0.00290077
0.00267148
0.00270125
0.00377794
0.00449466
0.00512246
0.00602414
0.00585862
0.00524096
0.00470637
0.00396778
0.00351699
0.00367721
0.00478497
0.00633697
0.00807099
0.00773934
0.0061988
0.00434839
0.00318918
0.00237675
0.00204795
0.00212973
0.00290238
0.00334016
0.00378856
0.00462372
0.00460754
0.00410386
0.00377562
0.00299733
0.00277067
0.00301434
0.00370524
0.00513466
0.0064424
0.00550711
0.00456071
0.00307396
0.00216083
0.00150869
0.00145054
0.0017062
0.00184435
0.00238072
0.00297228
0.00324445
0.00334382
0.00299696
0.0026503
0.00224793
0.00192776
0.00205321
0.00264011
0.00358892
0.00459841
0.0034627
0.00264458
0.00195147
0.00132684
0.000933812
0.000871168
0.000979598
0.00131652
0.0014283
0.0020511
0.00202752
0.0020138
0.00185207
0.00173484
0.00122338
0.00126526
0.00141722
0.00141586
0.00214544
0.00273816
0.00128904
0.00094161
0.000761016
0.000490596
0.00034144
0.000282018
0.000126458
0.000195829
0.000512235
0.000632905
0.000620647
0.000652143
0.000698023
0.000517923
0.000332679
0.00041787
0.000193177
0.000539755
0.000667254
0.000883563
0.015734
0.0118905
0.00862468
0.00605231
0.00481991
0.00445953
0.00482169
0.00604901
0.00746011
0.00858013
0.00945701
0.00928449
0.00866318
0.00771485
0.00649868
0.00611689
0.00631944
0.00798737
0.0103592
0.0133788
0.0136307
0.0104005
0.00760783
0.00505634
0.00379278
0.00357261
0.00429635
0.00507398
0.00601887
0.00692983
0.00782111
0.00755689
0.00717705
0.00623958
0.00536054
0.00477426
0.00518078
0.00629252
0.00851867
0.0114745
0.0112142
0.00858132
0.00621536
0.00431062
0.00314093
0.00292791
0.00319506
0.00424446
0.00508911
0.00600543
0.00650969
0.00671177
0.00596889
0.0049582
0.00435814
0.00420123
0.0042152
0.00509151
0.00709018
0.00950911
0.0093659
0.00700428
0.00500933
0.00341938
0.00264984
0.0024296
0.00250432
0.00339413
0.00427531
0.00483117
0.00528631
0.00525314
0.00447494
0.00396921
0.00363839
0.00314698
0.00306268
0.00438927
0.00594553
0.00748701
0.00721667
0.00560367
0.00387594
0.00249454
0.00196125
0.00166831
0.00188527
0.00273841
0.00291536
0.00391619
0.00408643
0.00421848
0.00362345
0.00314041
0.00251151
0.00221704
0.00258601
0.00309632
0.00461226
0.00590541
0.00541132
0.00398851
0.00272373
0.00188653
0.0013675
0.00132739
0.00145586
0.00169831
0.0021894
0.00265883
0.00278301
0.00297374
0.00267054
0.00226167
0.00200723
0.00190811
0.00162654
0.00222281
0.00306787
0.0041348
0.00287867
0.0027271
0.0018748
0.00109828
0.000778387
0.000662128
0.00077425
0.00121009
0.00116123
0.00164989
0.00179514
0.0017679
0.00174771
0.00124548
0.000869291
0.000920161
0.0011497
0.00153758
0.00200041
0.00243083
0.000802584
0.000677764
0.000467738
0.000688922
9.00677e-05
0.000417359
0.000223599
0.000414462
0.00042779
0.000556902
0.000663477
0.000345603
0.000634429
0.000394538
0.000442432
0.000218084
0.000246053
0.000359854
0.000547206
0.000631141
0.0140632
0.0106203
0.00734566
0.00493422
0.00363434
0.00365896
0.00371937
0.0047629
0.00613172
0.00702295
0.00761125
0.00758165
0.00706724
0.00616737
0.00518187
0.00484112
0.00494208
0.00650487
0.00905091
0.0122028
0.0120584
0.00913852
0.00615517
0.00409218
0.00307921
0.00256483
0.0032226
0.00435362
0.00491045
0.005851
0.0068726
0.0064555
0.00578535
0.00520227
0.00446436
0.00381764
0.00410029
0.00538718
0.00764419
0.0099194
0.0103907
0.00766867
0.00528755
0.00328539
0.00246181
0.00206852
0.00240633
0.00315925
0.00409319
0.0048534
0.00541261
0.00535723
0.00477881
0.00405711
0.00350202
0.0028448
0.00325663
0.00428115
0.00617683
0.0082099
0.00844394
0.00613075
0.0041274
0.00285874
0.00189431
0.0017755
0.00171764
0.00252639
0.00338782
0.00400736
0.00414899
0.00422387
0.00400743
0.00324262
0.00270774
0.0024288
0.00271932
0.0033709
0.00497298
0.0067183
0.00664706
0.0049018
0.00319415
0.00207394
0.00136211
0.00123985
0.00142619
0.00187573
0.0022731
0.00300398
0.00331717
0.00313445
0.00303446
0.00244325
0.00203456
0.00182124
0.00176654
0.00264957
0.00368854
0.00492591
0.00478502
0.00338119
0.00233915
0.00132835
0.00101456
0.00100534
0.00102354
0.00137229
0.00161864
0.00204505
0.00226624
0.00224823
0.00201744
0.00171575
0.00157267
0.00110076
0.00111661
0.0017053
0.00269055
0.00357947
0.00273358
0.00212926
0.00141274
0.000897838
0.000660516
0.000450166
0.000495537
0.000890754
0.00106435
0.00110742
0.00146719
0.00157489
0.00132707
0.00111224
0.000910489
0.000571247
0.000715245
0.00121587
0.00186293
0.00230883
0.000718014
0.000377124
0.000714207
0.000418751
0.000164979
0.000157951
0.000399731
0.000236351
0.000413925
0.000477152
0.000299534
0.000578257
0.000425043
0.000413514
0.000178913
0.000274533
0.000114982
0.000452901
0.000515076
0.000819502
0.0126517
0.00904908
0.00594352
0.00355022
0.00254828
0.00202828
0.00220951
0.00349434
0.00422435
0.00518349
0.00578638
0.00574099
0.00520953
0.00435362
0.00380256
0.00326873
0.0034859
0.00491309
0.00745376
0.0102404
0.0109954
0.00764141
0.00507125
0.00291231
0.0018442
0.00149313
0.00188056
0.00245771
0.00346866
0.00418843
0.00468853
0.00463185
0.00412555
0.00350913
0.00289427
0.00227986
0.00290233
0.00396161
0.00588939
0.00835504
0.00919203
0.00633689
0.00418143
0.00231956
0.00157293
0.00108509
0.00120277
0.00204172
0.00283422
0.00346601
0.00395893
0.00366206
0.00342583
0.00279037
0.00222235
0.00195747
0.00193585
0.00290254
0.0046271
0.00686656
0.00724432
0.00518133
0.00327379
0.00165606
0.00100479
0.00077014
0.000843437
0.00149264
0.00221555
0.00271122
0.00293485
0.00303773
0.00279829
0.00201474
0.00172664
0.00135732
0.00160097
0.00240562
0.00371127
0.00549891
0.00566232
0.00414378
0.00243654
0.00134193
0.000821497
0.000323438
0.000627261
0.000793507
0.00175798
0.00189344
0.00236955
0.00208427
0.00189306
0.0014333
0.00117179
0.00084791
0.00104264
0.00157447
0.00264796
0.00437136
0.00406862
0.00305138
0.0018407
0.000830555
0.000278347
0.000383957
0.000451453
0.000600635
0.00120167
0.00145679
0.00144219
0.00152702
0.00149647
0.00111787
0.000835997
0.00069364
0.000700212
0.00126172
0.00214814
0.00293773
0.00238504
0.00183458
0.00117582
0.000332385
0.000308631
3.80047e-05
0.000416522
0.00057636
0.000772241
0.000718091
0.000975886
0.000868525
0.000869002
0.000475311
0.000407569
0.000392074
0.000528084
0.000628522
0.00115127
0.00180935
0.000547353
0.000691758
0.000335394
0.000301215
0.000208028
5.49647e-05
0.000271531
0.000184125
0.000189166
0.000341068
0.00019122
0.000364863
0.000118827
2.49227e-05
0.000356385
2.56351e-06
0.000262387
0.000213369
0.000315683
0.000581636
0.0107686
0.00693888
0.00399339
0.00190177
0.000571562
0.000266649
0.000582277
0.00161453
0.00207215
0.00297388
0.00334035
0.00330323
0.00302994
0.002309
0.00119863
0.00108113
0.00135585
0.00296277
0.00523794
0.00814879
0.00898361
0.0060331
0.00347255
0.00134836
0.000382646
0.000166367
0.000252482
0.00102458
0.00161875
0.00220757
0.00268247
0.00256384
0.00196363
0.0016302
0.000949296
0.000601455
0.00121625
0.00205818
0.00398586
0.00660535
0.00748316
0.00502052
0.00260277
0.00105591
3.48907e-05
6.89774e-05
0.000120213
0.000645949
0.0012354
0.00188316
0.00198294
0.00193369
0.00143571
0.000968213
0.000317168
0.00041536
0.000457171
0.00153804
0.00322638
0.00511983
0.00590037
0.00415909
0.00211064
0.00077166
8.8998e-05
0.000164456
0.000151233
0.000303997
0.000919804
0.00143134
0.00151474
0.00157874
0.0012307
0.0005642
0.000229555
6.48049e-05
0.000187459
0.00109153
0.00265211
0.00408857
0.0046069
0.00315995
0.00158441
0.000412171
0.000213768
0.000425878
0.000126212
0.000106647
0.000180365
0.000817908
0.00082993
0.00100818
0.000582355
0.00031831
0.000101885
7.20593e-05
0.000141747
0.00079612
0.00182824
0.00287453
0.00321949
0.00224387
0.00113681
0.000398772
0.000139817
0.00025532
0.000330518
1.99475e-05
0.000525861
0.000442961
0.000872645
0.000598131
0.000584906
0.000285272
0.000183578
0.000250761
3.38173e-05
0.000566113
0.00140248
0.00218932
0.00194188
0.00154294
0.000766188
0.000116972
8.28875e-05
0.000194884
7.41066e-05
0.000145832
0.000425345
0.000322576
0.000120131
0.000612181
0.000217838
0.00015989
9.86595e-05
1.92686e-05
0.000138551
0.000179514
0.00071415
0.0012017
0.000528296
0.000196221
0.00037751
9.3642e-05
0.00024744
0.00011738
0.000107758
2.19676e-05
7.3614e-05
4.76546e-05
2.48161e-05
0.000222723
0.000328331
0.000116824
1.97349e-06
0.000134995
0.000187062
0.000168762
0.000465889
0.000310439
0.00804929
0.0049768
0.00188461
0.000198086
0.00137356
0.00158962
0.00163603
0.00099385
8.44452e-05
0.000421361
0.000610859
0.000546136
0.00034422
0.000194551
0.000813235
0.00105218
0.000828535
0.000708939
0.00277867
0.00563933
0.00674089
0.0041245
0.0015024
0.000361882
0.00140158
0.00195169
0.00165602
0.0014471
0.000773739
0.000163043
8.70035e-05
0.000108545
0.000119409
0.000728088
0.00119764
0.00165866
0.00100407
3.04117e-05
0.00214966
0.00429722
0.00602356
0.00330621
0.000968799
0.000435374
0.00167155
0.00146837
0.00174219
0.00129088
0.000642333
0.000228609
0.000134695
0.0002716
0.000450614
0.000902543
0.00154919
0.00164509
0.000934189
0.000137125
0.00172012