/*--------------------------------*- C++ -*----------------------------------*\
| =========                 |                                                 |
| \\      /  F ield         | OpenFOAM: The Open Source CFD Toolbox           |
|  \\    /   O peration     | Version:  2212                                  |
|   \\  /    A nd           | Website:  www.openfoam.com                      |
|    \\/     M anipulation  |                                                 |
\*---------------------------------------------------------------------------*/
FoamFile
{
    version     2.0;
    format      ascii;
    arch        "LSB;label=32;scalar=64";
    class       volScalarField;
    location    "0";
    object      stateMean;
}
// * * * * * * * * * * * * * * * * * * * * * * * * * * * * * * * * * * * * * //

dimensions      [0 0 0 1 0 0 0];

internalField   nonuniform List<scalar> 
3200
(
349.125
348.064
347.42
347.255
347.516
348.107
348.738
349.343
349.968
350.356
350.352
350.067
349.622
348.794
347.905
347.054
346.526
346.407
346.759
347.675
342.46
341.595
341.007
340.965
341.072
341.565
342.182
342.78
343.231
343.484
343.472
343.302
342.838
342.209
341.417
340.731
340.18
340.035
340.415
341.123
335.859
335.128
334.7
334.558
334.711
335.135
335.644
336.137
336.544
336.704
336.75
336.571
336.188
335.598
334.92
334.333
333.969
333.78
334.04
334.67
329.234
328.715
328.299
328.194
328.425
328.696
329.167
329.482
329.883
330.071
330.097
329.957
329.576
329.111
328.604
328.036
327.743
327.574
327.815
328.201
322.74
322.249
322.064
321.972
322.078
322.298
322.607
323.011
323.124
323.413
323.357
323.194
323.046
322.598
322.264
321.793
321.528
321.404
321.705
321.925
316.245
315.91
315.705
315.724
315.719
315.963
316.074
316.363
316.572
316.624
316.69
316.591
316.416
316.139
315.853
315.586
315.357
315.308
315.426
315.604
309.747
309.649
309.451
309.424
309.493
309.541
309.747
309.819
309.867
309.962
310.061
309.969
309.815
309.675
309.523
309.382
309.259
309.178
309.271
309.413
303.235
303.155
303.208
303.164
303.143
303.199
303.259
303.346
303.291
303.372
303.359
303.395
303.329
303.327
303.254
303.15
303.019
303.1
303.094
303.037
349.093
348.035
347.32
347.317
347.517
348.194
348.86
349.573
350.285
350.574
350.717
350.346
349.876
349.033
348.04
347.199
346.598
346.315
346.749
347.602
342.418
341.59
341.073
340.802
341.218
341.728
342.276
342.972
343.406
343.763
343.799
343.594
343.044
342.324
341.555
340.862
340.25
340.059
340.376
341.085
335.881
335.185
334.755
334.575
334.83
335.187
335.763
336.3
336.743
337.004
337.076
336.807
336.469
335.82
335.038
334.433
333.941
333.86
334.04
334.587
329.281
328.67
328.361
328.214
328.408
328.805
329.209
329.702
330.027
330.188
330.261
330.073
329.802
329.221
328.633
328.164
327.747
327.562
327.915
328.199
322.739
322.305
322.002
321.959
322.103
322.458
322.675
323.086
323.305
323.549
323.586
323.381
323.059
322.729
322.295
321.908
321.57
321.467
321.61
321.964
316.24
315.944
315.738
315.716
315.761
315.967
316.112
316.44
316.697
316.806
316.816
316.701
316.522
316.235
315.857
315.58
315.396
315.344
315.469
315.7
309.711
309.687
309.454
309.438
309.508
309.514
309.665
309.889
310.046
310.091
310.045
309.966
309.977
309.713
309.589
309.426
309.263
309.266
309.357
309.414
303.253
303.243
303.148
303.124
303.181
303.191
303.251
303.283
303.352
303.351
303.328
303.342
303.283
303.249
303.164
303.133
303.11
303.11
303.076
303.135
349.188
348.119
347.494
347.421
347.731
348.413
349.213
350.026
350.692
351.214
351.303
351.077
350.373
349.507
348.508
347.578
346.782
346.552
346.947
347.679
342.392
341.689
341.012
341.052
341.277
341.931
342.511
343.318
343.866
344.138
344.307
344.026
343.572
342.83
341.878
341.058
340.497
340.285
340.49
341.078
335.822
335.177
334.726
334.67
334.866
335.362
335.968
336.559
337
337.339
337.418
337.226
336.773
336.162
335.447
334.746
334.189
333.978
334.178
334.756
329.245
328.768
328.393
328.374
328.559
328.959
329.433
329.886
330.244
330.463
330.623
330.394
330.114
329.475
328.891
328.359
327.931
327.772
327.927
328.279
322.736
322.444
322.035
322.004
322.155
322.456
322.898
323.135
323.578
323.703
323.724
323.638
323.384
322.864
322.395
321.972
321.742
321.558
321.686
321.95
316.226
316
315.768
315.708
315.799
316.114
316.349
316.605
316.854
316.857
316.928
316.929
316.686
316.374
316.062
315.698
315.47
315.434
315.527
315.679
309.708
309.572
309.424
309.402
309.566
309.704
309.782
309.977
309.99
310.206
310.144
310.094
309.963
309.811
309.604
309.423
309.319
309.248
309.323
309.38
303.267
303.218
303.116
303.173
303.201
303.273
303.283
303.294
303.423
303.461
303.433
303.427
303.404
303.283
303.277
303.244
303.187
303.148
303.131
303.126
349.34
348.308
347.785
347.685
348.133
348.751
349.676
350.647
351.384
351.873
352.047
351.695
351.062
350.179
349.061
348.102
347.291
346.947
347.274
347.947
342.643
341.819
341.247
341.304
341.609
342.26
343.035
343.781
344.455
344.872
344.933
344.807
344.189
343.372
342.395
341.486
340.912
340.594
340.825
341.43
335.989
335.352
334.848
334.948
335.24
335.684
336.272
336.952
337.484
337.92
338.004
337.81
337.265
336.524
335.804
335.008
334.467
334.222
334.504
334.974
329.437
328.915
328.562
328.592
328.739
329.201
329.59
330.262
330.599
331.055
330.989
330.856
330.45
329.953
329.322
328.595
328.155
328.06
328.188
328.512
322.908
322.536
322.171
322.225
322.355
322.719
323.135
323.475
323.845
324.113
324.082
323.989
323.676
323.248
322.663
322.278
321.936
321.777
321.897
322.091
316.287
316.101
315.9
315.833
315.991
316.196
316.521
316.811
317.003
317.182
317.201
317.12
316.916
316.57
316.228
315.853
315.677
315.475
315.647
315.765
309.779
309.675
309.635
309.512
309.523
309.735
309.878
310.067
310.169
310.233
310.391
310.274
310.134
310.027
309.751
309.561
309.399
309.299
309.332
309.535
303.244
303.169
303.19
303.19
303.247
303.262
303.329
303.373
303.494
303.409
303.361
303.446
303.375
303.341
303.256
303.249
303.097
303.155
303.139
303.139
349.67
348.775
348.187
348.158
348.686
349.342
350.227
351.296
352.037
352.744
352.86
352.623
351.876
350.892
349.714
348.707
347.84
347.561
347.786
348.402
342.985
342.271
341.706
341.694
342.129
342.735
343.502
344.344
345.085
345.584
345.671
345.489
344.759
344.029
342.975
342.01
341.322
340.993
341.294
341.794
336.291
335.734
335.329
335.311
335.575
336.158
336.812
337.346
338.066
338.451
338.523
338.401
337.895
337.154
336.294
335.527
334.902
334.744
334.807
335.241
329.655
329.191
328.858
328.856
329.067
329.518
330.051
330.611
331.13
331.483
331.575
331.314
330.952
330.342
329.727
329.046
328.517
328.293
328.49
328.735
323.045
322.734
322.357
322.389
322.684
322.966
323.348
323.848
324.133
324.366
324.559
324.377
324.069
323.627
323.015
322.548
322.191
321.963
322.064
322.385
316.474
316.166
316.037
315.995
316.23
316.353
316.713
316.912
317.285
317.412
317.446
317.36
317.211
316.793
316.408
316.178
315.815
315.586
315.762
315.967
309.771
309.701
309.611
309.601
309.642
309.854
309.968
310.214
310.341
310.391
310.473
310.392
310.335
310.094
309.898
309.688
309.497
309.495
309.466
309.599
303.313
303.314
303.301
303.195
303.229
303.284
303.381
303.387
303.457
303.48
303.506
303.484
303.442
303.302
303.336
303.262
303.192
303.145
303.193
303.208
350.173
349.349
348.861
348.816
349.238
350.019
350.956
351.995
352.845
353.597
353.782
353.534
352.905
351.754
350.524
349.492
348.612
348.27
348.506
349.009
343.434
342.686
342.33
342.304
342.678
343.305
344.123
344.94
345.787
346.327
346.442
346.235
345.686
344.723
343.7
342.759
341.942
341.678
341.85
342.355
336.741
336.115
335.696
335.716
336.031
336.597
337.321
337.999
338.673
339.053
339.286
339.087
338.531
337.742
336.875
336.057
335.54
335.217
335.374
335.732
329.924
329.531
329.189
329.2
329.532
329.925
330.535
331.011
331.563
331.897
332.113
331.897
331.48
330.826
330.17
329.458
329
328.765
328.86
329.206
323.24
322.986
322.697
322.703
322.978
323.212
323.656
324.118
324.55
324.845
324.954
324.813
324.439
323.947
323.474
322.942
322.447
322.376
322.368
322.619
316.646
316.364
316.239
316.222
316.342
316.591
316.933
317.224
317.554
317.784
317.805
317.646
317.483
317.222
316.708
316.352
316.069
315.902
316.002
316.109
310.001
309.741
309.765
309.742
309.933
309.979
310.122
310.324
310.542
310.688
310.65
310.622
310.456
310.296
310.034
309.893
309.694
309.591
309.606
309.742
303.41
303.252
303.299
303.284
303.3
303.334
303.499
303.52
303.549
303.513
303.618
303.577
303.528
303.441
303.329
303.317
303.235
303.192
303.269
303.249
350.911
350.087
349.57
349.572
349.972
350.741
351.775
352.818
353.769
354.436
354.717
354.397
353.738
352.651
351.436
350.307
349.41
349.116
349.283
349.788
344.002
343.335
342.866
342.906
343.277
343.928
344.803
345.615
346.467
347.094
347.333
347.126
346.467
345.469
344.541
343.541
342.716
342.42
342.517
342.979
337.115
336.618
336.275
336.249
336.563
337.09
337.845
338.596
339.206
339.754
339.912
339.742
339.151
338.393
337.503
336.711
336.089
335.885
335.982
336.209
330.347
329.989
329.666
329.635
329.896
330.321
330.909
331.524
332.162
332.438
332.645
332.525
332.118
331.423
330.668
329.974
329.433
329.278
329.37
329.628
323.636
323.31
323.012
323.082
323.25
323.559
323.99
324.479
324.958
325.276
325.328
325.224
324.825
324.405
323.869
323.336
322.889
322.656
322.778
323.072
316.859
316.647
316.507
316.419
316.549
316.832
317.139
317.443
317.722
318.037
318.102
318.008
317.773
317.418
316.979
316.7
316.342
316.249
316.185
316.418
310.115
309.961
309.829
309.883
309.986
310.038
310.344
310.573
310.754
310.794
310.875
310.833
310.716
310.5
310.25
310.067
309.817
309.768
309.809
309.845
303.333
303.302
303.282
303.335
303.372
303.418
303.478
303.528
303.651
303.685
303.66
303.712
303.631
303.479
303.343
303.29
303.286
303.178
303.23
303.251
351.616
350.801
350.377
350.362
350.734
351.566
352.464
353.68
354.685
355.411
355.706
355.329
354.616
353.533
352.292
351.178
350.303
349.935
350.116
350.569
344.636
343.963
343.62
343.623
343.882
344.604
345.446
346.386
347.323
347.787
348.139
347.842
347.3
346.207
345.185
344.231
343.518
343.191
343.316
343.729
337.671
337.148
336.84
336.822
337.166
337.687
338.435
339.185
339.873
340.44
340.665
340.459
339.912
339.056
338.165
337.405
336.754
336.477
336.498
336.865
330.794
330.464
330.106
330.024
330.344
330.85
331.428
332.007
332.554
333.031
333.141
333.079
332.52
331.912
331.201
330.493
329.975
329.744
329.771
330.086
323.946
323.636
323.394
323.384
323.692
323.966
324.402
324.915
325.421
325.705
325.754
325.637
325.335
324.834
324.213
323.693
323.287
323.12
323.204
323.412
317.137
316.928
316.728
316.788
316.87
317.132
317.418
317.823
318.09
318.274
318.362
318.333
318.049
317.741
317.376
316.905
316.57
316.532
316.572
316.7
310.204
310.16
310.018
309.976
310.15
310.263
310.489
310.614
310.846
310.944
311.025
310.97
310.828
310.598
310.432
310.148
310.022
309.908
309.999
309.955
303.444
303.373
303.42
303.352
303.343
303.484
303.488
303.587
303.628
303.68
303.73
303.635
303.701
303.583
303.525
303.398
303.331
303.328
303.285
303.32
352.488
351.704
351.277
351.158
351.725
352.367
353.299
354.514
355.419
356.174
356.597
356.331
355.587
354.396
353.317
352.135
351.317
350.906
351.004
351.614
345.417
344.688
344.29
344.309
344.726
345.351
346.192
347.106
347.997
348.614
348.863
348.609
348.038
347.073
345.996
345.083
344.323
344.024
344.149
344.469
338.319
337.863
337.475
337.385
337.794
338.294
338.939
339.808
340.44
341.007
341.188
341.151
340.59
339.724
338.893
338.127
337.418
337.155
337.208
337.561
331.308
330.846
330.587
330.656
330.842
331.328
331.861
332.564
333.035
333.593
333.659
333.548
333.04
332.423
331.805
331.181
330.579
330.345
330.395
330.608
324.299
324.02
323.874
323.819
323.996
324.306
324.817
325.175
325.666
326.006
326.183
326.096
325.731
325.212
324.707
324.146
323.784
323.632
323.585
323.763
317.342
317.147
316.953
317.031
317.13
317.388
317.697
318.017
318.34
318.542
318.726
318.583
318.383
318.092
317.608
317.158
316.945
316.831
316.796
316.967
310.336
310.233
310.224
310.195
310.333
310.407
310.578
310.821
310.94
311.128
311.188
311.197
311.045
310.837
310.552
310.312
310.23
310.09
310.121
310.215
303.467
303.427
303.401
303.374
303.459
303.464
303.568
303.633
303.67
303.729
303.764
303.78
303.667
303.633
303.521
303.45
303.453
303.363
303.446
303.378
353.37
352.595
352.234
352.151
352.504
353.236
354.226
355.257
356.214
357.017
357.314
357.077
356.419
355.275
354.154
353.099
352.253
351.868
351.985
352.434
346.079
345.477
345.175
345.093
345.499
346.108
346.86
347.741
348.683
349.358
349.475
349.367
348.84
347.794
346.789
345.752
345.155
344.8
344.925
345.236
338.934
338.41
338.174
338.125
338.416
338.974
339.624
340.304
340.957
341.55
341.878
341.666
341.117
340.341
339.472
338.728
338.146
337.836
337.976
338.158
331.816
331.413
331.198
331.099
331.35
331.8
332.34
332.948
333.615
334.009
334.15
334.061
333.595
332.916
332.241
331.641
331.12
331.015
330.929
331.174
324.832
324.352
324.188
324.182
324.347
324.764
325.155
325.578
326.182
326.411
326.6
326.424
326.095
325.518
324.986
324.599
324.198
324.067
324.071
324.167
317.672
317.42
317.292
317.365
317.408
317.602
317.92
318.28
318.621
318.867
318.913
318.845
318.608
318.308
317.916
317.488
317.212
317.133
317.258
317.346
310.58
310.441
310.365
310.31
310.449
310.609
310.702
311.051
311.222
311.339
311.387
311.311
311.238
310.954
310.812
310.596
310.347
310.305
310.242
310.357
303.526
303.518
303.518
303.469
303.546
303.57
303.628
303.753
303.747
303.764
303.774
303.885
303.74
303.75
303.575
303.515
303.449
303.425
303.468
303.46
354.305
353.503
353.071
352.976
353.378
354.1
354.899
356.059
356.979
357.865
358.023
357.868
357.217
356.052
355.021
353.965
353.146
352.828
352.947
353.443
346.884
346.286
345.895
345.864
346.184
346.739
347.484
348.513
349.283
349.824
350.126
349.996
349.386
348.521
347.521
346.589
345.908
345.673
345.784
346.16
339.593
339.198
338.817
338.773
339.01
339.561
340.191
340.923
341.576
342.093
342.442
342.212
341.736
340.959
340.195
339.327
338.783
338.607
338.657
338.934
332.326
331.891
331.737
331.671
331.887
332.267
332.875
333.408
333.95
334.461
334.539
334.446
334.088
333.461
332.727
332.111
331.702
331.406
331.615
331.717
325.088
324.811
324.578
324.604
324.764
325.182
325.538
326.033
326.415
326.653
326.878
326.825
326.479
326.038
325.436
324.909
324.617
324.446
324.488
324.66
317.959
317.732
317.609
317.586
317.657
317.898
318.219
318.585
318.825
319.092
319.221
319.129
318.838
318.534
318.164
317.756
317.598
317.466
317.444
317.523
310.721
310.67
310.524
310.472
310.593
310.802
310.95
311.086
311.304
311.495
311.547
311.493
311.358
311.16
310.869
310.665
310.547
310.464
310.499
310.559
303.553
303.493
303.562
303.52
303.574
303.601
303.748
303.699
303.795
303.846
303.812
303.878
303.805
303.741
303.566
303.621
303.557
303.503
303.446
303.591
355.21
354.517
354.059
353.918
354.259
355.002
355.82
356.735
357.643
358.283
358.689
358.505
357.77
356.842
355.754
354.778
354.08
353.846
353.881
354.398
347.808
347.102
346.776
346.698
347.001
347.56
348.276
349.077
349.916
350.429
350.661
350.589
349.938
349.177
348.207
347.358
346.768
346.502
346.52
347.003
340.317
339.855
339.493
339.446
339.606
340.183
340.688
341.424
342.152
342.581
342.79
342.654
342.193
341.404
340.753
339.991
339.5
339.162
339.345
339.65
332.977
332.555
332.237
332.191
332.42
332.808
333.23
333.924
334.401
334.735
335.035
334.855
334.41
333.896
333.238
332.625
332.185
332.053
332.095
332.304
325.568
325.349
325.117
325.128
325.247
325.501
325.847
326.36
326.689
326.931
327.203
327.101
326.751
326.383
325.81
325.375
325.071
324.908
325.005
325.149
318.232
318.129
317.918
317.904
317.971
318.21
318.521
318.751
319.054
319.311
319.398
319.36
319.118
318.821
318.463
318.104
317.87
317.781
317.822
317.944
310.979
310.843
310.783
310.756
310.797
310.933
311.103
311.32
311.434
311.67
311.663
311.616
311.487
311.338
311.042
310.9
310.784
310.617
310.688
310.755
303.712
303.646
303.643
303.616
303.626
303.66
303.658
303.717
303.84
303.89
303.886
303.882
303.87
303.777
303.675
303.649
303.526
303.576
303.562
303.589
356.195
355.448
355.036
354.895
355.212
355.788
356.538
357.48
358.341
358.926
359.238
358.99
358.409
357.564
356.51
355.67
354.989
354.812
354.91
355.369
348.631
348.027
347.699
347.481
347.695
348.228
349.018
349.727
350.366
350.845
351.155
350.902
350.458
349.693
348.848
348.035
347.524
347.245
347.379
347.89
340.981
340.514
340.249
340.164
340.318
340.761
341.307
342.036
342.586
343.035
343.207
343.139
342.623
341.907
341.247
340.677
340.132
339.869
340.011
340.406
333.546
333.103
332.878
332.808
333.003
333.351
333.749
334.348
334.857
335.153
335.305
335.183
334.708
334.236
333.753
333.168
332.69
332.673
332.753
332.925
326.032
325.768
325.546
325.453
325.629
325.862
326.222
326.736
326.96
327.373
327.429
327.385
327.025
326.631
326.136
325.713
325.483
325.293
325.447
325.608
318.652
318.384
318.222
318.21
318.296
318.517
318.764
319.01
319.286
319.497
319.537
319.535
319.319
319.021
318.733
318.468
318.128
318.063
318.092
318.247
311.068
311.13
311.009
310.92
310.971
311.075
311.234
311.47
311.527
311.716
311.762
311.716
311.638
311.38
311.139
311.015
310.936
310.904
310.905
310.929
303.655
303.653
303.637
303.755
303.623
303.771
303.753
303.845
303.873
303.924
303.957
303.848
303.912
303.805
303.778
303.662
303.621
303.604
303.613
303.602
357.123
356.465
355.986
355.833
356.056
356.701
357.283
358.11
358.918
359.402
359.612
359.436
358.931
358.154
357.243
356.484
355.836
355.689
355.911
356.467
349.397
348.857
348.408
348.299
348.54
348.913
349.627
350.415
350.888
351.36
351.717
351.427
350.914
350.317
349.574
348.797
348.302
348.142
348.341
348.659
341.806
341.273
340.957
340.79
341.01
341.344
341.869
342.459
343.012
343.394
343.585
343.444
343.011
342.432
341.832
341.141
340.78
340.616
340.768
341.068
334.14
333.685
333.421
333.417
333.507
333.849
334.165
334.706
335.187
335.493
335.54
335.466
335.201
334.674
334.159
333.684
333.371
333.169
333.301
333.568
326.544
326.217
325.973
325.934
326.02
326.278
326.6
326.958
327.237
327.553
327.655
327.518
327.336
326.932
326.537
326.17
325.834
325.796
325.823
325.986
318.95
318.673
318.563
318.474
318.602
318.811
319.003
319.266
319.451
319.642
319.713
319.652
319.471
319.224
318.992
318.629
318.407
318.362
318.454
318.567
311.321
311.233
311.143
311.122
311.185
311.247
311.373
311.587
311.705
311.752
311.864
311.864
311.723
311.565
311.39
311.158
311.065
311.082
311.151
311.189
303.728
303.658
303.805
303.762
303.731
303.771
303.882
303.863
303.939
303.969
303.915
303.989
303.92
303.887
303.777
303.764
303.67
303.725
303.7
303.759
358.276
357.512
357.032
356.82
357.085
357.474
358.041
358.907
359.455
359.946
360.162
359.998
359.52
358.807
358.107
357.341
356.797
356.667
356.947
357.423
350.454
349.724
349.367
349.168
349.333
349.708
350.28
350.834
351.436
351.816
351.992
351.843
351.418
350.85
350.198
349.485
349.164
348.981
349.116
349.539
342.602
341.99
341.708
341.54
341.741
341.996
342.405
342.99
343.471
343.795
343.964
343.754
343.464
342.948
342.384
341.872
341.41
341.273
341.408
341.812
334.721
334.323
334.056
333.899
334.053
334.32
334.646
335.107
335.521
335.775
335.85
335.796
335.544
335.038
334.64
334.171
333.881
333.767
333.834
334.141
326.985
326.711
326.44
326.38
326.5
326.606
326.94
327.183
327.633
327.745
327.901
327.74
327.543
327.203
326.883
326.509
326.283
326.16
326.225
326.565
319.265
319.097
318.914
318.805
318.835
319.06
319.25
319.433
319.72
319.85
319.846
319.824
319.719
319.463
319.205
318.967
318.763
318.73
318.809
318.905
311.536
311.458
311.375
311.239
311.356
311.364
311.606
311.738
311.856
311.868
311.948
311.886
311.829
311.624
311.503
311.382
311.3
311.204
311.246
311.357
303.785
303.86
303.792
303.824
303.838
303.83
303.93
303.93
303.95
304.007
303.961
304.004
303.91
303.855
303.921
303.774
303.813
303.755
303.746
303.796
359.392
358.499
358.018
357.853
357.938
358.348
358.912
359.645
360.065
360.52
360.652
360.507
360.153
359.531
358.681
358.121
357.658
357.651
357.894
358.46
351.295
350.664
350.26
350.022
350.171
350.543
350.966
351.551
351.981
352.302
352.469
352.313
351.881
351.449
350.818
350.248
349.976
349.766
349.95
350.467
343.317
342.806
342.394
342.29
342.353
342.697
343.093
343.54
343.929
344.248
344.282
344.169
343.811
343.384
342.83
342.483
342.085
342.03
342.194
342.512
335.331
335.015
334.667
334.568
334.617
334.903
335.178
335.549
335.909
336.158
336.186
336.13
335.86
335.418
335.035
334.669
334.373
334.327
334.512
334.727
327.461
327.192
326.938
326.826
326.883
327.056
327.365
327.611
327.754
328.024
328.028
328.025
327.767
327.51
327.228
326.929
326.737
326.681
326.757
326.896
319.578
319.41
319.243
319.201
319.306
319.352
319.479
319.7
319.959
319.977
320.114
319.982
319.893
319.676
319.493
319.181
319.063
319.061
319.142
319.249
311.748
311.71
311.58
311.493
311.543
311.612
311.741
311.882
312.021
312.015
311.951
312.079
311.905
311.814
311.704
311.563
311.5
311.397
311.452
311.518
303.896
303.824
303.917
303.812
303.953
303.877
303.976
303.975
304.007
304.008
303.986
304.053
304.068
303.907
303.912
303.837
303.783
303.853
303.906
303.83
360.318
359.651
359.062
358.844
358.929
359.317
359.706
360.261
360.816
361.115
361.183
361.043
360.743
360.225
359.596
359.045
358.618
358.641
358.864
359.457
352.145
351.593
351.122
350.926
351.001
351.211
351.667
352.022
352.456
352.888
352.861
352.767
352.49
351.994
351.477
350.911
350.701
350.584
350.902
351.29
344.193
343.564
343.14
343.046
342.995
343.407
343.609
344.003
344.394
344.622
344.655
344.521
344.293
343.898
343.379
343.004
342.874
342.761
343.021
343.287
335.974
335.624
335.23
335.108
335.228
335.257
335.683
336.003
336.293
336.398
336.515
336.441
336.127
335.899
335.466
335.251
334.939
334.924
335.109
335.356
328.042
327.677
327.401
327.344
327.348
327.496
327.746
327.96
328.172
328.284
328.375
328.215
328.169
327.882
327.515
327.348
327.074
327.171
327.273
327.387
319.957
319.773
319.561
319.586
319.561
319.621
319.773
319.966
320.115
320.154
320.277
320.22
320.12
319.951
319.687
319.447
319.429
319.415
319.392
319.634
312.113
311.844
311.771
311.787
311.772
311.803
311.904
311.935
311.987
312.139
312.111
312.162
312.018
311.963
311.84
311.669
311.558
311.598
311.719
311.805
304.022
303.968
303.944
303.87
303.942
303.975
304.013
303.977
304.038
304.061
304.027
304.074
304.025
303.986
303.912
303.929
303.87
303.879
304.019
303.897
361.503
360.663
360.07
359.846
359.969
360.139
360.617
361.121
361.462
361.676
361.783
361.622
361.346
360.846
360.352
359.835
359.607
359.612
360.013
360.539
353.15
352.453
351.978
351.795
351.894
352.038
352.428
352.787
353.105
353.391
353.424
353.263
353.001
352.629
352.126
351.803
351.471
351.565
351.871
352.292
344.857
344.321
343.964
343.815
343.787
343.969
344.217
344.55
344.806
345.062
345.052
345.025
344.739
344.402
344.071
343.601
343.474
343.515
343.665
344.084
336.586
336.24
335.909
335.764
335.692
335.864
336.134
336.451
336.708
336.797
336.852
336.808
336.636
336.312
335.965
335.649
335.508
335.505
335.693
336.009
328.491
328.108
327.932
327.795
327.799
327.938
328.189
328.298
328.476
328.561
328.591
328.593
328.387
328.132
327.926
327.73
327.565
327.636
327.688
327.944
320.331
320.026
319.961
319.838
319.861
319.878
320.072
320.182
320.374
320.385
320.374
320.373
320.298
320.173
319.959
319.749
319.615
319.684
319.759
319.96
312.203
312.066
311.953
311.87
311.926
311.974
312.071
312.111
312.218
312.297
312.279
312.266
312.172
312.066
311.93
311.872
311.785
311.89
311.813
311.972
304.118
304.013
303.955
303.993
304.008
304
304.04
304.148
304.116
304.094
304.111
304.046
304.036
303.995
304.038
303.976
303.915
303.91
303.99
303.988
362.632
361.741
361.186
360.835
360.964
361.084
361.376
361.833
362.11
362.35
362.371
362.309
362.024
361.577
361.045
360.755
360.555
360.591
360.95
361.607
354.067
353.38
352.836
352.629
352.605
352.804
352.953
353.427
353.666
353.897
353.892
353.865
353.563
353.117
352.823
352.422
352.323
352.333
352.636
353.188
345.664
345.115
344.669
344.47
344.391
344.566
344.808
345.064
345.263
345.491
345.481
345.391
345.122
344.949
344.545
344.317
344.154
344.187
344.393
344.839
337.346
336.895
336.451
336.348
336.339
336.314
336.597
336.824
337.036
337.143
337.172
337.122
336.936
336.579
336.412
336.147
336.048
335.986
336.256
336.606
328.964
328.595
328.371
328.181
328.191
328.255
328.439
328.618
328.727
328.848
328.913
328.83
328.669
328.506
328.284
328.077
328.002
327.982
328.12
328.453
320.686
320.434
320.255
320.159
320.089
320.192
320.335
320.462
320.55
320.595
320.58
320.645
320.489
320.366
320.182
320.107
320.022
319.945
320.057
320.248
312.32
312.25
312.18
312.069
312.145
312.225
312.148
312.217
312.302
312.241
312.395
312.299
312.268
312.141
312.2
312.024
311.933
311.964
312.019
312.111
304.168
304.17
304.057
304.053
304.062
304.129
304.08
304.074
304.244
304.117
304.085
304.073
304.083
303.982
304.095
304.031
303.924
303.996
303.988
304.055
363.442
362.673
362.017
361.585
361.629
361.723
362.098
362.259
362.661
362.804
362.858
362.785
362.442
362.143
361.666
361.445
361.238
361.357
361.774
362.406
354.797
354.06
353.475
353.224
353.242
353.309
353.573
353.892
354.154
354.231
354.323
354.241
353.996
353.624
353.368
353.136
352.948
352.969
353.352
353.792
346.227
345.631
345.159
344.988
344.939
345.021
345.256
345.43
345.663
345.798
345.83
345.744
345.565
345.204
344.948
344.649
344.553
344.714
344.897
345.31
337.669
337.241
336.89
336.727
336.634
336.808
336.906
337.133
337.299
337.39
337.413
337.309
337.231
336.952
336.717
336.517
336.349
336.47
336.706
336.994
329.209
328.943
328.646
328.556
328.466
328.521
328.646
328.834
328.932
329.01
329.045
328.963
328.844
328.709
328.495
328.391
328.278
328.225
328.487
328.788
320.969
320.661
320.408
320.386
320.275
320.443
320.543
320.627
320.594
320.716
320.73
320.76
320.555
320.441
320.356
320.256
320.114
320.207
320.306
320.48
312.531
312.401
312.323
312.221
312.21
312.245
312.242
312.266
312.382
312.385
312.443
312.438
312.395
312.265
312.194
312.087
312.055
312.163
312.148
312.31
304.226
304.166
304.138
304.202
304.093
304.117
304.125
304.184
304.153
304.166
304.158
304.109
304.078
304.142
304.104
304.05
304.064
304.098
304.142
304.236
)
;

boundaryField
{
    hotSide
    {
        type            fixedGradient;
        gradient        nonuniform List<scalar> 
400
(
321.511
322.87
325.591
329.677
335.133
341.965
350.181
359.788
370.794
383.208
397.037
412.289
428.971
447.088
466.647
487.651
510.105
534.011
559.372
586.191
323.738
325.08
327.767
331.802
337.194
343.949
352.078
361.591
372.498
384.81
398.537
413.687
430.268
448.289
467.755
488.672
511.043
534.872
560.161
586.913
326.149
327.47
330.116
334.091
339.406
346.071
354.099
363.503
374.296
386.491
400.101
415.136
431.606
449.52
468.885
489.706
511.988
535.735
560.948
587.63
328.704
330
332.597
336.503
341.73
348.292
356.205
365.485
376.15
388.215
401.695
416.604
432.954
450.753
470.009
490.73
512.919
536.579
561.714
588.325
331.33
332.599
335.142
338.97
344.099
350.546
358.332
367.477
378.003
389.928
403.271
418.047
434.27
451.949
471.095
491.712
513.807
537.382
562.439
588.978
333.918
335.158
337.643
341.389
346.414
352.74
360.392
369.397
379.779
391.562
404.765
419.407
435.503
453.065
472.101
492.618
514.622
538.114
563.096
589.569
336.321
337.531
339.959
343.622
348.544
354.751
362.274
371.142
381.385
393.031
406.101
420.618
436.595
454.047
472.983
493.409
515.33
538.747
563.663
590.076
338.36
339.543
341.92
345.509
350.339
356.44
363.847
372.595
382.718
394.244
407.2
421.608
437.485
454.844
473.695
494.045
515.897
539.253
564.114
590.478
339.852
341.015
343.352
346.885
351.645
357.665
364.985
373.643
383.675
395.113
407.984
422.312
438.116
455.407
474.197
494.491
516.294
539.606
564.428
590.758
340.643
341.795
344.11
347.613
352.334
358.311
365.584
374.193
384.176
395.567
408.393
422.679
438.443
455.699
474.456
494.722
516.498
539.788
564.589
590.901
340.643
341.795
344.11
347.613
352.334
358.311
365.584
374.193
384.176
395.567
408.393
422.679
438.443
455.699
474.456
494.722
516.498
539.788
564.589
590.901
339.852
341.015
343.352
346.885
351.645
357.665
364.985
373.643
383.675
395.113
407.984
422.312
438.116
455.407
474.197
494.491
516.294
539.606
564.428
590.758
338.36
339.543
341.92
345.509
350.339
356.44
363.847
372.595
382.718
394.244
407.2
421.608
437.485
454.844
473.695
494.045
515.897
539.253
564.114
590.478
336.321
337.531
339.959
343.622
348.544
354.751
362.274
371.142
381.385
393.031
406.101
420.618
436.595
454.047
472.983
493.409
515.33
538.747
563.663
590.076
333.918
335.158
337.643
341.389
346.414
352.74
360.392
369.397
379.779
391.562
404.765
419.407
435.503
453.065
472.101
492.618
514.622
538.114
563.096
589.569
331.33
332.599
335.142
338.97
344.099
350.546
358.332
367.477
378.003
389.928
403.271
418.047
434.27
451.949
471.095
491.712
513.807
537.382
562.439
588.978
328.704
330
332.597
336.503
341.73
348.292
356.205
365.485
376.15
388.215
401.695
416.604
432.954
450.753
470.009
490.73
512.919
536.579
561.714
588.325
326.149
327.47
330.116
334.091
339.406
346.071
354.099
363.503
374.296
386.491
400.101
415.136
431.606
449.52
468.885
489.706
511.988
535.735
560.948
587.63
323.738
325.08
327.767
331.802
337.194
343.949
352.078
361.591
372.498
384.81
398.537
413.687
430.268
448.289
467.755
488.672
511.043
534.872
560.161
586.913
321.511
322.87
325.591
329.677
335.133
341.965
350.181
359.788
370.794
383.208
397.037
412.289
428.971
447.088
466.647
487.651
510.105
534.011
559.372
586.191
)
;
    }
    coldSide
    {
        type            mixed;
        refValue        uniform 300;
        refGradient     uniform 0;
        valueFraction   uniform 0.991591;
        source          uniform 0;
        value           nonuniform List<scalar> 
400
(
300.027
300.027
300.027
300.027
300.028
300.029
300.028
300.029
300.029
300.03
300.03
300.031
300.031
300.031
300.032
300.033
300.034
300.035
300.035
300.036
300.027
300.027
300.027
300.027
300.028
300.027
300.028
300.028
300.029
300.03
300.029
300.031
300.031
300.031
300.032
300.032
300.033