/*--------------------------------*- C++ -*----------------------------------*\
| =========                 |                                                 |
| \\      /  F ield         | OpenFOAM: The Open Source CFD Toolbox           |
|  \\    /   O peration     | Version:  2212                                  |
|   \\  /    A nd           | Website:  www.openfoam.com                      |
|    \\/     M anipulation  |                                                 |
\*---------------------------------------------------------------------------*/
FoamFile
{
    version     2.0;
    format      ascii;
    arch        "LSB;label=32;scalar=64";
    class       volScalarField;
    location    "0";
    object      T;
}
// * * * * * * * * * * * * * * * * * * * * * * * * * * * * * * * * * * * * * //

dimensions      [0 0 0 1 0 0 0];

internalField   nonuniform List<scalar> 
3200
(
348.828
347.389
346.405
346.234
346.579
347.318
348.18
349.118
350.008
350.741
351.122
351.379
351.273
351.07
350.741
350.486
350.436
351.034
352.207
353.686
342.577
341.342
340.52
340.324
340.614
341.239
341.966
342.76
343.538
344.119
344.479
344.679
344.565
344.393
344.065
343.844
343.778
344.285
345.311
346.566
336.207
335.164
334.505
334.287
334.552
335.066
335.663
336.297
336.999
337.438
337.76
337.895
337.811
337.637
337.337
337.143
337.084
337.499
338.376
339.414
329.728
328.879
328.381
328.162
328.408
328.806
329.302
329.784
330.357
330.703
330.981
331.072
331.008
330.852
330.578
330.414
330.377
330.709
331.437
332.258
323.178
322.514
322.19
321.965
322.197
322.485
322.846
323.222
323.666
323.947
324.154
324.197
324.163
324.019
323.809
323.685
323.637
323.909
324.458
325.108
316.598
316.127
315.923
315.735
315.919
316.097
316.352
316.629
316.934
317.14
317.291
317.301
317.286
317.169
317.017
316.916
316.907
317.086
317.484
317.964
309.981
309.708
309.604
309.462
309.578
309.667
309.839
310.012
310.191
310.291
310.403
310.394
310.411
310.313
310.215
310.154
310.158
310.256
310.52
310.794
303.348
303.256
303.232
303.164
303.214
303.247
303.303
303.357
303.414
303.447
303.493
303.485
303.498
303.462
303.425
303.401
303.398
303.437
303.543
303.62
348.954
347.58
346.548
346.379
346.706
347.631
348.585
349.499
350.497
351.258
351.734
351.849
351.847
351.531
351.083
350.775
350.631
351.248
352.427
353.96
342.696
341.491
340.635
340.443
340.738
341.521
342.321
343.061
343.933
344.581
344.981
345.085
345.059
344.762
344.391
344.104
343.932
344.496
345.501
346.784
336.328
335.276
334.6
334.405
334.672
335.299
335.954
336.552
337.305
337.834
338.142
338.208
338.198
337.949
337.648
337.378
337.221
337.717
338.546
339.618
329.839
328.977
328.43
328.279
328.542
329.015
329.512
329.985
330.621
331.026
331.271
331.309
331.305
331.105
330.845
330.624
330.514
330.911
331.571
332.459
323.307
322.625
322.21
322.084
322.326
322.649
323.024
323.375
323.87
324.184
324.362
324.366
324.369
324.242
324.029
323.846
323.744
324.079
324.588
325.271
316.697
316.216
315.917
315.817
316.004
316.222
316.484
316.74
317.076
317.289
317.443
317.425
317.417
317.324
317.205
317.051
316.989
317.218
317.559
318.089
310.063
309.745
309.581
309.495
309.643
309.755
309.926
310.078
310.268
310.396
310.48
310.46
310.469
310.415
310.359
310.236
310.212
310.338
310.558
310.89
303.376
303.268
303.214
303.173
303.232
303.265
303.33
303.383
303.445
303.489
303.506
303.514
303.522
303.495
303.481
303.432
303.424
303.464
303.547
303.651
349.336
348.061
347.075
346.91
347.278
348.139
349.224
350.178
351.242
351.985
352.521
352.661
352.516
352.249
351.784
351.424
351.261
351.666
352.924
354.438
343.033
341.912
341.074
340.9
341.221
341.956
342.857
343.682
344.575
345.214
345.65
345.759
345.629
345.366
344.985
344.664
344.486
344.861
345.94
347.211
336.599
335.647
334.95
334.804
335.075
335.653
336.408
337.096
337.846
338.388
338.712
338.802
338.699
338.46
338.127
337.845
337.692
338.039
338.901
339.988
330.058
329.31
328.716
328.608
328.829
329.274
329.891
330.416
331.048
331.472
331.715
331.812
331.7
331.522
331.238
330.991
330.87
331.184
331.851
332.736
323.44
322.889
322.4
322.337
322.486
322.858
323.338
323.69
324.211
324.513
324.678
324.784
324.682
324.558
324.344
324.09
324.041
324.308
324.788
325.485
316.767
316.396
316.039
315.999
316.113
316.38
316.734
316.945
317.319
317.541
317.657
317.722
317.659
317.576
317.427
317.217
317.178
317.371
317.721
318.221
310.069
309.846
309.657
309.628
309.691
309.848
310.061
310.192
310.416
310.541
310.619
310.643
310.616
310.572
310.474
310.346
310.329
310.443
310.64
310.942
303.369
303.304
303.245
303.235
303.259
303.313
303.378
303.417
303.494
303.521
303.563
303.562
303.557
303.544
303.51
303.459
303.469
303.5
303.571
303.666
350.096
348.612
347.907
347.66
348.143
348.985
350.131
351.109
352.217
353.089
353.516
353.777
353.609
353.233
352.714
352.309
352.056
352.428
353.462
355.049
343.691
342.422
341.82
341.583
341.96
342.685
343.671
344.458
345.413
346.161
346.517
346.733
346.584
346.242
345.781
345.441
345.212
345.503
346.402
347.752
337.126
336.097
335.576
335.377
335.663
336.287
337.105
337.751
338.543
339.172
339.476
339.627
339.51
339.181
338.803
338.505
338.323
338.545
339.334
340.412
330.464
329.668
329.205
329.082
329.275
329.784
330.461
330.972
331.609
332.119
332.382
332.485
332.391
332.09
331.797
331.553
331.394
331.561
332.235
333.088
323.754
323.154
322.796
322.697
322.829
323.214
323.754
324.133
324.623
324.993
325.225
325.303
325.243
324.989
324.76
324.571
324.447
324.597
325.108
325.738
317
316.585
316.324
316.264
316.327
316.621
317.006
317.252
317.626
317.885
318.05
318.091
318.048
317.864
317.7
317.564
317.484
317.601
317.962
318.381
310.214
309.974
309.823
309.778
309.824
309.995
310.234
310.362
310.614
310.765
310.845
310.868
310.823
310.732
310.629
310.552
310.501
310.562
310.784
311.047
303.42
303.336
303.299
303.274
303.294
303.36
303.435
303.473
303.56
303.61
303.63
303.648
303.621
303.6
303.562
303.542
303.518
303.535
303.614
303.706
351.128
349.684
348.894
348.739
349.173
349.983
351.256
352.322
353.464
354.194
354.743
355.095
354.789
354.32
353.815
353.364
353.149
353.469
354.513
355.84
344.557
343.346
342.644
342.521
342.856
343.546
344.619
345.52
346.518
347.105
347.578
347.879
347.593
347.163
346.746
346.341
346.141
346.428
347.347
348.403
337.86
336.865
336.288
336.189
336.408
336.99
337.902
338.665
339.482
339.965
340.363
340.625
340.36
339.966
339.633
339.268
339.116
339.329
340.115
340.969
331.08
330.29
329.812
329.757
329.869
330.35
331.107
331.73
332.387
332.777
333.094
333.3
333.095
332.737
332.46
332.151
332.069
332.213
332.858
333.525
324.248
323.642
323.262
323.227
323.288
323.657
324.244
324.743
325.234
325.539
325.801
325.921
325.792
325.47
325.27
325.033
324.99
325.104
325.589
326.081
317.371
316.945
316.653
316.62
316.668
316.947
317.358
317.716
318.049
318.28
318.461
318.537
318.455
318.222
318.05
317.909
317.88
317.943
318.284
318.653
310.447
310.189
310.008
309.992
310.014
310.196
310.437
310.664
310.839
310.989
311.109
311.131
311.094
310.935
310.837
310.766
310.752
310.776
310.977
311.211
303.5
303.422
303.353
303.351
303.353
303.43
303.497
303.584
303.628
303.689
303.722
303.737
303.716
303.659
303.631
303.611
303.615
303.62
303.675
303.76
352.219
350.926
350.071
350.032
350.523
351.275
352.464
353.558
354.729
355.552
356.241
356.483
356.161
355.613
355.045
354.59
354.305
354.762
355.654
357.013
345.52
344.429
343.663
343.651
344.047
344.677
345.673
346.609
347.592
348.283
348.881
349.09
348.775
348.297
347.789
347.394
347.123
347.524
348.309
349.446
338.703
337.787
337.121
337.13
337.433
337.962
338.779
339.583
340.399
340.954
341.467
341.612
341.33
340.93
340.507
340.15
339.935
340.291
340.917
341.867
331.788
331.036
330.486
330.514
330.732
331.169
331.814
332.475
333.15
333.561
334.004
334.095
333.863
333.526
333.2
332.897
332.714
333.028
333.526
334.275
324.797
324.21
323.794
323.824
323.973
324.306
324.811
325.32
325.835
326.136
326.5
326.561
326.385
326.089
325.867
325.614
325.473
325.729
326.113
326.66
317.743
317.341
317.044
317.055
317.155
317.399
317.78
318.107
318.497
318.697
318.952
318.988
318.885
318.656
318.53
318.332
318.205
318.391
318.67
319.046
310.664
310.436
310.26
310.261
310.329
310.459
310.702
310.873
311.121
311.245
311.393
311.392
311.345
311.201
311.152
311.016
310.943
311.051
311.208
311.443
303.574
303.494
303.447
303.448
303.468
303.507
303.597
303.644
303.739
303.767
303.822
303.819
303.802
303.757
303.746
303.694
303.673
303.705
303.749
303.835
353.459
352.322
351.501
351.49
351.969
352.794
353.726
354.806
356.042
356.991
357.721
357.809
357.53
356.904
356.479
355.837
355.684
356.218
357.052
358.225
346.614
345.612
344.921
344.908
345.323
345.997
346.769
347.71
348.762
349.54
350.157
350.212
349.974
349.42
349.035
348.484
348.33
348.812
349.535
350.488
339.64
338.787
338.21
338.198
338.532
339.075
339.723
340.536
341.411
342.053
342.548
342.563
342.357
341.891
341.537
341.101
340.939
341.356
341.964
342.74
332.553
331.867
331.402
331.378
331.646
332.085
332.6
333.273
333.978
334.487
334.877
334.888
334.704
334.31
334.035
333.678
333.548
333.876
334.37
334.954
325.392
324.854
324.491
324.495
324.693
325.022
325.432
325.953
326.48
326.875
327.181
327.173
327.003
326.697
326.522
326.248
326.138
326.369
326.762
327.204
318.185
317.802
317.537
317.552
317.688
317.924
318.203
318.581
318.95
319.242
319.442
319.448
319.287
319.063
318.986
318.78
318.689
318.863
319.121
319.46
310.946
310.724
310.564
310.56
310.657
310.765
310.94
311.194
311.393
311.593
311.688
311.699
311.6
311.439
311.434
311.281
311.23
311.335
311.477
311.691
303.675
303.602
303.557
303.548
303.579
303.609
303.661
303.753
303.811
303.89
303.917
303.92
303.893
303.832
303.842
303.788
303.769
303.799
303.849
303.922
355.103
353.945
353.186
353.085
353.419
354.25
355.237
356.395
357.569
358.58
359.141
359.281
359.073
358.47
357.95
357.381
357.298
357.716
358.517
359.596
348.02
347.059
346.404
346.288
346.567
347.255
348.096
349.077
350.068
350.935
351.4
351.497
351.308
350.751
350.319
349.811
349.738
350.098
350.786
351.703
340.81
340.047
339.479
339.373
339.581
340.151
340.848
341.664
342.484
343.235
343.6
343.657
343.502
343.007
342.66
342.254
342.161
342.462
343.014
343.778
333.511
332.9
332.455
332.342
332.514
332.975
333.496
334.199
334.847
335.457
335.745
335.785
335.656
335.218
334.948
334.64
334.553
334.788
335.233
335.852
326.133
325.656
325.33
325.221
325.367
325.715
326.096
326.678
327.165
327.643
327.83
327.875
327.769
327.412
327.253
326.962
326.892
327.068
327.437
327.919
318.701
318.352
318.141
318.055
318.149
318.422
318.669
319.091
319.451
319.788
319.886
319.944
319.861
319.601
319.502
319.259
319.228
319.337
319.629
319.974
311.244
311.035
310.911
310.883
310.909
311.087
311.214
311.467
311.699
311.9
311.943
311.98
311.939
311.78
311.722
311.547
311.565
311.603
311.795
311.979
303.778
303.701
303.665
303.66
303.647
303.726
303.76
303.838
303.911
303.979
304.008
304.022
304.005
303.95
303.937
303.868
303.879
303.892
303.962
304.013
356.615
355.682
354.889
354.771
355.049
355.742
356.802
357.766
359.013
360.081
360.707
360.918
360.725
360.086
359.588
358.982
358.924
359.259
360.16
361.126
349.321
348.548
347.872
347.76
347.961
348.576
349.463
350.272
351.319
352.215
352.723
352.923
352.741
352.205
351.756
351.224
351.153
351.455
352.242
353.029
341.9
341.286
340.711
340.598
340.788
341.26
342.018
342.681
343.541
344.309
344.664
344.88
344.71
344.257
343.887
343.411
343.373
343.613
344.263
344.913
334.41
333.928
333.448
333.34
333.525
333.873
334.489
335.002
335.715
336.347
336.584
336.789
336.649
336.28
335.968
335.562
335.559
335.716
336.257
336.783
326.847
326.496
326.076
326.004
326.186
326.407
326.907
327.266
327.843
328.317
328.488
328.648
328.553
328.256
328
327.653
327.692
327.814
328.22
328.621
319.222
318.983
318.655
318.608
318.78
318.888
319.257
319.502
319.922
320.248
320.371
320.489
320.425
320.209
320.038
319.763
319.811
319.902
320.188
320.468
311.571
311.425
311.213
311.178
311.307
311.343
311.582
311.717
311.959
312.174
312.224
312.332
312.275
312.14
312.049
311.876
311.912
311.967
312.135
312.295
303.875
303.836
303.763
303.748
303.794
303.797
303.877
303.938
304.021
304.078
304.102
304.143
304.119
304.071
304.046
303.986
303.986
304.012
304.07
304.117
358.38
357.401
356.733
356.483
356.814
357.307
358.4
359.285
360.523
361.536
362.07
362.382
362.211
361.581
361.011
360.618
360.53
361.027
361.772
362.789
350.857
350.041
349.458
349.232
349.515
349.933
350.841
351.573
352.613
353.489
353.935
354.212
354.066
353.494
352.995
352.66
352.547
352.992
353.632
354.478
343.221
342.551
342.049
341.846
342.109
342.433
343.181
343.76
344.617
345.386
345.731
345.979
345.854
345.327
344.94
344.642
344.521
344.907
345.447
346.129
335.523
334.948
334.548
334.378
334.587
334.848
335.458
335.915
336.57
337.216
337.462
337.716
337.587
337.127
336.841
336.57
336.479
336.786
337.234
337.774
327.721
327.283
326.95
326.848
326.984
327.192
327.664
328.018
328.473
328.982
329.167
329.383
329.269
328.935
328.694
328.455
328.392
328.633
329.005
329.399
319.863
319.537
319.309
319.25
319.32
319.484
319.815
320.06
320.347
320.727
320.85
321.022
320.934
320.696
320.506
320.335
320.3
320.451
320.755
321.007
311.96
311.747
311.628
311.582
311.609
311.722
311.921
312.075
312.214
312.469
312.522
312.649
312.585
312.43
312.333
312.213
312.198
312.297
312.469
312.628
304.014
303.95
303.909
303.882
303.89
303.934
304.005
304.052
304.082
304.191
304.201
304.245
304.226
304.16
304.139
304.087
304.094
304.127
304.181
304.226
360.346
359.304
358.496
358.285
358.528
359.159
360.021
360.854
362.012
362.999
363.581
363.774
363.604
363.116
362.603
362.273
362.148
362.653
363.318
364.523
352.598
351.721
351.004
350.792
351.011
351.51
352.268
352.952
353.908
354.755
355.213
355.4
355.252
354.832
354.357
354.097
353.964
354.411
354.97
356
344.718
343.986
343.374
343.177
343.368
343.767
344.405
344.94
345.744
346.428
346.797
346.979
346.863
346.501
346.046
345.863
345.749
346.113
346.598
347.44
336.721
336.135
335.636
335.468
335.628
335.927
336.464
336.868
337.513
338.067
338.343
338.517
338.421
338.106
337.724
337.576
337.48
337.788
338.183
338.873
328.647
328.21
327.82
327.663
327.793
328.015
328.432
328.743
329.235
329.65
329.864
330.017
329.908
329.686
329.374
329.272
329.18
329.443
329.733
330.273
320.517
320.197
319.953
319.816
319.886
320.045
320.352
320.581
320.903
321.225
321.352
321.467
321.39
321.231
321.009
320.955
320.871
321.07
321.265
321.662
312.343
312.137
312.014
311.913
311.946
312.038
312.232
312.391
312.569
312.79
312.827
312.902
312.877
312.768
312.625
312.593
312.548
312.675
312.787
313.036
304.142
304.072
304.031
303.995
304.012
304.037
304.101
304.154
304.21
304.295
304.304
304.33
304.322
304.277
304.234
304.219
304.209
304.251
304.292
304.387
362.268
361.224
360.543
360.154
360.329
360.72
361.521
362.534
363.391
364.392
364.987
365.105
365.023
364.578
364.184
363.942
363.824
364.278
365.032
366.128
354.263
353.363
352.782
352.42
352.562
352.879
353.557
354.425
355.132
355.984
356.488
356.578
356.54
356.088
355.766
355.569
355.442
355.827
356.472
357.404
346.122
345.365
344.871
344.567
344.667
344.919
345.502
346.216
346.784
347.506
347.909
348.001
347.978
347.54
347.289
347.134
347.005
347.324
347.862
348.643
337.908
337.269
336.848
336.616
336.678
336.894
337.351
337.915
338.378
338.954
339.283
339.365
339.329
338.963
338.759
338.654
338.522
338.778
339.195
339.851
329.587
329.092
328.738
328.558
328.599
328.778
329.104
329.535
329.885
330.349
330.606
330.67
330.642
330.373
330.188
330.128
329.994
330.196
330.533
331.042
321.195
320.844
320.578
320.433
320.469
320.585
320.824
321.139
321.378
321.731
321.884
321.939
321.912
321.727
321.594
321.549
321.442
321.583
321.85
322.196
312.747
312.552
312.382
312.296
312.323
312.379
312.521
312.718
312.865
313.069
313.162
313.196
313.159
313.046
312.975
312.94
312.888
312.965
313.139
313.331
304.269
304.204
304.148
304.114
304.142
304.16
304.199
304.267
304.321
304.382
304.415
304.416
304.407
304.376
304.348
304.332
304.323
304.351
304.41
304.468
363.969
363.05
362.501
362.021
362.032
362.441
363.157
364.027
364.736
365.734
366.323
366.497
366.385
366.052
365.656
365.515
365.53
365.996
366.9
367.832
355.733
354.949
354.464
354.057
354.027
354.361
354.969
355.713
356.293
357.178
357.657
357.793
357.708
357.4
357.038
356.912
356.929
357.321
358.112
358.91
347.384
346.715
346.309
345.971
345.895
346.187
346.684
347.297
347.775
348.556
348.913
349.015
348.955
348.658
348.391
348.269
348.262
348.599
349.257
349.914
338.924
338.373
338.027
337.764
337.682
337.918
338.321
338.794
339.161
339.845
340.083
340.2
340.161
339.865
339.69
339.557
339.56
339.823
340.374
340.897
330.364
329.954
329.672
329.455
329.409
329.588
329.891
330.227
330.514
331.083
331.208
331.334
331.299
331.044
330.93
330.823
330.802
330.999
331.459
331.857
321.735
321.473
321.256
321.086
321.061
321.19
321.408
321.639
321.846
322.256
322.328
322.416
322.385
322.202
322.145
322.05
322.008
322.17
322.521
322.778
313.065
312.961
312.773
312.678
312.658
312.742
312.889
313.01
313.142
313.388
313.423
313.468
313.45
313.338
313.313
313.269
313.214
313.336
313.534
313.693
304.388
304.363
304.283
304.256
304.249
304.275
304.333
304.368
304.42
304.493
304.487
304.513
304.51
304.461
304.465
304.453
304.418
304.475
304.535
304.594
365.86
364.981
364.349
364.002
363.88
364.23
364.829
365.576
366.244
367.023
367.567
367.721
367.726
367.503
367.212
366.965
367.296
367.756
368.387
369.438
357.377
356.644
356.087
355.776
355.648
355.936
356.441
357.065
357.612
358.285
358.74
358.84
358.873
358.666
358.387
358.167
358.471
358.882
359.391
360.263
348.781
348.178
347.679
347.404
347.295
347.509
347.927
348.444
348.88
349.48
349.854
349.914
349.919
349.744
349.492
349.315
349.584
349.926
350.334
351.048
340.078
339.591
339.159
338.941
338.832
339.008
339.315
339.737
340.072
340.607
340.916
340.905
340.917
340.773
340.569
340.413
340.644
340.929
341.237
341.808
331.258
330.898
330.536
330.38
330.292
330.435
330.659
330.994
331.239
331.669
331.882
331.856
331.886
331.748
331.631
331.49
331.641
331.893
332.106
332.54
322.397
322.115
321.872
321.747
321.668
321.8
321.947
322.193
322.365
322.665
322.801
322.791
322.825
322.695
322.632
322.531
322.626
322.833
322.934
323.254
313.465
313.299
313.157
313.067
313.03
313.104
313.201
313.361
313.445
313.637
313.692
313.705
313.725
313.62
313.589
313.566
313.597
313.725
313.781
313.966
304.527
304.467
304.412
304.37
304.369
304.396
304.427
304.48
304.512
304.568
304.586
304.602
304.605
304.568
304.555
304.559
304.556
304.604
304.626
304.674
367.706
366.929
366.242
365.886
365.806
366.066
366.473
367.147
367.652
368.443
368.947
368.891
368.975
368.875
368.709
368.622
368.891
369.504
370.082
371.199
358.982
358.332
357.721
357.423
357.319
357.52
357.85
358.44
358.832
359.535
359.957
359.877
359.958
359.864
359.695
359.634
359.857
360.377
360.869
361.82
350.118
349.565
349.058
348.81
348.716
348.885
349.121
349.605
349.928
350.539
350.877
350.788
350.84
350.785
350.611
350.589
350.767
351.191
351.594
352.414
341.153
340.686
340.269
340.047
340.005
340.142
340.322
340.688
340.937
341.463
341.718
341.619
341.675
341.629
341.481
341.469
341.608
341.97
342.248
342.937
332.108
331.731
331.397
331.231
331.201
331.339
331.447
331.724
331.883
332.315
332.468
332.38
332.482
332.418
332.316
332.326
332.423
332.674
332.901
333.448
323.003
322.708
322.462
322.363
322.347
322.456
322.518
322.695
322.809
323.103
323.204
323.148
323.241
323.18
323.099
323.144
323.203
323.342
323.518
323.93
313.831
313.647
313.5
313.441
313.446
313.512
313.543
313.64
313.692
313.887
313.929
313.895
313.963
313.948
313.889
313.916
313.939
314.001
314.118
314.392
304.629
304.587
304.521
304.508
304.52
304.525
304.539
304.573
304.587
304.65
304.673
304.653
304.691
304.673
304.656
304.671
304.67
304.683
304.724
304.83
369.754
368.859
368.269
367.697
367.636
367.754
368.202
368.757
369.238
369.912
370.297
370.397
370.378
370.424
370.133
370.262
370.553
371.103
371.846
373.012
360.778
359.988
359.485
358.987
358.91
358.988
359.35
359.836
360.211
360.815
361.154
361.203
361.162
361.225
360.937
361.052
361.305
361.785
362.429
363.376
351.664
350.989
350.57
350.144
350.075
350.12
350.411
350.8
351.089
351.642
351.884
351.921
351.854
351.945
351.673
351.76
351.997
352.393
352.938
353.724
342.438
341.863
341.53
341.161
341.118
341.158
341.372
341.676
341.904
342.376
342.558
342.558
342.498
342.594
342.348
342.434
342.614
342.939
343.393
344.037
333.142
332.649
332.395
332.1
332.071
332.101
332.267
332.491
332.657
333.053
333.166
333.147
333.106
333.178
332.988
333.037
333.192
333.469
333.802
334.311
323.746
323.372
323.18
322.98
322.967
322.964
323.117
323.239
323.365
323.676
323.724
323.703
323.7
323.73
323.6
323.634
323.757
323.962
324.156
324.539
314.291
314.053
313.939
313.812
313.811
313.806
313.906
313.962
314.036
314.237
314.261
314.24
314.255
314.262
314.184
314.19
314.296
314.401
314.508
314.752
304.8
304.72
304.678
304.639
304.624
304.634
304.662
304.678
304.705
304.774
304.781
304.768
304.791
304.78
304.754
304.758
304.799
304.817
304.867
304.946
371.73
370.939
370.211
369.746
369.525
369.493
369.804
370.299
370.806
371.304
371.668
371.717
371.643
371.807
371.686
371.901
372.314
372.894
373.728
374.707
362.517
361.821
361.192
360.769
360.567
360.516
360.785
361.188
361.606
362.06
362.346
362.358
362.284
362.403
362.304
362.488
362.84
363.324
364.033
364.887
353.152
352.545
351.996
351.653
351.465
351.44
351.626
351.939
352.277
352.699
352.914
352.907
352.849
352.925
352.84
353.008
353.302
353.677
354.281
354.999
343.651
343.131
342.691
342.4
342.237
342.23
342.344
342.606
342.866
343.234
343.399
343.404
343.303
343.379
343.31
343.464
343.703
343.997
344.47
345.071
334.05
333.647
333.299
333.052
332.923
332.93
332.994
333.234
333.411
333.721
333.818
333.825
333.705
333.787
333.722
333.867
334.048
334.279
334.628
335.084
324.397
324.101
323.85
323.655
323.56
323.563
323.622
323.781
323.902
324.161
324.183
324.205
324.098
324.155
324.111
324.239
324.339
324.503
324.753
325.077
314.687
314.484
314.35
314.237
314.151
314.164
314.217
314.294
314.374
314.557
314.542
314.56
314.492
314.512
314.496
314.575
314.63
314.724
314.868
315.063
304.937
304.848
304.804
304.772
304.739
304.747
304.776
304.791
304.814
304.885
304.875
304.879
304.857
304.87
304.86
304.896
304.904
304.942
304.979
305.052
373.734
372.692
371.955
371.43
371.292
371.255
371.459
371.757
372.279
372.708
372.957
373.19
373.174
373.252
373.2
373.527
373.901
374.555
375.437
376.595
364.221
363.357
362.679
362.208
362.082
362.031
362.192
362.42
362.888
363.243
363.436
363.64
363.609
363.681
363.602
363.885
364.201
364.79
365.543
366.522
354.567
353.818
353.258
352.866
352.74
352.677
352.813
352.984
353.38
353.667
353.841
353.986
353.954
354.025
353.944
354.168
354.455
354.945
355.578
356.378
344.774
344.192
343.713
343.405
343.296
343.226
343.358
343.46
343.773
344.005
344.185
344.281
344.223
344.29
344.219
344.378
344.636
345.059
345.555
346.182
334.896
334.493
334.084
333.877
333.77
333.714
333.806
333.876
334.106
334.3
334.416
334.5
334.452
334.509
334.431
334.565
334.78
335.128
335.491
335.959
324.986
324.708
324.396
324.262
324.17
324.113
324.197
324.236
324.409
324.548
324.61
324.673
324.641
324.673
324.624
324.703
324.879
325.146
325.374
325.733
315.017
314.858
314.664
314.599
314.533
314.501
314.544
314.575
314.682
314.75
314.79
314.828
314.817
314.827
314.798
314.848
314.939
315.133
315.254
315.48
305.04
304.988
304.918
304.892
304.878
304.868
304.884
304.88
304.925
304.947
304.958
304.977
304.97
304.974
304.967
304.982
305.003
305.082
305.123
305.192
375.466
374.484
373.735
373.113
372.916
372.847
372.946
373.113
373.552
373.969
374.272
374.546
374.544
374.597
374.677
374.938
375.467
376.133
377.167
378.01
365.678
364.894
364.217
363.683
363.45
363.424
363.488
363.548
363.969
364.328
364.559
364.831
364.772
364.835
364.904
365.114
365.563
366.129
367.028
367.717
355.756
355.145
354.547
354.108
353.884
353.862
353.909
353.916
354.278
354.563
354.761
354.992
354.914
354.991
355.029
355.206
355.583
356.06
356.826
357.372
345.744
345.274
344.778
344.435
344.206
344.178
344.229
344.223
344.49
344.746
344.89
345.089
345.022
345.087
345.108
345.249
345.542
345.936
346.568
347.003
335.653
335.31
334.919
334.672
334.463
334.451
334.48
334.473
334.679
334.873
334.969
335.118
335.091
335.132
335.151
335.253
335.458
335.777
336.264
336.599
325.497
325.29
324.999
324.834
324.647
324.656
324.693
324.656
324.82
324.962
325.013
325.097
325.117
325.14
325.136
325.225
325.364
325.603
325.914
326.172
315.317
315.209
315.032
314.945
314.827
314.826
314.843
314.826
314.908
315.021
315.028
315.077
315.098
315.113
315.095
315.176
315.228
315.39
315.573
315.748
305.133
305.102
305.037
305.018
304.977
304.984
304.983
304.977
305.007
305.043
305.035
305.055
305.062
305.055
305.058
305.097
305.1
305.151
305.215
305.271
376.827
375.777
375.055
374.485
374.104
374.104
374.147
374.122
374.464
374.945
375.251
375.586
375.521
375.621
375.816
376.155
376.606
377.194
378.391
379.39
366.815
365.935
365.302
364.79
364.438
364.44
364.454
364.389
364.702
365.143
365.378
365.676
365.589
365.671
365.834
366.119
366.522
366.995
368.033
368.873
356.716
355.976
355.424
354.981
354.676
354.677
354.657
354.584
354.88
355.251
355.441
355.689
355.599
355.655
355.781
356.066
356.397
356.751
357.631
358.31
346.518
345.909
345.471
345.075
344.847
344.834
344.796
344.721
344.982
345.293
345.438
345.63
345.557
345.613
345.709
345.97
346.219
346.465
347.212
347.709
336.255
335.801
335.433
335.118
334.969
334.926
334.896
334.805
335.046
335.29
335.389
335.525
335.474
335.526
335.601
335.834
336.005
336.171
336.762
337.1
325.942
325.644
325.337
325.128
325.036
324.967
324.95
324.882
325.088
325.249
325.32
325.424
325.402
325.412
325.476
325.645
325.754
325.862
326.29
326.514
315.595
315.414
315.226
315.113
315.057
315.002
314.975
314.949
315.089
315.18
315.218
315.294
315.279
315.283
315.321
315.425
315.477
315.523
315.801
315.938
305.236
305.163
305.099
305.067
305.043
305.041
305.028
305.009
305.065
305.087
305.105
305.131
305.13
305.117
305.129
305.178
305.19
305.207
305.296
305.34
)
;

boundaryField
{
    hotSide
    {
        type            fixedGradient;
        gradient        nonuniform List<scalar> 
400
(
490.354
490.394
493.874
500.712
510.574
522.978
537.403
553.375
570.502
588.478
607.074
626.125
645.52
665.191
685.104
705.254
725.657
746.34
767.324
788.619
470.974
471.224
475.154
482.661
493.342
506.626
521.917
538.691
556.527
575.107
594.199
613.642
633.332
653.211
673.257
693.481
713.913
734.597
755.572
776.856
461.101
461.878
466.287
474.216
485.266
498.87
514.437
531.441
549.458
568.164
587.325
606.78
626.429
646.217
666.13
686.187
706.427
726.899
747.651
768.707
460.172
461.77
466.703
474.859
485.898
499.339
514.661
531.381
549.093
567.478
586.301
605.398
624.669
644.063
663.57
683.21
703.027
723.068
743.381
763.994
465.887
468.468
474.003
482.375
493.309
506.418
521.269
537.441
554.561
572.327
590.51
608.95
627.552
646.271
665.105
684.079
703.238
722.63
742.302
762.287
475.632
479.256
485.49
494.208
505.172
518.058
532.498
548.122
564.591
581.622
599.001
616.586
634.296
652.106
670.031
688.11
706.398
724.949
743.812
763.023
487.283
491.95
498.973
508.21
519.433
532.343
546.597
561.847
577.769
594.093
610.625
627.246
643.914
660.639
677.472
694.479
711.735
729.305
747.245
765.594
499.247
504.909
512.769
522.67
534.375
547.578
561.927
577.055
592.624
608.356
624.074
639.699
655.242
670.777
686.408
702.245
718.387
734.919
751.9
769.372
510.297
516.833
525.496
536.117
548.445
562.149
576.839
592.097
607.529
622.827
637.82
652.482
666.904
681.244
695.676
710.361
725.429
740.975
757.064
773.736
519.474
526.658
535.962
547.211
560.141
574.398
589.542
605.084
620.551
635.582
650.002
663.844
677.295
690.604
704.019
717.744
731.932
746.687
762.071
778.119
526.105
533.598
543.232
554.832
568.13
582.752
598.226
614.008
629.562
644.476
658.572
671.925
684.789
697.48
710.29
723.45
737.124
751.42
766.398
782.09
529.889
537.277
546.833
558.381
571.648
586.257
601.728
617.514
633.077
648.007
662.12
675.487
688.356
701.038
713.827
726.955
740.59
754.843
769.78
785.434
530.99
537.866
546.948
558.057
570.92
585.161
600.322
615.899
631.407
646.479
660.931
674.784
688.213
701.462
714.781
728.383
742.43
757.039
772.286
788.21
530.057
536.099
544.425
554.864
567.138
580.88
595.657
611.014
626.529
641.875
656.866
671.465
685.757
699.902
714.085
728.483
743.248
758.497
774.313
790.747
528.196
533.199
540.643
550.363
562.079
575.416
589.948
605.241
620.907
636.641
652.248
667.645
682.852
697.956
713.085
728.381
743.979
759.992
776.51
793.589
526.969
530.843
537.399
546.485
557.797
570.926
585.416
600.823
616.762
632.933
649.13
665.247
681.26
697.21
713.188
729.307
745.689
762.447
779.674
797.429
528.452
531.213
536.947
545.512
556.561
569.619
584.175
599.756
615.965
632.504
649.163
665.824
682.442
699.033
715.663
732.428
749.446
766.83
784.677
803.044
535.142
536.933
541.931
550.003
560.759
573.662
588.156
603.744
620.029
636.714
653.595
670.548
687.517
704.505
721.559
738.765
756.232
774.075
792.39
811.233
549.254
550.352
554.688
562.143
572.333
584.724
598.766
613.975
629.965
646.448
663.224
680.167
697.213
714.349
731.608
749.06
766.798
784.927
803.533
822.663
571.459
572.175
575.915
582.583
591.862
603.305
616.433
630.814
646.093
661.996
678.327
694.956
711.808
728.856
746.113
763.627
781.467
799.71
818.42
837.629
)
;
    }
    coldSide
    {
        type            mixed;
        refValue        uniform 300;
        refGradient     uniform 0;
        valueFraction   uniform 0.991591;
        source          uniform 0;
        value           nonuniform List<scalar> 
400
(
300.028
300.028
300.028
300.029
300.029
300.03
300.031
300.032
300.033
300.034
300.035
300.036
300.037
300.038
300.039
300.04
300.042
300.042
300.043
300.044
300.027
300.027
300.028
300.028
300.029
300.029
300.03
300.031
300.032
300.033
300.034
300.035
300.037
300.038
300.039
300.04
300.041
300.042
300.043
300.043