/*--------------------------------*- C++ -*----------------------------------*\
| =========                 |                                                 |
| \\      /  F ield         | OpenFOAM: The Open Source CFD Toolbox           |
|  \\    /   O peration     | Version:  2212                                  |
|   \\  /    A nd           | Website:  www.openfoam.com                      |
|    \\/     M anipulation  |                                                 |
\*---------------------------------------------------------------------------*/
FoamFile
{
    version     2.0;
    format      ascii;
    arch        "LSB;label=32;scalar=64";
    class       volScalarField;
    location    "0";
    object      T;
}
// * * * * * * * * * * * * * * * * * * * * * * * * * * * * * * * * * * * * * //

dimensions      [0 0 0 1 0 0 0];

internalField   nonuniform List<scalar> 
3200
(
346.113
347.294
348.228
349.612
350.305
350.795
351.359
351.635
352.337
352.282
352.191
351.995
351.557
351.19
350.502
349.576
348.675
347.578
346.625
345.468
340.15
341.195
341.97
343.205
343.791
344.206
344.746
344.94
345.542
345.515
345.453
345.255
344.864
344.567
343.948
343.141
342.363
341.454
340.602
339.532
334.134
334.997
335.6
336.691
337.171
337.517
338.059
338.112
338.718
338.71
338.586
338.442
338.155
337.877
337.305
336.619
335.938
335.224
334.467
333.564
328.041
328.767
329.209
330.127
330.49
330.795
331.271
331.262
331.772
331.792
331.628
331.582
331.352
331.088
330.617
330.031
329.468
328.929
328.264
327.519
321.894
322.43
322.827
323.505
323.784
323.998
324.406
324.367
324.747
324.783
324.628
324.658
324.455
324.275
323.908
323.43
322.937
322.571
322.02
321.459
315.685
316.079
316.34
316.767
317.019
317.161
317.46
317.468
317.689
317.735
317.613
317.689
317.518
317.425
317.106
316.79
316.403
316.149
315.749
315.403
309.429
309.664
309.808
310.092
310.21
310.318
310.507
310.546
310.65
310.66
310.566
310.669
310.541
310.483
310.27
310.078
309.848
309.708
309.464
309.24
303.174
303.233
303.311
303.403
303.42
303.469
303.525
303.542
303.59
303.578
303.531
303.572
303.534
303.539
303.426
303.389
303.301
303.256
303.165
303.08
347.36
348.117
349.283
350.479
351.085
351.707
352.422
352.756
353.167
353.336
353.285
353.149
352.602
351.962
351.344
350.308
349.444
348.669
347.33
346.239
341.186
341.843
342.844
343.901
344.376
344.902
345.59
345.819
346.251
346.332
346.31
346.235
345.722
345.221
344.655
343.763
342.997
342.288
341.14
340.234
334.966
335.499
336.329
337.236
337.598
338.104
338.72
338.852
339.297
339.277
339.329
339.236
338.781
338.39
337.891
337.146
336.473
335.856
334.886
334.145
328.667
329.121
329.751
330.491
330.777
331.254
331.77
331.818
332.278
332.211
332.272
332.165
331.805
331.47
331.059
330.434
329.87
329.412
328.614
327.989
322.33
322.688
323.17
323.759
323.964
324.314
324.724
324.755
325.169
325.113
325.157
325.061
324.797
324.507
324.187
323.679
323.245
322.915
322.292
321.832
315.957
316.252
316.581
316.988
317.133
317.39
317.706
317.67
318.012
317.951
317.996
317.955
317.757
317.569
317.308
316.892
316.6
316.381
315.945
315.616
309.578
309.797
309.973
310.194
310.308
310.437
310.631
310.59
310.825
310.759
310.819
310.78
310.67
310.582
310.439
310.145
309.986
309.871
309.585
309.396
303.205
303.29
303.348
303.429
303.455
303.507
303.562
303.56
303.636
303.59
303.608
303.598
303.588
303.551
303.502
303.396
303.333
303.295
303.203
303.142
348.501
349.354
350.358
351.576
352.344
352.938
353.829
353.961
354.554
354.579
354.629
354.519
353.958
353.377
352.481
351.722
350.847
349.758
348.537
347.542
342.18
342.886
343.761
344.782
345.485
346.009
346.781
346.857
347.42
347.43
347.497
347.333
346.941
346.364
345.605
344.922
344.181
343.211
342.157
341.348
335.829
336.396
337.124
337.938
338.604
339.08
339.693
339.677
340.188
340.231
340.253
340.132
339.817
339.309
338.719
338.122
337.441
336.647
335.736
335.088
329.424
329.831
330.459
331.057
331.641
332.072
332.534
332.488
332.917
332.991
333.017
332.902
332.642
332.234
331.787
331.251
330.644
330.053
329.309
328.763
322.96
323.251
323.708
324.158
324.607
325.008
325.334
325.302
325.607
325.691
325.718
325.614
325.428
325.139
324.757
324.332
323.856
323.426
322.89
322.431
316.403
316.623
316.914
317.257
317.597
317.895
318.111
318.091
318.325
318.372
318.377
318.33
318.182
317.971
317.677
317.41
317.046
316.789
316.353
316.086
309.85
309.994
310.127
310.353
310.576
310.777
310.884
310.861
311.013
311.063
311.023
311.016
310.915
310.803
310.631
310.468
310.255
310.089
309.815
309.686
303.286
303.343
303.387
303.471
303.557
303.623
303.641
303.633
303.681
303.717
303.709
303.691
303.652
303.619
303.562
303.515
303.452
303.363
303.286
303.255
349.86
350.706
351.646
352.773
353.77
354.613
355.018
355.542
355.835
355.884
355.875
355.953
355.374
354.713
353.944
353.273
352.199
350.95
349.612
348.734
343.373
344.037
344.835
345.842
346.691
347.454
347.815
348.24
348.528
348.557
348.526
348.6
348.088
347.53
346.858
346.258
345.323
344.191
343.157
342.383
336.771
337.303
337.958
338.873
339.585
340.253
340.537
340.861
341.203
341.221
341.152
341.176
340.782
340.27
339.74
339.202
338.412
337.47
336.596
335.978
330.11
330.58
331.085
331.905
332.463
333.005
333.237
333.462
333.792
333.823
333.733
333.739
333.46
333.003
332.607
332.1
331.484
330.698
329.968
329.553
323.455
323.813
324.213
324.879
325.247
325.727
325.871
326.084
326.347
326.388
326.262
326.325
326.064
325.688
325.404
324.938
324.491
323.904
323.339
323.069
316.75
317.088
317.301
317.839
318.03
318.432
318.519
318.673
318.851
318.905
318.806
318.85
318.634
318.356
318.172
317.79
317.525
317.127
316.692
316.524
310.048
310.281
310.383
310.727
310.832
311.108
311.109
311.23
311.318
311.38
311.317
311.342
311.196
311.004
310.922
310.638
310.54
310.292
310.061
309.912
303.375
303.452
303.474
303.597
303.624
303.732
303.719
303.763
303.799
303.809
303.783
303.803
303.744
303.697
303.666
303.554
303.551
303.46
303.385
303.346
350.893
351.868
353.084
354.197
355.2
355.844
356.544
357.155
357.359
357.089
357.213
357.209
356.715
356.098
355.307
354.485
353.357
352.079
350.903
349.906
344.218
345.058
346.039
347.072
347.95
348.477
349.136
349.601
349.844
349.614
349.687
349.703
349.28
348.773
348.043
347.318
346.37
345.195
344.233
343.4
337.495
338.19
338.911
339.913
340.636
341.05
341.646
342.01
342.278
342.068
342.117
342.163
341.779
341.425
340.731
340.11
339.326
338.314
337.482
336.843
330.747
331.321
331.861
332.694
333.276
333.647
334.142
334.398
334.667
334.475
334.507
334.567
334.223
333.951
333.386
332.813
332.194
331.404
330.711
330.236
323.985
324.454
324.788
325.406
325.89
326.228
326.637
326.757
327.025
326.871
326.902
326.884
326.651
326.478
326.013
325.53
325.075
324.485
323.987
323.551
317.201
317.568
317.735
318.155
318.533
318.779
319.044
319.154
319.329
319.196
319.255
319.186
319.046
318.935
318.595
318.213
317.936
317.538
317.177
316.848
310.332
310.552
310.641
310.913
311.126
311.301
311.458
311.529
311.603
311.525
311.63
311.513
311.44
311.366
311.18
310.928
310.795
310.552
310.341
310.14
303.46
303.549
303.553
303.668
303.733
303.807
303.837
303.862
303.892
303.847
303.915
303.878
303.83
303.81
303.756
303.658
303.621
303.542
303.483
303.413
352.059
352.946
354.249
355.401
356.645
357.373
358.004
358.385
358.713
358.765
358.459
358.472
357.837
357.572
356.928
355.802
354.822
353.321
352.172
351.03
345.247
346.012
347.109
348.165
349.208
349.815
350.387
350.734
350.978
351.019
350.775
350.799
350.207
350.032
349.442
348.498
347.595
346.266
345.312
344.363
338.381
339.014
339.916
340.831
341.705
342.15
342.689
342.979
343.225
343.221
343.056
343.072
342.547
342.431
341.934
341.107
340.337
339.199
338.374
337.672
331.471
331.993
332.665
333.482
334.174
334.513
334.977
335.189
335.436
335.383
335.262
335.286
334.872
334.852
334.388
333.661
333.076
332.08
331.438
330.929
324.506
325.002
325.437
326.099
326.594
326.874
327.252
327.359
327.587
327.503
327.443
327.425
327.171
327.169
326.806
326.169
325.782
324.946
324.48
324.139
317.541
317.915
318.193
318.667
319.002
319.211
319.506
319.558
319.756
319.652
319.628
319.598
319.437
319.476
319.193
318.71
318.446
317.843
317.524
317.318
310.542
310.787
310.925
311.202
311.388
311.563
311.708
311.756
311.861
311.805
311.819
311.79
311.725
311.758
311.542
311.252
311.063
310.73
310.537
310.433
303.527
303.606
303.642
303.752
303.806
303.901
303.924
303.94
303.973
303.961
303.986
303.949
303.936
303.951
303.867
303.768
303.71
303.6
303.544
303.494
353.169
354.045
355.243
356.623
357.664
358.671
359.039
359.55
360.173
359.914
360.156
359.886
359.344
358.531
358.022
356.964
355.818
354.743
353.128
352.172
346.219
346.956
347.987
349.18
350.092
350.964
351.236
351.704
352.282
352.024
352.222
351.988
351.537
350.852
350.388
349.461
348.469
347.553
346.098
345.344
339.203
339.801
340.701
341.65
342.468
343.192
343.409
343.799
344.317
344.092
344.268
344.086
343.685
343.128
342.678
341.953
341.108
340.302
339.076
338.482
332.191
332.618
333.394
334.121
334.837
335.363
335.58
335.897
336.321
336.082
336.283
336.147
335.773
335.348
334.963
334.372
333.711
333.079
332.06
331.562
325.093
325.413
325.997
326.584
327.124
327.523
327.699
327.951
328.246
328.073
328.272
328.152
327.855
327.526
327.245
326.781
326.305
325.789
324.982
324.558
317.964
318.178
318.584
319.024
319.42
319.648
319.809
319.991
320.169
320.123
320.194
320.143
319.925
319.683
319.491
319.168
318.824
318.448
317.843
317.59
310.809
310.916
311.145
311.41
311.701
311.79
311.908
312.006
312.113
312.1
312.128
312.079
311.968
311.836
311.704
311.547
311.305
311.106
310.717
310.57
303.604
303.661
303.742
303.825
303.936
303.942
304.023
304.027
304.047
304.051
304.078
304.034
303.991
303.958
303.929
303.847
303.787
303.727
303.608
303.535
354.274
355.297
356.288
357.892
358.647
359.738
360.243
360.667
361.344
361.252
361.055
360.923
360.339
359.762
359.006
357.967
356.93
355.721
354.336
353.296
347.128
348.005
348.905
350.262
350.943
351.876
352.283
352.688
353.267
353.184
353.05
352.919
352.401
351.879
351.242
350.301
349.434
348.367
347.155
346.297
339.91
340.688
341.424
342.568
343.149
343.943
344.322
344.663
345.135
345.05
344.969
344.854
344.432
343.953
343.466
342.635
341.911
341.043
339.935
339.247
332.737
333.342
333.936
334.885
335.336
335.979
336.327
336.618
337.001
336.873
336.849
336.746
336.408
336.012
335.636
334.918
334.39
333.65
332.681
332.139
325.525
325.958
326.466
327.167
327.518
328.028
328.3
328.53
328.811
328.681
328.697
328.608
328.398
327.998
327.761
327.191
326.838
326.253
325.44
325.032
318.272
318.528
318.924
319.417
319.693
320.041
320.225
320.426
320.572
320.499
320.534
320.474
320.35
319.984
319.854
319.432
319.195
318.768
318.213
317.88
310.98
311.108
311.356
311.638
311.818
312.026
312.135
312.287
312.338
312.31
312.374
312.337
312.259
311.99
311.912
311.688
311.525
311.276
310.936
310.716
303.681
303.697
303.788
303.879
303.963
304.037
304.054
304.121
304.141
304.128
304.151
304.143
304.122
304.019
303.983
303.932
303.846
303.784
303.669
303.609
355.222
356.241
357.508
358.792
359.668
360.502
361.42
362.045
362.432
362.282
362.243
362.036
361.473
360.692
359.947
358.881
358.024
356.818
355.367
354.207
348.012
348.848
349.932
351.014
351.783
352.503
353.277
353.882
354.222
354.048
354.083
353.865
353.386
352.692
352.062
351.151
350.434
349.357
348.061
347.103
340.753
341.391
342.329
343.188
343.866
344.494
345.11
345.666
345.97
345.793
345.862
345.641
345.256
344.687
344.093
343.382
342.789
341.846
340.736
339.926
333.451
333.906
334.701
335.39
335.911
336.466
336.952
337.431
337.652
337.516
337.603
337.414
337.107
336.62
336.138
335.547
335.072
334.339
333.395
332.72
326.067
326.416
327.027
327.544
328.004
328.435
328.79
329.133
329.311
329.225
329.256
329.129
328.872
328.527
328.098
327.668
327.338
326.775
326.042
325.504
318.643
318.89
319.33
319.725
320.064
320.344
320.581
320.828
320.977
320.879
320.929
320.826
320.636
320.447
320.051
319.753
319.555
319.135
318.616
318.251
311.218
311.346
311.627
311.869
312.057
312.231
312.37
312.494
312.581
312.531
312.567
312.503
312.405
312.283
312.037
311.863
311.767
311.512
311.197
310.947
303.753
303.811
303.921
303.986
304.033
304.119
304.161
304.197
304.221
304.215
304.215
304.181
304.184
304.106
304.043
303.953
303.957
303.861
303.778
303.652
356.147
357.275
358.375
359.828
360.711
361.634
362.412
363.063
363.252
363.384
363.393
363.045
362.734
361.824
361.211
360.136
359.15
357.562
356.508
354.957
348.835
349.75
350.728
351.928
352.703
353.527
354.203
354.838
354.954
355.091
355.04
354.724
354.455
353.63
353.156
352.203
351.331
349.956
349.096
347.764
341.435
342.158
342.968
343.93
344.678
345.392
345.942
346.513
346.619
346.728
346.663
346.346
346.097
345.418
345.062
344.249
343.474
342.309
341.678
340.573
333.963
334.508
335.203
336.005
336.619
337.153
337.607
338.145
338.218
338.303
338.232
337.981
337.789
337.191
336.913
336.228
335.601
334.633
334.145
333.273
326.44
326.834
327.419
328.042
328.525
328.967
329.245
329.703
329.811
329.81
329.776
329.566
329.455
329.029
328.761
328.174
327.729
326.988
326.566
325.94
318.883
319.166
319.616
320.079
320.417
320.723
320.868
321.244
321.325
321.319
321.28
321.132
321.069
320.779
320.576
320.152
319.856
319.281
318.983
318.537
311.357
311.53
311.812
312.046
312.283
312.439
312.543
312.798
312.838
312.824
312.762
312.677
312.658
312.521
312.332
312.091
311.933
311.555
311.415
311.119
303.795
303.865
303.969
304.034
304.108
304.18
304.197
304.298
304.324
304.298
304.263
304.258
304.231
304.202
304.118
304.063
303.997
303.855
303.836
303.726
357.035
358.259
359.477
360.478
361.648
362.698
363.291
364.084
364.191
364.42
364.374
363.944
363.512
362.725
362.111
361.124
359.926
358.453
357.181
355.757
349.626
350.553
351.703
352.519
353.509
354.429
354.972
355.679
355.695
355.946
355.929
355.526
355.152
354.445
353.986
353.094
352.019
350.746
349.648
348.428
342.118
342.838
343.813
344.513
345.352
346.15
346.586
347.218
347.214
347.381
347.421
347.066
346.751
346.123
345.769
345.042
344.084
342.982
342.122
341.068
334.572
335.068
335.857
336.482
337.166
337.807
338.149
338.754
338.716
338.835
338.869
338.55
338.318
337.789
337.545
336.91
336.135
335.178
334.553
333.674
326.936
327.277
327.922
328.378
328.953
329.424
329.687
330.195
330.131
330.226
330.266
330.026
329.816
329.437
329.273
328.77
328.182
327.358
326.918
326.223
319.268
319.5
319.958
320.3
320.742
321.056
321.256
321.601
321.517
321.571
321.651
321.471
321.318
321.027
320.976
320.583
320.16
319.576
319.266
318.751
311.579
311.719
312.009
312.212
312.465
312.665
312.773
312.982
312.944
312.921
313.008
312.929
312.797
312.662
312.625
312.363
312.106
311.741
311.571
311.275
303.881
303.934
304.019
304.111
304.163
304.237
304.267
304.356
304.37
304.317
304.359
304.329
304.287
304.256
304.232
304.151
304.068
303.926
303.878
303.803
357.726
359.091
360.165
361.449
362.556
363.534
364.16
364.745
365.103
365.233
365.132
364.922
364.409
363.712
363.01
362.034
360.85
359.356
357.926
356.449
350.152
351.315
352.258
353.337
354.258
355.162
355.695
356.191
356.539
356.659
356.544
356.37
355.914
355.335
354.725
353.886
352.798
351.519
350.328
349.035
342.512
343.481
344.327
345.178
345.979
346.773
347.23
347.626
347.904
348.038
347.951
347.753
347.383
346.924
346.393
345.697
344.786
343.635
342.691
341.559
334.81
335.631
336.341
336.984
337.673
338.308
338.718
339.036
339.266
339.34
339.286
339.128
338.832
338.473
338.035
337.484
336.69
335.707
335.019
334.082
327.091
327.756
328.29
328.802
329.323
329.831
330.152
330.429
330.596
330.646
330.572
330.457
330.217
329.967
329.618
329.218
328.583
327.799
327.287
326.51
319.386
319.852
320.229
320.61
320.942
321.343
321.572
321.82
321.887
321.933
321.866
321.777
321.616
321.417
321.191
320.886
320.428
319.856
319.539
318.962
311.645
311.932
312.14
312.387
312.57
312.845
312.941
313.137
313.128
313.174
313.172
313.072
312.999
312.88
312.725
312.532
312.232
311.904
311.743
311.401
303.908
303.983
304.054
304.152
304.212
304.318
304.33
304.383
304.41
304.409
304.423
304.395
304.357
304.327
304.243
304.192
304.077
303.99
303.944
303.829
358.496
359.733
360.854
362.023
363.19
364.259
364.887
365.306
365.739
365.86
365.717
365.846
365.233
364.391
363.599
362.763
361.57
360.117
358.678
357.12
350.851
351.903
352.842
353.818
354.848
355.81
356.305
356.667
357.076
357.198
357.046
357.186
356.62
355.932
355.248
354.543
353.504
352.178
350.959
349.623
343.124
344.026
344.822
345.568
346.455
347.289
347.703
348.029
348.408
348.472
348.276
348.444
347.975
347.424
346.86
346.223
345.369
344.209
343.228
342.053
335.317
336.089
336.747
337.301
338.026
338.737
339.119
339.361
339.662
339.715
339.509
339.702
339.348
338.866
338.43
337.847
337.217
336.215
335.472
334.443
327.505
328.149
328.598
329.002
329.566
330.181
330.428
330.63
330.876
330.896
330.748
330.916
330.657
330.225
329.957
329.455
328.999
328.221
327.66
326.821
319.637
320.158
320.451
320.751
321.136
321.569
321.724
321.913
322.107
322.081
321.978
322.13
321.922
321.58
321.399
321.057
320.717
320.179
319.863
319.167
311.789
312.128
312.279
312.488
312.693
312.961
313.004
313.202
313.295
313.262
313.195
313.282
313.184
312.963
312.861
312.654
312.42
312.115
312.001
311.515
303.954
304.066
304.108
304.189
304.251
304.353
304.361
304.425
304.455
304.447
304.432
304.454
304.422
304.336
304.3
304.227
304.167
304.075
304.032
303.839
359.117
360.042
361.513
362.564
363.88
364.828
365.613
366.272
366.314
366.49
366.508
366.428
365.624
365.058
364.429
363.328
362.083
360.665
359.139
357.722
351.3
352.112
353.393
354.331
355.495
356.258
356.943
357.552
357.526
357.705
357.703
357.684
356.994
356.466
355.985
355.009
353.902
352.702
351.343
350.168
343.491
344.108
345.265
346.063
347.045
347.676
348.247
348.78
348.718
348.867
348.868
348.883
348.303
347.805
347.48
346.579
345.687
344.674
343.531
342.577
335.642
336.092
337.08
337.769
338.523
339.099
339.507
339.979
339.905
340.017
339.963
340.054
339.54
339.102
338.953
338.139
337.397
336.579
335.683
334.899
327.76
328.114
328.857
329.429
330.011
330.49
330.716
331.104
331.082
331.138
331.098
331.212
330.821
330.428
330.343
329.693
329.124
328.506
327.793
327.171
319.899
320.107
320.61
321.009
321.474
321.835
321.902
322.246
322.278
322.265
322.214
322.332
322.021
321.802
321.688
321.221
320.902
320.389
319.899
319.431
311.963
312.092
312.392
312.635
312.905
313.132
313.149
313.393
313.387
313.393
313.316
313.388
313.232
313.107
313.028
312.808
312.575
312.255
311.994
311.664
304.004
304.059
304.142
304.244
304.325
304.399
304.418
304.487
304.48
304.481
304.458
304.455
304.44
304.399
304.372
304.305
304.215
304.083
304.021
303.903
359.321
360.335
361.924
363.291
364.18
365.201
366.12
366.751
366.661
367.105
366.843
366.85
366.268
365.565
364.838
363.838
362.429
361.011
359.688
358.447
351.557
352.386
353.774
354.956
355.745
356.653
357.413
357.934
357.88
358.231
358.029
358.017
357.546
356.887
356.284
355.452
354.171
352.921
351.834
350.8
343.738
344.388
345.608
346.558
347.223
347.988
348.624
349.061
349.047
349.333
349.152
349.167
348.732
348.184
347.671
346.959
345.867
344.772
343.933
343.054
335.831
336.374
337.397
338.118
338.697
339.279
339.856
340.192
340.185
340.447
340.257
340.221
339.902
339.488
339.078
338.454
337.55
336.642
335.992
335.284
327.928
328.365
329.168
329.643
330.166
330.564
331.111
331.29
331.323
331.521
331.354
331.238
331.113
330.777
330.429
329.974
329.269
328.507
328.043
327.523
319.965
320.288
320.854
321.169
321.614
321.865
322.29
322.35
322.43
322.542
322.396
322.295
322.25
321.994
321.769
321.468
320.954
320.39
320.058
319.678
312.004
312.226
312.539
312.703
313.005
313.131
313.42
313.428
313.484
313.561
313.481
313.359
313.39
313.204
313.073
312.923
312.59
312.228
312.07
311.795
304.023
304.089
304.184
304.251
304.372
304.396
304.517
304.497
304.533
304.549
304.517
304.451
304.503
304.435
304.399
304.346
304.239
304.097
304.063
303.938
359.695
360.769
362.173
363.699
364.702
365.745
366.241
366.829
367.226
367.669
367.429
367.241
366.645
365.968
365.273
364.231
362.91
361.518
360.085
358.678
351.886
352.76
353.974
355.282
356.158
357.065
357.531
358.01
358.372
358.722
358.51
358.429
357.879
357.299
356.68
355.804
354.597
353.379
352.221
351.028
344.003
344.711
345.752
346.861
347.546
348.366
348.777
349.16
349.473
349.796
349.58
349.51
349.088
348.61
347.998
347.325
346.249
345.188
344.292
343.324
336.063
336.675
337.469
338.389
338.899
339.603
340.005
340.282
340.527
340.809
340.593
340.541
340.238
339.836
339.286
338.803
337.896
337.003
336.282
335.506
328.105
328.589
329.156
329.854
330.25
330.807
331.18
331.356
331.535
331.773
331.598
331.549
331.372
331.02
330.525
330.199
329.548
328.818
328.254
327.657
320.153
320.451
320.842
321.342
321.618
321.995
322.297
322.417
322.522
322.722
322.594
322.541
322.464
322.189
321.793
321.623
321.146
320.627
320.206
319.802
312.16
312.349
312.522
312.818
313.012
313.204
313.414
313.5
313.528
313.67
313.595
313.523
313.525
313.326
313.085
312.991
312.697
312.413
312.184
311.951
304.077
304.148
304.194
304.291
304.366
304.419
304.489
304.528
304.542
304.576
304.557
304.546
304.547
304.447
304.396
304.342
304.235
304.175
304.084
304.028
359.931
361.175
362.61
364
365.25
366.049
366.944
367.386
367.719
367.925
367.753
367.511
367.18
366.312
365.315
364.336
363.008
361.697
360.185
358.887
352.056
353.061
354.375
355.543
356.645
357.318
358.074
358.533
358.746
358.961
358.791
358.637
358.289
357.577
356.702
355.875
354.708
353.56
352.263
351.124
344.145
344.976
346.078
347.031
347.979
348.539
349.185
349.623
349.763
349.992
349.798
349.717
349.369
348.781
348.051
347.353
346.323
345.33
344.268
343.339
336.223
336.888
337.692
338.48
339.26
339.722
340.293
340.622
340.748
340.964
340.777
340.719
340.429
339.941
339.348
338.809
337.92
337.079
336.253
335.526
328.235
328.74
329.328
329.973
330.54
330.869
331.387
331.637
331.661
331.843
331.752
331.71
331.464
331.077
330.682
330.243
329.458
328.872
328.215
327.699
320.205
320.58
320.924
321.44
321.842
322.052
322.479
322.651
322.637
322.734
322.707
322.664
322.466
322.221
321.943
321.629
321.01
320.613
320.189
319.828
312.148
312.369
312.605
312.905
313.123
313.239
313.514
313.61
313.597
313.64
313.624
313.627
313.504
313.354
313.155
312.986
312.626
312.368
312.162
311.947
304.067
304.149
304.242
304.326
304.41
304.444
304.556
304.55
304.54
304.568
304.573
304.553
304.524
304.498
304.408
304.344
304.235
304.158
304.078
303.985
360.136
361.297
362.894
364.058
365.374
366.403
367.24
367.64
367.858
367.851
367.918
367.645
367.189
366.453
365.437
364.289
363.135
361.792
360.36
359.005
352.293
353.246
354.591
355.611
356.757
357.66
358.368
358.677
358.908
358.872
358.954
358.728
358.332
357.682
356.822
355.794
354.762
353.664
352.413
351.268
344.368
345.165
346.232
347.113
348.104
348.856
349.464
349.673
349.9
349.87
349.988
349.774
349.421
348.875
348.219
347.283
346.383
345.452
344.404
343.462
336.392
337.027
337.872
338.589
339.39
340.031
340.521
340.651
340.854
340.835
340.946
340.775
340.449
340.061
339.533
338.703
338.002
337.239
336.429
335.648
328.403
328.828
329.501
330.082
330.644
331.142
331.542
331.619
331.775
331.83
331.898
331.754
331.484
331.21
330.809
330.126
329.563
329.022
328.401
327.746
320.343
320.619
321.104
321.558
321.888
322.241
322.524
322.59
322.73
322.794
322.83
322.666
322.499
322.293
322.012
321.497
321.142
320.758
320.367
319.862
312.232
312.4
312.661
312.967
313.173
313.334
313.524
313.564
313.691
313.688
313.738
313.63
313.525
313.387
313.244
312.907
312.716
312.48
312.255
311.947
304.086
304.164
304.241
304.351
304.423
304.463
304.537
304.546
304.602
304.599
304.611
304.575
304.557
304.46
304.438
304.329
304.261
304.182
304.106
304.001
360.078
361.472
362.871
364.241
365.6
366.512
367.229
367.7
367.969
367.981
367.955
367.726
367.18
366.549
365.595
364.431
363.293
361.815
360.344
358.981
352.208
353.335
354.59
355.787
356.997
357.727
358.41
358.795
359.054
359.025
359.019
358.781
358.309
357.738
356.916
355.928
354.928
353.645
352.376
351.264
344.319
345.172
346.263
347.305
348.349
348.904
349.52
349.804
350.066
350.031
350.003
349.77
349.41
348.839
348.264
347.38
346.514
345.454
344.41
343.499
336.351
336.979
337.885
338.76
339.631
340.067
340.584
340.814
341.056
340.952
340.964
340.743
340.462
339.935
339.536
338.804
338.08
337.217
336.389
335.64
328.386
328.753
329.518
330.167
330.838
331.205
331.646
331.745
331.958
331.843
331.904
331.738
331.48
331.098
330.78
330.208
329.661
328.935
328.334
327.749
320.333
320.552
321.113
321.529
322.029
322.333
322.651
322.728
322.847
322.747
322.839
322.698
322.478
322.21
322.027
321.606
321.259
320.692
320.302
319.845
312.227
312.341
312.654
312.919
313.241
313.449
313.622
313.636
313.711
313.647
313.732
313.634
313.505
313.344
313.227
313.012
312.782
312.434
312.244
311.915
304.082
304.13
304.242
304.328
304.434
304.518
304.592
304.56
304.591
304.546
304.607
304.559
304.53
304.446
304.442
304.382
304.305
304.171
304.129
303.991
359.894
361.464
362.802
364.118
365.442
366.304
367.096
367.538
367.994
368.195
367.929
367.581
367.151
366.398
365.579
364.399
363.364
361.879
360.237
359.082
351.982
353.408
354.531
355.668
356.799
357.577
358.26
358.627
359.035
359.204
358.971
358.653
358.306
357.65
356.924
355.917
355.042
353.682
352.316
351.317
344.058
345.309
346.214
347.153
348.152
348.817
349.383
349.663
350.042
350.163
349.946
349.682
349.405
348.87
348.247
347.339
346.689
345.493
344.332
343.508
336.08
337.145
337.825
338.622
339.453
339.968
340.463
340.653
341.035
341.081
340.888
340.692
340.436
340.075
339.528
338.815
338.238
337.222
336.298
335.688
328.072
328.915
329.449
330.082
330.722
331.125
331.487
331.62
331.947
331.952
331.843
331.695
331.438
331.22
330.765
330.261
329.783
328.95
328.239
327.819
320.087
320.654
321.028
321.514
321.959
322.28
322.484
322.599
322.882
322.804
322.75
322.686
322.467
322.332
322.01
321.63
321.306
320.673
320.192
319.889
312.061
312.378
312.658
312.941
313.172
313.395
313.505
313.581
313.786
313.708
313.697
313.63
313.497
313.388
313.228
312.985
312.799
312.414
312.123
311.925
304.048
304.145
304.237
304.348
304.403
304.488
304.53
304.568
304.644
304.595
304.593
304.594
304.512
304.482
304.445
304.381
304.286
304.163
304.044
304.007
)
;

boundaryField
{
    hotSide
    {
        type            fixedGradient;
        gradient        nonuniform List<scalar> 
400
(
470.016
484.763
499.098
512.955
526.271
538.985
551.035
562.362
572.911
582.628
591.464
599.373
606.313
612.248
617.147
620.982
623.732
625.383
625.924
625.352
482.871
498.041
512.788
527.046
540.749
553.833
566.236
577.897
588.759
598.767
607.87
616.02
623.176
629.299
634.356
638.32
641.169
642.887
643.465
642.899
494.437
509.988
525.107
539.726
553.778
567.197
579.919
591.883
603.028
613.299
622.643
631.013
638.363
644.656
649.857
653.939
656.879
658.66
659.272
658.712
504.636
520.524
535.972
550.911
565.272
578.987
591.992
604.223
615.619
626.123
635.682
644.245
651.769
658.213
663.543
667.73
670.75
672.588
673.232
672.678
513.403
529.582
545.314
560.528
575.154
589.125
602.374
614.835
626.448
637.154
646.898
655.629
663.303
669.878
675.319
679.597
682.689
684.576
685.248
684.701
520.685
537.105
553.073
568.516
583.364
597.548
610.999
623.653
635.446
646.32
656.218
665.09
672.89
679.574
685.109
689.464
692.615
694.544
695.241
694.7
526.439
543.05
559.204
574.828
589.852
604.204
617.816
630.622
642.558
653.565
663.586
672.57
680.468
687.241
692.85
697.266
700.465
702.428
703.144
702.61
530.632
547.383
563.672
579.429
594.58
609.055
622.784
635.702
647.743
658.847
668.958
678.023
685.994
692.831
698.495
702.956
706.19
708.179
708.91
708.38
533.245
550.081
566.455
582.294
597.525
612.076
625.878
638.865
650.971
662.136
672.303
681.419
689.437
696.313
702.012
706.502
709.758
711.763
712.505
711.979
534.265
551.135
567.541
583.411
598.672
613.253
627.084
640.097
652.229
663.417
673.606
682.743
690.779
697.671
703.384
707.886
711.152
713.164
713.911
713.387
533.693
550.542
566.928
582.779
598.022
612.585
626.399
639.397
651.514
662.689
672.866
681.992
690.018
696.903
702.609
707.106
710.368
712.378
713.124
712.602
531.536
548.311
564.626
580.407
595.583
610.082
623.834
636.774
648.837
659.962
670.093
679.176
687.166
694.018
699.697
704.172
707.418
709.417
710.157
709.634
527.812
544.462
560.653
576.315
591.376
605.764
619.411
632.251
644.221
655.259
665.31
674.322
682.247
689.043
694.675
699.111
702.327
704.305
705.034
704.509
522.549
539.021
555.04
570.534
585.432
599.664
613.163
625.862
637.7
648.616
658.554
667.464
675.298
682.015
687.58
691.961
695.135
697.084
697.796
697.268
515.783
532.028
547.825
563.103
577.793
591.825
605.134
617.653
629.321
640.08
649.874
658.653
666.371
672.986
678.464
682.775
685.894
687.805
688.497
687.964
507.559
523.529
539.057
554.074
568.512
582.302
595.38
607.681
619.144
629.712
639.331
647.952
655.528
662.02
667.394
671.619
674.672
676.537
677.203
676.666
497.934
513.582
528.796
543.508
557.651
571.159
583.967
596.014
607.238
617.584
626.999
635.435
642.847
649.195
654.446
658.572
661.549
663.361
663.997
663.454
486.969
502.252
517.11
531.476
545.285
558.473
570.975
582.732
593.685
603.78
612.964
621.19
628.415
634.6
639.714
643.727
646.617
648.369
648.973
648.423
474.74
489.617
504.078
518.06
531.498
544.329
556.492
567.928
578.58
588.395
597.322
605.316
612.334
618.339
623.3
627.188
629.983
631.67
632.237
631.682
461.328
475.761
489.79
503.351
516.384
528.826
540.618
551.704
562.027
571.537
580.184
587.925
594.718
600.527
605.321
609.074
611.766
613.382
613.911
613.351
)
;
    }
    coldSide
    {
        type            mixed;
        refValue        uniform 300;
        refGradient     uniform 0;
        valueFraction   uniform 0.991591;
        source          uniform 0;
        value           nonuniform List<scalar> 
400
(
300.027
300.027
300.028
300.028
300.029
300.03
300.03
300.031
300.032
300.032
300.033
300.033
300.033
300.034
300.034
300.034
300.034
300.034
300.034
300.034
300.027
300.028
300.028
300.029
300.03
300.03
300.031
300.031
300.032
300.033
300.033
300.033
300.034
300.034