/*--------------------------------*- C++ -*----------------------------------*\
| =========                 |                                                 |
| \\      /  F ield         | OpenFOAM: The Open Source CFD Toolbox           |
|  \\    /   O peration     | Version:  2212                                  |
|   \\  /    A nd           | Website:  www.openfoam.com                      |
|    \\/     M anipulation  |                                                 |
\*---------------------------------------------------------------------------*/
FoamFile
{
    version     2.0;
    format      ascii;
    arch        "LSB;label=32;scalar=64";
    class       volScalarField;
    location    "0";
    object      Ttrue;
}
// * * * * * * * * * * * * * * * * * * * * * * * * * * * * * * * * * * * * * //

dimensions      [0 0 0 1 0 0 0];

internalField   nonuniform List<scalar> 
3200
(
349.731
350.391
351.233
352.151
353.096
354.024
354.881
355.604
356.13
356.409
356.409
356.13
355.604
354.881
354.024
353.096
352.151
351.233
350.391
349.731
343.127
343.685
344.412
345.206
346.024
346.827
347.567
348.192
348.647
348.887
348.887
348.647
348.192
347.567
346.827
346.024
345.206
344.412
343.685
343.127
336.513
336.976
337.588
338.259
338.95
339.628
340.254
340.781
341.165
341.367
341.367
341.165
340.781
340.254
339.628
338.95
338.259
337.588
336.976
336.513
329.89
330.263
330.762
331.31
331.875
332.43
332.94
333.371
333.684
333.849
333.849
333.684
333.371
332.94
332.43
331.875
331.31
330.762
330.263
329.89
323.261
323.547
323.934
324.36
324.8
325.23
325.627
325.961
326.204
326.333
326.333
326.204
325.961
325.627
325.23
324.8
324.36
323.934
323.547
323.261
316.627
316.829
317.105
317.409
317.723
318.031
318.314
318.552
318.726
318.817
318.817
318.726
318.552
318.314
318.031
317.723
317.409
317.105
316.829
316.627
309.989
310.11
310.275
310.458
310.646
310.831
311.001
311.144
311.248
311.303
311.303
311.248
311.144
311.001
310.831
310.646
310.458
310.275
310.11
309.989
303.349
303.389
303.444
303.506
303.569
303.631
303.688
303.736
303.77
303.789
303.789
303.77
303.736
303.688
303.631
303.569
303.506
303.444
303.389
303.349
349.899
350.553
351.388
352.298
353.233
354.151
354.998
355.712
356.231
356.506
356.506
356.231
355.712
354.998
354.151
353.233
352.298
351.388
350.553
349.899
343.272
343.826
344.546
345.333
346.143
346.937
347.669
348.286
348.735
348.972
348.972
348.735
348.286
347.669
346.937
346.143
345.333
344.546
343.826
343.272
336.636
337.095
337.702
338.367
339.051
339.722
340.34
340.86
341.239
341.439
341.439
341.239
340.86
340.34
339.722
339.051
338.367
337.702
337.095
336.636
329.991
330.361
330.855
331.398
331.958
332.506
333.011
333.436
333.745
333.908
333.908
333.745
333.436
333.011
332.506
331.958
331.398
330.855
330.361
329.991
323.339
323.623
324.007
324.429
324.864
325.29
325.682
326.012
326.252
326.379
326.379
326.252
326.012
325.682
325.29
324.864
324.429
324.007
323.623
323.339
316.682
316.883
317.157
317.458
317.769
318.073
318.353
318.589
318.76
318.85
318.85
318.76
318.589
318.353
318.073
317.769
317.458
317.157
316.883
316.682
310.022
310.142
310.306
310.487
310.674
310.856
311.024
311.166
311.268
311.323
311.323
311.268
311.166
311.024
310.856
310.674
310.487
310.306
310.142
310.022
303.36
303.4
303.455
303.515
303.578
303.639
303.695
303.743
303.777
303.795
303.795
303.777
303.743
303.695
303.639
303.578
303.515
303.455
303.4
303.36
350.236
350.88
351.7
352.593
353.51
354.408
355.235
355.931
356.438
356.705
356.705
356.438
355.931
355.235
354.408
353.51
352.593
351.7
350.88
350.236
343.564
344.109
344.817
345.589
346.383
347.159
347.874
348.476
348.914
349.145
349.145
348.914
348.476
347.874
347.159
346.383
345.589
344.817
344.109
343.564
336.882
337.334
337.931
338.583
339.254
339.91
340.514
341.022
341.391
341.586
341.586
341.391
341.022
340.514
339.91
339.254
338.583
337.931
337.334
336.882
330.192
330.556
331.042
331.575
332.124
332.66
333.153
333.568
333.87
334.029
334.029
333.87
333.568
333.153
332.66
332.124
331.575
331.042
330.556
330.192
323.495
323.775
324.152
324.567
324.993
325.41
325.793
326.115
326.349
326.472
326.472
326.349
326.115
325.793
325.41
324.993
324.567
324.152
323.775
323.495
316.794
316.992
317.261
317.557
317.861
318.159
318.432
318.662
318.829
318.917
318.917
318.829
318.662
318.432
318.159
317.861
317.557
317.261
316.992
316.794
310.089
310.207
310.369
310.546
310.729
310.908
311.072
311.21
311.31
311.363
311.363
311.31
311.21
311.072
310.908
310.729
310.546
310.369
310.207
310.089
303.382
303.422
303.476
303.535
303.596
303.656
303.711
303.758
303.791
303.809
303.809
303.791
303.758
303.711
303.656
303.596
303.535
303.476
303.422
303.382
350.742
351.371
352.171
353.039
353.929
354.798
355.597
356.269
356.756
357.013
357.013
356.756
356.269
355.597
354.798
353.929
353.039
352.171
351.371
350.742
344.002
344.535
345.225
345.976
346.746
347.498
348.189
348.769
349.19
349.412
349.412
349.19
348.769
348.189
347.498
346.746
345.976
345.225
344.535
344.002
337.252
337.694
338.276
338.91
339.561
340.197
340.78
341.27
341.626
341.813
341.813
341.626
341.27
340.78
340.197
339.561
338.91
338.276
337.694
337.252
330.495
330.85
331.324
331.843
332.375
332.895
333.371
333.771
334.062
334.215
334.215
334.062
333.771
333.371
332.895
332.375
331.843
331.324
330.85
330.495
323.731
324.004
324.372
324.775
325.188
325.592
325.962
326.273
326.499
326.617
326.617
326.499
326.273
325.962
325.592
325.188
324.775
324.372
324.004
323.731
316.962
317.155
317.418
317.705
318.001
318.289
318.554
318.775
318.936
319.021
319.021
318.936
318.775
318.554
318.289
318.001
317.705
317.418
317.155
316.962
310.19
310.306
310.463
310.636
310.813
310.986
311.145
311.278
311.374
311.425
311.425
311.374
311.278
311.145
310.986
310.813
310.636
310.463
310.306
310.19
303.416
303.455
303.507
303.565
303.625
303.683
303.736
303.78
303.813
303.83
303.83
303.813
303.78
303.736
303.683
303.625
303.565
303.507
303.455
303.416
351.421
352.03
352.804
353.641
354.497
355.33
356.093
356.733
357.197
357.441
357.441
357.197
356.733
356.093
355.33
354.497
353.641
352.804
352.03
351.421
344.589
345.105
345.773
346.497
347.238
347.959
348.619
349.172
349.573
349.784
349.784
349.573
349.172
348.619
347.959
347.238
346.497
345.773
345.105
344.589
337.749
338.177
338.739
339.351
339.977
340.587
341.144
341.612
341.95
342.128
342.128
341.95
341.612
341.144
340.587
339.977
339.351
338.739
338.177
337.749
330.901
331.245
331.704
332.204
332.716
333.214
333.669
334.051
334.327
334.473
334.473
334.327
334.051
333.669
333.214
332.716
332.204
331.704
331.245
330.901
324.046
324.311
324.667
325.055
325.453
325.84
326.194
326.491
326.706
326.819
326.819
326.706
326.491
326.194
325.84
325.453
325.055
324.667
324.311
324.046
317.187
317.375
317.628
317.906
318.19
318.467
318.719
318.931
319.084
319.165
319.165
319.084
318.931
318.719
318.467
318.19
317.906
317.628
317.375
317.187
310.325
310.437
310.589
310.756
310.927
311.093
311.244
311.371
311.463
311.512
311.512
311.463
311.371
311.244
311.093
310.927
310.756
310.589
310.437
310.325
303.461
303.499
303.55
303.606
303.663
303.718
303.769
303.812
303.843
303.859
303.859
303.843
303.812
303.769
303.718
303.663
303.606
303.55
303.499
303.461
352.274
352.861
353.603
354.404
355.219
356.01
356.732
357.336
357.772
358.002
358.002
357.772
357.336
356.732
356.01
355.219
354.404
353.603
352.861
352.274
345.327
345.824
346.465
347.158
347.863
348.548
349.173
349.695
350.072
350.271
350.271
350.072
349.695
349.173
348.548
347.863
347.158
346.465
345.824
345.327
338.373
338.785
339.324
339.91
340.507
341.085
341.613
342.054
342.373
342.54
342.54
342.373
342.054
341.613
341.085
340.507
339.91
339.324
338.785
338.373
331.411
331.742
332.182
332.661
333.149
333.622
334.053
334.414
334.674
334.811
334.811
334.674
334.414
334.053
333.622
333.149
332.661
332.182
331.742
331.411
324.443
324.697
325.039
325.411
325.79
326.158
326.493
326.773
326.975
327.082
327.082
326.975
326.773
326.493
326.158
325.79
325.411
325.039
324.697
324.443
317.471
317.651
317.894
318.16
318.431
318.693
318.933
319.133
319.277
319.353
319.353
319.277
319.133
318.933
318.693
318.431
318.16
317.894
317.651
317.471
310.495
310.603
310.749
310.908
311.071
311.229
311.373
311.493
311.579
311.625
311.625
311.579
311.493
311.373
311.229
311.071
310.908
310.749
310.603
310.495
303.518
303.554
303.603
303.657
303.711
303.764
303.812
303.852
303.881
303.897
303.897
303.881
303.852
303.812
303.764
303.711
303.657
303.603
303.554
303.518
353.304
353.865
354.572
355.332
356.103
356.847
357.524
358.088
358.495
358.709
358.709
358.495
358.088
357.524
356.847
356.103
355.332
354.572
353.865
353.304
346.219
346.694
347.304
347.962
348.629
349.274
349.859
350.348
350.699
350.884
350.884
350.699
350.348
349.859
349.274
348.629
347.962
347.304
346.694
346.219
339.126
339.52
340.034
340.59
341.154
341.699
342.194
342.607
342.904
343.06
343.06
342.904
342.607
342.194
341.699
341.154
340.59
340.034
339.52
339.126
332.027
332.344
332.763
333.217
333.679
334.124
334.529
334.866
335.109
335.236
335.236
335.109
334.866
334.529
334.124
333.679
333.217
332.763
332.344
332.027
324.922
325.165
325.49
325.844
326.202
326.549
326.863
327.125
327.314
327.413
327.413
327.314
327.125
326.863
326.549
326.202
325.844
325.49
325.165
324.922
317.813
317.985
318.217
318.469
318.725
318.973
319.197
319.384
319.519
319.59
319.59
319.519
319.384
319.197
318.973
318.725
318.469
318.217
317.985
317.813
310.701
310.804
310.943
311.094
311.248
311.397
311.531
311.644
311.725
311.767
311.767
311.725
311.644
311.531
311.397
311.248
311.094
310.943
310.804
310.701
303.587
303.622
303.668
303.719
303.77
303.82
303.865
303.903
303.93
303.944
303.944
303.93
303.903
303.865
303.82
303.77
303.719
303.668
303.622
303.587
354.514
355.047
355.717
356.433
357.155
357.851
358.48
359.003
359.379
359.576
359.576
359.379
359.003
358.48
357.851
357.155
356.433
355.717
355.047
354.514
347.266
347.718
348.295
348.915
349.541
350.143
350.688
351.14
351.465
351.636
351.636
351.465
351.14
350.688
350.143
349.541
348.915
348.295
347.718
347.266
340.011
340.386
340.873
341.397
341.926
342.435
342.895
343.278
343.552
343.696
343.696
343.552
343.278
342.895
342.435
341.926
341.397
340.873
340.386
340.011
332.75
333.052
333.449
333.877
334.31
334.726
335.103
335.415
335.639
335.757
335.757
335.639
335.415
335.103
334.726
334.31
333.877
333.449
333.052
332.75
325.484
325.716
326.024
326.356
326.693
327.017
327.309
327.552
327.727
327.818
327.818
327.727
327.552
327.309
327.017
326.693
326.356
326.024
325.716
325.484
318.215
318.378
318.598
318.836
319.076
319.307
319.516
319.69
319.814
319.879
319.879
319.814
319.69
319.516
319.307
319.076
318.836
318.598
318.378
318.215
310.942
311.04
311.171
311.314
311.459
311.597
311.723
311.827
311.902
311.941
311.941
311.902
311.827
311.723
311.597
311.459
311.314
311.171
311.04
310.942
303.668
303.701
303.745
303.793
303.841
303.888
303.93
303.965
303.99
304.003
304.003
303.99
303.965
303.93
303.888
303.841
303.793
303.745
303.701
303.668
355.907
356.411
357.041
357.711
358.385
359.029
359.61
360.091
360.435
360.615
360.615
360.435
360.091
359.61
359.029
358.385
357.711
357.041
356.411
355.907
348.473
348.899
349.442
350.023
350.606
351.164
351.667
352.083
352.381
352.537
352.537
352.381
352.083
351.667
351.164
350.606
350.023
349.442
348.899
348.473
341.031
341.384
341.843
342.333
342.827
343.299
343.724
344.076
344.328
344.459
344.459
344.328
344.076
343.724
343.299
342.827
342.333
341.843
341.384
341.031
333.584
333.868
334.242
334.643
335.047
335.433
335.781
336.068
336.274
336.381
336.381
336.274
336.068
335.781
335.433
335.047
334.643
334.242
333.868
333.584
326.132
326.351
326.64
326.952
327.266
327.566
327.837
328.06
328.22
328.304
328.304
328.22
328.06
327.837
327.566
327.266
326.952
326.64
326.351
326.132
318.677
318.832
319.038
319.261
319.485
319.7
319.893
320.053
320.167
320.227
320.227
320.167
320.053
319.893
319.7
319.485
319.261
319.038
318.832
318.677
311.22
311.312
311.436
311.57
311.705
311.833
311.949
312.045
312.114
312.15
312.15
312.114
312.045
311.949
311.833
311.705
311.57
311.436
311.312
311.22
303.761
303.792
303.834
303.878
303.924
303.967
304.006
304.038
304.061
304.073
304.073
304.061
304.038
304.006
303.967
303.924
303.878
303.834
303.792
303.761
357.487
357.96
358.55
359.174
359.798
360.391
360.924
361.363
361.677
361.84
361.84
361.677
361.363
360.924
360.391
359.798
359.174
358.55
357.96
357.487
349.84
350.241
350.749
351.29
351.83
352.344
352.806
353.186
353.457
353.599
353.599
353.457
353.186
352.806
352.344
351.83
351.29
350.749
350.241
349.84
342.187
342.519
342.948
343.405
343.862
344.297
344.687
345.008
345.238
345.358
345.358
345.238
345.008
344.687
344.297
343.862
343.405
342.948
342.519
342.187
334.529
334.796
335.146
335.519
335.893
336.249
336.568
336.831
337.019
337.117
337.117
337.019
336.831
336.568
336.249
335.893
335.519
335.146
334.796
334.529
326.867
327.072
327.343
327.634
327.925
328.201
328.45
328.654
328.8
328.876
328.876
328.8
328.654
328.45
328.201
327.925
327.634
327.343
327.072
326.867
319.202
319.347
319.541
319.748
319.956
320.154
320.331
320.477
320.581
320.635
320.635
320.581
320.477
320.331
320.154
319.956
319.748
319.541
319.347
319.202
311.535
311.622
311.738
311.862
311.987
312.106
312.212
312.3
312.362
312.395
312.395
312.362
312.3
312.212
312.106
311.987
311.862
311.738
311.622
311.535
303.867
303.896
303.935
303.976
304.018
304.058
304.094
304.123
304.144
304.155
304.155
304.144
304.123
304.094
304.058
304.018
303.976
303.935
303.896
303.867
359.256
359.699
360.247
360.826
361.4
361.944
362.43
362.829
363.113
363.261
363.261
363.113
362.829
362.43
361.944
361.4
360.826
360.247
359.699
359.256
351.371
351.746
352.219
352.72
353.218
353.689
354.11
354.456
354.701
354.829
354.829
354.701
354.456
354.11
353.689
353.218
352.72
352.219
351.746
351.371
343.482
343.792
344.191
344.614
345.036
345.435
345.791
346.083
346.29
346.399
346.399
346.29
346.083
345.791
345.435
345.036
344.614
344.191
343.792
343.482
335.587
335.837
336.163
336.509
336.853
337.18
337.471
337.71
337.88
337.968
337.968
337.88
337.71
337.471
337.18
336.853
336.509
336.163
335.837
335.587
327.69
327.882
328.134
328.403
328.671
328.925
329.152
329.337
329.47
329.538
329.538
329.47
329.337
329.152
328.925
328.671
328.403
328.134
327.882
327.69
319.79
319.926
320.106
320.298
320.489
320.671
320.833
320.965
321.06
321.109
321.109
321.06
320.965
320.833
320.671
320.489
320.298
320.106
319.926
319.79
311.888
311.969
312.077
312.192
312.307
312.416
312.514
312.593
312.65
312.679
312.679
312.65
312.593
312.514
312.416
312.307
312.192
312.077
311.969
311.888
303.985
304.012
304.048
304.087
304.126
304.162
304.195
304.221
304.24
304.25
304.25
304.24
304.221
304.195
304.162
304.126
304.087
304.048
304.012
303.985
361.217
361.629
362.138
362.671
363.198
363.694
364.135
364.495
364.751
364.884
364.884
364.751
364.495
364.135
363.694
363.198
362.671
362.138
361.629
361.217
353.069
353.418
353.857
354.318
354.775
355.205
355.587
355.899
356.121
356.236
356.236
356.121
355.899
355.587
355.205
354.775
354.318
353.857
353.418
353.069
344.917
345.206
345.576
345.966
346.352
346.716
347.04
347.304
347.491
347.589
347.589
347.491
347.304
347.04
346.716
346.352
345.966
345.576
345.206
344.917
336.761
336.993
337.295
337.614
337.93
338.228
338.493
338.709
338.862
338.942
338.942
338.862
338.709
338.493
338.228
337.93
337.614
337.295
336.993
336.761
328.602
328.781
329.015
329.263
329.509
329.741
329.946
330.114
330.234
330.295
330.295
330.234
330.114
329.946
329.741
329.509
329.263
329.015
328.781
328.602
320.441
320.568
320.735
320.912
321.088
321.253
321.4
321.52
321.605
321.65
321.65
321.605
321.52
321.4
321.253
321.088
320.912
320.735
320.568
320.441
312.279
312.355
312.455
312.561
312.667
312.766
312.855
312.927
312.978
313.004
313.004
312.978
312.927
312.855
312.766
312.667
312.561
312.455
312.355
312.279
304.116
304.141
304.175
304.211
304.246
304.279
304.309
304.333
304.35
304.359
304.359
304.35
304.333
304.309
304.279
304.246
304.211
304.175
304.141
304.116
363.371
363.754
364.224
364.713
365.194
365.646
366.044
366.369
366.599
366.718
366.718
366.599
366.369
366.044
365.646
365.194
364.713
364.224
363.754
363.371
354.934
355.257
355.663
356.087
356.504
356.895
357.241
357.522
357.721
357.824
357.824
357.721
357.522
357.241
356.895
356.504
356.087
355.663
355.257
354.934
346.493
346.761
347.103
347.462
347.815
348.146
348.438
348.676
348.844
348.932
348.932
348.844
348.676
348.438
348.146
347.815
347.462
347.103
346.761
346.493
338.05
338.265
338.544
338.837
339.126
339.397
339.637
339.831
339.969
340.04
340.04
339.969
339.831
339.637
339.397
339.126
338.837
338.544
338.265
338.05
329.604
329.77
329.986
330.214
330.439
330.65
330.836
330.987
331.094
331.15
331.15
331.094
330.987
330.836
330.65
330.439
330.214
329.986
329.77
329.604
321.157
321.274
321.428
321.591
321.752
321.903
322.036
322.144
322.22
322.26
322.26
322.22
322.144
322.036
321.903
321.752
321.591
321.428
321.274
321.157
312.709
312.779
312.871
312.969
313.066
313.156
313.236
313.301
313.347
313.371
313.371
313.347
313.301
313.236
313.156
313.066
312.969
312.871
312.779
312.709
304.26
304.284
304.315
304.347
304.38
304.41
304.437
304.459
304.474
304.482
304.482
304.474
304.459
304.437
304.41
304.38
304.347
304.315
304.284
304.26
365.72
366.074
366.506
366.954
367.393
367.801
368.161
368.452
368.658
368.764
368.764
368.658
368.452
368.161
367.801
367.393
366.954
366.506
366.074
365.72
356.967
357.266
357.639
358.027
358.407
358.762
359.073
359.326
359.504
359.596
359.596
359.504
359.326
359.073
358.762
358.407
358.027
357.639
357.266
356.967
348.212
348.459
348.774
349.103
349.424
349.724
349.988
350.201
350.352
350.43
350.43
350.352
350.201
349.988
349.724
349.424
349.103
348.774
348.459
348.212
339.454
339.654
339.911
340.179
340.442
340.688
340.904
341.079
341.202
341.266
341.266
341.202
341.079
340.904
340.688
340.442
340.179
339.911
339.654
339.454
330.696
330.849
331.048
331.257
331.462
331.653
331.821
331.957
332.053
332.103
332.103
332.053
331.957
331.821
331.653
331.462
331.257
331.048
330.849
330.696
321.937
322.045
322.187
322.337
322.483
322.619
322.739
322.837
322.905
322.941
322.941
322.905
322.837
322.739
322.619
322.483
322.337
322.187
322.045
321.937
313.177
313.242
313.327
313.417
313.505
313.587
313.659
313.717
313.758
313.78
313.78
313.758
313.717
313.659
313.587
313.505
313.417
313.327
313.242
313.177
304.417
304.439
304.467
304.497
304.527
304.554
304.579
304.598
304.612
304.619
304.619
304.612
304.598
304.579
304.554
304.527
304.497
304.467
304.439
304.417
368.26
368.586
368.983
369.392
369.79
370.16
370.483
370.744
370.928
371.023
371.023
370.928
370.744
370.483
370.16
369.79
369.392
368.983
368.586
368.26
359.165
359.44
359.783
360.138
360.483
360.803
361.084
361.31
361.469
361.551
361.551
361.469
361.31
361.084
360.803
360.483
360.138
359.783
359.44
359.165
350.069
350.297
350.586
350.886
351.179
351.45
351.687
351.879
352.013
352.083
352.083
352.013
351.879
351.687
351.45
351.179
350.886
350.586
350.297
350.069
340.973
341.156
341.392
341.637
341.877
342.099
342.293
342.45
342.56
342.617
342.617
342.56
342.45
342.293
342.099
341.877
341.637
341.392
341.156
340.973
331.876
332.017
332.2
332.391
332.577
332.75
332.901
333.023
333.109
333.153
333.153
333.109
333.023
332.901
332.75
332.577
332.391
332.2
332.017
331.876
322.78
322.879
323.01
323.146
323.279
323.403
323.511
323.598
323.659
323.691
323.691
323.659
323.598
323.511
323.403
323.279
323.146
323.01
322.879
322.78
313.683
313.743
313.821
313.903
313.983
314.057
314.122
314.174
314.211
314.23
314.23
314.211
314.174
314.122
314.057
313.983
313.903
313.821
313.743
313.683
304.587
304.607
304.633
304.66
304.687
304.712
304.734
304.751
304.764
304.77
304.77
304.764
304.751
304.734
304.712
304.687
304.66
304.633
304.607
304.587
370.981
371.281
371.644
372.018
372.379
372.712
373.003
373.236
373.4
373.484
373.484
373.4
373.236
373.003
372.712
372.379
372.018
371.644
371.281
370.981
361.517
361.771
362.085
362.409
362.722
363.011
363.263
363.465
363.607
363.681
363.681
363.607
363.465
363.263
363.011
362.722
362.409
362.085
361.771
361.517
352.056
352.266
352.531
352.804
353.069
353.314
353.527
353.699
353.819
353.881
353.881
353.819
353.699
353.527
353.314
353.069
352.804
352.531
352.266
352.056
342.595
342.765
342.981
343.204
343.421
343.622
343.796
343.937
344.035
344.086
344.086
344.035
343.937
343.796
343.622
343.421
343.204
342.981
342.765
342.595
333.137
333.267
333.434
333.608
333.777
333.933
334.069
334.178
334.255
334.294
334.294
334.255
334.178
334.069
333.933
333.777
333.608
333.434
333.267
333.137
323.68
323.771
323.891
324.015
324.136
324.247
324.345
324.423
324.477
324.506
324.506
324.477
324.423
324.345
324.247
324.136
324.015
323.891
323.771
323.68
314.223
314.278
314.35
314.425
314.497
314.564
314.622
314.669
314.702
314.719
314.719
314.702
314.669
314.622
314.564
314.497
314.425
314.35
314.278
314.223
304.768
304.786
304.81
304.835
304.859
304.882
304.901
304.917
304.928
304.934
304.934
304.928
304.917
304.901
304.882
304.859
304.835
304.81
304.786
304.768
373.854
374.129
374.462
374.802
375.13
375.43
375.691
375.9
376.047
376.122
376.122
376.047
375.9
375.691
375.43
375.13
374.802
374.462
374.129
373.854
363.997
364.23
364.518
364.813
365.096
365.357
365.584
365.765
365.892
365.957
365.957
365.892
365.765
365.584
365.357
365.096
364.813
364.518
364.23
363.997
354.146
354.34
354.582
354.831
355.072
355.293
355.484
355.638
355.745
355.801
355.801
355.745
355.638
355.484
355.293
355.072
354.831
354.582
354.34
354.146
344.301
344.456
344.654
344.858
345.055
345.236
345.393
345.519
345.607
345.652
345.652
345.607
345.519
345.393
345.236
345.055
344.858
344.654
344.456
344.301
334.46
334.579
334.733
334.892
335.045
335.186
335.308
335.406
335.474
335.509
335.509
335.474
335.406
335.308
335.186
335.045
334.892
334.733
334.579
334.46
324.623
324.708
324.817
324.931
325.04
325.141
325.228
325.298
325.347
325.372
325.372
325.347
325.298
325.228
325.141
325.04
324.931
324.817
324.708
324.623
314.789
314.84
314.905
314.974
315.039
315.1
315.152
315.194
315.224
315.239
315.239
315.224
315.194
315.152
315.1
315.039
314.974
314.905
314.84
314.789
304.957
304.974
304.996
305.019
305.041
305.061
305.079
305.093
305.103
305.108
305.108
305.103
305.093
305.079
305.061
305.041
305.019
304.996
304.974
304.957
376.805
377.058
377.363
377.674
377.971
378.243
378.478
378.665
378.796
378.863
378.863
378.796
378.665
378.478
378.243
377.971
377.674
377.363
377.058
376.805
366.533
366.747
367.011
367.28
367.538
367.774
367.978
368.14
368.254
368.313
368.313
368.254
368.14
367.978
367.774
367.538
367.28
367.011
366.747
366.533
356.275
356.453
356.675
356.903
357.122
357.322
357.494
357.632
357.729
357.778
357.778
357.729
357.632
357.494
357.322
357.122
356.903
356.675
356.453
356.275
346.031
346.174
346.356
346.542
346.721
346.885
347.027
347.14
347.218
347.259
347.259
347.218
347.14
347.027
346.885
346.721
346.542
346.356
346.174
346.031
335.799
335.909
336.049
336.194
336.334
336.461
336.572
336.66
336.721
336.753
336.753
336.721
336.66
336.572
336.461
336.334
336.194
336.049
335.909
335.799
325.576
325.654
325.754
325.858
325.957
326.049
326.127
326.19
326.234
326.257
326.257
326.234
326.19
326.127
326.049
325.957
325.858
325.754
325.654
325.576
315.36
315.406
315.467
315.529
315.589
315.644
315.691
315.729
315.755
315.769
315.769
315.755
315.729
315.691
315.644
315.589
315.529
315.467
315.406
315.36
305.148
305.164
305.184
305.205
305.225
305.243
305.259
305.272
305.281
305.285
305.285
305.281
305.272
305.259
305.243
305.225
305.205
305.184
305.164
305.148
379.644
379.879
380.16
380.445
380.717
380.965
381.178
381.348
381.466
381.527
381.527
381.466
381.348
381.178
380.965
380.717
380.445
380.16
379.879
379.644
368.943
369.141
369.385
369.632
369.868
370.084
370.269
370.417
370.52
370.572
370.572
370.52
370.417
370.269
370.084
369.868
369.632
369.385
369.141
368.943
358.277
358.442
358.647
358.857
359.057
359.24
359.398
359.523
359.61
359.655
359.655
359.61
359.523
359.398
359.24
359.057
358.857
358.647
358.442
358.277
347.643
347.776
347.944
348.115
348.28
348.43
348.559
348.662
348.733
348.77
348.77
348.733
348.662
348.559
348.43
348.28
348.115
347.944
347.776
347.643
337.036
337.138
337.269
337.403
337.531
337.647
337.748
337.828
337.884
337.913
337.913
337.884
337.828
337.748
337.647
337.531
337.403
337.269
337.138
337.036
326.451
326.524
326.617
326.712
326.804
326.888
326.96
327.017
327.057
327.077
327.077
327.057
327.017
326.96
326.888
326.804
326.712
326.617
326.524
326.451
315.882
315.925
315.981
316.039
316.094
316.144
316.187
316.222
316.246
316.258
316.258
316.246
316.222
316.187
316.144
316.094
316.039
315.981
315.925
315.882
305.323
305.337
305.356
305.375
305.394
305.411
305.425
305.437
305.445
305.449
305.449
305.445
305.437
305.425
305.411
305.394
305.375
305.356
305.337
305.323
381.872
382.093
382.357
382.625
382.879
383.11
383.309
383.466
383.576
383.632
383.632
383.576
383.466
383.309
383.11
382.879
382.625
382.357
382.093
381.872
370.762
370.949
371.179
371.412
371.633
371.835
372.008
372.146
372.241
372.29
372.29
372.241
372.146
372.008
371.835
371.633
371.412
371.179
370.949
370.762
359.741
359.897
360.091
360.289
360.478
360.649
360.797
360.914
360.995
361.037
361.037
360.995
360.914
360.797
360.649
360.478
360.289
360.091
359.897
359.741
348.793
348.919
349.078
349.241
349.396
349.536
349.658
349.754
349.821
349.855
349.855
349.821
349.754
349.658
349.536
349.396
349.241
349.078
348.919
348.793
337.903
338
338.123
338.25
338.371
338.481
338.576
338.651
338.703
338.73
338.73
338.703
338.651
338.576
338.481
338.371
338.25
338.123
338
337.903
327.056
327.125
327.213
327.304
327.39
327.469
327.537
327.591
327.628
327.647
327.647
327.628
327.591
327.537
327.469
327.39
327.304
327.213
327.125
327.056
316.24
316.281
316.334
316.389
316.441
316.488
316.529
316.561
316.584
316.595
316.595
316.584
316.561
316.529
316.488
316.441
316.389
316.334
316.281
316.24
305.442
305.456
305.473
305.492
305.509
305.525
305.539
305.55
305.557
305.561
305.561
305.557
305.55
305.539
305.525
305.509
305.492
305.473
305.456
305.442
)
;

boundaryField
{
    hotSide
    {
        type            fixedGradient;
        gradient        nonuniform List<scalar> 
400
(
527.366
529.184
532.827
538.308
545.648
554.871
566.004
579.079
594.126
611.179
630.267
651.419
674.662
700.019
727.512
757.158
788.972
822.966
859.151
897.533
536.046
537.795
541.303
546.588
553.677
562.6
573.397
586.106
600.767
617.423
636.109
656.864
679.717
704.698
731.83
761.134
792.627
826.321
862.225
900.348
545.44
547.107
550.454
555.506
562.297
570.869
581.271
593.555
607.772
623.972
642.204
662.51
684.929
709.494
736.231
765.164
796.31
829.682
865.291
903.141
555.391
556.963
560.124
564.905
571.352
579.521
589.474
601.276
614.993
630.687
648.416
668.232
690.18
714.296
740.613
769.153
799.936
832.974
868.276
905.848
565.623
567.088
570.038
574.517
580.581
588.304
597.762
609.038
622.213
637.363
654.556
673.854
695.307
718.959
744.842
772.982
803.397
836.1
871.097
908.393
575.708
577.058
579.784
583.94
589.599
596.85
605.79
616.519
629.135
643.727
660.376
679.152
700.113
723.304
748.762
776.512
806.572
838.953
873.661
910.696
585.069
586.304
588.806
592.642
597.9
604.687
613.12
623.317
635.393
649.451
665.583
683.868
704.368
727.133
752.199
779.592
809.33
841.421
875.868
912.671
593.014
594.145
596.446
599.994
604.893
611.267
619.251
628.98
640.583
654.177
669.864
687.727
707.834
730.238
754.974
782.07
811.54
843.391
877.625
914.238
598.829
599.88
602.027
605.355
609.98
616.041
623.686
633.063
644.313
657.562
672.918
690.471
710.291
732.431
756.929
783.809
813.086
844.766
878.848
915.326
601.909
602.917
604.981
608.189
612.666
618.557
626.019
635.206
646.267
659.331
674.511
691.899
711.567
733.567
757.939
784.707
813.883
845.474
879.476
915.884
601.909
602.917
604.981
608.189
612.666
618.557
626.019
635.206
646.267
659.331
674.511
691.899
711.567
733.567
757.939
784.707
813.883
845.474
879.476
915.884
598.829
599.88
602.027
605.355
609.98
616.041
623.686
633.063
644.313
657.562
672.918
690.471
710.291
732.431
756.929
783.809
813.086
844.766
878.848
915.326
593.014
594.145
596.446
599.994
604.893
611.267
619.251
628.98
640.583
654.177
669.864
687.727
707.834
730.238
754.974
782.07
811.54
843.391
877.625
914.238
585.069
586.304
588.806
592.642
597.9
604.687
613.12
623.317
635.393
649.451
665.583
683.868
704.368
727.133
752.199
779.592
809.33
841.421
875.868
912.671
575.708
577.058
579.784
583.94
589.599
596.85
605.79
616.519
629.135
643.727
660.376
679.152
700.113
723.304
748.762
776.512
806.572
838.953
873.661
910.696
565.623
567.088
570.038
574.517
580.581
588.304
597.762
609.038
622.213
637.363
654.556
673.854
695.307
718.959
744.842
772.982
803.397
836.1
871.097
908.393
555.391
556.963
560.124
564.905
571.352
579.521
589.474
601.276
614.993
630.687
648.416
668.232
690.18
714.296
740.613
769.153
799.936
832.974
868.276
905.848
545.44
547.107
550.454
555.506
562.297
570.869
581.271
593.555
607.772
623.972
642.204
662.51
684.929
709.494
736.231
765.164
796.31
829.682
865.291
903.141
536.046
537.795
541.303
546.588
553.677
562.6
573.397
586.106
600.767
617.423
636.109
656.864
679.717
704.698
731.83
761.134
792.627
826.321
862.225
900.348
527.366
529.184
532.827
538.308
545.648
554.871
566.004
579.079
594.126
611.179
630.267
651.419
674.662
700.019
727.512
757.158
788.972
822.966
859.151
897.533
)
;
    }
    coldSide
    {
        type            mixed;
        refValue        uniform 300;
        refGradient     uniform 0;
        valueFraction   uniform 0.991591;
        source          uniform 0;
        value           nonuniform List<scalar> 
400
(
300.028
300.028
300.028
300.029
300.029
300.03
300.03
300.031
300.032
300.033
300.034
300.035
300.036
300.037
300.039
300.04
300.042
300.043
300.045
300.046
300.028
300.029
300.029
300.029
300.029
300.03
300.03
300.031
300.032
300.033
300.034
300.035
300.036
300.037
300.039
300.04
300.042
300.043