/*--------------------------------*- C++ -*----------------------------------*\
| =========                 |                                                 |
| \\      /  F ield         | OpenFOAM: The Open Source CFD Toolbox           |
|  \\    /   O peration     | Version:  2212                                  |
|   \\  /    A nd           | Website:  www.openfoam.com                      |
|    \\/     M anipulation  |                                                 |
\*---------------------------------------------------------------------------*/
FoamFile
{
    version     2.0;
    format      ascii;
    arch        "LSB;label=32;scalar=64";
    class       volScalarField;
    location    "./ITHACAoutput/true/10";
    object      error;
}
// * * * * * * * * * * * * * * * * * * * * * * * * * * * * * * * * * * * * * //

dimensions      [0 0 0 1 0 0 0];

internalField   nonuniform List<scalar> 
3200
(
2.67695
2.56373
2.40309
2.47634
2.55699
2.8055
3.0167
3.26923
3.41106
3.56978
3.50022
3.48105
3.15567
3.0123
2.74771
2.6329
2.48705
2.46744
2.54473
2.63793
2.28672
2.12248
2.16438
2.13335
2.17613
2.40738
2.60969
2.8621
2.94195
3.07531
3.02615
2.92415
2.77285
2.6229
2.48117
2.14401
2.1041
2.09668
2.18442
2.31968
1.95459
1.84445
1.71849
1.76789
1.90286
2.00954
2.11128
2.38974
2.48839
2.57261
2.59317
2.48025
2.35571
2.21362
2.04363
1.89028
1.80456
1.80102
1.85081
1.96131
1.50117
1.50694
1.48331
1.41998
1.52954
1.68539
1.86934
1.94808
1.99441
2.07695
2.08019
2.02282
1.9237
1.80089
1.73795
1.48201
1.55724
1.48647
1.61173
1.68
1.23049
1.07746
1.11136
1.18635
1.1935
1.26978
1.42448
1.45459
1.59285
1.63911
1.61641
1.59428
1.53337
1.41854
1.29834
1.21574
1.20102
1.12946
1.15592
1.24761
0.853005
0.791885
0.777105
0.79467
0.770741
0.87605
1.00729
1.07042
1.08534
1.11749
1.19871
1.13845
1.05456
0.948366
0.946106
0.852259
0.844605
0.851555
0.855747
0.888839
0.51514
0.455654
0.479534
0.50193
0.519082
0.574067
0.574963
0.670426
0.686619
0.690934
0.694462
0.736238
0.596803
0.570784
0.637155
0.522903
0.473727
0.49094
0.530843
0.512844
0.158456
0.192094
0.182282
0.195356
0.106533
0.192712
0.216083
0.249117
0.195189
0.236795
0.258025
0.202126
0.201547
0.214238
0.271433
0.189215
0.135089
0.131315
0.153335
0.161431
1.87263
1.71666
1.60164
1.63502
1.6268
1.865
2.1733
2.32781
2.47235
2.58236
2.54979
2.46706
2.29173
2.12827
1.84257
1.66668
1.5167
1.56549
1.66166
1.84618
1.60815
1.4447
1.39163
1.3994
1.47561
1.60703
1.86182
2.03275
2.18729
2.28309
2.25717
2.17638
1.98325
1.82107
1.60601
1.44256
1.4042
1.46916
1.50024
1.64049
1.46234
1.33781
1.20864
1.15897
1.3016
1.35579
1.57326
1.69314
1.88228
1.88631
1.98246
1.86713
1.749
1.62737
1.47436
1.33365
1.25883
1.26316
1.33966
1.42933
1.17887
1.12903
1.05482
1.04899
1.12418
1.1319
1.24331
1.43441
1.54814
1.61855
1.57324
1.59162
1.41188
1.25165
1.15409
1.04582
1.03194
1.05436
1.09548
1.24532
0.950515
0.920756
0.803779
0.78673
0.880505
0.871263
1.01446
1.1451
1.20315
1.21558
1.18003
1.25126
1.11304
1.07728
0.889675
0.83777
0.798938
0.812936
0.858593
0.978962
0.657693
0.630909
0.613312
0.57748
0.608551
0.636802
0.699657
0.834502
0.865111
0.917544
0.920607
0.971057
0.786722
0.757748
0.618779
0.617016
0.603495
0.556742
0.604566
0.706514
0.428284
0.318052
0.288408
0.301564
0.421298
0.388934
0.4313
0.407891
0.538644
0.533971
0.543563
0.531023
0.479089
0.509147
0.403384
0.27501
0.333283
0.393836
0.513595
0.439674
0.0833559
0.0752008
0.0968302
0.239692
0.121416
0.11708
0.171721
0.189019
0.13408
0.161055
0.138467
0.22845
0.189979
0.168282
0.115816
0.1183
0.179595
0.0276915
0.0979934
0.193021
0.946257
0.732365
0.549762
0.506282
0.621376
0.758426
0.925792
1.06536
1.20195
1.32595
1.29019
1.18476
1.07322
0.890488
0.696531
0.517048
0.520773
0.532041
0.707696
0.855992
0.795702
0.683117
0.63287
0.511368
0.579508
0.641284
0.835258
1.03613
1.08877
1.18152
1.14637
1.21276
1.02913
0.824116
0.647992
0.534556
0.512589
0.495172
0.677486
0.845163
0.783066
0.630608
0.495581
0.486428
0.50582
0.609795
0.746998
0.88339
0.997008
1.0428
1.0446
0.923061
0.958203
0.803375
0.697839
0.502185
0.479065
0.556426
0.628822
0.765208
0.647271
0.482878
0.392298
0.377733
0.462409
0.464921
0.608658
0.735054
0.802951
0.930055
0.915062
0.947588
0.768899
0.730899
0.481408
0.44851
0.46746
0.495684
0.560821
0.652378
0.507579
0.446699
0.34231
0.366653
0.340142
0.450652
0.462155
0.534229
0.690575
0.761743
0.697961
0.695562
0.653605
0.522222
0.47848
0.400367
0.337217
0.380528
0.455875
0.57187
0.347024
0.30356
0.265217
0.224863
0.254485
0.20883
0.34274
0.39239
0.536272
0.461754
0.465111
0.454072
0.515517
0.406422
0.328733
0.263654
0.219025
0.254239
0.308823
0.392821
0.222277
0.163756
0.206518
0.0923298
0.118171
0.194534
0.226979
0.211703
0.32138
0.266937
0.340388
0.31111
0.239633
0.220276
0.252552
0.180224
0.125068
0.157453
0.247207
0.264742
0.113149
0.10082
0.0164529
0.0518805
0.0553374
0.0868741
0.134902
0.0799625
0.07579
0.108706
0.0692622
0.126046
0.0941687
-0.0297637
0.0618337
0.0438137
0.0790885
0.0534529
0.069544
0.0655223
0.0344288
-0.256754
-0.471422
-0.589115
-0.571195
-0.470698
-0.261362
-0.123797
0.00417973
0.0355002
0.0117371
0.0492563
-0.155357
-0.387097
-0.472312
-0.553826
-0.541008
-0.481609
-0.353059
-0.140422
0.0676017
-0.162041
-0.3055
-0.341605
-0.397278
-0.335071
-0.237036
-0.0750936
0.0770807
0.146013
0.222241
0.066444
-0.0285421
-0.17863
-0.335531
-0.404795
-0.463934
-0.384367
-0.212217
0.0784094
0.0597191
-0.118644
-0.255978
-0.319156
-0.310156
-0.131766
-0.119534
-0.0157511
0.0567965
0.171473
0.0684937
0.115373
0.0150423
-0.0371622
-0.179386
-0.360445
-0.215813
-0.226383
-0.13739
0.0551756
0.110828
0.0276528
-0.175996
-0.166228
-0.21146
-0.201743
-0.0833881
0.0147528
0.111402
0.146446
0.0994493
0.0973413
0.0251111
-0.057658
-0.178808
-0.174036
-0.218526
-0.167587
-0.0176011
0.124531
0.0668051
0.000362593
-0.130512
-0.130475
-0.112781
-0.164407
-0.021057
0.0700511
0.123082
0.101762
0.0526891
0.136359
0.0954231
0.0359749
-0.113086
-0.110711
-0.18616
-0.16189
-0.0316349
0.0518412
0.07484
-0.033996
-0.0961722
-0.146493
-0.114131
-0.0562734
-0.0185713
0.0180135
0.000522949
0.0589492
0.141209
0.074713
0.00718169
-0.0040216
0.0394873
-0.0863597
-0.0108956
-0.00374909
0.0132619
0.0468746
0.0517264
-0.00606757
0.0216268
-0.0129055
-0.0595034
-0.0202179
0.0591285
0.0306945
-0.0771283
0.0267659
0.0349615
0.0731711
-0.0262764
0.00203224
-0.0376897
-0.0441247
-0.0287074
-0.0210686
0.00549246
0.0692492
0.0296587
-0.0199617
0.0433296
0.0074001
0.0306311
-0.0105857
0.0111035
0.0164823
0.00317674
-0.00880477
0.049454
0.0455458
-0.00641156
0.0375558
-0.0436393
0.0387859
0.015325
-0.0217852
-0.070836
1.60353e-06
-0.824811
-1.0876
-1.36582
-1.51919
-1.64832
-1.53496
-1.50679
-1.2738
-1.21975
-1.19999
-1.2186
-1.20326
-1.3496
-1.4939
-1.63181
-1.58888
-1.55468
-1.47831
-1.30896
-0.949756
-0.680456
-0.927385
-1.13283
-1.34359
-1.35139
-1.30557
-1.21619
-1.03598
-0.99315
-0.880721
-0.819686
-0.902796
-1.06673
-1.23112
-1.30915
-1.31353
-1.3222
-1.16261
-1.01354
-0.728993
-0.531259
-0.801696
-0.949293
-1.01661
-1.06062
-1.07302
-0.958677
-0.881164
-0.811438
-0.702613
-0.777835
-0.838942
-0.941985
-0.934452
-0.955154
-1.07915
-1.00977
-0.971868
-0.726677
-0.590897
-0.395475
-0.638997
-0.747764
-0.836914
-0.885641
-0.748944
-0.815782
-0.651632
-0.61402
-0.574947
-0.60533
-0.631576
-0.717774
-0.736386
-0.828445
-0.901027
-0.775844
-0.714017
-0.541548
-0.36417
-0.30097
-0.432042
-0.623942
-0.591149
-0.594672
-0.592038
-0.544934
-0.474263
-0.436871
-0.419785
-0.376814
-0.466876
-0.529907
-0.54843
-0.614031
-0.555475
-0.594412
-0.573716
-0.387205
-0.331524
-0.18517
-0.316021
-0.490733
-0.391993
-0.407682
-0.428856
-0.354416
-0.343315
-0.307205
-0.185957
-0.314595
-0.259928
-0.321467
-0.3207
-0.507182
-0.384315
-0.422946
-0.302863
-0.327633
-0.174122
-0.195264
-0.242597
-0.174471
-0.274194
-0.334188
-0.26255
-0.15857
-0.182621
-0.164531
-0.117683
-0.155319
-0.169519
-0.157997
-0.255843
-0.25904
-0.188144
-0.216355
-0.216641
-0.111375
-0.0615451
-0.0649711
-0.102386
-0.0260633
-0.120319
-0.0807746
-0.0720699
-0.0659937
-0.0951667
-0.0879712
-0.0436786
-0.089496
-0.0925137
-0.159255
-0.0402085
-0.070555
-0.0940194
-0.0391222
-0.0364739
-0.0651992
0.00142812
-1.5471
-1.96799
-2.20225
-2.409
-2.50052
-2.51682
-2.47549
-2.44729
-2.21243
-2.26334
-2.28615
-2.34148
-2.41665
-2.49666
-2.58445
-2.62382
-2.47273
-2.362
-2.0168
-1.66798
-1.31965
-1.57067
-1.83218
-2.02599
-2.13596
-2.02329
-2.07605
-1.97809
-1.89945
-1.85345
-1.92788
-1.88982
-2.02469
-2.02329
-2.10604
-2.12084
-2.05112
-1.88909
-1.67862
-1.36881
-1.03592
-1.26967
-1.43209
-1.67577
-1.72387
-1.75868
-1.70173
-1.69085
-1.50394
-1.595
-1.55851
-1.56901
-1.61081
-1.65346
-1.74306
-1.73472
-1.69183
-1.50318
-1.27212
-1.04063
-0.823999
-1.02926
-1.13506
-1.29011
-1.47629
-1.37442
-1.32375
-1.29784
-1.25768
-1.20806
-1.22597
-1.21188
-1.27962
-1.34622
-1.29628
-1.37439
-1.34378
-1.22685
-1.01164
-0.854427
-0.652239
-0.773391
-0.927841
-0.96672
-1.06472
-0.991129
-1.00415
-0.952366
-0.894028
-0.955313
-0.94292
-0.940351
-0.927629
-0.981463
-1.08314
-1.07568
-0.898708
-0.88466
-0.775941
-0.62251
-0.458585
-0.593779
-0.635095
-0.663532
-0.743698
-0.727431
-0.775842
-0.653571
-0.665929
-0.674994
-0.590889
-0.649933
-0.622942
-0.749906
-0.667316
-0.721997
-0.697967
-0.639017
-0.499228
-0.425732
-0.251489
-0.31615
-0.39079
-0.367647
-0.403029
-0.431075
-0.472247
-0.377297
-0.39359
-0.364678
-0.358561
-0.395947
-0.430455
-0.40098
-0.449012
-0.432574
-0.450539
-0.354795
-0.268717
-0.269904
-0.0893079
-0.0956059
-0.103278
-0.149464
-0.138229
-0.151556
-0.13918
-0.119636
-0.155304
-0.191527
-0.0875392
-0.168903
-0.127665
-0.151352
-0.177269
-0.14238
-0.125128
-0.0959018
-0.0939958
-0.0477056
-2.02957
-2.45131
-2.74485
-3.14762
-3.1925
-3.26473
-3.35445
-3.28771
-3.24829
-3.24773
-3.30717
-3.25086
-3.35569
-3.33378
-3.39592
-3.32993
-3.20151
-2.95685
-2.65058
-2.23522
-1.76152
-2.08514
-2.31803
-2.64271
-2.76599
-2.81081
-2.85103
-2.73563
-2.72807
-2.78341
-2.74139
-2.73656
-2.87721
-2.82311
-2.81359
-2.82223
-2.66371
-2.41571
-2.10364
-1.84933
-1.36327
-1.73444
-1.93617
-2.15498
-2.23889
-2.22812
-2.35149
-2.31252
-2.25645
-2.26422
-2.27587
-2.2773
-2.39479
-2.3545
-2.35669
-2.29818
-2.21565
-2.07058
-1.78682
-1.50992
-1.12362
-1.35614
-1.58579
-1.68181
-1.84392
-1.89859
-1.86558
-1.82661
-1.84901
-1.77822
-1.82032
-1.8055
-1.78015
-1.94884
-1.93839
-1.90145
-1.68103
-1.5385
-1.38853
-1.25346
-0.905836
-1.02665
-1.22336
-1.36352
-1.40908
-1.37368
-1.42695
-1.44678
-1.41417
-1.39106
-1.36875
-1.39306
-1.36677
-1.46159
-1.35963
-1.37873
-1.3023
-1.18792
-1.00817
-0.827272
-0.622967
-0.748204
-0.816974
-0.946901
-0.964013
-0.982997
-1.07622
-0.982428
-0.979535
-0.974519
-0.929538
-0.99176
-0.974399
-0.982052
-0.96095
-0.977229
-0.965479
-0.832873
-0.702655
-0.63453
-0.376778
-0.347374
-0.501519
-0.532813
-0.624921
-0.613214
-0.59634
-0.594143
-0.603333
-0.558956
-0.575475
-0.613811
-0.611775
-0.569524
-0.62292
-0.59923
-0.502395
-0.488865
-0.397265
-0.397696
-0.10373
-0.179601
-0.14527
-0.146166
-0.141185
-0.22907
-0.237189
-0.202907
-0.163781
-0.183976
-0.159901
-0.0764412
-0.0965848
-0.199417
-0.193539
-0.200005
-0.163332
-0.127215
-0.179692
-0.136535
-2.48797
-2.93879
-3.36845
-3.66412
-3.92575
-3.95783
-4.0355
-4.04011
-4.09457
-4.01293
-4.0651
-4.08043
-4.09125
-4.10621
-4.07051
-4.04592
-3.75411
-3.49298
-3.09386
-2.6767
-2.10284
-2.4677
-2.78802
-2.9948
-3.27033
-3.34815
-3.4075
-3.37085
-3.43345
-3.46006
-3.42776
-3.43298
-3.47309
-3.48944
-3.45907
-3.31688
-3.18238
-2.9059
-2.57391
-2.19869
-1.70104
-1.97718
-2.28703
-2.57967
-2.74723
-2.77357
-2.80061
-2.83651
-2.86519
-2.84288
-2.85608
-2.8677
-2.83335
-2.95009
-2.78594
-2.72868
-2.65215
-2.3601
-2.06298
-1.74813
-1.37751
-1.61634
-1.91802
-2.07677
-2.19656
-2.22617
-2.3115
-2.29465
-2.28077
-2.29562
-2.29825
-2.31657
-2.29022
-2.29489
-2.29844
-2.21285
-2.17644
-1.85295
-1.7019
-1.42636
-1.04952
-1.1837
-1.44194
-1.63773
-1.68838
-1.66335
-1.7198
-1.76034
-1.75794
-1.80168
-1.75622
-1.68284
-1.75054
-1.80878
-1.71276
-1.7194
-1.5413
-1.43381
-1.26819
-1.07497
-0.763836
-0.88019
-0.981302
-1.07161
-1.18438
-1.22252
-1.2648
-1.30276
-1.2533
-1.1821
-1.21763
-1.27991
-1.19653
-1.25542
-1.23589
-1.17944
-1.09544
-1.04086
-0.881366
-0.712816
-0.430224
-0.549098
-0.583707
-0.641664
-0.73464
-0.732855
-0.750829
-0.759606
-0.74433
-0.686521
-0.740931
-0.687664
-0.746471
-0.706162
-0.816087
-0.772593
-0.658639
-0.631057
-0.549421
-0.442249
-0.15362
-0.125138
-0.210355
-0.235273
-0.225065
-0.218378
-0.181588
-0.212227
-0.252171
-0.223309
-0.247802
-0.19531
-0.264849
-0.267658
-0.252713
-0.260286
-0.254222
-0.203889
-0.19506
-0.129516
-2.68281
-3.14017
-3.61423
-4.04506
-4.30009
-4.50635
-4.63388
-4.63189
-4.64653
-4.65697
-4.65451
-4.68517
-4.66105
-4.64385
-4.61034
-4.5064
-4.20672
-3.75196
-3.36674
-2.86875
-2.22102
-2.63987
-3.00666
-3.3775
-3.71027
-3.76391
-3.91748
-3.98995
-3.92079
-3.94469
-3.92488
-4.022
-3.98116
-3.93875
-3.92555
-3.66315
-3.49006
-3.22101
-2.81597
-2.46097
-1.92914
-2.19835
-2.48426
-2.8652
-3.0427
-3.12256
-3.22568
-3.30034
-3.36507
-3.244
-3.29469
-3.30425
-3.33246
-3.22495
-3.24318
-3.06593
-2.80715
-2.60027
-2.30252
-1.92362
-1.43352
-1.77931
-2.02784
-2.24111
-2.43867
-2.53575
-2.6017
-2.5824
-2.58244
-2.65159
-2.63345
-2.66857
-2.58873
-2.57
-2.58314
-2.48359
-2.35632
-2.08978
-1.82311
-1.50648
-1.12405
-1.32817
-1.55533
-1.72694
-1.86002
-2.02944
-2.03947
-1.96521
-2.07443
-1.98895
-2.03448
-2.02214
-2.03696
-2.02267
-1.94945
-1.90295
-1.76311
-1.57951
-1.38714
-1.1448
-0.884106
-0.983707
-1.15201
-1.28772
-1.37197
-1.41954
-1.34921
-1.45306
-1.43308
-1.41408
-1.42046
-1.45497
-1.439
-1.40387
-1.38676
-1.34944
-1.22407
-1.14273
-0.931861
-0.843703
-0.507256
-0.511112
-0.568704
-0.701868
-0.752747
-0.78751
-0.821744
-0.828154
-0.793177
-0.821035
-0.873614
-0.886101
-0.831802
-0.892392
-0.914279
-0.810028
-0.695319
-0.618213
-0.558536
-0.436759
-0.169358
-0.174134
-0.245113
-0.2237
-0.301409
-0.245379
-0.273577
-0.340695
-0.286277
-0.30152
-0.25664
-0.233743
-0.258548
-0.305188
-0.276014
-0.229602
-0.270315
-0.208217
-0.181864
-0.167977
-2.63252
-3.24262
-3.74967
-4.1804
-4.59941
-4.82114
-4.92876
-5.01396
-5.07286
-5.15125
-5.0665
-5.12039
-5.11571
-4.96956
-4.91714
-4.70935
-4.3768
-3.96641
-3.48017
-2.89268
-2.24697
-2.69808
-3.07587
-3.65249
-3.82913
-4.1295
-4.20894
-4.25715
-4.34321
-4.39358
-4.37761
-4.41325
-4.32115
-4.257
-4.16037
-3.99762
-3.687
-3.32527
-2.8869
-2.40357
-1.89111
-2.24419
-2.61931
-2.98895
-3.25441
-3.43097
-3.49481
-3.5446
-3.61749
-3.63325
-3.59599
-3.5882
-3.62113
-3.52078
-3.43236
-3.22552
-3.04468
-2.7259
-2.35759
-1.89514
-1.54338
-1.80681
-2.071
-2.44305
-2.55675
-2.77605
-2.79101
-2.86132
-2.86666
-2.88943
-2.91505
-2.84562
-2.86589
-2.84347
-2.78137
-2.60287
-2.40469
-2.07264
-1.87412
-1.59958
-1.16765
-1.34536
-1.60926
-1.79404
-2.00305
-2.00545
-2.13919
-2.16
-2.2624
-2.23627
-2.25384
-2.23839
-2.23355
-2.0952
-2.11554
-1.99176
-1.82427
-1.56274
-1.34793
-1.19163
-0.823171
-0.941816
-1.14689
-1.32896
-1.37853
-1.51783
-1.58242
-1.61701
-1.63623
-1.5907
-1.64284
-1.61826
-1.59272
-1.55525
-1.52649
-1.38389
-1.2885
-1.20048
-1.06339
-0.809424
-0.442178
-0.545137
-0.710637
-0.801556
-0.830834
-0.887216
-0.940887
-0.944416
-0.991775
-0.961591
-0.94832
-0.917368
-0.92513
-0.975866
-0.914534
-0.894958
-0.777441
-0.68445
-0.59574
-0.508227
-0.158069
-0.168897
-0.293219
-0.315227
-0.29433
-0.290845
-0.193217
-0.291183
-0.302079
-0.333993
-0.38043
-0.305397
-0.309817
-0.295915
-0.373563
-0.263786
-0.301242
-0.276608
-0.166388
-0.171027
-2.47259
-3.07534
-3.69813
-4.13875
-4.5863
-4.90466
-5.14493
-5.25832
-5.29864
-5.38052
-5.34788
-5.38591
-5.35614
-5.15883
-4.99836
-4.75478
-4.41656
-3.88208
-3.33269
-2.71055
-2.07582
-2.57608
-3.14745
-3.55382
-3.87981
-4.13165
-4.33378
-4.47208
-4.42228
-4.50476
-4.59
-4.57638
-4.51702
-4.34671
-4.23632
-4.01154
-3.67006
-3.25472
-2.7675
-2.2546
-1.71165
-2.12421
-2.55593
-2.97656
-3.21576
-3.42604
-3.59639
-3.68064
-3.74085
-3.77136
-3.77025
-3.82188
-3.67527
-3.61949
-3.46848
-3.33919
-3.0537
-2.67327
-2.16031
-1.84794
-1.40852
-1.70335
-1.99849
-2.30585
-2.56146
-2.76996
-2.83769
-3.03376
-2.95266
-3.03065
-3.02736
-3.01051
-2.97209
-2.87948
-2.75794
-2.62751
-2.34692
-2.15485
-1.76818
-1.52477
-1.03965
-1.28117
-1.54287
-1.79259
-1.99651
-2.20514
-2.23847
-2.19745
-2.2803
-2.27453
-2.34635
-2.30317
-2.29028
-2.24061
-2.12202
-2.02126
-1.84998
-1.56385
-1.31065
-1.12412
-0.736173
-0.918051
-1.1583
-1.26058
-1.38467
-1.5194
-1.61656
-1.58445
-1.67877
-1.67936
-1.70988
-1.67085
-1.58586
-1.62414
-1.53756
-1.46927
-1.19143
-1.09905
-0.901535
-0.744796
-0.437957
-0.569733
-0.687537
-0.77667
-0.908015
-0.89891
-0.936536
-0.925874
-0.969775
-0.969446
-1.05279
-1.00403
-0.998585
-0.913814
-0.899333
-0.86182
-0.724129
-0.656091
-0.615154
-0.481439
-0.140866
-0.134832
-0.253828
-0.250916
-0.243394
-0.196879
-0.298151
-0.251338
-0.376447
-0.327895
-0.373051
-0.303248
-0.356666
-0.244456
-0.221218
-0.267235
-0.284827
-0.22622
-0.190528
-0.110958
-2.06622
-2.71914
-3.39512
-3.92641
-4.4471
-4.7964
-4.98201
-5.22961
-5.30254
-5.42811
-5.36897
-5.32453
-5.25657
-5.11027
-4.93982
-4.63258
-4.12873
-3.68592
-3.0197
-2.38201
-1.74112
-2.24024
-2.80325
-3.37172
-3.65901
-3.99884
-4.23791
-4.33029
-4.53905
-4.53603
-4.52298
-4.51038
-4.44534
-4.38435
-4.13852
-3.83671
-3.51999
-3.01173
-2.4378
-1.95481
-1.46881
-1.78543
-2.35457
-2.82659
-3.12469
-3.33483
-3.57982
-3.64966
-3.74263
-3.81519
-3.82756
-3.71932
-3.70078
-3.57119
-3.40324
-3.18079
-2.8571
-2.45346
-1.99021
-1.61884
-1.22639
-1.54347
-1.81685
-2.22682
-2.51018
-2.7424
-2.89119
-2.96187
-2.99134
-3.0799
-3.09622
-2.9705
-2.98605
-2.93763
-2.75055
-2.48792
-2.24743
-1.96243
-1.52658
-1.27466
-0.855526
-1.08324
-1.41543
-1.65045
-1.85497
-1.99355
-2.21414
-2.24617
-2.29581
-2.3683
-2.35571
-2.41219
-2.22996
-2.22332
-2.13182
-1.96227
-1.71568
-1.50962
-1.11339
-0.828227
-0.614603
-0.845605
-1.05656
-1.14638
-1.32522
-1.4911
-1.58892
-1.65074
-1.6652
-1.71316
-1.66614
-1.62779
-1.65204
-1.53418
-1.45917
-1.35279
-1.22138
-0.991154
-0.785447
-0.646034
-0.337732
-0.477453
-0.606272
-0.692612
-0.747881
-0.837054
-0.804016
-0.91818
-0.944303
-0.955523
-0.956997
-1.014
-0.960359
-0.932297
-0.897633
-0.809046
-0.75527
-0.607455
-0.429493
-0.34892
-0.10635
-0.126981
-0.157015
-0.17556
-0.222522
-0.353217
-0.321663
-0.286629
-0.311411
-0.351283
-0.378046
-0.3115
-0.399095
-0.263978
-0.245213
-0.252981
-0.259948
-0.17353
-0.139013
-0.104583
-1.45369
-2.15442
-2.80272
-3.51871
-4.06074
-4.42828
-4.67354
-4.93812
-5.12105
-5.1692
-5.18454
-5.17529
-5.01161
-4.81956
-4.59915
-4.24128
-3.72402
-3.01784
-2.45968
-1.80438
-1.27426
-1.8016
-2.44181
-2.91626
-3.41024
-3.74017
-3.99573
-4.1959
-4.21398
-4.37788
-4.36637
-4.36818
-4.31238
-4.11626
-3.89063
-3.48009
-3.1006
-2.63811
-2.03521
-1.44372
-0.968174
-1.46222
-1.92994
-2.39896
-2.7663
-3.06258
-3.36358
-3.41735
-3.55097
-3.68863
-3.66481
-3.58588
-3.40796
-3.40774
-3.18829
-2.9228
-2.5299
-2.09948
-1.54932
-1.16818
-0.796443
-1.17541
-1.54849
-1.92891
-2.23406
-2.49456
-2.67572
-2.74183
-2.85478
-2.95493
-2.88024
-2.88959
-2.74352
-2.65047
-2.55192
-2.28239
-2.02661
-1.6346
-1.25806
-0.907341
-0.625187
-0.901937
-1.16836
-1.43728
-1.75382
-1.9242
-2.04588
-2.13981
-2.22031
-2.20442
-2.18133
-2.18761
-2.15295
-2.06762
-1.97967
-1.75435
-1.55472
-1.30726
-0.896632
-0.617481
-0.482044
-0.70994
-0.820658
-1.10903
-1.17707
-1.32194
-1.423
-1.48602
-1.59071
-1.61198
-1.58069
-1.5243
-1.51742
-1.43888
-1.33535
-1.2603
-1.04768
-0.808395
-0.689369
-0.425768
-0.313418
-0.453865
-0.503666
-0.625872
-0.734248
-0.866247
-0.772442
-0.918413
-0.955198
-1.00261
-0.910931
-0.947861
-0.979982
-0.824298
-0.82502
-0.72283
-0.557385
-0.524166
-0.379832
-0.226697
-0.116677
-0.096443
-0.189909
-0.25442
-0.305357
-0.342749
-0.293174
-0.342647
-0.274636
-0.282711
-0.388493
-0.284114
-0.2817
-0.292125
-0.283874
-0.214963
-0.342865
-0.156154
-0.175464
-0.0757422
-0.771414
-1.44249
-2.18217
-2.8084
-3.39744
-3.86284
-4.22808
-4.47122
-4.58916
-4.76811
-4.69814
-4.68087
-4.49077
-4.3112
-4.04257
-3.63177
-3.12153
-2.49591
-1.71207
-0.978129
-0.51242
-1.1292
-1.84466
-2.43346
-2.82306
-3.28034
-3.52906
-3.7547
-3.85449
-4.00231
-4.01156
-3.91542
-3.818
-3.63129
-3.34138
-3.04435
-2.49188
-1.9865
-1.3612
-0.735179
-0.41456
-0.916806
-1.47581
-1.90107
-2.371
-2.64573
-2.95653
-3.08184
-3.26238
-3.28351
-3.28049
-3.23984
-3.14112
-2.90918
-2.75733
-2.44135
-2.09085
-1.55842
-1.0654
-0.581886
-0.293104
-0.718527
-1.13595
-1.46026
-1.86138
-2.12628
-2.34634
-2.47778
-2.60801
-2.66069
-2.61847
-2.58331
-2.51873
-2.38784
-2.18952
-1.9226
-1.62716
-1.19946
-0.827729
-0.434598
-0.251308
-0.495295
-0.846236
-1.19672
-1.41136
-1.65078
-1.78538
-1.92432
-1.93425
-2.04904
-1.9902
-1.98462
-1.94268
-1.78427
-1.73485
-1.4708
-1.21653
-0.989103
-0.577278
-0.224105
-0.109806
-0.321191
-0.555771
-0.736865
-0.98929
-1.1891
-1.20436
-1.27372
-1.44109
-1.51197
-1.37069
-1.35253
-1.39192
-1.28884
-1.21062
-0.992209
-0.840149
-0.602935
-0.418689
-0.136581
-0.0269962
-0.173972
-0.298542
-0.443225
-0.585145
-0.644031
-0.77221
-0.802146
-0.865501
-0.834147
-0.843849
-0.894123
-0.79229
-0.799144
-0.75693
-0.55515
-0.500281
-0.347622
-0.26649
-0.129134
-0.00416101
-0.0584314
-0.149859
-0.143375
-0.211895
-0.198061
-0.221447
-0.293475
-0.266405
-0.230888
-0.27944
-0.266688
-0.216603
-0.208163
-0.267827
-0.156123
-0.132194
-0.187134
-0.0559593
-0.0589549
0.267354
-0.431632
-1.21838
-1.97427
-2.55655
-3.07678
-3.43506
-3.68692
-3.89491
-3.99468
-4.04696
-3.97075
-3.79172
-3.63733
-3.19249
-2.70992
-2.2035
-1.5243
-0.738829
-0.0358628
0.36084
-0.265602
-0.968683
-1.56337
-2.09561
-2.50784
-2.82967
-3.08746
-3.30734
-3.40882
-3.42127
-3.28672
-3.16887
-2.9579
-2.64279
-2.28659
-1.82101
-1.15708
-0.500265
0.123413
0.389267
-0.222962
-0.781842
-1.19807
-1.74956
-2.05409
-2.31799
-2.53022
-2.69881
-2.76986
-2.77466
-2.67089
-2.59792
-2.39311
-2.17293
-1.79073
-1.38016
-0.899484
-0.315748
0.170079
0.32371
-0.176682
-0.565324
-0.972074
-1.37078
-1.64164
-1.87103
-1.99669
-2.11631
-2.22083
-2.19368
-2.18813
-2.09342
-1.96157
-1.70714
-1.38285
-1.07364
-0.639652
-0.166463
0.237565
0.287946
-0.00568766
-0.461197
-0.719137
-0.990759
-1.31555
-1.39114
-1.52556
-1.69118
-1.65195
-1.67058
-1.55078
-1.54947
-1.45883
-1.19152
-1.03822
-0.799156
-0.442438
-0.170969
0.249454
0.233401
0.0383316
-0.227347
-0.487987
-0.739332
-0.81609
-0.961254
-1.1117
-1.13802
-1.14034
-1.13755
-1.19311
-1.06869
-1.04222
-0.848227
-0.760522
-0.628221
-0.314945
-0.0516359
0.167969
0.0718341
0.032144
-0.207471
-0.213538
-0.408791
-0.510868
-0.569973
-0.660879
-0.736195
-0.73212
-0.646181
-0.714114
-0.642009
-0.625304
-0.413774
-0.436604
-0.314999
-0.175329
-0.00751264
0.138458
0.0165579
-0.00268547
-0.0897336
-0.11695
-0.0561534
-0.189991
-0.194614
-0.238537
-0.214777
-0.214625
-0.247727
-0.195292
-0.258685
-0.197033
-0.0911647
-0.146349
-0.0915282
-0.0535641
0.0223026
0.0378559
1.59176
0.78104
-0.0684569
-0.877375
-1.43035
-2.04972
-2.47422
-2.76996
-3.00114
-3.11509
-3.13112
-3.04149
-2.95071
-2.5649
-2.24258
-1.74955
-1.06993
-0.320052
0.438167
1.19492
1.48178
0.78374
0.0486307
-0.622599
-1.21126
-1.64876
-1.98761
-2.23414
-2.46231
-2.57663
-2.60163
-2.45944
-2.39407
-2.09644
-1.72357
-1.3097
-0.866898
-0.159159
0.546905
1.16971
1.24498
0.782273
0.125504
-0.425612
-0.945982
-1.27299
-1.59218
-1.88053
-1.98092
-2.07491
-2.04033
-1.97522
-1.96726
-1.65384
-1.35949
-1.07486
-0.59915
-0.0512174
0.581312
1.09286
1.06637
0.662987
0.115439
-0.26941
-0.648281
-0.935409
-1.21568
-1.50043
-1.60633
-1.657
-1.67036
-1.57851
-1.55576
-1.35307
-1.09295
-0.738407
-0.364245
0.0297095
0.498842
0.919022
0.830586
0.573773
0.100811
-0.222607
-0.491546
-0.784015
-0.947532
-1.06991
-1.1582
-1.19865
-1.26658
-1.18912
-1.11552
-1.00747
-0.820095
-0.598085
-0.284421
0.0827477
0.454075
0.76815
0.702144
0.415926
0.158632
-0.11298
-0.409536
-0.52554
-0.593049
-0.830327
-0.824528
-0.807605
-0.907067
-0.79581
-0.713958
-0.658359
-0.567851
-0.421214
-0.156957
-0.00173381
0.396047
0.554958
0.367518
0.198456
0.0674035
-0.127023
-0.196212
-0.362681
-0.367987
-0.439379
-0.468373
-0.594309
-0.489735
-0.447131
-0.473023
-0.352801
-0.292985
-0.229815
-0.0664871
0.059446
0.207169
0.319171
0.111131
0.0982076
0.0433751
-0.0156267
-0.0899551
-0.101191
-0.104003
-0.133376
-0.162314
-0.163338
-0.173719
-0.153324
-0.118857
-0.10042
-0.0999189
-0.0513757
0.0103694
-0.0474009
0.0313605
0.180132
3.02393
2.23149
1.32026
0.538069
-0.213773
-0.758622
-1.23127
-1.54528
-1.7744
-1.89687
-1.98667
-1.858
-1.72736
-1.37613
-0.923384
-0.462718
0.194033
0.941547
1.86717
2.62165
2.67872
2.02081
1.17577
0.523259
-0.0981047
-0.513524
-0.89536
-1.27579
-1.37648
-1.58394
-1.54414
-1.55648
-1.28002
-1.13766
-0.68863
-0.175198
0.281194
1.06237
1.71927
2.36279
2.34556
1.7512
1.09843
0.560251
0.0622826
-0.405578
-0.723653
-0.928778
-1.10386
-1.14795
-1.23265
-1.13169
-1.00726
-0.767396
-0.493807
-0.122928
0.382648
0.968066
1.62343
2.13106
1.94723
1.48501
0.995515
0.529726
0.091647
-0.258159
-0.486666
-0.722179
-0.884484
-0.951639
-0.930522
-0.869327
-0.74934
-0.602471
-0.279194
-0.0175905
0.409288
0.854076
1.30045
1.82582
1.58371
1.16058
0.814801
0.441489
0.0766014
-0.176467
-0.332524
-0.586814
-0.628928
-0.634733
-0.634222
-0.679782
-0.661199
-0.429391
-0.221291
0.0677734
0.332056
0.717029
1.14992
1.45643
1.12011
0.882132
0.535556
0.255213
0.0828405
-0.087804
-0.227329
-0.358177
-0.429746
-0.425201
-0.492402
-0.456954
-0.384739
-0.247782
-0.124663
0.0584074
0.21766
0.490867
0.808228
1.05882
0.670661
0.543096
0.381033
0.210748
0.0754123
-0.050869
-0.105334
-0.153197
-0.26101
-0.259102
-0.311318
-0.322296
-0.191716
-0.174372
-0.0300712
0.0334878
0.167207
0.307683
0.513688
0.658945
0.208046
0.188986
0.0904392
0.0241999
-0.0412791
0.0239631
-0.0302536
-0.0630797
-0.0357665
-0.10115
-0.13888
-0.0653005
-0.00365103
0.00632607
-0.0768581
0.0397333
0.0468045
0.135859
0.151438
0.218145
4.58494
3.72626
2.80057
1.97687
1.2274
0.640268
0.115779
-0.190946
-0.484481
-0.611152
-0.572567
-0.555322
-0.355344
0.0394293
0.479264
0.946896
1.67859
2.48782
3.40758
4.16261
4.08357
3.36023
2.53234
1.85072
1.1824
0.587699
0.197799
-0.0769952
-0.227904
-0.349029
-0.47021
-0.26382
-0.206551
0.168005
0.526018
0.955946
1.5294
2.29628
3.0258
3.69127
3.40241
2.90191
2.24095
1.66397
1.15315
0.647061
0.316251
0.0242244
-0.135928
-0.196656
-0.221294
-0.148777
-0.00359481
0.189798
0.592492
0.951175
1.42322
2.0209
2.65279
3.25946
2.93682
2.47962
1.83636
1.33673
0.932024
0.590463
0.242035
0.140675
-0.0871829
-0.0834384
-0.21475
-0.0493687
0.0437825
0.297293
0.499814
0.832018
1.27797
1.756
2.25949
2.75095
2.26734
1.8764
1.54295
1.13551
0.758877
0.559417
0.308744
0.14403
-0.0406062
-0.0517012
-0.0946531
-0.0430323
0.0442277
0.199038
0.431751
0.699275
1.06158
1.40845
1.82609
2.12188
1.64286
1.33333
1.07577
0.806222
0.547361
0.394267
0.249656
0.0832077
0.0114136
-0.00622364
-0.0747696
-0.049569
0.0191507
0.265609
0.310241
0.518823
0.789325
1.0389
1.29593
1.53784
0.899091
0.881626
0.693291
0.413175
0.373626
0.26775
0.0859562
0.00194928
0.0549979
0.0223946
-0.0486995
-0.00731117
0.0438483
0.116558
0.300145
0.352329
0.505389
0.645355
0.889315
0.974715
0.345123
0.242537
0.298923
0.18163
0.0514647
0.0767067
0.0365845
0.0342094
0.00889173
0.0656965
-0.0221974
-0.0227572
-0.00979358
0.00260634
0.0776017
0.124066
0.234833
0.215409
0.257858
0.297924
6.26882
5.30585
4.35824
3.55648
2.70875
2.07487
1.60975
1.28592
0.894353
0.825466
0.802077
0.904043
1.09605
1.4571
1.88361
2.45465
3.18125
3.98281
4.98052
5.82621
5.47993
4.73044
3.87995
3.12309
2.46
1.95042
1.4554
1.18242
0.98107
0.858737
0.805498
0.817935
1.04237
1.37734
1.7582
2.2286
2.90175
3.64272
4.42631
5.11928
4.72428
4.0259
3.30864
2.67376
2.15543
1.6405
1.3235
1.0186
0.793455
0.77216
0.709495
0.948425
0.948977
1.26955
1.57389
2.01942
2.56838
3.15844
3.79609
4.39163
3.7747
3.34476
2.76547
2.24777
1.80994
1.43974
1.02359
0.887238
0.768024
0.689292
0.733496
0.76541
0.799168
1.10261
1.32378
1.73793
2.09914
2.65446
3.20708
3.67814
2.98899
2.56732
2.19675
1.76711
1.43519
1.11144
0.949237
0.738868
0.657336
0.587997
0.57522
0.589088
0.675354
0.809258
1.15354
1.35547
1.70227
2.09498
2.49203
2.90743
2.09747
1.80821
1.53391
1.27669
1.03606
0.852299
0.604149
0.542308
0.428373
0.419419
0.385331
0.488979
0.487125
0.58676
0.86077
0.950757
1.1844
1.55592
1.77666
2.05541
1.23552
1.13316
0.954637
0.842473
0.62021
0.436827
0.396016
0.36197
0.29534
0.211413
0.270739
0.296375
0.297954
0.332116
0.533061
0.624419
0.792885
0.922301
1.05393
1.19946
0.450825
0.388766
0.341544
0.307943
0.232097
0.204042
0.0714133
0.0712767
0.129285
0.117078
0.074963
0.0590935
0.160239
0.0867581
0.0811345
0.175828
0.180396
0.333048
0.390822
0.384396
7.47932
6.64145
5.66742
4.81862
3.95879
3.34809
2.7784
2.44403
2.14701
1.99042
1.96891
2.07088
2.29365
2.5857
3.06377
3.74644
4.43694
5.27862
6.28576
7.10626
6.53511
5.71852
4.91787
4.10311
3.46619
2.98197
2.38763
2.12058
1.94575
1.76465
1.78297
1.82334
2.05953
2.371
2.77918
3.27424
3.88242
4.69809
5.45957
6.12097
5.52368
4.86125
4.15184
3.55007
2.91136
2.4776
2.1261
1.85442
1.63723
1.5115
1.5388
1.65243
1.77999
2.02643
2.33769
2.81283
3.30743
3.99579
4.66538
5.24619
4.42875
3.98963
3.40748
2.88398
2.43088
2.09254
1.77811
1.53811
1.39323
1.27131
1.20565
1.25703
1.43469
1.65776
1.95226
2.36695
2.80232
3.28949
3.92572
4.31252
3.54506
3.08884
2.65538
2.19521
1.90868
1.62196
1.33548
1.19095
1.07869
1.03549
1.0422
1.09179
1.17551
1.31164
1.54622
1.88726
2.14384
2.62115
3.02431
3.40929
2.50103
2.26401
1.89603
1.69241
1.35747
1.10722
0.979869
0.874848
0.781906
0.672817
0.730529
0.741877
0.833222
0.932691
1.0702
1.30287
1.56391
1.8463
2.18198
2.4282
1.5147
1.34744
1.19468
1.0522
0.798062
0.747386
0.612567
0.537827
0.432086
0.498326
0.401281
0.444875
0.5036
0.512536
0.72729
0.811549
0.960633
1.12977
1.26569
1.44962
0.516557
0.444088
0.403379
0.284958
0.299176
0.278853
0.192043
0.238608
0.158442
0.11558
0.116456
0.15246
0.183222
0.128778
0.203796