/*--------------------------------*- C++ -*----------------------------------*\
| =========                 |                                                 |
| \\      /  F ield         | OpenFOAM: The Open Source CFD Toolbox           |
|  \\    /   O peration     | Version:  2212                                  |
|   \\  /    A nd           | Website:  www.openfoam.com                      |
|    \\/     M anipulation  |                                                 |
\*---------------------------------------------------------------------------*/
FoamFile
{
    version     2.0;
    format      ascii;
    arch        "LSB;label=32;scalar=64";
    class       volScalarField;
    location    "./ITHACAoutput/true/12";
    object      error;
}
// * * * * * * * * * * * * * * * * * * * * * * * * * * * * * * * * * * * * * //

dimensions      [0 0 0 1 0 0 0];

internalField   nonuniform List<scalar> 
3200
(
-1.35505
-0.547741
0.207759
0.673325
1.05829
1.13225
1.3279
1.32808
1.26502
1.26448
1.19855
1.17413
1.15316
1.16991
1.14611
1.07302
0.922012
0.496136
-0.151863
-0.823129
-1.30723
-0.596477
0.0812742
0.521347
0.780767
0.935841
0.998692
1.06653
1.06856
0.981789
0.918585
0.858365
0.843659
0.931591
0.862681
0.817187
0.68954
0.36006
-0.183246
-0.823314
-1.08117
-0.485936
0.0342408
0.481262
0.61689
0.806212
0.785049
0.855778
0.808179
0.725624
0.740307
0.743391
0.700245
0.664189
0.66934
0.659535
0.511087
0.196053
-0.256448
-0.760208
-0.9607
-0.436885
0.0902379
0.307234
0.482334
0.599785
0.643986
0.673062
0.633164
0.586047
0.609749
0.560094
0.521383
0.51113
0.474311
0.505757
0.392514
0.0997534
-0.252823
-0.623925
-0.744551
-0.345406
0.0225973
0.214952
0.371391
0.456767
0.468254
0.447378
0.586934
0.45578
0.415703
0.455643
0.374176
0.398108
0.423803
0.384604
0.20102
0.0777342
-0.210662
-0.554419
-0.553508
-0.237815
0.0274461
0.179423
0.235737
0.279498
0.337512
0.349019
0.261507
0.292207
0.31872
0.22802
0.272788
0.166225
0.251911
0.244011
0.185445
0.00693793
-0.159356
-0.333263
-0.2787
-0.213213
-0.022774
0.104457
0.221137
0.210512
0.215633
0.171198
0.173614
0.16298
0.16771
0.149874
0.186108
0.226793
0.148187
0.0805151
0.0527517
0.0135286
-0.0762148
-0.192471
-0.0945189
0.0136134
-0.00896503
0.00133876
0.0522372
0.150788
0.0485115
0.103585
0.039162
0.0655744
0.116329
0.00482822
0.0300951
0.00496581
0.0759756
0.0675946
0.00407616
0.0188861
-0.0265508
-0.12591
-1.46642
-0.622941
0.0811672
0.540576
0.850798
1.07829
1.07408
1.01267
1.07448
0.9302
0.890581
0.951334
0.873706
0.949962
0.964496
0.994597
0.775202
0.419584
-0.213249
-0.907105
-1.25098
-0.631907
0.120809
0.514586
0.658071
0.830258
0.829589
0.861125
0.875265
0.751307
0.675986
0.688256
0.670235
0.748062
0.726666
0.744457
0.636317
0.231645
-0.24424
-0.825612
-1.09992
-0.525828
-0.00600892
0.311917
0.586688
0.623844
0.743025
0.748768
0.66745
0.53975
0.55711
0.600384
0.501103
0.539784
0.603212
0.573355
0.465915
0.172787
-0.336531
-0.803718
-0.984768
-0.480415
-0.040497
0.191406
0.396195
0.568254
0.576787
0.574224
0.431346
0.459781
0.405945
0.46133
0.37224
0.378505
0.469078
0.429849
0.292871
0.213657
-0.254814
-0.660715
-0.721416
-0.388156
-0.0344673
0.104412
0.322495
0.40207
0.510271
0.336054
0.349184
0.265195
0.350022
0.307962
0.303048
0.291157
0.282675
0.278131
0.107456
0.0202832
-0.251742
-0.610949
-0.497371
-0.295588
-0.0384679
0.113364
0.258504
0.203819
0.326413
0.218896
0.329434
0.237458
0.178511
0.249268
0.236622
0.194984
0.212944
0.245263
0.0929761
0.0540733
-0.169497
-0.392518
-0.245141
-0.204099
-0.071408
0.105004
0.148304
0.122135
0.172458
0.0719295
0.210927
0.111882
0.0635954
0.0982954
0.110539
0.0917694
0.0929466
0.111042
0.101725
-0.00239927
-0.128887
-0.289483
-0.121754
0.0170413
0.0653418
0.0257166
0.0964289
0.0313843
0.0740059
0.068958
0.0139822
0.0627806
0.0492787
0.0428413
-0.00640573
0.0360715
0.0367348
-0.00155447
0.0253827
-0.025917
-0.0621669
-0.0718243
-1.55144
-0.622863
0.0686436
0.467403
0.755923
0.822593
0.88818
0.72365
0.729329
0.630827
0.531217
0.464995
0.57545
0.644127
0.609772
0.764062
0.575905
0.254982
-0.251864
-0.903288
-1.3377
-0.673827
-0.0227075
0.440672
0.598956
0.684765
0.705371
0.624513
0.544447
0.366045
0.434006
0.303945
0.411572
0.465065
0.495045
0.51691
0.468258
0.171208
-0.345237
-0.912374
-1.18632
-0.613296
-0.0767696
0.301085
0.471938
0.467907
0.511142
0.454049
0.399875
0.244169
0.239719
0.273495
0.300088
0.263702
0.336805
0.400463
0.309015
0.0798277
-0.399456
-0.76553
-0.960773
-0.545692
-0.121135
0.133739
0.350276
0.377359
0.447638
0.358416
0.299583
0.281464
0.236209
0.219055
0.139165
0.268976
0.231249
0.200659
0.136392
-0.0325594
-0.299769
-0.623791
-0.7056
-0.431024
-0.0260594
0.121126
0.255185
0.324017
0.251787
0.239622
0.187261
0.0957502
0.0915337
0.100542
0.160344
0.132324
0.203628
0.175246
0.166961
-0.0679844
-0.190807
-0.620631
-0.581035
-0.353242
-0.0693879
0.0728773
0.147741
0.184389
0.17482
0.109468
0.10099
0.135456
0.0398192
0.0479284
0.110161
0.0934221
0.0926538
0.0817548
-0.00161277
-0.0568831
-0.198137
-0.429174
-0.337709
-0.157231
-0.0674949
0.0525989
0.0257587
0.0980264
0.114258
0.0909356
0.0591587
0.0376428
0.0288265
-0.0139196
0.0486506
0.0558186
0.147601
0.0572982
0.0329846
0.00753278
-0.1622
-0.329268
-0.0817361
-0.0786646
-0.0258505
-0.0266101
0.0646206
0.032101
0.00207835
0.0280746
0.00805027
-0.0332954
0.0278937
-0.0306949
-0.0352679
0.0280405
-0.00385984
-0.0350078
0.00813821
0.00868371
0.024639
-0.0413734
-1.59314
-0.833615
-0.240553
0.293213
0.495943
0.539871
0.505913
0.367585
0.305565
0.125658
0.0569231
0.0297955
0.0513463
0.267091
0.315977
0.384428
0.355266
0.137194
-0.460892
-1.06231
-1.39569
-0.825073
-0.222541
0.113449
0.346032
0.400715
0.424557
0.280405
0.158632
0.00550431
-0.00968403
-0.0172082
0.0101734
0.10132
0.171392
0.285845
0.239515
0.089151
-0.529636
-1.03443
-1.16956
-0.687547
-0.216275
0.128602
0.24199
0.298443
0.325748
0.241104
0.112345
-0.0396253
-0.124672
-0.103649
-0.080897
0.0381879
0.168954
0.140112
0.161215
-0.0267157
-0.493822
-0.898649
-0.998419
-0.599705
-0.143746
0.136464
0.253949
0.190487
0.199593
0.107384
0.031356
0.0386379
-0.130648
-0.116099
-0.0625818
-0.00762308
0.0548375
0.0944435
0.124777
-0.125663
-0.379523
-0.733177
-0.783107
-0.506304
-0.17596
0.0710753
0.142624
0.172782
0.103887
0.0543786
-0.0112081
0.0216496
-0.08499
-0.142891
-0.0778573
-0.015739
0.0812537
0.0438256
0.0613939
-0.0922299
-0.343066
-0.618815
-0.594523
-0.399675
-0.116711
0.0473024
0.128763
0.109594
0.103319
0.0807096
0.0398896
-0.0581766
-0.0944872
-0.0466298
-0.031079
-0.00496266
-0.0012161
0.0472139
0.00587323
-0.12808
-0.248616
-0.370409
-0.412473
-0.229018
-0.0254883
-0.0166337
0.0504798
0.102411
0.0625206
-0.0227091
-0.003398
0.00108239
-0.0642872
-0.105517
-0.0114343
0.0358387
-0.0059011
0.00490105
-0.042266
-0.030086
-0.137869
-0.294212
-0.111939
-0.116548
-0.0427849
-0.026139
0.0699741
0.0164294
0.010771
0.0529347
-0.0363905
-0.0530549
0.0144294
0.0312594
-0.023594
-0.0120954
-0.0241611
0.0408229
-0.0254606
0.0249164
-0.0472788
-0.131631
-1.78567
-1.09335
-0.401331
0.0236754
0.259009
0.252993
0.0942662
-0.022997
-0.217612
-0.407956
-0.391183
-0.488254
-0.371068
-0.242786
-0.0340083
0.117263
0.0687
-0.170317
-0.574212
-1.19688
-1.65337
-0.991408
-0.399441
-0.100512
0.186622
0.145862
0.0557384
-0.119776
-0.265026
-0.381138
-0.42535
-0.473574
-0.370672
-0.31717
-0.168644
0.0542192
-0.118945
-0.301933
-0.626229
-1.09474
-1.43308
-0.863432
-0.405182
-0.107572
0.0579251
0.16789
0.0429424
-0.0950761
-0.259858
-0.393837
-0.505873
-0.398227
-0.488969
-0.187242
-0.113683
0.0106879
-0.0818939
-0.24242
-0.627801
-1.00577
-1.15438
-0.753994
-0.37417
-0.0841949
-0.0111285
0.0313458
0.0066725
-0.0809733
-0.267878
-0.315605
-0.428122
-0.408571
-0.347429
-0.225445
-0.187127
-0.0989264
-0.148384
-0.277789
-0.533983
-0.886639
-0.877333
-0.595956
-0.372421
-0.0953399
-0.00536174
0.0467836
-0.121736
-0.118559
-0.194491
-0.239859
-0.313105
-0.293809
-0.305063
-0.230381
-0.0764124
-0.120528
-0.112978
-0.224841
-0.461256
-0.713177
-0.636205
-0.456389
-0.20116
-0.122976
0.0301086
0.0132625
-0.10213
-0.0839541
-0.220393
-0.275414
-0.249249
-0.268014
-0.244415
-0.189
-0.0803894
-0.0592666
-0.170415
-0.219556
-0.301243
-0.443304
-0.355361
-0.308414
-0.14073
-0.0735584
-0.043531
-0.0209853
-0.0103933
0.0789907
-0.0727257
-0.12461
-0.290525
-0.141285
-0.152137
-0.109406
-0.0894691
-0.0986707
-0.149435
-0.0273524
-0.259014
-0.234952
-0.0938409
-0.0292998
-0.0452346
-0.0357563
-0.041347
-0.0251232
0.00783049
-0.089587
-0.0304788
-0.0634133
-0.00796983
0.010225
-0.0279483
-0.169262
-0.0095636
-0.0185612
0.00370703
0.0134671
-0.0849226
-0.127711
-1.98387
-1.27075
-0.712382
-0.286872
-0.105468
-0.152117
-0.231245
-0.448171
-0.726067
-0.857108
-0.90667
-0.958668
-0.839368
-0.652569
-0.433207
-0.27923
-0.214406
-0.404871
-0.928164
-1.38075
-1.7182
-1.19172
-0.627834
-0.326837
-0.192198
-0.15227
-0.281745
-0.409246
-0.716124
-0.936546
-0.966428
-0.988601
-0.798534
-0.59887
-0.442624
-0.277212
-0.267354
-0.451206
-0.87598
-1.32809
-1.4963
-1.00716
-0.566493
-0.282861
-0.201904
-0.110308
-0.293272
-0.411217
-0.626535
-0.797541
-0.866599
-0.820612
-0.767043
-0.58439
-0.443692
-0.30333
-0.25819
-0.48769
-0.763305
-1.10646
-1.22426
-0.954255
-0.588526
-0.271957
-0.185114
-0.162236
-0.20042
-0.411914
-0.486803
-0.692609
-0.657633
-0.67126
-0.611132
-0.504833
-0.33417
-0.348811
-0.266267
-0.411623
-0.706844
-0.987587
-1.0117
-0.688189
-0.396444
-0.299422
-0.122533
-0.187264
-0.184412
-0.347659
-0.373329
-0.598184
-0.603421
-0.650536
-0.503292
-0.412385
-0.253646
-0.271435
-0.303965
-0.372705
-0.53667
-0.746698
-0.761628
-0.509345
-0.323401
-0.2773
-0.139767
-0.146227
-0.138073
-0.215834
-0.290973
-0.405081
-0.395051
-0.494298
-0.394376
-0.321876
-0.225188
-0.230521
-0.183708
-0.246427
-0.409673
-0.527619
-0.367972
-0.235197
-0.20994
-0.12454
-0.0412811
-0.0861797
-0.0832465
-0.126551
-0.200245
-0.216485
-0.289858
-0.250219
-0.138419
-0.14634
-0.171658
-0.0954511
-0.142817
-0.23603
-0.202216
-0.366307
-0.166513
-0.141381
-0.0613983
-0.0287359
-0.0462687
-0.128003
-0.00466771
-0.056579
-0.0408132
-0.0590339
-0.0552782
-0.0933014
-0.0757446
-0.0329183
-0.0116586
-0.0454322
0.00409468
-0.000459752
-0.104642
-0.0847087
-2.14935
-1.5021
-0.863769
-0.524479
-0.442845
-0.464248
-0.603823
-0.872856
-1.17954
-1.40581
-1.56476
-1.49739
-1.42712
-1.02243
-0.839186
-0.605456
-0.589961
-0.640691
-0.986582
-1.54354
-1.91261
-1.39197
-0.9336
-0.552611
-0.553591
-0.459601
-0.579382
-0.863818
-1.05471
-1.23146
-1.38563
-1.38557
-1.22588
-1.03067
-0.7937
-0.599214
-0.520987
-0.69292
-1.04628
-1.47268
-1.64443
-1.23615
-0.842548
-0.475796
-0.496921
-0.385424
-0.513393
-0.706387
-0.962295
-1.05674
-1.31332
-1.26586
-1.06516
-0.896427
-0.636124
-0.591271
-0.570864
-0.618566
-0.871192
-1.30553
-1.37519
-1.05231
-0.6854
-0.388671
-0.312892
-0.4079
-0.439387
-0.604208
-0.849347
-0.956201
-0.994466
-0.980344
-1.00802
-0.754722
-0.598981
-0.450065
-0.509905
-0.517401
-0.821555
-1.06563
-1.05334
-0.805573
-0.532893
-0.304152
-0.305923
-0.289597
-0.42407
-0.533923
-0.60209
-0.776665
-0.876699
-0.801571
-0.740198
-0.671599
-0.542748
-0.356933
-0.444525
-0.530892
-0.60986
-0.798555
-0.750837
-0.569015
-0.332394
-0.289804
-0.247844
-0.205838
-0.314603
-0.397518
-0.486679
-0.553484
-0.529586
-0.514232
-0.513714
-0.429667
-0.377978
-0.301007
-0.324202
-0.393273
-0.519765
-0.678642
-0.40741
-0.395778
-0.263747
-0.118711
-0.117838
-0.183652
-0.19951
-0.259869
-0.284289
-0.252333
-0.388861
-0.390353
-0.356417
-0.340048
-0.163601
-0.228125
-0.279732
-0.241605
-0.280675
-0.3696
-0.13252
-0.112616
-0.119813
-0.0787005
-0.0257683
-0.0927124
-0.0328697
-0.0604884
-0.126909
-0.126124
-0.0950208
-0.141073
-0.0682582
-0.089724
-0.0489805
-0.136378
-0.0607079
-0.0291187
-0.135506
-0.129928
-2.44963
-1.80444
-1.18256
-0.867929
-0.751211
-0.76478
-0.89053
-1.26404
-1.57512
-1.83132
-1.93464
-1.96961
-1.81893
-1.43703
-1.15956
-0.845986
-0.757004
-1.01496
-1.29354
-1.75169
-2.09971
-1.60332
-1.061
-0.803469
-0.790024
-0.744543
-0.920452
-1.07205
-1.40703
-1.69676
-1.68345
-1.71314
-1.56655
-1.27482
-1.04671
-0.848033
-0.796357
-0.940913
-1.17599
-1.6826
-1.82888
-1.32999
-0.999653
-0.755202
-0.709189
-0.658921
-0.830371
-1.0019
-1.2249
-1.42356
-1.51767
-1.54401
-1.40269
-1.20302
-0.93591
-0.777141
-0.768582
-0.814293
-1.15116
-1.40977
-1.57271
-1.15938
-0.842276
-0.614057
-0.551117
-0.56004
-0.710931
-0.836121
-1.05221
-1.20542
-1.32102
-1.23629
-1.24818
-1.01048
-0.762575
-0.71672
-0.628156
-0.704563
-0.942995
-1.16207
-1.16036
-0.908561
-0.69407
-0.469516
-0.48038
-0.470542
-0.583522
-0.726626
-0.829385
-0.90273
-1.0935
-1.01254
-0.969244
-0.758533
-0.605242
-0.568323
-0.579759
-0.518102
-0.793922
-0.935022
-0.893218
-0.699271
-0.483295
-0.383743
-0.347126
-0.471824
-0.43542
-0.515471
-0.582813
-0.729665
-0.740526
-0.744379
-0.648203
-0.592158
-0.510932
-0.458151
-0.327236
-0.468413
-0.565391
-0.693562
-0.576508
-0.448107
-0.355981
-0.225383
-0.131492
-0.222714
-0.25832
-0.228687
-0.392524
-0.477937
-0.382873
-0.422596
-0.485919
-0.392575
-0.367743
-0.213756
-0.259937
-0.214319
-0.328574
-0.474668
-0.203855
-0.192244
-0.236326
-0.0768569
0.00725856
-0.0429626
-0.0928848
-0.00303095
-0.0600204
-0.0929085
-0.1095
-0.0460112
-0.0859219
-0.091689
-0.0933593
-0.0642797
-0.136381
-0.0870646
-0.0724618
-0.120985
-2.58232
-1.96081
-1.48608
-1.16018
-0.946762
-1.07346
-1.33079
-1.61478
-1.8317
-2.19845
-2.27333
-2.30247
-2.0968
-1.77784
-1.44588
-1.12905
-1.01424
-1.10762
-1.47972
-1.9481
-2.23726
-1.77013
-1.36266
-1.12738
-0.955878
-0.968941
-1.09628
-1.39865
-1.69364
-1.94597
-1.99047
-2.05639
-1.91769
-1.5955
-1.32718
-1.17986
-1.00635
-1.09037
-1.3762
-1.73539
-1.97781
-1.613
-1.22369
-0.968128
-0.905923
-0.948639
-1.00972
-1.27974
-1.51036
-1.68657
-1.83954
-1.71374
-1.63896
-1.3806
-1.18632
-0.954031
-0.927437
-0.992138
-1.26828
-1.53481
-1.62548
-1.27198
-1.01115
-0.805634
-0.620555
-0.781569
-0.862022
-1.01514
-1.27402
-1.43023
-1.57161
-1.48815
-1.41599
-1.2716
-0.980218
-0.876684
-0.775201
-0.876669
-1.1062
-1.35859
-1.28257
-1.00438
-0.762121
-0.611248
-0.51713
-0.615507
-0.630976
-0.855941
-0.98706
-1.11592
-1.18749
-1.10195
-1.07476
-0.954497
-0.814662
-0.59545
-0.658278
-0.71122
-0.811232
-0.996891
-0.88595
-0.744963
-0.54944
-0.417544
-0.441744
-0.420822
-0.514649
-0.574023
-0.655454
-0.841856
-0.916926
-0.898094
-0.838769
-0.680102
-0.672401
-0.513339
-0.515938
-0.435311
-0.586665
-0.759167
-0.486447
-0.420391
-0.334002
-0.267589
-0.209278
-0.236176
-0.313156
-0.3243
-0.501792
-0.456523
-0.568127
-0.55811
-0.515684
-0.395134
-0.365655
-0.337878
-0.245309
-0.352393
-0.392764
-0.431284
-0.276561
-0.177841
-0.103308
-0.0494357
-0.121275
-0.0874435
-0.0870264
-0.15879
-0.105649
-0.135247
-0.125572
-0.22153
-0.131361
-0.155006
-0.0864768
-0.0782726
-0.015468
-0.0276121
-0.135212
-0.179609
-2.7029
-2.16922
-1.64125
-1.3531
-1.23403
-1.32398
-1.41185
-1.83889
-2.11981
-2.40095
-2.551
-2.54874
-2.33532
-1.96792
-1.6964
-1.27668
-1.2324
-1.33029
-1.60333
-2.02227
-2.39031
-1.94839
-1.53247
-1.21711
-1.11778
-1.27792
-1.34933
-1.61144
-1.90514
-2.16214
-2.30571
-2.21064
-2.1166
-1.82927
-1.5202
-1.25414
-1.22386
-1.17574
-1.47091
-1.77705
-2.0312
-1.65457
-1.24991
-1.06585
-1.03966
-1.0946
-1.17606
-1.40855
-1.74449
-1.89898
-2.0273
-1.94614
-1.73057
-1.60495
-1.34234
-1.13953
-1.11139
-1.06489
-1.34547
-1.65466
-1.75404
-1.41646
-1.13339
-0.909479
-0.800968
-0.956393
-0.959262
-1.17489
-1.34815
-1.49739
-1.61979
-1.59628
-1.5119
-1.27507
-1.10818
-0.979505
-0.87536
-0.960878
-1.06429
-1.33238
-1.34123
-1.14808
-0.8734
-0.766493
-0.685004
-0.656685
-0.765543
-0.84471
-1.07956
-1.21888
-1.23159
-1.26958
-1.17406
-1.06955
-0.905319
-0.757945
-0.65853
-0.827692
-0.879498
-1.12465
-1.0163
-0.766034
-0.648813
-0.441607
-0.529465
-0.448847
-0.610924
-0.6731
-0.818573
-1.00301
-0.952399
-0.967436
-0.888701
-0.771326
-0.672958
-0.515032
-0.52953
-0.590461
-0.665264
-0.782231
-0.569563
-0.542359
-0.335703
-0.288557
-0.294479
-0.348663
-0.361592
-0.46809
-0.444158
-0.511433
-0.573069
-0.579361
-0.471834
-0.544206
-0.340344
-0.39419
-0.295631
-0.324678
-0.399674
-0.467266
-0.188985
-0.150603
-0.11608
-0.101612
-0.123092
-0.170358
-0.0459583
-0.164463
-0.214537
-0.174427
-0.19662
-0.178174
-0.132742
-0.17342
-0.126941
-0.106426
-0.103674
-0.110118
-0.132835
-0.189705
-2.74891
-2.26218
-1.82213
-1.46099
-1.37325
-1.4261
-1.78255
-1.94666
-2.26042
-2.47799
-2.62644
-2.68571
-2.47088
-2.05327
-1.6561
-1.47828
-1.36729
-1.49259
-1.70779
-2.0918
-2.4768
-2.04031
-1.61201
-1.35617
-1.30291
-1.37635
-1.55344
-1.75842
-2.02202
-2.21981
-2.49682
-2.35179
-2.1167
-1.8259
-1.51687
-1.30583
-1.25626
-1.30465
-1.57783
-1.89104
-2.14134
-1.68541
-1.41882
-1.20297
-1.03679
-1.12382
-1.31703
-1.53064
-1.7027
-2.01652
-2.05659
-2.00087
-1.91015
-1.6262
-1.45226
-1.24846
-1.11621
-1.20749
-1.44863
-1.64998
-1.7307
-1.44698
-1.16702
-0.972288
-0.872953
-1.04576
-1.06949
-1.29935
-1.45713
-1.64047
-1.74385
-1.71877
-1.5451
-1.39337
-1.21884
-1.04927
-0.975115
-0.970083
-1.13767
-1.42877
-1.3712
-1.18453
-0.902733
-0.750525
-0.75362
-0.810097
-0.932192
-0.952975
-1.17179
-1.29956
-1.3641
-1.39215
-1.22123
-1.14315
-0.933846
-0.843175
-0.843317
-0.806301
-0.956911
-1.07811
-1.00428
-0.87884
-0.68552
-0.635313
-0.664095
-0.578873
-0.738729
-0.709465
-0.839867
-0.916627
-0.889365
-1.00031
-0.89193
-0.777777
-0.765505
-0.661829
-0.544387
-0.58102
-0.598599
-0.876333
-0.646397
-0.495911
-0.434493
-0.399777
-0.387893
-0.404081
-0.441525
-0.483408
-0.472107
-0.63568
-0.610414
-0.501105
-0.576229
-0.410571
-0.352775
-0.426988
-0.330363
-0.396859
-0.449496
-0.531527
-0.18513
-0.121259
-0.150573
-0.0801812
-0.127322
-0.113472
-0.0972321
-0.216432
-0.0730387
-0.152287
-0.170222
-0.199435
-0.18987
-0.171085
-0.159819
-0.0776499
-0.0969345
-0.110932
-0.0973382
-0.177592
-2.85051
-2.24888
-1.82723
-1.64155
-1.4114
-1.54515
-1.78606
-1.98937
-2.28881
-2.50428
-2.69824
-2.63288
-2.44642
-2.12789
-1.80777
-1.41661
-1.36302
-1.46636
-1.64709
-2.02341
-2.49539
-2.16574
-1.72928
-1.48471
-1.40011
-1.34361
-1.54389
-1.747
-2.03087
-2.2465
-2.42982
-2.27371
-2.22413
-1.81073
-1.69132
-1.36367
-1.28208
-1.34751
-1.56314
-1.85261
-2.09374
-1.77044
-1.51249
-1.25531
-1.16004
-1.24889
-1.45789
-1.53266
-1.80143
-1.98448
-2.04267
-2.05068
-1.74215
-1.67324
-1.30644
-1.26606
-1.12494
-1.20995
-1.39578
-1.61073
-1.8604
-1.54611
-1.29881
-1.07827
-0.982518
-1.03781
-1.10262
-1.26799
-1.48404
-1.66771
-1.68443
-1.68229
-1.56327
-1.42646
-1.2639
-1.01737
-1.01377
-1.01476
-1.13681
-1.30359
-1.39444
-1.20157
-0.906959
-0.851356
-0.84584
-0.830139
-0.875622
-1.02543
-1.15926
-1.29501
-1.35793
-1.23569
-1.26568
-1.10576
-1.05572
-0.87434
-0.817714
-0.813737
-0.878015
-1.13214
-0.974823
-0.853865
-0.74545
-0.636641
-0.57809
-0.592154
-0.688715
-0.788373
-0.828782
-0.935096
-0.96665
-0.972302
-0.912544
-0.848142
-0.676047
-0.582697
-0.574679
-0.549454
-0.694601
-0.782062
-0.618091
-0.469192
-0.448214
-0.322519
-0.354168
-0.322552
-0.415315
-0.453714
-0.490552
-0.48364
-0.555442
-0.558597
-0.525856
-0.444213
-0.432491
-0.330109
-0.381087
-0.414789
-0.442106
-0.547146
-0.290055
-0.121501
-0.150399
-0.174732
-0.117957
-0.117938
-0.157869
-0.184828
-0.148622
-0.138292
-0.253487
-0.143896
-0.158905
-0.211571
-0.0890985
-0.0588427
-0.157942
-0.0471395
-0.0682293
-0.203629
-2.72469
-2.27613
-1.91077
-1.58226
-1.53621
-1.58136
-1.69033
-1.96017
-2.26785
-2.44028
-2.47666
-2.42901
-2.23074
-1.97882
-1.69912
-1.42813
-1.27647
-1.42391
-1.56648
-1.94259
-2.43803
-2.0682
-1.68843
-1.44906
-1.36875
-1.32009
-1.57674
-1.76109
-2.04871
-2.191
-2.20802
-2.18472
-2.10341
-1.79317
-1.50731
-1.26249
-1.19189
-1.31232
-1.52327
-1.74935
-2.05087
-1.75066
-1.46818
-1.33316
-1.18177
-1.26411
-1.38237
-1.57809
-1.74052
-1.86831
-1.94614
-1.922
-1.82755
-1.61782
-1.33838
-1.02935
-1.0392
-1.22348
-1.35356
-1.56711
-1.7336
-1.55429
-1.24661
-1.12062
-1.03083
-1.07834
-1.14236
-1.30237
-1.47954
-1.58688
-1.63425
-1.61313
-1.51965
-1.31999
-1.15785
-1.02841
-0.972075
-1.01526
-1.09083
-1.41149
-1.38848
-1.20457
-0.982295
-0.871688
-0.812554
-0.778956
-0.943636
-1.00016
-1.07086
-1.26325
-1.35588
-1.31421
-1.1132
-1.02828
-0.971074
-0.848528
-0.677381
-0.836521
-0.859389
-1.00857
-0.999255
-0.820771
-0.723346
-0.620011
-0.527775
-0.523904
-0.631542
-0.748217
-0.747423
-0.930176
-0.935337
-0.994842
-0.919078
-0.795425
-0.580524
-0.59915
-0.590255
-0.624227
-0.697694
-0.784468
-0.674503
-0.487659
-0.496631
-0.38859
-0.386711
-0.350799
-0.419193
-0.394473
-0.457299
-0.56714
-0.538059
-0.488058
-0.452429
-0.496782
-0.410316
-0.347794
-0.329755
-0.370771
-0.409659
-0.478818
-0.154288
-0.152774
-0.160153
-0.160486
-0.090034
-0.174538
-0.0798481
-0.212844
-0.228799
-0.163041
-0.195529
-0.269023
-0.208435
-0.145457
-0.15609
-0.176801
-0.114212
-0.0813266
-0.120498
-0.15586
-2.69838
-2.3174
-1.79988
-1.56233
-1.43886
-1.46443
-1.60361
-1.86322
-2.11404
-2.22138
-2.2875
-2.27617
-2.10342
-1.74258
-1.49151
-1.29555
-1.16174
-1.24568
-1.45917
-1.84326
-2.37469
-2.0133
-1.73565
-1.31606
-1.28196
-1.40566
-1.4183
-1.55447
-1.82043
-2.02227
-2.12056
-1.97698
-1.94501
-1.65289
-1.45141
-1.17803
-1.1263
-1.16766
-1.32589
-1.67238
-2.04347
-1.81025
-1.47568
-1.33036
-1.11157
-1.22788
-1.26634
-1.38131
-1.63575
-1.66869
-1.84832
-1.78955
-1.65497
-1.43145
-1.2968
-1.08859
-1.03493
-1.07923
-1.1768
-1.4316
-1.73985
-1.41813
-1.17499
-1.07812
-0.973332
-1.00494
-1.08637
-1.26356
-1.37657
-1.45088
-1.49962
-1.54237
-1.3488
-1.24161
-0.925098
-0.958922
-0.900369
-0.846424
-1.08106
-1.16272
-1.41019
-1.1512
-0.965571
-0.787814
-0.815156
-0.844749
-0.825104
-0.9053
-1.06132
-1.10384
-1.19811
-1.15375
-1.09303
-1.04063
-0.835722
-0.749196
-0.68973
-0.654231
-0.814481
-0.938512
-0.98135
-0.926447
-0.735743
-0.557229
-0.57855
-0.590826
-0.591871
-0.718273
-0.791239
-0.80567
-0.935898
-0.877713
-0.782066
-0.670197
-0.659911
-0.573858
-0.583094
-0.521739
-0.538914
-0.664111
-0.605032
-0.523711
-0.429488
-0.351344
-0.312613
-0.401628
-0.38283
-0.462719
-0.455071
-0.503515
-0.496713
-0.534873
-0.47455
-0.433555
-0.370683
-0.266727
-0.32072
-0.336494
-0.349247
-0.38609
-0.211926
-0.12989
-0.0799413
-0.117842
-0.146133
-0.191727
-0.046066
-0.145038
-0.130333
-0.202895
-0.156398
-0.128005
-0.179057
-0.146003
-0.117565
-0.122441
-0.134066
-0.197965
-0.164745
-0.176738
-2.59017
-2.09985
-1.69393
-1.408
-1.30991
-1.24163
-1.42925
-1.56129
-1.83683
-1.95607
-1.98682
-1.9873
-1.71888
-1.41804
-1.28674
-0.976732
-0.921057
-0.999793
-1.2278
-1.56384
-2.23822
-1.88489
-1.42146
-1.34777
-1.19559
-1.22069
-1.33903
-1.48087
-1.73955
-1.76812
-1.86035
-1.7134
-1.59296
-1.41671
-1.20667
-0.984532
-0.919836
-0.974357
-1.20488
-1.39836
-1.92049
-1.58916
-1.35327
-1.1561
-1.03621
-1.04105
-1.1199
-1.24605
-1.4162
-1.5329
-1.5866
-1.52407
-1.36719
-1.28111
-1.08852
-0.902239
-0.838492
-0.852934
-1.09928
-1.264
-1.61238
-1.42081
-1.11718
-0.981797
-0.928419
-0.972063
-1.01112
-1.06379
-1.18128
-1.29801
-1.36225
-1.22811
-1.18784
-1.08791
-0.886018
-0.768148
-0.717479
-0.798469
-0.949908
-1.0377
-1.32827
-1.06968
-0.898296
-0.740849
-0.741543
-0.709823
-0.755351
-0.881694
-0.939877
-1.00469
-1.00052
-0.998396
-0.934738
-0.823704
-0.74181
-0.608273
-0.617213
-0.594712
-0.699295
-0.897744
-0.935833
-0.824197
-0.696792
-0.528562
-0.475338
-0.503103
-0.576529
-0.616712
-0.722938
-0.711725
-0.754369
-0.794114
-0.716942
-0.617637
-0.565141
-0.481181
-0.491771
-0.443185
-0.528231
-0.677429
-0.593455
-0.4789
-0.402702
-0.320046
-0.24296
-0.374959
-0.401383
-0.380551
-0.418614
-0.47306
-0.428286
-0.439997
-0.429834
-0.373916
-0.285172
-0.356965
-0.261969
-0.285678
-0.317636
-0.466628
-0.200667
-0.219872
-0.186356
-0.0993182
-0.0784392
-0.138802
-0.0927812
-0.144315
-0.0621624
-0.122856
-0.136207
-0.124532
-0.14199
-0.0575968
-0.0758206
-0.0945148
-0.0647872
-0.176751
-0.166059
-0.15078
-2.21903
-1.88175
-1.44251
-1.19919
-1.10375
-1.12323
-1.16566
-1.2601
-1.43349
-1.57321
-1.66508
-1.57091
-1.39625
-1.1696
-0.922846
-0.772151
-0.667552
-0.689599
-0.930081
-1.30002
-2.05734
-1.74923
-1.3547
-1.07522
-1.04037
-0.965425
-1.08081
-1.27155
-1.30644
-1.44645
-1.49306
-1.44477
-1.29269
-1.07108
-0.866734
-0.685496
-0.674942
-0.775248
-0.848506
-1.19671
-1.79397
-1.50263
-1.28866
-0.946159
-0.855436
-0.8516
-0.900859
-1.01703
-1.17817
-1.22095
-1.24506
-1.221
-1.14097
-0.994762
-0.751002
-0.615164
-0.552582
-0.736638
-0.781272
-0.991596
-1.46125
-1.27332
-1.009
-0.859583
-0.769488
-0.723457
-0.846177
-0.855675
-1.02373
-1.08768
-1.01706
-1.14555
-0.963391
-0.820854
-0.685916
-0.669709
-0.547831
-0.662206
-0.740828
-0.948732
-1.1564
-1.07104
-0.863585
-0.694041
-0.647367
-0.567313
-0.595772
-0.721984
-0.794909
-0.838908
-0.895527
-0.83159
-0.76774
-0.666604
-0.548473
-0.481315
-0.449023
-0.490631
-0.579897
-0.703008
-0.834897
-0.718669
-0.624221
-0.508846
-0.451789
-0.416137
-0.440289
-0.511412
-0.658477
-0.618666
-0.616524
-0.55887
-0.588538
-0.444281
-0.432464
-0.319513
-0.36696
-0.316303
-0.497958
-0.51018
-0.467696
-0.405681
-0.403017
-0.320089
-0.28155
-0.2682
-0.340264
-0.314379
-0.37901
-0.329354
-0.411912
-0.333904
-0.400966
-0.304935
-0.344935
-0.203224
-0.307076
-0.209864
-0.27548
-0.33424
-0.17572
-0.0988097
-0.11966
-0.0925029
-0.0717535
-0.101129
-0.129009
-0.106909
-0.0578947
-0.156424
-0.15365
-0.118523
-0.135521
-0.0985594
-0.105771
-0.0645958
-0.0984931
-0.105597
-0.0793012
-0.0669705
-2.04359
-1.60436
-1.28642
-0.933506
-0.740392
-0.77265
-0.911746
-0.942552
-1.08217
-1.14487
-1.10531
-1.01183
-0.868125
-0.729215
-0.472316
-0.373449
-0.296066
-0.347265
-0.567954
-0.902349
-1.84616
-1.39759
-1.13943
-0.970619
-0.786782
-0.757668
-0.753642
-0.91939
-0.926835
-1.02579
-1.10943
-0.991579
-0.991733
-0.746489
-0.487451
-0.417226
-0.371412
-0.481582
-0.605019
-0.991616
-1.66252
-1.29922
-0.982341
-0.8722
-0.679879
-0.655383
-0.686767
-0.86836
-0.857994
-0.917259
-0.92857
-0.937138
-0.769539
-0.705206
-0.540554
-0.460338
-0.340593
-0.469715
-0.615649
-0.778714
-1.34244
-0.975906
-0.813867
-0.666219
-0.686293
-0.627823
-0.604587
-0.746215
-0.762771
-0.837102
-0.773274
-0.764191
-0.739131
-0.55446
-0.452369
-0.433316
-0.341906
-0.337677
-0.504196
-0.680756
-1.11184
-0.846955
-0.699824
-0.60007
-0.529851
-0.481463
-0.484072
-0.537135
-0.667433
-0.647664
-0.620394
-0.589442
-0.558833
-0.547991
-0.39856
-0.303115
-0.291798
-0.279262
-0.43308
-0.588666
-0.824398
-0.651019
-0.574942
-0.421111
-0.396981
-0.385197
-0.444656
-0.400577
-0.430283
-0.484586
-0.492712
-0.463698
-0.449054
-0.348207
-0.330402
-0.23438
-0.194607
-0.242322
-0.335485
-0.415542
-0.461046
-0.405395
-0.355414
-0.271489
-0.209923
-0.256984
-0.254707
-0.261496
-0.327878
-0.236299
-0.219578
-0.316745
-0.275557
-0.260903
-0.227058
-0.0810034
-0.11918
-0.184103
-0.182442
-0.262711
-0.143163
-0.130811
-0.103055
-0.0855601
-0.134049
-0.0945196
-0.0569775
-0.0449552
-0.0762165
-0.0718709
-0.115105
-0.0757944
-0.109523
-0.0626569
-0.0492652
-0.0631974
-0.106987
-0.0973227
-0.0775061
-0.107187
-1.76054
-1.31243
-0.858728
-0.623188
-0.410578
-0.406629
-0.317181
-0.508487
-0.670282
-0.704538
-0.581704
-0.575631
-0.495542
-0.30901
-0.0725844
-0.0077772
0.146926
-0.0354892
-0.275237
-0.535735
-1.66506
-1.20197
-0.888714
-0.622132
-0.473333
-0.423218
-0.489778
-0.554989
-0.574363
-0.687514
-0.693314
-0.613381
-0.453339
-0.312091
-0.0712407
-0.0621033
-0.036409
-0.0504614
-0.362786
-0.476011
-1.352
-1.05956
-0.720223
-0.567978
-0.492129
-0.442869
-0.402836
-0.582964
-0.540093
-0.582935
-0.598128
-0.555416
-0.463229
-0.21797
-0.148907
-0.0892521
-0.101137
-0.163245
-0.420604
-0.596799
-1.12414
-0.842521
-0.750861
-0.554823
-0.486655
-0.468427
-0.422667
-0.409155
-0.546487
-0.570288
-0.496579
-0.517952
-0.405676
-0.41432
-0.242737
-0.137518
-0.096525
-0.161016
-0.299572
-0.493724
-0.924921
-0.702696
-0.538542
-0.444412
-0.33096
-0.32638
-0.330616
-0.327571
-0.432649
-0.432863
-0.408401
-0.408183
-0.364501
-0.3
-0.147835
-0.100528
-0.064662
-0.215859
-0.341034
-0.439847
-0.738616
-0.535727
-0.389293
-0.34206
-0.166497
-0.153272
-0.254339
-0.32423
-0.306441
-0.348767
-0.320228
-0.310191
-0.319016
-0.223791
-0.132599
-0.127854
-0.097645
-0.114733
-0.174445
-0.315652
-0.486875
-0.370399
-0.24565
-0.160923
-0.158116
-0.137157
-0.181306
-0.153789
-0.25244
-0.127459
-0.238098
-0.10747
-0.121426
-0.161698
0.00427457
-0.0976998
-0.0448093
-0.0591799
-0.187762
-0.208811
-0.213157
-0.150607
-0.084298
-0.0546253
-0.0417404
-0.153187
0.00543076
-0.0881153
-0.0690937
-0.0540554
-0.0490563
-0.0751427
-0.128886
-0.0862188
-0.0852971
-0.0756058
0.0317773
-0.0702648
-0.129187
-0.104252
-1.41781
-0.911688
-0.464305
-0.286834
-0.0816439
-0.0527068
-0.0203912
-0.100867
-0.118129
-0.168964
-0.147972
-0.0388797
0.130964
0.208549
0.377125
0.536711
0.530384
0.445237
0.208042
-0.114347
-1.30356
-0.938204
-0.563629
-0.391443
-0.203959
-0.035888
-0.135032
-0.258729
-0.250091
-0.198005
-0.249543
-0.150103
-0.0504807
0.038102
0.178491
0.398805
0.286845
0.268671
0.00903297
-0.278034
-1.10374
-0.859012
-0.552689
-0.350734
-0.255074
-0.124978
-0.129285
-0.176324
-0.292784
-0.300191
-0.237541
-0.215781
-0.142705
-0.0178616
0.108741
0.21851
0.186075
0.0684505
-0.0628368
-0.336127
-0.836268
-0.684844
-0.419793
-0.293292
-0.259004
-0.157392
-0.153775
-0.234242
-0.240815
-0.261156
-0.297785
-0.213743
-0.156028
-0.0463923
0.0671247
0.0986925
0.0611802
0.0386606
-0.0692861
-0.268725
-0.819066
-0.604509
-0.421182
-0.22446
-0.173676
-0.175085
-0.168074
-0.233157
-0.287439
-0.223831
-0.326474
-0.129831
-0.146067
-0.0386623
-0.0214397
-0.0199725
0.0776651
0.0292815
-0.142259
-0.19613
-0.575007
-0.479895
-0.269608
-0.180766
-0.0807684
-0.109735
-0.11356
-0.154099
-0.176437
-0.248276
-0.188097
-0.200255
-0.019065
-0.0222447
0.062358
0.0216111
0.044949
-0.0882991
-0.0905318
-0.191693
-0.343363
-0.195936
-0.209022
-0.117582
-0.0567363
-0.0246765
-0.156763
-0.139782
-0.141431
-0.0954252
-0.080419
-0.0638238
-0.0161459
-0.0408498
-0.0501608
0.0252432
-0.0424375
-0.0186557
-0.0447715
-0.094428
-0.0926435
-0.0531262
-0.136786
-0.00880515