/*--------------------------------*- C++ -*----------------------------------*\
| =========                 |                                                 |
| \\      /  F ield         | OpenFOAM: The Open Source CFD Toolbox           |
|  \\    /   O peration     | Version:  2212                                  |
|   \\  /    A nd           | Website:  www.openfoam.com                      |
|    \\/     M anipulation  |                                                 |
\*---------------------------------------------------------------------------*/
FoamFile
{
    version     2.0;
    format      ascii;
    arch        "LSB;label=32;scalar=64";
    class       volScalarField;
    location    "0";
    object      stateMean;
}
// * * * * * * * * * * * * * * * * * * * * * * * * * * * * * * * * * * * * * //

dimensions      [0 0 0 1 0 0 0];

internalField   nonuniform List<scalar> 
3200
(
337.75
338.36
339.113
339.819
340.352
340.835
341.197
341.468
341.569
341.521
341.486
341.251
340.991
340.594
340.113
339.454
338.662
337.931
337.137
336.42
333.034
333.637
334.26
334.889
335.438
335.821
336.15
336.404
336.498
336.524
336.463
336.169
336.01
335.648
335.225
334.62
334.035
333.39
332.683
332.091
328.283
328.753
329.32
329.795
330.284
330.672
330.911
331.018
331.193
331.217
331.124
331.032
330.788
330.466
330.114
329.661
329.09
328.575
327.901
327.411
323.341
323.684
324.066
324.55
324.916
325.193
325.463
325.622
325.691
325.751
325.78
325.585
325.376
325.107
324.831
324.501
324.019
323.529
323.024
322.603
318.234
318.547
318.891
319.245
319.558
319.716
319.979
320.1
320.098
320.122
320.107
320.048
319.81
319.691
319.443
319.078
318.822
318.461
318.042
317.759
313.035
313.32
313.507
313.82
313.995
314.151
314.276
314.47
314.396
314.442
314.422
314.377
314.265
314.017
314.029
313.789
313.512
313.252
312.894
312.756
307.877
308.089
308.14
308.284
308.423
308.576
308.591
308.651
308.748
308.655
308.735
308.648
308.583
308.522
308.403
308.277
308.149
307.973
307.823
307.687
302.696
302.619
302.741
302.821
302.813
302.846
302.89
302.995
303.015
302.905
302.882
302.915
302.897
302.855
302.811
302.778
302.725
302.656
302.648
302.612
338.64
339.359
340.145
340.841
341.416
341.951
342.266
342.559
342.68
342.71
342.624
342.399
342.103
341.603
341.121
340.513
339.758
339.026
338.116
337.316
333.875
334.402
335.121
335.784
336.327
336.647
337.032
337.237
337.384
337.445
337.302
337.155
336.937
336.493
336.07
335.545
334.874
334.203
333.412
332.778
328.85
329.409
330.047
330.505
330.953
331.295
331.638
331.796
331.901
331.927
331.888
331.791
331.505
331.124
330.801
330.324
329.795
329.165
328.546
328.025
323.759
324.225
324.648
325.147
325.532
325.814
326.052
326.2
326.255
326.286
326.274
326.21
325.952
325.657
325.444
325.042
324.573
324.018
323.583
323.146
318.592
318.987
319.259
319.64
319.954
320.152
320.341
320.482
320.546
320.57
320.605
320.409
320.398
320.102
319.788
319.571
319.226
318.838
318.486
318.117
313.3
313.542
313.776
314.131
314.269
314.428
314.586
314.633
314.731
314.786
314.716
314.659
314.583
314.473
314.205
314.019
313.851
313.486
313.21
312.965
308.056
308.158
308.388
308.53
308.569
308.687
308.826
308.846
308.849
308.873
308.882
308.802
308.766
308.736
308.619
308.479
308.302
308.13
307.88
307.841
302.698
302.773
302.759
302.851
302.918
302.924
302.969
302.951
303.019
302.946
302.983
302.964
302.964
302.895
302.876
302.86
302.847
302.695
302.653
302.694
339.944
340.7
341.452
342.214
342.816
343.253
343.685
344.011
344.139
344.143
343.994
343.897
343.493
343.126
342.608
341.905
341.083
340.327
339.408
338.608
334.926
335.541
336.296
336.949
337.474
337.915
338.308
338.477
338.635
338.65
338.597
338.37
338.099
337.727
337.284
336.663
336.072
335.439
334.592
333.882
329.808
330.353
330.995
331.556
331.941
332.397
332.616
332.848
332.982
332.975
332.921
332.8
332.525
332.204
331.85
331.343
330.793
330.161
329.428
328.957
324.576
324.99
325.549
325.974
326.305
326.638
326.832
327.073
327.167
327.12
327.139
326.941
326.798
326.494
326.282
325.791
325.394
324.888
324.326
323.842
319.196
319.497
319.886
320.252
320.597
320.846
320.947
321.145
321.21
321.217
321.257
321.045
321.016
320.719
320.462
320.214
319.827
319.48
319.02
318.652
313.72
314.041
314.251
314.567
314.786
314.936
315.039
315.157
315.289
315.183
315.164
315.165
315.089
314.952
314.706
314.486
314.275
313.929
313.667
313.375
308.386
308.386
308.57
308.738
308.858
309.041
309.075
309.145
309.142
309.182
309.206
309.105
309.015
308.921
308.849
308.669
308.573
308.349
308.182
308.112
302.794
302.803
302.898
302.887
303.064
302.997
303.01
303.042
303.065
303.038
303.046
303.083
303.044
302.988
303.005
302.903
302.898
302.802
302.736
302.698
341.333
342.111
342.952
343.694
344.398
344.843
345.365
345.568
345.686
345.773
345.675
345.49
345.083
344.597
344.089
343.405
342.63
341.75
340.845
339.916
336.167
336.883
337.634
338.262
338.793
339.209
339.645
339.862
339.984
340.078
339.929
339.754
339.47
339.108
338.656
338.003
337.304
336.569
335.801
335.015
330.868
331.377
332.063
332.562
333.094
333.562
333.775
333.981
334.174
334.207
334.104
333.923
333.66
333.332
332.882
332.422
331.848
331.191
330.519
329.98
325.433
325.805
326.336
326.813
327.178
327.539
327.805
327.982
328.098
328.116
328.085
327.954
327.798
327.426
327.118
326.693
326.224
325.68
325.188
324.684
319.884
320.16
320.633
320.951
321.241
321.503
321.778
321.856
321.979
322.005
321.907
321.877
321.722
321.507
321.175
320.847
320.458
320.142
319.684
319.356
314.173
314.499
314.796
315.04
315.246
315.441
315.619
315.686
315.755
315.784
315.734
315.661
315.549
315.373
315.243
314.929
314.806
314.414
314.095
313.858
308.592
308.738
308.849
309.062
309.133
309.307
309.347
309.449
309.457
309.433
309.445
309.437
309.303
309.251
309.118
308.996
308.88
308.652
308.447
308.326
302.908
302.885
303.006
303.067
303.07
303.075
303.169
303.107
303.137
303.222
303.133
303.143
303.184
303.104
303.11
303.07
302.949
302.879
302.857
302.844
342.825
343.562
344.503
345.205
345.846
346.4
346.827
347.16
347.37
347.299
347.254
347.102
346.758
346.243
345.675
344.914
344.113
343.229
342.225
341.36
337.462
338.103
338.881
339.496
340.239
340.652
341.018
341.276
341.413
341.491
341.369
341.18
340.904
340.499
340.026
339.376
338.63
337.868
337.011
336.238
331.894
332.544
333.08
333.713
334.266
334.602
334.945
335.179
335.227
335.307
335.309
335.142
334.828
334.549
334.149
333.597
332.956
332.17
331.588
330.971
326.252
326.801
327.223
327.696
328.176
328.488
328.732
328.941
329.083
329.157
329.042
328.91
328.637
328.479
328.077
327.601
327.222
326.619
325.996
325.574
320.525
320.866
321.318
321.706
322.073
322.272
322.464
322.691
322.649
322.731
322.64
322.591
322.387
322.251
321.978
321.66
321.321
320.831
320.366
320.001
314.811
314.925
315.286
315.513
315.72
315.918
316.153
316.246
316.33
316.307
316.346
316.211
316.034
315.92
315.682
315.511
315.189
314.882
314.536
314.361
308.859
308.982
309.206
309.413
309.536
309.633
309.764
309.817
309.766
309.767
309.775
309.707
309.609
309.614
309.563
309.303
309.165
309.005
308.797
308.648
303.029
302.995
303.054
303.093
303.185
303.251
303.166
303.299
303.326
303.259
303.3
303.28
303.288
303.267
303.167
303.092
303.02
303.023
302.912
302.879
344.164
345.06
345.936
346.703
347.366
348.008
348.45
348.775
348.921
349.014
348.803
348.636
348.235
347.752
347.216
346.429
345.652
344.745
343.631
342.753
338.657
339.357
340.132
340.852
341.547
341.986
342.375
342.608
342.8
342.889
342.731
342.546
342.269
341.881
341.385
340.666
339.926
339.113
338.281
337.477
332.921
333.562
334.211
334.75
335.397
335.789
336.165
336.417
336.51
336.577
336.444
336.256
336.106
335.674
335.263
334.648
334.087
333.33
332.537
332.059
327.137
327.627
328.162
328.63
329.16
329.405
329.822
329.933
330.01
330.03
329.989
329.883
329.694
329.329
329.033
328.522
328.081
327.335
326.842
326.376
321.187
321.613
321.957
322.391
322.744
323.011
323.173
323.403
323.449
323.533
323.458
323.351
323.211
322.965
322.64
322.277
321.95
321.53
321.089
320.594
315.233
315.449
315.716
316.088
316.303
316.497
316.642
316.753
316.841
316.853
316.804
316.731
316.667
316.468
316.252
316.034
315.741
315.412
315.136
314.802
309.153
309.334
309.447
309.65
309.769
309.88
309.965
310.081
310.078
310.148
310.189
310.086
310.039
309.893
309.718
309.609
309.434
309.214
309.075
308.886
303.096
303.174
303.158
303.233
303.253
303.384
303.391
303.429
303.43
303.347
303.409
303.415
303.415
303.367
303.281
303.183
303.217
303.109
303.109
302.985
345.519
346.389
347.344
348.221
348.879
349.546
349.99
350.309
350.483
350.517
350.438
350.207
349.873
349.291
348.725
347.957
347.019
346.079
345.023
344.117
339.849
340.525
341.353
342.082
342.79
343.311
343.701
343.967
344.195
344.18
344.124
343.924
343.586
343.184
342.638
341.907
341.197
340.367
339.468
338.654
333.986
334.547
335.306
335.896
336.426
336.882
337.227
337.433
337.665
337.717
337.528
337.531
337.208
336.79
336.335
335.796
335.098
334.439
333.674
333.016
327.976
328.488
329.04
329.473
330.015
330.381
330.649
330.846
330.966
330.994
330.979
330.837
330.548
330.374
329.95
329.479
328.973
328.32
327.811
327.188
321.83
322.209
322.611
323.091
323.415
323.728
323.96
324.085
324.214
324.233
324.217
324.121
323.902
323.75
323.397
322.992
322.666
322.214
321.617
321.205
315.623
315.958
316.247
316.536
316.772
317.003
317.206
317.26
317.308
317.359
317.371
317.198
317.117
316.969
316.805
316.49
316.197
315.917
315.618
315.307
309.442
309.496
309.736
309.961
310.119
310.251
310.29
310.399
310.465
310.451
310.421
310.388
310.276
310.176
310.127
309.907
309.76
309.601
309.412
309.274
303.159
303.247
303.278
303.335
303.452
303.503
303.469
303.416
303.481
303.491
303.53
303.482
303.46
303.437
303.358
303.338
303.251
303.194
303.158
303.084
346.862
347.806
348.645
349.569
350.412
350.971
351.454
351.788
352.031
351.976
351.89
351.707
351.3
350.829
350.161
349.34
348.465
347.405
346.312
345.436
340.939
341.715
342.551
343.369
344.099
344.499
345.006
345.314
345.459
345.484
345.4
345.244
344.929
344.432
343.914
343.173
342.431
341.549
340.624
339.819
334.976
335.55
336.284
336.932
337.511
338.004
338.318
338.55
338.782
338.787
338.731
338.594
338.28
337.97
337.465
336.884
336.172
335.45
334.633
333.982
328.814
329.226
329.799
330.382
330.901
331.243
331.517
331.715
331.868
331.84
331.89
331.673
331.5
331.169
330.814
330.351
329.731
329.196
328.573
328.007
322.424
322.846
323.334
323.723
324.101
324.393
324.656
324.807
324.953
324.89
324.888
324.765
324.566
324.35
324.097
323.671
323.229
322.814
322.261
321.863
316.099
316.419
316.676
317.015
317.259
317.555
317.624
317.701
317.842
317.915
317.8
317.808
317.705
317.481
317.194
316.954
316.702
316.309
315.974
315.73
309.7
309.792
310.039
310.262
310.4
310.541
310.64
310.728
310.806
310.85
310.695
310.735
310.654
310.546
310.413
310.26
310.051
309.809
309.604
309.478
303.269
303.306
303.404
303.469
303.474
303.508
303.62
303.609
303.617
303.686
303.651
303.57
303.571
303.581
303.433
303.457
303.406
303.325
303.267
303.16
348.123
349.046
350.072
350.906
351.755
352.379
352.889
353.198
353.454
353.374
353.423
353.15
352.763
352.154
351.485
350.715
349.839
348.777
347.656
346.623
342.06
342.842
343.768
344.454
345.214
345.739
346.236
346.518
346.711
346.76
346.679
346.461
346.111
345.673
345.114
344.346
343.685
342.748
341.662
340.877
335.843
336.522
337.236
337.947
338.532
339.005
339.356
339.653
339.774
339.87
339.794
339.593
339.347
338.957
338.417
337.857
337.183
336.389
335.575
334.881
329.5
330.079
330.611
331.218
331.674
332.089
332.413
332.677
332.751
332.783
332.748
332.586
332.4
332.024
331.672
331.11
330.598
329.959
329.291
328.73
323.075
323.439
323.85
324.388
324.729
325.04
325.33
325.483
325.666
325.506
325.657
325.532
325.361
325.055
324.736
324.362
323.874
323.388
322.872
322.491
316.522
316.832
317.166
317.426
317.788
318.018
318.122
318.262
318.351
318.338
318.277
318.295
318.116
317.973
317.697
317.453
317.166
316.825
316.459
316.119
310.023
310.145
310.272
310.494
310.664
310.775
310.906
311.001
310.994
311.011
311.068
310.985
310.939
310.811
310.669
310.511
310.357
310.115
309.855
309.704
303.327
303.391
303.477
303.488
303.639
303.559
303.666
303.639
303.658
303.703
303.705
303.717
303.669
303.662
303.562
303.499
303.472
303.403
303.323
303.232
349.359
350.298
351.353
352.276
353.082
353.657
354.218
354.633
354.801
354.844
354.785
354.496
354.107
353.552
352.754
352.018
351
349.99
348.934
347.861
343.136
343.915
344.835
345.682
346.33
346.969
347.347
347.676
347.971
347.99
347.767
347.592
347.264
346.846
346.224
345.529
344.655
343.795
342.817
341.938
336.734
337.393
338.123
338.89
339.51
339.982
340.407
340.624
340.788
340.814
340.773
340.599
340.316
339.992
339.385
338.781
338.086
337.295
336.489
335.792
330.262
330.804
331.417
331.987
332.537
332.868
333.243
333.5
333.577
333.662
333.641
333.462
333.168
332.872
332.442
331.995
331.412
330.741
330.109
329.445
323.624
323.949
324.49
324.939
325.346
325.66
325.883
326.123
326.189
326.309
326.27
326.145
325.924
325.715
325.334
324.97
324.56
323.987
323.489
323.053
316.87
317.192
317.562
317.883
318.199
318.381
318.591
318.753
318.858
318.846
318.804
318.665
318.578
318.497
318.203
317.918
317.555
317.204
316.848
316.587
310.216
310.283
310.511
310.703
310.959
311.053
311.198
311.221
311.369
311.307
311.368
311.335
311.231
311.059
310.933
310.77
310.598
310.329
310.172
309.974
303.344
303.486
303.521
303.61
303.71
303.79
303.777
303.706
303.858
303.793
303.772
303.749
303.819
303.686
303.704
303.629
303.561
303.556
303.348
303.362
350.485
351.405
352.492
353.427
354.273
354.944
355.419
355.877
356.059
356.159
356.046
355.765
355.349
354.863
354.234
353.272
352.306
351.116
350.014
348.961
344.144
344.95
345.829
346.654
347.424
348.015
348.488
348.784
349.021
349.072
349.004
348.751
348.4
347.908
347.307
346.502
345.723
344.806
343.778
342.961
337.496
338.244
339.029
339.803
340.378
340.873
341.303
341.582
341.745
341.808
341.803
341.509
341.287
340.883
340.314
339.709
338.98
338.193
337.353
336.62
330.881
331.5
332.203
332.667
333.14
333.715
333.961
334.232
334.342
334.403
334.307
334.21
333.964
333.571
333.149
332.746
332.124
331.374
330.7
330.131
324.094
324.639
325.08
325.566
325.901
326.274
326.627
326.733
326.807
326.932
326.871
326.767
326.544
326.343
325.964
325.516
325.047
324.549
323.968
323.56
317.332
317.604
317.957
318.321
318.613
318.833
319.066
319.109
319.158
319.226
319.245
319.177
319.007
318.873
318.57
318.176
318.011
317.599
317.296
316.86
310.448
310.588
310.785
311.041
311.207
311.296
311.493
311.551
311.585
311.572
311.505
311.521
311.454
311.384
311.175
311.027
310.842
310.675
310.368
310.19
303.487
303.6
303.543
303.717
303.685
303.84
303.795
303.794
303.926
303.879
303.907
303.891
303.811
303.832
303.775
303.721
303.567
303.477
303.49
303.392
351.495
352.499
353.531
354.547
355.45
356.172
356.637
356.967
357.322
357.345
357.328
356.983
356.535
355.973
355.266
354.429
353.374
352.296
351.162
350.006
345.005
345.794
346.804
347.682
348.439
349.07
349.545
349.839
350.06
350.148
350.079
349.8
349.485
348.988
348.38
347.523
346.751
345.728
344.648
343.797
338.307
339.025
339.831
340.551
341.238
341.768
342.201
342.532
342.661
342.703
342.624
342.401
342.137
341.791
341.123
340.583
339.852
339.018
338.106
337.335
331.575
332.064
332.781
333.347
334.003
334.319
334.629
334.958
335.041
335.143
335.081
334.936
334.689
334.369
333.845
333.309
332.7
332.038
331.389
330.819
324.63
325.094
325.539
326.028
326.502
326.841
327.09
327.33
327.415
327.412
327.47
327.311
327.177
326.851
326.546
326.125
325.624
325.116
324.532
324.118
317.673
317.94
318.305
318.675
318.968
319.247
319.508
319.581
319.624
319.61
319.627
319.583
319.439
319.226
318.957
318.688
318.326
317.986
317.571
317.272
310.615
310.796
310.982
311.228
311.434
311.6
311.661
311.729
311.807
311.826
311.897
311.772
311.706
311.584
311.377
311.197
311.04
310.832
310.593
310.367
303.542
303.589
303.72
303.74
303.819
303.865
303.948
303.934
303.89
304.038
303.941
303.963
303.86
303.904
303.82
303.766
303.721
303.618
303.572
303.477
352.461
353.475
354.513
355.548
356.503
357.231
357.72
358.145
358.318
358.364
358.379
358.106
357.61
357.097
356.317
355.448
354.494
353.326
352.091
351.001
345.842
346.645
347.658
348.593
349.313
350.038
350.452
350.825
351.01
351.107
350.996
350.768
350.399
349.943
349.296
348.502
347.602
346.648
345.525
344.613
339.12
339.752
340.649
341.374
342.005
342.515
343.023
343.297
343.469
343.563
343.407
343.243
342.942
342.564
342.054
341.329
340.602
339.722
338.802
338.087
332.07
332.726
333.315
334.04
334.579
335.038
335.284
335.623
335.788
335.757
335.765
335.579
335.321
335.002
334.539
334.056
333.406
332.698
331.952
331.37
325.145
325.579
326.034
326.522
326.992
327.32
327.651
327.772
327.929
327.934
327.947
327.785
327.637
327.337
326.987
326.581
326.123
325.611
324.903
324.508
318.026
318.247
318.693
319.037
319.347
319.609
319.834
319.921
320.021
320.007
320.048
319.992
319.69
319.609
319.305
319.05
318.702
318.32
317.917
317.511
310.825
311.009
311.246
311.443
311.619
311.826
311.949
311.979
312.09
312.049
312.07
312.062
311.903
311.792
311.637
311.425
311.284
311.042
310.735
310.596
303.716
303.721
303.772
303.815
303.841
304.001
304.093
303.996
303.998
304.02
304.03
303.983
304.018
303.947
303.851
303.91
303.791
303.675
303.681
303.496
353.353
354.394
355.476
356.561
357.419
358.152
358.731
359.135
359.364
359.481
359.38
359.143
358.682
358.053
357.401
356.468
355.396
354.195
353.007
351.833
346.617
347.395
348.489
349.385
350.122
350.757
351.36
351.697
351.923
351.965
351.905
351.613
351.287
350.769
350.111
349.293
348.424
347.372
346.36
345.39
339.653
340.452
341.253
342.098
342.758
343.281
343.71
344.005
344.156
344.211
344.159
344.006
343.723
343.2
342.651
341.991
341.311
340.411
339.523
338.677
332.677
333.203
333.927
334.595
335.2
335.578
335.962
336.225
336.314
336.412
336.337
336.236
335.969
335.595
335.136
334.619
333.949
333.225
332.508
331.897
325.466
325.971
326.48
327.017
327.412
327.811
328.071
328.314
328.418
328.339
328.431
328.243
328.039
327.856
327.421
327.025
326.563
325.982
325.365
324.907
318.252
318.595
318.914
319.374
319.642
319.948
320.174
320.26
320.34
320.406
320.362
320.301
320.152
319.911
319.717
319.365
319.055
318.599
318.096
317.932
310.995
311.208
311.449
311.625
311.84
311.957
312.115
312.203
312.185
312.238
312.266
312.189
312.083
312.072
311.851
311.637
311.483
311.238
311.004
310.7
303.636
303.824
303.857
303.928
303.926
304.025
304.111
304.105
304.104
304.118
304.087
304.107
304.04
304.033
303.964
303.945
303.845
303.756
303.713
303.622
354.183
355.15
356.299
357.407
358.266
358.998
359.691
360.004
360.306
360.348
360.321
359.991
359.669
358.971
358.192
357.28
356.197
355.046
353.773
352.613
347.32
348.165
349.194
350.074
350.973
351.59
352.064
352.454
352.777
352.762
352.672
352.422
352.092
351.603
350.938
350.065
349.139
348.116
347.009
346.015
340.252
340.97
341.84
342.624
343.389
343.932
344.351
344.655
344.826
344.915
344.892
344.727
344.357
343.906
343.4
342.667
341.85
340.943
340.119
339.34
333.099
333.732
334.446
335.16
335.632
336.092
336.514
336.759
336.958
336.922
336.963
336.699
336.482
336.112
335.744
335.101
334.458
333.759
332.96
332.318
325.844
326.354
326.896
327.393
327.81
328.199
328.526
328.715
328.77
328.9
328.813
328.677
328.513
328.238
327.901
327.418
326.96
326.286
325.763
325.22
318.496
318.85
319.258
319.632
319.939
320.276
320.403
320.592
320.68
320.688
320.711
320.622
320.372
320.187
319.943
319.665
319.344
318.88
318.457
318.099
311.152
311.353
311.682
311.856
312.02
312.171
312.273
312.42
312.507
312.437
312.436
312.391
312.285
312.199
312.073
311.837
311.586
311.39
311.171
310.924
303.825
303.759
303.909
303.905
303.944
304.008
304.132
304.167
304.156
304.177
304.167
304.165
304.133
304.065
304.047
304.007
303.941
303.858
303.751
303.59
354.753
355.819
357.031
358.148
359.009
359.824
360.451
360.836
361.05
361.219
361.002
360.82
360.374
359.754
358.978
358.009
356.993
355.758
354.458
353.258
347.834
348.826
349.788
350.76
351.573
352.252
352.77
353.146
353.355
353.382
353.388
353.105
352.762
352.253
351.574
350.734
349.781
348.793
347.61
346.661
340.73
341.54
342.473
343.166
343.948
344.505
344.898
345.29
345.423
345.508
345.484
345.224
344.986
344.432
343.992
343.261
342.506
341.54
340.66
339.837
333.477
334.166
334.803
335.52
336.113
336.591
336.984
337.174
337.326
337.441
337.356
337.269
337.026
336.539
336.197
335.543
334.9
334.174
333.47
332.788
326.202
326.628
327.147
327.693
328.184
328.549
328.972
329.044
329.24
329.256
329.225
329.076
328.908
328.559
328.17
327.83
327.236
326.701
326.063
325.604
318.746
319.089
319.559
319.909
320.169
320.479
320.658
320.791
320.977
320.946
320.995
320.79
320.726
320.48
320.236
319.971
319.579
319.141
318.74
318.398
311.289
311.472
311.748
311.992
312.128
312.308
312.512
312.556
312.593
312.636
312.572
312.561
312.514
312.344
312.083
311.987
311.804
311.485
311.269
311.053
303.772
303.869
303.917
304.04
304.079
304.129
304.156
304.203
304.249
304.241
304.293
304.192
304.165
304.093
304.025
304.105
303.979
303.918
303.771
303.723
355.375
356.464
357.634
358.81
359.737
360.483
361.096
361.508
361.753
361.844
361.751
361.545
361.049
360.476
359.687
358.714
357.619
356.371
355.083
353.907
348.301
349.305
350.303
351.265
352.157
352.831
353.341
353.724
353.958
354.059
353.998
353.725
353.355
352.823
352.136
351.286
350.35
349.253
348.237
347.149
341.26
341.925
342.804
343.662
344.415
344.921
345.377
345.785
345.965
346.021
345.982
345.724
345.359
345.018
344.48
343.744
342.893
341.989
341.039
340.19
333.896
334.485
335.275
335.871
336.44
336.957
337.387
337.654
337.87
337.815
337.794
337.624
337.356
336.986
336.506
335.897
335.257
334.545
333.769
333.117
326.472
326.931
327.496
328.024
328.511
328.883
329.162
329.385
329.527
329.675
329.528
329.424
329.241
328.94
328.579
328.072
327.591
326.938
326.412
325.851
318.974
319.376
319.668
320.096
320.46
320.691
320.889
321.077
321.122
321.147
321.171
321.038
320.963
320.719
320.506
320.113
319.757
319.332
318.861
318.581
311.416
311.538
311.833
312.15
312.311
312.446
312.584
312.683
312.685
312.725
312.735
312.65
312.588
312.459
312.352
312.084
311.951
311.661
311.39
311.187
303.799
303.901
303.923
304.018
304.129
304.184
304.179
304.264
304.263
304.22
304.242
304.191
304.192
304.167
304.168
304.027
303.982
303.875
303.851
303.753
355.796
356.913
358.135
359.313
360.241
361.094
361.635
362.128
362.272
362.425
362.355
362.079
361.602
360.981
360.215
359.191
358.142
356.886
355.569
354.42
348.816
349.679
350.74
351.716
352.594
353.267
353.821
354.253
354.517
354.52
354.414
354.181
353.843
353.375
352.632
351.728
350.734
349.758
348.556
347.607
341.521
342.294
343.236
343.98
344.721
345.371
345.807
346.173
346.407
346.426
346.326
346.178
345.819
345.409
344.835
344.154
343.317
342.374
341.416
340.613
334.196
334.765
335.528
336.144
336.8
337.252
337.731
337.952
338.128
338.202
338.197
337.967
337.666
337.292
336.825
336.288
335.631
334.898
334.078
333.411
326.653
327.199
327.744
328.259
328.685
329.123
329.516
329.613
329.768
329.787
329.817
329.619
329.475
329.121
328.787
328.236
327.829
327.221
326.612
326.042
319.128
319.433
319.89
320.251
320.556
320.834
321.123
321.293
321.384
321.347
321.285
321.261
321.095
320.903
320.661
320.247
319.948
319.531
319.061
318.732
311.489
311.771
311.933
312.192
312.404
312.526
312.692
312.687
312.902
312.858
312.828
312.804
312.72
312.53
312.412
312.2
312.062
311.727
311.533
311.362
303.888
303.94
304.045
304.036
304.157
304.21
304.232
304.353
304.297
304.325
304.305
304.295
304.215
304.189
304.115
304.092
304.052
303.95
303.863
303.842
356.197
357.344
358.567
359.702
360.617
361.481
362.048
362.488
362.735
362.784
362.734
362.481
362.006
361.353
360.547
359.7
358.493
357.338
355.935
354.769
349.071
350.001
351.076
352.085
352.929
353.702
354.199
354.581
354.856
354.908
354.795
354.573
354.163
353.607
352.939
352.08
351.186
350.056
348.857
347.86
341.835
342.584
343.504
344.33
345.076
345.695
346.112
346.433
346.715
346.699
346.603
346.523
346.148
345.684
345.134
344.384
343.591
342.678
341.669
340.892
334.388
335.006
335.681
336.456
337.031
337.553
337.857
338.22
338.381
338.399
338.4
338.247
337.867
337.617
337.038
336.534
335.883
335.052
334.322
333.647
326.843
327.277
327.914
328.466
328.932
329.37
329.627
329.834
329.975
329.976
329.955
329.827
329.595
329.337
328.98
328.541
327.945
327.399
326.782
326.312
319.211
319.554
319.969
320.354
320.713
321.055
321.235
321.437
321.471
321.523
321.503
321.333
321.229
321.003
320.812
320.445
320.045
319.63
319.199
318.834
311.557
311.813
312.055
312.268
312.498
312.661
312.77
312.848
312.963
312.944
312.965
312.879
312.784
312.694
312.541
312.313
312.081
311.837
311.554
311.281
303.923
303.952
303.983
304.094
304.152
304.263
304.299
304.302
304.337
304.342
304.322
304.285
304.306
304.244
304.214
304.173
304.035
303.941
303.904
303.716
356.439
357.521
358.758
359.863
360.834
361.635
362.269
362.77
363.076
363.012
363.054
362.702
362.243
361.696
360.861
359.901
358.756
357.546
356.193
354.967
349.218
350.19
351.285
352.24
353.085
353.846
354.314
354.811
355.033
355.129
355.055
354.789
354.372
353.897
353.175
352.306
351.4
350.187
349.083
348.089
341.997
342.714
343.646
344.481
345.258
345.823
346.273
346.656
346.863
346.864
346.861
346.618
346.313
345.911
345.262
344.555
343.731
342.84
341.912
340.981
334.47
335.066
335.863
336.541
337.125
337.66
338.081
338.343
338.532
338.57
338.513
338.342
338.095
337.722
337.234
336.647
335.977
335.248
334.426
333.702
326.916
327.391
327.992
328.564
329.029
329.407
329.715
329.846
330.072
330.123
330.092
329.935
329.72
329.481
329.077
328.629
328.115
327.525
326.845
326.335
319.276
319.704
320.052
320.437
320.777
320.985
321.296
321.494
321.59
321.542
321.564
321.475
321.319
321.125
320.819
320.475
320.192
319.727
319.245
318.929
311.631
311.81
312.078
312.328
312.519
312.626
312.816
312.952
312.991
313.028
312.898
312.881
312.784
312.709
312.541
312.336
312.073
311.892
311.563
311.407
303.909
303.927
303.994
304.106
304.211
304.191
304.31
304.334
304.322
304.367
304.377
304.288
304.291
304.273
304.241
304.216
303.989
303.999
303.915
303.8
)
;

boundaryField
{
    hotSide
    {
        type            fixedGradient;
        gradient        nonuniform List<scalar> 
400
(
321.511
322.87
325.591
329.677
335.133
341.965
350.181
359.788
370.794
383.208
397.037
412.289
428.971
447.088
466.647
487.651
510.105
534.011
559.372
586.191
323.738
325.08
327.767
331.802
337.194
343.949
352.078
361.591
372.498
384.81
398.537
413.687
430.268
448.289
467.755
488.672
511.043
534.872
560.161
586.913
326.149
327.47
330.116
334.091
339.406
346.071
354.099
363.503
374.296
386.491
400.101
415.136
431.606
449.52
468.885
489.706
511.988
535.735
560.948
587.63
328.704
330
332.597
336.503
341.73
348.292
356.205
365.485
376.15
388.215
401.695
416.604
432.954
450.753
470.009
490.73
512.919
536.579
561.714
588.325
331.33
332.599
335.142
338.97
344.099
350.546
358.332
367.477
378.003
389.928
403.271
418.047
434.27
451.949
471.095
491.712
513.807
537.382
562.439
588.978
333.918
335.158
337.643
341.389
346.414
352.74
360.392
369.397
379.779
391.562
404.765
419.407
435.503
453.065
472.101
492.618
514.622
538.114
563.096
589.569
336.321
337.531
339.959
343.622
348.544
354.751
362.274
371.142
381.385
393.031
406.101
420.618
436.595
454.047
472.983
493.409
515.33
538.747
563.663
590.076
338.36
339.543
341.92
345.509
350.339
356.44
363.847
372.595
382.718
394.244
407.2
421.608
437.485
454.844
473.695
494.045
515.897
539.253
564.114
590.478
339.852
341.015
343.352
346.885
351.645
357.665
364.985
373.643
383.675
395.113
407.984
422.312
438.116
455.407
474.197
494.491
516.294
539.606
564.428
590.758
340.643
341.795
344.11
347.613
352.334
358.311
365.584
374.193
384.176
395.567
408.393
422.679
438.443
455.699
474.456
494.722
516.498
539.788
564.589
590.901
340.643
341.795
344.11
347.613
352.334
358.311
365.584
374.193
384.176
395.567
408.393
422.679
438.443
455.699
474.456
494.722
516.498
539.788
564.589
590.901
339.852
341.015
343.352
346.885
351.645
357.665
364.985
373.643
383.675
395.113
407.984
422.312
438.116
455.407
474.197
494.491
516.294
539.606
564.428
590.758
338.36
339.543
341.92
345.509
350.339
356.44
363.847
372.595
382.718
394.244
407.2
421.608
437.485
454.844
473.695
494.045
515.897
539.253
564.114
590.478
336.321
337.531
339.959
343.622
348.544
354.751
362.274
371.142
381.385
393.031
406.101
420.618
436.595
454.047
472.983
493.409
515.33
538.747
563.663
590.076
333.918
335.158
337.643
341.389
346.414
352.74
360.392
369.397
379.779
391.562
404.765
419.407
435.503
453.065
472.101
492.618
514.622
538.114
563.096
589.569
331.33
332.599
335.142
338.97
344.099
350.546
358.332
367.477
378.003
389.928
403.271
418.047
434.27
451.949
471.095
491.712
513.807
537.382
562.439
588.978
328.704
330
332.597
336.503
341.73
348.292
356.205
365.485
376.15
388.215
401.695
416.604
432.954
450.753
470.009
490.73
512.919
536.579
561.714
588.325
326.149
327.47
330.116
334.091
339.406
346.071
354.099
363.503
374.296
386.491
400.101
415.136
431.606
449.52
468.885
489.706
511.988
535.735
560.948
587.63
323.738
325.08
327.767
331.802
337.194
343.949
352.078
361.591
372.498
384.81
398.537
413.687
430.268
448.289
467.755
488.672
511.043
534.872
560.161
586.913
321.511
322.87
325.591
329.677
335.133
341.965
350.181
359.788
370.794
383.208
397.037
412.289
428.971
447.088
466.647
487.651
510.105
534.011
559.372
586.191
)
;
    }
    coldSide
    {
        type            mixed;
        refValue        uniform 300;
        refGradient     uniform 0;
        valueFraction   uniform 0.991591;
        source          uniform 0;
        value           nonuniform List<scalar> 
400
(
300.023
300.023
300.023
300.024
300.025
300.026
300.027
300.027
300.028
300.028
300.029
300.03
300.031
300.031
300.032
300.032
300.032
300.033
300.033
300.033
300.022
300.023
300.024
300.024
300.025
300.027
300.027
300.028
300.029
300.029
300.03
300.03
300.031
300.032
300.032
300.033
300.033
300.033