/*--------------------------------*- C++ -*----------------------------------*\
| =========                 |                                                 |
| \\      /  F ield         | OpenFOAM: The Open Source CFD Toolbox           |
|  \\    /   O peration     | Version:  2212                                  |
|   \\  /    A nd           | Website:  www.openfoam.com                      |
|    \\/     M anipulation  |                                                 |
\*---------------------------------------------------------------------------*/
FoamFile
{
    version     2.0;
    format      ascii;
    arch        "LSB;label=32;scalar=64";
    class       volScalarField;
    location    "0";
    object      Ttrue;
}
// * * * * * * * * * * * * * * * * * * * * * * * * * * * * * * * * * * * * * //

dimensions      [0 0 0 1 0 0 0];

internalField   nonuniform List<scalar> 
3200
(
342.27
342.543
342.893
343.274
343.666
344.051
344.406
344.706
344.924
345.04
345.04
344.924
344.706
344.406
344.051
343.666
343.274
342.893
342.543
342.27
336.567
336.799
337.1
337.429
337.769
338.102
338.409
338.668
338.857
338.956
338.956
338.857
338.668
338.409
338.102
337.769
337.429
337.1
336.799
336.567
330.894
331.086
331.34
331.618
331.905
332.186
332.445
332.664
332.823
332.907
332.907
332.823
332.664
332.445
332.186
331.905
331.618
331.34
331.086
330.894
325.246
325.4
325.607
325.835
326.069
326.299
326.511
326.689
326.819
326.888
326.888
326.819
326.689
326.511
326.299
326.069
325.835
325.607
325.4
325.246
319.619
319.738
319.898
320.075
320.257
320.436
320.6
320.739
320.84
320.893
320.893
320.84
320.739
320.6
320.436
320.257
320.075
319.898
319.738
319.619
314.008
314.092
314.207
314.333
314.463
314.591
314.708
314.807
314.879
314.917
314.917
314.879
314.807
314.708
314.591
314.463
314.333
314.207
314.092
314.008
308.41
308.46
308.528
308.604
308.682
308.759
308.829
308.889
308.932
308.955
308.955
308.932
308.889
308.829
308.759
308.682
308.604
308.528
308.46
308.41
302.818
302.835
302.858
302.883
302.91
302.935
302.959
302.979
302.993
303.001
303.001
302.993
302.979
302.959
302.935
302.91
302.883
302.858
302.835
302.818
342.443
342.714
343.061
343.438
343.826
344.207
344.558
344.854
345.07
345.183
345.183
345.07
344.854
344.558
344.207
343.826
343.438
343.061
342.714
342.443
336.717
336.946
337.245
337.571
337.907
338.237
338.54
338.796
338.982
339.081
339.081
338.982
338.796
338.54
338.237
337.907
337.571
337.245
336.946
336.717
331.02
331.21
331.462
331.738
332.022
332.3
332.556
332.772
332.929
333.012
333.012
332.929
332.772
332.556
332.3
332.022
331.738
331.462
331.21
331.02
325.349
325.502
325.707
325.933
326.165
326.392
326.601
326.778
326.906
326.974
326.974
326.906
326.778
326.601
326.392
326.165
325.933
325.707
325.502
325.349
319.699
319.816
319.976
320.151
320.331
320.508
320.67
320.807
320.907
320.959
320.959
320.907
320.807
320.67
320.508
320.331
320.151
319.976
319.816
319.699
314.065
314.149
314.262
314.387
314.516
314.642
314.758
314.856
314.927
314.964
314.964
314.927
314.856
314.758
314.642
314.516
314.387
314.262
314.149
314.065
308.444
308.494
308.562
308.637
308.714
308.79
308.859
308.918
308.961
308.983
308.983
308.961
308.918
308.859
308.79
308.714
308.637
308.562
308.494
308.444
302.83
302.846
302.869
302.894
302.92
302.946
302.969
302.989
303.003
303.01
303.01
303.003
302.989
302.969
302.946
302.92
302.894
302.869
302.846
302.83
342.789
343.056
343.397
343.767
344.147
344.52
344.863
345.152
345.362
345.473
345.473
345.362
345.152
344.863
344.52
344.147
343.767
343.397
343.056
342.789
337.016
337.242
337.535
337.856
338.185
338.507
338.804
339.053
339.235
339.331
339.331
339.235
339.053
338.804
338.507
338.185
337.856
337.535
337.242
337.016
331.272
331.46
331.707
331.978
332.256
332.528
332.779
332.989
333.143
333.223
333.223
333.143
332.989
332.779
332.528
332.256
331.978
331.707
331.46
331.272
325.555
325.706
325.907
326.129
326.356
326.578
326.783
326.955
327.08
327.146
327.146
327.08
326.955
326.783
326.578
326.356
326.129
325.907
325.706
325.555
319.859
319.975
320.131
320.303
320.48
320.653
320.812
320.945
321.042
321.093
321.093
321.042
320.945
320.812
320.653
320.48
320.303
320.131
319.975
319.859
314.179
314.262
314.373
314.496
314.622
314.745
314.859
314.954
315.024
315.06
315.06
315.024
314.954
314.859
314.745
314.622
314.496
314.373
314.262
314.179
308.512
308.561
308.628
308.702
308.778
308.852
308.92
308.977
309.019
309.041
309.041
309.019
308.977
308.92
308.852
308.778
308.702
308.628
308.561
308.512
302.853
302.869
302.891
302.916
302.941
302.966
302.989
303.008
303.022
303.03
303.03
303.022
303.008
302.989
302.966
302.941
302.916
302.891
302.869
302.853
343.309
343.57
343.902
344.262
344.631
344.992
345.323
345.602
345.804
345.911
345.911
345.804
345.602
345.323
344.992
344.631
344.262
343.902
343.57
343.309
337.465
337.686
337.972
338.284
338.603
338.915
339.202
339.442
339.617
339.709
339.709
339.617
339.442
339.202
338.915
338.603
338.284
337.972
337.686
337.465
331.651
331.835
332.076
332.339
332.609
332.873
333.115
333.318
333.465
333.543
333.543
333.465
333.318
333.115
332.873
332.609
332.339
332.076
331.835
331.651
325.864
326.012
326.208
326.423
326.644
326.86
327.057
327.223
327.344
327.407
327.407
327.344
327.223
327.057
326.86
326.644
326.423
326.208
326.012
325.864
320.099
320.212
320.365
320.532
320.704
320.871
321.025
321.153
321.247
321.296
321.296
321.247
321.153
321.025
320.871
320.704
320.532
320.365
320.212
320.099
314.351
314.431
314.54
314.659
314.782
314.901
315.011
315.103
315.17
315.205
315.205
315.17
315.103
315.011
314.901
314.782
314.659
314.54
314.431
314.351
308.615
308.663
308.728
308.8
308.874
308.945
309.011
309.066
309.106
309.128
309.128
309.106
309.066
309.011
308.945
308.874
308.8
308.728
308.663
308.615
302.887
302.903
302.925
302.949
302.974
302.998
303.02
303.038
303.052
303.059
303.059
303.052
303.038
303.02
302.998
302.974
302.949
302.925
302.903
302.887
344.004
344.257
344.578
344.925
345.28
345.626
345.942
346.208
346.4
346.502
346.502
346.4
346.208
345.942
345.626
345.28
344.925
344.578
344.257
344.004
338.065
338.279
338.556
338.857
339.164
339.463
339.737
339.966
340.133
340.22
340.22
340.133
339.966
339.737
339.463
339.164
338.857
338.556
338.279
338.065
332.158
332.335
332.569
332.823
333.082
333.335
333.566
333.76
333.9
333.974
333.974
333.9
333.76
333.566
333.335
333.082
332.823
332.569
332.335
332.158
326.278
326.421
326.611
326.818
327.031
327.237
327.426
327.584
327.699
327.759
327.759
327.699
327.584
327.426
327.237
327.031
326.818
326.611
326.421
326.278
320.42
320.53
320.677
320.839
321.004
321.164
321.311
321.434
321.523
321.57
321.57
321.523
321.434
321.311
321.164
321.004
320.839
320.677
320.53
320.42
314.58
314.658
314.763
314.878
314.996
315.111
315.215
315.303
315.367
315.4
315.4
315.367
315.303
315.215
315.111
314.996
314.878
314.763
314.658
314.58
308.753
308.799
308.862
308.931
309.002
309.071
309.134
309.187
309.225
309.245
309.245
309.225
309.187
309.134
309.071
309.002
308.931
308.862
308.799
308.753
302.933
302.949
302.97
302.993
303.017
303.04
303.061
303.078
303.091
303.098
303.098
303.091
303.078
303.061
303.04
303.017
302.993
302.97
302.949
302.933
344.875
345.118
345.426
345.758
346.097
346.425
346.724
346.975
347.156
347.251
347.251
347.156
346.975
346.724
346.425
346.097
345.758
345.426
345.118
344.875
338.817
339.023
339.289
339.576
339.869
340.153
340.412
340.629
340.785
340.868
340.868
340.785
340.629
340.412
340.153
339.869
339.576
339.289
339.023
338.817
332.792
332.963
333.187
333.43
333.678
333.918
334.137
334.319
334.452
334.521
334.521
334.452
334.319
334.137
333.918
333.678
333.43
333.187
332.963
332.792
326.796
326.933
327.116
327.314
327.517
327.713
327.892
328.041
328.149
328.206
328.206
328.149
328.041
327.892
327.713
327.517
327.314
327.116
326.933
326.796
320.822
320.928
321.069
321.224
321.381
321.534
321.673
321.789
321.873
321.917
321.917
321.873
321.789
321.673
321.534
321.381
321.224
321.069
320.928
320.822
314.867
314.942
315.043
315.153
315.265
315.374
315.473
315.556
315.616
315.648
315.648
315.616
315.556
315.473
315.374
315.265
315.153
315.043
314.942
314.867
308.925
308.97
309.03
309.096
309.164
309.229
309.289
309.339
309.374
309.393
309.393
309.374
309.339
309.289
309.229
309.164
309.096
309.03
308.97
308.925
302.991
303.006
303.026
303.048
303.071
303.093
303.113
303.129
303.141
303.148
303.148
303.141
303.129
303.113
303.093
303.071
303.048
303.026
303.006
302.991
345.922
346.155
346.449
346.764
347.083
347.392
347.673
347.907
348.076
348.164
348.164
348.076
347.907
347.673
347.392
347.083
346.764
346.449
346.155
345.922
339.722
339.919
340.172
340.445
340.722
340.989
341.232
341.435
341.58
341.657
341.657
341.58
341.435
341.232
340.989
340.722
340.445
340.172
339.919
339.722
333.556
333.719
333.933
334.163
334.397
334.623
334.828
335
335.123
335.187
335.187
335.123
335
334.828
334.623
334.397
334.163
333.933
333.719
333.556
327.419
327.55
327.724
327.913
328.104
328.289
328.457
328.597
328.697
328.75
328.75
328.697
328.597
328.457
328.289
328.104
327.913
327.724
327.55
327.419
321.306
321.407
321.542
321.688
321.837
321.981
322.111
322.22
322.298
322.339
322.339
322.298
322.22
322.111
321.981
321.837
321.688
321.542
321.407
321.306
315.212
315.284
315.38
315.485
315.591
315.693
315.787
315.864
315.92
315.949
315.949
315.92
315.864
315.787
315.693
315.591
315.485
315.38
315.284
315.212
309.132
309.175
309.232
309.295
309.359
309.421
309.477
309.523
309.557
309.574
309.574
309.557
309.523
309.477
309.421
309.359
309.295
309.232
309.175
309.132
303.06
303.075
303.094
303.115
303.136
303.157
303.176
303.191
303.203
303.208
303.208
303.203
303.191
303.176
303.157
303.136
303.115
303.094
303.075
303.06
347.148
347.369
347.647
347.944
348.244
348.532
348.793
349.01
349.166
349.247
349.247
349.166
349.01
348.793
348.532
348.244
347.944
347.647
347.369
347.148
340.781
340.968
341.208
341.465
341.724
341.974
342.2
342.388
342.522
342.593
342.593
342.522
342.388
342.2
341.974
341.724
341.465
341.208
340.968
340.781
334.449
334.604
334.806
335.024
335.243
335.454
335.645
335.804
335.918
335.977
335.977
335.918
335.804
335.645
335.454
335.243
335.024
334.806
334.604
334.449
328.148
328.273
328.438
328.615
328.795
328.968
329.124
329.253
329.346
329.395
329.395
329.346
329.253
329.124
328.968
328.795
328.615
328.438
328.273
328.148
321.872
321.968
322.096
322.234
322.374
322.508
322.629
322.73
322.802
322.84
322.84
322.802
322.73
322.629
322.508
322.374
322.234
322.096
321.968
321.872
315.616
315.684
315.775
315.874
315.974
316.07
316.156
316.228
316.28
316.307
316.307
316.28
316.228
316.156
316.07
315.974
315.874
315.775
315.684
315.616
309.375
309.415
309.47
309.529
309.589
309.646
309.699
309.742
309.773
309.789
309.789
309.773
309.742
309.699
309.646
309.589
309.529
309.47
309.415
309.375
303.142
303.155
303.173
303.193
303.213
303.233
303.25
303.264
303.275
303.28
303.28
303.275
303.264
303.25
303.233
303.213
303.193
303.173
303.155
303.142
348.553
348.762
349.023
349.301
349.58
349.848
350.089
350.288
350.431
350.506
350.506
350.431
350.288
350.089
349.848
349.58
349.301
349.023
348.762
348.553
341.994
342.171
342.397
342.637
342.879
343.111
343.319
343.492
343.616
343.68
343.68
343.616
343.492
343.319
343.111
342.879
342.637
342.397
342.171
341.994
335.473
335.62
335.81
336.013
336.218
336.414
336.59
336.736
336.841
336.895
336.895
336.841
336.736
336.59
336.414
336.218
336.013
335.81
335.62
335.473
328.984
329.102
329.257
329.423
329.591
329.751
329.895
330.014
330.1
330.144
330.144
330.1
330.014
329.895
329.751
329.591
329.423
329.257
329.102
328.984
322.521
322.612
322.732
322.862
322.992
323.116
323.228
323.321
323.387
323.422
323.422
323.387
323.321
323.228
323.116
322.992
322.862
322.732
322.612
322.521
316.08
316.144
316.229
316.322
316.415
316.504
316.584
316.65
316.697
316.722
316.722
316.697
316.65
316.584
316.504
316.415
316.322
316.229
316.144
316.08
309.653
309.691
309.742
309.798
309.854
309.907
309.955
309.995
310.023
310.038
310.038
310.023
309.995
309.955
309.907
309.854
309.798
309.742
309.691
309.653
303.235
303.247
303.265
303.283
303.302
303.32
303.336
303.349
303.359
303.364
303.364
303.359
303.349
303.336
303.32
303.302
303.283
303.265
303.247
303.235
350.138
350.334
350.579
350.838
351.097
351.343
351.564
351.746
351.876
351.944
351.944
351.876
351.746
351.564
351.343
351.097
350.838
350.579
350.334
350.138
343.364
343.53
343.741
343.965
344.189
344.403
344.594
344.752
344.864
344.923
344.923
344.864
344.752
344.594
344.403
344.189
343.965
343.741
343.53
343.364
336.629
336.767
336.945
337.134
337.324
337.504
337.666
337.799
337.894
337.944
337.944
337.894
337.799
337.666
337.504
337.324
337.134
336.945
336.767
336.629
329.928
330.038
330.183
330.338
330.494
330.641
330.774
330.882
330.96
331.001
331.001
330.96
330.882
330.774
330.641
330.494
330.338
330.183
330.038
329.928
323.254
323.339
323.452
323.572
323.693
323.808
323.911
323.995
324.056
324.087
324.087
324.056
323.995
323.911
323.808
323.693
323.572
323.452
323.339
323.254
316.602
316.663
316.743
316.829
316.915
316.997
317.071
317.131
317.174
317.197
317.197
317.174
317.131
317.071
316.997
316.915
316.829
316.743
316.663
316.602
309.966
310.002
310.05
310.102
310.154
310.203
310.247
310.284
310.31
310.323
310.323
310.31
310.284
310.247
310.203
310.154
310.102
310.05
310.002
309.966
303.34
303.352
303.368
303.385
303.403
303.419
303.434
303.446
303.455
303.459
303.459
303.455
303.446
303.434
303.419
303.403
303.385
303.368
303.352
303.34
351.905
352.089
352.317
352.556
352.795
353.02
353.222
353.387
353.505
353.566
353.566
353.505
353.387
353.222
353.02
352.795
352.556
352.317
352.089
351.905
344.891
345.046
345.242
345.45
345.657
345.852
346.027
346.17
346.272
346.325
346.325
346.272
346.17
346.027
345.852
345.657
345.45
345.242
345.046
344.891
337.917
338.046
338.212
338.387
338.562
338.727
338.875
338.996
339.082
339.127
339.127
339.082
338.996
338.875
338.727
338.562
338.387
338.212
338.046
337.917
330.979
331.083
331.218
331.362
331.505
331.64
331.761
331.86
331.93
331.967
331.967
331.93
331.86
331.761
331.64
331.505
331.362
331.218
331.083
330.979
324.071
324.15
324.255
324.367
324.478
324.583
324.677
324.754
324.809
324.837
324.837
324.809
324.754
324.677
324.583
324.478
324.367
324.255
324.15
324.071
317.185
317.241
317.316
317.396
317.475
317.551
317.618
317.673
317.712
317.732
317.732
317.712
317.673
317.618
317.551
317.475
317.396
317.316
317.241
317.185
310.316
310.35
310.394
310.442
310.49
310.535
310.576
310.609
310.632
310.644
310.644
310.632
310.609
310.576
310.535
310.49
310.442
310.394
310.35
310.316
303.457
303.468
303.483
303.499
303.515
303.53
303.544
303.555
303.563
303.567
303.567
303.563
303.555
303.544
303.53
303.515
303.499
303.483
303.468
303.457
353.855
354.026
354.237
354.458
354.677
354.883
355.066
355.215
355.321
355.377
355.377
355.321
355.215
355.066
354.883
354.677
354.458
354.237
354.026
353.855
346.575
346.72
346.902
347.093
347.283
347.461
347.62
347.749
347.841
347.889
347.889
347.841
347.749
347.62
347.461
347.283
347.093
346.902
346.72
346.575
339.339
339.459
339.612
339.774
339.934
340.085
340.22
340.329
340.407
340.447
340.447
340.407
340.329
340.22
340.085
339.934
339.774
339.612
339.459
339.339
332.14
332.236
332.362
332.494
332.625
332.749
332.858
332.948
333.012
333.045
333.045
333.012
332.948
332.858
332.749
332.625
332.494
332.362
332.236
332.14
324.972
325.046
325.143
325.246
325.348
325.444
325.529
325.599
325.649
325.674
325.674
325.649
325.599
325.529
325.444
325.348
325.246
325.143
325.046
324.972
317.828
317.881
317.95
318.023
318.096
318.165
318.226
318.276
318.311
318.329
318.329
318.311
318.276
318.226
318.165
318.096
318.023
317.95
317.881
317.828
310.702
310.733
310.775
310.819
310.863
310.904
310.941
310.97
310.992
311.003
311.003
310.992
310.97
310.941
310.904
310.863
310.819
310.775
310.733
310.702
303.586
303.597
303.611
303.625
303.64
303.654
303.666
303.676
303.683
303.687
303.687
303.683
303.676
303.666
303.654
303.64
303.625
303.611
303.597
303.586
355.988
356.147
356.342
356.545
356.745
356.932
357.097
357.232
357.327
357.376
357.376
357.327
357.232
357.097
356.932
356.745
356.545
356.342
356.147
355.988
348.418
348.552
348.72
348.896
349.069
349.231
349.375
349.491
349.574
349.617
349.617
349.574
349.491
349.375
349.231
349.069
348.896
348.72
348.552
348.418
340.894
341.005
341.147
341.295
341.442
341.579
341.701
341.799
341.869
341.905
341.905
341.869
341.799
341.701
341.579
341.442
341.295
341.147
341.005
340.894
333.409
333.499
333.614
333.736
333.856
333.968
334.067
334.148
334.205
334.235
334.235
334.205
334.148
334.067
333.968
333.856
333.736
333.614
333.499
333.409
325.958
326.026
326.116
326.21
326.304
326.391
326.468
326.531
326.576
326.599
326.599
326.576
326.531
326.468
326.391
326.304
326.21
326.116
326.026
325.958
318.532
318.58
318.644
318.712
318.778
318.841
318.896
318.941
318.973
318.989
318.989
318.973
318.941
318.896
318.841
318.778
318.712
318.644
318.58
318.532
311.124
311.153
311.191
311.232
311.272
311.309
311.343
311.37
311.389
311.399
311.399
311.389
311.37
311.343
311.309
311.272
311.232
311.191
311.153
311.124
303.728
303.737
303.75
303.764
303.777
303.79
303.801
303.81
303.816
303.82
303.82
303.816
303.81
303.801
303.79
303.777
303.764
303.75
303.737
303.728
358.304
358.45
358.63
358.816
358.998
359.167
359.316
359.437
359.522
359.566
359.566
359.522
359.437
359.316
359.167
358.998
358.816
358.63
358.45
358.304
350.418
350.542
350.697
350.858
351.015
351.162
351.292
351.396
351.47
351.509
351.509
351.47
351.396
351.292
351.162
351.015
350.858
350.697
350.542
350.418
342.581
342.684
342.815
342.951
343.084
343.209
343.318
343.407
343.469
343.502
343.502
343.469
343.407
343.318
343.209
343.084
342.951
342.815
342.684
342.581
334.787
334.869
334.976
335.087
335.196
335.298
335.388
335.46
335.511
335.538
335.538
335.511
335.46
335.388
335.298
335.196
335.087
334.976
334.869
334.787
327.027
327.091
327.173
327.26
327.345
327.424
327.494
327.55
327.59
327.61
327.61
327.59
327.55
327.494
327.424
327.345
327.26
327.173
327.091
327.027
319.295
319.34
319.398
319.46
319.521
319.578
319.627
319.668
319.696
319.711
319.711
319.696
319.668
319.627
319.578
319.521
319.46
319.398
319.34
319.295
311.582
311.609
311.644
311.681
311.718
311.752
311.782
311.806
311.823
311.832
311.832
311.823
311.806
311.782
311.752
311.718
311.681
311.644
311.609
311.582
303.881
303.89
303.902
303.914
303.927
303.938
303.948
303.956
303.962
303.965
303.965
303.962
303.956
303.948
303.938
303.927
303.914
303.902
303.89
303.881
360.798
360.933
361.098
361.268
361.433
361.586
361.72
361.828
361.905
361.944
361.944
361.905
361.828
361.72
361.586
361.433
361.268
361.098
360.933
360.798
352.572
352.686
352.828
352.975
353.119
353.251
353.368
353.462
353.528
353.562
353.562
353.528
353.462
353.368
353.251
353.119
352.975
352.828
352.686
352.572
344.398
344.493
344.613
344.737
344.858
344.971
345.069
345.149
345.205
345.233
345.233
345.205
345.149
345.069
344.971
344.858
344.737
344.613
344.493
344.398
336.269
336.346
336.443
336.545
336.644
336.736
336.817
336.882
336.928
336.951
336.951
336.928
336.882
336.817
336.736
336.644
336.545
336.443
336.346
336.269
328.178
328.237
328.312
328.392
328.469
328.54
328.603
328.654
328.689
328.708
328.708
328.689
328.654
328.603
328.54
328.469
328.392
328.312
328.237
328.178
320.116
320.157
320.211
320.268
320.323
320.374
320.419
320.455
320.481
320.494
320.494
320.481
320.455
320.419
320.374
320.323
320.268
320.211
320.157
320.116
312.075
312.099
312.132
312.166
312.199
312.23
312.257
312.278
312.294
312.301
312.301
312.294
312.278
312.257
312.23
312.199
312.166
312.132
312.099
312.075
304.046
304.054
304.065
304.077
304.088
304.098
304.107
304.114
304.119
304.122
304.122
304.119
304.114
304.107
304.098
304.088
304.077
304.065
304.054
304.046
363.461
363.585
363.736
363.891
364.04
364.179
364.299
364.396
364.464
364.499
364.499
364.464
364.396
364.299
364.179
364.04
363.891
363.736
363.585
363.461
354.869
354.975
355.105
355.239
355.369
355.489
355.593
355.677
355.736
355.767
355.767
355.736
355.677
355.593
355.489
355.369
355.239
355.105
354.975
354.869
346.335
346.422
346.532
346.645
346.755
346.857
346.945
347.016
347.066
347.092
347.092
347.066
347.016
346.945
346.857
346.755
346.645
346.532
346.422
346.335
337.849
337.919
338.009
338.102
338.192
338.275
338.347
338.405
338.446
338.467
338.467
338.446
338.405
338.347
338.275
338.192
338.102
338.009
337.919
337.849
329.404
329.458
329.527
329.599
329.669
329.734
329.79
329.836
329.867
329.884
329.884
329.867
329.836
329.79
329.734
329.669
329.599
329.527
329.458
329.404
320.99
321.028
321.078
321.129
321.179
321.225
321.266
321.298
321.321
321.333
321.333
321.321
321.298
321.266
321.225
321.179
321.129
321.078
321.028
320.99
312.599
312.622
312.651
312.682
312.713
312.74
312.765
312.784
312.798
312.805
312.805
312.798
312.784
312.765
312.74
312.713
312.682
312.651
312.622
312.599
304.222
304.229
304.239
304.25
304.26
304.269
304.277
304.284
304.288
304.291
304.291
304.288
304.284
304.277
304.269
304.26
304.25
304.239
304.229
304.222
366.264
366.378
366.517
366.658
366.793
366.918
367.026
367.113
367.174
367.205
367.205
367.174
367.113
367.026
366.918
366.793
366.658
366.517
366.378
366.264
357.284
357.381
357.5
357.622
357.74
357.848
357.942
358.018
358.07
358.097
358.097
358.07
358.018
357.942
357.848
357.74
357.622
357.5
357.381
357.284
348.367
348.447
348.548
348.651
348.751
348.843
348.922
348.986
349.031
349.054
349.054
349.031
348.986
348.922
348.843
348.751
348.651
348.548
348.447
348.367
339.504
339.569
339.651
339.736
339.817
339.892
339.957
340.01
340.046
340.065
340.065
340.046
340.01
339.957
339.892
339.817
339.736
339.651
339.569
339.504
330.687
330.736
330.8
330.866
330.929
330.988
331.038
331.079
331.107
331.122
331.122
331.107
331.079
331.038
330.988
330.929
330.866
330.8
330.736
330.687
321.904
321.939
321.984
322.032
322.077
322.119
322.155
322.184
322.204
322.215
322.215
322.204
322.184
322.155
322.119
322.077
322.032
321.984
321.939
321.904
313.147
313.168
313.195
313.223
313.251
313.276
313.298
313.315
313.327
313.333
313.333
313.327
313.315
313.298
313.276
313.251
313.223
313.195
313.168
313.147
304.405
304.412
304.421
304.431
304.44
304.448
304.456
304.462
304.466
304.468
304.468
304.466
304.462
304.456
304.448
304.44
304.431
304.421
304.412
304.405
369.138
369.243
369.37
369.499
369.622
369.735
369.832
369.91
369.964
369.992
369.992
369.964
369.91
369.832
369.735
369.622
369.499
369.37
369.243
369.138
359.749
359.838
359.947
360.059
360.166
360.264
360.348
360.416
360.463
360.487
360.487
360.463
360.416
360.348
360.264
360.166
360.059
359.947
359.838
359.749
350.433
350.507
350.599
350.694
350.784
350.867
350.939
350.996
351.036
351.056
351.056
351.036
350.996
350.939
350.867
350.784
350.694
350.599
350.507
350.433
341.181
341.24
341.316
341.393
341.467
341.535
341.594
341.641
341.674
341.69
341.69
341.674
341.641
341.594
341.535
341.467
341.393
341.316
341.24
341.181
331.982
332.028
332.086
332.146
332.204
332.257
332.303
332.339
332.365
332.378
332.378
332.365
332.339
332.303
332.257
332.204
332.146
332.086
332.028
331.982
322.825
322.857
322.899
322.942
322.983
323.021
323.054
323.08
323.098
323.108
323.108
323.098
323.08
323.054
323.021
322.983
322.942
322.899
322.857
322.825
313.698
313.718
313.743
313.768
313.793
313.816
313.836
313.851
313.862
313.868
313.868
313.862
313.851
313.836
313.816
313.793
313.768
313.743
313.718
313.698
304.59
304.596
304.605
304.613
304.622
304.629
304.636
304.641
304.645
304.647
304.647
304.645
304.641
304.636
304.629
304.622
304.613
304.605
304.596
304.59
371.902
371.999
372.116
372.234
372.347
372.449
372.538
372.608
372.657
372.682
372.682
372.657
372.608
372.538
372.449
372.347
372.234
372.116
371.999
371.902
362.09
362.172
362.273
362.376
362.474
362.563
362.64
362.701
362.744
362.766
362.766
362.744
362.701
362.64
362.563
362.474
362.376
362.273
362.172
362.09
352.374
352.443
352.528
352.615
352.698
352.774
352.839
352.891
352.927
352.946
352.946
352.927
352.891
352.839
352.774
352.698
352.615
352.528
352.443
352.374
342.742
342.797
342.867
342.938
343.006
343.068
343.122
343.165
343.194
343.209
343.209
343.194
343.165
343.122
343.068
343.006
342.938
342.867
342.797
342.742
333.179
333.222
333.276
333.331
333.384
333.433
333.475
333.508
333.531
333.543
333.543
333.531
333.508
333.475
333.433
333.384
333.331
333.276
333.222
333.179
323.671
323.701
323.74
323.78
323.818
323.852
323.882
323.906
323.923
323.931
323.931
323.923
323.906
323.882
323.852
323.818
323.78
323.74
323.701
323.671
314.203
314.221
314.244
314.268
314.291
314.312
314.33
314.344
314.354
314.359
314.359
314.354
314.344
314.33
314.312
314.291
314.268
314.244
314.221
314.203
304.758
304.764
304.772
304.78
304.788
304.795
304.801
304.806
304.809
304.811
304.811
304.809
304.806
304.801
304.795
304.788
304.78
304.772
304.764
304.758
374.072
374.163
374.273
374.384
374.489
374.585
374.668
374.733
374.778
374.802
374.802
374.778
374.733
374.668
374.585
374.489
374.384
374.273
374.163
374.072
363.859
363.936
364.031
364.128
364.22
364.304
364.375
364.433
364.472
364.493
364.493
364.472
364.433
364.375
364.304
364.22
364.128
364.031
363.936
363.859
353.796
353.86
353.941
354.023
354.101
354.172
354.233
354.282
354.316
354.333
354.333
354.316
354.282
354.233
354.172
354.101
354.023
353.941
353.86
353.796
343.857
343.909
343.975
344.042
344.107
344.165
344.215
344.255
344.283
344.297
344.297
344.283
344.255
344.215
344.165
344.107
344.042
343.975
343.909
343.857
334.018
334.058
334.11
334.162
334.212
334.258
334.297
334.328
334.35
334.361
334.361
334.35
334.328
334.297
334.258
334.212
334.162
334.11
334.058
334.018
324.256
324.285
324.321
324.359
324.395
324.428
324.456
324.478
324.494
324.502
324.502
324.494
324.478
324.456
324.428
324.395
324.359
324.321
324.285
324.256
314.549
314.566
314.588
314.61
314.632
314.651
314.668
314.682
314.691
314.696
314.696
314.691
314.682
314.668
314.651
314.632
314.61
314.588
314.566
314.549
304.873
304.879
304.886
304.894
304.901
304.908
304.913
304.918
304.921
304.923
304.923
304.921
304.918
304.913
304.908
304.901
304.894
304.886
304.879
304.873
)
;

boundaryField
{
    hotSide
    {
        type            fixedGradient;
        gradient        nonuniform List<scalar> 
400
(
458.894
460.8
464.615
470.345
477.998
487.583
499.114
512.601
528.059
545.5
564.938
586.384
609.849
635.343
662.875
692.453
724.081
757.766
793.512
831.32
462.495
464.372
468.131
473.78
481.328
490.79
502.18
515.516
530.813
548.09
567.361
588.642
611.946
637.284
664.667
694.102
725.597
759.157
794.787
832.488
466.391
468.235
471.927
477.478
484.903
494.219
505.446
518.605
533.719
550.807
569.889
590.984
614.108
639.273
666.492
695.774
727.125
760.552
796.058
833.647
470.519
472.323
475.938
481.377
488.659
497.808
508.849
521.808
536.714
553.592
572.466
593.358
616.286
641.265
668.309
697.428
728.629
761.917
797.296
834.769
474.763
476.522
480.05
485.364
492.488
501.451
512.286
525.028
539.709
556.361
575.013
595.689
618.412
643.199
670.064
699.016
730.064
763.214
798.467
835.825
478.946
480.658
484.093
489.272
496.228
504.996
515.616
528.131
542.58
559
577.427
597.887
620.406
645.002
671.69
700.48
731.381
764.397
799.53
836.78
482.829
484.493
487.835
492.882
499.671
508.246
518.656
530.95
545.175
561.375
579.587
599.843
622.171
646.59
673.115
701.758
732.525
765.421
800.446
837.6
486.124
487.745
491.004
495.931
502.571
510.975
521.199
533.299
547.328
563.335
581.362
601.444
623.608
647.877
674.266
702.786
733.442
766.238
801.174
838.25
488.536
490.124
493.319
498.155
504.682
512.956
523.039
534.993
548.875
564.739
582.629
602.582
624.627
648.787
675.077
703.507
734.083
766.808
801.682
838.701
489.814
491.384
494.544
499.331
505.796
513.999
524.007
535.882
549.686
565.473
583.29
603.174
625.157
649.259
675.496
703.879
734.414
767.102
801.942
838.932
489.814
491.384
494.544
499.331
505.796
513.999
524.007
535.882
549.686
565.473
583.29
603.174
625.157
649.259
675.496
703.879
734.414
767.102
801.942
838.932
488.536
490.124
493.319
498.155
504.682
512.956
523.039
534.993
548.875
564.739
582.629
602.582
624.627
648.787
675.077
703.507
734.083
766.808
801.682
838.701
486.124
487.745
491.004
495.931
502.571
510.975
521.199
533.299
547.328
563.335
581.362
601.444
623.608
647.877
674.266
702.786
733.442
766.238
801.174
838.25
482.829
484.493
487.835
492.882
499.671
508.246
518.656
530.95
545.175
561.375
579.587
599.843
622.171
646.59
673.115
701.758
732.525
765.421
800.446
837.6
478.946
480.658
484.093
489.272
496.228
504.996
515.616
528.131
542.58
559
577.427
597.887
620.406
645.002
671.69
700.48
731.381
764.397
799.53
836.78
474.763
476.522
480.05
485.364
492.488
501.451
512.286
525.028
539.709
556.361
575.013
595.689
618.412
643.199
670.064
699.016
730.064
763.214
798.467
835.825
470.519
472.323
475.938
481.377
488.659
497.808
508.849
521.808
536.714
553.592
572.466
593.358
616.286
641.265
668.309
697.428
728.629
761.917
797.296
834.769
466.391
468.235
471.927
477.478
484.903
494.219
505.446
518.605
533.719
550.807
569.889
590.984
614.108
639.273
666.492
695.774
727.125
760.552
796.058
833.647
462.495
464.372
468.131
473.78
481.328
490.79
502.18
515.516
530.813
548.09
567.361
588.642
611.946
637.284
664.667
694.102
725.597
759.157
794.787
832.488
458.894
460.8
464.615
470.345
477.998
487.583
499.114
512.601
528.059
545.5
564.938
586.384
609.849
635.343
662.875
692.453
724.081
757.766
793.512
831.32
)
;
    }
    coldSide
    {
        type            mixed;
        refValue        uniform 300;
        refGradient     uniform 0;
        valueFraction   uniform 0.991591;
        source          uniform 0;
        value           nonuniform List<scalar> 
400
(
300.024
300.024
300.024
300.024
300.025
300.025
300.026
300.026
300.027
300.028
300.029
300.03
300.031
300.033
300.034
300.036
300.037
300.039
300.04
300.041
300.024
300.024
300.024
300.024
300.025
300.025
300.026
300.027
300.027
300.028
300.029
300.03
300.031
300.033
300.034