/*--------------------------------*- C++ -*----------------------------------*\
| =========                 |                                                 |
| \\      /  F ield         | OpenFOAM: The Open Source CFD Toolbox           |
|  \\    /   O peration     | Version:  2212                                  |
|   \\  /    A nd           | Website:  www.openfoam.com                      |
|    \\/     M anipulation  |                                                 |
\*---------------------------------------------------------------------------*/
FoamFile
{
    version     2.0;
    format      ascii;
    arch        "LSB;label=32;scalar=64";
    class       volScalarField;
    location    "0";
    object      relativeErrorField;
}
// * * * * * * * * * * * * * * * * * * * * * * * * * * * * * * * * * * * * * //

dimensions      [0 0 0 1 0 0 0];

internalField   nonuniform List<scalar> 
3200
(
0.0128577
0.00811833
0.00279621
0.003794
0.00518895
0.0102413
0.00841286
0.0151529
0.00849399
0.0054648
0.0116679
0.00920946
0.00598566
0.00846659
0.00345042
0.0107429
0.000575035
0.00186827
0.0063268
0.0138754
0.0127989
0.00680164
0.00683713
0.0085205
0.0066444
0.0064153
0.00331804
0.00834626
0.00903644
0.01306
0.00651225
0.00346438
0.00836675
0.010764
0.00293619
0.00696794
0.00615223
0.000512491
0.000277767
0.013236
0.00907156
0.00652683
0.00296494
0.000481192
0.00632175
0.00359661
0.00224334
0.011195
0.00374474
0.00918743
0.00542138
0.00957069
0.00459109
0.00863787
0.00649317
0.00917752
0.00298787
0.00957913
0.000108136
0.00941101
0.00950382
0.00101991
0.00599334
0.000261374
0.00134098
0.0021603
0.00194673
0.00974483
0.00552483
0.00354049
0.00667407
0.00210987
0.00887315
0.00188331
0.0035442
0.00423646
0.000987376
0.00244982
0.0089803
0.00890188
0.00691181
0.00232035
0.00188532
0.00230851
0.00138131
0.00327931
0.0019086
0.00273475
0.00402088
0.00354312
0.00690138
0.00963538
0.0104888
0.00503584
0.00126788
0.00426909
0.00165411
0.000686078
0.00484468
0.00442463
0.00121733
5.9097e-05
0.000655273
0.00176725
0.00323158
0.00334419
0.00130995
0.00267978
0.000643612
0.000446349
0.00191731
0.000557226
0.00307749
0.000676992
0.00164903
0.00420633
0.00218061
0.00352846
0.00462394
0.00188319
0.00427925
0.00339333
0.00126828
0.00203501
0.00247736
0.00667905
0.000444981
0.00459094
0.0026468
0.000703114
0.00543484
0.00117758
0.00599128
0.00152686
0.00529644
0.00266225
0.00350558
0.00475262
0.00305648
0.00159042
0.000821081
0.00245906
0.00167034
0.000366307
0.00123832
0.00380398
0.00621824
0.00433618
0.00370672
0.0017356
0.00845814
0.000339262
0.00360533
0.00435549
0.00300036
0.00945151
0.00347118
0.00731011
0.00279465
0.00353026
0.00998739
0.0103364
0.00072654
0.00173006
0.00273128
0.0128605
0.0113854
0.00856209
0.00677109
0.00685201
0.0112326
0.0109618
0.00536932
0.00703738
0.00349764
0.00649523
0.0062509
0.00220697
0.00282931
0.0091962
0.0099551
0.00114152
0.00813079
0.00029244
0.00920305
0.000273773
0.0085908
0.00175402
0.0054412
0.000528146
0.00205582
0.00837018
0.00133851
0.00328072
0.000929499
0.00249638
0.00140128
0.00310153
1.01304e-05
0.00760708
0.0100637
0.00359909
0.000487518
0.00235711
0.00915092
0.00355537
0.00595434
0.000420107
0.00572435
0.0116858
0.00415356
0.0126679
0.00846929
0.00906325
0.00484104
0.00875838
0.00512496
0.000431157
0.00936167
0.00362127
0.0129757
0.00125098
0.00269569
0.00138759
0.00242282
0.00360574
0.00215521
0.00886864
0.00658232
0.00780414
0.000550992
0.00503946
0.00493464
0.00689089
0.00705471
0.00894533
0.00241896
0.00490451
0.000715278
0.00545037
0.0109907
0.000795668
0.00147044
0.00088613
0.00462955
0.00768316
0.00593484
0.00849136
0.000542699
0.00695172
0.000109115
0.00253938
0.00126298
0.000392347
0.00242088
0.00518069
0.000680953
0.00185314
0.00393612
0.006777
0.0104036
0.00172185
0.00332215
0.00106234
0.00171482
0.00622176
0.00893852
0.00798178
0.00552596
0.00253974
0.00152516
0.000709502
0.00892652
0.000423665
0.00181912
0.00118388
0.00242645
0.00617003
0.00145653
0.0019856
0.002643
0.00418673
0.00298843
0.00464808
0.00836514
0.00123134
0.00417471
0.002891
0.00252125
0.00188484
0.00216245
0.00514352
0.0015654
0.00673656
0.00150344
0.00415016
0.00343977
0.0024815
0.00298107
0.00452713
0.00293988
0.00027232
0.00264789
0.00594735
0.000519644
0.00321136
0.000761026
0.00410596
0.00525989
0.0010214
0.00252257
0.00568048
0.00250097
0.000886216
0.00183024
0.0044043
0.000992753
0.00805643
0.000953692
0.000225039
0.0105387
0.00119293
0.000206046
0.00559151
0.00932089
0.00990215
0.00641228
0.0118861
0.00747018
0.0117083
0.0127489
0.00673197
0.00803072
0.00246643
0.00894111
0.00265525
0.00298584
0.00021181
0.0028127
0.0152064
0.0177567
0.00749649
0.000386242
0.00435149
0.00654958
0.00856498
0.00357014
0.00201893
0.00857338
0.0103016
0.00313887
0.00936251
0.0101454
0.0067222
0.00101179
0.000942944
0.00869326
0.00152685
0.00490199
0.00832805
0.00495279
0.00401979
0.00463489
0.0018004
0.00257476
0.00927118
0.00934099
0.0010751
0.00285592
0.00691327
0.000501199
0.00541512
0.00441017
0.00195382
0.00224801
0.00342834
0.00293701
0.00340183
0.00118388
0.00279184
0.00795255
0.00327743
0.00321347
0.00131086
0.00312952
0.00870497
0.000415662
0.00198841
0.000688087
0.00363953
0.00784561
0.00288866
0.00294793
0.00134992
0.00200065
0.00531524
0.00197103
0.000244459
0.00149114
0.00631341
0.00957691
0.00612685
0.00527647
0.00163956
0.000398512
0.00387615
0.00625903
0.00417183
0.00495677
0.00197354
0.00535212
3.12052e-05
0.00256923
0.000920626
0.00498137
0.00825628
0.000741232
0.000127634
0.00082045
0.00629924
0.0035122
0.00759329
0.0018019
0.00245769
0.0082008
0.000397475
0.000308123
0.000852304
0.00342468
0.00784925
0.00241871
0.00360449
0.00572696
0.00229673
0.0018925
0.00251153
0.00227592
0.000292097
0.00479339
0.00313798
0.000797813
0.00761487
0.00196813
0.000824108
0.000111642
0.000116568
0.00680125
0.00341744
0.00525462
0.00626952
0.00134921
0.0032296
0.00295496
0.00273912
0.00600295
0.00284306
0.000396656
0.00111448
0.00323857
0.00345764
0.00238142
0.00223548
0.00593836
0.000645355
0.00200674
0.00308747
0.000675729
0.002261
0.00620216
0.00293897
0.00101925
0.00119482
0.00138726
0.00392807
0.00227795
0.0061014
0.00590355
0.00124696
0.000730713
0.000494026
0.012715
0.00801548
0.00371636
0.00651846
0.00187432
0.00141121
0.0060134
0.00361566
0.000955787
0.00478063
0.00984883
0.00933956
0.00893374
0.00816565
0.00930073
0.00477949
1.49569e-05
0.00442805
0.000995924
0.0123351
0.0104702
0.00143988
0.00114374
0.000201958
0.00644832
0.000348996
0.00569373
0.000184025
0.00759345
0.0015806
0.000800028
0.00355916
0.000175014
0.000954475
0.000132994
0.00687851
0.000103716
0.00178102
0.000190417
0.0030332
0.011143
0.00222582
0.00553121
0.0039382
0.000657006
0.00667191
2.82563e-05
0.0050221
0.00707616
0.00774832
0.00165674
0.00236425
0.00098393
0.0053154
0.00400598
0.000603779
0.001433
0.000934099
0.00411547
0.00665602
0.00881053
0.00449284
0.00797553
0.00161884
0.00458158
0.00279542
0.00276545
0.00554459
0.00204863
0.00238503
0.00604423
0.0045658
0.000933616
0.00104922
0.00399271
0.00454145
0.00361844
0.00212351
0.00758214
0.00579642
0.00475593
0.00242136
0.00675709
0.000691376
0.00416813
0.0018934
0.00385744
0.00126017
0.0126287
0.00313852
0.00378527
0.00627321
0.00510044
0.00382502
0.0026872
0.00230642
2.07789e-05
0.000620725
0.00163996
0.00299793
0.00421352
0.00720678
0.00634
0.00220624
0.00320495
0.00652238
0.00314772
0.00139735
0.00377468
0.00289366
0.00197391
0.0019925
0.00128547
0.000136437
0.000247284
0.00234251
0.000645416
0.000927388
0.00189399
0.00826021
0.0077067
0.000325006
0.00478463
0.0013171
0.00341889
0.000976943
0.00170991
0.000977866
0.00388458
0.00166379
0.000732371
0.00118268
0.00428142
0.00276755
0.000842773
0.000481458
0.00271019
0.000571012
0.001776
0.00134245
0.00536179
0.00301483
0.003521
0.000848262
0.00309007
0.00247678
0.00040773
0.0028617
0.00157746
0.00625653
0.00206846
0.00262381
0.000699932
0.0025165
0.00624
0.00183605
0.00556806
0.00498721
0.0041716
0.00387716
0.0132134
0.00728598
0.00681199
0.00042946
0.000234336
0.00655177
0.00799026
0.00204287
0.00347019
0.00352172
0.00400613
0.00658721
0.00236118
0.0022112
0.0032427
0.00207033
0.00316672
0.00113332
0.00509352
0.0182769
0.00927548
0.00646952
0.00391889
0.00148199
0.000710034
0.00938879
0.00798579
0.00100199
1.82575e-06
0.00325257
0.0101485
0.00352763
0.00723949
0.00349914
0.00164805
0.0032083
0.00522272
0.000794727
0.00341778
0.010218
0.0101534
0.0037518
0.0015006
0.00122475
0.00163304
0.00493742
0.0060834
0.00523665
0.00684643
0.00525271
0.00327276
0.00259672
0.000500139
0.000523998
0.00056665
0.00242323
0.00572327
0.00143443
0.00688462
0.00215338
0.00699584
0.00853199
0.0043853
0.00253513
0.00089859
0.00684824
0.00340004
0.00296963
0.00479265
0.000948263
0.00229245
0.00327823
0.000929858
0.00492229
0.00206054
9.49163e-05
0.00381039
0.00401931
0.00566393
0.00407382
0.0102913
0.00210439
0.00328577
0.00672915
0.00195626
0.000378984
0.000600523
0.00677712
0.00100655
0.000817156
0.00427208
0.000593053
0.00343217
0.0028132
0.000950972
0.00145181
0.00265967
0.00224447
0.00833343
0.00554725
0.00723116
0.00234459
0.0059739
0.00230153
0.00512859
0.000735374
0.0038605
0.00417455
0.00124202
0.00256102
0.00407476
0.00436156
0.0019289
0.00486497
0.00182233
0.000898145
0.00374221
0.00373519
0.00420431
0.00376806
0.0034905
0.00555959
0.0028103
0.00354318
0.00123274
0.000131322
0.000760521
9.64301e-05
0.00194973
0.00501948
0.000809441
0.00117038
0.00296249
0.00388396
0.00082923
0.00257549
0.000836956
0.000668438
0.000407325
0.00491795
0.000271946
0.00151155
0.00733311
0.00175929
0.00585444
0.00789333
0.000200429
0.00190119
0.000380464
0.000255614
0.00238626
0.00372661
0.00501467
0.00565844
0.000327011
0.00234533
0.00130203
0.0023773
0.00147338
0.00233129
0.00987088
0.00758334
0.00450355
0.00287781
0.00682891
0.00286536
0.00374086
0.00456373
0.00163775
0.00676352
0.000998318
0.00169648
0.000388197
0.00298153
0.00328783
0.00121249
0.000494596
0.00229139
0.00794536
0.00809495
0.00897679
0.00118675
0.00220074
0.000609838
0.00102844
0.00117361
0.00620526
0.00134251
0.00596189
0.00214492
0.000550454
0.00476288
0.000406471
0.00157931
0.000310642
0.00297897
0.00118747
0.00107476
0.000862598
0.0066503
0.0123621
0.00604036
0.00709629
0.00398358
0.00258842
0.00263992
0.000923568
0.00228045
0.000867561
0.00105456
0.000883738
0.000128689
0.00536296
0.00474171
0.00485724
0.000795893
0.00414861
0.0015469
0.0115847
0.00997472
0.0013476
0.00849076
0.00225913
0.000277384
0.000160554
0.00356506
0.00272464
0.00300852
0.00208073
0.00178656
0.00191497
0.00228993
0.00252934
0.00127805
0.00300974
0.000342029
0.00366625
0.00175889
0.00988667
0.00399826
0.00384699
0.00744901
0.000321603
0.000160677
0.00048365
0.00628773
0.00323287
0.00667504
0.00114486
0.00426496
0.000985685
0.000170696
0.00193474
0.000394221
0.000631351
0.00340032
0.000909042
0.00773933
0.00669058
0.00424897
0.00918279
0.00331622
0.00507962
0.00232399
0.00282783
0.00302357
0.00348928
0.00737519
0.00025729
0.000457792
0.00448622
0.00345799
0.000878927
0.00158974
0.00280628
0.00168885
0.00293668
0.00392768
0.00476832
0.00319773
0.00164942
0.00488682
0.00703612
0.0040278
0.00197864
0.00141272
0.00861029
0.00272158
0.00248631
0.00473174
0.0029319
0.00371587
0.000686506
0.0021217
0.00378157
0.000556433
0.00103897
0.000884512
0.00335968
0.00452376
0.000811739
0.00201509
0.00208862
0.00196981
0.00113817
0.000426783
0.00340678
0.00107229
0.00293574
0.000739859
0.00410694
0.00146196
0.00982533
0.00298947
0.00138751
0.00454251
0.00434069
0.000915521
0.000356827
0.000742865
0.0137552
0.00572688
0.0021693
0.00115184
0.00333313
0.00433037
0.00275728
0.00710603
0.00309582
0.0036988
0.00283015
0.00417756
0.00124131
0.00136608
0.00345561
0.00438185
0.000664259
0.00147702
0.00953365
0.0149989
0.0140334
0.00624995
0.000741929
0.00868168
0.00435097
0.00357108
0.00582136
0.00431568
0.00237541
0.00123891
0.00220018
0.00496164
0.00468383
0.000905429
0.00118372
0.00491915
0.0057245
0.003029
0.00810665
0.00896711
0.00763495
0.00906575
0.00596206
0.00338243
0.00592588
0.00378694
0.00621161
0.00572422
0.00337469
0.00129492
0.00127705
0.00399842
0.00484691
0.00126246
0.00200403
0.00107116
0.00254494
0.00568162
0.0016955
0.00899471
0.00295272
0.00626181
1.48653e-05
6.17376e-05
3.28128e-06
0.00540098
0.000889547
0.00049414
0.0019308
0.000146768
0.00730229
0.00127584
0.00245808
0.000101456
0.000735936
0.00597197
0.00295308
0.00511919
0.00660925
0.00997159
0.014408
0.00785075
0.00339009
0.000157437
0.000206679
0.00241339
0.000205915
0.00190588
0.00528769
0.0027129
0.0034872
0.0112976
0.00282617
0.00498279
0.00246248
0.00144429
0.00657501
0.00229892
0.00121798
0.00448857
0.000287007
0.00704877
0.00468954
0.00426925
0.00261218
0.00424257
0.00113665
0.00503463
0.00380558
0.000106799
0.00078698
0.00199172
0.00484214
0.000983259
0.000901821
3.45828e-05
0.00100513
0.00696679
0.00165643
0.0020818
0.00152621
0.00400586
0.00553524
0.0058854
0.000480666
0.00493972
0.00186854
0.00151988
0.00140655
0.00405329
0.0021616
0.00223996
0.00112221
0.00546195
0.000785361
0.00321049
0.00255492
0.00150322
0.00710886
0.00503902
0.00280685
0.00564926
0.00065291
0.00304483
0.00094425
0.00109903
0.00576718
0.00511201
0.00340917
0.00294222
0.00232536
0.000242085
5.05668e-05
0.0023154
0.00325175
0.0069544
0.006459
0.00289441
0.00237303
0.00858427
0.00814274
0.00628602
0.00771906
0.00412981
0.00358816
0.00118506
0.00089366
0.00308095
0.00953612
0.000347346
0.0069153
0.00689881
0.00298128
0.00495295
0.00050227
0.000365657
0.00533466
0.00627766
0.0121669
0.0155208
0.00974152
0.000285667
0.0080779
0.0010669
0.00208224
0.000717374
0.00317955
0.000731934
0.00719879
0.000201733
0.00129994
0.0108548
0.000320683
0.00233346
2.30698e-05
0.00139471
0.000577774
0.00476126
0.00036836
0.00902549
0.00625047
0.00921317
0.00839984
0.00413017
0.00186032
5.96277e-05
0.00194593
0.00492514
0.00379751
0.00102599
0.00770756
0.00284433
0.00434034
0.000114136
0.00196628
0.00463611
0.00376579
0.00579052
0.00871263
0.0129465
0.0052466
0.000873029
0.000197506
0.00181112
0.000415315
0.000365926
0.0057449
0.00102578
0.000640283
0.00852764
9.47788e-06
0.00101739
0.00456856
0.00468353
0.00417775
0.00423639
0.00479013
0.0034522
0.00717884
0.0100038
0.0079619
0.000526583
0.00195413
0.00444711
0.00329668
0.00283405
0.00489663
0.00214323
0.00494907
0.00471162
0.00875538
0.0016151
0.00545709
0.000995687
0.00239191
0.00494704
0.00590493
0.00227435
0.00345109
0.00903636
0.00569657
6.98229e-05
0.00188289
0.00191389
0.00523799
0.00316871
0.000501201
0.00235848
0.00197667
0.00127232
0.0045252
0.0024724
0.00109985
0.00336192
0.000157561
0.000638229
0.00247605
0.00320143
3.90781e-05
0.0010147
0.00795156
0.00585779
0.00428035
0.00186776
0.00962556
0.00652061
0.000215056
0.00472153
0.00373054
0.00783311
0.00445372
0.00188094
0.00108908
0.00028604
0.00164342
0.000227894
0.00508101
0.00468629
0.00179597
0.00211907
0.00256927
0.000153302
0.000175507
0.00046993
0.00345221
0.000978154
0.00428726
0.00150497
0.000531505
0.00286127
0.00376109
0.00184436
0.000992713
0.000568688
0.00144585
0.00176468
0.0026545
0.00298608
0.0060381
0.00384174
0.0139937
0.00845781
0.000601229
1.0048e-05
0.00157704
0.00705912
0.00140634
0.000212022
0.00422373
0.00320096
0.00983584
0.00746847
0.00679181
0.0042649
0.000182142
0.00107035
0.000247529
0.00280829
0.00582229
0.016761
0.012418
0.00709656
0.00488258
0.000307448
0.00322417
0.00437592
0.00110549
0.00359169
0.00573257
0.000476325
0.00507779
0.00246756
0.00841001
0.00588668
7.5764e-05
0.000272876
0.00783975
0.00354877
0.0112568
0.0115675
0.0100539
0.0120089
0.00196224
0.000176488
0.000282804
0.00556171
0.00512287
0.0019477
0.00299917
0.00895737
0.00676753
0.00222478
0.000248295
0.00219577
0.000513738
0.000398251
0.00197066
0.00200017
0.00590658
0.011327
0.00726724
0.0121218
0.00274528
0.00202504
0.00306383
0.00244958
0.00412693
0.00427974
0.00185015
0.00461023
0.00230173
0.000745328
0.0054981
0.00256853
0.000603916
0.00615872
0.00245124
0.00405884
0.0023836
0.00785137
0.0054547
0.0050157
0.00508593
0.00217178
0.00478278
0.0035992
0.000867018
0.00117235
0.00248732
0.00463302
0.000682132
0.00112151
0.00640589
0.00404055
0.00273823
0.00631473
0.00203433
0.000608505
0.000174353
0.00620928
0.000744246
0.00196189
0.00501229
0.00463965
0.00290586
0.00123268
0.000998411
0.000692913
0.00149822
0.00249308
0.00138573
0.00318765
0.00122534
0.000200432
0.000428082
0.0049592
0.000511104
9.00723e-05
0.00255684
0.00174243
0.00349492
0.000777991
0.00340036
0.0035195
0.00541383
0.00277001
0.00643911
0.0044393
0.000158797
0.000863094
0.000967129
0.000529243
0.0002075
0.00128267
0.00390376
0.00807789
0.000970163
0.00434663
0.00160753
0.00685216
0.000500478
0.000305705
0.00124424
0.00586889
0.00845784
0.000279687
0.000465133
0.00324478
0.00297375
0.00528719
0.00765866
0.00599665
0.000149324
0.00537727
0.00280086
0.0017987
0.000308784
0.000600278
0.00934562
0.00327413
0.00976717
0.00686436
0.00606152
0.000642325
0.00336673
0.000442614
0.000229393
0.00253781
0.010198
0.0103716
0.016496
0.0146401
0.00441489
0.00316352
0.00474121
0.00387747
0.00890463
0.00477821
0.0190813
0.00834182
0.00584853
0.00155242
0.00460196
0.000662771
0.00196097
0.000514382
0.00240496
0.00156309
0.00672331
0.000580798
0.00195136
0.00683481
0.00079551
0.00838433
0.0014852
0.00893604
0.00119588
0.00325662
0.00102909
0.0183397
0.0137017
0.00557882
0.00606284
0.00481754
0.0034902
0.00614664
0.00214997
0.00670618
0.00197309
0.00202846
0.0104828
0.00743397
0.00763854
0.00566096
0.00145053
0.00712597
0.00159802
0.00862104
0.00838262
0.00542895
0.00676976
0.0065364
0.00423365
0.00166833
0.00180333
0.00120755
0.0015281
0.000500852
0.00510804
0.00279315
0.00513112
0.00561341
0.00450682
0.00471598
0.0014557
0.00221212
0.00544551
0.00055606
0.010436
0.007179
0.00765282
0.00478024
0.00361388
0.000497843
0.00154193
0.00426945
0.000320247
0.00221058
0.00123634
0.000446678
0.00459333
0.0101365
0.00278442
0.0017692
0.00244075
0.00413104
0.00117904
0.00752638
0.00742938
0.00673009
0.00970772
0.000469238
0.00328452
0.00298082
0.00590339
0.00853888
0.00489608
0.000917556
0.00368263
0.000954974
0.000412456
0.00113618
0.00424864
0.00807083
2.85394e-05
0.00180885
0.00250738
0.00191849
0.000866294
0.00683765
0.00393894
0.00856783
0.00135094
0.00631164
0.00281118
0.00269842
0.000305175
0.00480413
0.00148116
0.000549634
0.00280862
0.00446806
0.00743923
0.00667884
0.00245344
0.00184041
0.00235032
0.00039391
0.000304552
0.00239561
0.000357816
0.00297528
0.00258718
0.00511581
0.00295216
0.000137565
0.000588723
0.000676709
0.00555621
0.0049256
0.000545106
0.00361723
0.000638682
0.00106316
0.00197799
0.00176554
0.0019217
0.000993276
0.00305709
0.00681256
0.0107999
0.00804268
0.0118084
0.000196298
0.00396979
0.0036404
0.00122089
0.00658871
0.00550066
0.00452125
0.00380236
0.00790542
0.01316
0.000161873
0.000427341
0.000748279
0.00801318
0.0070415
0.00766034
0.0063269
0.0111091
0.000478414
0.00408098
0.00010918
0.00598067
0.000832727
0.00532229
0.000444148
0.00294075
0.00227199
0.00117121
0.00635367
0.000779548
0.0103371
0.00125587
0.000682927
0.000926499
0.00782207
0.00222597
0.0106072
0.0172336
0.0095824
0.0063717
0.00203433
0.00373826
0.000217211
0.0036464
0.000123497
0.00107789
0.012508
0.00889924
0.00219522
0.0061289
0.0015861
0.0014928
0.00472366
0.00896638
0.00202873
0.0049118
0.00951326
0.00929737
0.00562364
0.00716608
0.00940445
0.00257029
0.00542222
0.00117409
0.000450544
0.00202243
0.0051208
0.00534075
0.000702963
0.00601409
0.00397978
0.00274975
0.00296118
0.00635403
0.000290667
0.00542257
0.010587
0.00441157
0.00382349
0.0122279
0.00467984
0.00289418
0.00465203
0.00525674
0.00247957
0.000524889
0.00603655
0.00466361
0.00548135
0.000477389
0.000680165
0.00196947
0.000527428
0.00447531
0.00163818
0.00863256
0.00278584
0.00601368
0.00326999
0.00621867
0.00352354
0.00247649
0.000181087
0.00864375
0.0019067
0.00333381
0.00467274
0.0102105
0.000118085
0.00107533
0.000197449
0.00509388
0.00588556
0.0048421
0.00664227
0.00352204
0.00282318
0.00632134
0.000778656
0.00302703
0.00188043
0.000756357
0.00370291
0.00324449
0.000696473
0.00563534
0.0029073
0.00133858
0.000559644
0.00201388
0.00156635
0.0048061
0.00675035
4.13634e-05
0.00113143
0.00278625
0.000648801
0.00189738
0.00146518
0.00236237
0.002113
0.00480247
0.00343427
0.0038106
0.00524584
5.05707e-05
0.00145014
0.00239059
0.002292
0.00725586
0.0021792
0.00275336
0.00435515
0.00108591
0.00929216
0.00067164
0.00151494
0.0123034
0.00974427
0.00353034
0.00224561
0.0094137
0.00223878
0.00121523
0.0047167
0.00501368
0.0105437
0.0129281
0.0132713
0.00555222
0.00797349
0.00633017
0.00173583
0.00121334
0.00213503
0.0108035
0.0105688
0.0102147
0.00971418
0.00307414
0.00150346
6.13777e-05
0.00883139
0.000510576
0.00250894
0.00319036
0.00867944
0.00588663
0.00449725
0.00407722
0.000376614
0.0043376
0.00265791
0.00259404
0.00549573
0.00169627
0.0168252
0.00883358
0.00923451
0.00465765
0.00524451
0.00197062
0.00482049
0.00312236
0.002751
0.00113357
0.00712151
0.00224103
0.0103335
0.0058098
0.00704846
0.00381614
0.00189689
0.000464057
0.0129617
0.00466746
0.00808274
0.00733513
0.00975158
0.000652754
0.00262475
0.00145093
0.00154155
0.00305079
0.000472795
0.00139879
0.0054639
0.0123227
0.00912791
0.00543348
0.000665895
0.00568067
0.00650118
0.0103636
0.00447867
0.000814186
0.0112533
0.00705593
0.00594358
0.00388176
0.00447168
0.00183182
0.00391903
0.000983976
0.0103196
0.000563494
0.001285
0.0087879
0.00508756
0.00331223
0.00258895
0.0042714
0.00287106
0.00125251
0.00685123
0.00456551
0.00907816
0.00397865
0.00470729
0.00297613
0.00206177
0.0072745
0.00309481
0.00491563
0.000532815
0.0038354
0.000533772
0.000628207
0.00647722
0.00577203
0.00064572
0.00528026
0.00217977
0.000526399
0.00186527
0.00398707
0.0039561
0.00382958
0.00156419
0.000975556
0.000188788
0.00258024
0.00346269
0.00379176
0.00167132
0.00384754
0.00476422
0.00605916
0.00504664
0.00121359
0.00370246
0.00227829
0.0017447
0.00274788
0.000346859
0.00499255
0.00393556
0.00212619
0.00440528
0.00509751
0.00551911
0.00565068
0.00101662
0.00134148
0.00138457
0.00387412
0.00252101
0.00600032
1.25337e-05
0.00200901
0.00731657
0.000446367
0.00482848
0.0020386
0.00743326
0.00271313
0.00366089
0.0127382
0.00465419
0.00345471
0.000306729
0.00656161
0.00559459
0.0033927
0.00214786
0.00710519
0.00783224
0.00428829
0.0104201
0.00213734
0.000696024
0.00432253
0.004145
0.00223669
0.00494422
0.00535105
0.00661512
0.0121317
0.00061598
0.00892858
0.000585053
0.00345013
0.00103204
0.000912404
0.000943067
0.00855115
0.0013504
0.000756259
0.00392223
0.000857872
0.000847303
0.000407754
0.00113749
6.10549e-05
0.00752952
0.000951192
0.00527098
0.00857243
0.00592447
0.00591574
0.00885798
0.0036766
0.001586
0.000130703
0.00740806
0.0044004
0.00237158
0.0035023
0.0024821
0.00722161
0.00130107
0.00518014
0.000974256
0.007077
0.00766246
0.000495177
0.00575931
0.00540846
0.00662977
0.00101272
0.000293947
1.07012e-05
0.00284904
0.000551859
0.0027198
0.000410817
0.00347056
0.00322077
0.00990691
0.00513365
0.00587096
0.00358667
0.00150645
0.000277867
0.00320198
0.00253824
0.00474664
0.00914799
0.00157929
0.00414808
0.00438984
0.00244888
0.00497889
0.00229883
0.000843547
0.00137258
0.00145597
0.0105719
0.00418517
0.00113592
0.00396129
0.00185724
0.00106879
0.000126856
0.000484039
0.00112643
0.00147259
0.0086339
0.00081596
0.001194
0.00520949
0.00153515
0.00397457
0.00194264
0.00793375
0.00215634
0.00287523
0.00425941
0.00358465
0.00116085
0.00283724
0.00025762
0.00282105
0.00168205
0.000939931
0.000422048
0.00532168
0.00576947
0.00302471
0.00220552
0.00239597
0.00565306
0.00172253
0.0069993
0.000872422
0.00163576
0.00145894
0.000468679
0.00130667
0.00125122
0.00141611
0.000500379
0.000731018
0.00187557
0.000865037
0.00302414
0.00538217
0.00460833
0.00176399
0.00300379
0.00924576
0.00142743
0.00552041
0.00360966
0.000198565
0.00181404
0.00095559
0.00155556
0.000560625
0.000886208
0.00563084
4.0196e-05
0.00176693
0.000680501
0.00511768
0.00562758
0.00957832
0.00949915
0.00467394
0.00534763
0.00166443
0.00315232
8.85416e-05
0.00128235
0.000433238
0.0050153
0.00741301
0.00393104
0.00127909
0.00205303
0.00154039
0.00250827
0.00474373
0.00367998
0.000588488
0.00682703
0.00593842
0.00887236
0.00382453
0.0029447
0.00114771
0.00182851
0.00819567
0.00318326
0.00143265
0.00211137
0.00494048
0.00107598
0.00586237
0.0045142
0.00155711
0.00273799
0.00273392
0.00301367
0.00447908
0.00324155
7.99869e-05
0.00724482
0.00710271
0.00188344
0.00222335
0.000888005
0.00162437
0.00420038
0.00209418
0.00154269
0.00573861
0.00473845
0.00530081
0.00649249
0.000886539
0.00164876
0.00446209
0.00189084
0.00336927
0.00215318
0.0042636
0.00450793
0.00234328
0.00281133
0.00161617
0.00264041
0.000207637
0.00102844
0.00155434
0.00229729
0.00317804
0.00273421
0.00345111
0.00517383
0.00151414
0.00191958
0.00228563
7.20724e-05
0.00207366
0.00483599
0.00408001
0.00115245
0.0017329
0.00233477
0.000122344
0.00298658
0.00571507
0.00463028
0.00141646
0.00303694
0.00113192
0.00315356
0.00262363
0.00118114
5.47514e-05
0.00434844
0.00571987
0.00428063
0.00256015
0.00587734
0.00928682
0.00442919
0.00210424
0.00140695
0.00235233
0.00243525
0.00222941
0.00155292
0.00112787
6.58326e-06
0.00288232
0.00301553
0.00664412
0.00336955
0.00717736
0.00234268
0.003306
0.0045982
0.0041999
0.00299267
0.00768947
0.00589201
0.00164365
0.0037029
0.00228607
0.00261582
0.00287387
0.00783704
6.46367e-05
0.00574567
0.00454375
0.00266829
0.00177801
0.00415187
0.00192511
0.00539666
0.00653878
0.00053628
0.00419611
0.000625985
0.00853399
0.00334281
0.00685709
0.000874864
0.00175775
0.00457391
0.00508224
0.000407074
0.00523533
0.00668823
0.0010369
0.00653202
0.00666995
0.00194573
0.00369524
0.00858119
0.0093301
0.00415793
0.00162901
4.76241e-05
0.00251412
0.00539019
0.00475627
0.00593599
0.000786505
0.00425662
0.00468425
0.00433866
0.00236512
0.00152437
0.00204964
0.000603941
0.00387245
0.000392684
0.00129173
0.00401499
0.00555724
0.000251068
0.000445464
0.00243595
0.006295
0.0123005
0.000271066
0.00122339
0.00123144
0.00412823
0.00087568
0.000120589
0.000351965
0.00134265
0.00108812
0.000716201
0.00570419
0.000673713
0.00105705
0.000515689
0.000546267
0.00040617
0.000205463
0.000197739
0.0124888
0.00647966
0.0102773
0.00147089
0.00175158
0.00163467
0.0032805
7.26261e-05
0.00245453
0.00380335
0.00503977
0.00330626
0.00101576
0.00188184
0.00201315
0.00624302
0.00452126
0.00167705
1.39043e-05
0.0027422
0.00651472
0.002528
0.00964646
0.00174309
0.00233685
0.00256163
0.00150149
0.00214876
0.00521959
0.00145343
0.000449256
0.0023161
0.00683679
0.00127326
0.00324822
0.00102187
0.00213571
0.00327914
0.000355989
0.00700903
0.00690355
0.0055136
0.00453736
0.00285957
0.00258567
0.000215129
0.00307881
0.00121354
0.00243231
0.00237492
0.00483011
0.0100622
0.000311649
0.00114976
0.00398304
0.00349249
0.00410484
0.00157208
0.00162291
0.0013463
0.00755682
0.0025657
0.00262581
0.006029
0.0038045
0.00077863
0.0027753
0.0040544
0.00635253
0.0023731
0.00613788
0.00889513
0.000308191
0.00374068
0.00156087
0.00223638
0.002943
0.00350581
0.00245209
0.001686
0.00471042
0.00212175
0.00730472
0.0019928
0.00281123
0.00330363
0.00541182
0.00170079
0.000939436
0.00241908
0.00311694
0.0020767
0.00362798
0.0037858
0.00405105
0.00242672
0.00674928
0.00503064
0.00641239
0.00368702
0.00659199
0.000181265
0.00361205
0.00143364
0.006933
0.00752906
4.295e-05
0.00325755
0.00133261
0.00466118
0.000437097
0.00222374
0.00483739
0.00452951
0.00346474
0.00388432
0.00258916
0.00342593
0.00889009
0.00479283
0.00730783
0.000545233
0.000613472
0.00299021
0.00463266
0.0066652
0.00466521
0.00367014
0.00698447
0.0035846
0.00113325
0.000125438
0.00062783
0.00319635
0.000876392
0.00218137
0.00590483
0.00477655
0.0039134
0.000370475
0.00617058
0.00804834
0.00802463
0.000470186
0.00642409
0.00116813
0.00232034
0.000429864
0.00116951
0.000826472
0.00118337
0.000360969
0.000320706
0.000809899
0.00714531
0.00446093
0.0030023
0.00127185
0.000531157
0.0011793
0.0112758
0.00479735
0.00190202
0.00365304
0.00177608
0.00177397
0.00353302
0.00188201
9.55995e-05
0.00507493
0.00196574
0.00512268
0.00108889
0.000367736
0.000935144
0.00289049
0.00126079
0.00295774
0.00454431
0.00454535
0.00236969
0.00844947
0.00483866
0.0044229
0.00357134
0.0017068
0.00119036
0.00570478
0.00342669
0.000490826
0.00102562
0.00287681
0.00496622
0.00542594
0.000728908
0.00103144
0.00135857
0.0054949
0.000492413
0.00263255
0.00419437
0.00238354
0.00233081
0.000714819
0.000641058
0.00167502
0.00151023
0.00141156
0.00193873
0.00318595
0.000302496
4.34464e-05
0.00046088
0.000926426
0.000368239
0.00447523
0.00292109
2.27875e-05
0.000125929
0.00102012
0.0038181
0.00247133
0.00136312
0.00371889
0.000258699
0.00120218
0.00115896
0.00434718
0.00104073
0.00626693
0.00126845
0.00335145
0.000280204
0.00608478
0.00328556
0.00865614
0.000531663
0.000618163
0.000660359
0.000365101
0.00724052
0.000850534
0.000702547
0.00475759
0.000791927
0.00187645
0.000102507
0.00108174
0.000829797
0.000750877
0.00182909
0.00704011
0.000476484
0.000506487
0.000874508
0.00522088
0.000761064
0.00359386
0.00769221
0.00770369
0.0021908
0.00267401
0.00221169
0.00866966
0.00847559
0.00127928
0.00286746
0.00291117
7.8688e-05
0.00192677
0.000217027
0.00249912
0.0056885
0.00750013
0.000447202
0.000224712
0.000933683
0.00271259
0.00275302
0.00532977
0.00141918
0.00248416
0.00433569
0.00372508
0.00882089
0.00135073
0.00726694
0.00655107
0.000756698
0.00159048
0.00111106
0.00625437
0.00503259
0.0015957
0.000133267
0.00385527
0.00842551
0.00689632
0.00447279
0.00410901
0.0029815
0.0037039
0.000728493
0.00422796
0.000718226
0.000520115
0.000480438
0.00958808
0.00253137
0.0013066
0.000641629
0.000762638
0.00250979
0.000815092
0.00463079
0.000301758
0.0076796
0.000266084
0.00244851
6.01104e-05
0.00183701
1.33326e-07
4.68573e-05
0.0104414
0.00214047
0.00133186
0.00562562
0.000534777
0.00554424
0.00107464
0.00578571
0.000374666
0.00188007
0.0121472
0.00406408
0.00101895
0.00877047
0.00453199
0.00468735
0.00223217
0.000763976
0.00164097
0.00342322
0.00328925
0.00154115
0.00293137
0.00382857
0.00418416
0.00393317
0.00500577
0.00300785
0.00239318
0.00514226
0.00150207
0.00753913
0.00766111
0.00839883