/*--------------------------------*- C++ -*----------------------------------*\
| =========                 |                                                 |
| \\      /  F ield         | OpenFOAM: The Open Source CFD Toolbox           |
|  \\    /   O peration     | Version:  2212                                  |
|   \\  /    A nd           | Website:  www.openfoam.com                      |
|    \\/     M anipulation  |                                                 |
\*---------------------------------------------------------------------------*/
FoamFile
{
    version     2.0;
    format      ascii;
    arch        "LSB;label=32;scalar=64";
    class       volScalarField;
    location    "0";
    object      stateMean;
}
// * * * * * * * * * * * * * * * * * * * * * * * * * * * * * * * * * * * * * //

dimensions      [0 0 0 1 0 0 0];

internalField   nonuniform List<scalar> 
3200
(
346.947
346.336
345.793
344.912
345.861
345.502
347.432
346.155
349.29
350.779
348.591
349.038
349.377
347.413
347.873
343.93
346.027
344.185
345.721
347.296
341.22
340.055
341.18
337.174
339.049
340.342
342.526
341.741
342.189
341.16
343.423
344.113
341.734
339.967
341.533
338.939
337.98
339.037
337.852
341.367
334.263
334.13
333.882
333.755
332.85
334.792
336.196
333.973
337.071
335.536
336.811
335.1
336.203
334.041
333.818
331.894
332.918
329.706
331.999
334.375
328.69
326.496
324.964
327.671
329.058
328.749
329.595
327.669
329.539
330.447
329.408
330.671
327.957
329.616
328.293
327.225
328.081
327.724
329.092
328.494
322.135
321.102
321.553
322.339
321.82
321.862
324.141
323.147
323.099
323.449
322.359
321.277
320.634
321.895
322.512
320.889
322.129
320.728
321.911
321.34
313.86
314.533
314.766
315.992
314.891
315.322
316.396
316.324
317.642
317.436
316.969
317.615
316.198
316.597
315.858
314.583
314.747
316.083
313.098
314.835
309.878
307.694
309.386
309.901
308.791
307.77
309.96
308.891
309.652
310.34
308.87
310.108
308.457
310.571
311.48
310.382
308.188
310.463
307.798
309.049
302.62
303.676
302.509
303.219
303.579
304.452
305.272
302.142
304.636
304.066
300.972
303.614
304.552
302.064
304.208
300.338
304.16
305.23
302.084
303.938
346.062
347.188
344.656
345.692
346.765
344.622
346.411
348.478
349.893
350.279
348.734
348.416
349.6
347.934
347.891
345.457
344.126
345.668
344.608
345.791
340.347
337.449
341.687
340.228
338.219
342.475
340.73
344.018
343.427
345.849
344.955
342.416
344.161
342.555
342.887
340.509
339.652
337.88
337.832
339.556
334.663
333.223
333.114
333.177
331.939
334.831
334.961
337.617
336.399
334.683
337.233
334.05
334.898
333.913
334.399
332.071
332.252
332.808
335.136
332.529
329.88
326.625
327.851
328.251
327.852
328.294
330.962
327.962
329.187
329.028
331.433
329.698
329.264
327.974
327.158
325.708
327.003
328.574
325.984
327.429
323.486
320.146
321.457
321.912
320.797
320.456
325.454
321.285
324.226
322.339
324.63
323.578
323.628
323.407
322.155
320.619
321.846
321.58
321.662
322.137
317.546
315.124
316.044
315.792
316.471
314.423
313.986
314.645
315.684
316.768
317.091
317.213
314.346
316.952
315.816
315.555
316.222
313.054
315.04
313.652
309.393
310.053
308.086
310.723
306.979
310.228
311.397
309.42
309.691
311.141
309.884
308.877
309.831
308.013
310.312
310.854
308.221
309.776
309.68
309.974
301.986
303.019
302.218
304.915
303.366
302.327
303.617
302.213
301.915
303.849
304.305
301.787
302.7
303.117
302.746
301.873
303.413
305.461
302.648
302.944
346.449
344.226
345.136
344.487
344.577
345.728
348.197
347.326
349.643
348.553
348.186
349.903
348.681
349.58
346.064
346.895
345.39
345.138
344.783
348.049
343.148
340.525
338.937
338.763
339.215
339.699
342.495
343.942
342.344
342.094
344.57
342.071
341.142
341.411
342.981
341.129
337.286
338.55
339.648
339.969
333.114
333.495
334.612
333.46
334.219
332.965
333.852
337.41
337.369
336.29
338.801
336.503
336.283
336.342
335.325
336.231
333.08
334.201
332.553
332.397
328.361
327.394
328.115
327.446
327.681
326.658
330.414
330.251
331.14
330.403
329.008
330.411
329.934
329.831
328.868
326.963
327.23
327.144
326.811
327.827
323.124
322.448
322.752
322.216
322.466
321.72
321.53
322.694
322.794
323.949
322.853
324.412
323.213
323.853
321.363
319.677
321.927
321.017
320.747
322.075
315.444
317.03
315.618
314.726
313.373
316.291
316.735
317.453
316.351
315.079
316.804
316.294
315.367
316.105
315.818
315.17
314.783
314.958
316.149
315.326
308.862
311.147
309.649
309.566
309.625
309.898
308.002
311.383
308.843
308.607
310.135
309.471
309.405
310.96
308.002
310.47
309.188
308.697
307.796
309.683
303.61
303.626
301.231
303.317
302.607
302.37
303.594
302.774
305.393
304.43
303.847
303.874
303.039
304.581
303.997
301.365
304.91
303.409
302.728
302.739
347.495
346.847
346.59
344.369
347.331
348.813
348.413
350.272
352.622
350.991
349.204
348.995
348.402
347.659
346.057
346.32
346.623
343.778
344.432
347.365
340.95
338.714
339.666
340.49
339.39
342.618
341.832
344.609
342.692
345.106
345.929
344.085
344.732
343.461
342.692
339.243
340.456
339.882
338.163
338.44
335.384
333.1
335.088
335.527
334.982
333.926
337.067
336.107
335.95
336.005
338.068
337.544
337.471
335.265
334.822
335.404
334.69
332.934
333.728
333.896
328.819
327.955
329.819
328.53
327.303
328.678
329.412
329.099
330.696
330.817
329.604
329.862
330.625
329.978
328.283
327.316
329.186
327.904
328.963
327.836
321.719
319.835
319.001
322.007
321.07
323.641
322.344
324.473
320.311
325.608
323.36
322.373
322.412
322.354
322.161
323.158
321.792
320.972
321.137
321.156
315.763
317
317.129
314.873
315.006
318.521
315.863
317.64
316.244
316.652
318.198
316.809
316.789
316.817
316.379
315.279
315.365
314.839
314.136
317.035
311.054
308.95
310.568
309.759
310.681
310.189
309.597
310.633
309.271
310.037
310.327
310.844
309.001
309.269
309.625
309.771
308.514
308.913
308.301
308.261
301.284
302.054
301.98
303.392
302.289
302.563
303.271
304.331
303.033
301.639
304.166
302.716
303.251
302.632
305.207
302.669
301.447
304.558
301.703
304.082
348.071
346.97
347.991
346.762
348.295
347.191
347.841
350.899
351.1
353.937
351.282
350.002
350.787
349.868
348.348
347.492
345.812
345.245
346.215
349.811
340.895
340.738
340.895
340.161
341.55
339.671
341.149
345.082
345.349
346.793
342.161
344.13
342.241
342.692
342.325
340.696
338.887
339.294
339.705
341.213
335.35
333.879
332.987
334.008
334.823
334.638
335.096
336.089
336.056
336.865
337.536
339.252
338.027
337.324
336.107
334.558
332.504
333.965
334.921
332.694
328.466
329.496
328.843
329
329.243
327.447
331.522
329.997
329.812
331.308
330.862
330.314
331.288
328.773
329.026
328.978
329.418
328.723
328.559
327.513
323.678
321.458
322.381
324.082
323.153
322.989
323.456
321.905
324.101
324.865
323.213
324.62
322.989
322.74
323.418
322.054
321.06
322.046
323.456
322.158
316.845
315.593
317.124
314.936
317.717
316.749
315.678
315.899
317.063
318.392
318.873
318.842
317.835
315.359
317.093
315.812
314.482
316.418
316.179
315.755
307.676
310.641
310.024
310.505
310.051
309.88
309.916
310.316
309.881
309
310.308
310.849
311.265
311.357
310.178
308.871
309.15
308.948
308.798
310.272
303.017
302.534
305.291
303.687
301.466
305.72
303.342
304.045
303.63
303.462
304.264
304.646
301.946
301.686
303.227
303.952
303.549
302.349
303.438
302.229
347.434
347.548
344.503
348.279
346.141
348.723
349.512
350.138
351.83
350.371
353.109
353.005
351.606
349.778
350.875
348.098
347.108
345.269
347.673
346.823
341.236
339.358
340.679
341.194
341.708
342.699
341.918
344.384
343.363
344.982
345.914
347.067
344.707
344.596
343.209
343.079
341.391
340.296
339.248
340.449
336.458
334.987
336.166
333.355
334.728
335.589
337.593
337.181
338.731
338.335
338.393
338.481
339.764
335.682
338.111
335.864
333.3
334.313
336.833
335.664
326.926
329.767
326.921
328.48
329.079
328.676
329.607
330.061
332.143
332.254
332.296
330.694
331.894
330.93
330.845
329.019
327.185
327.085
330.224
327.791
321.848
323.394
321.419
322.036
322.51
325.257
324.783
321.998
324.098
323.246
324.951
324.524
324.789
323.608
323.021
321.569
322.381
324.01
323.151
321.977
317.627
316.056
316.984
316.52
315.304
317.555
315.856
314.927
317.404
317.457
316.177
318.584
317.546
317.466
317.486
316.732
316.713
316.621
316.513
315.743
309.363
307.508
311.416
308.236
310.343
310.408
312.86
311.217
311.276
309.103
311.484
311.658
310.159
309.531
308.798
309.558
309.161
309.514
310.056
310.251
303.214
302.412
303.73
302.582
302.917
303.471
302.382
303.152
304.412
303.769
304.791
303.077
300.495
302.509
303.763
304.64
304.495
302.82
303.131
303.193
349.397
347.489
345.835
347.343
347.753
348.533
352.048
349.437
351.467
351.578
353.882
354.031
351.501
351.56
348.839
350.445
347.975
347.099
348.804
349.825
343.488
341.579
340.639
344.351
340.912
342.157
342.271
346.507
346.374
346.262
346.595
343.838
346.634
344.587
343.789
340.718
343.341
341.417
342.209
341.771
335.34
336.422
336.174
336.161
333.896
335.441
335.373
336.162
339.691
338.347
338.353
339.903
339.736
337.895
337.391
335.526
334.175
336.081
333.964
335.792
327.819
329.387
327.97
328.687
329.37
331.83
330.957
331.012
330.905
331.788
334.161
331.122
330.362
330.629
330.29
331.336
327.696
329.654
329.5
330.113
325.525
323.793
322.858
322.355
322.917
322.597
323.789
324.872
326.258
323.811
325.824
328.209
325.17
325.47
322.581
322.384
324.423
322.507
320.88
322.341
315.031
317.425
317.036
317.289
317.156
315.363
316.689
318.931
318.746
317.612
317.396
318.17
318.87
317.361
316.421
316.341
315.622
317.754
315.725
314.285
308.505
310.371
311.057
311.397
309.66
311.566
310.821
310.884
310.972
311.858
311.27
309.839
310.76
308.546
309.792
308.814
310.366
308.88
311.331
310.534
303.859
304.774
303.331
302.287
303.574
303.031
305.183
305.041
302.496
302.66
302.847
303.604
303.475
304.136
302.378
305.397
305.168
304.01
302.343
305.61
348.202
348.377
349.901
349.749
348.157
350.884
351.113
353.307
356.158
352.971
355.536
355.228
353.272
353.168
350.293
349.539
350.169
349.401
350.413
350.751
342.674
339.958
343.688
342.243
342.116
343.994
345.672
345.011
348.248
346.088
345.568
349.512
345.375
345.38
343.755
343.308
342.076
342.557
340.18
342.431
335.419
336.98
337.456
336.828
336.875
337.003
337.067
339.972
337.438
339.291
341.555
337.761
339.774
337.763
336.36
337.808
336.706
336.583
336.813
337.651
329.009
328.036
328.419
329.602
329.802
330.178
332.773
331.687
331.901
334.698
331.871
331.352
332.861
332.422
331.679
331.062
327.43
329.488
330.103
330.566
323.799
321.762
321.432
324.002
324.145
322.656
322.432
325.083
326.261
326.323
327.637
325.178
326.158
323.696
324.347
321.482
324.473
322.793
322.703
324.144
316.978
315.455
315.172
316.734
318.153
317.851
317.324
318.178
318.246
317.313
316.279
318.403
317.08
318.231
316.797
316.697
315.346
314.756
315.421
314.863
311.58
311.083
310.796
310.267
306.925
312.142
310.244
311.935
311.742
313.075
309.258
311.167
310.131
310.4
309.61
309.837
311.263
310.921
309.826
308.467
302.279
303.154
303.228
303.391
302.274
303.095
302.155
303.052
303.709
304.436
304.709
302.988
303.208
303.283
303.831
302.786
302.443
304.08
304.938
301.894
351.09
349.946
348.179
348.986
349.463
353.474
352.376
352.687
354.628
354.541
356.886
355.773
355.007
353.382
350.932
349.64
349.076
348.947
349.031
352.048
344.33
343.174
343.251
342.361
344.461
345.71
344.588
346.843
348.04
346.458
348.051
346.91
348.509
347
344.178
343.448
345.151
342.795
344.592
344.041
337.316
338.513
335.852
335.882
336.596
339.287
339.789
339.251
337.959
342.214
341.471
339.73
338.508
337.315
337.583
336.557
336.603
335.864
336.472
337.741
330.183
332.213
329.706
328.746
329.016
329.805
332.511
333.001
332.509
333.59
332.823
332.142
333.405
331.995
330.815
332.06
330.22
330.138
329.016
330.375
323.39
323.584
324.05
323.585
324.909
322.654
323.95
324.952
325.622
326.447
325.164
325.178
326.65
325.541
324.706
325.404
323.541
322.214
321.913
323.633
315.231
316.32
317.6
317.823
315.776
316.631
317.633
317.779
318.209
317.032
318.264
318.746
317.948
317.38
317.158
315.125
316.193
316.044
316.508
316.016
308.211
309.191
310.674
308.734
308.351
309.366
312.401
309.169
310.603
310.975
311.007
310.488
310.484
310.8
311.436
312.533
310.125
310.967
309.929
311.411
303.267
303.069
302.848
301.513
300.796
303.343
303.346
304.521
302.668
305.194
305.914
305.391
303.491
305.119
304.278
303.908
303.387
303.407
305.995
304.107
350.615
350.333
350.957
349.567
351.922
351.489
352.375
354.02
357.207
357.52
359.687
358.778
354.683
353.571
353.312
352.101
352.907
350.509
354.584
350.12
342.948
342.094
343.913
342.933
343.308
344.943
346.299
346.587
348.788
346.876
345.999
348.827
345.771
348.365
345.278
347.057
343.57
343.453
341.915
347.207
339.26
337.049
337.868
338.148
338.4
335.808
339.207
336.695
339.987
340.188
343.058
341.839
341.557
340.395
338.375
339.626
337.065
338.727
337.989
336.491
330.608
330.941
330.718
330.443
329.866
331.404
331.996
332.055
333.872
333.252
334.029
334.04
333.385
333.052
331.486
329.731
331.689
329.507
332.223
330.742
324.555
323.944
323.982
323.096
324.199
325.505
324.603
325.528
324.63
325.293
326.642
328.327
325.714
325.073
323.33
325.037
323.638
325.245
324.798
324.258
318.856
315.863
317.344
317.565
315.066
319.947
315.953
318.022
319.06
317.668
318.103
317.528
319.08
320.071
317.247
317.51
315.827
316.912
315.737
317.949
310.705
312.271
310.214
311.941
311.046
311.192
310.612
312.142
310.286
310.966
309.922
312.134
312.961
312.591
311.116
309.603
310.713
309.917
309.712
308.745
303.072
304.126
304.068
304.899
302.515
303.429
303.704
303.775
305.289
305.115
303.785
302.504
303.764
303.848
302.871
302.875
302.764
303.584
304.151
305.245
352.096
351.815
353.974
350.654
352.993
353.709
353.596
356.103
356.152
356.031
355.777
357.004
358.428
353.222
352.275
351.86
353.533
352.306
351.682
350.538
345.712
342.648
344.605
343.928
346.786
345.154
347.924
346.762
348.002
347.966
347.584
349.187
346.878
349.659
345.008
344.959
344.285
345.889
343.246
345.541
341.266
339.176
338.708
337.895
339.113
338.383
340.235
339.485
340.125
344.176
342.949
340.505
341.523
338.461
338.962
339.446
340.233
337.247
337.607
338.676
332.106
331.281
332.287
333.558
330.123
333.268
331.525
332.428
333.21
334.375
334.448
332.771
334.276
333.236
332.382
331.954
332.55
329.827
331.214
332.531
324.028
324.132
327.234
325.206
323.161
325.995
326.538
325.918
325.142
327.382
326.936
327.096
324.957
324.609
325.124
324.27
322.242
322.751
325.684
323.504
318.058
317.399
318.607
318.048
318.008
317.555
320.49
317.34
319.15
319.652
321.414
318.128
318.288
317.807
315.881
319.089
318.466
318.741
317.478
317.05
311.665
309.589
310.932
309.587
310.11
309.361
309.651
310.996
309.114
311.815
311.327
311.04
311.406
311.146
309.019
312.44
310.157
310.345
310.693
309.506
302.679
302.851
304.067
304.05
302.011
304.565
302.416
302.021
303.628
304.098
304.384
304.339
305.817
302.911
304.359
302.146
303.738
300.531
303.499
303.713
353.879
353.617
352.218
352.581
355.912
354.139
353.59
356.24
356.737
358.905
359.752
359.668
356.537
356.843
355.585
353.205
352.218
351.728
353.988
353.273
346.493
346.857
345.246
345.41
345.607
349.299
346.999
348.168
348.744
350.829
349.857
349.198
348.713
346.953
347.743
346.505
345.786
346.08
344.103
348.76
339.365
339.943
338.967
339.763
337.911
340.767
338.564
340.961
339.925
342.885
341.223
343.828
342.001
342.018
340.426
339.22
338.147
341.769
338.405
339.112
332.209
333.363
330.387
331.958
332.051
332.536
333.44
332.912
333.454
334.929
337.214
336.027
334.563
332.647
333.91
333.726
334.52
332.084
330.413
333.501
325.461
325.375
325.067
325.637
323.967
326.187
325.548
328.842
325.481
325.34
328.622
327.322
326.561
326.07
326.302
323.63
323.781
326.028
324.93
326.115
317.829
315.27
317.958
316.631
319.863
318.789
319.592
318.041
319.562
318.238
318.208
320.403
320.048
318.234
319.483
318.245
317.452
317.606
318.024
317.821
311.141
309.584
310.524
310.442
309.743
309.619
312.009
310.419
312.214
312.54
312.943
312.587
311.316
309.679
311.403
311.086
311.236
310.113
311.617
308.734
302.692
302.039
304.973
301.806
305.249
303.276
304.037
303.247
304.87
302.941
301.885
303.689
304.277
305.852
303.721
305
304.1
301.171
302.552
304.447
355.43
353.177
353.473
353.11
356.055
352.438
356.233
356.286
358.4
358.841
357.579
359.579
356.282
354.781
355.953
355.2
353.792
353.998
353.422
353.281
348.36
344.888
348.376
345.737
347.77
346.811
347.378
348.451
351.405
348.112
348.847
349.793
347.824
347.99
347.027
346.968
345.96
347.893
344.348
345.998
340.294
339.811
340.331
335.874
338.165
339.378
340.406
343.248
342.481
341.922
342.308
341.827
343.185
340.805
341.678
339.744
341.274
340.922
337.977
339.345
332.402
333.137
331.703
331.715
332.257
333.613
332.846
334.233
333.672
334.802
334.719
336.839
331.615
334.985
333.858
332.754
331.721
332.428
331.783
332.183
326.784
323.562
325.749
326.176
325.889
327.033
326.446
326.202
325.642
326.65
329.623
327.455
326.297
324.407
324.809
325.44
324.709
324.56
324.439
324.299
319.764
317.464
317.818
319.343
318.42
316.896
318.982
321.055
319.332
317.789
317.348
319.787
318.158
319.267
318.079
317.035
317.154
317.737
317.071
318.714
312.018
311.274
309.791
311.369
312.528
311.445
313.208
311.401
311.709
311.69
311.09
311.607
311.519
311.471
311.065
310.998
310.042
310.745
309.397
308.558
302.031
302.929
304.424
306.368
304.044
301.981
304.794
303.671
303.203
304.056
303.293
303.584
304
305.408
303.645
303.075
303.768
301.959
305.172
300.523
355.829
354.669
355.568
353.769
356.145
355.617
356.653
356.484
358.742
359.761
358.518
357.409
357.371
355.647
356.54
356.71
355.663
353.885
355.429
354.574
348.565
347.278
347.543
346.716
348.328
345.377
349.816
349.59
350.099
351.229
349.878
351.409
350.666
349.249
349.184
348.643
348.16
348.075
347.076
345.472
340.965
341.298
340.008
340.625
340.661
341.369
342.65
340.827
342.298
343.852
343.51
343.583
343.759
340.914
341.377
341.878
340.512
340.512
339.621
339.956
333.016
332.604
333.15
332.087
332.147
333.468
333.385
334.513
333.414
335.341
335.193
335.335
335.722
333.223
332.759
333.787
332.649
332.905
333.431
332.875
324.902
325.324
325.823
325.342
324.72
327.847
327.751
326.909
327.585
326.298
327.698
327.45
326.833
326.258
327.402
327.556
326.775
325.896
326.67
327.542
318.936
318.364
317.464
318.886
317.586
319.279
319.246
319.259
319.002
319.978
318.096
321.123
317.824
321.039
319.315
317.308
316.675
319.246
316.744
319.972
312.361
311.14
311.91
311.606
311.843
310.26
308.824
311.372
309.626
310.033
310.617
310.861
312.645
310.664
312.833
308.995
310.728
312.063
310.435
313.181
304.545
305.645
303.872
304.186
305.086
305.283
303.652
305.396
305.858
304.152
301.852
305.853
304.396
304.899
306.345
306.531
302.389
304.101
303.549
304.293
356.05
352.951
357.351
355.585
354.954
355.361
355.975
357.076
357.656
359.081
358.563
359.589
357.782
357.064
358.466
358.452
355.954
355.084
355.502
356.37
351.203
347.449
347.451
347.988
350.383
349.124
349.814
350.078
350.914
350.949
350.819
352.442
349.965
350.226
349.25
348.751
348.275
347.948
347.424
351.269
341.927
343.569
341.014
341.567
340.857
340.706
342.164
341.639
343.988
344.519
343.924
342.337
343.124
341.5
343.961
342.959
340.398
340.508
341.007
341.939
333.354
336.003
333.732
332.746
334.744
333.725
333.803
336.508
335.416
334.864
335.791
332.639
335.187
333.435
334.569
334.602
332.431
333.27
335.126
334.809
327.091
326.989
326.722
325.238
326.294
327.633
327.254
327.838
326.396
328.822
330.534
327.071
327.419
325.555
327.768
325.024
326.594
325.261
325.074
327.755
317.264
319.068
320.35
319.849
319.088
319.913
320.486
321.354
320.176
317.505
322.308
319.32
320.519
319.69
318.315
319.778
317.52
317.649
318.769
319.578
311.521
308.68
310.45
312.07
310.288
313.114
312.058
311.315
310.91
312.665
312.34
312.795
312.788
310.266
310.673
313.417
312.761
313.065
309.805
312.91
303.696
304.768
304.146
305.859
301.506
303.844
302.874
304.296
305.327
304.053
303.244
305.38
305.267
302.811
305.011
303.006
304.794
306.411
302.216
305.86
356.13
356.174
355.88
355.859
355.677
356.899
357.696
356.859
358.33
359.339
359.702
359.845
358.22
358.699
357.79
355.95
355.807
355.55
356.261
358.132
351.292
351.673
349.515
347.596
349.911
349.945
350.992
351.862
351.958
351.363
351.906
351.554
351.166
348.634
352.324
349.268
349.398
349.165
349.284
352.416
342.671
340.706
343.006
341.566
341.97
341.738
342.629
343.569
341.975
343.137
342.052
343.345
343.41
342.954
341.959
342.146
341.162
340.205
339.803
341.843
336.4
335.454
332.69
335.703
334.267
335.542
333.496
334.473
335.938
336.194
336.816
337.441
333.802
335.653
334.797
334.384
336.346
334.333
334.718
334.98
326.904
327.086
326.813
327.055
326.554
326.845
328.008
327.077
328.873
327.79
327.875
327.98
327.408
327.667
325.874
326.147
326.838
326.539
326.658
327.372
317.884
319.247
317.807
319.1
319.75
319.166
321.074
319.47
317.881
319.523
318.857
319.796
321.749
318.634
322.302
319.536
318.986
318.782
318.696
320.979
310.951
311.518
312.89
311.769
312.217
311.702
312.16
311.636
311.711
312.541
309.774
311.796
312.053
312.096
313.362
311.395
312.642
313.803
308.901
311.898
304.572
304.46
301.19
306.437
304.288
303.061
304.848
304.011
303.418
303.947
303.253
302.275
301.707
304.099
304.001
304.183
303.038
302.988
305.407
304.191
358.736
356.714
357.438
356.122
359.304
357.629
358.281
361.235
360.611
360.899
359.04
359.367
361.538
360.596
358.858
356.759
356.813
357.169
356.795
358.914
351.432
350.745
352.411
351.124
351.991
352.374
349.169
351.932
352.557
353.345
353.387
352.132
352.537
350.916
352.099
349.106
351.283
351.786
350.511
349.492
342.423
342.734
339.505
342.731
343.374
342.232
344.644
346.605
344.486
342.945
344.812
345.505
340.507
343.06
343.817
340.816
341.909
341.479
341.953
342.161
335.262
336.097
336.354
335.045
334.876
334.85
334.969
335.243
335.016
337.783
335.964
334.97
336.061
333.84
333.562
333.04
334.624
334.01
335.018
336.348
326.825
326.305
328.368
326.394
328.116
328.098
327.585
328.602
328.443
327.419
328.232
327.569
328.496
327.952
326.405
326.476
325.217
327.63
325.859
328.489
319.57
321.149
319.094
319.598
321.049
317.878
320.347
320.012
321.1
319.075
320.724
319.286
318.696
319.041
319.961
320.117
319.913
317.673
318.663
318.452
311.955
313.522
312.024
312.805
312.344
310.861
309.544
311.175
312.393
313.368
311.44
311.829
312.586
310.53
310.721
311.761
311.894
312.166
310.97
314.642
303.733
305.195
303.948
302.727
304.522
302.812
304.774
303.998
304.223
303.876
306.951
304.22
304.184
303.669
303.596
305.271
304.327
301.977
305.958
304.532
358.845
358.866
357.925
360.305
357.354
358.435
360.776
359.483
360.909
362.38
363.176
360.051
360.396
358.294
358.667
357.843
358.044
359.667
360.359
360.014
351.581
352.329
347.745
351.299
352.143
350.947
349.025
352.178
350.914
352.932
352.515
352.696
352.098
351.923
351.957
351.543
350.98
352.623
350.391
350.521
343.561
342.641
344.87
341.376
343.671
343.635
343.105
342.877
343.106
344.905
344.399
346.742
344.639
344.459
342.506
343.8
345.664
342.946
344.278
343.116
336.255
337.628
336.512
336.603
335.149
333.755
335.674
336.312
336.575
337.152
337.356
338.715
336.227
336.934
336.398
335.479
334.552
336.506
334.881
336.169
328.831
327.452
327.829
328.316
328.931
327.241
329.615
326.767
328.15
328.837
329.067
329.787
328.199
327.713
327.287
327.442
326.708
328.24
329.032
328.651
318.402
319.786
317.405
320.944
318.256
320.192
319.685
319.343
321.733
320.855
320.705
319.431
321.241
319.441
318.815
319.155
320.719
319.249
319.14
319.594
311.41
311.817
311.196
310.989
311.066
310.739
312.084
310.476
313.332
311.852
312.481
312.52
312.793
313.007
312.448
312.342
311.621
312.714
312.377
313.328
306.551
302.693
306.103
304.133
303.263
304.453
304.233
304.024
304.978
306.345
301.855
304.695
306.366
303.969
305.146
302.83
303.786
304.695
305.05
305.411
361.933
361.397
358.049
359.362
358.54
360.073
359.614
360.641
360.711
361.354
362.308
362.539
362.117
360.298
358.563
358.868
361.251
359.627
359.469
361.32
352.727
353.521
352.135
354.641
352.139
354.82
352.195
355.341
354.363
355.82
355.921
353.007
355.162
353.173
354.83
349.669
354.298
352.742
353.174
351.94
344.313
344.95
342.828
343.501
344.335
343.459
344.864
345.256
344.718
344.972
344.527
344.395
345.785
345.904
343.86
343.67
343.856
345.502
343.382
344.358
335.066
335.369
337.483
335.148
337.28
335.356
335.041
336.417
337.765
336.652
337.42
337.771
336.889
334.897
337.23
336.721
335.953
336.226
335.193
336.428
326.31
329.604
329.058
327.36
328.52
326.369
325.992
326.635
327.897
327.376
328.62
330.059
328.894
326.418
327.833
328.344
328.618
328.891
328.969
327.566
321.701
319.629
323.31
320.259
320.878
321.012
320.658
321.392
321.126
321.802
320.813
321.037
320.698
322.798
318.663
319.532
321.346
318.774
320.13
319.889
311.338
312.906
312.042
310.058
312.511
312.487
311.395
312.253
311.527
311.028
313.939
311.37
312.592
312.884
312.335
312.052
313.125
312.752
314.064
312.79
305.231
304.344
303.979
304.269
305.425
304.468
303.829
303.321
303.886
305.052
305.816
304.615
305.985
304.484
304.082
302.874
303.262
306.325
305.169
303.659
361.441
361.069
359.815
361.628
360.91
359.242
359.051
362.38
360.735
360.606
364.064
360.572
360.492
360.052
361.73
360.93
361.066
358.528
362.036
362.988
354.547
354.42
353.739
350.901
352.651
352.13
352.425
353.074
353.078
353.897
353.951
354.343
354.957
350.247
352.514
353.888
351.484
351.037
357.43
353.294
344
346.226
346.471
343.292
343.005
344.748
344.862
346.149
345.226
345.691
345.437
345.758
344.423
346.746
345.092
343.62
343.687
344.535
346.206
343.207
337.95
337.745
336.439
336.844
337.322
336.231
337.005
337.753
336.624
337.77
335.12
337.218
337.216
335.352
333.269
335.312
335.168
335.898
335.257
338.751
328.119
329.248
326.769
327.201
328.527
329.695
329.09
327.566
329.254
327.582
329.296
329.48
327.624
327.963
328.084
326.083
328.74
328.568
327.189
329.209
319.344
319.229
319.678
319.041
317.986
320.943
319.798
321.32
322.503
320.441
318.033
320.048
320.196
320.302
321.057
320.195
319.532
318.782
319.877
321.101
313.025
312.051
310.547
312.9
311.074
312.589
311.145
313.284
313.225
310.765
312.587
311.905
310.145
313.487
311.662
311.296
311.834
312.614
310.932
311.231
306.924
306.131
304.99
303.58
304.286
304.922
302.329
303.703
303.583
304.217
305.706
303.071
303.958
303.773
304.872
304.661
304.669
303.422
304.158
304.791
)
;

boundaryField
{
    hotSide
    {
        type            fixedGradient;
        gradient        nonuniform List<scalar> 
400
(
321.511
322.87
325.591
329.677
335.133
341.965
350.181
359.788
370.794
383.208
397.037
412.289
428.971
447.088
466.647
487.651
510.105
534.011
559.372
586.191
323.738
325.08
327.767
331.802
337.194
343.949
352.078
361.591
372.498
384.81
398.537
413.687
430.268
448.289
467.755
488.672
511.043
534.872
560.161
586.913
326.149
327.47
330.116
334.091
339.406
346.071
354.099
363.503
374.296
386.491
400.101
415.136
431.606
449.52
468.885
489.706
511.988
535.735
560.948
587.63
328.704
330
332.597
336.503
341.73
348.292
356.205
365.485
376.15
388.215
401.695
416.604
432.954
450.753
470.009
490.73
512.919
536.579
561.714
588.325
331.33
332.599
335.142
338.97
344.099
350.546
358.332
367.477
378.003
389.928
403.271
418.047
434.27
451.949
471.095
491.712
513.807
537.382
562.439
588.978
333.918
335.158
337.643
341.389
346.414
352.74
360.392
369.397
379.779
391.562
404.765
419.407
435.503
453.065
472.101
492.618
514.622
538.114
563.096
589.569
336.321
337.531
339.959
343.622
348.544
354.751
362.274
371.142
381.385
393.031
406.101
420.618
436.595
454.047
472.983
493.409
515.33
538.747
563.663
590.076
338.36
339.543
341.92
345.509
350.339
356.44
363.847
372.595
382.718
394.244
407.2
421.608
437.485
454.844
473.695
494.045
515.897
539.253
564.114
590.478
339.852
341.015
343.352
346.885
351.645
357.665
364.985
373.643
383.675
395.113
407.984
422.312
438.116
455.407
474.197
494.491
516.294
539.606
564.428
590.758
340.643
341.795
344.11
347.613
352.334
358.311
365.584
374.193
384.176
395.567
408.393
422.679
438.443
455.699
474.456
494.722
516.498
539.788
564.589
590.901
340.643
341.795
344.11
347.613
352.334
358.311
365.584
374.193
384.176
395.567
408.393
422.679
438.443
455.699
474.456
494.722
516.498
539.788
564.589
590.901
339.852
341.015
343.352
346.885
351.645
357.665
364.985
373.643
383.675
395.113
407.984
422.312
438.116
455.407
474.197
494.491
516.294
539.606
564.428
590.758
338.36
339.543
341.92
345.509
350.339
356.44
363.847
372.595
382.718
394.244
407.2
421.608
437.485
454.844
473.695
494.045
515.897
539.253
564.114
590.478
336.321
337.531
339.959
343.622
348.544
354.751
362.274
371.142
381.385
393.031
406.101
420.618
436.595
454.047
472.983
493.409
515.33
538.747
563.663
590.076
333.918
335.158
337.643
341.389
346.414
352.74
360.392
369.397
379.779
391.562
404.765
419.407
435.503
453.065
472.101
492.618
514.622
538.114
563.096
589.569
331.33
332.599
335.142
338.97
344.099
350.546
358.332
367.477
378.003
389.928
403.271
418.047
434.27
451.949
471.095
491.712
513.807
537.382
562.439
588.978
328.704
330
332.597
336.503
341.73
348.292
356.205
365.485
376.15
388.215
401.695
416.604
432.954
450.753
470.009
490.73
512.919
536.579
561.714
588.325
326.149
327.47
330.116
334.091
339.406
346.071
354.099
363.503
374.296
386.491
400.101
415.136
431.606
449.52
468.885
489.706
511.988
535.735
560.948
587.63
323.738
325.08
327.767
331.802
337.194
343.949
352.078
361.591
372.498
384.81
398.537
413.687
430.268
448.289
467.755
488.672
511.043
534.872
560.161
586.913
321.511
322.87
325.591
329.677
335.133
341.965
350.181
359.788
370.794
383.208
397.037
412.289
428.971
447.088
466.647
487.651
510.105
534.011
559.372
586.191
)
;
    }
    coldSide
    {
        type            mixed;
        refValue        uniform 300;
        refGradient     uniform 0;
        valueFraction   uniform 0.991591;
        source          uniform 0;
        value           nonuniform List<scalar> 
400
(
300.022
300.017
300.03
300.011
300.025
300.027
300.032
300.019
300.027
300.026
300.023
300.023
300.017
300.038
300.031
300.038
300.031
300.055
300.044
300.058
300.031
300.025
300.03
300.017
300.021
300.02
300.04
300.027
300.026
300.035
300.024
300.017
300.025
300.047
300.04
300.038
300.044
300.023