/*--------------------------------*- C++ -*----------------------------------*\
| =========                 |                                                 |
| \\      /  F ield         | OpenFOAM: The Open Source CFD Toolbox           |
|  \\    /   O peration     | Version:  2212                                  |
|   \\  /    A nd           | Website:  www.openfoam.com                      |
|    \\/     M anipulation  |                                                 |
\*---------------------------------------------------------------------------*/
FoamFile
{
    version     2.0;
    format      ascii;
    arch        "LSB;label=32;scalar=64";
    class       volScalarField;
    location    "0";
    object      Ttrue;
}
// * * * * * * * * * * * * * * * * * * * * * * * * * * * * * * * * * * * * * //

dimensions      [0 0 0 1 0 0 0];

internalField   nonuniform List<scalar> 
3200
(
322.286
322.462
322.687
322.932
323.184
323.432
323.661
323.854
323.995
324.069
324.069
323.995
323.854
323.661
323.432
323.184
322.932
322.687
322.462
322.286
319.207
319.356
319.55
319.762
319.981
320.195
320.393
320.56
320.681
320.746
320.746
320.681
320.56
320.393
320.195
319.981
319.762
319.55
319.356
319.207
316.176
316.299
316.463
316.642
316.827
317.008
317.175
317.316
317.418
317.473
317.473
317.418
317.316
317.175
317.008
316.827
316.642
316.463
316.299
316.176
313.184
313.284
313.417
313.563
313.714
313.862
313.999
314.114
314.197
314.242
314.242
314.197
314.114
313.999
313.862
313.714
313.563
313.417
313.284
313.184
310.224
310.301
310.404
310.518
310.635
310.75
310.856
310.946
311.011
311.045
311.045
311.011
310.946
310.856
310.75
310.635
310.518
310.404
310.301
310.224
307.289
307.343
307.417
307.498
307.582
307.664
307.74
307.804
307.85
307.874
307.874
307.85
307.804
307.74
307.664
307.582
307.498
307.417
307.343
307.289
304.371
304.404
304.448
304.497
304.547
304.596
304.642
304.68
304.708
304.723
304.723
304.708
304.68
304.642
304.596
304.547
304.497
304.448
304.404
304.371
301.464
301.475
301.49
301.506
301.523
301.54
301.555
301.568
301.577
301.582
301.582
301.577
301.568
301.555
301.54
301.523
301.506
301.49
301.475
301.464
322.373
322.548
322.771
323.014
323.264
323.509
323.735
323.926
324.065
324.138
324.138
324.065
323.926
323.735
323.509
323.264
323.014
322.771
322.548
322.373
319.282
319.43
319.623
319.833
320.049
320.261
320.457
320.622
320.742
320.805
320.805
320.742
320.622
320.457
320.261
320.049
319.833
319.623
319.43
319.282
316.239
316.362
316.524
316.702
316.884
317.064
317.229
317.368
317.469
317.522
317.522
317.469
317.368
317.229
317.064
316.884
316.702
316.524
316.362
316.239
313.236
313.334
313.467
313.612
313.761
313.908
314.042
314.156
314.239
314.282
314.282
314.239
314.156
314.042
313.908
313.761
313.612
313.467
313.334
313.236
310.264
310.34
310.443
310.555
310.672
310.785
310.89
310.978
311.042
311.076
311.076
311.042
310.978
310.89
310.785
310.672
310.555
310.443
310.34
310.264
307.318
307.371
307.444
307.525
307.608
307.689
307.764
307.827
307.873
307.897
307.897
307.873
307.827
307.764
307.689
307.608
307.525
307.444
307.371
307.318
304.388
304.421
304.464
304.513
304.563
304.611
304.656
304.694
304.721
304.736
304.736
304.721
304.694
304.656
304.611
304.563
304.513
304.464
304.421
304.388
301.47
301.481
301.495
301.511
301.528
301.545
301.56
301.572
301.581
301.586
301.586
301.581
301.572
301.56
301.545
301.528
301.511
301.495
301.481
301.47
322.549
322.721
322.941
323.179
323.424
323.664
323.885
324.071
324.206
324.278
324.278
324.206
324.071
323.885
323.664
323.424
323.179
322.941
322.721
322.549
319.434
319.579
319.768
319.975
320.187
320.394
320.585
320.746
320.863
320.925
320.925
320.863
320.746
320.585
320.394
320.187
319.975
319.768
319.579
319.434
316.366
316.487
316.646
316.821
317
317.175
317.336
317.472
317.571
317.623
317.623
317.571
317.472
317.336
317.175
317
316.821
316.646
316.487
316.366
313.339
313.436
313.566
313.709
313.855
313.998
314.13
314.241
314.321
314.364
314.364
314.321
314.241
314.13
313.998
313.855
313.709
313.566
313.436
313.339
310.344
310.419
310.52
310.63
310.744
310.856
310.958
311.044
311.107
311.14
311.14
311.107
311.044
310.958
310.856
310.744
310.63
310.52
310.419
310.344
307.375
307.427
307.499
307.578
307.66
307.739
307.812
307.874
307.918
307.942
307.942
307.918
307.874
307.812
307.739
307.66
307.578
307.499
307.427
307.375
304.423
304.454
304.497
304.545
304.594
304.641
304.685
304.722
304.749
304.763
304.763
304.749
304.722
304.685
304.641
304.594
304.545
304.497
304.454
304.423
301.481
301.492
301.506
301.522
301.539
301.555
301.569
301.582
301.591
301.595
301.595
301.591
301.582
301.569
301.555
301.539
301.522
301.506
301.492
301.481
322.814
322.982
323.195
323.427
323.665
323.897
324.111
324.29
324.42
324.489
324.489
324.42
324.29
324.111
323.897
323.665
323.427
323.195
322.982
322.814
319.661
319.803
319.988
320.188
320.394
320.595
320.779
320.934
321.047
321.106
321.106
321.047
320.934
320.779
320.595
320.394
320.188
319.988
319.803
319.661
316.557
316.675
316.83
317
317.174
317.344
317.5
317.63
317.725
317.776
317.776
317.725
317.63
317.5
317.344
317.174
317
316.83
316.675
316.557
313.494
313.589
313.716
313.855
313.997
314.135
314.263
314.37
314.447
314.488
314.488
314.447
314.37
314.263
314.135
313.997
313.855
313.716
313.589
313.494
310.465
310.537
310.636
310.743
310.854
310.962
311.061
311.144
311.204
311.236
311.236
311.204
311.144
311.061
310.962
310.854
310.743
310.636
310.537
310.465
307.46
307.512
307.582
307.659
307.738
307.815
307.885
307.945
307.988
308.01
308.01
307.988
307.945
307.885
307.815
307.738
307.659
307.582
307.512
307.46
304.474
304.505
304.547
304.593
304.64
304.687
304.729
304.765
304.79
304.804
304.804
304.79
304.765
304.729
304.687
304.64
304.593
304.547
304.505
304.474
301.499
301.509
301.523
301.538
301.554
301.57
301.584
301.596
301.605
301.609
301.609
301.605
301.596
301.584
301.57
301.554
301.538
301.523
301.509
301.499
323.167
323.33
323.537
323.76
323.989
324.211
324.415
324.586
324.71
324.775
324.775
324.71
324.586
324.415
324.211
323.989
323.76
323.537
323.33
323.167
319.965
320.102
320.281
320.474
320.672
320.865
321.041
321.189
321.296
321.352
321.352
321.296
321.189
321.041
320.865
320.672
320.474
320.281
320.102
319.965
316.812
316.927
317.077
317.241
317.408
317.571
317.719
317.844
317.935
317.982
317.982
317.935
317.844
317.719
317.571
317.408
317.241
317.077
316.927
316.812
313.702
313.794
313.917
314.05
314.187
314.32
314.442
314.544
314.617
314.656
314.656
314.617
314.544
314.442
314.32
314.187
314.05
313.917
313.794
313.702
310.625
310.696
310.791
310.895
311.001
311.105
311.199
311.278
311.336
311.366
311.366
311.336
311.278
311.199
311.105
311.001
310.895
310.791
310.696
310.625
307.575
307.625
307.692
307.767
307.843
307.916
307.984
308.041
308.081
308.103
308.103
308.081
308.041
307.984
307.916
307.843
307.767
307.692
307.625
307.575
304.543
304.572
304.613
304.658
304.703
304.748
304.788
304.822
304.847
304.86
304.86
304.847
304.822
304.788
304.748
304.703
304.658
304.613
304.572
304.543
301.521
301.531
301.545
301.56
301.575
301.59
301.604
301.615
301.623
301.628
301.628
301.623
301.615
301.604
301.59
301.575
301.56
301.545
301.531
301.521
323.61
323.767
323.965
324.179
324.397
324.608
324.801
324.962
325.079
325.14
325.14
325.079
324.962
324.801
324.608
324.397
324.179
323.965
323.767
323.61
320.345
320.478
320.649
320.834
321.023
321.206
321.373
321.512
321.613
321.666
321.666
321.613
321.512
321.373
321.206
321.023
320.834
320.649
320.478
320.345
317.132
317.242
317.387
317.543
317.702
317.857
317.998
318.116
318.201
318.246
318.246
318.201
318.116
317.998
317.857
317.702
317.543
317.387
317.242
317.132
313.962
314.051
314.168
314.296
314.427
314.553
314.668
314.765
314.834
314.871
314.871
314.834
314.765
314.668
314.553
314.427
314.296
314.168
314.051
313.962
310.827
310.895
310.986
311.086
311.187
311.285
311.375
311.449
311.503
311.532
311.532
311.503
311.449
311.375
311.285
311.187
311.086
310.986
310.895
310.827
307.718
307.766
307.831
307.902
307.975
308.045
308.109
308.162
308.201
308.221
308.221
308.201
308.162
308.109
308.045
307.975
307.902
307.831
307.766
307.718
304.629
304.657
304.696
304.739
304.782
304.825
304.863
304.895
304.918
304.93
304.93
304.918
304.895
304.863
304.825
304.782
304.739
304.696
304.657
304.629
301.55
301.56
301.573
301.587
301.602
301.616
301.629
301.64
301.647
301.651
301.651
301.647
301.64
301.629
301.616
301.602
301.587
301.573
301.56
301.55
324.143
324.293
324.482
324.685
324.891
325.09
325.27
325.421
325.53
325.587
325.587
325.53
325.421
325.27
325.09
324.891
324.685
324.482
324.293
324.143
320.804
320.931
321.094
321.269
321.448
321.62
321.776
321.907
322.001
322.05
322.05
322.001
321.907
321.776
321.62
321.448
321.269
321.094
320.931
320.804
317.518
317.623
317.76
317.909
318.059
318.205
318.337
318.447
318.527
318.568
318.568
318.527
318.447
318.337
318.205
318.059
317.909
317.76
317.623
317.518
314.276
314.36
314.472
314.594
314.717
314.836
314.944
315.034
315.099
315.133
315.133
315.099
315.034
314.944
314.836
314.717
314.594
314.472
314.36
314.276
311.07
311.135
311.222
311.316
311.412
311.504
311.588
311.658
311.709
311.735
311.735
311.709
311.658
311.588
311.504
311.412
311.316
311.222
311.135
311.07
307.891
307.937
307.999
308.067
308.135
308.201
308.261
308.311
308.347
308.366
308.366
308.347
308.311
308.261
308.201
308.135
308.067
307.999
307.937
307.891
304.732
304.76
304.797
304.837
304.878
304.918
304.954
304.984
305.006
305.017
305.017
305.006
304.984
304.954
304.918
304.878
304.837
304.797
304.76
304.732
301.585
301.594
301.607
301.62
301.634
301.647
301.659
301.669
301.677
301.68
301.68
301.677
301.669
301.659
301.647
301.634
301.62
301.607
301.594
301.585
324.767
324.91
325.089
325.28
325.473
325.659
325.827
325.967
326.067
326.12
326.12
326.067
325.967
325.827
325.659
325.473
325.28
325.089
324.91
324.767
321.34
321.461
321.615
321.781
321.948
322.109
322.255
322.375
322.462
322.508
322.508
322.462
322.375
322.255
322.109
321.948
321.781
321.615
321.461
321.34
317.969
318.069
318.199
318.339
318.48
318.616
318.739
318.841
318.915
318.953
318.953
318.915
318.841
318.739
318.616
318.48
318.339
318.199
318.069
317.969
314.643
314.723
314.829
314.944
315.059
315.171
315.271
315.355
315.415
315.446
315.446
315.415
315.355
315.271
315.171
315.059
314.944
314.829
314.723
314.643
311.354
311.416
311.498
311.587
311.677
311.763
311.841
311.906
311.953
311.977
311.977
311.953
311.906
311.841
311.763
311.677
311.587
311.498
311.416
311.354
308.094
308.137
308.196
308.259
308.324
308.385
308.441
308.488
308.521
308.538
308.538
308.521
308.488
308.441
308.385
308.324
308.259
308.196
308.137
308.094
304.854
304.88
304.915
304.953
304.992
305.029
305.062
305.09
305.11
305.12
305.12
305.11
305.09
305.062
305.029
304.992
304.953
304.915
304.88
304.854
301.626
301.634
301.646
301.659
301.672
301.684
301.695
301.705
301.712
301.715
301.715
301.712
301.705
301.695
301.684
301.672
301.659
301.646
301.634
301.626
325.484
325.618
325.786
325.966
326.145
326.318
326.473
326.601
326.693
326.741
326.741
326.693
326.601
326.473
326.318
326.145
325.966
325.786
325.618
325.484
321.956
322.07
322.215
322.37
322.526
322.675
322.81
322.921
323.001
323.042
323.042
323.001
322.921
322.81
322.675
322.526
322.37
322.215
322.07
321.956
318.486
318.581
318.703
318.834
318.966
319.092
319.206
319.3
319.367
319.402
319.402
319.367
319.3
319.206
319.092
318.966
318.834
318.703
318.581
318.486
315.064
315.14
315.24
315.347
315.455
315.558
315.651
315.727
315.782
315.811
315.811
315.782
315.727
315.651
315.558
315.455
315.347
315.24
315.14
315.064
311.68
311.738
311.816
311.899
311.983
312.063
312.135
312.195
312.238
312.26
312.26
312.238
312.195
312.135
312.063
311.983
311.899
311.816
311.738
311.68
308.326
308.367
308.422
308.482
308.542
308.599
308.651
308.693
308.724
308.74
308.74
308.724
308.693
308.651
308.599
308.542
308.482
308.422
308.367
308.326
304.993
305.017
305.05
305.086
305.122
305.157
305.188
305.213
305.232
305.241
305.241
305.232
305.213
305.188
305.157
305.122
305.086
305.05
305.017
304.993
301.672
301.68
301.692
301.704
301.716
301.727
301.737
301.746
301.752
301.755
301.755
301.752
301.746
301.737
301.727
301.716
301.704
301.692
301.68
301.672
326.293
326.419
326.576
326.743
326.91
327.068
327.211
327.328
327.412
327.456
327.456
327.412
327.328
327.211
327.068
326.91
326.743
326.576
326.419
326.293
322.652
322.759
322.895
323.039
323.184
323.321
323.444
323.546
323.618
323.656
323.656
323.618
323.546
323.444
323.321
323.184
323.039
322.895
322.759
322.652
319.071
319.16
319.274
319.396
319.518
319.635
319.739
319.825
319.886
319.918
319.918
319.886
319.825
319.739
319.635
319.518
319.396
319.274
319.16
319.071
315.54
315.611
315.704
315.804
315.904
315.999
316.084
316.155
316.205
316.231
316.231
316.205
316.155
316.084
315.999
315.904
315.804
315.704
315.611
315.54
312.048
312.103
312.176
312.253
312.331
312.405
312.471
312.526
312.565
312.585
312.585
312.565
312.526
312.471
312.405
312.331
312.253
312.176
312.103
312.048
308.588
308.627
308.679
308.734
308.79
308.842
308.89
308.929
308.957
308.971
308.971
308.957
308.929
308.89
308.842
308.79
308.734
308.679
308.627
308.588
305.15
305.173
305.204
305.237
305.271
305.302
305.331
305.354
305.371
305.38
305.38
305.371
305.354
305.331
305.302
305.271
305.237
305.204
305.173
305.15
301.725
301.733
301.743
301.754
301.765
301.776
301.785
301.793
301.799
301.802
301.802
301.799
301.793
301.785
301.776
301.765
301.754
301.743
301.733
301.725
327.195
327.313
327.46
327.614
327.768
327.913
328.043
328.15
328.225
328.265
328.265
328.225
328.15
328.043
327.913
327.768
327.614
327.46
327.313
327.195
323.428
323.528
323.655
323.788
323.921
324.047
324.16
324.252
324.318
324.352
324.352
324.318
324.252
324.16
324.047
323.921
323.788
323.655
323.528
323.428
319.723
319.806
319.913
320.026
320.138
320.245
320.34
320.418
320.474
320.503
320.503
320.474
320.418
320.34
320.245
320.138
320.026
319.913
319.806
319.723
316.07
316.137
316.224
316.317
316.409
316.496
316.574
316.637
316.683
316.706
316.706
316.683
316.637
316.574
316.496
316.409
316.317
316.224
316.137
316.07
312.46
312.511
312.578
312.65
312.722
312.79
312.85
312.9
312.935
312.953
312.953
312.935
312.9
312.85
312.79
312.722
312.65
312.578
312.511
312.46
308.881
308.917
308.965
309.017
309.068
309.116
309.16
309.195
309.22
309.233
309.233
309.22
309.195
309.16
309.116
309.068
309.017
308.965
308.917
308.881
305.325
305.347
305.376
305.407
305.438
305.467
305.493
305.514
305.529
305.537
305.537
305.529
305.514
305.493
305.467
305.438
305.407
305.376
305.347
305.325
301.784
301.791
301.801
301.811
301.821
301.831
301.84
301.847
301.852
301.854
301.854
301.852
301.847
301.84
301.831
301.821
301.811
301.801
301.791
301.784
328.192
328.302
328.438
328.58
328.721
328.854
328.971
329.068
329.136
329.172
329.172
329.136
329.068
328.971
328.854
328.721
328.58
328.438
328.302
328.192
324.285
324.378
324.496
324.619
324.741
324.856
324.958
325.041
325.101
325.131
325.131
325.101
325.041
324.958
324.856
324.741
324.619
324.496
324.378
324.285
320.444
320.521
320.62
320.724
320.827
320.925
321.011
321.081
321.132
321.158
321.158
321.132
321.081
321.011
320.925
320.827
320.724
320.62
320.521
320.444
316.657
316.719
316.799
316.885
316.969
317.049
317.119
317.177
317.218
317.239
317.239
317.218
317.177
317.119
317.049
316.969
316.885
316.799
316.719
316.657
312.914
312.961
313.024
313.09
313.156
313.218
313.273
313.318
313.349
313.366
313.366
313.349
313.318
313.273
313.218
313.156
313.09
313.024
312.961
312.914
309.204
309.238
309.283
309.33
309.377
309.421
309.461
309.493
309.515
309.527
309.527
309.515
309.493
309.461
309.421
309.377
309.33
309.283
309.238
309.204
305.519
305.539
305.566
305.595
305.623
305.649
305.673
305.692
305.706
305.713
305.713
305.706
305.692
305.673
305.649
305.623
305.595
305.566
305.539
305.519
301.849
301.855
301.864
301.874
301.883
301.892
301.9
301.906
301.911
301.913
301.913
301.911
301.906
301.9
301.892
301.883
301.874
301.864
301.855
301.849
329.283
329.385
329.511
329.642
329.77
329.891
329.997
330.084
330.145
330.177
330.177
330.145
330.084
329.997
329.891
329.77
329.642
329.511
329.385
329.283
325.224
325.31
325.418
325.532
325.643
325.747
325.84
325.915
325.968
325.996
325.996
325.968
325.915
325.84
325.747
325.643
325.532
325.418
325.31
325.224
321.232
321.304
321.395
321.491
321.586
321.674
321.752
321.816
321.861
321.884
321.884
321.861
321.816
321.752
321.674
321.586
321.491
321.395
321.304
321.232
317.298
317.356
317.431
317.509
317.586
317.658
317.722
317.774
317.811
317.83
317.83
317.811
317.774
317.722
317.658
317.586
317.509
317.431
317.356
317.298
313.411
313.455
313.513
313.574
313.634
313.69
313.74
313.78
313.809
313.824
313.824
313.809
313.78
313.74
313.69
313.634
313.574
313.513
313.455
313.411
309.558
309.59
309.631
309.674
309.717
309.758
309.793
309.822
309.843
309.853
309.853
309.843
309.822
309.793
309.758
309.717
309.674
309.631
309.59
309.558
305.731
305.75
305.775
305.801
305.827
305.851
305.872
305.89
305.902
305.908
305.908
305.902
305.89
305.872
305.851
305.827
305.801
305.775
305.75
305.731
301.92
301.926
301.934
301.943
301.951
301.96
301.967
301.973
301.977
301.979
301.979
301.977
301.973
301.967
301.96
301.951
301.943
301.934
301.926
301.92
330.469
330.563
330.679
330.798
330.916
331.025
331.121
331.199
331.254
331.282
331.282
331.254
331.199
331.121
331.025
330.916
330.798
330.679
330.563
330.469
326.243
326.323
326.423
326.526
326.628
326.722
326.806
326.873
326.921
326.945
326.945
326.921
326.873
326.806
326.722
326.628
326.526
326.423
326.323
326.243
322.089
322.155
322.24
322.327
322.413
322.493
322.564
322.621
322.661
322.682
322.682
322.661
322.621
322.564
322.493
322.413
322.327
322.24
322.155
322.089
317.996
318.049
318.117
318.189
318.26
318.325
318.383
318.43
318.462
318.48
318.48
318.462
318.43
318.383
318.325
318.26
318.189
318.117
318.049
317.996
313.951
313.992
314.045
314.1
314.155
314.206
314.251
314.287
314.313
314.326
314.326
314.313
314.287
314.251
314.206
314.155
314.1
314.045
313.992
313.951
309.943
309.972
310.01
310.05
310.089
310.125
310.157
310.183
310.202
310.211
310.211
310.202
310.183
310.157
310.125
310.089
310.05
310.01
309.972
309.943
305.962
305.979
306.002
306.026
306.049
306.071
306.091
306.106
306.117
306.123
306.123
306.117
306.106
306.091
306.071
306.049
306.026
306.002
305.979
305.962
301.997
302.003
302.01
302.018
302.026
302.033
302.04
302.045
302.049
302.051
302.051
302.049
302.045
302.04
302.033
302.026
302.018
302.01
302.003
301.997
331.747
331.834
331.94
332.05
332.156
332.255
332.341
332.411
332.46
332.485
332.485
332.46
332.411
332.341
332.255
332.156
332.05
331.94
331.834
331.747
327.342
327.416
327.507
327.602
327.694
327.78
327.855
327.915
327.958
327.98
327.98
327.958
327.915
327.855
327.78
327.694
327.602
327.507
327.416
327.342
323.013
323.074
323.151
323.231
323.309
323.382
323.445
323.496
323.532
323.551
323.551
323.532
323.496
323.445
323.382
323.309
323.231
323.151
323.074
323.013
318.747
318.796
318.859
318.924
318.988
319.048
319.1
319.141
319.171
319.186
319.186
319.171
319.141
319.1
319.048
318.988
318.924
318.859
318.796
318.747
314.532
314.57
314.619
314.67
314.72
314.766
314.806
314.839
314.862
314.873
314.873
314.862
314.839
314.806
314.766
314.72
314.67
314.619
314.57
314.532
310.357
310.384
310.419
310.455
310.491
310.524
310.552
310.576
310.592
310.601
310.601
310.592
310.576
310.552
310.524
310.491
310.455
310.419
310.384
310.357
306.21
306.226
306.247
306.269
306.29
306.31
306.327
306.341
306.351
306.356
306.356
306.351
306.341
306.327
306.31
306.29
306.269
306.247
306.226
306.21
302.08
302.085
302.092
302.099
302.107
302.113
302.119
302.124
302.127
302.129
302.129
302.127
302.124
302.119
302.113
302.107
302.099
302.092
302.085
302.08
333.113
333.193
333.291
333.39
333.487
333.576
333.653
333.716
333.76
333.782
333.782
333.76
333.716
333.653
333.576
333.487
333.39
333.291
333.193
333.113
328.516
328.583
328.667
328.754
328.837
328.914
328.982
329.036
329.074
329.093
329.093
329.074
329.036
328.982
328.914
328.837
328.754
328.667
328.583
328.516
323.998
324.054
324.125
324.198
324.269
324.334
324.391
324.437
324.469
324.486
324.486
324.469
324.437
324.391
324.334
324.269
324.198
324.125
324.054
323.998
319.548
319.593
319.651
319.711
319.769
319.822
319.869
319.907
319.933
319.946
319.946
319.933
319.907
319.869
319.822
319.769
319.711
319.651
319.593
319.548
315.152
315.187
315.232
315.278
315.324
315.365
315.401
315.431
315.451
315.462
315.462
315.451
315.431
315.401
315.365
315.324
315.278
315.232
315.187
315.152
310.799
310.823
310.855
310.888
310.921
310.95
310.976
310.997
311.012
311.019
311.019
311.012
310.997
310.976
310.95
310.921
310.888
310.855
310.823
310.799
306.475
306.489
306.508
306.528
306.548
306.566
306.581
306.594
306.603
306.607
306.607
306.603
306.594
306.581
306.566
306.548
306.528
306.508
306.489
306.475
302.168
302.173
302.18
302.186
302.193
302.199
302.204
302.208
302.211
302.213
302.213
302.211
302.208
302.204
302.199
302.193
302.186
302.18
302.173
302.168
334.554
334.628
334.717
334.808
334.895
334.975
335.045
335.101
335.14
335.16
335.16
335.14
335.101
335.045
334.975
334.895
334.808
334.717
334.628
334.554
329.751
329.813
329.89
329.969
330.045
330.114
330.175
330.223
330.257
330.275
330.275
330.257
330.223
330.175
330.114
330.045
329.969
329.89
329.813
329.751
325.034
325.086
325.151
325.217
325.281
325.34
325.392
325.433
325.461
325.476
325.476
325.461
325.433
325.392
325.34
325.281
325.217
325.151
325.086
325.034
320.389
320.431
320.484
320.538
320.591
320.639
320.681
320.715
320.738
320.75
320.75
320.738
320.715
320.681
320.639
320.591
320.538
320.484
320.431
320.389
315.803
315.835
315.876
315.918
315.959
315.996
316.029
316.055
316.074
316.083
316.083
316.074
316.055
316.029
315.996
315.959
315.918
315.876
315.835
315.803
311.261
311.284
311.313
311.343
311.372
311.399
311.423
311.441
311.454
311.461
311.461
311.454
311.441
311.423
311.399
311.372
311.343
311.313
311.284
311.261
306.751
306.765
306.782
306.801
306.818
306.834
306.848
306.86
306.868
306.872
306.872
306.868
306.86
306.848
306.834
306.818
306.801
306.782
306.765
306.751
302.261
302.266
302.271
302.278
302.283
302.289
302.294
302.297
302.3
302.301
302.301
302.3
302.297
302.294
302.289
302.283
302.278
302.271
302.266
302.261
336.035
336.102
336.184
336.267
336.346
336.419
336.482
336.532
336.567
336.585
336.585
336.567
336.532
336.482
336.419
336.346
336.267
336.184
336.102
336.035
331.015
331.072
331.143
331.215
331.284
331.347
331.401
331.445
331.475
331.491
331.491
331.475
331.445
331.401
331.347
331.284
331.215
331.143
331.072
331.015
326.09
326.137
326.197
326.257
326.316
326.369
326.415
326.452
326.478
326.491
326.491
326.478
326.452
326.415
326.369
326.316
326.257
326.197
326.137
326.09
321.243
321.281
321.33
321.38
321.428
321.471
321.509
321.539
321.56
321.571
321.571
321.56
321.539
321.509
321.471
321.428
321.38
321.33
321.281
321.243
316.461
316.49
316.528
316.567
316.604
316.638
316.667
316.691
316.707
316.716
316.716
316.707
316.691
316.667
316.638
316.604
316.567
316.528
316.49
316.461
311.728
311.749
311.776
311.803
311.83
311.854
311.876
311.892
311.904
311.91
311.91
311.904
311.892
311.876
311.854
311.83
311.803
311.776
311.749
311.728
307.031
307.043
307.059
307.076
307.092
307.106
307.119
307.129
307.136
307.14
307.14
307.136
307.129
307.119
307.106
307.092
307.076
307.059
307.043
307.031
302.354
302.359
302.364
302.37
302.375
302.38
302.384
302.387
302.39
302.391
302.391
302.39
302.387
302.384
302.38
302.375
302.37
302.364
302.359
302.354
337.464
337.526
337.602
337.678
337.75
337.817
337.874
337.919
337.95
337.967
337.967
337.95
337.919
337.874
337.817
337.75
337.678
337.602
337.526
337.464
332.22
332.274
332.339
332.405
332.468
332.525
332.575
332.614
332.642
332.656
332.656
332.642
332.614
332.575
332.525
332.468
332.405
332.339
332.274
332.22
327.085
327.129
327.184
327.24
327.294
327.343
327.385
327.418
327.441
327.453
327.453
327.441
327.418
327.385
327.343
327.294
327.24
327.184
327.129
327.085
322.041
322.077
322.122
322.167
322.211
322.251
322.286
322.313
322.332
322.342
322.342
322.332
322.313
322.286
322.251
322.211
322.167
322.122
322.077
322.041
317.071
317.099
317.133
317.169
317.203
317.235
317.261
317.283
317.298
317.305
317.305
317.298
317.283
317.261
317.235
317.203
317.169
317.133
317.099
317.071
312.159
312.178
312.203
312.229
312.253
312.275
312.295
312.31
312.321
312.326
312.326
312.321
312.31
312.295
312.275
312.253
312.229
312.203
312.178
312.159
307.287
307.299
307.314
307.329
307.344
307.357
307.369
307.378
307.384
307.388
307.388
307.384
307.378
307.369
307.357
307.344
307.329
307.314
307.299
307.287
302.44
302.444
302.449
302.454
302.459
302.463
302.467
302.47
302.473
302.474
302.474
302.473
302.47
302.467
302.463
302.459
302.454
302.449
302.444
302.44
338.594
338.652
338.723
338.795
338.863
338.924
338.977
339.019
339.049
339.064
339.064
339.049
339.019
338.977
338.924
338.863
338.795
338.723
338.652
338.594
333.137
333.187
333.248
333.31
333.37
333.423
333.47
333.506
333.532
333.545
333.545
333.532
333.506
333.47
333.423
333.37
333.31
333.248
333.187
333.137
327.819
327.86
327.912
327.965
328.015
328.061
328.101
328.132
328.154
328.165
328.165
328.154
328.132
328.101
328.061
328.015
327.965
327.912
327.86
327.819
322.614
322.648
322.69
322.734
322.775
322.813
322.845
322.871
322.889
322.898
322.898
322.889
322.871
322.845
322.813
322.775
322.734
322.69
322.648
322.614
317.501
317.527
317.56
317.594
317.626
317.656
317.681
317.701
317.715
317.722
317.722
317.715
317.701
317.681
317.656
317.626
317.594
317.56
317.527
317.501
312.458
312.476
312.5
312.524
312.547
312.568
312.586
312.601
312.611
312.616
312.616
312.611
312.601
312.586
312.568
312.547
312.524
312.5
312.476
312.458
307.464
307.475
307.489
307.503
307.517
307.53
307.541
307.549
307.556
307.559
307.559
307.556
307.549
307.541
307.53
307.517
307.503
307.489
307.475
307.464
302.499
302.502
302.507
302.512
302.517
302.521
302.525
302.527
302.529
302.53
302.53
302.529
302.527
302.525
302.521
302.517
302.512
302.507
302.502
302.499
)
;

boundaryField
{
    hotSide
    {
        type            fixedGradient;
        gradient        nonuniform List<scalar> 
400
(
250.737
251.749
253.777
256.822
260.891
265.989
272.125
279.307
287.543
296.841
307.21
318.658
331.191
344.816
359.538
375.363
392.294
410.334
429.486
449.752
253.055
254.05
256.041
259.034
263.035
268.054
274.1
281.184
289.317
298.509
308.771
320.112
332.541
346.066
360.692
376.425
393.27
411.23
430.307
450.505
255.565
256.537
258.485
261.416
265.338
270.263
276.204
283.174
291.188
300.259
310.399
321.621
333.934
347.347
361.868
377.502
394.254
412.128
431.126
451.251
258.223
259.17
261.069
263.927
267.757
272.574
278.395
285.237
293.117
302.053
312.059
323.149
335.336
348.63
363.038
378.567
395.222
413.007
431.924
451.974
260.957
261.875
263.717
266.494
270.223
274.92
280.609
287.31
295.046
303.836
313.699
324.651
336.706
349.875
364.168
379.59
396.147
413.842
432.677
452.654
263.651
264.538
266.32
269.012
272.632
277.204
282.754
289.309
296.895
305.536
315.254
326.067
337.99
351.036
365.215
380.533
396.995
414.605
433.362
453.269
266.151
267.008
268.731
271.336
274.849
279.297
284.712
291.125
298.567
307.065
316.645
327.326
339.127
352.059
366.133
381.356
397.732
415.264
433.952
453.796
268.274
269.103
270.772
273.3
276.717
281.055
286.35
292.638
299.953
308.328
317.788
328.357
340.053
352.888
366.875
382.018
398.322
415.79
434.421
454.215
269.827
270.635
272.262
274.732
278.076
282.33
287.534
293.728
300.95
309.232
318.604
329.09
340.709
353.474
367.397
382.482
398.736
416.157
434.748
454.506
270.65
271.446
273.051
275.49
278.793
283.002
288.157
294.301
301.472
309.705
319.03
329.472
341.05
353.778
367.667
382.722
398.948
416.346
434.916
454.655
270.65
271.446
273.051
275.49
278.793
283.002
288.157
294.301
301.472
309.705
319.03
329.472
341.05
353.778
367.667
382.722
398.948
416.346
434.916
454.655
269.827
270.635
272.262
274.732
278.076
282.33
287.534
293.728
300.95
309.232
318.604
329.09
340.709
353.474
367.397
382.482
398.736
416.157
434.748
454.506
268.274
269.103
270.772
273.3
276.717
281.055
286.35
292.638
299.953
308.328
317.788
328.357
340.053
352.888
366.875
382.018
398.322
415.79
434.421
454.215
266.151
267.008
268.731
271.336
274.849
279.297
284.712
291.125
298.567
307.065
316.645
327.326
339.127
352.059
366.133
381.356
397.732
415.264
433.952
453.796
263.651
264.538
266.32
269.012
272.632
277.204
282.754
289.309
296.895
305.536
315.254
326.067
337.99
351.036
365.215
380.533
396.995
414.605
433.362
453.269
260.957
261.875
263.717
266.494
270.223
274.92
280.609
287.31
295.046
303.836
313.699
324.651
336.706
349.875
364.168
379.59
396.147
413.842
432.677
452.654
258.223
259.17
261.069
263.927
267.757
272.574
278.395
285.237
293.117
302.053
312.059
323.149
335.336
348.63
363.038
378.567
395.222
413.007
431.924
451.974
255.565
256.537
258.485
261.416
265.338
270.263
276.204
283.174
291.188
300.259
310.399
321.621
333.934
347.347
361.868
377.502
394.254
412.128
431.126
451.251
253.055
254.05
256.041
259.034
263.035
268.054
274.1
281.184
289.317
298.509
308.771
320.112
332.541
346.066
360.692
376.425
393.27
411.23
430.307
450.505
250.737
251.749
253.777
256.822
260.891
265.989
272.125
279.307
287.543
296.841
307.21
318.658
331.191
344.816
359.538
375.363
392.294
410.334
429.486
449.752
)
;
    }
    coldSide
    {
        type            mixed;
        refValue        uniform 300;
        refGradient     uniform 0;
        valueFraction   uniform 0.991591;
        source          uniform 0;
        value           nonuniform List<scalar> 
400
(
300.012
300.012
300.012
300.013
300.013
300.013
300.013
300.014
300.014
300.015
300.015
300.016
300.016
300.017
300.017
300.018
300.019
300.02
300.021
300.021
300.012
300.012
300.013
300.013
300.013
300.013
300.013
300.014
300.014
300.015
300.015
300.016
300.016
300.017
300.018
300.018
300.019
300.02
300.021
300.021
300.013