/*--------------------------------*- C++ -*----------------------------------*\
| =========                 |                                                 |
| \\      /  F ield         | OpenFOAM: The Open Source CFD Toolbox           |
|  \\    /   O peration     | Version:  2212                                  |
|   \\  /    A nd           | Website:  www.openfoam.com                      |
|    \\/     M anipulation  |                                                 |
\*---------------------------------------------------------------------------*/
FoamFile
{
    version     2.0;
    format      ascii;
    arch        "LSB;label=32;scalar=64";
    class       volScalarField;
    location    "0";
    object      Tdirect;
}
// * * * * * * * * * * * * * * * * * * * * * * * * * * * * * * * * * * * * * //

dimensions      [0 0 0 1 0 0 0];

internalField   nonuniform List<scalar> 
3200
(
343.206
344.345
345.798
347.38
349.01
350.609
352.085
353.332
354.24
354.719
354.719
354.24
353.332
352.085
350.609
349.01
347.38
345.798
344.345
343.206
337.556
338.52
339.773
341.141
342.55
343.933
345.208
346.284
347.068
347.482
347.482
347.068
346.284
345.208
343.933
342.55
341.141
339.773
338.52
337.556
331.862
332.662
333.717
334.872
336.062
337.229
338.306
339.213
339.874
340.223
340.223
339.874
339.213
338.306
337.229
336.062
334.872
333.717
332.662
331.862
326.13
326.773
327.632
328.576
329.549
330.502
331.381
332.121
332.66
332.945
332.945
332.66
332.121
331.381
330.502
329.549
328.576
327.632
326.773
326.13
320.364
320.858
321.524
322.257
323.013
323.753
324.436
325.011
325.429
325.65
325.65
325.429
325.011
324.436
323.753
323.013
322.257
321.524
320.858
320.364
314.572
314.922
315.396
315.92
316.459
316.988
317.475
317.885
318.183
318.341
318.341
318.183
317.885
317.475
316.988
316.459
315.92
315.396
314.922
314.572
308.761
308.969
309.254
309.568
309.892
310.209
310.501
310.748
310.927
311.021
311.021
310.927
310.748
310.501
310.209
309.892
309.568
309.254
308.969
308.761
302.938
303.008
303.103
303.208
303.317
303.423
303.521
303.604
303.664
303.695
303.695
303.664
303.604
303.521
303.423
303.317
303.208
303.103
303.008
302.938
343.288
344.418
345.859
347.426
349.039
350.621
352.08
353.311
354.207
354.68
354.68
354.207
353.311
352.08
350.621
349.039
347.426
345.859
344.418
343.288
337.627
338.584
339.826
341.181
342.576
343.943
345.204
346.266
347.04
347.448
347.448
347.04
346.266
345.204
343.943
342.576
341.181
339.826
338.584
337.627
331.922
332.716
333.761
334.906
336.084
337.238
338.302
339.199
339.851
340.195
340.195
339.851
339.199
338.302
337.238
336.084
334.906
333.761
332.716
331.922
326.179
326.817
327.669
328.604
329.566
330.509
331.378
332.11
332.642
332.923
332.923
332.642
332.11
331.378
330.509
329.566
328.604
327.669
326.817
326.179
320.402
320.892
321.553
322.279
323.027
323.759
324.434
325.002
325.415
325.633
325.633
325.415
325.002
324.434
323.759
323.027
322.279
321.553
320.892
320.402
314.599
314.946
315.417
315.935
316.469
316.992
317.473
317.878
318.173
318.328
318.328
318.173
317.878
317.473
316.992
316.469
315.935
315.417
314.946
314.599
308.777
308.984
309.266
309.578
309.898
310.212
310.501
310.744
310.921
311.014
311.014
310.921
310.744
310.501
310.212
309.898
309.578
309.266
308.984
308.777
302.944
303.013
303.107
303.211
303.319
303.424
303.521
303.602
303.661
303.693
303.693
303.661
303.602
303.521
303.424
303.319
303.211
303.107
303.013
302.944
343.454
344.567
345.983
347.521
349.102
350.649
352.074
353.275
354.148
354.609
354.609
354.148
353.275
352.074
350.649
349.102
347.521
345.983
344.567
343.454
337.771
338.712
339.933
341.263
342.63
343.968
345.199
346.236
346.99
347.388
347.388
346.99
346.236
345.199
343.968
342.63
341.263
339.933
338.712
337.771
332.043
332.824
333.852
334.975
336.13
337.26
338.299
339.174
339.81
340.145
340.145
339.81
339.174
338.299
337.26
336.13
334.975
333.852
332.824
332.043
326.277
326.906
327.743
328.661
329.604
330.527
331.376
332.09
332.608
332.882
332.882
332.608
332.09
331.376
330.527
329.604
328.661
327.743
326.906
326.277
320.479
320.961
321.61
322.323
323.056
323.773
324.432
324.986
325.389
325.601
325.601
325.389
324.986
324.432
323.773
323.056
322.323
321.61
320.961
320.479
314.654
314.995
315.458
315.967
316.49
317.002
317.472
317.868
318.155
318.306
318.306
318.155
317.868
317.472
317.002
316.49
315.967
315.458
314.995
314.654
308.81
309.014
309.291
309.597
309.911
310.218
310.5
310.737
310.91
311.001
311.001
310.91
310.737
310.5
310.218
309.911
309.597
309.291
309.014
308.81
302.955
303.023
303.116
303.218
303.323
303.426
303.521
303.6
303.658
303.688
303.688
303.658
303.6
303.521
303.426
303.323
303.218
303.116
303.023
302.955
343.707
344.793
346.173
347.67
349.203
350.701
352.078
353.235
354.076
354.519
354.519
354.076
353.235
352.078
350.701
349.203
347.67
346.173
344.793
343.707
337.989
338.908
340.098
341.392
342.718
344.014
345.203
346.203
346.929
347.311
347.311
346.929
346.203
345.203
344.014
342.718
341.392
340.098
338.908
337.989
332.227
332.989
333.991
335.084
336.205
337.299
338.303
339.147
339.759
340.081
340.081
339.759
339.147
338.303
337.299
336.205
335.084
333.991
332.989
332.227
326.427
327.041
327.857
328.75
329.666
330.559
331.379
332.068
332.567
332.831
332.831
332.567
332.068
331.379
330.559
329.666
328.75
327.857
327.041
326.427
320.595
321.066
321.699
322.393
323.104
323.798
324.435
324.97
325.358
325.562
325.562
325.358
324.97
324.435
323.798
323.104
322.393
321.699
321.066
320.595
314.737
315.07
315.521
316.016
316.524
317.02
317.474
317.856
318.133
318.278
318.278
318.133
317.856
317.474
317.02
316.524
316.016
315.521
315.07
314.737
308.86
309.059
309.329
309.626
309.931
310.229
310.502
310.73
310.896
310.984
310.984
310.896
310.73
310.502
310.229
309.931
309.626
309.329
309.059
308.86
302.971
303.038
303.128
303.228
303.33
303.43
303.521
303.598
303.653
303.683
303.683
303.653
303.598
303.521
303.43
303.33
303.228
303.128
303.038
302.971
344.048
345.101
346.436
347.879
349.353
350.789
352.104
353.208
354.007
354.428
354.428
354.007
353.208
352.104
350.789
349.353
347.879
346.436
345.101
344.048
338.283
339.175
340.325
341.573
342.849
344.09
345.227
346.181
346.871
347.235
347.235
346.871
346.181
345.227
344.09
342.849
341.573
340.325
339.175
338.283
332.476
333.215
334.184
335.238
336.315
337.364
338.324
339.128
339.711
340.018
340.018
339.711
339.128
338.324
337.364
336.315
335.238
334.184
333.215
332.476
326.63
327.225
328.015
328.876
329.756
330.613
331.397
332.054
332.529
332.779
332.779
332.529
332.054
331.397
330.613
329.756
328.876
328.015
327.225
326.63
320.753
321.209
321.821
322.49
323.175
323.84
324.449
324.959
325.328
325.523
325.523
325.328
324.959
324.449
323.84
323.175
322.49
321.821
321.209
320.753
314.849
315.172
315.609
316.086
316.575
317.05
317.485
317.849
318.112
318.251
318.251
318.112
317.849
317.485
317.05
316.575
316.086
315.609
315.172
314.849
308.927
309.12
309.382
309.668
309.962
310.247
310.508
310.726
310.884
310.967
310.967
310.884
310.726
310.508
310.247
309.962
309.668
309.382
309.12
308.927
302.994
303.058
303.146
303.242
303.34
303.436
303.523
303.596
303.649
303.677
303.677
303.649
303.596
303.523
303.436
303.34
303.242
303.146
303.058
302.994
344.483
345.497
346.778
348.158
349.563
350.926
352.17
353.211
353.964
354.359
354.359
353.964
353.211
352.17
350.926
349.563
348.158
346.778
345.497
344.483
338.659
339.517
340.621
341.815
343.03
344.209
345.285
346.185
346.835
347.177
347.177
346.835
346.185
345.285
344.209
343.03
341.815
340.621
339.517
338.659
332.793
333.504
334.434
335.442
336.469
337.465
338.374
339.133
339.682
339.97
339.97
339.682
339.133
338.374
337.465
336.469
335.442
334.434
333.504
332.793
326.889
327.461
328.219
329.043
329.882
330.696
331.438
332.058
332.506
332.741
332.741
332.506
332.058
331.438
330.696
329.882
329.043
328.219
327.461
326.889
320.953
321.393
321.98
322.62
323.273
323.905
324.482
324.963
325.311
325.494
325.494
325.311
324.963
324.482
323.905
323.273
322.62
321.98
321.393
320.953
314.993
315.303
315.722
316.179
316.645
317.096
317.508
317.852
318.1
318.23
318.23
318.1
317.852
317.508
317.096
316.645
316.179
315.722
315.303
314.993
309.013
309.199
309.45
309.724
310.004
310.275
310.522
310.728
310.877
310.955
310.955
310.877
310.728
310.522
310.275
310.004
309.724
309.45
309.199
309.013
303.023
303.085
303.169
303.261
303.354
303.445
303.528
303.597
303.647
303.673
303.673
303.647
303.597
303.528
303.445
303.354
303.261
303.169
303.085
303.023
345.016
345.986
347.206
348.516
349.844
351.127
352.293
353.266
353.967
354.335
354.335
353.967
353.266
352.293
351.127
349.844
348.516
347.206
345.986
345.016
339.12
339.94
340.992
342.125
343.274
344.384
345.393
346.233
346.839
347.158
347.158
346.839
346.233
345.393
344.384
343.274
342.125
340.992
339.94
339.12
333.181
333.861
334.748
335.705
336.676
337.613
338.465
339.175
339.687
339.955
339.955
339.687
339.175
338.465
337.613
336.676
335.705
334.748
333.861
333.181
327.206
327.753
328.475
329.257
330.051
330.817
331.514
332.093
332.511
332.73
332.73
332.511
332.093
331.514
330.817
330.051
329.257
328.475
327.753
327.206
321.2
321.62
322.18
322.787
323.404
324
324.54
324.991
325.315
325.485
325.485
325.315
324.991
324.54
324
323.404
322.787
322.18
321.62
321.2
315.168
315.465
315.865
316.298
316.739
317.164
317.55
317.872
318.103
318.225
318.225
318.103
317.872
317.55
317.164
316.739
316.298
315.865
315.465
315.168
309.119
309.296
309.535
309.796
310.06
310.315
310.547
310.74
310.879
310.952
310.952
310.879
310.74
310.547
310.315
310.06
309.796
309.535
309.296
309.119
303.058
303.117
303.197
303.285
303.373
303.459
303.536
303.601
303.648
303.672
303.672
303.648
303.601
303.536
303.459
303.373
303.285
303.197
303.117
303.058
345.653
346.574
347.729
348.964
350.209
351.407
352.492
353.392
354.04
354.38
354.38
354.04
353.392
352.492
351.407
350.209
348.964
347.729
346.574
345.653
339.67
340.449
341.445
342.513
343.591
344.627
345.566
346.345
346.904
347.198
347.198
346.904
346.345
345.566
344.627
343.591
342.513
341.445
340.449
339.67
333.645
334.291
335.13
336.033
336.944
337.819
338.612
339.27
339.743
339.99
339.99
339.743
339.27
338.612
337.819
336.944
336.033
335.13
334.291
333.645
327.585
328.105
328.788
329.526
330.27
330.986
331.634
332.171
332.558
332.76
332.76
332.558
332.171
331.634
330.986
330.27
329.526
328.788
328.105
327.585
321.494
321.893
322.423
322.996
323.575
324.131
324.634
325.052
325.352
325.509
325.509
325.352
325.052
324.634
324.131
323.575
322.996
322.423
321.893
321.494
315.378
315.66
316.038
316.447
316.861
317.258
317.617
317.915
318.13
318.242
318.242
318.13
317.915
317.617
317.258
316.861
316.447
316.038
315.66
315.378
309.245
309.413
309.64
309.885
310.133
310.372
310.588
310.767
310.895
310.962
310.962
310.895
310.767
310.588
310.372
310.133
309.885
309.64
309.413
309.245
303.1
303.156
303.232
303.315
303.398
303.478
303.55
303.61
303.653
303.676
303.676
303.653
303.61
303.55
303.478
303.398
303.315
303.232
303.156
303.1
346.399
347.269
348.356
349.511
350.672
351.782
352.784
353.612
354.205
354.516
354.516
354.205
353.612
352.784
351.782
350.672
349.511
348.356
347.269
346.399
340.314
341.05
341.987
342.987
343.992
344.953
345.819
346.535
347.049
347.317
347.317
347.049
346.535
345.819
344.953
343.992
342.987
341.987
341.05
340.314
334.189
334.799
335.589
336.434
337.283
338.095
338.827
339.432
339.866
340.092
340.092
339.866
339.432
338.827
338.095
337.283
336.434
335.589
334.799
334.189
328.029
328.52
329.163
329.854
330.548
331.212
331.81
332.304
332.659
332.844
332.844
332.659
332.304
331.81
331.212
330.548
329.854
329.163
328.52
328.029
321.839
322.215
322.714
323.251
323.79
324.307
324.772
325.156
325.431
325.575
325.575
325.431
325.156
324.772
324.307
323.79
323.251
322.714
322.215
321.839
315.624
315.891
316.246
316.629
317.015
317.384
317.716
317.99
318.186
318.289
318.289
318.186
317.99
317.716
317.384
317.015
316.629
316.246
315.891
315.624
309.392
309.551
309.765
309.995
310.226
310.447
310.647
310.811
310.929
310.991
310.991
310.929
310.811
310.647
310.447
310.226
309.995
309.765
309.551
309.392
303.15
303.203
303.274
303.351
303.429
303.503
303.57
303.625
303.664
303.685
303.685
303.664
303.625
303.57
303.503
303.429
303.351
303.274
303.203
303.15
347.259
348.076
349.093
350.169
351.244
352.267
353.185
353.941
354.481
354.763
354.763
354.481
353.941
353.185
352.267
351.244
350.169
349.093
348.076
347.259
341.057
341.749
342.625
343.557
344.487
345.373
346.167
346.822
347.289
347.533
347.533
347.289
346.822
346.167
345.373
344.487
343.557
342.625
341.749
341.057
334.816
335.39
336.128
336.915
337.702
338.45
339.122
339.675
340.07
340.276
340.276
340.07
339.675
339.122
338.45
337.702
336.915
336.128
335.39
334.816
328.541
329.002
329.604
330.247
330.89
331.502
332.051
332.503
332.826
332.994
332.994
332.826
332.503
332.051
331.502
330.89
330.247
329.604
329.002
328.541
322.236
322.59
323.057
323.557
324.057
324.533
324.959
325.311
325.561
325.692
325.692
325.561
325.311
324.959
324.533
324.057
323.557
323.057
322.59
322.236
315.908
316.158
316.491
316.848
317.205
317.545
317.85
318.101
318.28
318.373
318.373
318.28
318.101
317.85
317.545
317.205
316.848
316.491
316.158
315.908
309.563
309.712
309.912
310.126
310.34
310.544
310.727
310.878
310.985
311.041
311.041
310.985
310.878
310.727
310.544
310.34
310.126
309.912
309.712
309.563
303.207
303.257
303.323
303.395
303.467
303.536
303.597
303.647
303.683
303.702
303.702
303.683
303.647
303.597
303.536
303.467
303.395
303.323
303.257
303.207
348.238
349.003
349.949
350.946
351.936
352.873
353.711
354.397
354.886
355.141
355.141
354.886
354.397
353.711
352.873
351.936
350.946
349.949
349.003
348.238
341.904
342.55
343.367
344.229
345.086
345.898
346.623
347.217
347.64
347.861
347.861
347.64
347.217
346.623
345.898
345.086
344.229
343.367
342.55
341.904
335.531
336.067
336.755
337.483
338.208
338.895
339.507
340.01
340.367
340.554
340.554
340.367
340.01
339.507
338.895
338.208
337.483
336.755
336.067
335.531
329.125
329.556
330.116
330.712
331.305
331.866
332.367
332.777
333.07
333.222
333.222
333.07
332.777
332.367
331.866
331.305
330.712
330.116
329.556
329.125
322.69
323.02
323.455
323.918
324.379
324.815
325.205
325.524
325.751
325.869
325.869
325.751
325.524
325.205
324.815
324.379
323.918
323.455
323.02
322.69
316.232
316.466
316.776
317.106
317.435
317.747
318.025
318.253
318.415
318.5
318.5
318.415
318.253
318.025
317.747
317.435
317.106
316.776
316.466
316.232
309.757
309.896
310.082
310.281
310.478
310.666
310.833
310.969
311.067
311.118
311.118
311.067
310.969
310.833
310.666
310.478
310.281
310.082
309.896
309.757
303.272
303.318
303.381
303.447
303.513
303.576
303.632
303.678
303.711
303.728
303.728
303.711
303.678
303.632
303.576
303.513
303.447
303.381
303.318
303.272
349.342
350.054
350.931
351.85
352.758
353.613
354.373
354.994
355.434
355.663
355.663
355.434
354.994
354.373
353.613
352.758
351.85
350.931
350.054
349.342
342.858
343.46
344.216
345.012
345.798
346.539
347.197
347.734
348.115
348.314
348.314
348.115
347.734
347.197
346.539
345.798
345.012
344.216
343.46
342.858
336.336
336.835
337.473
338.145
338.81
339.436
339.993
340.447
340.769
340.937
340.937
340.769
340.447
339.993
339.436
338.81
338.145
337.473
336.835
336.336
329.782
330.184
330.703
331.253
331.797
332.309
332.764
333.135
333.399
333.536
333.536
333.399
333.135
332.764
332.309
331.797
331.253
330.703
330.184
329.782
323.201
323.509
323.912
324.339
324.761
325.16
325.513
325.802
326.007
326.114
326.114
326.007
325.802
325.513
325.16
324.761
324.339
323.912
323.509
323.201
316.596
316.814
317.101
317.406
317.708
317.993
318.246
318.452
318.598
318.674
318.674
318.598
318.452
318.246
317.993
317.708
317.406
317.101
316.814
316.596
309.976
310.106
310.278
310.461
310.642
310.813
310.965
311.089
311.177
311.222
311.222
311.177
311.089
310.965
310.813
310.642
310.461
310.278
310.106
309.976
303.345
303.389
303.446
303.508
303.568
303.626
303.677
303.718
303.747
303.763
303.763
303.747
303.718
303.677
303.626
303.568
303.508
303.446
303.389
303.345
350.574
351.234
352.044
352.888
353.718
354.495
355.182
355.741
356.136
356.342
356.342
356.136
355.741
355.182
354.495
353.718
352.888
352.044
351.234
350.574
343.923
344.481
345.18
345.91
346.629
347.302
347.897
348.381
348.723
348.901
348.901
348.723
348.381
347.897
347.302
346.629
345.91
345.18
344.481
343.923
337.236
337.698
338.287
338.905
339.512
340.082
340.585
340.994
341.284
341.434
341.434
341.284
340.994
340.585
340.082
339.512
338.905
338.287
337.698
337.236
330.517
330.889
331.369
331.874
332.371
332.836
333.248
333.583
333.819
333.942
333.942
333.819
333.583
333.248
332.836
332.371
331.874
331.369
330.889
330.517
323.771
324.057
324.429
324.821
325.208
325.57
325.89
326.15
326.334
326.43
326.43
326.334
326.15
325.89
325.57
325.208
324.821
324.429
324.057
323.771
317.004
317.206
317.471
317.751
318.027
318.286
318.515
318.7
318.832
318.9
318.9
318.832
318.7
318.515
318.286
318.027
317.751
317.471
317.206
317.004
310.22
310.341
310.5
310.668
310.834
310.989
311.127
311.238
311.317
311.358
311.358
311.317
311.238
311.127
310.989
310.834
310.668
310.5
310.341
310.22
303.427
303.467
303.521
303.577
303.633
303.685
303.731
303.768
303.795
303.808
303.808
303.795
303.768
303.731
303.685
303.633
303.577
303.521
303.467
303.427
351.937
352.547
353.293
354.066
354.821
355.525
356.145
356.646
357
357.184
357.184
357
356.646
356.145
355.525
354.821
354.066
353.293
352.547
351.937
345.101
345.617
346.261
346.93
347.584
348.194
348.73
349.165
349.471
349.63
349.63
349.471
349.165
348.73
348.194
347.584
346.93
346.261
345.617
345.101
338.231
338.658
339.2
339.766
340.319
340.835
341.289
341.657
341.916
342.05
342.05
341.916
341.657
341.289
340.835
340.319
339.766
339.2
338.658
338.231
331.33
331.674
332.116
332.578
333.03
333.452
333.824
334.124
334.336
334.446
334.446
334.336
334.124
333.824
333.452
333.03
332.578
332.116
331.674
331.33
324.402
324.666
325.009
325.368
325.72
326.049
326.337
326.571
326.736
326.822
326.822
326.736
326.571
326.337
326.049
325.72
325.368
325.009
324.666
324.402
317.454
317.641
317.885
318.142
318.393
318.628
318.834
319.001
319.119
319.18
319.18
319.119
319.001
318.834
318.628
318.393
318.142
317.885
317.641
317.454
310.491
310.602
310.749
310.903
311.054
311.195
311.318
311.419
311.489
311.526
311.526
311.489
311.419
311.318
311.195
311.054
310.903
310.749
310.602
310.491
303.518
303.555
303.604
303.656
303.706
303.753
303.795
303.829
303.852
303.865
303.865
303.852
303.829
303.795
303.753
303.706
303.656
303.604
303.555
303.518
353.432
353.995
354.68
355.385
356.071
356.707
357.265
357.714
358.03
358.194
358.194
358.03
357.714
357.265
356.707
356.071
355.385
354.68
353.995
353.432
346.393
346.869
347.46
348.071
348.665
349.216
349.699
350.089
350.363
350.504
350.504
350.363
350.089
349.699
349.216
348.665
348.071
347.46
346.869
346.393
339.321
339.716
340.214
340.73
341.233
341.699
342.108
342.437
342.669
342.789
342.789
342.669
342.437
342.108
341.699
341.233
340.73
340.214
339.716
339.321
332.22
332.538
332.943
333.366
333.777
334.159
334.493
334.762
334.952
335.05
335.05
334.952
334.762
334.493
334.159
333.777
333.366
332.943
332.538
332.22
325.094
325.338
325.652
325.981
326.301
326.597
326.857
327.067
327.214
327.29
327.29
327.214
327.067
326.857
326.597
326.301
325.981
325.652
325.338
325.094
317.948
318.12
318.345
318.579
318.808
319.02
319.205
319.355
319.46
319.515
319.515
319.46
319.355
319.205
319.02
318.808
318.579
318.345
318.12
317.948
310.787
310.89
311.024
311.165
311.302
311.43
311.541
311.631
311.694
311.727
311.727
311.694
311.631
311.541
311.43
311.302
311.165
311.024
310.89
310.787
303.617
303.651
303.696
303.744
303.79
303.832
303.87
303.9
303.921
303.932
303.932
303.921
303.9
303.87
303.832
303.79
303.744
303.696
303.651
303.617
355.054
355.573
356.2
356.843
357.465
358.039
358.54
358.942
359.224
359.37
359.37
359.224
358.942
358.54
358.039
357.465
356.843
356.2
355.573
355.054
347.795
348.233
348.774
349.331
349.87
350.368
350.801
351.15
351.394
351.52
351.52
351.394
351.15
350.801
350.368
349.87
349.331
348.774
348.233
347.795
340.504
340.867
341.323
341.794
342.25
342.671
343.038
343.333
343.54
343.646
343.646
343.54
343.333
343.038
342.671
342.25
341.794
341.323
340.867
340.504
333.186
333.478
333.849
334.234
334.608
334.952
335.252
335.494
335.663
335.75
335.75
335.663
335.494
335.252
334.952
334.608
334.234
333.849
333.478
333.186
325.844
326.068
326.356
326.655
326.946
327.214
327.447
327.635
327.767
327.834
327.834
327.767
327.635
327.447
327.214
326.946
326.655
326.356
326.068
325.844
318.483
318.641
318.847
319.061
319.268
319.459
319.626
319.76
319.855
319.903
319.903
319.855
319.76
319.626
319.459
319.268
319.061
318.847
318.641
318.483
311.108
311.202
311.326
311.454
311.579
311.694
311.794
311.874
311.931
311.96
311.96
311.931
311.874
311.794
311.694
311.579
311.454
311.326
311.202
311.108
303.724
303.756
303.797
303.84
303.882
303.921
303.954
303.981
304
304.01
304.01
304
303.981
303.954
303.921
303.882
303.84
303.797
303.756
303.724
356.788
357.265
357.839
358.425
358.989
359.506
359.956
360.316
360.568
360.697
360.697
360.568
360.316
359.956
359.506
358.989
358.425
357.839
357.265
356.788
349.29
349.693
350.188
350.696
351.184
351.633
352.023
352.335
352.553
352.665
352.665
352.553
352.335
352.023
351.633
351.184
350.696
350.188
349.693
349.29
341.763
342.097
342.515
342.944
343.358
343.737
344.067
344.331
344.516
344.611
344.611
344.516
344.331
344.067
343.737
343.358
342.944
342.515
342.097
341.763
334.212
334.481
334.821
335.172
335.511
335.821
336.091
336.307
336.459
336.536
336.536
336.459
336.307
336.091
335.821
335.511
335.172
334.821
334.481
334.212
326.64
326.846
327.11
327.383
327.646
327.888
328.098
328.266
328.384
328.444
328.444
328.384
328.266
328.098
327.888
327.646
327.383
327.11
326.846
326.64
319.05
319.196
319.384
319.579
319.767
319.94
320.09
320.21
320.294
320.338
320.338
320.294
320.21
320.09
319.94
319.767
319.579
319.384
319.196
319.05
311.448
311.535
311.648
311.765
311.878
311.982
312.072
312.144
312.195
312.221
312.221
312.195
312.144
312.072
311.982
311.878
311.765
311.648
311.535
311.448
303.838
303.867
303.905
303.945
303.982
304.017
304.047
304.072
304.089
304.097
304.097
304.089
304.072
304.047
304.017
303.982
303.945
303.905
303.867
303.838
358.589
359.027
359.554
360.088
360.6
361.068
361.472
361.795
362.021
362.136
362.136
362.021
361.795
361.472
361.068
360.6
360.088
359.554
359.027
358.589
350.836
351.206
351.66
352.124
352.568
352.973
353.324
353.605
353.8
353.9
353.9
353.8
353.605
353.324
352.973
352.568
352.124
351.66
351.206
350.836
343.06
343.367
343.75
344.142
344.518
344.862
345.159
345.396
345.562
345.647
345.647
345.562
345.396
345.159
344.862
344.518
344.142
343.75
343.367
343.06
335.265
335.512
335.825
336.145
336.453
336.735
336.978
337.172
337.308
337.377
337.377
337.308
337.172
336.978
336.735
336.453
336.145
335.825
335.512
335.265
327.454
327.644
327.886
328.135
328.375
328.594
328.783
328.935
329.04
329.094
329.094
329.04
328.935
328.783
328.594
328.375
328.135
327.886
327.644
327.454
319.629
319.763
319.936
320.114
320.286
320.442
320.578
320.686
320.761
320.8
320.8
320.761
320.686
320.578
320.442
320.286
320.114
319.936
319.763
319.629
311.795
311.875
311.979
312.086
312.188
312.283
312.364
312.429
312.474
312.497
312.497
312.474
312.429
312.364
312.283
312.188
312.086
311.979
311.875
311.795
303.954
303.981
304.016
304.052
304.086
304.118
304.145
304.167
304.182
304.19
304.19
304.182
304.167
304.145
304.118
304.086
304.052
304.016
303.981
303.954
360.339
360.744
361.229
361.72
362.188
362.614
362.982
363.274
363.477
363.582
363.582
363.477
363.274
362.982
362.614
362.188
361.72
361.229
360.744
360.339
352.319
352.662
353.081
353.507
353.914
354.284
354.603
354.857
355.034
355.125
355.125
355.034
354.857
354.603
354.284
353.914
353.507
353.081
352.662
352.319
344.291
344.576
344.929
345.29
345.635
345.949
346.22
346.435
346.585
346.662
346.662
346.585
346.435
346.22
345.949
345.635
345.29
344.929
344.576
344.291
336.256
336.485
336.774
337.069
337.352
337.609
337.831
338.007
338.13
338.193
338.193
338.13
338.007
337.831
337.609
337.352
337.069
336.774
336.485
336.256
328.214
328.39
328.614
328.844
329.064
329.265
329.438
329.575
329.671
329.72
329.72
329.671
329.575
329.438
329.265
329.064
328.844
328.614
328.39
328.214
320.167
320.291
320.451
320.616
320.773
320.917
321.04
321.139
321.207
321.242
321.242
321.207
321.139
321.04
320.917
320.773
320.616
320.451
320.291
320.167
312.115
312.19
312.286
312.385
312.479
312.565
312.64
312.699
312.74
312.761
312.761
312.74
312.699
312.64
312.565
312.479
312.385
312.286
312.19
312.115
304.062
304.086
304.119
304.152
304.183
304.212
304.237
304.257
304.271
304.278
304.278
304.271
304.257
304.237
304.212
304.183
304.152
304.119
304.086
304.062
361.723
362.104
362.56
363.021
363.458
363.856
364.198
364.469
364.657
364.754
364.754
364.657
364.469
364.198
363.856
363.458
363.021
362.56
362.104
361.723
353.448
353.771
354.167
354.568
354.949
355.296
355.593
355.83
355.994
356.078
356.078
355.994
355.83
355.593
355.296
354.949
354.568
354.167
353.771
353.448
345.199
345.468
345.802
346.143
346.467
346.761
347.015
347.216
347.355
347.427
347.427
347.355
347.216
347.015
346.761
346.467
346.143
345.802
345.468
345.199
336.968
337.185
337.459
337.738
338.004
338.246
338.454
338.619
338.734
338.793
338.793
338.734
338.619
338.454
338.246
338.004
337.738
337.459
337.185
336.968
328.75
328.917
329.13
329.347
329.555
329.744
329.906
330.035
330.125
330.171
330.171
330.125
330.035
329.906
329.744
329.555
329.347
329.13
328.917
328.75
320.541
320.659
320.811
320.967
321.115
321.251
321.367
321.459
321.523
321.556
321.556
321.523
321.459
321.367
321.251
321.115
320.967
320.811
320.659
320.541
312.336
312.407
312.498
312.592
312.681
312.763
312.833
312.888
312.927
312.947
312.947
312.927
312.888
312.833
312.763
312.681
312.592
312.498
312.407
312.336
304.135
304.159
304.189
304.221
304.251
304.278
304.301
304.32
304.333
304.34
304.34
304.333
304.32
304.301
304.278
304.251
304.221
304.189
304.159
304.135
)
;

boundaryField
{
    hotSide
    {
        type            fixedGradient;
        gradient        nonuniform List<scalar> 
400
(
448.046
448.962
450.805
453.599
457.379
462.186
468.07
475.083
483.281
492.717
503.446
515.517
528.977
543.866
560.221
578.072
597.446
618.363
640.84
664.891
463.091
463.887
465.497
467.951
471.294
475.584
480.884
487.263
494.791
503.539
513.573
524.954
537.739
551.975
567.705
584.964
603.781
624.176
646.169
669.771
479.373
480.027
481.358
483.407
486.235
489.915
494.532
500.174
506.932
514.892
524.137
534.742
546.773
560.288
575.334
591.949
610.165
630.003
651.482
674.612
496.622
497.111
498.117
499.698
501.931
504.912
508.75
513.558
519.448
526.53
534.904
544.659
555.873
568.612
582.927
598.862
616.448
635.708
656.656
679.303
514.356
514.659
515.302
516.357
517.927
520.134
523.115
527.011
531.962
538.1
545.545
554.403
564.761
576.693
590.258
605.499
622.448
641.126
661.546
683.715
531.836
531.939
532.194
532.691
533.557
534.947
537.03
539.977
543.959
549.131
555.633
563.586
573.09
584.225
597.053
611.618
627.951
646.072
665.989
687.706
548.061
547.965
547.832
547.773
547.944
548.53
549.734
551.76
554.805
559.052
564.659
571.76
580.466
590.861
603.009
616.956
632.731
650.349
669.816
691.13
561.832
561.556
561.074
560.516
560.065
559.935
560.36
561.574
563.802
567.244
572.078
578.449
586.474
596.242
607.82
621.251
636.561
653.764
672.861
693.846
571.909
571.496
570.746
569.808
568.883
568.21
568.047
568.652
570.267
573.111
577.372
583.205
590.732
600.044
611.208
624.266
639.242
656.147
674.98
695.732
577.249
576.761
575.866
574.72
573.538
572.571
572.091
572.367
573.653
576.177
580.133
585.68
592.942
602.014
612.959
625.821
640.623
657.373
676.069
696.699
577.249
576.761
575.866
574.72
573.538
572.571
572.091
572.367
573.653
576.177
580.133
585.68
592.942
602.014
612.959
625.821
640.623
657.373
676.069
696.699
571.909
571.496
570.746
569.808
568.883
568.21
568.047
568.652
570.267
573.111
577.372
583.205
590.732
600.044
611.208
624.266
639.242
656.147
674.98
695.732
561.832
561.556
561.074
560.516
560.065
559.935
560.36
561.574
563.802
567.244
572.078
578.449
586.474
596.242
607.82
621.251
636.561
653.764
672.861
693.846
548.061
547.965
547.832
547.773
547.944
548.53
549.734
551.76
554.805
559.052
564.659
571.76
580.466
590.861
603.009
616.956
632.731
650.349
669.816
691.13
531.836
531.939
532.194
532.691
533.557
534.947
537.03
539.977
543.959
549.131
555.633
563.586
573.09
584.225
597.053
611.618
627.951
646.072
665.989
687.706
514.356
514.659
515.302
516.357
517.927
520.134
523.115
527.011
531.962
538.1
545.545
554.403
564.761
576.693
590.258
605.499
622.448
641.126
661.546
683.715
496.622
497.111
498.117
499.698
501.931
504.912
508.75
513.558
519.448
526.53
534.904
544.659
555.873
568.612
582.927
598.862
616.448
635.708
656.656
679.303
479.373
480.027
481.358
483.407
486.235
489.915
494.532
500.174
506.932
514.892
524.137
534.742
546.773
560.288
575.334
591.949
610.165
630.003
651.482
674.612
463.091
463.887
465.497
467.951
471.294
475.584
480.884
487.263
494.791
503.539
513.573
524.954
537.739
551.975
567.705
584.964
603.781
624.176
646.169
669.771
448.046
448.962
450.805
453.599
457.379
462.186
468.07
475.083
483.281
492.717
503.446
515.517
528.977
543.866
560.221
578.072
597.446
618.363
640.84
664.891
)
;
    }
    coldSide
    {
        type            mixed;
        refValue        uniform 300;
        refGradient     uniform 0;
        valueFraction   uniform 0.991591;
        source          uniform 0;
        value           nonuniform List<scalar> 
400
(
300.025
300.025
300.025
300.025
300.025
300.025
300.026
300.026
300.026
300.027
300.028
300.028
300.029
300.03
300.03
300.031
300.032
300.033
300.034
300.035
300.025
300.025
300.025
300.026
300.026
300.026
300.026
300.027
300.027
300.027
300.028
300.028
300.029
300.03
300.031
300.032
300.033
300.033
300.034
300.035
300.026
300.026
300.026
300.026