/*--------------------------------*- C++ -*----------------------------------*\
| =========                 |                                                 |
| \\      /  F ield         | OpenFOAM: The Open Source CFD Toolbox           |
|  \\    /   O peration     | Version:  2212                                  |
|   \\  /    A nd           | Website:  www.openfoam.com                      |
|    \\/     M anipulation  |                                                 |
\*---------------------------------------------------------------------------*/
FoamFile
{
    version     2.0;
    format      ascii;
    arch        "LSB;label=32;scalar=64";
    class       volScalarField;
    location    "0";
    object      Tdirect;
}
// * * * * * * * * * * * * * * * * * * * * * * * * * * * * * * * * * * * * * //

dimensions      [0 0 0 1 0 0 0];

internalField   nonuniform List<scalar> 
3200
(
325.702
326.119
326.65
327.23
327.827
328.412
328.953
329.41
329.742
329.918
329.918
329.742
329.41
328.953
328.412
327.827
327.23
326.65
326.119
325.702
322.389
322.742
323.2
323.701
324.218
324.725
325.192
325.586
325.874
326.025
326.025
325.874
325.586
325.192
324.725
324.218
323.701
323.2
322.742
322.389
319.028
319.32
319.707
320.13
320.567
320.995
321.389
321.722
321.965
322.092
322.092
321.965
321.722
321.389
320.995
320.567
320.13
319.707
319.32
319.028
315.626
315.862
316.177
316.523
316.88
317.229
317.552
317.823
318.021
318.126
318.126
318.021
317.823
317.552
317.229
316.88
316.523
316.177
315.862
315.626
312.192
312.372
312.617
312.886
313.163
313.435
313.685
313.896
314.05
314.131
314.131
314.05
313.896
313.685
313.435
313.163
312.886
312.617
312.372
312.192
308.731
308.859
309.033
309.225
309.423
309.617
309.796
309.947
310.056
310.114
310.114
310.056
309.947
309.796
309.617
309.423
309.225
309.033
308.859
308.731
305.252
305.328
305.433
305.548
305.667
305.783
305.891
305.981
306.047
306.081
306.081
306.047
305.981
305.891
305.783
305.667
305.548
305.433
305.328
305.252
301.762
301.787
301.822
301.861
301.901
301.94
301.976
302.006
302.028
302.04
302.04
302.028
302.006
301.976
301.94
301.901
301.861
301.822
301.787
301.762
325.781
326.194
326.721
327.295
327.886
328.465
329
329.451
329.779
329.952
329.952
329.779
329.451
329
328.465
327.886
327.295
326.721
326.194
325.781
322.458
322.807
323.262
323.759
324.27
324.771
325.233
325.623
325.906
326.056
326.056
325.906
325.623
325.233
324.771
324.27
323.759
323.262
322.807
322.458
319.086
319.376
319.759
320.179
320.611
321.034
321.425
321.753
321.992
322.119
322.119
321.992
321.753
321.425
321.034
320.611
320.179
319.759
319.376
319.086
315.674
315.908
316.22
316.563
316.916
317.262
317.581
317.849
318.044
318.147
318.147
318.044
317.849
317.581
317.262
316.916
316.563
316.22
315.908
315.674
312.229
312.408
312.65
312.917
313.191
313.46
313.708
313.916
314.068
314.148
314.148
314.068
313.916
313.708
313.46
313.191
312.917
312.65
312.408
312.229
308.758
308.885
309.057
309.248
309.444
309.636
309.812
309.961
310.069
310.126
310.126
310.069
309.961
309.812
309.636
309.444
309.248
309.057
308.885
308.758
305.268
305.344
305.447
305.561
305.679
305.794
305.901
305.99
306.055
306.089
306.089
306.055
305.99
305.901
305.794
305.679
305.561
305.447
305.344
305.268
301.767
301.792
301.827
301.865
301.905
301.943
301.979
302.009
302.031
302.042
302.042
302.031
302.009
301.979
301.943
301.905
301.865
301.827
301.792
301.767
325.939
326.346
326.864
327.427
328.006
328.573
329.095
329.535
329.855
330.023
330.023
329.855
329.535
329.095
328.573
328.006
327.427
326.864
326.346
325.939
322.595
322.94
323.386
323.874
324.375
324.865
325.317
325.697
325.973
326.119
326.119
325.973
325.697
325.317
324.865
324.375
323.874
323.386
322.94
322.595
319.203
319.489
319.865
320.277
320.701
321.115
321.496
321.817
322.05
322.173
322.173
322.05
321.817
321.496
321.115
320.701
320.277
319.865
319.489
319.203
315.77
316
316.307
316.644
316.99
317.328
317.64
317.902
318.092
318.192
318.192
318.092
317.902
317.64
317.328
316.99
316.644
316.307
316
315.77
312.304
312.48
312.718
312.98
313.249
313.512
313.754
313.958
314.105
314.183
314.183
314.105
313.958
313.754
313.512
313.249
312.98
312.718
312.48
312.304
308.811
308.936
309.106
309.293
309.485
309.673
309.846
309.991
310.096
310.152
310.152
310.096
309.991
309.846
309.673
309.485
309.293
309.106
308.936
308.811
305.3
305.375
305.477
305.589
305.704
305.817
305.921
306.008
306.071
306.104
306.104
306.071
306.008
305.921
305.817
305.704
305.589
305.477
305.375
305.3
301.778
301.803
301.837
301.875
301.913
301.951
301.986
302.015
302.036
302.047
302.047
302.036
302.015
301.986
301.951
301.913
301.875
301.837
301.803
301.778
326.177
326.575
327.08
327.628
328.189
328.738
329.242
329.666
329.974
330.136
330.136
329.974
329.666
329.242
328.738
328.189
327.628
327.08
326.575
326.177
322.803
323.139
323.575
324.049
324.535
325.01
325.446
325.812
326.078
326.218
326.218
326.078
325.812
325.446
325.01
324.535
324.049
323.575
323.139
322.803
319.38
319.658
320.025
320.426
320.837
321.238
321.607
321.916
322.14
322.259
322.259
322.14
321.916
321.607
321.238
320.837
320.426
320.025
319.658
319.38
315.915
316.14
316.439
316.766
317.102
317.43
317.731
317.984
318.167
318.263
318.263
318.167
317.984
317.731
317.43
317.102
316.766
316.439
316.14
315.915
312.417
312.589
312.821
313.076
313.337
313.592
313.825
314.022
314.164
314.239
314.239
314.164
314.022
313.825
313.592
313.337
313.076
312.821
312.589
312.417
308.892
309.014
309.18
309.361
309.548
309.73
309.897
310.037
310.138
310.192
310.192
310.138
310.037
309.897
309.73
309.548
309.361
309.18
309.014
308.892
305.349
305.422
305.521
305.63
305.742
305.851
305.951
306.036
306.096
306.129
306.129
306.096
306.036
305.951
305.851
305.742
305.63
305.521
305.422
305.349
301.794
301.819
301.852
301.888
301.926
301.963
301.996
302.024
302.045
302.055
302.055
302.045
302.024
301.996
301.963
301.926
301.888
301.852
301.819
301.794
326.497
326.882
327.37
327.899
328.439
328.965
329.447
329.851
330.143
330.298
330.298
330.143
329.851
329.447
328.965
328.439
327.899
327.37
326.882
326.497
323.081
323.407
323.828
324.286
324.753
325.208
325.625
325.974
326.227
326.361
326.361
326.227
325.974
325.625
325.208
324.753
324.286
323.828
323.407
323.081
319.616
319.886
320.241
320.628
321.023
321.408
321.76
322.055
322.268
322.381
322.381
322.268
322.055
321.76
321.408
321.023
320.628
320.241
319.886
319.616
316.109
316.327
316.616
316.932
317.255
317.57
317.857
318.098
318.273
318.364
318.364
318.273
318.098
317.857
317.57
317.255
316.932
316.616
316.327
316.109
312.568
312.735
312.96
313.205
313.456
313.701
313.924
314.112
314.247
314.318
314.318
314.247
314.112
313.924
313.701
313.456
313.205
312.96
312.735
312.568
309.001
309.119
309.279
309.454
309.634
309.808
309.968
310.101
310.198
310.249
310.249
310.198
310.101
309.968
309.808
309.634
309.454
309.279
309.119
309.001
305.414
305.485
305.581
305.686
305.794
305.898
305.994
306.074
306.133
306.163
306.163
306.133
306.074
305.994
305.898
305.794
305.686
305.581
305.485
305.414
301.816
301.84
301.872
301.907
301.943
301.978
302.01
302.037
302.057
302.067
302.067
302.057
302.037
302.01
301.978
301.943
301.907
301.872
301.84
301.816
326.899
327.27
327.739
328.244
328.759
329.258
329.714
330.095
330.371
330.516
330.516
330.371
330.095
329.714
329.258
328.759
328.244
327.739
327.27
326.899
323.432
323.745
324.15
324.587
325.032
325.465
325.859
326.189
326.427
326.552
326.552
326.427
326.189
325.859
325.465
325.032
324.587
324.15
323.745
323.432
319.914
320.174
320.515
320.884
321.261
321.626
321.96
322.238
322.439
322.545
322.545
322.439
322.238
321.96
321.626
321.261
320.884
320.515
320.174
319.914
316.354
316.563
316.841
317.143
317.451
317.75
318.022
318.25
318.414
318.5
318.5
318.414
318.25
318.022
317.75
317.451
317.143
316.841
316.563
316.354
312.759
312.92
313.135
313.37
313.61
313.842
314.053
314.23
314.358
314.425
314.425
314.358
314.23
314.053
313.842
313.61
313.37
313.135
312.92
312.759
309.137
309.251
309.405
309.572
309.744
309.909
310.06
310.187
310.278
310.326
310.326
310.278
310.187
310.06
309.909
309.744
309.572
309.405
309.251
309.137
305.496
305.564
305.656
305.757
305.86
305.959
306.05
306.126
306.181
306.209
306.209
306.181
306.126
306.05
305.959
305.86
305.757
305.656
305.564
305.496
301.844
301.866
301.897
301.931
301.965
301.999
302.029
302.055
302.073
302.083
302.083
302.073
302.055
302.029
301.999
301.965
301.931
301.897
301.866
301.844
327.386
327.741
328.187
328.667
329.153
329.623
330.051
330.407
330.664
330.798
330.798
330.664
330.407
330.051
329.623
329.153
328.667
328.187
327.741
327.386
323.856
324.156
324.541
324.956
325.377
325.784
326.154
326.462
326.684
326.801
326.801
326.684
326.462
326.154
325.784
325.377
324.956
324.541
324.156
323.856
320.274
320.523
320.848
321.199
321.555
321.899
322.211
322.471
322.659
322.758
322.758
322.659
322.471
322.211
321.899
321.555
321.199
320.848
320.523
320.274
316.65
316.85
317.115
317.402
317.693
317.974
318.229
318.442
318.595
318.676
318.676
318.595
318.442
318.229
317.974
317.693
317.402
317.115
316.85
316.65
312.99
313.144
313.349
313.572
313.798
314.017
314.216
314.381
314.5
314.562
314.562
314.5
314.381
314.216
314.017
313.798
313.572
313.349
313.144
312.99
309.303
309.411
309.558
309.717
309.879
310.035
310.177
310.295
310.38
310.424
310.424
310.38
310.295
310.177
310.035
309.879
309.717
309.558
309.411
309.303
305.596
305.661
305.749
305.844
305.941
306.035
306.12
306.191
306.242
306.269
306.269
306.242
306.191
306.12
306.035
305.941
305.844
305.749
305.661
305.596
301.877
301.899
301.928
301.96
301.993
302.024
302.053
302.077
302.094
302.103
302.103
302.094
302.077
302.053
302.024
301.993
301.96
301.928
301.899
301.877
327.96
328.296
328.719
329.171
329.627
330.066
330.464
330.794
331.031
331.155
331.155
331.031
330.794
330.464
330.066
329.627
329.171
328.719
328.296
327.96
324.355
324.64
325.005
325.396
325.791
326.171
326.515
326.801
327.006
327.113
327.113
327.006
326.801
326.515
326.171
325.791
325.396
325.005
324.64
324.355
320.699
320.935
321.242
321.573
321.907
322.229
322.519
322.761
322.934
323.025
323.025
322.934
322.761
322.519
322.229
321.907
321.573
321.242
320.935
320.699
316.998
317.188
317.439
317.709
317.983
318.245
318.483
318.68
318.822
318.896
318.896
318.822
318.68
318.483
318.245
317.983
317.709
317.439
317.188
316.998
313.262
313.408
313.602
313.812
314.025
314.229
314.414
314.567
314.677
314.735
314.735
314.677
314.567
314.414
314.229
314.025
313.812
313.602
313.408
313.262
309.497
309.601
309.739
309.889
310.041
310.187
310.319
310.429
310.507
310.548
310.548
310.507
310.429
310.319
310.187
310.041
309.889
309.739
309.601
309.497
305.713
305.775
305.858
305.948
306.039
306.127
306.206
306.272
306.319
306.344
306.344
306.319
306.272
306.206
306.127
306.039
305.948
305.858
305.775
305.713
301.916
301.937
301.965
301.995
302.026
302.055
302.082
302.104
302.119
302.128
302.128
302.119
302.104
302.082
302.055
302.026
301.995
301.965
301.937
301.916
328.622
328.94
329.337
329.761
330.186
330.593
330.96
331.263
331.48
331.594
331.594
331.48
331.263
330.96
330.593
330.186
329.761
329.337
328.94
328.622
324.932
325.201
325.544
325.91
326.279
326.631
326.949
327.211
327.399
327.498
327.498
327.399
327.211
326.949
326.631
326.279
325.91
325.544
325.201
324.932
321.189
321.412
321.701
322.011
322.322
322.62
322.889
323.111
323.27
323.353
323.353
323.27
323.111
322.889
322.62
322.322
322.011
321.701
321.412
321.189
317.401
317.58
317.816
318.069
318.324
318.568
318.787
318.969
319.099
319.167
319.167
319.099
318.969
318.787
318.568
318.324
318.069
317.816
317.58
317.401
313.576
313.714
313.897
314.093
314.292
314.481
314.652
314.793
314.894
314.947
314.947
314.894
314.793
314.652
314.481
314.292
314.093
313.897
313.714
313.576
309.722
309.82
309.95
310.091
310.232
310.368
310.49
310.59
310.663
310.7
310.7
310.663
310.59
310.49
310.368
310.232
310.091
309.95
309.82
309.722
305.848
305.906
305.985
306.069
306.154
306.235
306.309
306.369
306.412
306.435
306.435
306.412
306.369
306.309
306.235
306.154
306.069
305.985
305.906
305.848
301.962
301.981
302.007
302.036
302.064
302.091
302.116
302.136
302.151
302.158
302.158
302.151
302.136
302.116
302.091
302.064
302.036
302.007
301.981
301.962
329.374
329.673
330.045
330.439
330.833
331.208
331.544
331.821
332.019
332.122
332.122
332.019
331.821
331.544
331.208
330.833
330.439
330.045
329.673
329.374
325.587
325.84
326.161
326.502
326.843
327.168
327.459
327.699
327.871
327.96
327.96
327.871
327.699
327.459
327.168
326.843
326.502
326.161
325.84
325.587
321.745
321.955
322.226
322.514
322.803
323.077
323.324
323.527
323.671
323.747
323.747
323.671
323.527
323.324
323.077
322.803
322.514
322.226
321.955
321.745
317.858
318.027
318.247
318.483
318.719
318.944
319.145
319.311
319.43
319.491
319.491
319.43
319.311
319.145
318.944
318.719
318.483
318.247
318.027
317.858
313.932
314.062
314.233
314.417
314.6
314.775
314.932
315.061
315.153
315.201
315.201
315.153
315.061
314.932
314.775
314.6
314.417
314.233
314.062
313.932
309.978
310.069
310.191
310.322
310.453
310.578
310.69
310.782
310.848
310.882
310.882
310.848
310.782
310.69
310.578
310.453
310.322
310.191
310.069
309.978
306.002
306.056
306.13
306.208
306.287
306.362
306.429
306.485
306.524
306.545
306.545
306.524
306.485
306.429
306.362
306.287
306.208
306.13
306.056
306.002
302.013
302.032
302.056
302.082
302.109
302.134
302.157
302.175
302.188
302.195
302.195
302.188
302.175
302.157
302.134
302.109
302.082
302.056
302.032
302.013
330.219
330.498
330.845
331.21
331.572
331.916
332.223
332.474
332.653
332.747
332.747
332.653
332.474
332.223
331.916
331.572
331.21
330.845
330.498
330.219
326.323
326.559
326.858
327.174
327.488
327.786
328.052
328.27
328.425
328.506
328.506
328.425
328.27
328.052
327.786
327.488
327.174
326.858
326.559
326.323
322.371
322.567
322.819
323.086
323.352
323.604
323.828
324.013
324.144
324.212
324.212
324.144
324.013
323.828
323.604
323.352
323.086
322.819
322.567
322.371
318.371
318.529
318.734
318.953
319.17
319.376
319.56
319.711
319.818
319.874
319.874
319.818
319.711
319.56
319.376
319.17
318.953
318.734
318.529
318.371
314.333
314.454
314.613
314.783
314.953
315.113
315.256
315.373
315.456
315.5
315.5
315.456
315.373
315.256
315.113
314.953
314.783
314.613
314.454
314.333
310.264
310.35
310.464
310.585
310.706
310.821
310.923
311.006
311.066
311.097
311.097
311.066
311.006
310.923
310.821
310.706
310.585
310.464
310.35
310.264
306.174
306.225
306.294
306.366
306.439
306.508
306.569
306.62
306.655
306.674
306.674
306.655
306.62
306.569
306.508
306.439
306.366
306.294
306.225
306.174
302.071
302.088
302.111
302.136
302.16
302.183
302.203
302.22
302.232
302.239
302.239
302.232
302.22
302.203
302.183
302.16
302.136
302.111
302.088
302.071
331.157
331.418
331.739
332.075
332.408
332.721
333
333.227
333.389
333.473
333.473
333.389
333.227
333
332.721
332.408
332.075
331.739
331.418
331.157
327.14
327.36
327.637
327.929
328.217
328.489
328.73
328.927
329.067
329.139
329.139
329.067
328.927
328.73
328.489
328.217
327.929
327.637
327.36
327.14
323.065
323.248
323.481
323.728
323.972
324.201
324.406
324.572
324.691
324.752
324.752
324.691
324.572
324.406
324.201
323.972
323.728
323.481
323.248
323.065
318.941
319.088
319.279
319.48
319.68
319.868
320.035
320.171
320.268
320.318
320.318
320.268
320.171
320.035
319.868
319.68
319.48
319.279
319.088
318.941
314.778
314.891
315.038
315.195
315.35
315.497
315.627
315.733
315.808
315.847
315.847
315.808
315.733
315.627
315.497
315.35
315.195
315.038
314.891
314.778
310.583
310.663
310.768
310.88
310.991
311.096
311.188
311.264
311.318
311.346
311.346
311.318
311.264
311.188
311.096
310.991
310.88
310.768
310.663
310.583
306.366
306.414
306.477
306.544
306.611
306.673
306.729
306.775
306.807
306.824
306.824
306.807
306.775
306.729
306.673
306.611
306.544
306.477
306.414
306.366
302.135
302.151
302.173
302.195
302.217
302.238
302.257
302.272
302.283
302.289
302.289
302.283
302.272
302.257
302.238
302.217
302.195
302.173
302.151
302.135
332.191
332.432
332.729
333.038
333.342
333.627
333.878
334.083
334.228
334.303
334.303
334.228
334.083
333.878
333.627
333.342
333.038
332.729
332.432
332.191
328.04
328.244
328.5
328.768
329.031
329.278
329.496
329.674
329.8
329.865
329.865
329.8
329.674
329.496
329.278
329.031
328.768
328.5
328.244
328.04
323.83
323.999
324.215
324.441
324.664
324.873
325.058
325.208
325.314
325.369
325.369
325.314
325.208
325.058
324.873
324.664
324.441
324.215
323.999
323.83
319.569
319.706
319.882
320.067
320.249
320.42
320.571
320.694
320.781
320.826
320.826
320.781
320.694
320.571
320.42
320.249
320.067
319.882
319.706
319.569
315.268
315.372
315.509
315.653
315.795
315.928
316.045
316.141
316.208
316.243
316.243
316.208
316.141
316.045
315.928
315.795
315.653
315.509
315.372
315.268
310.934
311.008
311.105
311.208
311.309
311.404
311.488
311.557
311.605
311.63
311.63
311.605
311.557
311.488
311.404
311.309
311.208
311.105
311.008
310.934
306.577
306.621
306.679
306.741
306.802
306.859
306.91
306.951
306.98
306.995
306.995
306.98
306.951
306.91
306.859
306.802
306.741
306.679
306.621
306.577
302.206
302.221
302.241
302.261
302.282
302.301
302.318
302.331
302.341
302.346
302.346
302.341
302.331
302.318
302.301
302.282
302.261
302.241
302.221
302.206
333.32
333.543
333.816
334.099
334.376
334.634
334.861
335.045
335.175
335.242
335.242
335.175
335.045
334.861
334.634
334.376
334.099
333.816
333.543
333.32
329.023
329.212
329.448
329.693
329.933
330.156
330.353
330.513
330.625
330.683
330.683
330.625
330.513
330.353
330.156
329.933
329.693
329.448
329.212
329.023
324.665
324.822
325.02
325.228
325.431
325.62
325.787
325.921
326.017
326.066
326.066
326.017
325.921
325.787
325.62
325.431
325.228
325.02
324.822
324.665
320.255
320.381
320.543
320.713
320.879
321.034
321.17
321.28
321.358
321.399
321.399
321.358
321.28
321.17
321.034
320.879
320.713
320.543
320.381
320.255
315.803
315.899
316.025
316.157
316.286
316.407
316.513
316.599
316.659
316.69
316.69
316.659
316.599
316.513
316.407
316.286
316.157
316.025
315.899
315.803
311.317
311.385
311.475
311.569
311.661
311.748
311.823
311.885
311.928
311.95
311.95
311.928
311.885
311.823
311.748
311.661
311.569
311.475
311.385
311.317
306.807
306.848
306.902
306.958
307.014
307.066
307.111
307.148
307.174
307.187
307.187
307.174
307.148
307.111
307.066
307.014
306.958
306.902
306.848
306.807
302.283
302.297
302.315
302.334
302.353
302.37
302.385
302.398
302.406
302.411
302.411
302.406
302.398
302.385
302.37
302.353
302.334
302.315
302.297
302.283
334.543
334.749
335
335.258
335.51
335.743
335.947
336.112
336.228
336.287
336.287
336.228
336.112
335.947
335.743
335.51
335.258
335
334.749
334.543
330.088
330.262
330.478
330.702
330.92
331.122
331.299
331.442
331.543
331.595
331.595
331.543
331.442
331.299
331.122
330.92
330.702
330.478
330.262
330.088
325.569
325.714
325.896
326.085
326.27
326.441
326.591
326.712
326.797
326.841
326.841
326.797
326.712
326.591
326.441
326.27
326.085
325.896
325.714
325.569
320.997
321.113
321.262
321.417
321.568
321.708
321.831
321.93
321.999
322.035
322.035
321.999
321.93
321.831
321.708
321.568
321.417
321.262
321.113
320.997
316.381
316.47
316.586
316.706
316.824
316.933
317.028
317.105
317.159
317.187
317.187
317.159
317.105
317.028
316.933
316.824
316.706
316.586
316.47
316.381
311.731
311.794
311.876
311.962
312.046
312.124
312.193
312.248
312.286
312.306
312.306
312.286
312.248
312.193
312.124
312.046
311.962
311.876
311.794
311.731
307.056
307.094
307.143
307.195
307.245
307.292
307.333
307.366
307.39
307.402
307.402
307.39
307.366
307.333
307.292
307.245
307.195
307.143
307.094
307.056
302.367
302.38
302.396
302.413
302.43
302.446
302.46
302.471
302.479
302.483
302.483
302.479
302.471
302.46
302.446
302.43
302.413
302.396
302.38
302.367
335.855
336.044
336.274
336.51
336.738
336.948
337.131
337.279
337.382
337.436
337.436
337.382
337.279
337.131
336.948
336.738
336.51
336.274
336.044
335.855
331.229
331.389
331.587
331.791
331.989
332.171
332.331
332.458
332.548
332.594
332.594
332.548
332.458
332.331
332.171
331.989
331.791
331.587
331.389
331.229
326.538
326.67
326.837
327.01
327.177
327.332
327.467
327.575
327.651
327.69
327.69
327.651
327.575
327.467
327.332
327.177
327.01
326.837
326.67
326.538
321.791
321.898
322.034
322.176
322.313
322.439
322.549
322.638
322.7
322.732
322.732
322.7
322.638
322.549
322.439
322.313
322.176
322.034
321.898
321.791
317
317.082
317.188
317.298
317.404
317.503
317.589
317.658
317.706
317.731
317.731
317.706
317.658
317.589
317.503
317.404
317.298
317.188
317.082
317
312.174
312.232
312.307
312.386
312.462
312.532
312.594
312.643
312.678
312.695
312.695
312.678
312.643
312.594
312.532
312.462
312.386
312.307
312.232
312.174
307.323
307.357
307.402
307.45
307.495
307.538
307.575
307.604
307.625
307.636
307.636
307.625
307.604
307.575
307.538
307.495
307.45
307.402
307.357
307.323
302.456
302.468
302.483
302.499
302.514
302.528
302.541
302.551
302.558
302.561
302.561
302.558
302.551
302.541
302.528
302.514
302.499
302.483
302.468
302.456
337.24
337.415
337.625
337.839
338.046
338.236
338.401
338.533
338.625
338.672
338.672
338.625
338.533
338.401
338.236
338.046
337.839
337.625
337.415
337.24
332.431
332.579
332.76
332.946
333.125
333.29
333.433
333.547
333.627
333.669
333.669
333.627
333.547
333.433
333.29
333.125
332.946
332.76
332.579
332.431
327.556
327.678
327.831
327.989
328.14
328.28
328.401
328.498
328.566
328.601
328.601
328.566
328.498
328.401
328.28
328.14
327.989
327.831
327.678
327.556
322.626
322.724
322.849
322.977
323.102
323.216
323.315
323.394
323.45
323.479
323.479
323.45
323.394
323.315
323.216
323.102
322.977
322.849
322.724
322.626
317.65
317.725
317.822
317.922
318.019
318.108
318.185
318.247
318.29
318.312
318.312
318.29
318.247
318.185
318.108
318.019
317.922
317.822
317.725
317.65
312.638
312.692
312.761
312.832
312.901
312.965
313.02
313.064
313.095
313.111
313.111
313.095
313.064
313.02
312.965
312.901
312.832
312.761
312.692
312.638
307.602
307.633
307.675
307.718
307.759
307.798
307.831
307.857
307.876
307.885
307.885
307.876
307.857
307.831
307.798
307.759
307.718
307.675
307.633
307.602
302.55
302.56
302.574
302.589
302.603
302.615
302.627
302.636
302.642
302.645
302.645
302.642
302.636
302.627
302.615
302.603
302.589
302.574
302.56
302.55
338.661
338.822
339.014
339.21
339.398
339.569
339.718
339.836
339.919
339.961
339.961
339.919
339.836
339.718
339.569
339.398
339.21
339.014
338.822
338.661
333.659
333.794
333.961
334.131
334.293
334.442
334.571
334.674
334.746
334.782
334.782
334.746
334.674
334.571
334.442
334.293
334.131
333.961
333.794
333.659
328.592
328.704
328.844
328.988
329.126
329.252
329.362
329.449
329.509
329.541
329.541
329.509
329.449
329.362
329.252
329.126
328.988
328.844
328.704
328.592
323.471
323.561
323.676
323.793
323.906
324.01
324.099
324.17
324.22
324.246
324.246
324.22
324.17
324.099
324.01
323.906
323.793
323.676
323.561
323.471
318.305
318.375
318.464
318.555
318.643
318.724
318.793
318.849
318.888
318.908
318.908
318.888
318.849
318.793
318.724
318.643
318.555
318.464
318.375
318.305
313.106
313.155
313.218
313.284
313.347
313.404
313.454
313.494
313.522
313.536
313.536
313.522
313.494
313.454
313.404
313.347
313.284
313.218
313.155
313.106
307.882
307.911
307.95
307.989
308.027
308.061
308.091
308.115
308.132
308.14
308.14
308.132
308.115
308.091
308.061
308.027
307.989
307.95
307.911
307.882
302.644
302.654
302.666
302.68
302.692
302.704
302.714
302.722
302.727
302.73
302.73
302.727
302.722
302.714
302.704
302.692
302.68
302.666
302.654
302.644
340.024
340.172
340.349
340.529
340.701
340.857
340.992
341.099
341.174
341.212
341.212
341.174
341.099
340.992
340.857
340.701
340.529
340.349
340.172
340.024
334.821
334.947
335.1
335.257
335.406
335.542
335.659
335.752
335.817
335.85
335.85
335.817
335.752
335.659
335.542
335.406
335.257
335.1
334.947
334.821
329.562
329.666
329.796
329.928
330.055
330.17
330.269
330.348
330.403
330.432
330.432
330.403
330.348
330.269
330.17
330.055
329.928
329.796
329.666
329.562
324.255
324.339
324.445
324.553
324.657
324.752
324.833
324.898
324.943
324.966
324.966
324.943
324.898
324.833
324.752
324.657
324.553
324.445
324.339
324.255
318.909
318.974
319.056
319.141
319.222
319.295
319.359
319.409
319.445
319.463
319.463
319.445
319.409
319.359
319.295
319.222
319.141
319.056
318.974
318.909
313.534
313.58
313.639
313.699
313.757
313.81
313.855
313.891
313.917
313.93
313.93
313.917
313.891
313.855
313.81
313.757
313.699
313.639
313.58
313.534
308.138
308.165
308.201
308.237
308.272
308.304
308.331
308.353
308.368
308.376
308.376
308.368
308.353
308.331
308.304
308.272
308.237
308.201
308.165
308.138
302.729
302.739
302.75
302.763
302.774
302.785
302.794
302.801
302.806
302.809
302.809
302.806
302.801
302.794
302.785
302.774
302.763
302.75
302.739
302.729
341.085
341.224
341.391
341.56
341.72
341.866
341.992
342.091
342.16
342.196
342.196
342.16
342.091
341.992
341.866
341.72
341.56
341.391
341.224
341.085
335.693
335.811
335.956
336.103
336.243
336.37
336.479
336.566
336.627
336.658
336.658
336.627
336.566
336.479
336.37
336.243
336.103
335.956
335.811
335.693
330.267
330.365
330.488
330.613
330.732
330.84
330.933
331.007
331.058
331.085
331.085
331.058
331.007
330.933
330.84
330.732
330.613
330.488
330.365
330.267
324.811
324.89
324.991
325.093
325.191
325.28
325.357
325.417
325.46
325.481
325.481
325.46
325.417
325.357
325.28
325.191
325.093
324.991
324.89
324.811
319.33
319.391
319.469
319.549
319.625
319.695
319.755
319.802
319.835
319.852
319.852
319.835
319.802
319.755
319.695
319.625
319.549
319.469
319.391
319.33
313.829
313.872
313.928
313.985
314.04
314.089
314.132
314.166
314.19
314.202
314.202
314.19
314.166
314.132
314.089
314.04
313.985
313.928
313.872
313.829
308.313
308.338
308.372
308.406
308.439
308.469
308.495
308.515
308.53
308.537
308.537
308.53
308.515
308.495
308.469
308.439
308.406
308.372
308.338
308.313
302.787
302.796
302.807
302.819
302.83
302.84
302.849
302.855
302.86
302.863
302.863
302.86
302.855
302.849
302.84
302.83
302.819
302.807
302.796
302.787
)
;

boundaryField
{
    hotSide
    {
        type            fixedGradient;
        gradient        nonuniform List<scalar> 
400
(
260.653
261.454
263.061
265.481
268.728
272.817
277.765
283.593
290.319
297.964
306.547
316.087
326.6
338.101
350.603
364.119
378.656
394.223
410.825
428.469
266.133
266.891
268.412
270.708
273.797
277.697
282.432
288.029
294.511
301.905
310.235
319.524
329.791
341.054
353.329
366.629
380.963
396.34
412.766
430.246
272.063
272.769
274.189
276.338
279.238
282.916
287.403
292.731
298.933
306.04
314.083
323.089
333.081
344.082
356.108
369.173
383.288
398.462
414.701
432.009
278.346
278.991
280.293
282.271
284.955
288.379
292.582
297.606
303.492
310.279
318.005
326.701
336.396
347.114
358.874
371.691
385.577
400.54
416.586
433.718
284.805
285.383
286.552
288.339
290.781
293.923
297.814
302.506
308.049
314.493
321.88
330.249
339.633
350.057
361.544
374.108
387.762
402.513
418.367
435.325
291.171
291.677
292.704
294.288
296.474
299.318
302.882
307.228
312.419
318.511
325.554
333.594
342.667
352.8
364.018
376.336
389.766
404.315
419.985
436.778
297.081
297.513
298.4
299.781
301.714
304.265
307.509
311.52
316.369
322.124
328.842
336.571
345.353
355.217
366.188
378.281
391.507
405.872
421.379
438.026
302.096
302.464
303.223
304.423
306.128
308.419
311.379
315.094
319.646
325.108
331.544
339.007
347.541
357.177
367.94
379.845
392.902
407.116
422.488
439.015
305.767
306.084
306.746
307.807
309.34
311.433
314.179
317.672
322.001
327.245
333.472
340.74
349.092
358.562
369.174
380.943
393.879
407.985
423.26
439.702
307.712
308.001
308.611
309.596
311.036
313.021
315.652
319.025
323.234
328.361
334.478
341.641
349.897
359.279
369.812
381.51
394.382
408.431
423.656
440.054
307.712
308.001
308.611
309.596
311.036
313.021
315.652
319.025
323.234
328.361
334.478
341.641
349.897
359.279
369.812
381.51
394.382
408.431
423.656
440.054
305.767
306.084
306.746
307.807
309.34
311.433
314.179
317.672
322.001
327.245
333.472
340.74
349.092
358.562
369.174
380.943
393.879
407.985
423.26
439.702
302.096
302.464
303.223
304.423
306.128
308.419
311.379
315.094
319.646
325.108
331.544
339.007
347.541
357.177
367.94
379.845
392.902
407.116
422.488
439.015
297.081
297.513
298.4
299.781
301.714
304.265
307.509
311.52
316.369
322.124
328.842
336.571
345.353
355.217
366.188
378.281
391.507
405.872
421.379
438.026
291.171
291.677
292.704
294.288
296.474
299.318
302.882
307.228
312.419
318.511
325.554
333.594
342.667
352.8
364.018
376.336
389.766
404.315
419.985
436.778
284.805
285.383
286.552
288.339
290.781
293.923
297.814
302.506
308.049
314.493
321.88
330.249
339.633
350.057
361.544
374.108
387.762
402.513
418.367
435.325
278.346
278.991
280.293
282.271
284.955
288.379
292.582
297.606
303.492
310.279
318.005
326.701
336.396
347.114
358.874
371.691
385.577
400.54
416.586
433.718
272.063
272.769
274.189
276.338
279.238
282.916
287.403
292.731
298.933
306.04
314.083
323.089
333.081
344.082
356.108
369.173
383.288
398.462
414.701
432.009
266.133
266.891
268.412
270.708
273.797
277.697
282.432
288.029
294.511
301.905
310.235
319.524
329.791
341.054
353.329
366.629
380.963
396.34
412.766
430.246
260.653
261.454
263.061
265.481
268.728
272.817
277.765
283.593
290.319
297.964
306.547
316.087
326.6
338.101
350.603
364.119
378.656
394.223
410.825
428.469
)
;
    }
    coldSide
    {
        type            mixed;
        refValue        uniform 300;
        refGradient     uniform 0;
        valueFraction   uniform 0.991591;
        source          uniform 0;
        value           nonuniform List<scalar> 
400
(
300.015
300.015
300.015
300.015
300.015
300.016
300.016
300.016
300.016
300.017
300.017
300.018
300.019
300.019
300.02
300.021
300.021
300.022
300.023
300.023
300.015
300.015
300.015
300.015
300.015
300.016
300.016
300.016
300.017
300.017
300.018
300.018
300.019
300.019
300.02
300.021
300.022
300.022
300.023
300.024
300.015