/*--------------------------------*- C++ -*----------------------------------*\
| =========                 |                                                 |
| \\      /  F ield         | OpenFOAM: The Open Source CFD Toolbox           |
|  \\    /   O peration     | Version:  2212                                  |
|   \\  /    A nd           | Website:  www.openfoam.com                      |
|    \\/     M anipulation  |                                                 |
\*---------------------------------------------------------------------------*/
FoamFile
{
    version     2.0;
    format      ascii;
    arch        "LSB;label=32;scalar=64";
    class       volScalarField;
    location    "./ITHACAoutput/true/16.7";
    object      error;
}
// * * * * * * * * * * * * * * * * * * * * * * * * * * * * * * * * * * * * * //

dimensions      [0 0 0 1 0 0 0];

internalField   nonuniform List<scalar> 
3200
(
2.29383
1.90629
1.55887
1.21971
1.0927
1.05597
1.00988
1.01104
1.04462
1.08827
1.30257
1.42208
1.48683
1.65722
1.77489
2.03117
2.34136
2.77078
3.24049
3.69264
1.95294
1.63494
1.29848
1.03223
0.834111
0.79142
0.711774
0.742694
0.847503
0.933774
1.03912
1.16191
1.2215
1.34341
1.43017
1.61724
1.97456
2.34543
2.75711
3.05948
1.63817
1.23744
1.03593
0.758789
0.615691
0.565268
0.589932
0.608884
0.694642
0.732235
0.804004
0.773333
0.931859
1.05556
1.15692
1.31887
1.53995
1.92885
2.29474
2.57087
1.23448
0.957053
0.776827
0.566891
0.45696
0.444801
0.446935
0.43584
0.467552
0.500607
0.593956
0.660317
0.786865
0.747802
0.843663
1.04836
1.2336
1.5536
1.79715
2.07008
0.961919
0.839553
0.635517
0.40967
0.431266
0.300972
0.378581
0.264516
0.290546
0.373134
0.456191
0.506939
0.507819
0.547261
0.638185
0.75715
0.941359
1.15825
1.34145
1.5895
0.663457
0.486789
0.34204
0.290543
0.282576
0.194069
0.174999
0.198798
0.261895
0.313539
0.259168
0.328478
0.328173
0.445184
0.491358
0.537447
0.654548
0.796903
0.981179
1.12454
0.41874
0.291622
0.241376
0.147025
0.133846
0.162753
0.0744857
0.0962124
0.113878
0.141789
0.191638
0.166004
0.192303
0.28187
0.22998
0.302825
0.409768
0.486237
0.598896
0.669462
0.0662961
0.0590217
0.114137
0.0870058
-0.0320605
-0.0245605
0.0583159
0.0339166
0.0290504
-0.0122577
0.0307214
0.0169929
0.101754
0.0567571
0.0725716
0.106369
0.133269
0.154796
0.186712
0.252373
1.3986
1.05139
0.621413
0.271172
0.15723
-0.0181386
-0.041318
-0.0244468
0.0949292
0.105333
0.17805
0.360332
0.419207
0.497013
0.791169
0.986522
1.36781
1.82026
2.31415
2.81338
1.23264
0.916984
0.542293
0.290628
0.0236976
-0.0388219
-0.0741447
-0.0404843
0.02305
0.00609624
0.153086
0.269605
0.301009
0.458912
0.719944
0.848258
1.18305
1.55088
1.95785
2.35418
1.02076
0.69816
0.404501
0.119065
-0.000524824
-0.0689147
-0.0457963
-0.0536096
0.0304116
0.039837
0.123918
0.133255
0.247316
0.361873
0.553592
0.679317
0.985456
1.30111
1.6297
1.96995
0.831336
0.577903
0.367633
0.0629938
-0.0318411
-0.0781336
-0.0725932
-0.10418
-0.00598218
-0.0674085
0.106163
0.0701222
0.180033
0.234499
0.36501
0.569077
0.720571
1.02969
1.37589
1.60719
0.592842
0.375766
0.192527
0.133308
-0.0283904
-0.0943598
-0.073598
-0.104708
-0.0518544
-0.0738157
-0.00281261
0.0490168
0.182049
0.168675
0.20681
0.472207
0.55222
0.784235
1.0622
1.22634
0.425785
0.269361
0.150701
0.113947
-0.0182915
0.0294652
-0.0895955
-0.115797
-0.0424589
-0.0668311
0.0228491
-0.013977
0.035472
0.130476
0.151404
0.255908
0.385501
0.537767
0.718836
0.872461
0.26671
0.155864
0.0897682
-0.0132918
-0.0807432
-0.0892389
0.082664
-0.169924
0.0184096
-0.0678353
0.0121625
0.0720282
-0.0396209
0.0439502
0.145834
0.182725
0.221568
0.359042
0.443969
0.499553
0.108415
0.0210273
0.0548733
-0.0169915
-0.00395665
0.0053579
0.0625078
-0.00173586
-0.0300047
0.0373511
0.0396789
0.0767154
-0.0315454
-0.030652
-0.0349815
0.0556781
0.117995
0.0862481
0.172111
0.184295
0.368557
-0.0415751
-0.467694
-0.805041
-1.03686
-1.23864
-1.32022
-1.37258
-1.23701
-1.20296
-1.11184
-0.952148
-0.860662
-0.727167
-0.526431
-0.190841
0.160246
0.640416
1.09455
1.71851
0.287211
-0.0282889
-0.424662
-0.714821
-0.967632
-1.07093
-1.10707
-1.1168
-1.10298
-1.02024
-0.99289
-0.861794
-0.780655
-0.636368
-0.484968
-0.23923
0.15053
0.502928
1.06556
1.41893
0.30104
-0.0312718
-0.403294
-0.689706
-0.81005
-0.9464
-0.986416
-0.989266
-0.958735
-0.957411
-0.861504
-0.818205
-0.660397
-0.564675
-0.373647
-0.149727
0.174678
0.467639
0.901492
1.19516
0.206811
-0.106799
-0.293459
-0.564987
-0.684379
-0.744332
-0.813041
-0.890183
-0.716145
-0.729164
-0.63855
-0.564416
-0.619301
-0.495495
-0.371638
-0.124763
0.133706
0.346166
0.715163
0.98598
0.189667
-0.0354068
-0.262881
-0.415086
-0.537298
-0.562305
-0.679691
-0.670463
-0.686746
-0.636578
-0.589939
-0.50608
-0.402494
-0.364702
-0.234701
-0.109045
0.0288511
0.289391
0.430881
0.83797
0.0496416
-0.049265
-0.0898635
-0.331437
-0.373138
-0.488375
-0.491594
-0.488371
-0.483336
-0.396087
-0.416274
-0.339481
-0.331957
-0.261732
-0.246507
-0.0741352
0.0402763
0.14779
0.401424
0.500973
0.0553406
-0.0219765
-0.0564011
-0.235528
-0.235913
-0.239239
-0.279329
-0.345597
-0.296104
-0.266375
-0.284703
-0.226426
-0.204097
-0.212589
-0.0964386
0.000133953
0.0432793
0.113411
0.208049
0.328074
0.0354042
0.0022604
-0.043842
-0.0513059
-0.0537041
-0.0819284
-0.244744
-0.0848115
-0.115292
-0.134285
-0.0641152
-0.0552973
-0.0722325
-0.0238777
0.0133953
-0.044454
-0.0466356
-0.0295105
0.0941319
0.0807994
-0.558838
-1.0881
-1.57742
-1.94532
-2.29066
-2.52314
-2.55638
-2.53376
-2.51737
-2.50369
-2.44137
-2.36144
-2.14485
-2.0428
-1.83612
-1.46003
-1.05803
-0.521126
0.0585493
0.632091
-0.481748
-0.885762
-1.37609
-1.73727
-1.93918
-2.10661
-2.24239
-2.29785
-2.20561
-2.21524
-2.09186
-2.03334
-1.86336
-1.72194
-1.54923
-1.26222
-0.835661
-0.410634
0.0942696
0.565709
-0.448167
-0.791276
-1.13092
-1.46739
-1.76466
-1.8518
-1.90536
-1.90213
-1.94056
-1.84432
-1.81776
-1.73288
-1.65243
-1.4976
-1.32114
-1.11361
-0.751652
-0.403015
0.0328142
0.438567
-0.2826
-0.61376
-0.932169
-1.2435
-1.37859
-1.44948
-1.52138
-1.56795
-1.51707
-1.56138
-1.44844
-1.39332
-1.3429
-1.2631
-1.04683
-0.875328
-0.671691
-0.31042
0.105667
0.336813
-0.265027
-0.490321
-0.747791
-0.914288
-1.04027
-1.18068
-1.27337
-1.19528
-1.19608
-1.1904
-1.14588
-1.09588
-1.02426
-0.97948
-0.788755
-0.711834
-0.476273
-0.248324
0.0611322
0.294723
-0.23838
-0.342903
-0.551553
-0.65729
-0.814536
-0.795156
-0.873916
-0.82794
-0.872357
-0.793746
-0.797446
-0.805111
-0.757029
-0.672577
-0.616491
-0.436356
-0.407836
-0.165407
-0.0324716
0.167809
-0.154503
-0.236133
-0.296292
-0.331858
-0.480592
-0.474745
-0.46549
-0.565668
-0.597784
-0.454552
-0.517185
-0.46713
-0.449466
-0.448745
-0.330138
-0.30047
-0.171102
-0.0770801
-0.00715486
0.112716
-0.0188018
-0.0444085
-0.140507
-0.0907853
-0.106929
-0.197381
-0.208285
-0.180098
-0.17745
-0.141155
-0.175801
-0.185101
-0.177919
-0.108576
-0.126991
-0.129404
-0.0863138
-0.0526962
0.0435529
-0.0398891
-1.43248
-1.95042
-2.46064
-3.02133
-3.39485
-3.52206
-3.73029
-3.70607
-3.6834
-3.66058
-3.62962
-3.51805
-3.33675
-3.23115
-2.89344
-2.54691
-2.12124
-1.51982
-0.852055
-0.31182
-1.18587
-1.66972
-2.16198
-2.53668
-2.83716
-3.07141
-3.17274
-3.3084
-3.18645
-3.28672
-3.15452
-3.05505
-2.90162
-2.70381
-2.49825
-2.23787
-1.83645
-1.33535
-0.745315
-0.183453
-1.01896
-1.45491
-1.84654
-2.13586
-2.48942
-2.62224
-2.68874
-2.7729
-2.75094
-2.75533
-2.67078
-2.59475
-2.44847
-2.33291
-2.17312
-1.84682
-1.52884
-1.09322
-0.645408
-0.205178
-0.85773
-1.1436
-1.47143
-1.76622
-1.96773
-2.10387
-2.23324
-2.29996
-2.24897
-2.26524
-2.1703
-2.07667
-2.00872
-1.87586
-1.78654
-1.49805
-1.22265
-0.969533
-0.489925
-0.145701
-0.709154
-0.894189
-1.13659
-1.41386
-1.55934
-1.65908
-1.66205
-1.73706
-1.72964
-1.72624
-1.68521
-1.62284
-1.59181
-1.48252
-1.37107
-1.18744
-0.959585
-0.693061
-0.379619
-0.106212
-0.500626
-0.611906
-0.767357
-1.0057
-1.08568
-1.14628
-1.22934
-1.22496
-1.32228
-1.28541
-1.30234
-1.20743
-1.08923
-1.09106
-1.00524
-0.791477
-0.694013
-0.502304
-0.319178
-0.135353
-0.305041
-0.386327
-0.505076
-0.597352
-0.657316
-0.735904
-0.694828
-0.782913
-0.756882
-0.780102
-0.77632
-0.78389
-0.703406
-0.638046
-0.599203
-0.447553
-0.399598
-0.284983
-0.185117
-0.10727
-0.133173
-0.145796
-0.243669
-0.191462
-0.167343
-0.161593
-0.235045
-0.243537
-0.263085
-0.255715
-0.277317
-0.211197
-0.199804
-0.20638
-0.214543
-0.146959
-0.141455
-0.0848914
-0.0591798
-0.0759328
-1.96013
-2.69342
-3.30431
-3.804
-4.18788
-4.44561
-4.61711
-4.7263
-4.65224
-4.67004
-4.68967
-4.52951
-4.31567
-4.15572
-3.9227
-3.41467
-2.9723
-2.34047
-1.69458
-1.03242
-1.78322
-2.30289
-2.82095
-3.27958
-3.61401
-3.87115
-4.00575
-4.04728
-4.07591
-4.04726
-4.04269
-3.94516
-3.79588
-3.58984
-3.35514
-2.93237
-2.46409
-2.04335
-1.41294
-0.952442
-1.58046
-1.91769
-2.43676
-2.74095
-3.02081
-3.2805
-3.39809
-3.39827
-3.48539
-3.43494
-3.40146
-3.35248
-3.24773
-3.03712
-2.78888
-2.4806
-2.12101
-1.67435
-1.13027
-0.764674
-1.31463
-1.5951
-1.90809
-2.25095
-2.46498
-2.67783
-2.83953
-2.82574
-2.87556
-2.83724
-2.77675
-2.74997
-2.60299
-2.52846
-2.25335
-2.06171
-1.6885
-1.36718
-0.976276
-0.551327
-0.981187
-1.24094
-1.47154
-1.73443
-1.88436
-2.04942
-2.11194
-2.17372
-2.17872
-2.27501
-2.23169
-2.11815
-1.9793
-2.0284
-1.81293
-1.65457
-1.33279
-1.08501
-0.769285
-0.555985
-0.754735
-0.882733
-1.02213
-1.25362
-1.406
-1.43777
-1.52629
-1.5772
-1.60972
-1.56447
-1.51322
-1.50593
-1.38394
-1.39718
-1.27342
-1.1339
-0.963481
-0.780832
-0.569004
-0.366914
-0.433319
-0.591343
-0.619899
-0.739323
-0.820999
-0.900813
-0.908898
-0.970234
-0.917889
-0.996425
-0.940485
-0.897288
-0.915874
-0.837134
-0.764157
-0.665736
-0.595003
-0.422719
-0.367831
-0.165876
-0.0951575
-0.101056
-0.206212
-0.280624
-0.275422
-0.335609
-0.300622
-0.32166
-0.295768
-0.355129
-0.318406
-0.280267
-0.325267
-0.31925
-0.301146
-0.320598
-0.128002
-0.120505
-0.0563452
-0.0197154
-2.49511
-3.12256
-3.8227
-4.31528
-4.84378
-5.19901
-5.36842
-5.50448
-5.55498
-5.5839
-5.49629
-5.38348
-5.14474
-4.9648
-4.53521
-4.1666
-3.63261
-2.9913
-2.20655
-1.57364
-2.13009
-2.69519
-3.26979
-3.80675
-4.20988
-4.4653
-4.58791
-4.76729
-4.80875
-4.78976
-4.73342
-4.60936
-4.4818
-4.25189
-3.9665
-3.63358
-3.11027
-2.56477
-1.91365
-1.31621
-1.83421
-2.28664
-2.79813
-3.25557
-3.5118
-3.76077
-3.98516
-4.03973
-4.01487
-4.10814
-4.03549
-3.95058
-3.80047
-3.63922
-3.34216
-2.96969
-2.62041
-2.14984
-1.5836
-1.13383
-1.50377
-1.90972
-2.2393
-2.64691
-2.93827
-3.07544
-3.17238
-3.2666
-3.32617
-3.3121
-3.24189
-3.22442
-3.04998
-2.92195
-2.72399
-2.4697
-2.14013
-1.76122
-1.22587
-0.946154
-1.16101
-1.44832
-1.84143
-2.05519
-2.21775
-2.35044
-2.51857
-2.53759
-2.6098
-2.57019
-2.55326
-2.5275
-2.46632
-2.20621
-2.19375
-1.96258
-1.64451
-1.30711
-0.985344
-0.758533
-0.896075
-1.04881
-1.27799
-1.50716
-1.60788
-1.68898
-1.78638
-1.79244
-1.79971
-1.81089
-1.84426
-1.79516
-1.73712
-1.63774
-1.50671
-1.35994
-1.20295
-1.00754
-0.756097
-0.493965
-0.533519
-0.638349
-0.738156
-0.896909
-0.969238
-1.05466
-1.12334
-1.06164
-1.08884
-1.05709
-1.13347
-1.04784
-1.03935
-0.98306
-0.981375
-0.847686
-0.77363
-0.613328
-0.397558
-0.3263
-0.159312
-0.216408
-0.20524
-0.263975
-0.386981
-0.310247
-0.328538
-0.441341
-0.325441
-0.362925
-0.326002
-0.35783
-0.35339
-0.327217
-0.242336
-0.24712
-0.233272
-0.199928
-0.156039
-0.0744492
-2.72896
-3.49697
-4.14714
-4.76053
-5.20208
-5.58006
-5.91004
-6.08403
-6.14916
-6.13636
-6.14211
-5.97036
-5.78335
-5.44481
-5.05277
-4.61759
-4.05843
-3.41937
-2.61277
-1.86263
-2.34048
-2.99241
-3.5836
-4.07767
-4.49886
-4.86865
-5.14816
-5.17526
-5.32857
-5.30904
-5.2444
-5.17167
-4.91394
-4.72164
-4.47695
-4.02821
-3.51906
-2.87802
-2.18385
-1.56297
-2.02193
-2.51737
-3.00027
-3.48586
-3.87462
-4.11782
-4.27168
-4.42893
-4.51335
-4.46523
-4.44947
-4.36217
-4.20766
-3.99101
-3.71294
-3.38486
-2.98273
-2.43154
-1.85972
-1.34788
-1.70315
-1.97702
-2.44373
-2.84482
-3.16217
-3.41816
-3.48725
-3.59928
-3.7315
-3.6688
-3.57341
-3.51791
-3.41933
-3.20967
-2.98782
-2.76357
-2.4096
-1.93133
-1.5443
-1.10147
-1.24525
-1.5729
-1.95199
-2.14196
-2.44017
-2.6901
-2.63396
-2.78453
-2.85595
-2.87525
-2.82694
-2.80154
-2.69878
-2.52962
-2.35305
-2.11601
-1.87243
-1.51054
-1.1943
-0.758339
-0.966566
-1.10155
-1.36041
-1.6119
-1.79524
-1.84828
-1.91365
-2.00986
-2.04412
-2.00407
-1.95246
-1.97637
-1.88927
-1.86017
-1.70016
-1.49396
-1.33658
-1.07347
-0.834592
-0.628501
-0.564417
-0.691153
-0.802296
-0.909836
-1.11846
-1.15656
-1.13311
-1.25766
-1.21333
-1.23731
-1.25338
-1.22746
-1.08874
-1.0932
-1.00123
-0.919497
-0.84536
-0.608498
-0.496798
-0.299336
-0.135443
-0.212631
-0.312959
-0.251796
-0.380723
-0.366583
-0.402522
-0.42343
-0.38044
-0.370623
-0.364209
-0.395154
-0.389692
-0.39238
-0.332454
-0.300444
-0.293858
-0.234697
-0.171958
-0.14604
-2.70415
-3.51743
-4.21678
-4.85069
-5.42251
-5.89629
-6.17368
-6.36659
-6.50778
-6.47477
-6.40353
-6.35243
-6.0588
-5.74787
-5.45778
-4.94903
-4.24785
-3.53051
-2.67477
-1.96927
-2.3556
-2.93941
-3.60948
-4.15628
-4.69777
-5.06685
-5.31516
-5.46389
-5.62232
-5.61808
-5.64265
-5.44061
-5.25511
-5.06165
-4.64251
-4.21536
-3.63886
-3.00477
-2.26697
-1.66662
-1.93141
-2.45734
-3.08554
-3.52079
-3.96025
-4.29438
-4.45211
-4.68235
-4.75937
-4.74518
-4.65696
-4.64947
-4.39045
-4.2762
-3.92486
-3.52413
-3.12283
-2.56365
-1.93686
-1.40498
-1.68205
-2.06863
-2.46981
-2.93286
-3.22679
-3.49682
-3.71229
-3.87004
-3.90277
-3.89949
-3.80097
-3.73762
-3.61491
-3.48815
-3.24927
-2.92869
-2.48515
-2.08464
-1.52274
-1.17047
-1.28179
-1.58254
-1.89209
-2.25322
-2.49855
-2.7083
-2.85268
-2.95158
-2.95816
-2.96541
-2.96735
-2.96056
-2.77496
-2.69699
-2.53955
-2.30475
-1.95923
-1.60275
-1.17611
-0.918095
-0.915505
-1.13821
-1.3696
-1.62458
-1.81532
-1.90555
-2.07112
-2.08714
-2.21772
-2.13761
-2.13883
-2.09404
-2.04222
-1.89126
-1.81444
-1.57589
-1.45119
-1.1415
-0.880051
-0.658691
-0.499111
-0.735242
-0.822538
-0.936225
-1.09637
-1.10748
-1.2594
-1.22148
-1.26634
-1.32444
-1.24194
-1.24125
-1.18579
-1.17627
-1.05811
-0.942289
-0.866497
-0.715349
-0.48895
-0.356406
-0.183812
-0.243372
-0.265813
-0.338461
-0.33538
-0.388345
-0.47426
-0.465531
-0.424818
-0.433103
-0.370401
-0.411745
-0.430037
-0.376557
-0.306243
-0.374024
-0.274535
-0.17104
-0.239866
-0.157459
-2.44325
-3.19956
-4.06554
-4.75288
-5.4753
-5.87406
-6.16591
-6.49294
-6.54986
-6.63768
-6.58582
-6.42944
-6.21571
-5.85247
-5.41471
-4.92571
-4.24471
-3.45278
-2.59919
-1.74483
-2.13623
-2.77472
-3.55949
-4.0812
-4.68807
-5.08177
-5.31429
-5.59739
-5.69039
-5.72099
-5.72581
-5.62235
-5.3438
-5.14696
-4.69353
-4.18972
-3.52765
-2.973
-2.19676
-1.56258
-1.73357
-2.33843
-2.89292
-3.46418
-3.91782
-4.27804
-4.51945
-4.68084
-4.81478
-4.81078
-4.80816
-4.63546
-4.47275
-4.26565
-3.93672
-3.56937
-3.07386
-2.45742
-1.85329
-1.26967
-1.40911
-1.99181
-2.36955
-2.882
-3.20999
-3.44834
-3.67178
-3.87248
-3.93512
-3.96344
-3.84003
-3.79005
-3.7124
-3.46317
-3.21147
-2.90194
-2.49565
-1.90842
-1.48323
-1.00488
-1.12599
-1.41495
-1.80995
-2.20076
-2.45455
-2.66368
-2.87011
-2.9472
-3.03091
-3.02196
-3.04786
-2.96262
-2.84556
-2.76636
-2.53763
-2.26735
-1.91813
-1.50265
-1.22883
-0.805466
-0.767439
-0.999005
-1.33768
-1.54687
-1.74671
-1.95436
-2.05098
-2.08874
-2.1646
-2.16782
-2.17817
-2.16321
-2.04504
-2.03833
-1.73499
-1.56981
-1.3895
-1.10883
-0.809509
-0.571655
-0.502112
-0.692246
-0.791226
-0.914722
-1.05855
-1.14464
-1.23845
-1.32663
-1.32752
-1.32617
-1.30632
-1.31303
-1.26019
-1.14989
-1.11481
-0.945429
-0.859674
-0.584888
-0.46796
-0.284976
-0.130185
-0.279192
-0.366115
-0.304988
-0.344087
-0.400586
-0.44851
-0.406058
-0.472926
-0.475609
-0.40869
-0.391057
-0.393984
-0.359051
-0.407728
-0.386568
-0.324646
-0.190458
-0.167918
-0.16545
-1.91739
-2.80429
-3.63422
-4.39842
-5.0961
-5.55602
-5.94917
-6.19702
-6.41222
-6.43768
-6.4242
-6.32832
-6.07547
-5.63633
-5.24421
-4.6579
-3.97175
-3.07406
-2.15588
-1.32399
-1.70367
-2.40518
-3.14575
-3.84267
-4.40445
-4.86652
-5.12713
-5.34113
-5.56664
-5.61864
-5.48212
-5.44453
-5.25768
-4.89023
-4.46087
-4.00439
-3.35371
-2.62532
-1.86427
-1.09164
-1.35578
-2.05322
-2.61534
-3.23282
-3.70409
-4.09547
-4.37474
-4.63282
-4.65455
-4.71202
-4.70885
-4.58072
-4.45123
-4.10657
-3.78139
-3.30316
-2.79553
-2.19597
-1.55127
-0.892859
-1.20859
-1.58533
-2.1209
-2.63794
-3.00155
-3.31479
-3.54068
-3.75178
-3.81429
-3.83983
-3.83544
-3.77315
-3.57074
-3.38728
-3.08279
-2.69914
-2.30311
-1.87074
-1.2226
-0.751173
-0.838835
-1.2469
-1.67404
-2.05146
-2.30262
-2.56024
-2.75903
-2.8741
-2.94984
-2.99506
-2.92468
-2.84178
-2.78448
-2.64797
-2.33004
-2.20217
-1.68672
-1.38002
-1.03276
-0.59708
-0.628846
-0.893144
-1.17243
-1.46567
-1.65983
-1.83134
-2.0524
-2.1315
-2.14362
-2.12176
-2.10941
-2.05516
-1.98757
-1.87136
-1.69043
-1.49284
-1.2458
-0.930263
-0.663151
-0.422531
-0.394958
-0.546156
-0.693212
-0.804864
-1.01883
-1.10221
-1.18732
-1.23672
-1.20898
-1.26596
-1.2529
-1.22338
-1.13831
-1.14095
-1.07862
-0.871493
-0.73873
-0.570789
-0.408544
-0.24009
-0.105153
-0.202007
-0.254855
-0.188578
-0.394131
-0.355431
-0.426182
-0.39806
-0.373894
-0.505039
-0.475996
-0.401367
-0.363046
-0.381482
-0.387015
-0.286001
-0.210858
-0.237801
-0.123629
-0.119334
-1.17835
-1.98598
-2.93518
-3.77665
-4.49235
-5.06129
-5.49735
-5.80075
-5.94501
-5.98105
-6.04304
-5.91177
-5.64229
-5.26788
-4.73012
-4.15079
-3.41087
-2.501
-1.50527
-0.655503
-1.00749
-1.74462
-2.54354
-3.28168
-3.83887
-4.338
-4.67555
-4.9245
-5.12901
-5.18699
-5.19615
-5.0437
-4.75552
-4.55965
-4.05734
-3.50459
-2.8336
-2.15157
-1.27688
-0.584266
-0.836633
-1.44556
-2.08189
-2.75568
-3.25365
-3.61974
-3.91362
-4.17376
-4.33408
-4.34793
-4.36574
-4.25745
-4.08922
-3.81708
-3.44635
-2.98155
-2.35161
-1.689
-1.05171
-0.4255
-0.707906
-1.13389
-1.70793
-2.20155
-2.59638
-2.99582
-3.28256
-3.33474
-3.61162
-3.53167
-3.55837
-3.4745
-3.27467
-3.06426
-2.72916
-2.33132
-1.89157
-1.40528
-0.851308
-0.288212
-0.501379
-0.888623
-1.29603
-1.71301
-1.97258
-2.26923
-2.51609
-2.63067
-2.75174
-2.7474
-2.79314
-2.66973
-2.58146
-2.35844
-2.19339
-1.85188
-1.48812
-1.08339
-0.626216
-0.238239
-0.384095
-0.6308
-0.923211
-1.22627
-1.40036
-1.62605
-1.84562
-1.8964
-1.97586
-1.97128
-1.90876
-1.92251
-1.87947
-1.67008
-1.53047
-1.29184
-1.09378
-0.763527
-0.482302
-0.170077
-0.267939
-0.346399
-0.53715
-0.665657
-0.836556
-1.02235
-1.05858
-1.10569
-1.11626
-1.17687
-1.22411
-1.1508
-1.15902
-0.96355
-0.886181
-0.855213
-0.599049
-0.425952
-0.267153
-0.11368
-0.0726278
-0.158228
-0.116434
-0.2818
-0.269272
-0.379122
-0.362325
-0.394466
-0.326124
-0.403892
-0.413766
-0.413751
-0.349021
-0.426015
-0.342448
-0.280887
-0.233639
-0.129438
-0.106261
-0.0112137
-0.179914
-0.993763
-2.01803
-2.94105
-3.60451
-4.26214
-4.74237
-5.05649
-5.24892
-5.39104
-5.2707
-5.15439
-4.88064
-4.4978
-3.98996
-3.314
-2.5483
-1.67883
-0.695582
0.244739
-0.0845897
-0.853755
-1.72915
-2.40849
-3.14479
-3.60735
-4.09697
-4.35022
-4.52854
-4.56795
-4.56278
-4.45969
-4.24604
-3.87592
-3.37278
-2.87148
-2.19051
-1.36271
-0.58546
0.292704
-0.109887
-0.747195
-1.46082
-1.95257
-2.59026
-3.01492
-3.43186
-3.63499
-3.79451
-3.87724
-3.79925
-3.70369
-3.52192
-3.20664
-2.83355
-2.3197
-1.76587
-1.14354
-0.392812
0.263182
-0.0642895
-0.530657
-1.12793
-1.64254
-2.10885
-2.52061
-2.78454
-2.9607
-3.17548
-3.07447
-3.12008
-3.01679
-2.88671
-2.58023
-2.30836
-1.923
-1.4205
-0.883869
-0.308813
0.243866
0.0234619
-0.411785
-0.818587
-1.25419
-1.66271
-1.87487
-2.13632
-2.24814
-2.37566
-2.4541
-2.41448
-2.3462
-2.21329
-2.00155
-1.80857
-1.43703
-1.09488
-0.66711
-0.221223
0.141812
-0.0567664
-0.346598
-0.552407
-0.909479
-1.17393
-1.291
-1.48564
-1.60784
-1.71513
-1.69546
-1.72855
-1.63071
-1.5474
-1.44028
-1.28702
-1.07443
-0.769151
-0.475196
-0.0739242
0.12137
-0.0140414
-0.20626
-0.36313
-0.527085
-0.679703
-0.789915
-0.921187
-1.015
-1.0402
-1.04484
-1.00259
-0.997203
-0.992294
-0.902725
-0.752959
-0.569396
-0.435861
-0.242549
-0.131051
0.130956
0.00437516
-0.0568632
-0.147127
-0.2174
-0.25176
-0.271186
-0.25207
-0.318442
-0.291098
-0.374136
-0.331123
-0.29618
-0.298388
-0.371543
-0.233566
-0.179524
-0.149113
-0.05055
0.00187871
0.0453676
1.18049
0.181481
-0.839453
-1.71784
-2.52614
-3.12415
-3.68204
-4.07759
-4.2837
-4.39288
-4.30914
-4.1652
-3.87855
-3.52712
-2.99002
-2.28336
-1.38597
-0.540224
0.564308
1.52777
1.07479
0.296382
-0.67582
-1.44835
-2.1879
-2.65376
-3.07389
-3.45552
-3.6474
-3.71635
-3.70605
-3.5388
-3.30154
-2.97893
-2.54128
-1.91557
-1.16122
-0.362648
0.593938
1.36257
0.89686
0.255933
-0.537589
-1.20404
-1.76111
-2.21902
-2.66301
-2.94412
-3.01114
-3.09738
-3.00597
-3.00408
-2.72461
-2.48396
-2.06818
-1.5189
-0.962306
-0.224757
0.53816
1.1389
0.695377
0.236936
-0.338503
-0.997553
-1.46954
-1.71805
-2.15697
-2.36039
-2.45038
-2.52095
-2.47656
-2.45094
-2.27484
-2.04772
-1.6091
-1.24447
-0.728231
-0.182838
0.403856
1.0067
0.610024
0.223596
-0.234944
-0.686645
-1.06122
-1.43219
-1.61571
-1.7671
-1.90967
-1.93064
-1.92215
-1.86353
-1.77552
-1.46874
-1.31972
-0.904584
-0.702067
-0.101537
0.293075
0.748243
0.411187
0.124458
-0.187081
-0.517378
-0.793029
-0.941865
-1.15694
-1.34147
-1.35972
-1.36042
-1.32995
-1.34122
-1.28411
-1.04057
-0.921829
-0.641037
-0.384778
-0.105684
0.214249
0.577709
0.296254
0.0295031
-0.161454
-0.336694
-0.557075
-0.614753
-0.677069
-0.77483
-0.857409
-0.789975
-0.833864
-0.795155
-0.722791
-0.704768
-0.563621
-0.372932
-0.241849
-0.0229135
0.153842
0.359584
0.143961
0.0341493
0.0010047
-0.119594
-0.187952
-0.210039
-0.250692
-0.294078
-0.214884
-0.279891
-0.303551
-0.201865
-0.269735
-0.246443
-0.13397
-0.209504
-0.000236605
0.0805938
0.0744027
0.0676487
2.70363
1.80022
0.709711
-0.248377
-1.14391
-1.7897
-2.34602
-2.69127
-3.0045
-3.05987
-3.05468
-2.87408
-2.6413
-2.19635
-1.63094
-0.896144
-0.0833845
0.93
1.99219
2.95851
2.41675
1.64476
0.664706
-0.148937
-0.894929
-1.46973
-1.98585
-2.31079
-2.53528
-2.67397
-2.6049
-2.3959
-2.21743
-1.88497
-1.30602
-0.718687
0.00942766
0.882115
1.79041
2.68092
2.07549
1.39051
0.66286
-0.109399
-0.719132
-1.27495
-1.59943
-1.88985
-2.0585
-2.10643
-2.17033
-1.99867
-1.87033
-1.48015
-1.06078
-0.584204
0.0679407
0.720252
1.63273
2.30148
1.66084
1.13445
0.486855
-0.0561228
-0.528553
-0.959407
-1.26109
-1.53301
-1.66193
-1.69433
-1.73053
-1.63743
-1.48015
-1.21719
-0.903193
-0.360094
0.0730146
0.676437
1.34327
1.83937
1.35227
0.939859
0.436196
-0.0361582
-0.441429
-0.679783
-0.968324
-1.17845
-1.29123
-1.32943
-1.33978
-1.3058
-1.13089
-0.890905
-0.641767
-0.281655
0.0227541
0.578193
1.06393
1.45503
0.960808
0.674249
0.266952
0.0558337
-0.259177
-0.497732
-0.721145
-0.841181
-0.933948
-0.969476
-1.02474
-0.89845
-0.807698
-0.564736
-0.449279
-0.252176
0.142472
0.387938
0.751954
1.03725
0.592862
0.387307
0.159259
-0.0265659
-0.123233
-0.244841
-0.441168
-0.463196
-0.586111
-0.575776
-0.644454
-0.57346
-0.513315
-0.371259
-0.317552
-0.144538
0.0927101
0.256861
0.457484
0.646397
0.18464
0.128431
0.0706989
0.0329278
-0.0195118
-0.0374149
-0.0936355
-0.205762
-0.184762
-0.15014
-0.253762
-0.17296
-0.138204
-0.128566
-0.0977192
-0.0109827
0.142788
0.133462
0.158207
0.170638
4.59515
3.58628
2.48321
1.46524
0.656093
-0.0857237
-0.730982
-1.13679
-1.34848
-1.59021
-1.45948
-1.39336
-1.09916
-0.597258
0.00731726
0.733408
1.60733
2.63641
3.7921
4.65804
3.99779
3.20527
2.24345
1.31296
0.600236
-0.0440905
-0.491785
-0.880138
-1.12375
-1.23055
-1.24633
-1.0606
-0.819562
-0.504637
0.062478
0.707946
1.44352
2.34584
3.2873
4.16273
3.42684
2.71292
1.91005
1.18581
0.523655
0.0732254
-0.367756
-0.777666
-0.907406
-0.996081
-1.00787
-0.848848
-0.635402
-0.381731
0.0467848
0.716514
1.18217
2.00924
2.86657
3.58253
2.84373
2.21245
1.59372
0.969772
0.55351
0.0328443
-0.33793
-0.532249
-0.673309
-0.821933
-0.738973
-0.730669
-0.466102
-0.207336
0.0721736
0.551117
1.00628
1.72748
2.35669
3.00473
2.14275
1.8016
1.28633
0.816165
0.413247
0.0683528
-0.26297
-0.45114
-0.509625
-0.597366
-0.540814
-0.498608
-0.360075
-0.140647
0.195639
0.46935
0.874344
1.31787
1.85579
2.30784
1.59978
1.25514
0.885719
0.596405
0.335185
0.0316746
-0.145385
-0.322135
-0.382012
-0.47419
-0.411824
-0.36713
-0.208435
-0.0573988
0.121196
0.277994
0.574494
0.923776
1.30301
1.6528
0.913525
0.764361
0.539086
0.29274
0.123289
-0.00132559
-0.0773921
-0.188737
-0.246674
-0.301683
-0.18432
-0.215732
-0.218454
-0.0375829
0.0466771
0.158069
0.447277
0.58462
0.818026
0.970319
0.352257
0.202365
0.18967
0.0731271
0.0400777
-0.0141514
-0.0727592
-0.0750752
-0.0726041
-0.0637426
-0.0672037
-0.111263
-0.0479597
0.0359386
-0.0249288
0.0791544
0.0201703
0.204761
0.231097
0.330384
6.71005
5.60086
4.45463
3.40447
2.59213
1.70204
1.26341
0.778691
0.464679
0.315407
0.327484
0.479422
0.818452
1.25746
1.862
2.60937
3.53969
4.55227
5.65041
6.824
5.83856
4.91958
3.99906
3.02886
2.21825
1.64523
1.10479
0.739035
0.489011
0.311554
0.398856
0.415756
0.73899
1.13347
1.69454
2.29913
3.11822
4.00212
5.01515
5.86071
5.00995
4.21629
3.37017
2.58361
1.94564
1.46047
0.929176
0.6863
0.452907
0.305138
0.287538
0.440419
0.716565
1.06304
1.49941
2.07497
2.68566
3.47166
4.23443
5.08809
4.09336
3.49828
2.79848
2.1801
1.58012
1.19498
0.848486
0.520844
0.381829
0.307485
0.29499
0.350966
0.642472
0.878112
1.2134
1.63976
2.23249
2.85175
3.5685
4.14608
3.22901
2.80513
2.15414
1.72397
1.28213
0.907645
0.658753
0.462386
0.328798
0.285538
0.231367
0.281701
0.44407
0.648489
0.981013
1.29675
1.78644
2.2739
2.79804
3.25869
2.28284
1.98432
1.54125
1.24117
0.8534
0.657613
0.427204
0.292072
0.264704
0.199256
0.240471
0.222799
0.314198
0.520706
0.750031
0.966404
1.24688
1.64764
1.96503
2.31171
1.4136
1.12809
0.964943
0.754957
0.535723
0.39774
0.230408
0.190579
0.164877
0.135963
0.162181
0.171257
0.236812
0.281958
0.371493
0.588216
0.771427
1.02543
1.175
1.40143
0.486197
0.475802
0.250223
0.245534
0.243996
0.147622
0.0817714
0.0794794
0.0364183
0.0537598
0.0797169
0.123318
0.0366887
0.0884204
0.206454
0.199107
0.233881
0.291878
0.300757
0.442496
9.01606
7.89715
6.67026
5.60098
4.70216
3.88798
3.28147
2.80988
2.52403
2.30943
2.34248
2.54809
2.81811
3.2568
3.88028
4.65653
5.59297
6.67795
7.83283
8.85599
7.78265
6.87915
5.8719
4.95453
4.09545
3.43283
2.92492
2.50556
2.22325
2.07197
2.04056
2.27642
2.51544
2.96339
3.41615
4.07468
4.9297
5.83326
6.90062
7.75698
6.60943
5.92093
4.95172
4.1515
3.53663
3.01645
2.50138
2.18157
1.93747
1.79427
1.82641
1.96783
2.17538
2.49408
2.9763
3.5308
4.25429
5.03255
5.86533
6.61765
5.43183
4.77727
4.1191
3.45309
2.92508
2.45294
2.0544
1.70707
1.55459
1.5124
1.52996
1.57036
1.81606
2.03053
2.38479
2.91258
3.52304
4.09633
4.79805
5.47967
4.27087
3.81872
3.21428
2.73204
2.35543
1.88868
1.57177
1.42974
1.26764
1.218
1.26949
1.27878
1.45037
1.61909
1.96337
2.32211
2.70688
3.21016
3.78709
4.27459
3.0183
2.70246
2.29033
2.00234
1.68151
1.34952
1.08993
0.999707
0.865855
0.82665
0.878299
0.911725
1.00479
1.17647
1.42613
1.63319
1.97572
2.3353
2.65616
3.06732
1.80693
1.58004
1.42096
1.10674
1.00218
0.79883
0.667092
0.611604
0.499705
0.544307
0.546768
0.569201
0.586945
0.685398
0.819371
1.03303
1.20856
1.42434
1.64852
1.79943
0.586507
0.530403
0.427036
0.429686
0.356425
0.30116
0.253687
0.251736
0.209181
0.151291
0.143131
0.231805
0.234759
0.22373
0.318857
0.301148
0.473411
0.446036
0.4698
0.62424
11.238
10.1863
8.89416
7.84117
6.88873
6.01668
5.36795
4.86696
4.58801
4.41219
4.36848
4.61191
4.90841
5.39114
6.02445
6.8089
7.76293
8.83794
9.97573
11.0911
9.69502
8.74788
7.72286
6.79207
5.98866
5.20794
4.61776
4.27884
3.9977
3.81209
3.80114
3.93119
4.25055
4.71083
5.19339
5.96813
6.74374
7.68787
8.73269
9.67192
8.25758
7.40771
6.48231
5.71294
5.15249
4.50064
3.96507
3.59133
3.36611
3.32519
3.31038
3.42328
3.67658
3.99287
4.39023
5.01329
5.6714
6.4932
7.37847
8.1482
6.7124
6.08555
5.42513
4.70468
4.1524
3.68113
3.26237
2.9599
2.86084
2.74186
2.7146
2.83424
2.92526
3.40605
3.65945
4.16897
4.72425
5.33232
6.0869
6.65685
5.16458
4.71337
4.2075
3.64221
3.25045
2.82566
2.52974
2.36762
2.12962
2.14991
2.06672
2.14965
2.29107
2.54812
2.78929
3.23747
3.70676
4.22474
4.76559
5.20589
3.71741
3.36034
3.00068
2.63401
2.33928
2.02781
1.85324
1.69188
1.53931
1.53259
1.48561
1.5622
1.66849
1.77511
2.06473
2.36696
2.63598
3.05738
3.33758
3.72999
2.32095
2.04342
1.80076
1.56298
1.42888
1.20145
1.09823
0.95384
0.972047
0.903961
0.881607
0.937733
0.999368
1.13707
1.26607
1.43443
1.54642
1.73155
2.07258
2.27762
0.710243
0.644032
0.572765
0.552442
0.480864
0.360774
0.312792
0.3068
0.354419
0.331019
0.279385
0.343606
0.321055
0.320816
0.33093
0.417405
0.585908
0.58957
0.705393
0.76091
13.1116
11.971
10.7538
9.5717
8.5139
7.7028
7.1056
6.61943
6.29737
6.16331
6.11408
6.27675
6.55246
7.04085
7.74932
8.51705
9.42549
10.5657
11.7911
12.8674
11.235
10.1808
9.23485
8.2469
7.44779
6.6563
6.08057
5.70858
5.33667
5.18689
5.25969
5.3846
5.69643
6.01256
6.69591
7.37075
8.10185
9.10649
10.1135
11.0329
9.42794
8.68493
7.6961
6.90863
6.25003
5.61815
5.12338
4.75206
4.47864
4.34692
4.37082
4.54395
4.73055
5.10751
5.53724
6.18885
6.89687
7.73556
8.58892
9.30494
7.62405
7.07596
6.346
5.68174
5.01679
4.54686
4.169
3.88453
3.64371
3.534
3.5213
3.6204
3.85846
4.12288
4.50576
5.04772
5.59285
6.27175
6.93791
7.60568
5.90314
5.42155
4.90558
4.35215
3.83431
3.48815
3.17846
2.97513
2.88027
2.71832
2.70539
2.82975
2.94945
3.14258
3.57884
3.88292
4.39421
4.82218
5.47617
5.90362
4.17015
3.90898
3.42937
3.07053
2.7929
2.5579
2.28455
2.15421
2.02544
1.93721
1.97623
2.05693
2.07132
2.31841
2.48155
2.772
3.12291
3.46247
3.84562
4.15332
2.54282
2.36215
2.08335
1.8468
1.65172
1.45956
1.35413
1.28435
1.13503
1.22365
1.28982
1.22567
1.21873
1.37948
1.50521
1.70407
1.85765
2.02997
2.29032
2.48506
0.872341
0.717553
0.667454
0.585925
0.551779
0.54629
0.439854
0.423517
0.33348
0.312506
0.428927
0.412572
0.402989
0.463462
0.545572
0.529664
0.668345
0.746167
0.794907
0.791656
)
;

boundaryField
{
    hotSide
    {
        type            calculated;
        value           nonuniform List<scalar> 
400
(
2.92345
2.0308
1.00591
0.0862548
-0.77705
-1.29175
-1.81114
-2.02676
-1.98104
-1.69654
-1.14437
-0.376299