/*--------------------------------*- C++ -*----------------------------------*\
| =========                 |                                                 |
| \\      /  F ield         | OpenFOAM: The Open Source CFD Toolbox           |
|  \\    /   O peration     | Version:  2212                                  |
|   \\  /    A nd           | Website:  www.openfoam.com                      |
|    \\/     M anipulation  |                                                 |
\*---------------------------------------------------------------------------*/
FoamFile
{
    version     2.0;
    format      ascii;
    arch        "LSB;label=32;scalar=64";
    class       volScalarField;
    location    "./ITHACAoutput/true/16.7";
    object      trueState;
}
// * * * * * * * * * * * * * * * * * * * * * * * * * * * * * * * * * * * * * //

dimensions      [0 0 0 1 0 0 0];

internalField   nonuniform List<scalar> 
3200
(
341.018
341.254
341.555
341.882
342.22
342.551
342.857
343.115
343.303
343.402
343.402
343.303
343.115
342.857
342.551
342.22
341.882
341.555
341.254
341.018
335.677
335.876
336.136
336.419
336.711
336.998
337.262
337.485
337.648
337.733
337.733
337.648
337.485
337.262
336.998
336.711
336.419
336.136
335.876
335.677
330.282
330.447
330.666
330.905
331.152
331.394
331.617
331.805
331.942
332.015
332.015
331.942
331.805
331.617
331.394
331.152
330.905
330.666
330.447
330.282
324.841
324.974
325.152
325.348
325.55
325.748
325.93
326.084
326.195
326.254
326.254
326.195
326.084
325.93
325.748
325.55
325.348
325.152
324.974
324.841
319.364
319.466
319.604
319.756
319.913
320.067
320.208
320.328
320.414
320.46
320.46
320.414
320.328
320.208
320.067
319.913
319.756
319.604
319.466
319.364
313.858
313.93
314.029
314.137
314.249
314.359
314.46
314.545
314.607
314.64
314.64
314.607
314.545
314.46
314.359
314.249
314.137
314.029
313.93
313.858
308.332
308.375
308.434
308.5
308.567
308.633
308.693
308.745
308.782
308.801
308.801
308.782
308.745
308.693
308.633
308.567
308.5
308.434
308.375
308.332
302.794
302.809
302.829
302.85
302.873
302.895
302.915
302.933
302.945
302.952
302.952
302.945
302.933
302.915
302.895
302.873
302.85
302.829
302.809
302.794
341.189
341.423
341.721
342.046
342.38
342.707
343.01
343.265
343.45
343.548
343.548
343.45
343.265
343.01
342.707
342.38
342.046
341.721
341.423
341.189
335.826
336.023
336.281
336.561
336.851
337.134
337.395
337.615
337.776
337.86
337.86
337.776
337.615
337.395
337.134
336.851
336.561
336.281
336.023
335.826
330.408
330.572
330.788
331.026
331.27
331.509
331.73
331.916
332.051
332.123
332.123
332.051
331.916
331.73
331.509
331.27
331.026
330.788
330.572
330.408
324.944
325.076
325.253
325.447
325.647
325.842
326.023
326.174
326.285
326.343
326.343
326.285
326.174
326.023
325.842
325.647
325.447
325.253
325.076
324.944
319.444
319.546
319.683
319.833
319.989
320.141
320.281
320.398
320.484
320.529
320.529
320.484
320.398
320.281
320.141
319.989
319.833
319.683
319.546
319.444
313.916
313.987
314.085
314.193
314.304
314.412
314.512
314.596
314.657
314.69
314.69
314.657
314.596
314.512
314.412
314.304
314.193
314.085
313.987
313.916
308.367
308.41
308.468
308.533
308.599
308.665
308.725
308.775
308.812
308.831
308.831
308.812
308.775
308.725
308.665
308.599
308.533
308.468
308.41
308.367
302.806
302.82
302.84
302.862
302.884
302.906
302.926
302.943
302.955
302.962
302.962
302.955
302.943
302.926
302.906
302.884
302.862
302.84
302.82
302.806
341.532
341.762
342.055
342.373
342.701
343.021
343.316
343.565
343.746
343.841
343.841
343.746
343.565
343.316
343.021
342.701
342.373
342.055
341.762
341.532
336.123
336.318
336.571
336.846
337.13
337.407
337.662
337.877
338.033
338.116
338.116
338.033
337.877
337.662
337.407
337.13
336.846
336.571
336.318
336.123
330.66
330.822
331.035
331.267
331.507
331.741
331.957
332.138
332.27
332.34
332.34
332.27
332.138
331.957
331.741
331.507
331.267
331.035
330.822
330.66
325.151
325.281
325.455
325.645
325.841
326.032
326.209
326.357
326.464
326.521
326.521
326.464
326.357
326.209
326.032
325.841
325.645
325.455
325.281
325.151
319.606
319.705
319.84
319.988
320.14
320.289
320.426
320.541
320.624
320.668
320.668
320.624
320.541
320.426
320.289
320.14
319.988
319.84
319.705
319.606
314.031
314.102
314.198
314.303
314.412
314.518
314.616
314.698
314.758
314.789
314.789
314.758
314.698
314.616
314.518
314.412
314.303
314.198
314.102
314.031
308.436
308.478
308.536
308.599
308.665
308.728
308.787
308.836
308.872
308.891
308.891
308.872
308.836
308.787
308.728
308.665
308.599
308.536
308.478
308.436
302.829
302.843
302.863
302.884
302.906
302.927
302.947
302.963
302.975
302.982
302.982
302.975
302.963
302.947
302.927
302.906
302.884
302.863
302.843
302.829
342.046
342.27
342.556
342.866
343.183
343.494
343.779
344.019
344.193
344.284
344.284
344.193
344.019
343.779
343.494
343.183
342.866
342.556
342.27
342.046
336.57
336.76
337.006
337.275
337.55
337.818
338.065
338.272
338.422
338.502
338.502
338.422
338.272
338.065
337.818
337.55
337.275
337.006
336.76
336.57
331.039
331.197
331.404
331.631
331.863
332.09
332.299
332.474
332.6
332.667
332.667
332.6
332.474
332.299
332.09
331.863
331.631
331.404
331.197
331.039
325.462
325.589
325.758
325.944
326.133
326.319
326.489
326.632
326.736
326.79
326.79
326.736
326.632
326.489
326.319
326.133
325.944
325.758
325.589
325.462
319.848
319.945
320.076
320.22
320.368
320.512
320.644
320.755
320.836
320.878
320.878
320.836
320.755
320.644
320.512
320.368
320.22
320.076
319.945
319.848
314.204
314.273
314.367
314.47
314.575
314.678
314.772
314.852
314.909
314.939
314.939
314.909
314.852
314.772
314.678
314.575
314.47
314.367
314.273
314.204
308.54
308.582
308.638
308.699
308.763
308.825
308.881
308.929
308.963
308.981
308.981
308.963
308.929
308.881
308.825
308.763
308.699
308.638
308.582
308.54
302.864
302.878
302.897
302.917
302.939
302.959
302.978
302.994
303.006
303.012
303.012
303.006
302.994
302.978
302.959
302.939
302.917
302.897
302.878
302.864
342.732
342.95
343.226
343.525
343.83
344.128
344.4
344.629
344.794
344.882
344.882
344.794
344.629
344.4
344.128
343.83
343.525
343.226
342.95
342.732
337.167
337.351
337.589
337.848
338.112
338.37
338.605
338.803
338.946
339.021
339.021
338.946
338.803
338.605
338.37
338.112
337.848
337.589
337.351
337.167
331.545
331.698
331.899
332.118
332.341
332.558
332.758
332.924
333.045
333.109
333.109
333.045
332.924
332.758
332.558
332.341
332.118
331.899
331.698
331.545
325.877
326
326.164
326.343
326.525
326.703
326.866
327.002
327.101
327.153
327.153
327.101
327.002
326.866
326.703
326.525
326.343
326.164
326
325.877
320.171
320.266
320.393
320.531
320.673
320.812
320.938
321.044
321.121
321.161
321.161
321.121
321.044
320.938
320.812
320.673
320.531
320.393
320.266
320.171
314.436
314.503
314.593
314.692
314.794
314.892
314.983
315.058
315.113
315.142
315.142
315.113
315.058
314.983
314.892
314.794
314.692
314.593
314.503
314.436
308.68
308.719
308.774
308.833
308.894
308.953
309.008
309.053
309.086
309.103
309.103
309.086
309.053
309.008
308.953
308.894
308.833
308.774
308.719
308.68
302.911
302.924
302.942
302.962
302.983
303.003
303.021
303.036
303.047
303.053
303.053
303.047
303.036
303.021
303.003
302.983
302.962
302.942
302.924
302.911
343.592
343.801
344.066
344.352
344.643
344.926
345.183
345.399
345.555
345.637
345.637
345.555
345.399
345.183
344.926
344.643
344.352
344.066
343.801
343.592
337.914
338.091
338.32
338.567
338.819
339.064
339.287
339.473
339.608
339.679
339.679
339.608
339.473
339.287
339.064
338.819
338.567
338.32
338.091
337.914
332.179
332.326
332.519
332.728
332.941
333.148
333.336
333.494
333.607
333.667
333.667
333.607
333.494
333.336
333.148
332.941
332.728
332.519
332.326
332.179
326.397
326.515
326.673
326.843
327.018
327.186
327.341
327.469
327.562
327.611
327.611
327.562
327.469
327.341
327.186
327.018
326.843
326.673
326.515
326.397
320.576
320.667
320.789
320.922
321.057
321.188
321.308
321.408
321.48
321.518
321.518
321.48
321.408
321.308
321.188
321.057
320.922
320.789
320.667
320.576
314.726
314.79
314.877
314.972
315.068
315.162
315.248
315.319
315.37
315.398
315.398
315.37
315.319
315.248
315.162
315.068
314.972
314.877
314.79
314.726
308.854
308.892
308.944
309.001
309.059
309.116
309.167
309.21
309.241
309.257
309.257
309.241
309.21
309.167
309.116
309.059
309.001
308.944
308.892
308.854
302.969
302.982
303
303.019
303.038
303.057
303.074
303.089
303.099
303.104
303.104
303.099
303.089
303.074
303.057
303.038
303.019
303
302.982
302.969
344.626
344.826
345.079
345.35
345.625
345.891
346.133
346.334
346.479
346.555
346.555
346.479
346.334
346.133
345.891
345.625
345.35
345.079
344.826
344.626
338.813
338.982
339.2
339.435
339.673
339.903
340.113
340.287
340.412
340.478
340.478
340.412
340.287
340.113
339.903
339.673
339.435
339.2
338.982
338.813
332.942
333.082
333.266
333.465
333.666
333.86
334.037
334.184
334.29
334.346
334.346
334.29
334.184
334.037
333.86
333.666
333.465
333.266
333.082
332.942
327.022
327.135
327.285
327.447
327.612
327.771
327.916
328.036
328.123
328.168
328.168
328.123
328.036
327.916
327.771
327.612
327.447
327.285
327.135
327.022
321.063
321.15
321.266
321.393
321.521
321.644
321.757
321.85
321.917
321.953
321.953
321.917
321.85
321.757
321.644
321.521
321.393
321.266
321.15
321.063
315.074
315.136
315.218
315.309
315.4
315.488
315.569
315.635
315.683
315.709
315.709
315.683
315.635
315.569
315.488
315.4
315.309
315.218
315.136
315.074
309.063
309.1
309.15
309.204
309.259
309.312
309.36
309.4
309.429
309.444
309.444
309.429
309.4
309.36
309.312
309.259
309.204
309.15
309.1
309.063
303.04
303.052
303.068
303.087
303.105
303.123
303.139
303.152
303.162
303.167
303.167
303.162
303.152
303.139
303.123
303.105
303.087
303.068
303.052
303.04
345.835
346.025
346.265
346.52
346.778
347.026
347.251
347.438
347.572
347.642
347.642
347.572
347.438
347.251
347.026
346.778
346.52
346.265
346.025
345.835
339.864
340.025
340.231
340.453
340.676
340.891
341.086
341.247
341.363
341.424
341.424
341.363
341.247
341.086
340.891
340.676
340.453
340.231
340.025
339.864
333.834
333.967
334.141
334.328
334.517
334.699
334.863
335
335.098
335.149
335.149
335.098
335
334.863
334.699
334.517
334.328
334.141
333.967
333.834
327.754
327.861
328.003
328.156
328.31
328.459
328.593
328.705
328.785
328.827
328.827
328.785
328.705
328.593
328.459
328.31
328.156
328.003
327.861
327.754
321.633
321.716
321.826
321.945
322.065
322.18
322.285
322.372
322.434
322.466
322.466
322.434
322.372
322.285
322.18
322.065
321.945
321.826
321.716
321.633
315.482
315.54
315.619
315.704
315.789
315.872
315.947
316.009
316.053
316.076
316.076
316.053
316.009
315.947
315.872
315.789
315.704
315.619
315.54
315.482
309.308
309.343
309.39
309.441
309.493
309.542
309.587
309.624
309.651
309.665
309.665
309.651
309.624
309.587
309.542
309.493
309.441
309.39
309.343
309.308
303.122
303.133
303.149
303.166
303.184
303.2
303.215
303.228
303.237
303.241
303.241
303.237
303.228
303.215
303.2
303.184
303.166
303.149
303.133
303.122
347.221
347.401
347.626
347.865
348.105
348.336
348.543
348.715
348.838
348.902
348.902
348.838
348.715
348.543
348.336
348.105
347.865
347.626
347.401
347.221
341.069
341.221
341.415
341.622
341.83
342.03
342.209
342.358
342.464
342.52
342.52
342.464
342.358
342.209
342.03
341.83
341.622
341.415
341.221
341.069
334.856
334.982
335.145
335.321
335.497
335.665
335.817
335.943
336.032
336.079
336.079
336.032
335.943
335.817
335.665
335.497
335.321
335.145
334.982
334.856
328.592
328.693
328.826
328.97
329.114
329.252
329.376
329.478
329.552
329.59
329.59
329.552
329.478
329.376
329.252
329.114
328.97
328.826
328.693
328.592
322.286
322.364
322.468
322.579
322.691
322.798
322.895
322.975
323.032
323.062
323.062
323.032
322.975
322.895
322.798
322.691
322.579
322.468
322.364
322.286
315.949
316.004
316.078
316.158
316.238
316.314
316.383
316.44
316.481
316.502
316.502
316.481
316.44
316.383
316.314
316.238
316.158
316.078
316.004
315.949
309.589
309.622
309.666
309.714
309.762
309.808
309.85
309.884
309.908
309.921
309.921
309.908
309.884
309.85
309.808
309.762
309.714
309.666
309.622
309.589
303.216
303.227
303.242
303.258
303.274
303.289
303.303
303.315
303.323
303.327
303.327
303.323
303.315
303.303
303.289
303.274
303.258
303.242
303.227
303.216
348.784
348.953
349.164
349.386
349.609
349.821
350.011
350.168
350.28
350.338
350.338
350.28
350.168
350.011
349.821
349.609
349.386
349.164
348.953
348.784
342.428
342.571
342.752
342.945
343.138
343.322
343.486
343.622
343.719
343.77
343.77
343.719
343.622
343.486
343.322
343.138
342.945
342.752
342.571
342.428
336.008
336.127
336.28
336.443
336.606
336.762
336.901
337.016
337.098
337.14
337.14
337.098
337.016
336.901
336.762
336.606
336.443
336.28
336.127
336.008
329.537
329.632
329.757
329.89
330.024
330.151
330.265
330.359
330.426
330.461
330.461
330.426
330.359
330.265
330.151
330.024
329.89
329.757
329.632
329.537
323.023
323.096
323.193
323.297
323.4
323.499
323.588
323.661
323.713
323.74
323.74
323.713
323.661
323.588
323.499
323.4
323.297
323.193
323.096
323.023
316.476
316.528
316.597
316.671
316.745
316.816
316.879
316.931
316.968
316.988
316.988
316.968
316.931
316.879
316.816
316.745
316.671
316.597
316.528
316.476
309.906
309.937
309.978
310.023
310.067
310.11
310.148
310.179
310.202
310.213
310.213
310.202
310.179
310.148
310.11
310.067
310.023
309.978
309.937
309.906
303.322
303.333
303.346
303.361
303.376
303.39
303.403
303.414
303.421
303.425
303.425
303.421
303.414
303.403
303.39
303.376
303.361
303.346
303.333
303.322
350.526
350.684
350.88
351.086
351.291
351.486
351.659
351.802
351.903
351.956
351.956
351.903
351.802
351.659
351.486
351.291
351.086
350.88
350.684
350.526
343.942
344.075
344.244
344.423
344.601
344.769
344.92
345.043
345.131
345.176
345.176
345.131
345.043
344.92
344.769
344.601
344.423
344.244
344.075
343.942
337.293
337.404
337.546
337.697
337.848
337.99
338.117
338.221
338.296
338.334
338.334
338.296
338.221
338.117
337.99
337.848
337.697
337.546
337.404
337.293
330.59
330.679
330.795
330.919
331.042
331.159
331.263
331.348
331.408
331.44
331.44
331.408
331.348
331.263
331.159
331.042
330.919
330.795
330.679
330.59
323.844
323.912
324.002
324.098
324.194
324.285
324.365
324.432
324.479
324.504
324.504
324.479
324.432
324.365
324.285
324.194
324.098
324.002
323.912
323.844
317.063
317.112
317.176
317.245
317.313
317.378
317.436
317.483
317.517
317.534
317.534
317.517
317.483
317.436
317.378
317.313
317.245
317.176
317.112
317.063
310.259
310.288
310.327
310.368
310.409
310.448
310.482
310.511
310.531
310.542
310.542
310.531
310.511
310.482
310.448
310.409
310.368
310.327
310.288
310.259
303.441
303.45
303.463
303.477
303.491
303.504
303.515
303.525
303.532
303.535
303.535
303.532
303.525
303.515
303.504
303.491
303.477
303.463
303.45
303.441
352.447
352.594
352.776
352.966
353.154
353.331
353.489
353.617
353.709
353.756
353.756
353.709
353.617
353.489
353.331
353.154
352.966
352.776
352.594
352.447
345.611
345.736
345.893
346.057
346.22
346.374
346.51
346.622
346.701
346.742
346.742
346.701
346.622
346.51
346.374
346.22
346.057
345.893
345.736
345.611
338.709
338.813
338.945
339.084
339.222
339.352
339.467
339.562
339.629
339.663
339.663
339.629
339.562
339.467
339.352
339.222
339.084
338.945
338.813
338.709
331.752
331.835
331.942
332.056
332.169
332.275
332.37
332.447
332.502
332.53
332.53
332.502
332.447
332.37
332.275
332.169
332.056
331.942
331.835
331.752
324.749
324.812
324.896
324.985
325.072
325.155
325.229
325.289
325.331
325.353
325.353
325.331
325.289
325.229
325.155
325.072
324.985
324.896
324.812
324.749
317.711
317.756
317.816
317.879
317.942
318.001
318.053
318.096
318.126
318.142
318.142
318.126
318.096
318.053
318.001
317.942
317.879
317.816
317.756
317.711
310.648
310.675
310.711
310.749
310.787
310.822
310.854
310.88
310.898
310.907
310.907
310.898
310.88
310.854
310.822
310.787
310.749
310.711
310.675
310.648
303.571
303.58
303.592
303.605
303.617
303.629
303.64
303.649
303.655
303.658
303.658
303.655
303.649
303.64
303.629
303.617
303.605
303.592
303.58
303.571
354.547
354.684
354.851
355.026
355.198
355.359
355.501
355.617
355.699
355.742
355.742
355.699
355.617
355.501
355.359
355.198
355.026
354.851
354.684
354.547
347.437
347.552
347.697
347.849
347.997
348.137
348.26
348.361
348.432
348.469
348.469
348.432
348.361
348.26
348.137
347.997
347.849
347.697
347.552
347.437
340.258
340.354
340.476
340.604
340.73
340.848
340.952
341.037
341.097
341.128
341.128
341.097
341.037
340.952
340.848
340.73
340.604
340.476
340.354
340.258
333.021
333.098
333.198
333.302
333.406
333.502
333.588
333.657
333.706
333.732
333.732
333.706
333.657
333.588
333.502
333.406
333.302
333.198
333.098
333.021
325.738
325.797
325.874
325.956
326.036
326.111
326.178
326.232
326.27
326.29
326.29
326.27
326.232
326.178
326.111
326.036
325.956
325.874
325.797
325.738
318.419
318.461
318.516
318.574
318.631
318.685
318.732
318.771
318.798
318.812
318.812
318.798
318.771
318.732
318.685
318.631
318.574
318.516
318.461
318.419
311.074
311.099
311.132
311.167
311.201
311.234
311.262
311.285
311.302
311.31
311.31
311.302
311.285
311.262
311.234
311.201
311.167
311.132
311.099
311.074
303.714
303.722
303.733
303.745
303.756
303.767
303.777
303.785
303.79
303.793
303.793
303.79
303.785
303.777
303.767
303.756
303.745
303.733
303.722
303.714
356.826
356.952
357.106
357.266
357.423
357.569
357.697
357.801
357.874
357.912
357.912
357.874
357.801
357.697
357.569
357.423
357.266
357.106
356.952
356.826
349.417
349.524
349.657
349.796
349.931
350.058
350.169
350.259
350.323
350.356
350.356
350.323
350.259
350.169
350.058
349.931
349.796
349.657
349.524
349.417
341.937
342.026
342.138
342.255
342.37
342.477
342.571
342.648
342.701
342.729
342.729
342.701
342.648
342.571
342.477
342.37
342.255
342.138
342.026
341.937
334.398
334.469
334.561
334.657
334.751
334.838
334.915
334.978
335.022
335.045
335.045
335.022
334.978
334.915
334.838
334.751
334.657
334.561
334.469
334.398
326.811
326.865
326.936
327.011
327.084
327.152
327.212
327.261
327.295
327.313
327.313
327.295
327.261
327.212
327.152
327.084
327.011
326.936
326.865
326.811
319.186
319.225
319.275
319.329
319.381
319.43
319.473
319.507
319.532
319.544
319.544
319.532
319.507
319.473
319.43
319.381
319.329
319.275
319.225
319.186
311.535
311.558
311.589
311.621
311.652
311.681
311.707
311.728
311.743
311.75
311.75
311.743
311.728
311.707
311.681
311.652
311.621
311.589
311.558
311.535
303.869
303.876
303.886
303.897
303.908
303.917
303.926
303.933
303.938
303.941
303.941
303.938
303.933
303.926
303.917
303.908
303.897
303.886
303.876
303.869
359.278
359.394
359.536
359.682
359.824
359.956
360.072
360.165
360.23
360.264
360.264
360.23
360.165
360.072
359.956
359.824
359.682
359.536
359.394
359.278
351.547
351.646
351.768
351.895
352.018
352.132
352.232
352.313
352.37
352.399
352.399
352.37
352.313
352.232
352.132
352.018
351.895
351.768
351.646
351.547
343.744
343.825
343.928
344.035
344.14
344.237
344.321
344.39
344.438
344.463
344.463
344.438
344.39
344.321
344.237
344.14
344.035
343.928
343.825
343.744
335.879
335.944
336.028
336.116
336.201
336.281
336.35
336.406
336.445
336.466
336.466
336.445
336.406
336.35
336.281
336.201
336.116
336.028
335.944
335.879
327.964
328.014
328.08
328.148
328.214
328.276
328.33
328.373
328.404
328.42
328.42
328.404
328.373
328.33
328.276
328.214
328.148
328.08
328.014
327.964
320.011
320.047
320.093
320.142
320.189
320.234
320.272
320.303
320.325
320.336
320.336
320.325
320.303
320.272
320.234
320.189
320.142
320.093
320.047
320.011
312.031
312.052
312.08
312.109
312.138
312.164
312.188
312.206
312.219
312.226
312.226
312.219
312.206
312.188
312.164
312.138
312.109
312.08
312.052
312.031
304.035
304.042
304.051
304.061
304.071
304.079
304.087
304.094
304.098
304.1
304.1
304.098
304.094
304.087
304.079
304.071
304.061
304.051
304.042
304.035
361.892
361.999
362.129
362.263
362.392
362.51
362.614
362.698
362.756
362.786
362.786
362.756
362.698
362.614
362.51
362.392
362.263
362.129
361.999
361.892
353.817
353.908
354.02
354.135
354.247
354.35
354.44
354.512
354.563
354.589
354.589
354.563
354.512
354.44
354.35
354.247
354.135
354.02
353.908
353.817
345.667
345.742
345.836
345.934
346.029
346.116
346.192
346.253
346.296
346.319
346.319
346.296
346.253
346.192
346.116
346.029
345.934
345.836
345.742
345.667
337.454
337.514
337.591
337.671
337.749
337.82
337.883
337.933
337.968
337.986
337.986
337.968
337.933
337.883
337.82
337.749
337.671
337.591
337.514
337.454
329.19
329.237
329.297
329.359
329.419
329.475
329.523
329.562
329.59
329.604
329.604
329.59
329.562
329.523
329.475
329.419
329.359
329.297
329.237
329.19
320.888
320.921
320.963
321.008
321.051
321.091
321.125
321.153
321.173
321.183
321.183
321.173
321.153
321.125
321.091
321.051
321.008
320.963
320.921
320.888
312.558
312.578
312.603
312.63
312.656
312.68
312.7
312.717
312.729
312.735
312.735
312.729
312.717
312.7
312.68
312.656
312.63
312.603
312.578
312.558
304.211
304.218
304.227
304.235
304.244
304.252
304.259
304.265
304.269
304.271
304.271
304.269
304.265
304.259
304.252
304.244
304.235
304.227
304.218
304.211
364.64
364.738
364.857
364.979
365.096
365.203
365.296
365.371
365.423
365.45
365.45
365.423
365.371
365.296
365.203
365.096
364.979
364.857
364.738
364.64
356.198
356.281
356.384
356.489
356.59
356.683
356.764
356.829
356.874
356.898
356.898
356.874
356.829
356.764
356.683
356.59
356.489
356.384
356.281
356.198
347.681
347.75
347.836
347.925
348.011
348.09
348.158
348.213
348.251
348.271
348.271
348.251
348.213
348.158
348.09
348.011
347.925
347.836
347.75
347.681
339.101
339.157
339.227
339.3
339.37
339.435
339.491
339.536
339.567
339.583
339.583
339.567
339.536
339.491
339.435
339.37
339.3
339.227
339.157
339.101
330.471
330.514
330.569
330.625
330.68
330.73
330.774
330.809
330.833
330.846
330.846
330.833
330.809
330.774
330.73
330.68
330.625
330.569
330.514
330.471
321.803
321.833
321.872
321.913
321.952
321.988
322.019
322.044
322.061
322.07
322.07
322.061
322.044
322.019
321.988
321.952
321.913
321.872
321.833
321.803
313.107
313.125
313.149
313.173
313.197
313.218
313.237
313.252
313.262
313.268
313.268
313.262
313.252
313.237
313.218
313.197
313.173
313.149
313.125
313.107
304.396
304.402
304.409
304.418
304.425
304.433
304.439
304.444
304.448
304.449
304.449
304.448
304.444
304.439
304.433
304.425
304.418
304.409
304.402
304.396
367.447
367.538
367.647
367.757
367.864
367.961
368.044
368.111
368.158
368.182
368.182
368.158
368.111
368.044
367.961
367.864
367.757
367.647
367.538
367.447
358.619
358.696
358.79
358.886
358.978
359.062
359.135
359.193
359.234
359.254
359.254
359.234
359.193
359.135
359.062
358.978
358.886
358.79
358.696
358.619
349.72
349.784
349.863
349.944
350.022
350.094
350.155
350.205
350.239
350.257
350.257
350.239
350.205
350.155
350.094
350.022
349.944
349.863
349.784
349.72
340.763
340.814
340.879
340.946
341.01
341.068
341.119
341.159
341.187
341.202
341.202
341.187
341.159
341.119
341.068
341.01
340.946
340.879
340.814
340.763
331.76
331.799
331.85
331.901
331.951
331.997
332.036
332.067
332.089
332.101
332.101
332.089
332.067
332.036
331.997
331.951
331.901
331.85
331.799
331.76
322.721
322.749
322.785
322.822
322.858
322.89
322.918
322.941
322.957
322.965
322.965
322.957
322.941
322.918
322.89
322.858
322.822
322.785
322.749
322.721
313.658
313.675
313.696
313.718
313.74
313.759
313.776
313.79
313.799
313.804
313.804
313.799
313.79
313.776
313.759
313.74
313.718
313.696
313.675
313.658
304.58
304.586
304.593
304.6
304.607
304.614
304.62
304.624
304.627
304.629
304.629
304.627
304.624
304.62
304.614
304.607
304.6
304.593
304.586
304.58
370.132
370.215
370.316
370.417
370.515
370.603
370.679
370.74
370.782
370.804
370.804
370.782
370.74
370.679
370.603
370.515
370.417
370.316
370.215
370.132
360.906
360.977
361.064
361.152
361.237
361.314
361.38
361.432
361.469
361.488
361.488
361.469
361.432
361.38
361.314
361.237
361.152
361.064
360.977
360.906
351.626
351.685
351.758
351.833
351.905
351.97
352.026
352.071
352.102
352.118
352.118
352.102
352.071
352.026
351.97
351.905
351.833
351.758
351.685
351.626
342.303
342.35
342.41
342.471
342.53
342.583
342.629
342.666
342.692
342.705
342.705
342.692
342.666
342.629
342.583
342.53
342.471
342.41
342.35
342.303
332.945
332.981
333.028
333.075
333.121
333.163
333.199
333.227
333.247
333.257
333.257
333.247
333.227
333.199
333.163
333.121
333.075
333.028
332.981
332.945
323.561
323.587
323.62
323.654
323.687
323.717
323.743
323.763
323.777
323.785
323.785
323.777
323.763
323.743
323.717
323.687
323.654
323.62
323.587
323.561
314.16
314.175
314.195
314.216
314.235
314.253
314.269
314.281
314.289
314.294
314.294
314.289
314.281
314.269
314.253
314.235
314.216
314.195
314.175
314.16
304.748
304.753
304.76
304.766
304.773
304.779
304.784
304.788
304.791
304.793
304.793
304.791
304.788
304.784
304.779
304.773
304.766
304.76
304.753
304.748
372.221
372.299
372.394
372.489
372.58
372.663
372.733
372.79
372.829
372.849
372.849
372.829
372.79
372.733
372.663
372.58
372.489
372.394
372.299
372.221
362.619
362.686
362.768
362.851
362.93
363.002
363.064
363.113
363.147
363.165
363.165
363.147
363.113
363.064
363.002
362.93
362.851
362.768
362.686
362.619
353.01
353.066
353.135
353.206
353.273
353.335
353.387
353.429
353.458
353.473
353.473
353.458
353.429
353.387
353.335
353.273
353.206
353.135
353.066
353.01
343.393
343.438
343.495
343.553
343.608
343.659
343.702
343.736
343.76
343.772
343.772
343.76
343.736
343.702
343.659
343.608
343.553
343.495
343.438
343.393
333.769
333.803
333.847
333.893
333.936
333.975
334.009
334.036
334.054
334.064
334.064
334.054
334.036
334.009
333.975
333.936
333.893
333.847
333.803
333.769
324.137
324.162
324.193
324.226
324.257
324.285
324.309
324.328
324.342
324.348
324.348
324.342
324.328
324.309
324.285
324.257
324.226
324.193
324.162
324.137
314.501
314.515
314.534
314.554
314.572
314.589
314.604
314.616
314.624
314.628
314.628
314.624
314.616
314.604
314.589
314.572
314.554
314.534
314.515
314.501
304.861
304.866
304.872
304.879
304.885
304.891
304.896
304.9
304.902
304.904
304.904
304.902
304.9
304.896
304.891
304.885
304.879
304.872
304.866
304.861
)
;

boundaryField
{
    hotSide
    {
        type            fixedGradient;
        gradient        nonuniform List<scalar> 
400
(
422.251
424.022
427.567
432.892
440.002
448.906
459.616
472.14
486.492
502.681
520.72
540.618
562.385
586.029
611.558
638.978
668.295
699.512
732.634
767.662
425.35
427.096
430.594
435.848
442.868
451.666
462.255
474.649
488.863
504.91
522.806
542.562
564.19
587.699
613.1
640.398
669.6
700.71
733.731
768.667
428.703
430.421
433.861
439.031
445.945
454.618
465.066
477.308
491.363
507.249
524.982
544.578
566.051
589.412
614.671
641.837
670.915
701.91
734.826
769.664
432.256
433.94
437.313
442.387
449.178
457.707
467.995
480.065
493.941
509.646
527.2
546.621
567.925
591.126
616.235
643.26
672.209
703.085
735.891
770.631
435.909
437.554
440.852
445.818
452.473
460.842
470.953
482.836
496.519
512.029
529.391
548.627
569.756
592.791
617.745
644.627
673.445
704.201
736.899
771.54
439.509
441.113
444.332
449.183
455.693
463.893
473.82
485.507
498.99
514.301
531.469
550.519
571.471
594.342
619.145
645.888
674.578
705.219
737.814
772.362
442.851
444.414
447.553
452.289
458.656
466.691
476.436
487.934
501.224
516.345
533.328
552.203
572.99
595.709
620.371
646.987
675.563
706.1
738.602
773.067
445.688
447.214
450.28
454.914
461.152
469.04
478.625
489.955
503.077
518.032
534.856
553.58
574.228
596.817
621.362
647.872
676.352
706.804
739.229
773.626
447.763
449.261
452.272
456.828
462.969
470.745
480.208
491.413
504.409
519.24
535.947
554.56
575.105
597.6
622.06
648.493
676.904
707.295
739.666
774.015
448.863
450.346
453.327
457.84
463.928
471.643
481.041
492.178
505.106
519.872
536.516
555.07
575.56
598.006
622.421
648.813
677.188
707.547
739.89
774.214
448.863
450.346
453.327
457.84
463.928
471.643
481.041
492.178
505.106
519.872
536.516
555.07
575.56
598.006
622.421
648.813
677.188
707.547
739.89
774.214
447.763
449.261
452.272
456.828
462.969
470.745
480.208
491.413
504.409
519.24
535.947
554.56
575.105
597.6
622.06
648.493
676.904
707.295
739.666
774.015
445.688
447.214
450.28
454.914
461.152
469.04
478.625
489.955
503.077
518.032
534.856
553.58
574.228
596.817
621.362
647.872
676.352
706.804
739.229
773.626
442.851
444.414
447.553
452.289
458.656
466.691
476.436
487.934
501.224
516.345
533.328
552.203
572.99
595.709
620.371
646.987
675.563
706.1
738.602
773.067
439.509
441.113
444.332
449.183
455.693
463.893
473.82
485.507
498.99
514.301
531.469
550.519
571.471
594.342
619.145
645.888
674.578
705.219
737.814
772.362
435.909
437.554
440.852
445.818
452.473
460.842
470.953
482.836
496.519
512.029
529.391
548.627
569.756
592.791
617.745
644.627
673.445
704.201
736.899
771.54
432.256
433.94
437.313
442.387
449.178
457.707
467.995
480.065
493.941
509.646
527.2
546.621
567.925
591.126
616.235
643.26
672.209
703.085
735.891
770.631
428.703
430.421
433.861
439.031
445.945
454.618
465.066
477.308
491.363
507.249
524.982
544.578
566.051
589.412
614.671
641.837
670.915
701.91
734.826
769.664
425.35
427.096
430.594
435.848
442.868
451.666
462.255
474.649
488.863
504.91
522.806
542.562
564.19
587.699
613.1
640.398
669.6
700.71
733.731
768.667
422.251
424.022
427.567
432.892
440.002
448.906
459.616
472.14
486.492
502.681
520.72
540.618
562.385
586.029
611.558
638.978
668.295
699.512
732.634
767.662
)
;
    }
    coldSide
    {
        type            mixed;
        refValue        uniform 300;
        refGradient     uniform 0;
        valueFraction   uniform 0.991591;
        source          uniform 0;
        value           nonuniform List<scalar> 
400
(
300.023
300.024
300.024
300.024
300.024
300.025
300.026
300.026
300.027
300.028
300.029
300.03
300.031
300.033
300.034
300.035
300.037
300.039
300.04
300.041
300.024
300.024
300.024
300.024
300.025
300.025
300.026
300.026
300.027
300.028
300.029
300.03
300.031
300.033
300.034
300.035
300.037
300.039
300.04