/*--------------------------------*- C++ -*----------------------------------*\
| =========                 |                                                 |
| \\      /  F ield         | OpenFOAM: The Open Source CFD Toolbox           |
|  \\    /   O peration     | Version:  2212                                  |
|   \\  /    A nd           | Website:  www.openfoam.com                      |
|    \\/     M anipulation  |                                                 |
\*---------------------------------------------------------------------------*/
FoamFile
{
    version     2.0;
    format      ascii;
    arch        "LSB;label=32;scalar=64";
    class       volScalarField;
    location    "0";
    object      stateMean;
}
// * * * * * * * * * * * * * * * * * * * * * * * * * * * * * * * * * * * * * //

dimensions      [0 0 0 1 0 0 0];

internalField   nonuniform List<scalar> 
3200
(
344.683
345.635
346.836
347.928
348.75
349.578
350.299
350.847
351.129
351.33
351.494
351.401
351.132
350.752
350.171
349.479
348.649
347.682
346.728
345.715
338.802
339.651
340.482
341.456
342.296
342.972
343.534
344.009
344.346
344.514
344.556
344.397
344.243
343.937
343.498
342.798
342.107
341.219
340.386
339.563
332.807
333.509
334.332
335.099
335.757
336.354
336.821
337.2
337.455
337.616
337.648
337.542
337.419
337.119
336.729
336.257
335.585
334.833
334.05
333.462
326.842
327.346
328.096
328.711
329.242
329.708
330.109
330.463
330.602
330.769
330.773
330.729
330.632
330.381
330.003
329.588
329.104
328.473
327.967
327.388
320.91
321.366
321.834
322.338
322.748
323.099
323.512
323.652
323.828
323.943
323.916
323.906
323.807
323.638
323.392
323.038
322.676
322.166
321.613
321.313
314.904
315.295
315.595
315.859
316.208
316.548
316.745
316.96
317.03
317.123
317.152
317.094
317.033
316.878
316.631
316.37
316.139
315.862
315.455
315.21
308.967
309.159
309.319
309.556
309.829
309.91
310.002
310.096
310.247
310.295
310.24
310.286
310.143
310.133
310.024
309.908
309.705
309.518
309.255
309.15
303.021
303.082
303.12
303.319
303.25
303.341
303.315
303.341
303.433
303.458
303.488
303.51
303.418
303.392
303.375
303.349
303.274
303.212
303.146
303.054
345.588
346.644
347.813
348.95
349.825
350.638
351.341
351.862
352.208
352.457
352.605
352.516
352.205
351.767
351.306
350.547
349.658
348.707
347.627
346.661
339.45
340.353
341.37
342.304
343.117
343.826
344.388
344.867
345.192
345.371
345.446
345.333
345.092
344.839
344.312
343.734
342.891
342.126
341.178
340.372
333.447
334.06
334.925
335.803
336.468
337.001
337.56
337.886
338.128
338.282
338.343
338.388
338.033
337.813
337.368
336.887
336.306
335.523
334.785
334.079
327.299
327.929
328.564
329.277
329.796
330.309
330.669
330.965
331.204
331.283
331.344
331.337
331.13
330.936
330.592
330.145
329.638
329.074
328.34
327.861
321.198
321.767
322.137
322.705
323.199
323.536
323.898
324.127
324.243
324.328
324.381
324.289
324.166
324.003
323.814
323.434
322.981
322.541
322.068
321.742
315.197
315.474
315.89
316.305
316.506
316.796
317.033
317.19
317.236
317.465
317.397
317.428
317.244
317.197
316.911
316.699
316.429
316.101
315.817
315.479
309.106
309.329
309.482
309.716
309.969
310.045
310.316
310.369
310.374
310.395
310.452
310.383
310.355
310.294
310.179
310.016
309.885
309.7
309.439
309.287
303.055
303.124
303.24
303.255
303.302
303.362
303.426
303.465
303.468
303.473
303.541
303.489
303.519
303.468
303.364
303.393
303.262
303.217
303.166
303.139
346.879
347.941
349.107
350.223
351.245
352.094
352.704
353.26
353.729
353.913
353.951
353.863
353.596
353.167
352.565
351.901
350.983
349.988
348.868
347.859
340.464
341.415
342.494
343.456
344.303
345.069
345.534
346.075
346.409
346.613
346.693
346.582
346.327
345.952
345.511
344.853
344.099
343.19
342.263
341.396
334.299
335.003
335.87
336.68
337.402
338
338.526
338.949
339.211
339.337
339.428
339.332
339.117
338.752
338.391
337.827
337.219
336.485
335.683
334.959
328.107
328.636
329.305
329.939
330.592
331.033
331.457
331.801
332.059
332.089
332.176
332.108
331.966
331.709
331.4
330.954
330.346
329.799
329.099
328.531
321.869
322.256
322.771
323.328
323.682
324.095
324.49
324.687
324.854
324.989
324.955
324.918
324.815
324.667
324.349
324.002
323.635
323.119
322.586
322.186
315.511
315.879
316.261
316.645
317.037
317.225
317.499
317.693
317.733
317.787
317.817
317.743
317.746
317.619
317.427
317.124
316.788
316.49
316.11
315.862
309.397
309.514
309.717
309.994
310.151
310.403
310.471
310.583
310.617
310.71
310.749
310.712
310.587
310.537
310.315
310.281
310.114
309.872
309.745
309.535
303.163
303.226
303.273
303.375
303.402
303.475
303.513
303.527
303.623
303.534
303.581
303.635
303.536
303.45
303.517
303.485
303.32
303.322
303.299
303.243
348.179
349.221
350.557
351.665
352.694
353.562
354.253
354.807
355.238
355.449
355.463
355.381
355.162
354.724
354.115
353.337
352.492
351.458
350.247
349.258
341.71
342.641
343.593
344.568
345.554
346.295
346.928
347.36
347.666
347.886
347.971
347.86
347.657
347.251
346.734
346.021
345.332
344.376
343.372
342.552
335.188
335.957
336.885
337.629
338.431
339.076
339.519
339.975
340.266
340.429
340.479
340.414
340.226
339.867
339.436
338.844
338.217
337.387
336.595
335.943
328.81
329.429
330.122
330.771
331.376
331.927
332.325
332.646
332.919
333.013
332.997
333.045
332.834
332.559
332.279
331.774
331.19
330.637
329.896
329.339
322.443
322.87
323.441
323.981
324.421
324.865
325.185
325.357
325.556
325.667
325.645
325.668
325.474
325.316
325.053
324.643
324.228
323.786
323.275
322.8
315.98
316.308
316.698
317.077
317.395
317.752
317.921
318.086
318.252
318.327
318.34
318.342
318.211
318.091
317.89
317.632
317.362
317.035
316.523
316.274
309.596
309.818
310.056
310.276
310.458
310.695
310.761
310.847
310.961
311.04
311.022
310.943
310.942
310.859
310.702
310.554
310.38
310.146
309.943
309.724
303.205
303.338
303.364
303.499
303.527
303.568
303.575
303.606
303.69
303.729
303.662
303.683
303.652
303.571
303.533
303.512
303.496
303.373
303.319
303.28
349.477
350.644
351.912
353.028
354.053
354.911
355.763
356.356
356.753
356.918
356.971
356.948
356.726
356.181
355.595
354.78
353.882
352.731
351.608
350.563
342.886
343.762
344.866
345.825
346.71
347.527
348.177
348.638
348.966
349.226
349.265
349.195
348.932
348.561
347.993
347.36
346.468
345.53
344.663
343.74
336.243
337.027
337.86
338.707
339.522
340.108
340.649
341.085
341.375
341.537
341.607
341.534
341.281
340.962
340.464
339.899
339.247
338.481
337.675
336.847
329.63
330.222
330.887
331.68
332.317
332.907
333.219
333.543
333.826
333.961
333.91
333.857
333.753
333.439
333.035
332.64
332.082
331.391
330.785
330.108
323.075
323.509
324.058
324.586
325.068
325.482
325.787
326.061
326.269
326.351
326.371
326.34
326.179
325.949
325.681
325.334
324.886
324.394
323.782
323.372
316.448
316.788
317.201
317.574
317.946
318.186
318.346
318.692
318.704
318.759
318.805
318.865
318.688
318.511
318.285
318.058
317.762
317.388
317.084
316.718
309.902
310.092
310.243
310.533
310.777
310.858
311.064
311.17
311.154
311.287
311.333
311.306
311.263
311.181
310.992
310.859
310.638
310.459
310.204
309.945
303.316
303.398
303.433
303.494
303.657
303.64
303.693
303.817
303.792
303.796
303.795
303.815
303.766
303.727
303.702
303.639
303.616
303.476
303.402
303.397
350.807
351.871
353.246
354.419
355.519
356.425
357.191
357.747
358.209
358.414
358.538
358.408
358.204
357.627
356.948
356.225
355.26
354.116
352.907
351.883
344.03
344.981
346.034
347.066
347.977
348.799
349.378
349.915
350.231
350.449
350.504
350.467
350.163
349.777
349.187
348.544
347.757
346.798
345.714
344.866
337.186
337.964
338.866
339.778
340.527
341.205
341.719
342.165
342.452
342.611
342.643
342.61
342.35
342.056
341.58
341.005
340.229
339.482
338.599
337.854
330.364
331.003
331.756
332.42
333.135
333.62
334.107
334.47
334.61
334.778
334.865
334.711
334.554
334.35
333.9
333.553
332.88
332.238
331.554
330.887
323.596
324.114
324.685
325.23
325.71
326.128
326.429
326.733
326.895
326.97
327.012
326.981
326.889
326.712
326.33
325.904
325.524
325.017
324.481
323.999
316.89
317.233
317.642
317.977
318.326
318.684
318.886
319.1
319.261
319.348
319.381
319.251
319.168
318.996
318.827
318.572
318.27
317.868
317.506
317.164
310.142
310.277
310.55
310.811
311.085
311.166
311.333
311.424
311.497
311.582
311.595
311.58
311.551
311.481
311.318
311.16
310.959
310.724
310.509
310.304
303.408
303.429
303.537
303.679
303.685
303.692
303.795
303.826
303.874
303.901
303.845
303.907
303.889
303.883
303.814
303.778
303.628
303.563
303.544
303.478
351.986
353.167
354.488
355.79
356.932
357.766
358.614
359.172
359.637
359.863
359.979
359.847
359.575
359.071
358.351
357.584
356.552
355.392
354.168
353.025
345.077
346.049
347.171
348.172
349.179
349.961
350.611
351.182
351.542
351.688
351.734
351.647
351.468
351.008
350.448
349.676
348.92
347.927
346.798
345.898
338.093
338.754
339.855
340.726
341.551
342.147
342.685
343.215
343.439
343.635
343.687
343.597
343.419
343.005
342.52
341.959
341.289
340.454
339.498
338.74
331.126
331.754
332.464
333.302
333.962
334.473
334.877
335.28
335.534
335.686
335.677
335.574
335.433
335.188
334.774
334.222
333.686
332.989
332.336
331.674
324.166
324.718
325.292
325.813
326.306
326.793
327.122
327.337
327.568
327.731
327.734
327.666
327.505
327.399
326.964
326.584
326.181
325.64
325.042
324.585
317.282
317.581
318.04
318.357
318.832
319.115
319.386
319.563
319.722
319.732
319.78
319.751
319.681
319.466
319.224
319.051
318.675
318.23
317.886
317.566
310.332
310.585
310.831
311.059
311.296
311.458
311.613
311.73
311.774
311.849
311.886
311.886
311.793
311.705
311.532
311.415
311.212
311.005
310.752
310.56
303.489
303.573
303.633
303.746
303.868
303.847
303.895
303.956
304.017
303.979
304.008
303.946
303.945
303.932
303.856
303.827
303.729
303.679
303.566
303.437
353.221
354.446
355.77
356.994
358.216
359.165
359.936
360.625
360.954
361.225
361.282
361.186
360.85
360.38
359.699
358.889
357.803
356.735
355.418
354.294
346.124
346.997
348.21
349.245
350.307
351.062
351.718
352.342
352.658
352.877
352.869
352.836
352.518
352.164
351.514
350.776
349.934
348.994
347.858
346.835
338.886
339.785
340.662
341.621
342.413
343.152
343.71
344.161
344.459
344.659
344.669
344.668
344.387
343.99
343.456
342.865
342.074
341.257
340.374
339.529
331.798
332.516
333.292
334.004
334.713
335.279
335.669
336.052
336.372
336.421
336.502
336.447
336.189
335.918
335.513
334.995
334.501
333.696
332.981
332.356
324.646
325.182
325.877
326.432
327.01
327.398
327.827
328.007
328.181
328.268
328.303
328.328
328.19
327.89
327.508
327.289
326.698
326.193
325.651
325.1
317.624
318.136
318.499
318.869
319.217
319.505
319.711
319.974
320.188
320.201
320.278
320.269
320.063
319.9
319.675
319.414
319.119
318.622
318.296
317.92
310.61
310.799
311.011
311.361
311.578
311.677
311.871
311.972
312.047
312.191
312.186
312.142
312.056
311.966
311.868
311.63
311.438
311.214
311.029
310.814
303.562
303.588
303.694
303.751
303.826
303.941
303.922
304.054
303.94
304.113
304.032
304.149
304.037
304.069
303.981
303.922
303.814
303.764
303.633
303.65
354.312
355.558
356.878
358.288
359.368
360.345
361.151
361.806
362.307
362.511
362.598
362.468
362.128
361.622
360.971
360.023
359.068
357.832
356.523
355.369
346.968
348.07
349.168
350.302
351.313
352.159
352.866
353.424
353.738
353.948
354.087
353.941
353.609
353.266
352.536
351.848
350.934
349.98
348.874
347.906
339.68
340.647
341.579
342.526
343.334
344.06
344.587
345.029
345.427
345.545
345.634
345.512
345.28
344.919
344.39
343.802
343.009
342.171
341.255
340.364
332.456
333.195
333.941
334.639
335.403
335.998
336.473
336.841
337.028
337.208
337.219
337.191
336.953
336.601
336.287
335.736
335.126
334.362
333.652
332.976
325.22
325.72
326.318
326.91
327.489
327.994
328.346
328.596
328.732
328.82
328.913
328.864
328.742
328.496
328.196
327.708
327.279
326.704
326.183
325.627
318.053
318.342
318.872
319.276
319.657
319.968
320.227
320.357
320.538
320.632
320.648
320.513
320.481
320.284
320.072
319.765
319.462
319.093
318.57
318.315
310.861
311.054
311.26
311.555
311.893
311.958
312.114
312.286
312.342
312.33
312.357
312.368
312.294
312.187
312.085
311.895
311.673
311.422
311.227
310.976
303.596
303.664
303.796
303.859
303.958
303.994
303.983
304.072
304.154
304.091
304.14
304.069
304.123
304.148
304.073
303.992
303.93
303.844
303.723
303.663
355.348
356.577
358.035
359.336
360.52
361.509
362.337
362.996
363.364
363.624
363.715
363.632
363.316
362.787
362.101
361.168
360.122
358.947
357.637
356.388
347.868
349.008
350.154
351.31
352.35
353.177
353.896
354.424
354.869
355.062
355.093
354.964
354.648
354.212
353.645
352.834
351.944
350.885
349.747
348.761
340.542
341.316
342.376
343.305
344.179
344.906
345.485
345.897
346.289
346.424
346.439
346.369
346.143
345.745
345.267
344.647
343.777
342.951
341.998
341.15
333.126
333.818
334.607
335.369
336.092
336.689
337.08
337.534
337.757
337.905
337.943
337.868
337.725
337.302
336.898
336.387
335.747
335.059
334.238
333.644
325.746
326.302
326.884
327.509
328.048
328.442
328.827
329.089
329.367
329.405
329.456
329.397
329.257
328.954
328.664
328.327
327.808
327.193
326.6
326.143
318.432
318.819
319.254
319.59
319.911
320.328
320.556
320.776
320.957
321.011
321.035
320.998
320.879
320.698
320.505
320.152
319.838
319.331
318.978
318.588
311.063
311.286
311.518
311.791
312.045
312.25
312.414
312.473
312.562
312.648
312.644
312.642
312.549
312.393
312.321
312.081
311.851
311.632
311.37
311.215
303.682
303.74
303.864
303.904
304.002
304.085
304.141
304.186
304.203
304.176
304.232
304.21
304.204
304.171
304.169
304.023
304.025
303.925
303.855
303.81
356.316
357.583
359.041
360.374
361.529
362.516
363.384
364.04
364.519
364.769
364.811
364.741
364.372
363.812
363.115
362.284
361.156
359.913
358.606
357.325
348.753
349.84
350.967
352.185
353.187
354.09
354.761
355.319
355.705
355.969
355.999
355.964
355.496
355.148
354.473
353.7
352.847
351.699
350.567
349.575
341.198
342.07
343.091
344.019
344.938
345.722
346.227
346.796
347.07
347.153
347.288
347.149
346.912
346.489
345.956
345.293
344.536
343.58
342.723
341.832
333.678
334.377
335.177
335.969
336.699
337.25
337.772
338.151
338.373
338.51
338.659
338.488
338.313
338.021
337.519
337.013
336.332
335.659
334.872
334.211
326.197
326.696
327.331
327.954
328.507
328.964
329.391
329.529
329.873
329.929
329.951
329.893
329.803
329.538
329.126
328.762
328.275
327.671
327.037
326.589
318.697
319.099
319.544
319.974
320.379
320.785
320.992
321.212
321.265
321.376
321.412
321.291
321.223
321.047
320.83
320.535
320.189
319.687
319.356
318.967
311.21
311.457
311.71
311.961
312.236
312.351
312.61
312.662
312.741
312.774
312.911
312.804
312.815
312.626
312.464
312.328
312.163
311.834
311.549
311.336
303.808
303.885
303.861
303.976
304.111
304.196
304.23
304.206
304.278
304.281
304.305
304.294
304.212
304.229
304.196
304.078
304.04
303.971
303.911
303.817
357.12
358.486
359.914
361.3
362.544
363.481
364.376
365.011
365.485
365.766
365.815
365.693
365.347
364.803
364.084
363.132
362.102
360.805
359.443
358.179
349.39
350.52
351.769
352.998
354.058
354.88
355.637
356.157
356.517
356.798
356.86
356.674
356.424
356.002
355.311
354.489
353.588
352.494
351.369
350.294
341.797
342.668
343.719
344.745
345.56
346.441
346.951
347.436
347.721
347.846
347.923
347.971
347.607
347.241
346.769
346.023
345.195
344.312
343.313
342.413
334.177
334.863
335.733
336.552
337.2
337.822
338.332
338.756
338.988
339.135
339.2
339.09
338.851
338.523
338.063
337.559
336.883
336.184
335.413
334.664
326.574
327.085
327.677
328.45
328.953
329.381
329.765
330.048
330.239
330.372
330.422
330.35
330.21
329.973
329.634
329.124
328.722
328.045
327.481
326.943
319.038
319.42
319.807
320.414
320.69
321.036
321.217
321.556
321.683
321.76
321.822
321.616
321.543
321.336
321.117
320.792
320.427
320.073
319.626
319.176
311.422
311.622
311.91
312.133
312.374
312.602
312.781
312.931
312.96
312.975
313.055
313.067
312.996
312.866
312.725
312.46
312.288
312.05
311.83
311.515
303.83
303.875
303.973
304.097
304.219
304.176
304.275
304.301
304.321
304.337
304.372
304.378
304.322
304.3
304.199
304.182
304.128
304.02
303.946
303.848
357.963
359.261
360.749
362.087
363.366
364.431
365.133
365.927
366.262
366.669
366.736
366.533
366.273
365.699
364.882
363.952
362.848
361.602
360.272
359.004
350.142
351.272
352.49
353.663
354.756
355.62
356.437
356.892
357.356
357.526
357.673
357.455
357.208
356.712
356.006
355.213
354.291
353.179
351.992
350.807
342.402
343.243
344.323
345.336
346.178
346.945
347.561
347.924
348.351
348.56
348.645
348.493
348.201
347.849
347.322
346.627
345.824
344.821
343.872
343.062
334.648
335.37
336.189
336.977
337.786
338.364
338.884
339.246
339.594
339.671
339.706
339.55
339.403
339.115
338.67
338.142
337.342
336.586
335.867
335.1
326.925
327.561
328.133
328.769
329.357
329.759
330.161
330.471
330.708
330.836
330.814
330.79
330.559
330.367
329.968
329.466
329.025
328.48
327.76
327.312
319.216
319.587
320.094
320.54
320.92
321.256
321.545
321.853
321.936
322.002
322.032
321.975
321.857
321.67
321.427
321.095
320.764
320.309
319.896
319.406
311.565
311.786
312.089
312.353
312.597
312.797
312.965
313.007
313.142
313.158
313.216
313.146
313.133
313.012
312.877
312.675
312.445
312.095
311.927
311.705
303.847
304
303.97
304.132
304.209
304.332
304.301
304.311
304.416
304.484
304.483
304.374
304.374
304.346
304.328
304.291
304.215
303.999
303.975
303.964
358.548
359.93
361.447
362.844
364.023
365.083
365.921
366.67
367.15
367.398
367.457
367.313
367.021
366.395
365.635
364.681
363.578
362.233
360.847
359.625
350.632
351.833
353.068
354.328
355.4
356.239
357.03
357.586
357.994
358.209
358.322
358.142
357.837
357.365
356.686
355.861
354.837
353.814
352.597
351.457
342.859
343.783
344.873
345.845
346.715
347.565
348.142
348.634
348.934
349.106
349.187
349.06
348.779
348.509
347.83
347.215
346.418
345.405
344.415
343.422
335.014
335.696
336.611
337.405
338.191
338.844
339.293
339.67
339.998
340.154
340.181
340.068
339.838
339.52
339.037
338.453
337.762
336.996
336.289
335.511
327.219
327.817
328.445
329.173
329.594
330.05
330.462
330.85
331.105
331.155
331.179
331.101
330.974
330.646
330.29
329.863
329.331
328.718
328.111
327.558
319.501
319.823
320.322
320.816
321.142
321.513
321.81
322.01
322.183
322.267
322.173
322.287
322.19
321.881
321.602
321.339
320.983
320.506
320.143
319.665
311.711
311.94
312.198
312.404
312.658
312.946
313.089
313.187
313.295
313.376
313.408
313.332
313.23
313.111
313.046
312.812
312.609
312.317
312.092
311.846
303.931
303.973
304.102
304.198
304.29
304.365
304.402
304.417
304.462
304.436
304.456
304.468
304.436
304.367
304.347
304.273
304.227
304.127
304.007
303.935
359.168
360.564
362
363.419
364.746
365.724
366.608
367.245
367.806
368.043
368.127
367.982
367.53
367.067
366.329
365.364
364.153
362.87
361.418
360.097
351.269
352.313
353.619
354.785
355.85
356.775
357.591
358.188
358.592
358.724
358.843
358.736
358.397
357.927
357.179
356.386
355.425
354.236
353.093
352.002
343.253
344.149
345.308
346.322
347.172
347.946
348.603
349.051
349.418
349.631
349.64
349.501
349.283
348.798
348.24
347.66
346.722
345.893
344.785
343.92
335.393
336.109
336.898
337.818
338.52
339.194
339.685
339.95
340.297
340.509
340.596
340.45
340.234
339.895
339.489
338.906
338.099
337.429
336.612
335.868
327.435
328.079
328.745
329.406
330.019
330.442
330.802
331.164
331.385
331.476
331.479
331.397
331.21
330.938
330.636
330.15
329.644
329.029
328.331
327.808
319.646
320.061
320.541
321.041
321.35
321.718
322.052
322.22
322.366
322.522
322.551
322.453
322.26
322.144
321.846
321.497
321.206
320.741
320.342
319.901
311.772
312.044
312.313
312.612
312.915
312.991
313.204
313.339
313.444
313.473
313.522
313.444
313.411
313.299
313.135
312.86
312.746
312.434
312.173
311.891
303.965
304.031
304.097
304.187
304.308
304.382
304.468
304.475
304.487
304.563
304.504
304.565
304.459
304.487
304.397
304.371
304.236
304.129
304.117
304.023
359.61
360.955
362.46
363.987
365.19
366.249
367.132
367.827
368.3
368.568
368.624
368.534
368.077
367.525
366.775
365.799
364.672
363.28
361.916
360.648
351.575
352.693
354.025
355.241
356.417
357.236
358.025
358.56
359.037
359.261
359.277
359.145
358.826
358.316
357.645
356.862
355.879
354.659
353.481
352.417
343.542
344.496
345.587
346.624
347.66
348.332
349.022
349.461
349.827
349.98
350.021
349.917
349.691
349.142
348.7
347.967
347.193
346.14
345.159
344.222
335.648
336.369
337.31
338.158
338.912
339.501
339.98
340.366
340.675
340.867
340.855
340.733
340.554
340.202
339.713
339.162
338.531
337.67
336.818
336.132
327.666
328.239
328.94
329.575
330.225
330.66
331.081
331.407
331.609
331.751
331.756
331.621
331.477
331.228
330.809
330.434
329.855
329.224
328.539
328.013
319.783
320.227
320.627
321.066
321.549
321.878
322.189
322.452
322.589
322.658
322.617
322.626
322.475
322.249
321.97
321.65
321.311
320.917
320.396
320.034
311.932
312.104
312.456
312.702
312.97
313.165
313.296
313.443
313.552
313.54
313.507
313.598
313.503
313.365
313.151
313.068
312.793
312.551
312.254
311.963
303.991
304.071
304.164
304.203
304.31
304.395
304.484
304.496
304.537
304.537
304.549
304.553
304.512
304.467
304.416
304.382
304.287
304.16
304.144
304.029
359.979
361.402
362.911
364.282
365.605
366.716
367.553
368.311
368.751
369
369.008
368.938
368.547
367.945
367.162
366.305
365.046
363.685
362.219
360.936
351.886
353.018
354.369
355.672
356.732
357.62
358.408
358.992
359.213
359.636
359.588
359.493
359.188
358.728
358.032
357.21
356.181
354.967
353.74
352.687
343.835
344.787
345.847
346.94
347.869
348.65
349.314
349.741
350.125
350.256
350.343
350.199
350.007
349.565
349
348.303
347.336
346.33
345.288
344.505
335.902
336.598
337.468
338.353
339.11
339.733
340.256
340.665
340.887
341.091
341.068
341.069
340.761
340.488
339.979
339.399
338.713
337.835
337.033
336.29
327.844
328.43
329.148
329.825
330.331
330.847
331.264
331.559
331.83
331.951
331.963
331.917
331.673
331.393
330.97
330.593
330.003
329.472
328.762
328.198
319.975
320.312
320.822
321.194
321.629
322.037
322.33
322.603
322.673
322.752
322.786
322.767
322.578
322.411
322.21
321.805
321.47
321.028
320.553
320.112
311.995
312.223
312.526
312.781
312.98
313.143
313.426
313.547
313.638
313.723
313.706
313.656
313.58
313.485
313.273
313.111
312.884
312.672
312.364
312.036
304.024
304.12
304.211
304.259
304.404
304.459
304.45
304.457
304.561
304.593
304.598
304.641
304.473
304.52
304.473
304.47
304.309
304.289
304.095
304.104
360.262
361.543
363.131
364.553
365.865
366.931
367.907
368.516
369.015
369.357
369.312
369.176
368.824
368.235
367.528
366.562
365.25
363.897
362.52
361.113
352.115
353.267
354.593
355.765
356.904
357.829
358.584
359.219
359.595
359.916
359.908
359.777
359.421
358.997
358.302
357.369
356.441
355.211
354.017
352.931
344.02
344.989
346.109
347.11
348.1
348.835
349.493
349.936
350.258
350.51
350.587
350.488
350.093
349.747
349.24
348.444
347.644
346.598
345.537
344.673
336
336.739
337.667
338.455
339.229
339.881
340.445
340.832
341.087
341.234
341.285
341.185
341.064
340.597
340.175
339.491
338.9
338.046
337.177
336.47
327.997
328.595
329.263
329.931
330.513
330.971
331.318
331.734
331.975
332.047
332.024
332.01
331.876
331.577
331.135
330.715
330.184
329.503
328.87
328.332
319.939
320.452
320.848
321.381
321.797
322.058
322.371
322.733
322.744
322.901
322.817
322.922
322.742
322.504
322.301
321.916
321.508
321.175
320.591
320.223
312.013
312.21
312.563
312.865
313.014
313.356
313.438
313.618
313.69
313.735
313.704
313.71
313.613
313.524
313.326
313.193
312.872
312.63
312.398
312.1
304.029
304.119
304.18
304.319
304.397
304.495
304.523
304.537
304.574
304.559
304.659
304.591
304.543
304.564
304.458
304.422
304.338
304.229
304.137
304.087
360.377
361.782
363.341
364.751
365.984
367.139
368.039
368.671
369.247
369.479
369.543
369.392
368.999
368.341
367.679
366.647
365.419
364.09
362.65
361.299
352.263
353.418
354.76
355.98
357.089
357.977
358.816
359.419
359.77
360.001
360.026
359.828
359.619
359.113
358.407
357.551
356.582
355.362
354.12
353.01
344.185
345.153
346.208
347.23
348.169
348.978
349.628
350.08
350.466
350.697
350.722
350.61
350.283
349.864
349.349
348.609
347.679
346.722
345.638
344.751
336.114
336.878
337.781
338.568
339.321
340.034
340.464
340.995
341.216
341.427
341.349
341.321
341.105
340.747
340.27
339.674
338.956
338.073
337.323
336.571
328.108
328.651
329.342
330.006
330.571
331.048
331.45
331.856
331.964
332.187
332.169
332.037
331.878
331.6
331.248
330.81
330.187
329.648
328.901
328.409
320.067
320.465
320.969
321.35
321.823
322.115
322.446
322.721
322.837
322.906
323
322.814
322.752
322.577
322.271
322.015
321.566
321.179
320.665
320.276
312.014
312.31
312.55
312.854
313.097
313.306
313.472
313.64
313.708
313.809
313.864
313.718
313.627
313.563
313.4
313.195
312.967
312.65
312.451
312.164
304.057
304.091
304.236
304.3
304.395
304.412
304.485
304.562
304.651
304.578
304.617
304.56
304.554
304.504
304.474
304.449
304.357
304.316
304.12
304.112
360.445
361.9
363.425
364.833
366.118
367.189
368.081
368.775
369.268
369.552
369.608
369.492
369.071
368.484
367.673
366.689
365.561
364.134
362.72
361.336
352.342
353.447
354.812
356.089
357.109
358.035
358.888
359.44
359.873
360.127
360.144
360.032
359.624
359.156
358.528
357.624
356.545
355.419
354.187
353.004
344.181
345.196
346.306
347.312
348.224
349.04
349.667
350.104
350.542
350.747
350.733
350.636
350.371
349.911
349.301
348.598
347.746
346.796
345.689
344.775
336.169
336.933
337.848
338.597
339.44
340.011
340.609
340.923
341.285
341.425
341.494
341.281
341.094
340.784
340.324
339.685
338.997
338.192
337.273
336.632
328.091
328.677
329.35
330.045
330.643
331.136
331.512
331.807
332.064
332.124
332.15
332.109
331.911
331.627
331.312
330.781
330.309
329.626
328.98
328.433
320.057
320.546
320.961
321.429
321.898
322.263
322.51
322.736
322.87
322.981
322.993
322.927
322.783
322.593
322.344
322.029
321.66
321.102
320.763
320.305
312.071
312.315
312.624
312.763
313.162
313.428
313.568
313.734
313.717
313.756
313.768
313.729
313.722
313.505
313.439
313.217
312.978
312.696
312.453
312.186
304.042
304.124
304.213
304.353
304.42
304.428
304.462
304.534
304.559
304.595
304.666
304.627
304.584
304.531
304.499
304.43
304.274
304.234
304.132
304.05
)
;

boundaryField
{
    hotSide
    {
        type            fixedGradient;
        gradient        nonuniform List<scalar> 
400
(
321.511
322.87
325.591
329.677
335.133
341.965
350.181
359.788
370.794
383.208
397.037
412.289
428.971
447.088
466.647
487.651
510.105
534.011
559.372
586.191
323.738
325.08
327.767
331.802
337.194
343.949
352.078
361.591
372.498
384.81
398.537
413.687
430.268
448.289
467.755
488.672
511.043
534.872
560.161
586.913
326.149
327.47
330.116
334.091
339.406
346.071
354.099
363.503
374.296
386.491
400.101
415.136
431.606
449.52
468.885
489.706
511.988
535.735
560.948
587.63
328.704
330
332.597
336.503
341.73
348.292
356.205
365.485
376.15
388.215
401.695
416.604
432.954
450.753
470.009
490.73
512.919
536.579
561.714
588.325
331.33
332.599
335.142
338.97
344.099
350.546
358.332
367.477
378.003
389.928
403.271
418.047
434.27
451.949
471.095
491.712
513.807
537.382
562.439
588.978
333.918
335.158
337.643
341.389
346.414
352.74
360.392
369.397
379.779
391.562
404.765
419.407
435.503
453.065
472.101
492.618
514.622
538.114
563.096
589.569
336.321
337.531
339.959
343.622
348.544
354.751
362.274
371.142
381.385
393.031
406.101
420.618
436.595
454.047
472.983
493.409
515.33
538.747
563.663
590.076
338.36
339.543
341.92
345.509
350.339
356.44
363.847
372.595
382.718
394.244
407.2
421.608
437.485
454.844
473.695
494.045
515.897
539.253
564.114
590.478
339.852
341.015
343.352
346.885
351.645
357.665
364.985
373.643
383.675
395.113
407.984
422.312
438.116
455.407
474.197
494.491
516.294
539.606
564.428
590.758
340.643
341.795
344.11
347.613
352.334
358.311
365.584
374.193
384.176
395.567
408.393
422.679
438.443
455.699
474.456
494.722
516.498
539.788
564.589
590.901
340.643
341.795
344.11
347.613
352.334
358.311
365.584
374.193
384.176
395.567
408.393
422.679
438.443
455.699
474.456
494.722
516.498
539.788
564.589
590.901
339.852
341.015
343.352
346.885
351.645
357.665
364.985
373.643
383.675
395.113
407.984
422.312
438.116
455.407
474.197
494.491
516.294
539.606
564.428
590.758
338.36
339.543
341.92
345.509
350.339
356.44
363.847
372.595
382.718
394.244
407.2
421.608
437.485
454.844
473.695
494.045
515.897
539.253
564.114
590.478
336.321
337.531
339.959
343.622
348.544
354.751
362.274
371.142
381.385
393.031
406.101
420.618
436.595
454.047
472.983
493.409
515.33
538.747
563.663
590.076
333.918
335.158
337.643
341.389
346.414
352.74
360.392
369.397
379.779
391.562
404.765
419.407
435.503
453.065
472.101
492.618
514.622
538.114
563.096
589.569
331.33
332.599
335.142
338.97
344.099
350.546
358.332
367.477
378.003
389.928
403.271
418.047
434.27
451.949
471.095
491.712
513.807
537.382
562.439
588.978
328.704
330
332.597
336.503
341.73
348.292
356.205
365.485
376.15
388.215
401.695
416.604
432.954
450.753
470.009
490.73
512.919
536.579
561.714
588.325
326.149
327.47
330.116
334.091
339.406
346.071
354.099
363.503
374.296
386.491
400.101
415.136
431.606
449.52
468.885
489.706
511.988
535.735
560.948
587.63
323.738
325.08
327.767
331.802
337.194
343.949
352.078
361.591
372.498
384.81
398.537
413.687
430.268
448.289
467.755
488.672
511.043
534.872
560.161
586.913
321.511
322.87
325.591
329.677
335.133
341.965
350.181
359.788
370.794
383.208
397.037
412.289
428.971
447.088
466.647
487.651
510.105
534.011
559.372
586.191
)
;
    }
    coldSide
    {
        type            mixed;
        refValue        uniform 300;
        refGradient     uniform 0;
        valueFraction   uniform 0.991591;
        source          uniform 0;
        value           nonuniform List<scalar> 
400
(
300.025
300.026
300.027
300.027
300.028
300.029
300.029
300.03
300.03
300.031
300.032
300.032
300.032
300.033
300.033
300.034
300.034
300.034
300.034
300.034
300.026
300.026
300.027
300.028
300.029
300.029
300.03
300.03
300.031
300.031
300.033
300.033
300.034
300.033
300.034
300.034
300.035
300.035
300.034
300.035
300.026