/*--------------------------------*- C++ -*----------------------------------*\
| =========                 |                                                 |
| \\      /  F ield         | OpenFOAM: The Open Source CFD Toolbox           |
|  \\    /   O peration     | Version:  2212                                  |
|   \\  /    A nd           | Website:  www.openfoam.com                      |
|    \\/     M anipulation  |                                                 |
\*---------------------------------------------------------------------------*/
FoamFile
{
    version     2.0;
    format      ascii;
    arch        "LSB;label=32;scalar=64";
    class       volScalarField;
    location    "0";
    object      Ttrue;
}
// * * * * * * * * * * * * * * * * * * * * * * * * * * * * * * * * * * * * * //

dimensions      [0 0 0 1 0 0 0];

internalField   nonuniform List<scalar> 
3200
(
322.078
322.409
322.831
323.292
323.766
324.231
324.661
325.024
325.288
325.427
325.427
325.288
325.024
324.661
324.231
323.766
323.292
322.831
322.409
322.078
319.079
319.359
319.724
320.122
320.532
320.935
321.306
321.619
321.848
321.968
321.968
321.848
321.619
321.306
320.935
320.532
320.122
319.724
319.359
319.079
316.105
316.337
316.644
316.981
317.327
317.668
317.981
318.246
318.438
318.54
318.54
318.438
318.246
317.981
317.668
317.327
316.981
316.644
316.337
316.105
313.151
313.338
313.588
313.863
314.147
314.425
314.681
314.897
315.054
315.137
315.137
315.054
314.897
314.681
314.425
314.147
313.863
313.588
313.338
313.151
310.214
310.358
310.552
310.766
310.986
311.202
311.401
311.569
311.691
311.755
311.755
311.691
311.569
311.401
311.202
310.986
310.766
310.552
310.358
310.214
307.29
307.392
307.53
307.683
307.84
307.994
308.136
308.256
308.343
308.389
308.389
308.343
308.256
308.136
307.994
307.84
307.683
307.53
307.392
307.29
304.375
304.436
304.519
304.611
304.705
304.798
304.883
304.955
305.007
305.035
305.035
305.007
304.955
304.883
304.798
304.705
304.611
304.519
304.436
304.375
301.466
301.486
301.514
301.545
301.576
301.608
301.636
301.66
301.678
301.687
301.687
301.678
301.66
301.636
301.608
301.576
301.545
301.514
301.486
301.466
322.149
322.477
322.896
323.352
323.821
324.281
324.706
325.064
325.325
325.463
325.463
325.325
325.064
324.706
324.281
323.821
323.352
322.896
322.477
322.149
319.14
319.418
319.779
320.173
320.58
320.978
321.345
321.654
321.88
321.998
321.998
321.88
321.654
321.345
320.978
320.58
320.173
319.779
319.418
319.14
316.156
316.386
316.691
317.024
317.367
317.704
318.014
318.275
318.465
318.565
318.565
318.465
318.275
318.014
317.704
317.367
317.024
316.691
316.386
316.156
313.193
313.378
313.626
313.899
314.179
314.454
314.707
314.921
315.076
315.158
315.158
315.076
314.921
314.707
314.454
314.179
313.899
313.626
313.378
313.193
310.246
310.389
310.581
310.793
311.011
311.225
311.421
311.587
311.708
311.771
311.771
311.708
311.587
311.421
311.225
311.011
310.793
310.581
310.389
310.246
307.313
307.414
307.551
307.702
307.858
308.011
308.151
308.269
308.355
308.401
308.401
308.355
308.269
308.151
308.011
307.858
307.702
307.551
307.414
307.313
304.389
304.449
304.532
304.622
304.716
304.807
304.892
304.963
305.014
305.041
305.041
305.014
304.963
304.892
304.807
304.716
304.622
304.532
304.449
304.389
301.471
301.491
301.518
301.549
301.58
301.611
301.639
301.663
301.68
301.689
301.689
301.68
301.663
301.639
301.611
301.58
301.549
301.518
301.491
301.471
322.29
322.613
323.025
323.472
323.932
324.383
324.797
325.147
325.401
325.535
325.535
325.401
325.147
324.797
324.383
323.932
323.472
323.025
322.613
322.29
319.262
319.535
319.89
320.277
320.675
321.065
321.424
321.726
321.945
322.061
322.061
321.945
321.726
321.424
321.065
320.675
320.277
319.89
319.535
319.262
316.258
316.485
316.784
317.112
317.448
317.777
318.08
318.335
318.52
318.618
318.618
318.52
318.335
318.08
317.777
317.448
317.112
316.784
316.485
316.258
313.276
313.459
313.703
313.97
314.245
314.514
314.761
314.97
315.121
315.2
315.2
315.121
314.97
314.761
314.514
314.245
313.97
313.703
313.459
313.276
310.311
310.451
310.64
310.848
311.062
311.271
311.463
311.625
311.742
311.804
311.804
311.742
311.625
311.463
311.271
311.062
310.848
310.64
310.451
310.311
307.359
307.458
307.593
307.742
307.894
308.044
308.181
308.296
308.38
308.424
308.424
308.38
308.296
308.181
308.044
307.894
307.742
307.593
307.458
307.359
304.417
304.476
304.557
304.646
304.738
304.827
304.91
304.979
305.029
305.056
305.056
305.029
304.979
304.91
304.827
304.738
304.646
304.557
304.476
304.417
301.48
301.5
301.527
301.557
301.587
301.617
301.645
301.668
301.685
301.694
301.694
301.685
301.668
301.645
301.617
301.587
301.557
301.527
301.5
301.48
322.503
322.819
323.22
323.655
324.102
324.538
324.938
325.275
325.52
325.649
325.649
325.52
325.275
324.938
324.538
324.102
323.655
323.22
322.819
322.503
319.445
319.712
320.058
320.435
320.821
321.198
321.545
321.836
322.047
322.159
322.159
322.047
321.836
321.545
321.198
320.821
320.435
320.058
319.712
319.445
316.413
316.634
316.926
317.244
317.571
317.889
318.182
318.428
318.606
318.7
318.7
318.606
318.428
318.182
317.889
317.571
317.244
316.926
316.634
316.413
313.402
313.58
313.818
314.078
314.345
314.605
314.845
315.045
315.191
315.268
315.268
315.191
315.045
314.845
314.605
314.345
314.078
313.818
313.58
313.402
310.408
310.545
310.73
310.932
311.139
311.342
311.528
311.684
311.797
311.856
311.856
311.797
311.684
311.528
311.342
311.139
310.932
310.73
310.545
310.408
307.429
307.525
307.657
307.801
307.95
308.094
308.227
308.338
308.419
308.461
308.461
308.419
308.338
308.227
308.094
307.95
307.801
307.657
307.525
307.429
304.458
304.516
304.595
304.682
304.771
304.857
304.937
305.004
305.052
305.078
305.078
305.052
305.004
304.937
304.857
304.771
304.682
304.595
304.516
304.458
301.494
301.513
301.54
301.569
301.598
301.628
301.654
301.677
301.693
301.701
301.701
301.693
301.677
301.654
301.628
301.598
301.569
301.54
301.513
301.494
322.789
323.095
323.483
323.903
324.332
324.75
325.132
325.453
325.686
325.809
325.809
325.686
325.453
325.132
324.75
324.332
323.903
323.483
323.095
322.789
319.691
319.95
320.285
320.648
321.019
321.381
321.712
321.99
322.191
322.297
322.297
322.191
321.99
321.712
321.381
321.019
320.648
320.285
319.95
319.691
316.619
316.834
317.116
317.423
317.737
318.043
318.323
318.557
318.727
318.816
318.816
318.727
318.557
318.323
318.043
317.737
317.423
317.116
316.834
316.619
313.57
313.743
313.973
314.224
314.481
314.73
314.959
315.15
315.289
315.362
315.362
315.289
315.15
314.959
314.73
314.481
314.224
313.973
313.743
313.57
310.539
310.672
310.85
311.045
311.245
311.439
311.616
311.765
311.873
311.929
311.929
311.873
311.765
311.616
311.439
311.245
311.045
310.85
310.672
310.539
307.522
307.616
307.743
307.882
308.024
308.163
308.29
308.396
308.473
308.513
308.513
308.473
308.396
308.29
308.163
308.024
307.882
307.743
307.616
307.522
304.514
304.57
304.646
304.73
304.816
304.899
304.975
305.039
305.085
305.109
305.109
305.085
305.039
304.975
304.899
304.816
304.73
304.646
304.57
304.514
301.513
301.531
301.557
301.585
301.613
301.641
301.667
301.688
301.704
301.712
301.712
301.704
301.688
301.667
301.641
301.613
301.585
301.557
301.531
301.513
323.148
323.443
323.815
324.217
324.626
325.022
325.385
325.687
325.906
326.022
326.022
325.906
325.687
325.385
325.022
324.626
324.217
323.815
323.443
323.148
320
320.249
320.571
320.918
321.272
321.616
321.929
322.191
322.38
322.48
322.48
322.38
322.191
321.929
321.616
321.272
320.918
320.571
320.249
320
316.88
317.086
317.357
317.651
317.95
318.24
318.505
318.726
318.886
318.97
318.97
318.886
318.726
318.505
318.24
317.95
317.651
317.357
317.086
316.88
313.782
313.949
314.169
314.409
314.654
314.891
315.108
315.288
315.419
315.488
315.488
315.419
315.288
315.108
314.891
314.654
314.409
314.169
313.949
313.782
310.703
310.831
311.002
311.189
311.379
311.563
311.732
311.872
311.973
312.027
312.027
311.973
311.872
311.732
311.563
311.379
311.189
311.002
310.831
310.703
307.639
307.729
307.851
307.984
308.12
308.252
308.372
308.472
308.545
308.583
308.583
308.545
308.472
308.372
308.252
308.12
307.984
307.851
307.729
307.639
304.584
304.638
304.711
304.791
304.873
304.952
305.024
305.084
305.128
305.151
305.151
305.128
305.084
305.024
304.952
304.873
304.791
304.711
304.638
304.584
301.536
301.554
301.579
301.605
301.633
301.659
301.683
301.704
301.718
301.726
301.726
301.718
301.704
301.683
301.659
301.633
301.605
301.579
301.554
301.536
323.583
323.864
324.219
324.6
324.987
325.36
325.7
325.983
326.187
326.294
326.294
326.187
325.983
325.7
325.36
324.987
324.6
324.219
323.864
323.583
320.374
320.613
320.919
321.249
321.583
321.907
322.2
322.445
322.622
322.714
322.714
322.622
322.445
322.2
321.907
321.583
321.249
320.919
320.613
320.374
317.195
317.392
317.65
317.929
318.212
318.485
318.733
318.94
319.089
319.168
319.168
319.089
318.94
318.733
318.485
318.212
317.929
317.65
317.392
317.195
314.039
314.198
314.408
314.636
314.867
315.091
315.294
315.463
315.584
315.648
315.648
315.584
315.463
315.294
315.091
314.867
314.636
314.408
314.198
314.039
310.902
311.024
311.187
311.364
311.544
311.718
311.876
312.007
312.102
312.151
312.151
312.102
312.007
311.876
311.718
311.544
311.364
311.187
311.024
310.902
307.78
307.867
307.983
308.109
308.238
308.362
308.475
308.568
308.636
308.671
308.671
308.636
308.568
308.475
308.362
308.238
308.109
307.983
307.867
307.78
304.669
304.721
304.79
304.866
304.944
305.018
305.086
305.142
305.183
305.204
305.204
305.183
305.142
305.086
305.018
304.944
304.866
304.79
304.721
304.669
301.564
301.582
301.605
301.63
301.656
301.681
301.704
301.723
301.736
301.744
301.744
301.736
301.723
301.704
301.681
301.656
301.63
301.605
301.582
301.564
324.094
324.362
324.698
325.057
325.419
325.768
326.084
326.346
326.534
326.633
326.633
326.534
326.346
326.084
325.768
325.419
325.057
324.698
324.362
324.094
320.815
321.041
321.331
321.642
321.956
322.258
322.531
322.758
322.921
323.006
323.006
322.921
322.758
322.531
322.258
321.956
321.642
321.331
321.041
320.815
317.565
317.753
317.997
318.26
318.525
318.78
319.011
319.203
319.341
319.413
319.413
319.341
319.203
319.011
318.78
318.525
318.26
317.997
317.753
317.565
314.34
314.491
314.69
314.905
315.122
315.331
315.52
315.677
315.789
315.848
315.848
315.789
315.677
315.52
315.331
315.122
314.905
314.69
314.491
314.34
311.136
311.252
311.406
311.573
311.742
311.904
312.051
312.173
312.26
312.306
312.306
312.26
312.173
312.051
311.904
311.742
311.573
311.406
311.252
311.136
307.947
308.029
308.139
308.258
308.379
308.495
308.6
308.687
308.749
308.782
308.782
308.749
308.687
308.6
308.495
308.379
308.258
308.139
308.029
307.947
304.769
304.818
304.884
304.956
305.028
305.098
305.161
305.213
305.25
305.27
305.27
305.25
305.213
305.161
305.098
305.028
304.956
304.884
304.818
304.769
301.598
301.614
301.636
301.66
301.685
301.708
301.729
301.747
301.759
301.766
301.766
301.759
301.747
301.729
301.708
301.685
301.66
301.636
301.614
301.598
324.684
324.937
325.253
325.589
325.927
326.25
326.541
326.782
326.955
327.045
327.045
326.955
326.782
326.541
326.25
325.927
325.589
325.253
324.937
324.684
321.322
321.536
321.809
322.1
322.393
322.672
322.925
323.133
323.283
323.361
323.361
323.283
323.133
322.925
322.672
322.393
322.1
321.809
321.536
321.322
317.992
318.169
318.399
318.645
318.893
319.13
319.343
319.519
319.646
319.712
319.712
319.646
319.519
319.343
319.13
318.893
318.645
318.399
318.169
317.992
314.688
314.831
315.018
315.219
315.422
315.615
315.79
315.934
316.037
316.091
316.091
316.037
315.934
315.79
315.615
315.422
315.219
315.018
314.831
314.688
311.405
311.515
311.66
311.817
311.974
312.125
312.26
312.372
312.453
312.495
312.495
312.453
312.372
312.26
312.125
311.974
311.817
311.66
311.515
311.405
308.139
308.216
308.32
308.432
308.544
308.652
308.749
308.829
308.886
308.916
308.916
308.886
308.829
308.749
308.652
308.544
308.432
308.32
308.216
308.139
304.884
304.93
304.993
305.06
305.127
305.192
305.25
305.298
305.333
305.351
305.351
305.333
305.298
305.25
305.192
305.127
305.06
304.993
304.93
304.884
301.636
301.652
301.673
301.695
301.718
301.74
301.759
301.775
301.787
301.793
301.793
301.787
301.775
301.759
301.74
301.718
301.695
301.673
301.652
301.636
325.353
325.591
325.886
326.199
326.512
326.81
327.077
327.297
327.455
327.537
327.537
327.455
327.297
327.077
326.81
326.512
326.199
325.886
325.591
325.353
321.899
322.1
322.355
322.626
322.897
323.155
323.386
323.577
323.713
323.784
323.784
323.713
323.577
323.386
323.155
322.897
322.626
322.355
322.1
321.899
318.477
318.644
318.859
319.088
319.317
319.536
319.731
319.892
320.007
320.068
320.068
320.007
319.892
319.731
319.536
319.317
319.088
318.859
318.644
318.477
315.083
315.217
315.393
315.58
315.768
315.946
316.106
316.238
316.332
316.381
316.381
316.332
316.238
316.106
315.946
315.768
315.58
315.393
315.217
315.083
311.712
311.815
311.951
312.096
312.242
312.381
312.505
312.608
312.681
312.719
312.719
312.681
312.608
312.505
312.381
312.242
312.096
311.951
311.815
311.712
308.357
308.43
308.527
308.631
308.735
308.835
308.923
308.997
309.049
309.076
309.076
309.049
308.997
308.923
308.835
308.735
308.631
308.527
308.43
308.357
305.015
305.059
305.117
305.179
305.242
305.301
305.355
305.399
305.43
305.446
305.446
305.43
305.399
305.355
305.301
305.242
305.179
305.117
305.059
305.015
301.68
301.695
301.714
301.735
301.756
301.776
301.794
301.809
301.819
301.825
301.825
301.819
301.809
301.794
301.776
301.756
301.735
301.714
301.695
301.68
326.104
326.326
326.601
326.891
327.179
327.452
327.696
327.896
328.038
328.113
328.113
328.038
327.896
327.696
327.452
327.179
326.891
326.601
326.326
326.104
322.545
322.733
322.971
323.222
323.471
323.708
323.919
324.092
324.216
324.28
324.28
324.216
324.092
323.919
323.708
323.471
323.222
322.971
322.733
322.545
319.021
319.177
319.377
319.59
319.801
320.001
320.18
320.326
320.43
320.485
320.485
320.43
320.326
320.18
320.001
319.801
319.59
319.377
319.177
319.021
315.526
315.652
315.815
315.989
316.162
316.325
316.471
316.591
316.676
316.721
316.721
316.676
316.591
316.471
316.325
316.162
315.989
315.815
315.652
315.526
312.055
312.151
312.278
312.413
312.547
312.675
312.788
312.882
312.948
312.982
312.982
312.948
312.882
312.788
312.675
312.547
312.413
312.278
312.151
312.055
308.602
308.67
308.76
308.857
308.953
309.044
309.125
309.192
309.239
309.264
309.264
309.239
309.192
309.125
309.044
308.953
308.857
308.76
308.67
308.602
305.162
305.203
305.257
305.315
305.372
305.427
305.476
305.516
305.544
305.559
305.559
305.544
305.516
305.476
305.427
305.372
305.315
305.257
305.203
305.162
301.729
301.743
301.761
301.781
301.8
301.818
301.835
301.848
301.858
301.862
301.862
301.858
301.848
301.835
301.818
301.8
301.781
301.761
301.743
301.729
326.937
327.144
327.399
327.667
327.931
328.18
328.401
328.582
328.71
328.777
328.777
328.71
328.582
328.401
328.18
327.931
327.667
327.399
327.144
326.937
323.263
323.438
323.658
323.89
324.119
324.334
324.526
324.683
324.794
324.852
324.852
324.794
324.683
324.526
324.334
324.119
323.89
323.658
323.438
323.263
319.625
319.77
319.956
320.152
320.346
320.528
320.69
320.823
320.917
320.966
320.966
320.917
320.823
320.69
320.528
320.346
320.152
319.956
319.77
319.625
316.019
316.135
316.287
316.447
316.605
316.755
316.887
316.996
317.073
317.113
317.113
317.073
316.996
316.887
316.755
316.605
316.447
316.287
316.135
316.019
312.437
312.526
312.644
312.768
312.891
313.008
313.111
313.195
313.255
313.286
313.286
313.255
313.195
313.111
313.008
312.891
312.768
312.644
312.526
312.437
308.874
308.937
309.021
309.11
309.198
309.281
309.355
309.415
309.458
309.48
309.48
309.458
309.415
309.355
309.281
309.198
309.11
309.021
308.937
308.874
305.325
305.363
305.413
305.466
305.519
305.569
305.613
305.65
305.675
305.689
305.689
305.675
305.65
305.613
305.569
305.519
305.466
305.413
305.363
305.325
301.784
301.797
301.814
301.831
301.849
301.866
301.881
301.893
301.901
301.906
301.906
301.901
301.893
301.881
301.866
301.849
301.831
301.814
301.797
301.784
327.854
328.046
328.282
328.527
328.769
328.995
329.195
329.358
329.473
329.533
329.533
329.473
329.358
329.195
328.995
328.769
328.527
328.282
328.046
327.854
324.053
324.215
324.418
324.631
324.84
325.036
325.21
325.351
325.451
325.502
325.502
325.451
325.351
325.21
325.036
324.84
324.631
324.418
324.215
324.053
320.29
320.425
320.596
320.776
320.953
321.119
321.266
321.385
321.47
321.513
321.513
321.47
321.385
321.266
321.119
320.953
320.776
320.596
320.425
320.29
316.56
316.668
316.808
316.955
317.1
317.236
317.356
317.454
317.523
317.559
317.559
317.523
317.454
317.356
317.236
317.1
316.955
316.808
316.668
316.56
312.856
312.94
313.048
313.162
313.275
313.381
313.474
313.55
313.604
313.632
313.632
313.604
313.55
313.474
313.381
313.275
313.162
313.048
312.94
312.856
309.173
309.232
309.309
309.391
309.472
309.547
309.614
309.668
309.706
309.726
309.726
309.706
309.668
309.614
309.547
309.472
309.391
309.309
309.232
309.173
305.504
305.539
305.586
305.635
305.683
305.729
305.769
305.801
305.824
305.836
305.836
305.824
305.801
305.769
305.729
305.683
305.635
305.586
305.539
305.504
301.844
301.856
301.871
301.888
301.904
301.919
301.933
301.944
301.951
301.955
301.955
301.951
301.944
301.933
301.919
301.904
301.888
301.871
301.856
301.844
328.855
329.033
329.249
329.474
329.694
329.899
330.08
330.226
330.329
330.382
330.382
330.329
330.226
330.08
329.899
329.694
329.474
329.249
329.033
328.855
324.915
325.065
325.252
325.447
325.637
325.815
325.972
326.098
326.188
326.234
326.234
326.188
326.098
325.972
325.815
325.637
325.447
325.252
325.065
324.915
321.016
321.14
321.298
321.463
321.624
321.774
321.907
322.014
322.09
322.129
322.129
322.09
322.014
321.907
321.774
321.624
321.463
321.298
321.14
321.016
317.151
317.251
317.38
317.515
317.647
317.77
317.878
317.966
318.028
318.06
318.06
318.028
317.966
317.878
317.77
317.647
317.515
317.38
317.251
317.151
313.315
313.392
313.491
313.596
313.699
313.795
313.879
313.947
313.995
314.02
314.02
313.995
313.947
313.879
313.795
313.699
313.596
313.491
313.392
313.315
309.5
309.554
309.625
309.7
309.774
309.842
309.902
309.951
309.985
310.003
310.003
309.985
309.951
309.902
309.842
309.774
309.7
309.625
309.554
309.5
305.7
305.733
305.775
305.82
305.864
305.905
305.942
305.971
305.992
306.002
306.002
305.992
305.971
305.942
305.905
305.864
305.82
305.775
305.733
305.7
301.91
301.921
301.935
301.95
301.965
301.979
301.991
302
302.007
302.011
302.011
302.007
302
301.991
301.979
301.965
301.95
301.935
301.921
301.91
329.939
330.103
330.302
330.507
330.707
330.892
331.055
331.186
331.278
331.325
331.325
331.278
331.186
331.055
330.892
330.707
330.507
330.302
330.103
329.939
325.848
325.987
326.159
326.337
326.51
326.67
326.811
326.925
327.004
327.046
327.046
327.004
326.925
326.811
326.67
326.51
326.337
326.159
325.987
325.848
321.801
321.916
322.061
322.211
322.358
322.494
322.613
322.709
322.777
322.812
322.812
322.777
322.709
322.613
322.494
322.358
322.211
322.061
321.916
321.801
317.791
317.883
318.002
318.125
318.245
318.356
318.453
318.532
318.587
318.616
318.616
318.587
318.532
318.453
318.356
318.245
318.125
318.002
317.883
317.791
313.811
313.881
313.973
314.069
314.162
314.249
314.325
314.386
314.429
314.451
314.451
314.429
314.386
314.325
314.249
314.162
314.069
313.973
313.881
313.811
309.853
309.903
309.969
310.037
310.104
310.166
310.22
310.264
310.294
310.31
310.31
310.294
310.264
310.22
310.166
310.104
310.037
309.969
309.903
309.853
305.912
305.942
305.981
306.022
306.062
306.099
306.132
306.158
306.177
306.186
306.186
306.177
306.158
306.132
306.099
306.062
306.022
305.981
305.942
305.912
301.981
301.991
302.004
302.018
302.031
302.043
302.054
302.063
302.069
302.073
302.073
302.069
302.063
302.054
302.043
302.031
302.018
302.004
301.991
301.981
331.103
331.253
331.436
331.623
331.804
331.971
332.117
332.234
332.316
332.359
332.359
332.316
332.234
332.117
331.971
331.804
331.623
331.436
331.253
331.103
326.85
326.977
327.134
327.297
327.454
327.599
327.725
327.827
327.898
327.935
327.935
327.898
327.827
327.725
327.599
327.454
327.297
327.134
326.977
326.85
322.643
322.749
322.882
323.019
323.152
323.275
323.382
323.468
323.528
323.559
323.559
323.528
323.468
323.382
323.275
323.152
323.019
322.882
322.749
322.643
318.477
318.561
318.67
318.782
318.891
318.991
319.079
319.149
319.199
319.224
319.224
319.199
319.149
319.079
318.991
318.891
318.782
318.67
318.561
318.477
314.342
314.407
314.491
314.578
314.663
314.741
314.809
314.864
314.902
314.922
314.922
314.902
314.864
314.809
314.741
314.663
314.578
314.491
314.407
314.342
310.231
310.278
310.337
310.4
310.46
310.516
310.565
310.604
310.632
310.646
310.646
310.632
310.604
310.565
310.516
310.46
310.4
310.337
310.278
310.231
306.139
306.166
306.202
306.24
306.276
306.31
306.339
306.362
306.379
306.387
306.387
306.379
306.362
306.339
306.31
306.276
306.24
306.202
306.166
306.139
302.057
302.066
302.078
302.09
302.103
302.114
302.124
302.132
302.137
302.14
302.14
302.137
302.132
302.124
302.114
302.103
302.09
302.078
302.066
302.057
332.334
332.473
332.64
332.81
332.974
333.125
333.256
333.361
333.434
333.472
333.472
333.434
333.361
333.256
333.125
332.974
332.81
332.64
332.473
332.334
327.907
328.024
328.169
328.316
328.459
328.59
328.703
328.794
328.858
328.891
328.891
328.858
328.794
328.703
328.59
328.459
328.316
328.169
328.024
327.907
323.532
323.629
323.75
323.875
323.996
324.107
324.203
324.28
324.334
324.361
324.361
324.334
324.28
324.203
324.107
323.996
323.875
323.75
323.629
323.532
319.199
319.277
319.376
319.478
319.577
319.668
319.746
319.809
319.854
319.876
319.876
319.854
319.809
319.746
319.668
319.577
319.478
319.376
319.277
319.199
314.9
314.96
315.037
315.117
315.194
315.264
315.326
315.375
315.409
315.427
315.427
315.409
315.375
315.326
315.264
315.194
315.117
315.037
314.96
314.9
310.629
310.671
310.726
310.783
310.838
310.889
310.932
310.968
310.992
311.005
311.005
310.992
310.968
310.932
310.889
310.838
310.783
310.726
310.671
310.629
306.377
306.402
306.435
306.469
306.502
306.533
306.559
306.58
306.595
306.602
306.602
306.595
306.58
306.559
306.533
306.502
306.469
306.435
306.402
306.377
302.136
302.145
302.156
302.167
302.178
302.189
302.197
302.204
302.209
302.212
302.212
302.209
302.204
302.197
302.189
302.178
302.167
302.156
302.145
302.136
333.603
333.73
333.883
334.039
334.188
334.324
334.442
334.536
334.602
334.636
334.636
334.602
334.536
334.442
334.324
334.188
334.039
333.883
333.73
333.603
328.992
329.1
329.232
329.367
329.497
329.615
329.717
329.799
329.856
329.885
329.885
329.856
329.799
329.717
329.615
329.497
329.367
329.232
329.1
328.992
324.439
324.528
324.64
324.754
324.864
324.964
325.051
325.12
325.168
325.193
325.193
325.168
325.12
325.051
324.964
324.864
324.754
324.64
324.528
324.439
319.934
320.005
320.096
320.19
320.28
320.362
320.433
320.49
320.529
320.549
320.549
320.529
320.49
320.433
320.362
320.28
320.19
320.096
320.005
319.934
315.467
315.523
315.593
315.666
315.736
315.8
315.855
315.899
315.93
315.946
315.946
315.93
315.899
315.855
315.8
315.736
315.666
315.593
315.523
315.467
311.032
311.071
311.121
311.173
311.223
311.269
311.308
311.34
311.362
311.373
311.373
311.362
311.34
311.308
311.269
311.223
311.173
311.121
311.071
311.032
306.618
306.641
306.671
306.703
306.733
306.76
306.784
306.803
306.816
306.823
306.823
306.816
306.803
306.784
306.76
306.733
306.703
306.671
306.641
306.618
302.217
302.225
302.235
302.245
302.255
302.265
302.273
302.279
302.283
302.286
302.286
302.283
302.279
302.273
302.265
302.255
302.245
302.235
302.225
302.217
334.83
334.947
335.088
335.231
335.368
335.492
335.599
335.684
335.743
335.774
335.774
335.743
335.684
335.599
335.492
335.368
335.231
335.088
334.947
334.83
330.029
330.128
330.25
330.375
330.493
330.601
330.694
330.768
330.82
330.846
330.846
330.82
330.768
330.694
330.601
330.493
330.375
330.25
330.128
330.029
325.296
325.379
325.482
325.587
325.688
325.779
325.858
325.921
325.965
325.987
325.987
325.965
325.921
325.858
325.779
325.688
325.587
325.482
325.379
325.296
320.622
320.688
320.772
320.859
320.941
321.016
321.081
321.132
321.168
321.187
321.187
321.168
321.132
321.081
321.016
320.941
320.859
320.772
320.688
320.622
315.994
316.045
316.111
316.178
316.242
316.301
316.351
316.391
316.419
316.434
316.434
316.419
316.391
316.351
316.301
316.242
316.178
316.111
316.045
315.994
311.404
311.44
311.487
311.535
311.581
311.622
311.659
311.687
311.707
311.718
311.718
311.707
311.687
311.659
311.622
311.581
311.535
311.487
311.44
311.404
306.839
306.861
306.889
306.918
306.946
306.971
306.992
307.01
307.022
307.028
307.028
307.022
307.01
306.992
306.971
306.946
306.918
306.889
306.861
306.839
302.291
302.298
302.307
302.317
302.326
302.335
302.342
302.348
302.352
302.354
302.354
302.352
302.348
302.342
302.335
302.326
302.317
302.307
302.298
302.291
335.799
335.91
336.043
336.177
336.304
336.42
336.52
336.599
336.654
336.682
336.682
336.654
336.599
336.52
336.42
336.304
336.177
336.043
335.91
335.799
330.817
330.911
331.026
331.142
331.254
331.355
331.442
331.511
331.559
331.583
331.583
331.559
331.511
331.442
331.355
331.254
331.142
331.026
330.911
330.817
325.928
326.006
326.103
326.202
326.297
326.383
326.457
326.516
326.556
326.577
326.577
326.556
326.516
326.457
326.383
326.297
326.202
326.103
326.006
325.928
321.116
321.179
321.258
321.34
321.418
321.488
321.549
321.597
321.631
321.648
321.648
321.631
321.597
321.549
321.488
321.418
321.34
321.258
321.179
321.116
316.365
316.414
316.476
316.539
316.6
316.655
316.703
316.74
316.767
316.78
316.78
316.767
316.74
316.703
316.655
316.6
316.539
316.476
316.414
316.365
311.662
311.696
311.741
311.786
311.83
311.869
311.903
311.93
311.949
311.959
311.959
311.949
311.93
311.903
311.869
311.83
311.786
311.741
311.696
311.662
306.992
307.012
307.039
307.066
307.093
307.116
307.137
307.153
307.164
307.17
307.17
307.164
307.153
307.137
307.116
307.093
307.066
307.039
307.012
306.992
302.342
302.348
302.357
302.367
302.375
302.383
302.39
302.396
302.399
302.401
302.401
302.399
302.396
302.39
302.383
302.375
302.367
302.357
302.348
302.342
)
;

boundaryField
{
    hotSide
    {
        type            fixedGradient;
        gradient        nonuniform List<scalar> 
400
(
242.22
243.025
244.638
247.067
250.321
254.412
259.354
265.164
271.856
279.446
287.951
297.384
307.759
319.087
331.379
344.645
358.891
374.124
390.348
407.567
246.574
247.344
248.89
251.22
254.348
258.289
263.062
268.688
275.187
282.578
290.881
300.115
310.294
321.434
333.545
346.639
360.724
375.806
391.89
408.979
251.286
252.015
253.48
255.693
258.671
262.436
267.012
272.425
278.7
285.863
293.938
302.947
312.909
323.839
335.753
348.661
362.572
377.492
393.427
410.38
256.277
256.959
258.33
260.407
263.213
266.776
271.126
276.298
282.322
289.231
297.054
305.817
315.542
326.248
337.95
350.661
364.39
379.143
394.925
411.738
261.409
262.037
263.303
265.228
267.842
271.181
275.283
280.191
285.943
292.579
300.134
308.637
318.114
328.587
340.072
352.582
366.126
380.711
396.34
413.015
266.468
267.038
268.191
269.955
272.366
275.468
279.31
283.943
289.415
295.771
303.053
311.294
320.524
330.766
342.038
354.353
367.719
382.142
397.626
414.17
271.163
271.675
272.717
274.32
276.529
279.398
282.987
287.353
292.554
298.643
305.665
313.66
322.659
332.686
343.762
355.897
369.102
383.38
398.733
415.161
275.148
275.608
276.549
278.007
280.036
282.699
286.062
290.193
295.157
301.013
307.812
315.595
324.397
334.244
345.154
357.14
370.21
384.368
399.614
415.946
278.064
278.485
279.348
280.696
282.588
285.093
288.286
292.241
297.028
302.711
309.344
316.972
325.629
335.344
346.134
358.013
370.986
385.058
400.228
416.492
279.61
280.008
280.829
282.118
283.935
286.355
289.456
293.316
298.008
303.598
310.143
317.688
326.269
335.914
346.641
358.463
371.386
385.413
400.543
416.772
279.61
280.008
280.829
282.118
283.935
286.355
289.456
293.316
298.008
303.598
310.143
317.688
326.269
335.914
346.641
358.463
371.386
385.413
400.543
416.772
278.064
278.485
279.348
280.696
282.588
285.093
288.286
292.241
297.028
302.711
309.344
316.972
325.629
335.344
346.134
358.013
370.986
385.058
400.228
416.492
275.148
275.608
276.549
278.007
280.036
282.699
286.062
290.193
295.157
301.013
307.812
315.595
324.397
334.244
345.154
357.14
370.21
384.368
399.614
415.946
271.163
271.675
272.717
274.32
276.529
279.398
282.987
287.353
292.554
298.643
305.665
313.66
322.659
332.686
343.762
355.897
369.102
383.38
398.733
415.161
266.468
267.038
268.191
269.955
272.366
275.468
279.31
283.943
289.415
295.771
303.053
311.294
320.524
330.766
342.038
354.353
367.719
382.142
397.626
414.17
261.409
262.037
263.303
265.228
267.842
271.181
275.283
280.191
285.943
292.579
300.134
308.637
318.114
328.587
340.072
352.582
366.126
380.711
396.34
413.015
256.277
256.959
258.33
260.407
263.213
266.776
271.126
276.298
282.322
289.231
297.054
305.817
315.542
326.248
337.95
350.661
364.39
379.143
394.925
411.738
251.286
252.015
253.48
255.693
258.671
262.436
267.012
272.425
278.7
285.863
293.938
302.947
312.909
323.839
335.753
348.661
362.572
377.492
393.427
410.38
246.574
247.344
248.89
251.22
254.348
258.289
263.062
268.688
275.187
282.578
290.881
300.115
310.294
321.434
333.545
346.639
360.724
375.806
391.89
408.979
242.22
243.025
244.638
247.067
250.321
254.412
259.354
265.164
271.856
279.446
287.951
297.384
307.759
319.087
331.379
344.645
358.891
374.124
390.348
407.567
)
;
    }
    coldSide
    {
        type            mixed;
        refValue        uniform 300;
        refGradient     uniform 0;
        valueFraction   uniform 0.991591;
        source          uniform 0;
        value           nonuniform List<scalar> 
400
(
300.012
300.012
300.012
300.013
300.013
300.013
300.013
300.013
300.014
300.014
300.015
300.015
300.016
300.016
300.017
300.017
300.018
300.019
300.019
300.02
300.012
300.013
300.013
300.013
300.013
300.013
300.013
300.014
300.014
300.014
300.015
300.015
300.016
300.016
300.017
300.017
300.018
300.019
300.019
300.02
300.013