/*--------------------------------*- C++ -*----------------------------------*\
| =========                 |                                                 |
| \\      /  F ield         | OpenFOAM: The Open Source CFD Toolbox           |
|  \\    /   O peration     | Version:  2212                                  |
|   \\  /    A nd           | Website:  www.openfoam.com                      |
|    \\/     M anipulation  |                                                 |
\*---------------------------------------------------------------------------*/
FoamFile
{
    version     2.0;
    format      ascii;
    arch        "LSB;label=32;scalar=64";
    class       volScalarField;
    location    "0";
    object      T;
}
// * * * * * * * * * * * * * * * * * * * * * * * * * * * * * * * * * * * * * //

dimensions      [0 0 0 1 0 0 0];

internalField   nonuniform List<scalar> 
3200
(
325.304
324.58
323.939
323.863
323.949
324.484
324.834
325.42
325.723
325.798
325.801
325.822
325.48
324.997
324.414
323.905
323.617
323.522
323.744
324.343
321.933
321.337
320.789
320.726
320.805
321.279
321.57
322.124
322.361
322.458
322.454
322.463
322.191
321.751
321.264
320.821
320.562
320.483
320.647
321.162
318.562
318.111
317.624
317.565
317.643
318.05
318.28
318.805
318.987
319.083
319.064
319.072
318.855
318.496
318.052
317.675
317.463
317.381
317.507
317.961
315.184
314.847
314.448
314.389
314.473
314.812
314.975
315.445
315.578
315.684
315.625
315.662
315.49
315.188
314.809
314.501
314.341
314.256
314.362
314.724
311.8
311.562
311.267
311.209
311.282
311.552
311.67
312.044
312.151
312.253
312.181
312.217
312.105
311.862
311.533
311.295
311.195
311.104
311.2
311.48
308.418
308.263
308.063
308.012
308.078
308.266
308.358
308.617
308.709
308.795
308.719
308.734
308.673
308.527
308.254
308.082
308.022
307.96
308.011
308.227
305.054
304.966
304.855
304.817
304.856
304.967
305.017
305.171
305.25
305.312
305.247
305.244
305.2
305.152
304.97
304.845
304.829
304.792
304.819
304.953
301.707
301.671
301.631
301.622
301.624
301.667
301.694
301.728
301.766
301.798
301.763
301.749
301.742
301.724
301.659
301.628
301.619
301.614
301.605
301.663
325.266
324.655
324.074
324.064
324.209
324.659
325.162
325.714
326.082
326.254
326.256
326.227
325.776
325.311
324.734
324.114
323.76
323.694
323.801
324.363
321.885
321.386
320.901
320.888
321.026
321.438
321.861
322.371
322.706
322.861
322.849
322.812
322.431
322.031
321.53
321.003
320.684
320.63
320.715
321.185
318.517
318.128
317.737
317.695
317.814
318.189
318.537
318.99
319.301
319.431
319.401
319.362
319.059
318.726
318.279
317.854
317.583
317.521
317.588
317.97
315.154
314.85
314.548
314.508
314.593
314.915
315.203
315.577
315.845
315.954
315.903
315.894
315.624
315.364
315.008
314.671
314.445
314.359
314.435
314.726
311.798
311.558
311.355
311.304
311.357
311.629
311.86
312.151
312.369
312.451
312.415
312.388
312.197
311.992
311.709
311.447
311.275
311.185
311.268
311.486
308.438
308.267
308.135
308.068
308.123
308.327
308.487
308.695
308.863
308.914
308.89
308.865
308.738
308.587
308.37
308.2
308.082
307.981
308.07
308.219
305.072
304.984
304.896
304.849
304.875
305.012
305.111
305.219
305.335
305.366
305.355
305.344
305.25
305.17
305.034
304.93
304.848
304.801
304.874
304.953
301.706
301.679
301.651
301.631
301.631
301.686
301.711
301.746
301.784
301.783
301.792
301.8
301.758
301.728
301.696
301.654
301.628
301.611
301.638
301.667
325.474
324.891
324.288
324.367
324.572
325.129
325.552
326.1
326.532
326.729
326.747
326.673
326.195
325.761
325.21
324.514
324.079
324.01
324.058
324.636
322.089
321.626
321.072
321.152
321.345
321.835
322.212
322.686
323.114
323.279
323.278
323.231
322.778
322.439
321.921
321.325
320.967
320.914
320.944
321.41
318.691
318.335
317.861
317.93
318.108
318.516
318.847
319.269
319.612
319.772
319.774
319.751
319.354
319.058
318.629
318.107
317.819
317.75
317.814
318.152
315.291
314.988
314.649
314.705
314.853
315.189
315.454
315.818
316.095
316.216
316.224
316.198
315.905
315.629
315.31
314.856
314.614
314.566
314.637
314.853
311.884
311.651
311.419
311.46
311.575
311.842
312.044
312.325
312.561
312.639
312.644
312.633
312.381
312.177
311.959
311.594
311.38
311.356
311.441
311.574
308.504
308.329
308.171
308.182
308.294
308.48
308.629
308.807
309.004
309.048
309.04
309.038
308.853
308.693
308.555
308.31
308.145
308.14
308.202
308.252
305.124
305.003
304.917
304.911
305.001
305.113
305.199
305.297
305.416
305.438
305.43
305.415
305.321
305.235
305.133
304.991
304.892
304.893
304.925
304.948
301.724
301.674
301.654
301.643
301.68
301.709
301.744
301.768
301.812
301.824
301.818
301.81
301.781
301.762
301.716
301.669
301.643
301.632
301.655
301.649
325.848
325.306
324.79
324.743
325.049
325.546
326.086
326.632
327.073
327.405
327.457
327.316
326.702
326.242
325.72
324.988
324.449
324.491
324.559
324.947
322.385
321.963
321.519
321.482
321.746
322.198
322.665
323.165
323.549
323.849
323.886
323.765
323.23
322.85
322.404
321.753
321.288
321.319
321.408
321.678
318.951
318.612
318.223
318.196
318.424
318.831
319.226
319.674
319.997
320.264
320.267
320.168
319.725
319.395
319.032
318.49
318.099
318.112
318.19
318.377
315.492
315.254
314.937
314.925
315.081
315.43
315.771
316.178
316.399
316.616
316.612
316.544
316.186
315.915
315.615
315.171
314.882
314.875
314.942
315.057
312.029
311.891
311.646
311.62
311.751
312.02
312.296
312.627
312.777
312.943
312.936
312.895
312.608
312.42
312.182
311.828
311.598
311.594
311.643
311.714
308.581
308.513
308.321
308.325
308.401
308.594
308.806
309.055
309.144
309.251
309.254
309.224
309.002
308.883
308.714
308.472
308.277
308.309
308.334
308.382
305.16
305.132
304.998
305.012
305.046
305.165
305.288
305.448
305.512
305.559
305.553
305.535
305.4
305.332
305.234
305.094
304.978
304.996
305.008
305.033
301.728
301.718
301.676
301.693
301.69
301.744
301.776
301.82
301.86
301.87
301.86
301.859
301.81
301.797
301.758
301.706
301.681
301.665
301.676
301.697
326.56
325.941
325.44
325.415
325.77
326.234
326.752
327.423
327.72
328.073
328.1
328.112
327.413
326.969
326.336
325.503
325.167
325.004
325.163
325.499
323.015
322.509
322.095
322.077
322.373
322.813
323.258
323.861
324.099
324.41
324.437
324.437
323.835
323.475
322.927
322.182
321.919
321.773
321.892
322.138
319.456
319.079
318.737
318.747
318.963
319.36
319.74
320.243
320.457
320.705
320.731
320.727
320.232
319.92
319.475
318.844
318.644
318.503
318.598
318.762
315.925
315.62
315.357
315.4
315.551
315.869
316.183
316.629
316.782
316.983
317
316.988
316.592
316.333
315.978
315.463
315.318
315.204
315.256
315.385
312.394
312.14
311.965
311.99
312.105
312.353
312.61
312.99
313.091
313.236
313.243
313.203
312.939
312.719
312.446
312.057
311.924
311.866
311.884
311.987
308.865
308.671
308.576
308.575
308.655
308.819
309.031
309.316
309.369
309.477
309.462
309.444
309.262
309.098
308.9
308.634
308.552
308.5
308.51
308.558
305.325
305.196
305.156
305.145
305.211
305.3
305.462
305.608
305.622
305.698
305.683
305.685
305.573
305.482
305.345
305.218
305.149
305.101
305.127
305.148
301.784
301.737
301.723
301.732
301.759
301.781
301.842
301.882
301.888
301.914
301.903
301.907
301.872
301.841
301.786
301.761
301.729
301.716
301.73
301.727
327.2
326.586
326.242
326.255
326.458
326.911
327.462
328.016
328.638
328.851
328.962
328.781
328.283
327.771
327.003
326.301
325.97
325.615
325.698
326.055
323.597
323.081
322.787
322.808
322.983
323.394
323.86
324.356
324.893
325.104
325.184
325.025
324.592
324.165
323.508
322.898
322.616
322.332
322.385
322.653
319.997
319.568
319.31
319.371
319.481
319.868
320.244
320.678
321.138
321.322
321.38
321.234
320.879
320.523
319.962
319.448
319.205
318.99
319.029
319.246
316.381
316.038
315.818
315.896
315.982
316.293
316.609
316.949
317.368
317.49
317.561
317.442
317.125
316.831
316.376
315.947
315.776
315.604
315.616
315.818
312.755
312.506
312.299
312.38
312.461
312.673
312.943
313.213
313.538
313.651
313.703
313.634
313.347
313.119
312.763
312.424
312.301
312.183
312.17
312.331
309.125
308.941
308.788
308.849
308.926
309.062
309.239
309.462
309.704
309.774
309.814
309.796
309.555
309.388
309.143
308.888
308.81
308.724
308.687
308.83
305.481
305.377
305.269
305.307
305.38
305.436
305.547
305.687
305.846
305.889
305.907
305.895
305.743
305.644
305.503
305.335
305.301
305.242
305.219
305.314
301.837
301.809
301.764
301.785
301.801
301.826
301.854
301.902
301.962
301.966
301.988
301.976
301.931
301.882
301.846
301.794
301.77
301.759
301.746
301.778
327.996
327.45
327.015
327.043
327.241
327.739
328.235
328.792
329.387
329.731
329.81
329.685
329.196
328.628
327.797
327.113
326.674
326.29
326.48
326.758
324.278
323.84
323.472
323.49
323.659
324.111
324.546
325.015
325.564
325.866
325.939
325.824
325.408
324.897
324.204
323.596
323.225
322.872
323.029
323.269
320.568
320.184
319.903
319.912
320.057
320.44
320.822
321.245
321.7
321.986
322.033
321.937
321.596
321.133
320.561
320.035
319.744
319.43
319.566
319.761
316.862
316.529
316.322
316.318
316.44
316.761
317.097
317.43
317.818
318.046
318.094
318.012
317.736
317.334
316.845
316.428
316.206
315.958
316.059
316.214
313.13
312.859
312.726
312.725
312.835
313.056
313.335
313.579
313.902
314.073
314.134
314.048
313.831
313.518
313.115
312.817
312.637
312.447
312.528
312.64
309.382
309.174
309.106
309.135
309.194
309.348
309.528
309.718
309.968
310.087
310.128
310.067
309.904
309.685
309.373
309.168
309.057
308.913
308.962
309.037
305.641
305.5
305.477
305.523
305.518
305.614
305.73
305.835
305.995
306.071
306.101
306.052
305.944
305.821
305.614
305.507
305.453
305.351
305.384
305.42
301.892
301.837
301.835
301.868
301.847
301.882
301.919
301.952
302.011
302.043
302.058
302.033
301.991
301.953
301.885
301.86
301.834
301.791
301.798
301.822
328.864
328.326
327.998
327.884
328.132
328.618
329.165
329.648
330.221
330.601
330.622
330.475
330.117
329.455
328.742
327.901
327.428
327.137
327.251
327.453
325.063
324.622
324.346
324.233
324.457
324.874
325.362
325.79
326.284
326.604
326.642
326.5
326.211
325.602
325.026
324.303
323.872
323.623
323.722
323.871
321.245
320.906
320.68
320.584
320.755
321.108
321.521
321.878
322.308
322.565
322.617
322.509
322.259
321.728
321.272
320.637
320.292
320.059
320.144
320.259
317.416
317.164
316.97
316.89
317.025
317.319
317.661
317.933
318.313
318.523
318.58
318.465
318.287
317.818
317.454
316.94
316.648
316.47
316.552
316.62
313.563
313.371
313.249
313.16
313.266
313.493
313.773
313.976
314.279
314.431
314.496
314.383
314.255
313.877
313.603
313.214
312.987
312.873
312.913
312.953
309.696
309.579
309.478
309.425
309.484
309.651
309.859
310.007
310.221
310.312
310.381
310.293
310.191
309.934
309.728
309.482
309.295
309.229
309.237
309.272
305.841
305.774
305.686
305.677
305.691
305.795
305.933
306.022
306.14
306.191
306.235
306.186
306.117
305.989
305.844
305.708
305.584
305.554
305.554
305.575
301.953
301.942
301.903
301.909
301.905
301.948
301.993
302.028
302.058
302.072
302.092
302.074
302.048
301.994
301.957
301.921
301.867
301.867
301.864
301.863
329.811
329.372
328.989
328.807
329.047
329.407
329.928
330.472
331.045
331.38
331.471
331.318
330.841
330.135
329.585
328.797
328.2
327.865
327.985
328.306
325.876
325.507
325.207
325.009
325.252
325.561
326.031
326.492
326.988
327.311
327.378
327.226
326.84
326.209
325.768
325.096
324.514
324.244
324.354
324.641
321.919
321.621
321.387
321.211
321.431
321.702
322.109
322.473
322.914
323.206
323.269
323.096
322.797
322.257
321.888
321.33
320.795
320.599
320.679
320.943
317.957
317.729
317.55
317.409
317.581
317.798
318.142
318.418
318.795
319.05
319.1
318.963
318.716
318.251
317.95
317.521
317.044
316.916
316.981
317.194
313.987
313.812
313.691
313.565
313.7
313.876
314.151
314.363
314.646
314.85
314.887
314.787
314.586
314.215
313.976
313.676
313.3
313.214
313.243
313.402
310.022
309.891
309.817
309.701
309.787
309.932
310.118
310.27
310.473
310.636
310.646
310.577
310.425
310.162
309.987
309.81
309.54
309.474
309.477
309.597
306.01
305.957
305.906
305.833
305.881
305.974
306.07
306.166
306.283
306.378
306.403
306.361
306.26
306.109
305.993
305.903
305.766
305.696
305.693
305.786
302.01
301.999
301.972
301.949
301.967
302.012
302.03
302.071
302.106
302.141
302.15
302.132
302.098
302.048
302.006
301.988
301.946
301.907
301.9
301.942
330.69
330.204
330.017
329.893
329.918
330.346
330.805
331.259
331.805
332.127
332.383
332.057
331.508
330.872
330.338
329.583
329.06
328.894
328.957
329.213
326.645
326.261
326.085
325.978
326.025
326.366
326.786
327.193
327.672
327.965
328.176
327.904
327.41
326.847
326.432
325.753
325.296
325.141
325.219
325.405
322.574
322.267
322.128
322.04
322.101
322.387
322.729
323.105
323.503
323.743
323.926
323.691
323.286
322.807
322.425
321.871
321.494
321.347
321.427
321.566
318.501
318.256
318.171
318.09
318.146
318.365
318.649
318.983
319.28
319.466
319.629
319.452
319.107
318.722
318.386
317.961
317.65
317.511
317.609
317.69
314.41
314.22
314.165
314.111
314.146
314.311
314.562
314.798
315.038
315.167
315.296
315.167
314.897
314.579
314.321
313.979
313.752
313.655
313.755
313.794
310.304
310.183
310.129
310.101
310.139
310.236
310.437
310.58
310.769
310.852
310.953
310.851
310.669
310.432
310.243
310.002
309.841
309.769
309.865
309.888
306.187
306.121
306.08
306.097
306.111
306.15
306.272
306.343
306.473
306.517
306.596
306.527
306.422
306.272
306.164
306.011
305.905
305.877
305.937
305.951
302.086
302.055
302.04
302.042
302.057
302.055
302.096
302.121
302.168
302.188
302.213
302.19
302.151
302.093
302.075
302.013
301.983
301.962
301.995
301.998
331.62
331.241
330.919
330.847
330.982
331.242
331.67
332.037
332.501
332.995
333.067
332.853
332.29
331.644
331.118
330.454
329.891
329.805
329.891
329.946
327.455
327.168
326.887
326.824
326.948
327.189
327.534
327.886
328.259
328.692
328.779
328.612
328.114
327.535
327.097
326.522
326.028
325.971
326.018
326.05
323.272
323.042
322.82
322.766
322.867
323.075
323.38
323.689
323.997
324.368
324.443
324.312
323.865
323.382
323.004
322.543
322.108
322.076
322.092
322.124
319.083
318.892
318.709
318.675
318.743
318.918
319.201
319.439
319.684
319.982
320.078
319.98
319.578
319.206
318.877
318.512
318.151
318.123
318.112
318.154
314.864
314.703
314.547
314.564
314.59
314.737
314.993
315.155
315.349
315.562
315.691
315.596
315.271
314.995
314.704
314.433
314.147
314.134
314.113
314.149
310.65
310.51
310.403
310.427
310.419
310.528
310.733
310.84
310.986
311.122
311.247
311.178
310.921
310.742
310.527
310.339
310.11
310.111
310.109
310.128
306.408
306.313
306.239
306.289
306.267
306.316
306.462
306.522
306.609
306.678
306.785
306.723
306.561
306.462
306.323
306.223
306.082
306.067
306.062
306.094
302.149
302.114
302.087
302.108
302.098
302.117
302.166
302.185
302.224
302.245
302.269
302.261
302.209
302.162
302.121
302.089
302.038
302.028
302.038
302.049
332.588
332.224
331.973
331.826
331.899
332.045
332.518
332.949
333.206
333.698
333.754
333.657
332.95
332.279
331.898
331.379
330.874
330.717
330.598
330.877
328.328
327.991
327.804
327.702
327.765
327.907
328.289
328.647
328.902
329.334
329.408
329.316
328.701
328.081
327.772
327.314
326.873
326.732
326.632
326.854
324.036
323.743
323.6
323.53
323.584
323.697
324.031
324.314
324.562
324.933
324.985
324.902
324.385
323.838
323.59
323.209
322.829
322.722
322.619
322.79
319.695
319.462
319.379
319.303
319.335
319.46
319.695
319.968
320.167
320.471
320.521
320.466
320.032
319.555
319.39
319.073
318.753
318.646
318.57
318.683
315.364
315.144
315.09
315.052
315.059
315.172
315.344
315.598
315.727
315.945
316.022
315.982
315.637
315.232
315.131
314.877
314.639
314.535
314.464
314.557
310.992
310.846
310.777
310.78
310.782
310.852
310.975
311.166
311.262
311.396
311.478
311.474
311.205
310.901
310.841
310.647
310.481
310.395
310.341
310.42
306.616
306.515
306.463
306.492
306.482
306.537
306.594
306.718
306.762
306.868
306.899
306.918
306.726
306.559
306.528
306.381
306.308
306.239
306.21
306.269
302.221
302.179
302.166
302.174
302.177
302.201
302.208
302.253
302.274
302.304
302.319
302.33
302.252
302.19
302.186
302.134
302.123
302.092
302.092
302.11
333.668
333.18
333.029
332.775
332.922
333.056
333.348
333.735
333.991
334.315
334.361
334.26
333.714
333.046
332.72
332.085
331.591
331.511
331.483
331.695
329.246
328.854
328.724
328.519
328.644
328.759
329.024
329.372
329.576
329.873
329.903
329.842
329.35
328.765
328.513
327.951
327.528
327.417
327.409
327.56
324.791
324.496
324.357
324.218
324.318
324.401
324.613
324.95
325.101
325.379
325.414
325.362
324.935
324.432
324.239
323.746
323.384
323.287
323.292
323.392
320.325
320.104
319.975
319.888
319.938
320.013
320.168
320.477
320.61
320.834
320.879
320.824
320.476
320.073
319.913
319.48
319.208
319.12
319.107
319.175
315.834
315.661
315.567
315.501
315.544
315.64
315.696
315.962
316.074
316.247
316.282
316.249
316.003
315.656
315.519
315.194
315.007
314.899
314.898
314.957
311.322
311.205
311.13
311.108
311.146
311.223
311.23
311.41
311.521
311.622
311.657
311.632
311.475
311.194
311.107
310.877
310.756
310.661
310.659
310.7
306.81
306.725
306.683
306.67
306.698
306.756
306.769
306.845
306.932
306.998
307
306.993
306.92
306.729
306.685
306.546
306.465
306.42
306.41
306.442
302.293
302.263
302.238
302.238
302.247
302.265
302.272
302.292
302.323
302.347
302.344
302.342
302.316
302.258
302.249
302.19
302.162
302.153
302.145
302.16
334.659
334.291
334.004
333.794
333.921
334.106
334.241
334.528
334.72
334.974
334.883
334.807
334.475
333.93
333.477
332.884
332.31
332.298
332.349
332.512
330.079
329.812
329.576
329.411
329.536
329.7
329.812
330.063
330.208
330.456
330.393
330.3
330.008
329.544
329.17
328.617
328.139
328.108
328.14
328.277
325.502
325.286
325.124
324.966
325.075
325.244
325.32
325.538
325.671
325.883
325.837
325.752
325.48
325.105
324.786
324.323
323.938
323.854
323.868
324
320.908
320.757
320.605
320.461
320.576
320.73
320.784
320.966
321.089
321.251
321.235
321.142
320.917
320.624
320.335
319.958
319.653
319.561
319.562
319.664
316.317
316.178
316.058
315.928
316.045
316.171
316.213
316.353
316.46
316.575
316.565
316.498
316.298
316.089
315.879
315.568
315.349
315.256
315.244
315.313
311.678
311.577
311.488
311.388
311.488
311.57
311.622
311.705
311.794
311.865
311.869
311.795
311.671
311.524
311.379
311.138
311.001
310.932
310.911
310.955
307.016
306.968
306.903
306.828
306.917
306.933
306.996
307.037
307.084
307.123
307.15
307.087
307.016
306.935
306.843
306.697
306.612
306.566
306.568
306.579
302.35
302.342
302.328
302.285
302.314
302.332
302.345
302.356
302.374
302.389
302.397
302.377
302.354
302.327
302.299
302.252
302.213
302.198
302.196
302.203
335.796
335.272
334.975
334.91
334.896
334.991
335.095
335.322
335.452
335.779
335.539
335.379
335.05
334.643
334.145
333.633
333.281
333.136
333.166
333.517
331.132
330.683
330.451
330.358
330.359
330.466
330.559
330.745
330.871
331.16
330.937
330.803
330.532
330.162
329.756
329.294
328.969
328.855
328.87
329.175
326.408
326.059
325.885
325.761
325.771
325.886
325.983
326.124
326.23
326.445
326.279
326.162
325.96
325.621
325.278
324.89
324.626
324.514
324.526
324.776
321.657
321.396
321.274
321.122
321.139
321.241
321.32
321.423
321.537
321.68
321.568
321.477
321.319
321.011
320.74
320.456
320.232
320.119
320.134
320.315
316.877
316.696
316.614
316.455
316.484
316.554
316.631
316.687
316.802
316.89
316.801
316.758
316.625
316.372
316.186
315.967
315.8
315.68
315.691
315.833
312.096
311.957
311.916
311.787
311.802
311.829
311.909
311.942
312.032
312.073
312.013
311.998
311.903
311.708
311.602
311.443
311.344
311.224
311.247
311.328
307.281
307.189
307.165
307.101
307.08
307.093
307.172
307.177
307.234
307.243
307.195
307.232
307.164
307.027
306.972
306.885
306.85
306.733
306.779
306.792
302.444
302.403
302.393
302.383
302.376
302.373
302.401
302.401
302.425
302.433
302.41
302.434
302.408
302.36
302.347
302.308
302.306
302.241
302.275
302.262
336.713
336.3
335.957
335.831
335.718
335.822
335.868
335.962
336.182
336.299
336.258
336.017
335.702
335.354
335.003
334.521
334.107
333.925
334.072
334.387
331.924
331.587
331.28
331.191
331.066
331.182
331.237
331.307
331.509
331.642
331.567
331.372
331.079
330.794
330.494
330.072
329.714
329.543
329.653
329.935
327.09
326.824
326.578
326.495
326.391
326.477
326.529
326.598
326.772
326.898
326.817
326.663
326.412
326.161
325.923
325.554
325.248
325.089
325.171
325.42
322.236
322.022
321.843
321.737
321.677
321.713
321.779
321.83
321.98
322.086
322.026
321.883
321.71
321.448
321.297
320.97
320.749
320.6
320.659
320.861
317.329
317.167
317.049
316.926
316.903
316.916
316.985
317.015
317.134
317.231
317.161
317.059
316.941
316.717
316.612
316.354
316.193
316.101
316.095
316.27
312.41
312.276
312.191
312.112
312.103
312.089
312.163
312.171
312.278
312.324
312.296
312.194
312.135
311.949
311.88
311.706
311.596
311.53
311.501
311.636
307.474
307.37
307.323
307.29
307.283
307.259
307.308
307.311
307.376
307.416
307.406
307.328
307.295
307.171
307.133
307.039
306.969
306.953
306.911
306.991
302.51
302.478
302.455
302.449
302.447
302.423
302.447
302.443
302.477
302.493
302.485
302.46
302.456
302.408
302.392
302.351
302.329
302.333
302.318
302.346
337.561
337.255
336.971
336.768
336.47
336.53
336.679
336.672
336.829
336.947
336.876
336.633
336.314
336.027
335.616
335.305
334.971
334.767
334.968
335.203
332.648
332.382
332.156
332.003
331.731
331.793
331.921
331.913
332.065
332.16
332.11
331.895
331.614
331.38
331.032
330.768
330.456
330.277
330.446
330.632
327.7
327.476
327.307
327.185
326.964
327.013
327.104
327.095
327.227
327.322
327.276
327.097
326.84
326.652
326.383
326.14
325.862
325.732
325.853
326.006
322.72
322.535
322.414
322.314
322.131
322.19
322.237
322.216
322.332
322.437
322.379
322.27
322.034
321.856
321.678
321.446
321.228
321.124
321.19
321.318
317.709
317.574
317.489
317.36
317.266
317.322
317.335
317.323
317.422
317.481
317.454
317.38
317.188
317.022
316.918
316.734
316.56
316.484
316.503
316.62
312.666
312.584
312.526
312.395
312.378
312.42
312.406
312.409
312.486
312.506
312.495
312.425
312.284
312.162
312.112
311.992
311.85
311.796
311.8
311.898
307.607
307.562
307.535
307.459
307.433
307.459
307.455
307.457
307.524
307.517
307.51
307.466
307.372
307.309
307.278
307.212
307.135
307.088
307.082
307.134
302.556
302.534
302.528
302.494
302.49
302.486
302.499
302.496
302.529
302.522
302.519
302.505
302.461
302.456
302.436
302.422
302.403
302.382
302.374
302.386
338.592
338.191
337.768
337.629
337.307
337.359
337.586
337.482
337.584
337.541
337.439
337.266
336.998
336.621
336.289
336.004
335.707
335.549
335.81
336.053
333.54
333.229
332.882
332.758
332.435
332.513
332.709
332.647
332.725
332.674
332.579
332.444
332.223
331.901
331.582
331.346
331.089
330.944
331.168
331.371
328.425
328.215
327.918
327.832
327.536
327.613
327.74
327.757
327.799
327.734
327.673
327.563
327.379
327.098
326.843
326.634
326.406
326.282
326.45
326.636
323.277
323.169
322.903
322.858
322.606
322.671
322.766
322.784
322.831
322.75
322.703
322.645
322.486
322.236
322.049
321.863
321.657
321.571
321.689
321.867
318.124
318.076
317.852
317.805
317.623
317.687
317.745
317.779
317.81
317.747
317.709
317.663
317.549
317.331
317.212
317.027
316.881
316.807
316.905
317.053
312.963
312.93
312.774
312.725
312.612
312.669
312.703
312.74
312.741
312.688
312.688
312.648
312.561
312.419
312.332
312.158
312.081
312.033
312.117
312.203
307.781
307.782
307.682
307.633
307.592
307.617
307.645
307.669
307.665
307.613
307.645
307.607
307.553
307.462
307.437
307.292
307.271
307.237
307.296
307.323
302.606
302.613
302.568
302.544
302.542
302.548
302.561
302.564
302.569
302.56
302.564
302.553
302.533
302.512
302.497
302.439
302.434
302.435
302.456
302.469
339.556
339.067
338.642
338.518
338.192
338.085
338.157
338.06
338.143
338.069
337.876
337.782
337.569
337.217
336.959
336.633
336.344
336.285
336.498
336.922
334.355
333.976
333.582
333.509
333.208
333.105
333.206
333.119
333.206
333.144
332.963
332.888
332.713
332.383
332.154
331.887
331.609
331.566
331.748
332.133
329.111
328.877
328.49
328.456
328.182
328.093
328.175
328.129
328.198
328.139
327.992
327.925
327.79
327.468
327.309
327.075
326.86
326.797
326.938
327.272
323.848
323.713
323.344
323.351
323.095
323.037
323.114
323.095
323.147
323.079
322.999
322.92
322.834
322.535
322.409
322.207
322.034
321.994
322.088
322.371
318.568
318.501
318.209
318.212
317.99
317.968
318.026
318.033
318.038
317.97
317.954
317.877
317.817
317.566
317.472
317.313
317.187
317.141
317.199
317.442
313.267
313.23
313.041
313.041
312.88
312.877
312.902
312.907
312.926
312.869
312.876
312.788
312.767
312.587
312.507
312.377
312.294
312.267
312.311
312.496
307.966
307.955
307.84
307.829
307.764
307.755
307.763
307.768
307.786
307.743
307.75
307.696
307.685
307.572
307.522
307.448
307.38
307.378
307.398
307.517
302.663
302.672
302.625
302.612
302.598
302.6
302.597
302.606
302.62
302.598
302.594
302.575
302.581
302.543
302.532
302.493
302.478
302.467
302.471
302.532
340.196
339.749
339.281
338.933
338.725
338.651
338.625
338.55
338.579
338.562
338.3
338.245
338.012
337.738
337.498
337.191
336.857
336.933
337.11
337.455
334.893
334.547
334.102
333.82
333.64
333.586
333.579
333.536
333.544
333.527
333.293
333.262
333.069
332.818
332.616
332.357
332.068
332.121
332.281
332.552
329.578
329.318
328.916
328.675
328.519
328.48
328.491
328.47
328.491
328.439
328.263
328.218
328.074
327.832
327.694
327.464
327.22
327.266
327.412
327.637
324.235
324.041
323.722
323.517
323.369
323.346
323.363
323.357
323.366
323.315
323.169
323.124
323.024
322.83
322.726
322.519
322.324
322.357
322.477
322.69
318.869
318.712
318.492
318.329
318.195
318.185
318.218
318.202
318.21
318.183
318.05
318.031
317.945
317.816
317.717
317.573
317.42
317.42
317.495
317.695
313.506
313.39
313.219
313.12
313.009
313.001
313.042
313.032
313.021
313.011
312.938
312.92
312.842
312.762
312.682
312.577
312.467
312.454
312.5
312.663
308.123
308.047
307.953
307.883
307.825
307.813
307.834
307.834
307.831
307.836
307.782
307.75
307.735
307.678
307.631
307.569
307.505
307.486
307.529
307.616
302.722
302.695
302.672
302.646
302.638
302.625
302.628
302.631
302.628
302.633
302.611
302.591
302.588
302.583
302.556
302.54
302.516
302.509
302.511
302.554
)
;

boundaryField
{
    hotSide
    {
        type            fixedGradient;
        gradient        nonuniform List<scalar> 
400
(
268.535
269.313
271.739
275.77
281.241
287.913
295.533
303.868
312.723
321.949
331.43
341.085
350.853
360.698
370.596
380.537
390.519
400.545
410.623
420.758
258.027
258.947
261.63
266.024
271.927
279.058
287.127
295.874
305.093
314.625
324.357
334.206
344.118
354.06
364.016
373.982
383.963
393.97
404.017
414.115
251.973
253.19
256.147
260.785
266.904
274.224
282.454
291.335
300.655
310.256
320.019
329.865
339.74
349.615
359.478
369.331
379.184
389.055
398.96
408.915
250.086
251.744
254.999
259.79
265.945
273.223
281.363
290.126
299.309
308.753
318.339
327.987
337.645
347.286
356.902
366.5
376.095
385.708
395.36
405.07
251.235
253.416
257.011
261.955
268.105
275.262
283.206
291.725
300.629
309.766
319.021
328.314
337.599
346.854
356.078
365.285
374.496
383.736
393.031
402.402
254.133
256.868
260.855
266.022
272.239
279.336
287.12
295.397
303.995
312.767
321.605
330.438
339.231
347.974
356.681
365.377
374.093
382.862
391.714
400.675
257.722
261.013
265.44
270.92
277.324
284.489
292.23
300.36
308.706
317.126
325.522
333.836
342.055
350.194
358.287
366.38
374.519
382.746
391.099
399.606
261.19
265.012
269.903
275.77
282.477
289.851
297.698
305.812
314.007
322.135
330.102
337.876
345.474
352.949
360.371
367.811
375.334
382.995
390.835
398.884
263.897
268.18
273.511
279.79
286.869
294.56
302.64
310.869
319.027
326.942
334.525
341.772
348.748
355.556
362.31
369.112
376.046
383.177
390.548
398.189
265.331
269.944
275.617
282.244
289.673
297.696
306.059
314.48
322.687
330.475
337.752
344.548
350.984
357.22
363.412
369.69
376.153
382.87
389.884
397.223
265.134
269.877
275.704
282.511
290.139
298.371
306.93
315.502
323.774
331.511
338.618
345.149
351.267
357.169
363.039
369.025
375.232
381.732
388.567
395.762
263.154
267.784
273.522
280.263
287.847
296.051
304.597
313.165
321.444
329.196
336.324
342.88
349.022
354.946
360.836
366.842
373.071
379.599
386.47
393.711
259.511
263.789
269.202
275.644
282.954
290.913
299.252
307.679
315.913
323.745
331.075
337.926
344.414
350.693
356.925
363.245
369.761
376.549
383.663
391.131
254.602
258.34
263.263
269.267
276.189
283.817
291.898
300.169
308.387
316.367
324.009
331.301
338.305
345.128
351.891
358.711
365.689
372.903
380.41
388.247
249.091
252.173
256.531
262.067
268.619
275.967
283.867
292.068
300.35
308.54
316.533
324.29
331.835
339.232
346.569
353.943
361.444
369.154
377.131
385.417
243.899
246.276
250.069
255.19
261.462
268.647
276.485
284.722
293.138
301.565
309.893
318.067
326.085
333.985
341.833
349.71
357.703
365.892
374.342
383.093
240.234
241.921
245.195
249.972
256.051
263.159
271.004
279.315
287.87
296.499
305.09
313.581
321.957
330.24
338.483
346.759
355.154
363.75
372.618
381.796
239.543
240.63
243.441
247.897
253.775
260.767
268.555
276.857
285.448
294.16
302.884
311.554
320.149
328.682
337.195
345.756
354.448
363.356
372.551
382.074
243.104
243.757
246.156
250.232
255.763
262.445
269.965
278.047
286.472
295.08
303.762
312.452
321.121
329.775
338.448
347.195
356.092
365.218
374.639
384.387
251.312
251.717
253.75
257.357
262.355
268.489
275.488
283.104
291.138
299.438
307.897
316.445
325.05
333.706
342.435
351.279
360.298
369.551
379.088
388.935
)
;
    }
    coldSide
    {
        type            mixed;
        refValue        uniform 300;
        refGradient     uniform 0;
        valueFraction   uniform 0.991591;
        source          uniform 0;
        value           nonuniform List<scalar> 
400
(
300.014
300.014
300.014
300.015
300.015
300.015
300.016
300.016
300.017
300.018
300.018
300.019
300.019
300.02
300.021
300.021
300.021
300.022
300.022
300.023
300.014
300.014
300.014
300.014
300.015
300.015
300.015
300.016
300.017
300.017
300.018
300.018
300.019
300.02
300.02
300.021
300.021
300.022
300.022
300.023