/*--------------------------------*- C++ -*----------------------------------*\
| =========                 |                                                 |
| \\      /  F ield         | OpenFOAM: The Open Source CFD Toolbox           |
|  \\    /   O peration     | Version:  2212                                  |
|   \\  /    A nd           | Website:  www.openfoam.com                      |
|    \\/     M anipulation  |                                                 |
\*---------------------------------------------------------------------------*/
FoamFile
{
    version     2.0;
    format      ascii;
    arch        "LSB;label=32;scalar=64";
    class       volScalarField;
    location    "0";
    object      Ttrue;
}
// * * * * * * * * * * * * * * * * * * * * * * * * * * * * * * * * * * * * * //

dimensions      [0 0 0 1 0 0 0];

internalField   nonuniform List<scalar> 
3200
(
325.106
325.278
325.499
325.739
325.987
326.23
326.454
326.643
326.781
326.854
326.854
326.781
326.643
326.454
326.23
325.987
325.739
325.499
325.278
325.106
321.617
321.763
321.954
322.162
322.376
322.586
322.78
322.943
323.063
323.125
323.125
323.063
322.943
322.78
322.586
322.376
322.162
321.954
321.763
321.617
318.191
318.312
318.472
318.648
318.829
319.006
319.17
319.308
319.409
319.462
319.462
319.409
319.308
319.17
319.006
318.829
318.648
318.472
318.312
318.191
314.816
314.913
315.044
315.188
315.336
315.481
315.614
315.727
315.809
315.852
315.852
315.809
315.727
315.614
315.481
315.336
315.188
315.044
314.913
314.816
311.483
311.558
311.659
311.771
311.886
311.999
312.103
312.19
312.254
312.287
312.287
312.254
312.19
312.103
311.999
311.886
311.771
311.659
311.558
311.483
308.183
308.236
308.308
308.388
308.47
308.551
308.625
308.687
308.733
308.757
308.757
308.733
308.687
308.625
308.551
308.47
308.388
308.308
308.236
308.183
304.906
304.938
304.981
305.029
305.078
305.126
305.171
305.208
305.236
305.25
305.25
305.236
305.208
305.171
305.126
305.078
305.029
304.981
304.938
304.906
301.643
301.654
301.668
301.684
301.701
301.717
301.732
301.744
301.753
301.758
301.758
301.753
301.744
301.732
301.717
301.701
301.684
301.668
301.654
301.643
325.207
325.379
325.597
325.835
326.08
326.321
326.542
326.729
326.865
326.937
326.937
326.865
326.729
326.542
326.321
326.08
325.835
325.597
325.379
325.207
321.705
321.85
322.038
322.244
322.456
322.664
322.856
323.017
323.135
323.197
323.197
323.135
323.017
322.856
322.664
322.456
322.244
322.038
321.85
321.705
318.264
318.384
318.543
318.717
318.896
319.072
319.234
319.37
319.469
319.522
319.522
319.469
319.37
319.234
319.072
318.896
318.717
318.543
318.384
318.264
314.875
314.972
315.102
315.244
315.391
315.534
315.666
315.778
315.859
315.901
315.901
315.859
315.778
315.666
315.534
315.391
315.244
315.102
314.972
314.875
311.529
311.604
311.704
311.815
311.928
312.04
312.143
312.229
312.292
312.325
312.325
312.292
312.229
312.143
312.04
311.928
311.815
311.704
311.604
311.529
308.216
308.268
308.34
308.419
308.5
308.58
308.653
308.715
308.76
308.783
308.783
308.76
308.715
308.653
308.58
308.5
308.419
308.34
308.268
308.216
304.926
304.957
305
305.047
305.096
305.144
305.188
305.225
305.252
305.266
305.266
305.252
305.225
305.188
305.144
305.096
305.047
305
304.957
304.926
301.65
301.66
301.674
301.69
301.707
301.723
301.737
301.75
301.759
301.764
301.764
301.759
301.75
301.737
301.723
301.707
301.69
301.674
301.66
301.65
325.411
325.579
325.794
326.028
326.268
326.503
326.72
326.902
327.035
327.105
327.105
327.035
326.902
326.72
326.503
326.268
326.028
325.794
325.579
325.411
321.88
322.022
322.208
322.41
322.618
322.821
323.008
323.166
323.28
323.341
323.341
323.28
323.166
323.008
322.821
322.618
322.41
322.208
322.022
321.88
318.411
318.529
318.685
318.856
319.032
319.204
319.362
319.495
319.592
319.643
319.643
319.592
319.495
319.362
319.204
319.032
318.856
318.685
318.529
318.411
314.995
315.09
315.217
315.357
315.501
315.641
315.77
315.879
315.958
315.999
315.999
315.958
315.879
315.77
315.641
315.501
315.357
315.217
315.09
314.995
311.622
311.695
311.794
311.902
312.014
312.123
312.223
312.308
312.369
312.401
312.401
312.369
312.308
312.223
312.123
312.014
311.902
311.794
311.695
311.622
308.282
308.333
308.404
308.481
308.561
308.639
308.711
308.771
308.814
308.838
308.838
308.814
308.771
308.711
308.639
308.561
308.481
308.404
308.333
308.282
304.965
304.996
305.038
305.085
305.133
305.179
305.222
305.259
305.285
305.299
305.299
305.285
305.259
305.222
305.179
305.133
305.085
305.038
304.996
304.965
301.663
301.673
301.687
301.703
301.719
301.735
301.749
301.761
301.77
301.775
301.775
301.77
301.761
301.749
301.735
301.719
301.703
301.687
301.673
301.663
325.717
325.881
326.091
326.318
326.551
326.779
326.988
327.164
327.291
327.359
327.359
327.291
327.164
326.988
326.779
326.551
326.318
326.091
325.881
325.717
322.142
322.282
322.462
322.659
322.861
323.058
323.238
323.39
323.501
323.559
323.559
323.501
323.39
323.238
323.058
322.861
322.659
322.462
322.282
322.142
318.631
318.747
318.899
319.066
319.236
319.402
319.555
319.683
319.777
319.826
319.826
319.777
319.683
319.555
319.402
319.236
319.066
318.899
318.747
318.631
315.174
315.267
315.391
315.527
315.667
315.803
315.927
316.032
316.108
316.148
316.148
316.108
316.032
315.927
315.803
315.667
315.527
315.391
315.267
315.174
311.76
311.832
311.928
312.034
312.142
312.248
312.345
312.426
312.485
312.516
312.516
312.485
312.426
312.345
312.248
312.142
312.034
311.928
311.832
311.76
308.38
308.431
308.5
308.575
308.652
308.728
308.797
308.855
308.897
308.919
308.919
308.897
308.855
308.797
308.728
308.652
308.575
308.5
308.431
308.38
305.024
305.055
305.096
305.141
305.187
305.233
305.274
305.309
305.334
305.348
305.348
305.334
305.309
305.274
305.233
305.187
305.141
305.096
305.055
305.024
301.683
301.693
301.706
301.722
301.737
301.752
301.766
301.778
301.786
301.791
301.791
301.786
301.778
301.766
301.752
301.737
301.722
301.706
301.693
301.683
326.125
326.285
326.488
326.707
326.931
327.149
327.349
327.516
327.638
327.702
327.702
327.638
327.516
327.349
327.149
326.931
326.707
326.488
326.285
326.125
322.493
322.628
322.803
322.993
323.187
323.376
323.548
323.693
323.798
323.854
323.854
323.798
323.693
323.548
323.376
323.187
322.993
322.803
322.628
322.493
318.926
319.038
319.186
319.346
319.51
319.669
319.815
319.938
320.026
320.073
320.073
320.026
319.938
319.815
319.669
319.51
319.346
319.186
319.038
318.926
315.414
315.504
315.624
315.755
315.889
316.02
316.139
316.239
316.311
316.349
316.349
316.311
316.239
316.139
316.02
315.889
315.755
315.624
315.504
315.414
311.946
312.015
312.108
312.21
312.314
312.416
312.508
312.586
312.642
312.672
312.672
312.642
312.586
312.508
312.416
312.314
312.21
312.108
312.015
311.946
308.512
308.561
308.628
308.701
308.775
308.847
308.914
308.969
309.009
309.03
309.03
309.009
308.969
308.914
308.847
308.775
308.701
308.628
308.561
308.512
305.103
305.133
305.173
305.216
305.261
305.304
305.344
305.377
305.401
305.414
305.414
305.401
305.377
305.344
305.304
305.261
305.216
305.173
305.133
305.103
301.709
301.719
301.732
301.747
301.762
301.776
301.79
301.801
301.809
301.813
301.813
301.809
301.801
301.79
301.776
301.762
301.747
301.732
301.719
301.709
326.637
326.791
326.985
327.195
327.409
327.616
327.805
327.963
328.077
328.137
328.137
328.077
327.963
327.805
327.616
327.409
327.195
326.985
326.791
326.637
322.933
323.063
323.231
323.412
323.597
323.776
323.94
324.077
324.176
324.227
324.227
324.176
324.077
323.94
323.776
323.597
323.412
323.231
323.063
322.933
319.296
319.403
319.545
319.698
319.854
320.006
320.144
320.26
320.343
320.387
320.387
320.343
320.26
320.144
320.006
319.854
319.698
319.545
319.403
319.296
315.714
315.801
315.916
316.042
316.169
316.293
316.406
316.501
316.569
316.604
316.604
316.569
316.501
316.406
316.293
316.169
316.042
315.916
315.801
315.714
312.178
312.245
312.334
312.432
312.531
312.627
312.715
312.789
312.842
312.869
312.869
312.842
312.789
312.715
312.627
312.531
312.432
312.334
312.245
312.178
308.678
308.725
308.789
308.858
308.929
308.998
309.061
309.113
309.151
309.171
309.171
309.151
309.113
309.061
308.998
308.929
308.858
308.789
308.725
308.678
305.203
305.231
305.269
305.311
305.353
305.395
305.432
305.464
305.486
305.498
305.498
305.486
305.464
305.432
305.395
305.353
305.311
305.269
305.231
305.203
301.742
301.752
301.764
301.778
301.793
301.807
301.819
301.83
301.837
301.841
301.841
301.837
301.83
301.819
301.807
301.793
301.778
301.764
301.752
301.742
327.254
327.4
327.586
327.785
327.986
328.181
328.359
328.506
328.613
328.669
328.669
328.613
328.506
328.359
328.181
327.986
327.785
327.586
327.4
327.254
323.462
323.587
323.747
323.919
324.093
324.262
324.416
324.543
324.636
324.684
324.684
324.636
324.543
324.416
324.262
324.093
323.919
323.747
323.587
323.462
319.74
319.843
319.978
320.123
320.271
320.414
320.544
320.651
320.729
320.77
320.77
320.729
320.651
320.544
320.414
320.271
320.123
319.978
319.843
319.74
316.076
316.159
316.268
316.387
316.508
316.625
316.731
316.819
316.883
316.916
316.916
316.883
316.819
316.731
316.625
316.508
316.387
316.268
316.159
316.076
312.458
312.522
312.607
312.7
312.793
312.884
312.967
313.035
313.084
313.11
313.11
313.084
313.035
312.967
312.884
312.793
312.7
312.607
312.522
312.458
308.877
308.922
308.983
309.049
309.116
309.181
309.24
309.289
309.324
309.342
309.342
309.324
309.289
309.24
309.181
309.116
309.049
308.983
308.922
308.877
305.322
305.349
305.385
305.425
305.465
305.504
305.539
305.569
305.59
305.601
305.601
305.59
305.569
305.539
305.504
305.465
305.425
305.385
305.349
305.322
301.782
301.791
301.803
301.817
301.83
301.843
301.855
301.865
301.872
301.876
301.876
301.872
301.865
301.855
301.843
301.83
301.817
301.803
301.791
301.782
327.975
328.114
328.289
328.477
328.666
328.848
329.013
329.15
329.248
329.3
329.3
329.248
329.15
329.013
328.848
328.666
328.477
328.289
328.114
327.975
324.082
324.2
324.351
324.514
324.677
324.835
324.978
325.096
325.181
325.226
325.226
325.181
325.096
324.978
324.835
324.677
324.514
324.351
324.2
324.082
320.26
320.358
320.486
320.623
320.762
320.895
321.015
321.116
321.187
321.225
321.225
321.187
321.116
321.015
320.895
320.762
320.623
320.486
320.358
320.26
316.499
316.578
316.681
316.794
316.907
317.016
317.115
317.196
317.255
317.286
317.286
317.255
317.196
317.115
317.016
316.907
316.794
316.681
316.578
316.499
312.786
312.846
312.927
313.014
313.102
313.187
313.263
313.327
313.373
313.397
313.397
313.373
313.327
313.263
313.187
313.102
313.014
312.927
312.846
312.786
309.11
309.153
309.211
309.273
309.336
309.396
309.451
309.496
309.529
309.546
309.546
309.529
309.496
309.451
309.396
309.336
309.273
309.211
309.153
309.11
305.462
305.487
305.522
305.559
305.597
305.633
305.666
305.693
305.713
305.723
305.723
305.713
305.693
305.666
305.633
305.597
305.559
305.522
305.487
305.462
301.829
301.838
301.849
301.862
301.874
301.886
301.897
301.907
301.913
301.917
301.917
301.913
301.907
301.897
301.886
301.874
301.862
301.849
301.838
301.829
328.801
328.933
329.098
329.274
329.45
329.619
329.771
329.897
329.987
330.034
330.034
329.987
329.897
329.771
329.619
329.45
329.274
329.098
328.933
328.801
324.792
324.904
325.046
325.198
325.351
325.497
325.629
325.738
325.816
325.856
325.856
325.816
325.738
325.629
325.497
325.351
325.198
325.046
324.904
324.792
320.857
320.949
321.069
321.198
321.327
321.451
321.562
321.654
321.72
321.755
321.755
321.72
321.654
321.562
321.451
321.327
321.198
321.069
320.949
320.857
316.984
317.058
317.156
317.261
317.367
317.468
317.559
317.634
317.688
317.716
317.716
317.688
317.634
317.559
317.468
317.367
317.261
317.156
317.058
316.984
313.161
313.218
313.294
313.376
313.458
313.537
313.607
313.666
313.708
313.73
313.73
313.708
313.666
313.607
313.537
313.458
313.376
313.294
313.218
313.161
309.377
309.418
309.472
309.53
309.589
309.645
309.696
309.738
309.768
309.783
309.783
309.768
309.738
309.696
309.645
309.589
309.53
309.472
309.418
309.377
305.622
305.646
305.678
305.713
305.749
305.782
305.813
305.838
305.856
305.865
305.865
305.856
305.838
305.813
305.782
305.749
305.713
305.678
305.646
305.622
301.883
301.891
301.902
301.913
301.925
301.936
301.947
301.955
301.961
301.964
301.964
301.961
301.955
301.947
301.936
301.925
301.913
301.902
301.891
301.883
329.735
329.858
330.013
330.176
330.34
330.495
330.635
330.749
330.832
330.874
330.874
330.832
330.749
330.635
330.495
330.34
330.176
330.013
329.858
329.735
325.594
325.699
325.832
325.974
326.115
326.25
326.371
326.47
326.541
326.578
326.578
326.541
326.47
326.371
326.25
326.115
325.974
325.832
325.699
325.594
321.53
321.617
321.73
321.849
321.969
322.083
322.185
322.269
322.329
322.361
322.361
322.329
322.269
322.185
322.083
321.969
321.849
321.73
321.617
321.53
317.531
317.601
317.693
317.791
317.889
317.982
318.065
318.134
318.183
318.209
318.209
318.183
318.134
318.065
317.982
317.889
317.791
317.693
317.601
317.531
313.585
313.639
313.71
313.786
313.862
313.934
313.999
314.053
314.091
314.111
314.111
314.091
314.053
313.999
313.934
313.862
313.786
313.71
313.639
313.585
309.679
309.717
309.768
309.822
309.877
309.928
309.975
310.013
310.04
310.055
310.055
310.04
310.013
309.975
309.928
309.877
309.822
309.768
309.717
309.679
305.803
305.825
305.856
305.888
305.921
305.952
305.98
306.003
306.019
306.028
306.028
306.019
306.003
305.98
305.952
305.921
305.888
305.856
305.825
305.803
301.943
301.951
301.961
301.972
301.983
301.993
302.003
302.01
302.016
302.019
302.019
302.016
302.01
302.003
301.993
301.983
301.972
301.961
301.951
301.943
330.775
330.891
331.035
331.186
331.336
331.479
331.606
331.711
331.785
331.824
331.824
331.785
331.711
331.606
331.479
331.336
331.186
331.035
330.891
330.775
326.488
326.586
326.71
326.841
326.971
327.095
327.205
327.296
327.36
327.393
327.393
327.36
327.296
327.205
327.095
326.971
326.841
326.71
326.586
326.488
322.281
322.363
322.467
322.578
322.688
322.793
322.886
322.962
323.017
323.045
323.045
323.017
322.962
322.886
322.793
322.688
322.578
322.467
322.363
322.281
318.142
318.207
318.293
318.383
318.474
318.559
318.635
318.698
318.742
318.765
318.765
318.742
318.698
318.635
318.559
318.474
318.383
318.293
318.207
318.142
314.058
314.108
314.174
314.244
314.315
314.381
314.44
314.489
314.524
314.542
314.542
314.524
314.489
314.44
314.381
314.315
314.244
314.174
314.108
314.058
310.016
310.051
310.098
310.149
310.199
310.246
310.289
310.324
310.348
310.361
310.361
310.348
310.324
310.289
310.246
310.199
310.149
310.098
310.051
310.016
306.004
306.025
306.054
306.084
306.114
306.143
306.168
306.189
306.204
306.211
306.211
306.204
306.189
306.168
306.143
306.114
306.084
306.054
306.025
306.004
302.011
302.018
302.027
302.037
302.047
302.057
302.066
302.073
302.077
302.08
302.08
302.077
302.073
302.066
302.057
302.047
302.037
302.027
302.018
302.011
331.924
332.031
332.165
332.304
332.442
332.572
332.688
332.782
332.849
332.884
332.884
332.849
332.782
332.688
332.572
332.442
332.304
332.165
332.031
331.924
327.475
327.566
327.681
327.802
327.921
328.034
328.134
328.216
328.274
328.304
328.304
328.274
328.216
328.134
328.034
327.921
327.802
327.681
327.566
327.475
323.11
323.186
323.283
323.385
323.486
323.581
323.666
323.735
323.784
323.81
323.81
323.784
323.735
323.666
323.581
323.486
323.385
323.283
323.186
323.11
318.816
318.877
318.956
319.04
319.122
319.2
319.27
319.326
319.366
319.387
319.387
319.366
319.326
319.27
319.2
319.122
319.04
318.956
318.877
318.816
314.579
314.626
314.687
314.752
314.817
314.878
314.931
314.975
315.007
315.023
315.023
315.007
314.975
314.931
314.878
314.817
314.752
314.687
314.626
314.579
310.387
310.42
310.464
310.51
310.556
310.6
310.638
310.67
310.692
310.704
310.704
310.692
310.67
310.638
310.6
310.556
310.51
310.464
310.42
310.387
306.227
306.246
306.273
306.301
306.328
306.354
306.377
306.396
306.41
306.417
306.417
306.41
306.396
306.377
306.354
306.328
306.301
306.273
306.246
306.227
302.085
302.092
302.101
302.11
302.119
302.128
302.136
302.142
302.146
302.149
302.149
302.146
302.142
302.136
302.128
302.119
302.11
302.101
302.092
302.085
333.18
333.28
333.403
333.531
333.657
333.776
333.88
333.965
334.025
334.056
334.056
334.025
333.965
333.88
333.776
333.657
333.531
333.403
333.28
333.18
328.554
328.639
328.745
328.856
328.966
329.068
329.158
329.232
329.284
329.311
329.311
329.284
329.232
329.158
329.068
328.966
328.856
328.745
328.639
328.554
324.017
324.087
324.177
324.271
324.363
324.45
324.526
324.589
324.633
324.655
324.655
324.633
324.589
324.526
324.45
324.363
324.271
324.177
324.087
324.017
319.554
319.61
319.683
319.76
319.835
319.906
319.969
320.02
320.056
320.075
320.075
320.056
320.02
319.969
319.906
319.835
319.76
319.683
319.61
319.554
315.15
315.194
315.25
315.31
315.369
315.424
315.473
315.512
315.54
315.555
315.555
315.54
315.512
315.473
315.424
315.369
315.31
315.25
315.194
315.15
310.794
310.824
310.865
310.907
310.949
310.989
311.024
311.052
311.072
311.083
311.083
311.072
311.052
311.024
310.989
310.949
310.907
310.865
310.824
310.794
306.47
306.489
306.513
306.538
306.564
306.587
306.608
306.625
306.637
306.644
306.644
306.637
306.625
306.608
306.587
306.564
306.538
306.513
306.489
306.47
302.167
302.173
302.181
302.189
302.198
302.206
302.213
302.219
302.223
302.225
302.225
302.223
302.219
302.213
302.206
302.198
302.189
302.181
302.173
302.167
334.545
334.637
334.75
334.868
334.983
335.09
335.184
335.26
335.314
335.342
335.342
335.314
335.26
335.184
335.09
334.983
334.868
334.75
334.637
334.545
329.727
329.805
329.903
330.004
330.104
330.197
330.278
330.344
330.391
330.415
330.415
330.391
330.344
330.278
330.197
330.104
330.004
329.903
329.805
329.727
325.002
325.066
325.149
325.235
325.319
325.398
325.467
325.523
325.562
325.583
325.583
325.562
325.523
325.467
325.398
325.319
325.235
325.149
325.066
325.002
320.354
320.406
320.474
320.544
320.613
320.677
320.734
320.779
320.812
320.828
320.828
320.812
320.779
320.734
320.677
320.613
320.544
320.474
320.406
320.354
315.77
315.81
315.862
315.917
315.971
316.021
316.065
316.1
316.125
316.138
316.138
316.125
316.1
316.065
316.021
315.971
315.917
315.862
315.81
315.77
311.235
311.263
311.3
311.34
311.378
311.414
311.445
311.47
311.488
311.498
311.498
311.488
311.47
311.445
311.414
311.378
311.34
311.3
311.263
311.235
306.735
306.752
306.774
306.797
306.82
306.842
306.861
306.876
306.887
306.892
306.892
306.887
306.876
306.861
306.842
306.82
306.797
306.774
306.752
306.735
302.255
302.261
302.268
302.276
302.284
302.291
302.297
302.303
302.306
302.308
302.308
302.306
302.303
302.297
302.291
302.284
302.276
302.268
302.261
302.255
336.015
336.101
336.205
336.312
336.416
336.513
336.597
336.666
336.714
336.739
336.739
336.714
336.666
336.597
336.513
336.416
336.312
336.205
336.101
336.015
330.99
331.062
331.152
331.245
331.335
331.419
331.492
331.552
331.593
331.615
331.615
331.593
331.552
331.492
331.419
331.335
331.245
331.152
331.062
330.99
326.062
326.122
326.198
326.276
326.353
326.424
326.486
326.536
326.571
326.59
326.59
326.571
326.536
326.486
326.424
326.353
326.276
326.198
326.122
326.062
321.216
321.265
321.326
321.391
321.453
321.511
321.562
321.603
321.632
321.647
321.647
321.632
321.603
321.562
321.511
321.453
321.391
321.326
321.265
321.216
316.437
316.474
316.522
316.572
316.621
316.666
316.706
316.738
316.76
316.772
316.772
316.76
316.738
316.706
316.666
316.621
316.572
316.522
316.474
316.437
311.71
311.736
311.77
311.806
311.841
311.873
311.901
311.924
311.94
311.949
311.949
311.94
311.924
311.901
311.873
311.841
311.806
311.77
311.736
311.71
307.019
307.035
307.055
307.077
307.098
307.117
307.134
307.148
307.157
307.162
307.162
307.157
307.148
307.134
307.117
307.098
307.077
307.055
307.035
307.019
302.35
302.356
302.363
302.37
302.377
302.383
302.389
302.394
302.397
302.398
302.398
302.397
302.394
302.389
302.383
302.377
302.37
302.363
302.356
302.35
337.586
337.665
337.76
337.858
337.953
338.04
338.116
338.177
338.22
338.242
338.242
338.22
338.177
338.116
338.04
337.953
337.858
337.76
337.665
337.586
332.339
332.405
332.487
332.572
332.654
332.73
332.796
332.849
332.886
332.905
332.905
332.886
332.849
332.796
332.73
332.654
332.572
332.487
332.405
332.339
327.194
327.249
327.318
327.39
327.459
327.524
327.579
327.624
327.656
327.672
327.672
327.656
327.624
327.579
327.524
327.459
327.39
327.318
327.249
327.194
322.136
322.18
322.237
322.296
322.352
322.405
322.451
322.487
322.513
322.526
322.526
322.513
322.487
322.451
322.405
322.352
322.296
322.237
322.18
322.136
317.149
317.183
317.227
317.272
317.316
317.357
317.393
317.422
317.442
317.452
317.452
317.442
317.422
317.393
317.357
317.316
317.272
317.227
317.183
317.149
312.216
312.24
312.271
312.304
312.336
312.365
312.39
312.411
312.425
312.432
312.432
312.425
312.411
312.39
312.365
312.336
312.304
312.271
312.24
312.216
307.322
307.337
307.355
307.375
307.394
307.412
307.427
307.439
307.448
307.452
307.452
307.448
307.439
307.427
307.412
307.394
307.375
307.355
307.337
307.322
302.452
302.457
302.463
302.47
302.476
302.482
302.487
302.491
302.494
302.495
302.495
302.494
302.491
302.487
302.482
302.476
302.47
302.463
302.457
302.452
339.243
339.315
339.403
339.492
339.577
339.656
339.724
339.779
339.817
339.837
339.837
339.817
339.779
339.724
339.656
339.577
339.492
339.403
339.315
339.243
333.758
333.819
333.895
333.972
334.046
334.114
334.174
334.221
334.254
334.272
334.272
334.254
334.221
334.174
334.114
334.046
333.972
333.895
333.819
333.758
328.383
328.434
328.498
328.563
328.626
328.684
328.734
328.774
328.802
328.817
328.817
328.802
328.774
328.734
328.684
328.626
328.563
328.498
328.434
328.383
323.101
323.142
323.194
323.247
323.299
323.346
323.387
323.42
323.443
323.455
323.455
323.443
323.42
323.387
323.346
323.299
323.247
323.194
323.142
323.101
317.895
317.926
317.966
318.008
318.048
318.085
318.117
318.142
318.16
318.169
318.169
318.16
318.142
318.117
318.085
318.048
318.008
317.966
317.926
317.895
312.746
312.768
312.797
312.827
312.855
312.882
312.905
312.923
312.936
312.942
312.942
312.936
312.923
312.905
312.882
312.855
312.827
312.797
312.768
312.746
307.64
307.653
307.67
307.688
307.705
307.721
307.735
307.746
307.753
307.757
307.757
307.753
307.746
307.735
307.721
307.705
307.688
307.67
307.653
307.64
302.558
302.563
302.568
302.574
302.58
302.585
302.59
302.594
302.596
302.598
302.598
302.596
302.594
302.59
302.585
302.58
302.574
302.568
302.563
302.558
340.946
341.012
341.092
341.173
341.251
341.322
341.384
341.433
341.467
341.485
341.485
341.467
341.433
341.384
341.322
341.251
341.173
341.092
341.012
340.946
335.211
335.267
335.336
335.406
335.474
335.536
335.589
335.632
335.662
335.677
335.677
335.662
335.632
335.589
335.536
335.474
335.406
335.336
335.267
335.211
329.596
329.642
329.7
329.76
329.817
329.87
329.915
329.951
329.976
329.989
329.989
329.976
329.951
329.915
329.87
329.817
329.76
329.7
329.642
329.596
324.081
324.119
324.166
324.215
324.262
324.305
324.342
324.372
324.392
324.403
324.403
324.392
324.372
324.342
324.305
324.262
324.215
324.166
324.119
324.081
318.65
318.678
318.715
318.753
318.79
318.823
318.852
318.875
318.891
318.899
318.899
318.891
318.875
318.852
318.823
318.79
318.753
318.715
318.678
318.65
313.282
313.302
313.329
313.356
313.382
313.406
313.426
313.443
313.454
313.46
313.46
313.454
313.443
313.426
313.406
313.382
313.356
313.329
313.302
313.282
307.96
307.972
307.988
308.004
308.02
308.034
308.047
308.056
308.063
308.067
308.067
308.063
308.056
308.047
308.034
308.02
308.004
307.988
307.972
307.96
302.665
302.669
302.675
302.68
302.685
302.69
302.694
302.698
302.7
302.701
302.701
302.7
302.698
302.694
302.69
302.685
302.68
302.675
302.669
302.665
342.59
342.651
342.725
342.8
342.871
342.936
342.992
343.036
343.067
343.083
343.083
343.067
343.036
342.992
342.936
342.871
342.8
342.725
342.651
342.59
336.597
336.649
336.712
336.777
336.839
336.896
336.944
336.983
337.01
337.023
337.023
337.01
336.983
336.944
336.896
336.839
336.777
336.712
336.649
336.597
330.74
330.783
330.837
330.892
330.944
330.992
331.033
331.066
331.089
331.101
331.101
331.089
331.066
331.033
330.992
330.944
330.892
330.837
330.783
330.74
324.998
325.033
325.077
325.122
325.165
325.204
325.238
325.265
325.283
325.293
325.293
325.283
325.265
325.238
325.204
325.165
325.122
325.077
325.033
324.998
319.351
319.377
319.411
319.446
319.48
319.511
319.537
319.558
319.572
319.58
319.58
319.572
319.558
319.537
319.511
319.48
319.446
319.411
319.377
319.351
313.776
313.795
313.819
313.845
313.869
313.89
313.909
313.924
313.935
313.94
313.94
313.935
313.924
313.909
313.89
313.869
313.845
313.819
313.795
313.776
308.254
308.265
308.28
308.295
308.31
308.323
308.334
308.343
308.349
308.353
308.353
308.349
308.343
308.334
308.323
308.31
308.295
308.28
308.265
308.254
302.763
302.767
302.772
302.777
302.782
302.786
302.79
302.793
302.795
302.796
302.796
302.795
302.793
302.79
302.786
302.782
302.777
302.772
302.767
302.763
343.891
343.949
344.018
344.088
344.155
344.215
344.267
344.308
344.337
344.352
344.352
344.337
344.308
344.267
344.215
344.155
344.088
344.018
343.949
343.891
337.651
337.7
337.76
337.821
337.88
337.932
337.978
338.014
338.039
338.052
338.052
338.039
338.014
337.978
337.932
337.88
337.821
337.76
337.7
337.651
331.583
331.624
331.675
331.727
331.776
331.821
331.859
331.89
331.911
331.922
331.922
331.911
331.89
331.859
331.821
331.776
331.727
331.675
331.624
331.583
325.657
325.69
325.731
325.774
325.814
325.851
325.883
325.908
325.926
325.935
325.935
325.926
325.908
325.883
325.851
325.814
325.774
325.731
325.69
325.657
319.845
319.87
319.902
319.935
319.967
319.996
320.021
320.04
320.054
320.061
320.061
320.054
320.04
320.021
319.996
319.967
319.935
319.902
319.87
319.845
314.12
314.138
314.161
314.185
314.207
314.228
314.246
314.26
314.27
314.275
314.275
314.27
314.26
314.246
314.228
314.207
314.185
314.161
314.138
314.12
308.457
308.467
308.481
308.496
308.509
308.522
308.532
308.541
308.547
308.55
308.55
308.547
308.541
308.532
308.522
308.509
308.496
308.481
308.467
308.457
302.831
302.834
302.839
302.844
302.848
302.852
302.856
302.859
302.861
302.862
302.862
302.861
302.859
302.856
302.852
302.848
302.844
302.839
302.834
302.831
)
;

boundaryField
{
    hotSide
    {
        type            fixedGradient;
        gradient        nonuniform List<scalar> 
400
(
284.798
285.978
288.34
291.886
296.623
302.557
309.695
318.045
327.616
338.415
350.451
363.731
378.262
394.051
411.103
429.423
449.014
469.879
492.022
515.444
287.071
288.233
290.559
294.054
298.726
304.581
311.631
319.885
329.355
340.05
351.981
365.157
379.586
395.276
412.234
430.464
449.971
470.757
492.827
516.181
289.531
290.671
292.955
296.389
300.983
306.746
313.693
321.836
331.189
341.765
353.576
366.635
380.951
396.532
413.386
431.519
450.935
471.638
493.63
516.913
292.137
293.252
295.487
298.85
303.354
309.012
315.841
323.858
333.079
343.523
355.203
368.133
382.326
397.79
414.534
432.563
451.884
472.5
494.411
517.621
294.816
295.903
298.083
301.367
305.77
311.311
318.011
325.89
334.97
345.271
356.811
369.605
383.668
399.011
415.641
433.566
452.791
473.318
495.15
518.288
297.457
298.514
300.635
303.835
308.132
313.549
320.113
327.849
336.782
346.937
358.335
370.993
384.927
400.148
416.667
434.49
453.622
474.065
495.821
518.891
299.908
300.935
302.998
306.113
310.305
315.601
322.032
329.629
338.421
348.436
359.698
372.228
386.041
401.151
417.567
435.297
454.344
474.711
496.399
519.408
301.988
302.988
304.998
308.038
312.136
317.324
323.637
331.111
339.78
349.674
360.819
373.238
386.948
401.964
418.294
435.946
454.923
475.227
496.859
519.818
303.511
304.49
306.459
309.442
313.468
318.574
324.799
332.181
340.757
350.56
361.619
373.957
387.592
402.538
418.806
436.401
455.328
475.587
497.18
520.103
304.317
305.285
307.233
310.184
314.172
319.233
325.41
332.742
341.268
351.023
362.036
374.33
387.926
402.836
419.07
436.636
455.536
475.773
497.344
520.249
304.317
305.285
307.233
310.184
314.172
319.233
325.41
332.742
341.268
351.023
362.036
374.33
387.926
402.836
419.07
436.636
455.536
475.773
497.344
520.249
303.511
304.49
306.459
309.442
313.468
318.574
324.799
332.181
340.757
350.56
361.619
373.957
387.592
402.538
418.806
436.401
455.328
475.587
497.18
520.103
301.988
302.988
304.998
308.038
312.136
317.324
323.637
331.111
339.78
349.674
360.819
373.238
386.948
401.964
418.294
435.946
454.923
475.227
496.859
519.818
299.908
300.935
302.998
306.113
310.305
315.601
322.032
329.629
338.421
348.436
359.698
372.228
386.041
401.151
417.567
435.297
454.344
474.711
496.399
519.408
297.457
298.514
300.635
303.835
308.132
313.549
320.113
327.849
336.782
346.937
358.335
370.993
384.927
400.148
416.667
434.49
453.622
474.065
495.821
518.891
294.816
295.903
298.083
301.367
305.77
311.311
318.011
325.89
334.97
345.271
356.811
369.605
383.668
399.011
415.641
433.566
452.791
473.318
495.15
518.288
292.137
293.252
295.487
298.85
303.354
309.012
315.841
323.858
333.079
343.523
355.203
368.133
382.326
397.79
414.534
432.563
451.884
472.5
494.411
517.621
289.531
290.671
292.955
296.389
300.983
306.746
313.693
321.836
331.189
341.765
353.576
366.635
380.951
396.532
413.386
431.519
450.935
471.638
493.63
516.913
287.071
288.233
290.559
294.054
298.726
304.581
311.631
319.885
329.355
340.05
351.981
365.157
379.586
395.276
412.234
430.464
449.971
470.757
492.827
516.181
284.798
285.978
288.34
291.886
296.623
302.557
309.695
318.045
327.616
338.415
350.451
363.731
378.262
394.051
411.103
429.423
449.014
469.879
492.022
515.444
)
;
    }
    coldSide
    {
        type            mixed;
        refValue        uniform 300;
        refGradient     uniform 0;
        valueFraction   uniform 0.991591;
        source          uniform 0;
        value           nonuniform List<scalar> 
400
(
300.014
300.014
300.014
300.014
300.014
300.015
300.015
300.015
300.016
300.016
300.017
300.018
300.018
300.019
300.02
300.021
300.022
300.022
300.023
300.024
300.014
300.014
300.014
300.014
300.014
300.015
300.015
300.015
300.016
300.016
300.017
300.018
300.018
300.019
300.02
300.021