/*--------------------------------*- C++ -*----------------------------------*\
| =========                 |                                                 |
| \\      /  F ield         | OpenFOAM: The Open Source CFD Toolbox           |
|  \\    /   O peration     | Version:  2212                                  |
|   \\  /    A nd           | Website:  www.openfoam.com                      |
|    \\/     M anipulation  |                                                 |
\*---------------------------------------------------------------------------*/
FoamFile
{
    version     2.0;
    format      ascii;
    arch        "LSB;label=32;scalar=64";
    class       volScalarField;
    location    "0";
    object      Ttrue;
}
// * * * * * * * * * * * * * * * * * * * * * * * * * * * * * * * * * * * * * //

dimensions      [0 0 0 1 0 0 0];

internalField   nonuniform List<scalar> 
3200
(
342.376
343.453
344.828
346.326
347.868
349.383
350.781
351.961
352.82
353.274
353.274
352.82
351.961
350.781
349.383
347.868
346.326
344.828
343.453
342.376
336.774
337.685
338.871
340.167
341.502
342.812
344.02
345.039
345.782
346.174
346.174
345.782
345.039
344.02
342.812
341.502
340.167
338.871
337.685
336.774
331.152
331.908
332.907
334.002
335.13
336.236
337.257
338.117
338.743
339.074
339.074
338.743
338.117
337.257
336.236
335.13
334.002
332.907
331.908
331.152
325.514
326.122
326.937
327.831
328.754
329.658
330.491
331.194
331.705
331.975
331.975
331.705
331.194
330.491
329.658
328.754
327.831
326.937
326.122
325.514
319.863
320.33
320.962
321.657
322.374
323.076
323.724
324.269
324.666
324.876
324.876
324.666
324.269
323.724
323.076
322.374
321.657
320.962
320.33
319.863
314.202
314.533
314.983
315.479
315.991
316.493
316.955
317.344
317.627
317.777
317.777
317.627
317.344
316.955
316.493
315.991
315.479
314.983
314.533
314.202
308.534
308.731
309.001
309.299
309.606
309.908
310.185
310.419
310.588
310.678
310.678
310.588
310.419
310.185
309.908
309.606
309.299
309.001
308.731
308.534
302.861
302.927
303.017
303.117
303.22
303.321
303.414
303.492
303.549
303.579
303.579
303.549
303.492
303.414
303.321
303.22
303.117
303.017
302.927
302.861
342.465
343.533
344.896
346.38
347.907
349.405
350.786
351.952
352.8
353.248
353.248
352.8
351.952
350.786
349.405
347.907
346.38
344.896
343.533
342.465
336.85
337.754
338.93
340.214
341.535
342.831
344.025
345.032
345.765
346.152
346.152
345.765
345.032
344.025
342.831
341.535
340.214
338.93
337.754
336.85
331.216
331.966
332.957
334.041
335.158
336.253
337.261
338.111
338.729
339.056
339.056
338.729
338.111
337.261
336.253
335.158
334.041
332.957
331.966
331.216
325.567
326.17
326.978
327.864
328.777
329.671
330.495
331.189
331.694
331.96
331.96
331.694
331.189
330.495
329.671
328.777
327.864
326.978
326.17
325.567
319.904
320.367
320.994
321.682
322.392
323.087
323.727
324.266
324.658
324.864
324.864
324.658
324.266
323.727
323.087
322.392
321.682
320.994
320.367
319.904
314.231
314.559
315.006
315.497
316.004
316.5
316.957
317.342
317.621
317.769
317.769
317.621
317.342
316.957
316.5
316.004
315.497
315.006
314.559
314.231
308.551
308.747
309.015
309.31
309.614
309.912
310.186
310.417
310.585
310.673
310.673
310.585
310.417
310.186
309.912
309.614
309.31
309.015
308.747
308.551
302.867
302.932
303.022
303.121
303.223
303.323
303.415
303.492
303.548
303.578
303.578
303.548
303.492
303.415
303.323
303.223
303.121
303.022
302.932
302.867
342.644
343.695
345.035
346.491
347.988
349.453
350.802
351.939
352.766
353.202
353.202
352.766
351.939
350.802
349.453
347.988
346.491
345.035
343.695
342.644
337.005
337.894
339.05
340.31
341.605
342.873
344.04
345.022
345.736
346.113
346.113
345.736
345.022
344.04
342.873
341.605
340.31
339.05
337.894
337.005
331.347
332.085
333.058
334.123
335.218
336.289
337.274
338.103
338.706
339.024
339.024
338.706
338.103
337.274
336.289
335.218
334.123
333.058
332.085
331.347
325.673
326.267
327.061
327.931
328.826
329.701
330.506
331.183
331.675
331.934
331.934
331.675
331.183
330.506
329.701
328.826
327.931
327.061
326.267
325.673
319.986
320.443
321.058
321.734
322.43
323.11
323.735
324.261
324.643
324.845
324.845
324.643
324.261
323.735
323.11
322.43
321.734
321.058
320.443
319.986
314.29
314.613
315.052
315.535
316.031
316.517
316.963
317.339
317.611
317.755
317.755
317.611
317.339
316.963
316.517
316.031
315.535
315.052
314.613
314.29
308.587
308.779
309.042
309.332
309.63
309.922
310.19
310.415
310.579
310.665
310.665
310.579
310.415
310.19
309.922
309.63
309.332
309.042
308.779
308.587
302.879
302.943
303.031
303.128
303.228
303.326
303.416
303.491
303.546
303.575
303.575
303.546
303.491
303.416
303.326
303.228
303.128
303.031
302.943
302.879
342.915
343.941
345.247
346.664
348.116
349.535
350.838
351.934
352.73
353.149
353.149
352.73
351.934
350.838
349.535
348.116
346.664
345.247
343.941
342.915
337.239
338.108
339.234
340.46
341.717
342.944
344.071
345.018
345.706
346.068
346.068
345.706
345.018
344.071
342.944
341.717
340.46
339.234
338.108
337.239
331.544
332.265
333.214
334.25
335.312
336.349
337.301
338.101
338.681
338.987
338.987
338.681
338.101
337.301
336.349
335.312
334.25
333.214
332.265
331.544
325.834
326.414
327.188
328.035
328.903
329.751
330.528
331.181
331.655
331.905
331.905
331.655
331.181
330.528
329.751
328.903
328.035
327.188
326.414
325.834
320.112
320.557
321.157
321.815
322.49
323.149
323.753
324.26
324.628
324.822
324.822
324.628
324.26
323.753
323.149
322.49
321.815
321.157
320.557
320.112
314.379
314.695
315.122
315.592
316.074
316.545
316.976
317.338
317.601
317.739
317.739
317.601
317.338
316.976
316.545
316.074
315.592
315.122
314.695
314.379
308.64
308.828
309.085
309.367
309.656
309.939
310.198
310.415
310.573
310.656
310.656
310.573
310.415
310.198
309.939
309.656
309.367
309.085
308.828
308.64
302.897
302.96
303.046
303.14
303.237
303.332
303.419
303.491
303.544
303.572
303.572
303.544
303.491
303.419
303.332
303.237
303.14
303.046
302.96
302.897
343.281
344.276
345.539
346.905
348.301
349.66
350.906
351.951
352.708
353.107
353.107
352.708
351.951
350.906
349.66
348.301
346.905
345.539
344.276
343.281
337.555
338.397
339.487
340.669
341.877
343.054
344.131
345.034
345.688
346.033
346.033
345.688
345.034
344.131
343.054
341.877
340.669
339.487
338.397
337.555
331.811
332.51
333.428
334.426
335.448
336.442
337.352
338.115
338.667
338.958
338.958
338.667
338.115
337.352
336.442
335.448
334.426
333.428
332.51
331.811
326.052
326.614
327.363
328.179
329.014
329.827
330.571
331.194
331.645
331.882
331.882
331.645
331.194
330.571
329.827
329.014
328.179
327.363
326.614
326.052
320.281
320.713
321.293
321.928
322.577
323.208
323.786
324.27
324.621
324.805
324.805
324.621
324.27
323.786
323.208
322.577
321.928
321.293
320.713
320.281
314.5
314.806
315.219
315.673
316.136
316.587
317
317.345
317.595
317.727
317.727
317.595
317.345
317
316.587
316.136
315.673
315.219
314.806
314.5
308.713
308.895
309.143
309.415
309.694
309.964
310.212
310.419
310.569
310.648
310.648
310.569
310.419
310.212
309.964
309.694
309.415
309.143
308.895
308.713
302.921
302.982
303.065
303.156
303.25
303.34
303.423
303.493
303.543
303.57
303.57
303.543
303.493
303.423
303.34
303.25
303.156
303.065
302.982
302.921
343.746
344.704
345.916
347.222
348.553
349.844
351.022
352.008
352.72
353.095
353.095
352.72
352.008
351.022
349.844
348.553
347.222
345.916
344.704
343.746
337.957
338.768
339.813
340.944
342.096
343.213
344.232
345.085
345.701
346.024
346.024
345.701
345.085
344.232
343.213
342.096
340.944
339.813
338.768
337.957
332.15
332.823
333.704
334.659
335.633
336.577
337.439
338.158
338.679
338.952
338.952
338.679
338.158
337.439
336.577
335.633
334.659
333.704
332.823
332.15
326.329
326.87
327.589
328.37
329.166
329.938
330.642
331.23
331.655
331.878
331.878
331.655
331.23
330.642
329.938
329.166
328.37
327.589
326.87
326.329
320.496
320.912
321.469
322.076
322.695
323.295
323.842
324.299
324.629
324.802
324.802
324.629
324.299
323.842
323.295
322.695
322.076
321.469
320.912
320.496
314.654
314.948
315.345
315.778
316.221
316.649
317.04
317.366
317.602
317.725
317.725
317.602
317.366
317.04
316.649
316.221
315.778
315.345
314.948
314.654
308.805
308.98
309.218
309.479
309.744
310.002
310.236
310.432
310.573
310.648
310.648
310.573
310.432
310.236
310.002
309.744
309.479
309.218
308.98
308.805
302.952
303.011
303.09
303.178
303.267
303.353
303.431
303.497
303.544
303.569
303.569
303.544
303.497
303.431
303.353
303.267
303.178
303.09
303.011
302.952
344.315
345.231
346.386
347.626
348.883
350.098
351.203
352.124
352.788
353.136
353.136
352.788
352.124
351.203
350.098
348.883
347.626
346.386
345.231
344.315
338.449
339.224
340.22
341.293
342.382
343.434
344.39
345.186
345.761
346.062
346.062
345.761
345.186
344.39
343.434
342.382
341.293
340.22
339.224
338.449
332.565
333.208
334.048
334.955
335.875
336.764
337.573
338.245
338.73
338.985
338.985
338.73
338.245
337.573
336.764
335.875
334.955
334.048
333.208
332.565
326.668
327.185
327.87
328.611
329.364
330.091
330.752
331.301
331.698
331.905
331.905
331.698
331.301
330.752
330.091
329.364
328.611
327.87
327.185
326.668
320.759
321.157
321.687
322.264
322.849
323.414
323.928
324.355
324.663
324.824
324.824
324.663
324.355
323.928
323.414
322.849
322.264
321.687
321.157
320.759
314.841
315.123
315.501
315.913
316.331
316.735
317.101
317.406
317.626
317.741
317.741
317.626
317.406
317.101
316.735
316.331
315.913
315.501
315.123
314.841
308.917
309.085
309.312
309.559
309.81
310.053
310.273
310.456
310.588
310.657
310.657
310.588
310.456
310.273
310.053
309.81
309.559
309.312
309.085
308.917
302.99
303.046
303.122
303.205
303.289
303.37
303.444
303.505
303.549
303.573
303.573
303.549
303.505
303.444
303.37
303.289
303.205
303.122
303.046
302.99
344.993
345.863
346.956
348.125
349.304
350.438
351.466
352.319
352.932
353.254
353.254
352.932
352.319
351.466
350.438
349.304
348.125
346.956
345.863
344.993
339.034
339.771
340.714
341.725
342.747
343.729
344.618
345.356
345.887
346.165
346.165
345.887
345.356
344.618
343.729
342.747
341.725
340.714
339.771
339.034
333.06
333.671
334.465
335.32
336.184
337.015
337.766
338.39
338.838
339.073
339.073
338.838
338.39
337.766
337.015
336.184
335.32
334.465
333.671
333.06
327.072
327.563
328.211
328.91
329.617
330.296
330.91
331.42
331.787
331.978
331.978
331.787
331.42
330.91
330.296
329.617
328.91
328.211
327.563
327.072
321.073
321.45
321.953
322.496
323.046
323.574
324.051
324.448
324.732
324.881
324.881
324.732
324.448
324.051
323.574
323.046
322.496
321.953
321.45
321.073
315.065
315.332
315.691
316.079
316.471
316.849
317.19
317.473
317.676
317.782
317.782
317.676
317.473
317.19
316.849
316.471
316.079
315.691
315.332
315.065
309.052
309.211
309.426
309.659
309.895
310.121
310.326
310.496
310.618
310.682
310.682
310.618
310.496
310.326
310.121
309.895
309.659
309.426
309.211
309.052
303.035
303.088
303.16
303.238
303.317
303.393
303.462
303.519
303.559
303.581
303.581
303.559
303.519
303.462
303.393
303.317
303.238
303.16
303.088
303.035
345.784
346.606
347.635
348.729
349.828
350.88
351.828
352.612
353.174
353.468
353.468
353.174
352.612
351.828
350.88
349.828
348.729
347.635
346.606
345.784
339.719
340.414
341.301
342.249
343.2
344.111
344.932
345.611
346.098
346.352
346.352
346.098
345.611
344.932
344.111
343.2
342.249
341.301
340.414
339.719
333.637
334.214
334.962
335.763
336.568
337.338
338.032
338.606
339.017
339.232
339.232
339.017
338.606
338.032
337.338
336.568
335.763
334.962
334.214
333.637
327.544
328.008
328.618
329.272
329.931
330.561
331.128
331.597
331.933
332.109
332.109
331.933
331.597
331.128
330.561
329.931
329.272
328.618
328.008
327.544
321.439
321.796
322.269
322.778
323.29
323.78
324.221
324.586
324.847
324.983
324.983
324.847
324.586
324.221
323.78
323.29
322.778
322.269
321.796
321.439
315.327
315.579
315.916
316.28
316.646
316.996
317.311
317.571
317.758
317.855
317.855
317.758
317.571
317.311
316.996
316.646
316.28
315.916
315.579
315.327
309.209
309.359
309.562
309.78
310
310.21
310.399
310.556
310.667
310.726
310.726
310.667
310.556
310.399
310.21
310
309.78
309.562
309.359
309.209
303.087
303.138
303.205
303.279
303.352
303.423
303.486
303.538
303.576
303.596
303.596
303.576
303.538
303.486
303.423
303.352
303.279
303.205
303.138
303.087
346.695
347.467
348.429
349.448
350.465
351.435
352.304
353.02
353.532
353.799
353.799
353.532
353.02
352.304
351.435
350.465
349.448
348.429
347.467
346.695
340.506
341.159
341.989
342.871
343.753
344.592
345.346
345.966
346.409
346.64
346.64
346.409
345.966
345.346
344.592
343.753
342.871
341.989
341.159
340.506
334.302
334.844
335.544
336.289
337.035
337.745
338.382
338.906
339.281
339.476
339.476
339.281
338.906
338.382
337.745
337.035
336.289
335.544
334.844
334.302
328.087
328.523
329.093
329.703
330.313
330.894
331.415
331.843
332.15
332.309
332.309
332.15
331.843
331.415
330.894
330.313
329.703
329.093
328.523
328.087
321.861
322.196
322.639
323.113
323.587
324.039
324.444
324.777
325.015
325.139
325.139
325.015
324.777
324.444
324.039
323.587
323.113
322.639
322.196
321.861
315.628
315.865
316.181
316.519
316.858
317.181
317.47
317.708
317.878
317.967
317.967
317.878
317.708
317.47
317.181
316.858
316.519
316.181
315.865
315.628
309.39
309.531
309.72
309.924
310.127
310.321
310.495
310.638
310.74
310.793
310.793
310.74
310.638
310.495
310.321
310.127
309.924
309.72
309.531
309.39
303.148
303.195
303.259
303.327
303.395
303.46
303.518
303.566
303.6
303.618
303.618
303.6
303.566
303.518
303.46
303.395
303.327
303.259
303.195
303.148
347.729
348.451
349.347
350.29
351.228
352.116
352.909
353.559
354.023
354.264
354.264
354.023
353.559
352.909
352.116
351.228
350.29
349.347
348.451
347.729
341.4
342.011
342.784
343.601
344.413
345.183
345.87
346.433
346.834
347.043
347.043
346.834
346.433
345.87
345.183
344.413
343.601
342.784
342.011
341.4
335.057
335.564
336.215
336.906
337.594
338.245
338.826
339.302
339.641
339.818
339.818
339.641
339.302
338.826
338.245
337.594
336.906
336.215
335.564
335.057
328.704
329.111
329.642
330.207
330.77
331.302
331.778
332.167
332.445
332.589
332.589
332.445
332.167
331.778
331.302
330.77
330.207
329.642
329.111
328.704
322.341
322.654
323.066
323.505
323.942
324.357
324.726
325.029
325.245
325.357
325.357
325.245
325.029
324.726
324.357
323.942
323.505
323.066
322.654
322.341
315.97
316.192
316.486
316.799
317.112
317.408
317.672
317.889
318.043
318.123
318.123
318.043
317.889
317.672
317.408
317.112
316.799
316.486
316.192
315.97
309.595
309.727
309.903
310.092
310.28
310.457
310.616
310.746
310.838
310.887
310.887
310.838
310.746
310.616
310.457
310.28
310.092
309.903
309.727
309.595
303.217
303.261
303.32
303.383
303.446
303.506
303.559
303.602
303.633
303.649
303.649
303.633
303.602
303.559
303.506
303.446
303.383
303.32
303.261
303.217
348.891
349.564
350.394
351.264
352.124
352.934
353.654
354.242
354.659
354.876
354.876
354.659
354.242
353.654
352.934
352.124
351.264
350.394
349.564
348.891
342.405
342.974
343.69
344.444
345.189
345.891
346.515
347.024
347.386
347.574
347.574
347.386
347.024
346.515
345.891
345.189
344.444
343.69
342.974
342.405
335.906
336.378
336.982
337.619
338.25
338.844
339.371
339.802
340.108
340.267
340.267
340.108
339.802
339.371
338.844
338.25
337.619
336.982
336.378
335.906
329.397
329.777
330.269
330.79
331.306
331.792
332.224
332.576
332.827
332.957
332.957
332.827
332.576
332.224
331.792
331.306
330.79
330.269
329.777
329.397
322.88
323.171
323.553
323.958
324.359
324.738
325.073
325.348
325.542
325.643
325.643
325.542
325.348
325.073
324.738
324.359
323.958
323.553
323.171
322.88
316.355
316.561
316.834
317.123
317.41
317.68
317.92
318.116
318.255
318.327
318.327
318.255
318.116
317.92
317.68
317.41
317.123
316.834
316.561
316.355
309.826
309.949
310.113
310.286
310.459
310.621
310.765
310.883
310.966
311.009
311.009
310.966
310.883
310.765
310.621
310.459
310.286
310.113
309.949
309.826
303.294
303.335
303.39
303.448
303.506
303.56
303.609
303.648
303.676
303.691
303.691
303.676
303.648
303.609
303.56
303.506
303.448
303.39
303.335
303.294
350.185
350.809
351.576
352.375
353.161
353.897
354.548
355.077
355.452
355.646
355.646
355.452
355.077
354.548
353.897
353.161
352.375
351.576
350.809
350.185
343.524
344.052
344.714
345.406
346.087
346.725
347.289
347.748
348.073
348.241
348.241
348.073
347.748
347.289
346.725
346.087
345.406
344.714
344.052
343.524
336.852
337.29
337.847
338.433
339.009
339.549
340.026
340.414
340.689
340.831
340.831
340.689
340.414
340.026
339.549
339.009
338.433
337.847
337.29
336.852
330.17
330.522
330.977
331.456
331.927
332.369
332.76
333.077
333.302
333.418
333.418
333.302
333.077
332.76
332.369
331.927
331.456
330.977
330.522
330.17
323.48
323.75
324.103
324.475
324.842
325.186
325.49
325.737
325.912
326.002
326.002
325.912
325.737
325.49
325.186
324.842
324.475
324.103
323.75
323.48
316.784
316.975
317.227
317.493
317.755
318
318.218
318.394
318.519
318.584
318.584
318.519
318.394
318.218
318
317.755
317.493
317.227
316.975
316.784
310.083
310.198
310.348
310.508
310.666
310.813
310.944
311.05
311.125
311.164
311.164
311.125
311.05
310.944
310.813
310.666
310.508
310.348
310.198
310.083
303.38
303.419
303.469
303.523
303.575
303.625
303.669
303.704
303.729
303.742
303.742
303.729
303.704
303.669
303.625
303.575
303.523
303.469
303.419
303.38
351.614
352.191
352.897
353.629
354.344
355.011
355.598
356.073
356.409
356.582
356.582
356.409
356.073
355.598
355.011
354.344
353.629
352.897
352.191
351.614
344.76
345.248
345.857
346.491
347.111
347.689
348.198
348.61
348.901
349.051
349.051
348.901
348.61
348.198
347.689
347.111
346.491
345.857
345.248
344.76
337.896
338.301
338.814
339.35
339.875
340.364
340.795
341.143
341.389
341.517
341.517
341.389
341.143
340.795
340.364
339.875
339.35
338.814
338.301
337.896
331.023
331.348
331.767
332.206
332.635
333.036
333.388
333.673
333.874
333.979
333.979
333.874
333.673
333.388
333.036
332.635
332.206
331.767
331.348
331.023
324.143
324.393
324.717
325.058
325.393
325.704
325.978
326.2
326.357
326.438
326.438
326.357
326.2
325.978
325.704
325.393
325.058
324.717
324.393
324.143
317.257
317.434
317.665
317.909
318.148
318.371
318.567
318.725
318.837
318.895
318.895
318.837
318.725
318.567
318.371
318.148
317.909
317.665
317.434
317.257
310.368
310.473
310.612
310.758
310.902
311.035
311.153
311.248
311.316
311.35
311.35
311.316
311.248
311.153
311.035
310.902
310.758
310.612
310.473
310.368
303.476
303.511
303.557
303.606
303.654
303.699
303.739
303.771
303.793
303.805
303.805
303.793
303.771
303.739
303.699
303.654
303.606
303.557
303.511
303.476
353.178
353.71
354.358
355.026
355.676
356.279
356.807
357.232
357.532
357.687
357.687
357.532
357.232
356.807
356.279
355.676
355.026
354.358
353.71
353.178
346.112
346.563
347.122
347.701
348.264
348.786
349.244
349.613
349.873
350.007
350.007
349.873
349.613
349.244
348.786
348.264
347.701
347.122
346.563
346.112
339.038
339.411
339.882
340.372
340.849
341.291
341.679
341.991
342.211
342.325
342.325
342.211
341.991
341.679
341.291
340.849
340.372
339.882
339.411
339.038
331.956
332.256
332.64
333.041
333.431
333.793
334.11
334.366
334.546
334.639
334.639
334.546
334.366
334.11
333.793
333.431
333.041
332.64
332.256
331.956
324.867
325.098
325.396
325.708
326.011
326.293
326.54
326.739
326.879
326.951
326.951
326.879
326.739
326.54
326.293
326.011
325.708
325.396
325.098
324.867
317.774
317.938
318.15
318.373
318.59
318.791
318.968
319.11
319.21
319.261
319.261
319.21
319.11
318.968
318.791
318.59
318.373
318.15
317.938
317.774
310.678
310.775
310.903
311.037
311.167
311.288
311.394
311.479
311.539
311.57
311.57
311.539
311.479
311.394
311.288
311.167
311.037
310.903
310.775
310.678
303.58
303.612
303.655
303.7
303.743
303.784
303.819
303.848
303.868
303.879
303.879
303.868
303.848
303.819
303.784
303.743
303.7
303.655
303.612
303.58
354.871
355.361
355.955
356.564
357.153
357.697
358.171
358.553
358.82
358.958
358.958
358.82
358.553
358.171
357.697
357.153
356.564
355.955
355.361
354.871
347.576
347.99
348.502
349.03
349.541
350.013
350.424
350.755
350.986
351.106
351.106
350.986
350.755
350.424
350.013
349.541
349.03
348.502
347.99
347.576
340.273
340.616
341.048
341.495
341.927
342.327
342.675
342.955
343.151
343.252
343.252
343.151
342.955
342.675
342.327
341.927
341.495
341.048
340.616
340.273
332.964
333.24
333.593
333.958
334.312
334.639
334.924
335.153
335.314
335.397
335.397
335.314
335.153
334.924
334.639
334.312
333.958
333.593
333.24
332.964
325.651
325.863
326.136
326.42
326.696
326.95
327.172
327.35
327.475
327.54
327.54
327.475
327.35
327.172
326.95
326.696
326.42
326.136
325.863
325.651
318.333
318.483
318.678
318.881
319.078
319.26
319.419
319.546
319.635
319.681
319.681
319.635
319.546
319.419
319.26
319.078
318.881
318.678
318.483
318.333
311.013
311.103
311.22
311.342
311.46
311.569
311.665
311.741
311.795
311.823
311.823
311.795
311.741
311.665
311.569
311.46
311.342
311.22
311.103
311.013
303.692
303.722
303.761
303.802
303.842
303.878
303.91
303.936
303.954
303.963
303.963
303.954
303.936
303.91
303.878
303.842
303.802
303.761
303.722
303.692
356.678
357.128
357.671
358.226
358.76
359.251
359.677
360.018
360.257
360.38
360.38
360.257
360.018
359.677
359.251
358.76
358.226
357.671
357.128
356.678
349.134
349.515
349.984
350.465
350.928
351.354
351.723
352.019
352.226
352.333
352.333
352.226
352.019
351.723
351.354
350.928
350.465
349.984
349.515
349.134
341.586
341.901
342.297
342.704
343.096
343.457
343.77
344.02
344.195
344.286
344.286
344.195
344.02
343.77
343.457
343.096
342.704
342.297
341.901
341.586
334.034
334.288
334.611
334.944
335.265
335.56
335.817
336.022
336.165
336.239
336.239
336.165
336.022
335.817
335.56
335.265
334.944
334.611
334.288
334.034
326.481
326.676
326.926
327.185
327.435
327.665
327.864
328.024
328.136
328.193
328.193
328.136
328.024
327.864
327.665
327.435
327.185
326.926
326.676
326.481
318.925
319.063
319.242
319.427
319.605
319.77
319.912
320.027
320.106
320.147
320.147
320.106
320.027
319.912
319.77
319.605
319.427
319.242
319.063
318.925
311.368
311.451
311.558
311.669
311.776
311.875
311.961
312.029
312.077
312.102
312.102
312.077
312.029
311.961
311.875
311.776
311.669
311.558
311.451
311.368
303.811
303.838
303.874
303.912
303.948
303.981
304.009
304.032
304.048
304.057
304.057
304.048
304.032
304.009
303.981
303.948
303.912
303.874
303.838
303.811
358.55
358.964
359.462
359.968
360.453
360.897
361.28
361.586
361.8
361.91
361.91
361.8
361.586
361.28
360.897
360.453
359.968
359.462
358.964
358.55
350.741
351.091
351.521
351.961
352.381
352.766
353.099
353.365
353.55
353.646
353.646
353.55
353.365
353.099
352.766
352.381
351.961
351.521
351.091
350.741
342.934
343.225
343.588
343.959
344.316
344.642
344.924
345.15
345.307
345.387
345.387
345.307
345.15
344.924
344.642
344.316
343.959
343.588
343.225
342.934
335.13
335.364
335.66
335.964
336.256
336.524
336.755
336.939
337.068
337.134
337.134
337.068
336.939
336.755
336.524
336.256
335.964
335.66
335.364
335.13
327.328
327.508
327.737
327.974
328.201
328.41
328.59
328.733
328.833
328.885
328.885
328.833
328.733
328.59
328.41
328.201
327.974
327.737
327.508
327.328
319.528
319.655
319.819
319.988
320.151
320.3
320.428
320.531
320.603
320.639
320.639
320.603
320.531
320.428
320.3
320.151
319.988
319.819
319.655
319.528
311.729
311.805
311.903
312.005
312.103
312.192
312.27
312.331
312.374
312.397
312.397
312.374
312.331
312.27
312.192
312.103
312.005
311.903
311.805
311.729
303.932
303.957
303.99
304.024
304.057
304.087
304.113
304.133
304.148
304.155
304.155
304.148
304.133
304.113
304.087
304.057
304.024
303.99
303.957
303.932
360.365
360.748
361.207
361.672
362.116
362.52
362.868
363.145
363.338
363.437
363.437
363.338
363.145
362.868
362.52
362.116
361.672
361.207
360.748
360.365
352.281
352.605
353.002
353.406
353.792
354.143
354.446
354.686
354.854
354.94
354.94
354.854
354.686
354.446
354.143
353.792
353.406
353.002
352.605
352.281
344.212
344.481
344.817
345.159
345.486
345.784
346.041
346.246
346.388
346.461
346.461
346.388
346.246
346.041
345.784
345.486
345.159
344.817
344.481
344.212
336.159
336.375
336.649
336.93
337.198
337.442
337.653
337.821
337.937
337.997
337.997
337.937
337.821
337.653
337.442
337.198
336.93
336.649
336.375
336.159
328.117
328.284
328.496
328.715
328.924
329.115
329.279
329.409
329.5
329.547
329.547
329.5
329.409
329.279
329.115
328.924
328.715
328.496
328.284
328.117
320.086
320.204
320.356
320.512
320.662
320.798
320.915
321.009
321.074
321.108
321.108
321.074
321.009
320.915
320.798
320.662
320.512
320.356
320.204
320.086
312.062
312.133
312.224
312.318
312.408
312.49
312.56
312.616
312.656
312.676
312.676
312.656
312.616
312.56
312.49
312.408
312.318
312.224
312.133
312.062
304.043
304.066
304.097
304.128
304.159
304.186
304.21
304.229
304.242
304.249
304.249
304.242
304.229
304.21
304.186
304.159
304.128
304.097
304.066
304.043
361.799
362.159
362.591
363.028
363.443
363.82
364.144
364.401
364.58
364.671
364.671
364.58
364.401
364.144
363.82
363.443
363.028
362.591
362.159
361.799
353.45
353.756
354.131
354.511
354.873
355.202
355.484
355.709
355.865
355.945
355.945
355.865
355.709
355.484
355.202
354.873
354.511
354.131
353.756
353.45
345.153
345.407
345.724
346.047
346.355
346.635
346.875
347.066
347.199
347.267
347.267
347.199
347.066
346.875
346.635
346.355
346.047
345.724
345.407
345.153
336.897
337.102
337.362
337.627
337.88
338.11
338.307
338.464
338.573
338.629
338.629
338.573
338.464
338.307
338.11
337.88
337.627
337.362
337.102
336.897
328.673
328.831
329.033
329.24
329.437
329.617
329.771
329.893
329.979
330.022
330.022
329.979
329.893
329.771
329.617
329.437
329.24
329.033
328.831
328.673
320.474
320.586
320.73
320.878
321.019
321.148
321.258
321.346
321.407
321.439
321.439
321.407
321.346
321.258
321.148
321.019
320.878
320.73
320.586
320.474
312.291
312.358
312.445
312.534
312.619
312.696
312.763
312.816
312.852
312.871
312.871
312.852
312.816
312.763
312.696
312.619
312.534
312.445
312.358
312.291
304.119
304.141
304.171
304.2
304.229
304.255
304.277
304.295
304.307
304.314
304.314
304.307
304.295
304.277
304.255
304.229
304.2
304.171
304.141
304.119
)
;

boundaryField
{
    hotSide
    {
        type            fixedGradient;
        gradient        nonuniform List<scalar> 
400
(
446.439
447.419
449.389
452.373
456.403
461.518
467.764
475.19
483.85
493.794
505.073
517.733
531.818
547.367
564.414
582.988
603.112
624.808
648.091
672.972
460.608
461.475
463.226
465.889
469.508
474.135
479.831
486.661
494.69
503.986
514.61
526.621
540.07
555.004
571.463
589.479
609.078
630.283
653.109
677.568
475.941
476.675
478.163
480.445
483.578
487.632
492.685
498.82
506.124
514.677
524.559
535.838
548.579
562.833
578.647
596.057
615.091
635.771
658.113
682.127
492.186
492.764
493.947
495.787
498.36
501.755
506.074
511.424
517.911
525.638
534.699
545.178
557.149
570.672
585.798
602.567
621.008
641.143
662.986
686.545
508.887
509.29
510.13
511.477
513.425
516.091
519.603
524.094
529.696
536.534
544.721
554.354
565.519
578.283
592.702
608.817
626.658
646.245
667.591
690.7
525.349
525.564
526.039
526.859
528.145
530.041
532.707
536.305
540.994
546.922
554.221
563.003
573.363
585.376
599.101
614.58
631.841
650.903
671.775
694.459
540.629
540.657
540.766
541.063
541.694
542.833
544.671
547.402
551.21
556.266
562.721
570.701
580.309
591.625
604.711
619.607
636.342
654.931
675.379
697.684
553.598
553.456
553.237
553.064
553.109
553.574
554.679
556.645
559.682
563.981
569.708
577
585.967
596.694
609.242
623.652
639.95
658.147
678.246
700.241
563.089
562.817
562.346
561.815
561.413
561.367
561.918
563.31
565.771
569.506
574.694
581.479
589.977
600.274
612.432
626.491
642.475
660.392
680.243
702.018
568.118
567.775
567.167
566.441
565.797
565.474
565.726
566.808
568.96
572.394
577.294
583.81
592.059
602.129
614.081
627.956
643.775
661.547
681.268
702.928
568.118
567.775
567.167
566.441
565.797
565.474
565.726
566.808
568.96
572.394
577.294
583.81
592.059
602.129
614.081
627.956
643.775
661.547
681.268
702.928
563.089
562.817
562.346
561.815
561.413
561.367
561.918
563.31
565.771
569.506
574.694
581.479
589.977
600.274
612.432
626.491
642.475
660.392
680.243
702.018
553.598
553.456
553.237
553.064
553.109
553.574
554.679
556.645
559.682
563.981
569.708
577
585.967
596.694
609.242
623.652
639.95
658.147
678.246
700.241
540.629
540.657
540.766
541.063
541.694
542.833
544.671
547.402
551.21
556.266
562.721
570.701
580.309
591.625
604.711
619.607
636.342
654.931
675.379
697.684
525.349
525.564
526.039
526.859
528.145
530.041
532.707
536.305
540.994
546.922
554.221
563.003
573.363
585.376
599.101
614.58
631.841
650.903
671.775
694.459
508.887
509.29
510.13
511.477
513.425
516.091
519.603
524.094
529.696
536.534
544.721
554.354
565.519
578.283
592.702
608.817
626.658
646.245
667.591
690.7
492.186
492.764
493.947
495.787
498.36
501.755
506.074
511.424
517.911
525.638
534.699
545.178
557.149
570.672
585.798
602.567
621.008
641.143
662.986
686.545
475.941
476.675
478.163
480.445
483.578
487.632
492.685
498.82
506.124
514.677
524.559
535.838
548.579
562.833
578.647
596.057
615.091
635.771
658.113
682.127
460.608
461.475
463.226
465.889
469.508
474.135
479.831
486.661
494.69
503.986
514.61
526.621
540.07
555.004
571.463
589.479
609.078
630.283
653.109
677.568
446.439
447.419
449.389
452.373
456.403
461.518
467.764
475.19
483.85
493.794
505.073
517.733
531.818
547.367
564.414
582.988
603.112
624.808
648.091
672.972
)
;
    }
    coldSide
    {
        type            mixed;
        refValue        uniform 300;
        refGradient     uniform 0;
        valueFraction   uniform 0.991591;
        source          uniform 0;
        value           nonuniform List<scalar> 
400
(
300.024
300.024
300.024
300.024
300.025
300.025
300.025
300.026
300.026
300.026
300.027
300.028
300.028
300.029
300.03
300.031
300.032
300.033
300.034
300.035
300.025
300.025
300.025
300.025
300.025
300.025
300.026
300.026
300.026
300.027
300.027
300.028
300.029
300.03
300.03
300.031
300.032
300.033
300.034
300.035