/*--------------------------------*- C++ -*----------------------------------*\
| =========                 |                                                 |
| \\      /  F ield         | OpenFOAM: The Open Source CFD Toolbox           |
|  \\    /   O peration     | Version:  2212                                  |
|   \\  /    A nd           | Website:  www.openfoam.com                      |
|    \\/     M anipulation  |                                                 |
\*---------------------------------------------------------------------------*/
FoamFile
{
    version     2.0;
    format      ascii;
    arch        "LSB;label=32;scalar=64";
    class       volScalarField;
    location    "0";
    object      T;
}
// * * * * * * * * * * * * * * * * * * * * * * * * * * * * * * * * * * * * * //

dimensions      [0 0 0 1 0 0 0];

internalField   nonuniform List<scalar> 
3200
(
348.788
347.587
346.545
346.175
346.116
346.4
346.844
347.319
347.655
347.71
347.357
346.816
346.052
344.918
343.637
342.637
341.797
341.575
341.912
342.712
342.299
341.285
340.412
340.059
340.03
340.282
340.676
341.111
341.409
341.468
341.142
340.704
340.065
339.064
337.973
337.081
336.365
336.188
336.491
337.142
335.801
334.974
334.25
333.932
333.908
334.126
334.473
334.844
335.104
335.161
334.9
334.543
334.023
333.15
332.247
331.46
330.893
330.732
330.982
331.487
329.318
328.634
328.052
327.777
327.766
327.929
328.25
328.546
328.785
328.812
328.605
328.347
327.923
327.167
326.453
325.806
325.358
325.195
325.411
325.82
322.806
322.286
321.862
321.618
321.601
321.729
321.992
322.236
322.427
322.436
322.289
322.115
321.804
321.16
320.609
320.095
319.801
319.629
319.809
320.107
316.3
315.922
315.641
315.466
315.443
315.526
315.737
315.877
316.049
316.04
315.942
315.832
315.625
315.141
314.736
314.384
314.193
314.049
314.173
314.381
309.794
309.565
309.407
309.301
309.293
309.318
309.47
309.539
309.652
309.632
309.577
309.526
309.404
309.113
308.842
308.65
308.537
308.448
308.519
308.628
303.282
303.212
303.151
303.124
303.121
303.137
303.18
303.21
303.239
303.229
303.215
303.191
303.158
303.059
302.959
302.897
302.867
302.83
302.859
302.88
348.782
347.574
346.628
346.228
346.337
346.717
347.194
347.747
348.033
348.127
347.9
347.349
346.466
345.314
344.024
342.965
341.899
341.713
342.002
342.72
342.283
341.302
340.463
340.127
340.21
340.553
340.965
341.466
341.735
341.81
341.618
341.141
340.405
339.394
338.259
337.404
336.486
336.291
336.579
337.154
335.789
334.98
334.275
333.974
334.066
334.362
334.722
335.151
335.381
335.452
335.285
334.881
334.289
333.4
332.459
331.78
331.002
330.807
331.072
331.515
329.276
328.659
328.058
327.805
327.882
328.164
328.441
328.786
328.98
329.057
328.903
328.618
328.136
327.375
326.605
326.096
325.434
325.271
325.491
325.823
322.775
322.319
321.823
321.624
321.705
321.956
322.164
322.409
322.564
322.635
322.495
322.326
321.941
321.321
320.722
320.354
319.839
319.677
319.879
320.123
316.281
315.963
315.589
315.459
315.515
315.708
315.859
316.029
316.128
316.184
316.077
315.979
315.698
315.235
314.812
314.574
314.206
314.07
314.23
314.41
309.769
309.599
309.344
309.308
309.322
309.441
309.542
309.619
309.692
309.73
309.663
309.603
309.443
309.142
308.892
308.768
308.531
308.448
308.557
308.673
303.271
303.218
303.131
303.123
303.12
303.166
303.196
303.225
303.25
303.265
303.239
303.221
303.172
303.062
302.975
302.936
302.87
302.826
302.872
302.915
348.981
347.767
346.81
346.65
346.653
347.21
347.723
348.353
348.674
348.737
348.604
348.003
347.244
346.077
344.661
343.45
342.411
342.005
342.344
342.959
342.45
341.451
340.629
340.459
340.501
340.983
341.419
341.978
342.25
342.336
342.206
341.708
341.078
340.06
338.816
337.814
336.904
336.562
336.878
337.356
335.923
335.099
334.408
334.261
334.32
334.725
335.094
335.579
335.789
335.91
335.753
335.378
334.846
334
332.926
332.118
331.339
331.041
331.337
331.697
329.399
328.77
328.189
328.054
328.123
328.447
328.74
329.15
329.283
329.45
329.286
328.992
328.561
327.878
327.003
326.351
325.735
325.454
325.716
325.999
322.882
322.432
321.939
321.831
321.879
322.139
322.391
322.693
322.792
322.951
322.802
322.589
322.243
321.723
321.05
320.538
320.054
319.845
320.05
320.279
316.366
316.031
315.686
315.606
315.621
315.809
316.023
316.211
316.286
316.409
316.313
316.182
315.906
315.529
315.07
314.704
314.355
314.192
314.364
314.512
309.822
309.628
309.428
309.374
309.385
309.494
309.638
309.746
309.783
309.853
309.796
309.733
309.559
309.335
309.077
308.859
308.623
308.539
308.656
308.743
303.288
303.224
303.161
303.145
303.137
303.182
303.227
303.274
303.272
303.304
303.284
303.261
303.201
303.134
303.05
302.98
302.891
302.871
302.911
302.929
349.362
348.246
347.341
347.202
347.356
347.802
348.469
349.038
349.423
349.631
349.457
348.864
348.119
346.829
345.357
344.101
343.147
342.625
342.829
343.471
342.78
341.856
341.107
340.968
341.09
341.505
342.067
342.573
342.886
343.098
342.945
342.419
341.826
340.727
339.424
338.369
337.536
337.091
337.275
337.815
336.204
335.429
334.858
334.717
334.794
335.174
335.637
336.049
336.343
336.542
336.418
335.945
335.473
334.554
333.413
332.544
331.857
331.516
331.656
332.094
329.611
328.97
328.564
328.438
328.502
328.788
329.172
329.504
329.788
329.957
329.855
329.42
329.087
328.334
327.373
326.672
326.127
325.879
325.983
326.321
323.039
322.521
322.238
322.152
322.175
322.406
322.712
322.973
323.195
323.347
323.275
322.882
322.668
322.078
321.326
320.774
320.376
320.178
320.281
320.511
316.46
316.063
315.918
315.827
315.849
316.031
316.234
316.427
316.566
316.698
316.686
316.334
316.225
315.798
315.24
314.866
314.572
314.447
314.533
314.686
309.889
309.632
309.576
309.519
309.515
309.644
309.742
309.866
309.951
310.04
310.046
309.805
309.746
309.507
309.171
308.952
308.754
308.688
308.739
308.823
303.309
303.221
303.216
303.187
303.178
303.233
303.263
303.308
303.334
303.367
303.378
303.279
303.266
303.199
303.072
303.011
302.939
302.917
302.938
302.962
349.891
348.935
348.087
347.882
348.14
348.559
349.233
349.806
350.316
350.564
350.535
349.924
349.114
347.69
346.375
345.086
344.066
343.506
343.588
344.233
343.261
342.44
341.748
341.554
341.777
342.14
342.733
343.229
343.662
343.889
343.872
343.335
342.661
341.447
340.316
339.224
338.334
337.872
337.957
338.449
336.62
335.926
335.371
335.233
335.411
335.689
336.216
336.647
336.996
337.19
337.157
336.713
336.171
335.137
334.204
333.29
332.53
332.163
332.231
332.603
329.978
329.417
328.962
328.883
328.996
329.206
329.673
330.027
330.304
330.473
330.432
330.05
329.655
328.804
328.053
327.284
326.668
326.377
326.449
326.733
323.328
322.903
322.524
322.51
322.57
322.737
323.085
323.37
323.605
323.73
323.716
323.384
323.091
322.436
321.84
321.265
320.76
320.566
320.631
320.833
316.688
316.383
316.103
316.104
316.14
316.258
316.532
316.708
316.873
316.963
316.955
316.725
316.511
316.049
315.61
315.201
314.843
314.723
314.772
314.907
310.031
309.828
309.682
309.678
309.703
309.782
309.938
310.046
310.135
310.177
310.189
310.042
309.924
309.638
309.379
309.14
308.917
308.861
308.908
308.956
303.365
303.286
303.237
303.246
303.258
303.273
303.34
303.369
303.402
303.409
303.412
303.368
303.32
303.223
303.138
303.069
302.981
302.977
302.976
302.998
350.653
349.726
348.917
348.683
348.934
349.332
350.019
350.801
351.412
351.603
351.629
351.026
350.191
348.788
347.381
346.139
345.032
344.423
344.609
345.126
343.897
343.131
342.448
342.263
342.469
342.825
343.395
344.095
344.606
344.776
344.816
344.303
343.589
342.405
341.173
340.123
339.173
338.648
338.798
339.243
337.142
336.536
335.953
335.811
336.007
336.294
336.754
337.345
337.762
337.924
337.964
337.55
336.94
335.939
334.916
334.044
333.227
332.8
332.92
333.283
330.377
329.92
329.448
329.335
329.503
329.73
330.086
330.579
330.903
331.045
331.066
330.793
330.259
329.464
328.632
327.912
327.236
326.919
327.004
327.308
323.631
323.294
322.915
322.826
322.989
323.148
323.415
323.818
324.065
324.161
324.179
323.988
323.546
322.95
322.32
321.753
321.195
320.991
321.05
321.292
316.888
316.655
316.361
316.31
316.439
316.546
316.743
317.038
317.204
317.272
317.292
317.145
316.822
316.411
315.994
315.565
315.161
315.03
315.08
315.259
310.161
310.004
309.821
309.799
309.87
309.949
310.063
310.249
310.325
310.374
310.398
310.297
310.119
309.862
309.62
309.366
309.102
309.034
309.087
309.176
303.402
303.363
303.279
303.287
303.308
303.325
303.38
303.446
303.459
303.468
303.481
303.452
303.386
303.307
303.22
303.137
303.044
303.031
303.042
303.076
351.647
350.744
349.953
349.662
349.809
350.32
351.094
351.87
352.511
352.799
352.744
352.282
351.266
349.969
348.516
347.146
346.123
345.559
345.647
346.24
344.768
344.024
343.337
343.101
343.223
343.663
344.337
345.025
345.566
345.793
345.756
345.374
344.475
343.408
342.15
340.987
340.11
339.618
339.692
340.203
337.874
337.278
336.735
336.531
336.623
337.002
337.583
338.134
338.573
338.799
338.752
338.422
337.688
336.808
335.734
334.781
334.059
333.593
333.656
334.089
331.003
330.508
330.108
329.946
329.988
330.329
330.807
331.227
331.571
331.772
331.712
331.428
330.895
330.149
329.259
328.51
327.938
327.553
327.583
327.952
324.116
323.758
323.451
323.335
323.352
323.62
323.991
324.32
324.552
324.757
324.693
324.438
324.055
323.481
322.773
322.239
321.793
321.461
321.495
321.795
317.266
316.987
316.785
316.677
316.712
316.899
317.176
317.388
317.537
317.706
317.655
317.444
317.179
316.788
316.282
315.94
315.59
315.339
315.396
315.603
310.363
310.193
310.078
310.027
310.04
310.164
310.325
310.456
310.524
310.641
310.606
310.476
310.315
310.087
309.785
309.581
309.378
309.204
309.262
309.389
303.468
303.424
303.379
303.373
303.363
303.408
303.462
303.511
303.517
303.581
303.558
303.5
303.466
303.38
303.283
303.217
303.146
303.091
303.107
303.15
352.601
351.647
351.016
350.791
350.774
351.251
352.044
352.855
353.564
353.856
354.008
353.429
352.413
351.131
349.653
348.331
347.435
346.812
346.789
347.255
345.565
344.805
344.259
344.084
344.026
344.469
345.153
345.85
346.443
346.731
346.849
346.35
345.492
344.37
343.124
341.991
341.228
340.704
340.68
341.086
338.547
337.941
337.481
337.336
337.288
337.68
338.246
338.83
339.309
339.598
339.672
339.226
338.536
337.594
336.556
335.602
334.948
334.516
334.493
334.855
331.531
331.067
330.684
330.554
330.535
330.871
331.326
331.806
332.183
332.437
332.465
332.093
331.567
330.791
329.95
329.196
328.643
328.283
328.266
328.559
324.537
324.155
323.865
323.767
323.784
324.051
324.393
324.777
325.032
325.251
325.243
324.957
324.574
323.972
323.314
322.741
322.306
322.04
322.02
322.253
317.536
317.263
317.05
316.981
317.03
317.205
317.454
317.723
317.892
318.054
318.047
317.818
317.557
317.13
316.666
316.259
315.954
315.761
315.752
315.912
310.521
310.354
310.224
310.204
310.232
310.337
310.49
310.655
310.74
310.853
310.839
310.709
310.569
310.295
310.009
309.772
309.606
309.474
309.465
309.563
303.527
303.464
303.43
303.419
303.425
303.458
303.517
303.577
303.588
303.628
303.643
303.589
303.549
303.454
303.364
303.277
303.221
303.18
303.178
303.204
353.629
352.732
352.1
351.856
351.982
352.449
353.145
353.979
354.628
355.085
355.186
354.669
353.684
352.215
350.683
349.515
348.569
348.103
347.994
348.513
346.476
345.73
345.191
344.968
345.088
345.489
346.113
346.819
347.382
347.756
347.86
347.444
346.588
345.325
343.992
343.026
342.194
341.8
341.712
342.135
339.317
338.711
338.276
338.068
338.172
338.511
339.057
339.64
340.121
340.426
340.527
340.189
339.448
338.394
337.275
336.475
335.774
335.417
335.383
335.706
332.166
331.68
331.334
331.179
331.254
331.518
331.995
332.467
332.832
333.104
333.18
332.91
332.301
331.437
330.513
329.875
329.325
329.022
329.008
329.262
325.014
324.649
324.371
324.286
324.336
324.522
324.906
325.277
325.56
325.771
325.819
325.598
325.145
324.482
323.75
323.244
322.867
322.611
322.592
322.79
317.872
317.602
317.41
317.35
317.401
317.525
317.798
318.083
318.269
318.426
318.456
318.296
318
317.51
316.946
316.611
316.369
316.159
316.149
316.303
310.738
310.568
310.454
310.412
310.447
310.523
310.683
310.868
310.984
311.059
311.09
310.981
310.831
310.527
310.174
309.98
309.844
309.705
309.697
309.812
303.598
303.543
303.508
303.491
303.5
303.528
303.579
303.638
303.683
303.701
303.71
303.677
303.63
303.533
303.408
303.338
303.285
303.251
303.249
303.29
354.692
353.848
353.186
352.948
353.077
353.494
354.227
354.88
355.639
356.083
356.141
355.626
354.661
353.361
351.923
350.7
349.86
349.331
349.291
349.816
347.375
346.691
346.118
345.923
346.057
346.41
347.033
347.616
348.249
348.655
348.696
348.252
347.421
346.32
345.068
344.052
343.326
342.859
342.833
343.297
340.071
339.513
339.039
338.876
339.023
339.292
339.813
340.319
340.857
341.212
341.222
340.861
340.168
339.251
338.193
337.347
336.732
336.329
336.305
336.706
332.785
332.34
331.974
331.826
331.965
332.169
332.594
333.017
333.468
333.739
333.729
333.462
332.899
332.155
331.303
330.626
330.107
329.765
329.745
330.11
325.507
325.162
324.866
324.776
324.884
325.033
325.365
325.701
326.062
326.238
326.233
326.046
325.607
325.034
324.375
323.87
323.469
323.172
323.137
323.481
318.233
317.975
317.772
317.707
317.777
317.879
318.141
318.378
318.624
318.75
318.729
318.612
318.32
317.872
317.422
317.092
316.775
316.574
316.508
316.819
310.962
310.792
310.683
310.627
310.667
310.748
310.913
311.035
311.177
311.258
311.245
311.178
311.015
310.726
310.472
310.27
310.074
309.962
309.907
310.124
303.674
303.618
303.59
303.562
303.579
303.595
303.655
303.692
303.74
303.777
303.772
303.747
303.697
303.593
303.51
303.445
303.386
303.337
303.322
303.401
355.94
355.111
354.407
353.992
354.108
354.515
355.279
355.821
356.529
356.944
357.026
356.598
355.535
354.475
353.187
352.018
351.121
350.602
350.587
350.944
348.463
347.782
347.169
346.813
346.918
347.262
347.918
348.402
349.041
349.4
349.463
349.067
348.174
347.286
346.168
345.174
344.402
343.959
343.931
344.241
341.006
340.458
339.946
339.63
339.704
339.997
340.555
340.996
341.518
341.819
341.893
341.53
340.799
340.062
339.107
338.282
337.645
337.28
337.233
337.505
333.542
333.122
332.685
332.447
332.484
332.729
333.18
333.585
333.996
334.209
334.291
333.985
333.399
332.789
332.032
331.369
330.848
330.569
330.511
330.736
326.072
325.786
325.417
325.247
325.263
325.448
325.821
326.142
326.485
326.609
326.692
326.435
325.979
325.52
324.939
324.432
324.035
323.806
323.753
323.935
318.627
318.433
318.162
318.049
318.035
318.174
318.453
318.702
318.959
319.008
319.087
318.888
318.573
318.252
317.83
317.48
317.19
317.03
316.969
317.113
311.189
311.075
310.906
310.835
310.827
310.914
311.083
311.231
311.392
311.416
311.473
311.367
311.172
310.969
310.714
310.509
310.312
310.22
310.199
310.281
303.738
303.715
303.663
303.631
303.637
303.66
303.711
303.77
303.825
303.819
303.854
303.821
303.756
303.679
303.584
303.523
303.456
303.423
303.42
303.442
357.168
356.303
355.62
355.271
355.305
355.631
356.268
356.859
357.483
357.803
357.854
357.404
356.41
355.33
354.212
353.156
352.352
351.835
351.758
352.196
349.501
348.826
348.212
347.935
347.984
348.242
348.809
349.327
349.854
350.102
350.18
349.784
348.923
347.993
347.068
346.15
345.473
345.005
344.978
345.325
341.869
341.341
340.794
340.565
340.627
340.838
341.318
341.785
342.206
342.409
342.498
342.15
341.42
340.672
339.888
339.094
338.528
338.162
338.146
338.433
334.254
333.867
333.385
333.223
333.267
333.417
333.828
334.205
334.549
334.718
334.786
334.489
333.895
333.342
332.705
332.01
331.541
331.289
331.253
331.472
326.644
326.363
325.975
325.863
325.883
326.007
326.333
326.613
326.883
327.012
327.075
326.85
326.351
325.987
325.487
324.925
324.527
324.38
324.342
324.488
319.047
318.848
318.557
318.486
318.5
318.59
318.84
319.003
319.206
319.313
319.358
319.194
318.819
318.598
318.237
317.839
317.504
317.436
317.412
317.501
311.421
311.322
311.148
311.086
311.114
311.159
311.325
311.408
311.538
311.605
311.634
311.538
311.291
311.18
310.96
310.738
310.521
310.485
310.451
310.523
303.82
303.804
303.741
303.707
303.719
303.746
303.805
303.826
303.862
303.89
303.902
303.871
303.787
303.752
303.674
303.611
303.529
303.52
303.49
303.532
358.379
357.451
356.689
356.465
356.522
356.662
357.298
357.809
358.348
358.71
358.745
358.179
357.359
356.319
355.293
354.298
353.541
353.027
353.095
353.549
350.563
349.804
349.142
348.959
349.033
349.131
349.683
350.138
350.614
350.907
350.959
350.439
349.756
348.878
347.996
347.125
346.513
346.037
346.095
346.504
342.758
342.17
341.6
341.431
341.52
341.59
342.074
342.466
342.861
343.08
343.155
342.712
342.116
341.416
340.648
339.942
339.436
339.027
339.073
339.41
334.981
334.531
334.046
333.891
333.969
334.035
334.436
334.771
335.078
335.261
335.316
334.98
334.477
333.93
333.281
332.7
332.287
331.97
331.992
332.268
327.209
326.867
326.472
326.351
326.43
326.472
326.816
327.055
327.302
327.445
327.454
327.227
326.812
326.428
325.905
325.46
325.12
324.899
324.887
325.109
319.436
319.192
318.903
318.834
318.899
318.918
319.16
319.327
319.517
319.624
319.616
319.438
319.156
318.926
318.516
318.216
317.944
317.83
317.79
317.962
311.67
311.533
311.354
311.312
311.352
311.364
311.506
311.6
311.719
311.805
311.782
311.675
311.503
311.391
311.125
310.949
310.776
310.723
310.696
310.797
303.908
303.872
303.802
303.791
303.815
303.802
303.855
303.897
303.935
303.951
303.95
303.917
303.861
303.826
303.732
303.674
303.622
303.599
303.59
303.623
359.506
358.566
357.915
357.622
357.668
357.755
358.324
358.71
359.172
359.517
359.569
359.075
358.28
357.392
356.343
355.487
354.669
354.383
354.399
354.856
351.538
350.751
350.193
349.925
349.99
350.059
350.556
350.892
351.308
351.608
351.649
351.203
350.581
349.81
348.896
348.148
347.461
347.232
347.211
347.632
343.578
342.952
342.473
342.241
342.296
342.371
342.779
343.072
343.446
343.697
343.729
343.32
342.841
342.197
341.437
340.789
340.224
340.027
339.988
340.35
335.629
335.132
334.745
334.555
334.578
334.684
334.996
335.25
335.58
335.771
335.806
335.435
335.077
334.565
333.954
333.406
332.945
332.798
332.759
333.013
327.709
327.304
327.016
326.863
326.914
326.996
327.208
327.417
327.685
327.819
327.871
327.58
327.31
326.917
326.433
326.014
325.661
325.564
325.495
325.679
319.789
319.506
319.317
319.181
319.252
319.292
319.432
319.599
319.784
319.883
319.943
319.717
319.527
319.251
318.911
318.61
318.357
318.294
318.227
318.353
311.881
311.724
311.615
311.52
311.561
311.584
311.668
311.758
311.873
311.962
311.991
311.853
311.734
311.565
311.353
311.174
311.033
310.988
310.949
311.036
303.981
303.929
303.899
303.863
303.882
303.88
303.913
303.936
303.986
304.009
304.022
303.963
303.929
303.874
303.8
303.752
303.694
303.675
303.672
303.699
360.596
359.826
359.161
358.819
358.893
359.049
359.347
359.543
360.005
360.287
360.305
359.746
359.109
358.27
357.423
356.463
355.911
355.604
355.65
356.089
352.461
351.842
351.287
351.002
351.066
351.22
351.484
351.626
352.045
352.29
352.307
351.812
351.269
350.576
349.841
348.996
348.546
348.281
348.319
348.696
344.357
343.854
343.42
343.17
343.234
343.344
343.6
343.687
344.071
344.266
344.287
343.875
343.38
342.859
342.223
341.506
341.141
340.894
340.936
341.271
336.265
335.886
335.545
335.33
335.392
335.468
335.689
335.742
336.075
336.242
336.273
335.941
335.503
335.104
334.58
333.978
333.711
333.505
333.518
333.783
328.189
327.908
327.66
327.495
327.514
327.602
327.762
327.8
328.062
328.185
328.25
327.998
327.617
327.335
326.924
326.47
326.233
326.094
326.108
326.286
320.13
319.942
319.778
319.648
319.661
319.737
319.85
319.861
320.06
320.151
320.208
320.009
319.757
319.547
319.259
318.938
318.761
318.654
318.679
318.776
312.098
311.976
311.883
311.807
311.815
311.851
311.918
311.933
312.026
312.116
312.144
312.021
311.873
311.74
311.584
311.388
311.274
311.21
311.214
311.282
304.055
304.012
303.981
303.957
303.96
303.969
303.997
304.002
304.027
304.062
304.07
304.032
303.984
303.941
303.875
303.824
303.776
303.765
303.757
303.78
361.982
361.199
360.523
360.014
360.074
360.22
360.373
360.54
360.741
361.074
360.949
360.566
359.803
359.222
358.392
357.573
357.117
356.895
356.968
357.367
353.688
353.04
352.456
352.028
352.095
352.214
352.347
352.488
352.617
352.978
352.848
352.524
351.859
351.396
350.672
349.949
349.593
349.385
349.44
349.779
345.401
344.872
344.397
344.033
344.106
344.218
344.344
344.434
344.54
344.848
344.747
344.456
343.902
343.534
342.907
342.303
342.025
341.836
341.88
342.159
337.138
336.701
336.312
336.032
336.111
336.192
336.302
336.389
336.456
336.696
336.639
336.404
335.903
335.662
335.139
334.652
334.434
334.275
334.301
334.514
328.868
328.546
328.225
328.033
328.113
328.161
328.262
328.336
328.386
328.542
328.524
328.341
327.935
327.765
327.346
326.979
326.811
326.669
326.701
326.838
320.608
320.401
320.156
320.015
320.072
320.14
320.211
320.269
320.286
320.39
320.387
320.253
319.973
319.847
319.543
319.277
319.165
319.066
319.083
319.166
312.362
312.258
312.104
312.021
312.068
312.109
312.161
312.183
312.174
312.246
312.255
312.174
312.002
311.913
311.74
311.576
311.512
311.44
311.442
311.507
304.131
304.115
304.071
304.036
304.049
304.062
304.083
304.086
304.08
304.107
304.114
304.074
304.028
303.989
303.927
303.882
303.859
303.832
303.835
303.863
363.307
362.427
361.74
361.263
361.158
361.215
361.325
361.484
361.673
361.94
361.735
361.339
360.824
360.185
359.501
358.914
358.497
358.267
358.323
358.726
354.838
354.097
353.536
353.093
353.009
353.061
353.176
353.289
353.428
353.707
353.523
353.178
352.747
352.206
351.632
351.146
350.766
350.577
350.612
350.941
346.366
345.76
345.33
344.923
344.853
344.897
345.031
345.102
345.214
345.439
345.3
344.979
344.623
344.192
343.718
343.342
343.038
342.848
342.896
343.122
337.922
337.455
337.082
336.776
336.708
336.737
336.877
336.923
336.993
337.179
337.072
336.808
336.527
336.185
335.781
335.483
335.279
335.102
335.129
335.266
329.486
329.165
328.835
328.609
328.565
328.575
328.689
328.734
328.793
328.93
328.876
328.63
328.411
328.15
327.82
327.623
327.482
327.34
327.345
327.406
321.071
320.857
320.598
320.452
320.44
320.422
320.508
320.528
320.568
320.677
320.647
320.458
320.3
320.123
319.859
319.734
319.655
319.544
319.539
319.564
312.645
312.537
312.375
312.293
312.285
312.274
312.319
312.34
312.341
312.425
312.41
312.289
312.199
312.091
311.924
311.85
311.809
311.749
311.734
311.73
304.232
304.202
304.146
304.128
304.115
304.115
304.126
304.131
304.139
304.165
304.164
304.115
304.094
304.047
303.989
303.97
303.963
303.951
303.94
303.923
364.631
363.682
363.07
362.443
362.31
362.226
362.393
362.407
362.582
362.693
362.559
362.18
361.664
361.078
360.473
360.039
359.67
359.406
359.623
360.041
355.961
355.166
354.676
354.101
353.974
353.931
354.105
354.092
354.248
354.366
354.246
353.905
353.478
352.953
352.456
352.083
351.783
351.557
351.738
352.085
347.32
346.659
346.263
345.787
345.669
345.607
345.803
345.78
345.911
346.014
345.917
345.636
345.275
344.831
344.433
344.105
343.857
343.685
343.839
344.093
338.688
338.157
337.839
337.462
337.359
337.317
337.467
337.462
337.549
337.661
337.583
337.349
337.053
336.71
336.386
336.098
335.912
335.774
335.894
336.095
330.069
329.657
329.433
329.167
329.059
329.032
329.135
329.149
329.215
329.328
329.244
329.059
328.829
328.581
328.314
328.102
327.928
327.856
327.925
328.074
321.457
321.178
321.025
320.857
320.768
320.758
320.805
320.837
320.888
320.962
320.897
320.773
320.6
320.441
320.229
320.091
319.938
319.917
319.952
320.057
312.882
312.705
312.62
312.534
312.473
312.47
312.5
312.507
312.554
312.59
312.559
312.474
312.37
312.284
312.147
312.083
311.958
311.978
311.978
312.035
304.314
304.253
304.231
304.198
304.184
304.177
304.194
304.193
304.204
304.221
304.208
304.181
304.145
304.117
304.07
304.057
304.002
304.021
304.012
304.026
365.743
364.713
364.064
363.486
363.342
363.183
363.352
363.299
363.463
363.519
363.408
362.901
362.721
361.944
361.432
361.056
360.766
360.601
360.796
361.277
356.913
356.021
355.483
355.003
354.849
354.726
354.889
354.842
355.018
355.066
354.97
354.512
354.36
353.703
353.24
352.96
352.714
352.575
352.708
353.153
348.097
347.383
346.935
346.534
346.376
346.289
346.446
346.375
346.577
346.612
346.541
346.132
345.977
345.444
345.07
344.815
344.643
344.534
344.617
345.007
339.329
338.76
338.392
338.061
337.926
337.879
338.01
337.956
338.126
338.138
338.084
337.76
337.606
337.187
336.91
336.65
336.552
336.484
336.514
336.827
330.576
330.156
329.873
329.6
329.509
329.464
329.574
329.535
329.668
329.663
329.614
329.391
329.254
328.922
328.716
328.509
328.457
328.398
328.389
328.642
321.834
321.559
321.341
321.127
321.08
321.054
321.126
321.107
321.197
321.175
321.144
321.002
320.9
320.674
320.517
320.363
320.351
320.29
320.305
320.46
313.107
312.953
312.834
312.677
312.668
312.66
312.683
312.69
312.733
312.695
312.689
312.622
312.556
312.42
312.324
312.224
312.243
312.197
312.207
312.275
304.412
304.344
304.302
304.247
304.246
304.245
304.246
304.264
304.266
304.254
304.241
304.228
304.209
304.166
304.133
304.092
304.12
304.104
304.081
304.108
366.761
365.689
364.895
364.393
364.099
363.976
363.992
364.034
364.152
364.203
363.978
363.612
363.227
362.627
362.254
361.765
361.563
361.532
361.763
362.284
357.752
356.864
356.14
355.735
355.473
355.385
355.41
355.45
355.592
355.615
355.436
355.12
354.779
354.247
353.951
353.534
353.348
353.313
353.516
353.945
348.813
348.056
347.453
347.12
346.9
346.815
346.888
346.902
346.996
347.024
346.908
346.635
346.327
345.882
345.648
345.301
345.13
345.101
345.242
345.615
339.932
339.286
338.817
338.52
338.342
338.29
338.36
338.354
338.421
338.462
338.393
338.148
337.88
337.526
337.345
337.05
336.921
336.911
336.988
337.286
331.054
330.528
330.165
329.966
329.799
329.787
329.845
329.803
329.859
329.915
329.877
329.652
329.456
329.177
329.041
328.826
328.734
328.701
328.775
328.971
322.193
321.79
321.53
321.406
321.285
321.272
321.324
321.264
321.312
321.374
321.353
321.167
321.036
320.821
320.759
320.593
320.53
320.492
320.561
320.693
313.328
313.065
312.923
312.843
312.763
312.782
312.809
312.76
312.788
312.843
312.842
312.709
312.622
312.501
312.492
312.367
312.328
312.289
312.365
312.42
304.459
304.375
304.328
304.295
304.273
304.283
304.295
304.28
304.278
304.305
304.315
304.252
304.229
304.19
304.188
304.143
304.122
304.12
304.139
304.162
)
;

boundaryField
{
    hotSide
    {
        type            fixedGradient;
        gradient        nonuniform List<scalar> 
400
(
519.886
519.541
521.648
526.137
532.759
541.158
550.956
561.808
573.433
585.614
598.197
611.077
624.196
637.536
651.112
664.967
679.166
693.778
708.861
724.439
501.588
501.528
504.09
509.186
516.513
525.648
536.155
547.65
559.829
572.465
585.399
598.53
611.808
625.221
638.799
652.601
666.712
681.225
696.215
711.721
490.156
490.644
493.723
499.292
507.046
516.563
527.402
539.178
551.577
564.369
577.393
590.547
603.785
617.102
630.536
644.156
658.054
672.33
687.068
702.313
485.125
486.411
490.081
496.03
503.991
513.594
524.445
536.182
548.502
561.173
574.034
586.985
599.98
613.021
626.151
639.442
652.986
666.879
681.201
696.003
484.762
487
491.363
497.736
505.889
515.512
526.266
537.824
549.903
562.278
574.791
587.346
599.906
612.481
625.122
637.906
650.925
664.27
678.018
692.224
487.081
490.348
495.515
502.454
510.951
520.73
531.485
542.915
554.749
566.773
578.836
590.855
602.812
614.736
626.697
638.786
651.102
663.74
676.78
690.28
490.408
494.729
500.8
508.474
517.531
527.699
538.674
550.149
561.852
573.565
585.147
596.54
607.758
618.87
629.982
641.212
652.68
664.493
676.736
689.472
493.417
498.762
505.789
514.331
524.151
534.952
546.4
558.152
569.896
581.395
592.516
603.234
613.619
623.804
633.951
644.224
654.771
665.713
677.143
689.127
495.017
501.271
509.213
518.662
529.359
540.971
553.106
565.351
577.321
588.733
599.451
609.498
619.028
628.261
637.435
646.766
656.433
666.57
677.274
688.608
494.313
501.24
509.913
520.146
531.662
544.093
556.986
569.837
582.167
593.621
604.052
613.545
622.348
630.782
639.16
647.744
656.736
666.278
676.466
687.354
490.658
497.894
506.952
517.645
529.689
542.691
556.155
569.511
582.202
593.812
604.182
613.437
621.898
629.952
637.96
646.211
654.916
664.221
674.217
684.957
483.784
490.879
499.867
510.559
522.664
535.783
549.407
562.96
575.878
587.739
598.377
607.906
616.635
624.947
633.198
641.676
650.598
660.112
670.312
681.253
473.91
480.42
488.896
499.147
510.878
523.692
537.101
550.574
563.603
575.811
587.027
597.309
606.882
616.05
625.121
634.359
643.974
654.12
664.899
676.375
461.77
467.346
474.999
484.54
495.675
508.013
521.096
534.442
547.613
560.276
572.254
583.537
594.252
604.605
614.833
625.161
635.784
646.856
658.49
670.758
448.588
453.012
459.698
468.47
479.028
490.974
503.857
517.223
530.668
543.881
556.674
568.987
580.87
592.449
603.897
615.4
627.135
639.254
651.876
665.079
436.07
439.247
444.963
453.053
463.194
474.952
487.845
501.408
515.242
529.039
542.601
555.836
568.744
581.404
593.941
606.515
619.29
632.419
646.025
660.19
426.456
428.412
433.233
440.766
450.643
462.36
475.377
489.199
503.413
517.713
531.894
545.848
559.554
573.056
586.456
599.895
613.532
627.527
642.009
657.057
422.43
423.327
427.353
434.367
443.954
455.547
468.557
482.464
496.853
511.42
525.962
540.366
554.595
568.676
582.693
596.77
611.065
625.738
640.923
656.694
426.367
426.51
429.831
436.204
445.22
456.318
468.914
482.502
496.679
511.149
525.713
540.253
554.72
569.127
583.537
598.057
612.827
627.994
643.682
659.954
438.996
438.724
441.42
446.981
455.072
465.22
476.921
489.722
503.253
517.233
531.466
545.83
560.262
574.757
589.356
604.14
619.216
634.698
650.681
667.211
)
;
    }
    coldSide
    {
        type            mixed;
        refValue        uniform 300;
        refGradient     uniform 0;
        valueFraction   uniform 0.991591;
        source          uniform 0;
        value           nonuniform List<scalar> 
400
(
300.028
300.028
300.028
300.028
300.028
300.029
300.029
300.03
300.03
300.031
300.031
300.032
300.033
300.033
300.034
300.035
300.036
300.036
300.037
300.037
300.027
300.027
300.027
300.027
300.028
300.028
300.029
300.029
300.03
300.03
300.031
300.032
300.033
300.033
300.034
300.035
300.035
300.036
300.037
300.037
300.026