/*--------------------------------*- C++ -*----------------------------------*\
| =========                 |                                                 |
| \\      /  F ield         | OpenFOAM: The Open Source CFD Toolbox           |
|  \\    /   O peration     | Version:  2212                                  |
|   \\  /    A nd           | Website:  www.openfoam.com                      |
|    \\/     M anipulation  |                                                 |
\*---------------------------------------------------------------------------*/
FoamFile
{
    version     2.0;
    format      ascii;
    arch        "LSB;label=32;scalar=64";
    class       volScalarField;
    location    "0";
    object      Tdirect;
}
// * * * * * * * * * * * * * * * * * * * * * * * * * * * * * * * * * * * * * //

dimensions      [0 0 0 1 0 0 0];

internalField   nonuniform List<scalar> 
3200
(
337.674
338.149
338.754
339.414
340.094
340.761
341.376
341.896
342.275
342.475
342.475
342.275
341.896
341.376
340.761
340.094
339.414
338.754
338.149
337.674
332.771
333.172
333.694
334.265
334.853
335.43
335.963
336.412
336.739
336.912
336.912
336.739
336.412
335.963
335.43
334.853
334.265
333.694
333.172
332.771
327.817
328.15
328.59
329.072
329.569
330.057
330.506
330.885
331.161
331.307
331.307
331.161
330.885
330.506
330.057
329.569
329.072
328.59
328.15
327.817
322.821
323.089
323.447
323.841
324.248
324.646
325.013
325.323
325.548
325.667
325.667
325.548
325.323
325.013
324.646
324.248
323.841
323.447
323.089
322.821
317.79
317.996
318.274
318.58
318.896
319.206
319.491
319.731
319.906
319.998
319.998
319.906
319.731
319.491
319.206
318.896
318.58
318.274
317.996
317.79
312.732
312.878
313.076
313.295
313.521
313.742
313.945
314.117
314.241
314.307
314.307
314.241
314.117
313.945
313.742
313.521
313.295
313.076
312.878
312.732
307.656
307.743
307.862
307.993
308.128
308.261
308.383
308.486
308.561
308.6
308.6
308.561
308.486
308.383
308.261
308.128
307.993
307.862
307.743
307.656
302.568
302.597
302.636
302.68
302.726
302.77
302.811
302.846
302.871
302.884
302.884
302.871
302.846
302.811
302.77
302.726
302.68
302.636
302.597
302.568
337.804
338.275
338.875
339.529
340.201
340.861
341.47
341.983
342.357
342.554
342.554
342.357
341.983
341.47
340.861
340.201
339.529
338.875
338.275
337.804
332.884
333.282
333.8
334.365
334.947
335.518
336.044
336.488
336.811
336.981
336.981
336.811
336.488
336.044
335.518
334.947
334.365
333.8
333.282
332.884
327.913
328.243
328.679
329.157
329.649
330.131
330.575
330.95
331.222
331.366
331.366
331.222
330.95
330.575
330.131
329.649
329.157
328.679
328.243
327.913
322.899
323.165
323.521
323.911
324.313
324.707
325.07
325.376
325.598
325.716
325.716
325.598
325.376
325.07
324.707
324.313
323.911
323.521
323.165
322.899
317.851
318.055
318.331
318.634
318.947
319.253
319.535
319.773
319.945
320.036
320.036
319.945
319.773
319.535
319.253
318.947
318.634
318.331
318.055
317.851
312.776
312.921
313.117
313.334
313.557
313.776
313.977
314.146
314.27
314.335
314.335
314.27
314.146
313.977
313.776
313.557
313.334
313.117
312.921
312.776
307.682
307.768
307.886
308.016
308.15
308.282
308.402
308.504
308.578
308.617
308.617
308.578
308.504
308.402
308.282
308.15
308.016
307.886
307.768
307.682
302.576
302.605
302.645
302.688
302.733
302.777
302.818
302.852
302.877
302.89
302.89
302.877
302.852
302.818
302.777
302.733
302.688
302.645
302.605
302.576
338.065
338.527
339.118
339.759
340.418
341.064
341.658
342.159
342.523
342.716
342.716
342.523
342.159
341.658
341.064
340.418
339.759
339.118
338.527
338.065
333.11
333.502
334.011
334.566
335.136
335.695
336.209
336.642
336.956
337.122
337.122
336.956
336.642
336.209
335.695
335.136
334.566
334.011
333.502
333.11
328.104
328.43
328.858
329.327
329.81
330.281
330.716
331.081
331.346
331.486
331.486
331.346
331.081
330.716
330.281
329.81
329.327
328.858
328.43
328.104
323.056
323.318
323.668
324.051
324.445
324.831
325.185
325.484
325.7
325.815
325.815
325.7
325.484
325.185
324.831
324.445
324.051
323.668
323.318
323.056
317.974
318.175
318.446
318.744
319.05
319.35
319.625
319.857
320.025
320.114
320.114
320.025
319.857
319.625
319.35
319.05
318.744
318.446
318.175
317.974
312.864
313.006
313.199
313.412
313.631
313.845
314.041
314.207
314.327
314.39
314.39
314.327
314.207
314.041
313.845
313.631
313.412
313.199
313.006
312.864
307.735
307.82
307.936
308.063
308.195
308.323
308.441
308.54
308.612
308.65
308.65
308.612
308.54
308.441
308.323
308.195
308.063
307.936
307.82
307.735
302.594
302.622
302.661
302.704
302.748
302.791
302.831
302.864
302.888
302.901
302.901
302.888
302.864
302.831
302.791
302.748
302.704
302.661
302.622
302.594
338.456
338.908
339.484
340.108
340.747
341.372
341.946
342.429
342.78
342.965
342.965
342.78
342.429
341.946
341.372
340.747
340.108
339.484
338.908
338.456
333.45
333.833
334.329
334.869
335.423
335.964
336.46
336.877
337.18
337.34
337.34
337.18
336.877
336.46
335.964
335.423
334.869
334.329
333.833
333.45
328.393
328.711
329.129
329.585
330.053
330.51
330.929
331.282
331.537
331.672
331.672
331.537
331.282
330.929
330.51
330.053
329.585
329.129
328.711
328.393
323.293
323.549
323.89
324.263
324.645
325.018
325.361
325.649
325.858
325.967
325.967
325.858
325.649
325.361
325.018
324.645
324.263
323.89
323.549
323.293
318.158
318.354
318.619
318.909
319.206
319.496
319.762
319.986
320.148
320.233
320.233
320.148
319.986
319.762
319.496
319.206
318.909
318.619
318.354
318.158
312.996
313.135
313.323
313.53
313.742
313.95
314.14
314.299
314.415
314.476
314.476
314.415
314.299
314.14
313.95
313.742
313.53
313.323
313.135
312.996
307.814
307.897
308.01
308.134
308.262
308.386
308.5
308.596
308.665
308.702
308.702
308.665
308.596
308.5
308.386
308.262
308.134
308.01
307.897
307.814
302.621
302.648
302.686
302.728
302.771
302.812
302.851
302.883
302.906
302.918
302.918
302.906
302.883
302.851
302.812
302.771
302.728
302.686
302.648
302.621
338.981
339.419
339.975
340.577
341.192
341.791
342.34
342.8
343.133
343.309
343.309
343.133
342.8
342.34
341.791
341.192
340.577
339.975
339.419
338.981
333.906
334.277
334.757
335.278
335.81
336.328
336.803
337.201
337.489
337.641
337.641
337.489
337.201
336.803
336.328
335.81
335.278
334.757
334.277
333.906
328.78
329.088
329.492
329.932
330.382
330.82
331.221
331.557
331.8
331.928
331.928
331.8
331.557
331.221
330.82
330.382
329.932
329.492
329.088
328.78
323.61
323.858
324.188
324.547
324.915
325.273
325.601
325.875
326.074
326.178
326.178
326.074
325.875
325.601
325.273
324.915
324.547
324.188
323.858
323.61
318.405
318.595
318.851
319.131
319.417
319.695
319.949
320.163
320.317
320.398
320.398
320.317
320.163
319.949
319.695
319.417
319.131
318.851
318.595
318.405
313.173
313.307
313.489
313.689
313.893
314.092
314.274
314.426
314.536
314.594
314.594
314.536
314.426
314.274
314.092
313.893
313.689
313.489
313.307
313.173
307.92
308.001
308.11
308.23
308.352
308.472
308.581
308.672
308.738
308.773
308.773
308.738
308.672
308.581
308.472
308.352
308.23
308.11
308.001
307.92
302.656
302.683
302.72
302.76
302.801
302.841
302.878
302.908
302.93
302.942
302.942
302.93
302.908
302.878
302.841
302.801
302.76
302.72
302.683
302.656
339.639
340.061
340.595
341.171
341.757
342.325
342.845
343.279
343.593
343.758
343.758
343.593
343.279
342.845
342.325
341.757
341.171
340.595
340.061
339.639
334.479
334.836
335.296
335.794
336.302
336.794
337.243
337.619
337.89
338.033
338.033
337.89
337.619
337.243
336.794
336.302
335.794
335.296
334.836
334.479
329.266
329.562
329.95
330.371
330.8
331.216
331.595
331.912
332.142
332.262
332.262
332.142
331.912
331.595
331.216
330.8
330.371
329.95
329.562
329.266
324.009
324.247
324.563
324.907
325.258
325.598
325.908
326.167
326.355
326.453
326.453
326.355
326.167
325.908
325.598
325.258
324.907
324.563
324.247
324.009
318.715
318.899
319.144
319.411
319.684
319.948
320.19
320.391
320.536
320.613
320.613
320.536
320.391
320.19
319.948
319.684
319.411
319.144
318.899
318.715
313.395
313.524
313.699
313.89
314.085
314.274
314.446
314.59
314.693
314.748
314.748
314.693
314.59
314.446
314.274
314.085
313.89
313.699
313.524
313.395
308.054
308.131
308.236
308.351
308.468
308.581
308.684
308.771
308.833
308.866
308.866
308.833
308.771
308.684
308.581
308.468
308.351
308.236
308.131
308.054
302.701
302.727
302.762
302.8
302.84
302.878
302.912
302.941
302.962
302.973
302.973
302.962
302.941
302.912
302.878
302.84
302.8
302.762
302.727
302.701
340.435
340.838
341.347
341.893
342.447
342.982
343.469
343.875
344.167
344.321
344.321
344.167
343.875
343.469
342.982
342.447
341.893
341.347
340.838
340.435
335.17
335.511
335.95
336.423
336.903
337.366
337.787
338.138
338.391
338.524
338.524
338.391
338.138
337.787
337.366
336.903
336.423
335.95
335.511
335.17
329.852
330.135
330.505
330.905
331.31
331.702
332.058
332.354
332.568
332.68
332.68
332.568
332.354
332.058
331.702
331.31
330.905
330.505
330.135
329.852
324.489
324.717
325.019
325.345
325.677
325.997
326.288
326.531
326.705
326.797
326.797
326.705
326.531
326.288
325.997
325.677
325.345
325.019
324.717
324.489
319.09
319.265
319.499
319.753
320.011
320.26
320.486
320.674
320.81
320.881
320.881
320.81
320.674
320.486
320.26
320.011
319.753
319.499
319.265
319.09
313.663
313.787
313.953
314.135
314.319
314.497
314.658
314.793
314.889
314.94
314.94
314.889
314.793
314.658
314.497
314.319
314.135
313.953
313.787
313.663
308.215
308.289
308.389
308.498
308.608
308.715
308.812
308.893
308.951
308.981
308.981
308.951
308.893
308.812
308.715
308.608
308.498
308.389
308.289
308.215
302.755
302.78
302.813
302.85
302.887
302.923
302.955
302.982
303.002
303.012
303.012
303.002
302.982
302.955
302.923
302.887
302.85
302.813
302.78
302.755
341.369
341.752
342.234
342.748
343.268
343.768
344.22
344.596
344.866
345.008
345.008
344.866
344.596
344.22
343.768
343.268
342.748
342.234
341.752
341.369
335.982
336.306
336.722
337.167
337.617
338.05
338.442
338.767
339.001
339.123
339.123
339.001
338.767
338.442
338.05
337.617
337.167
336.722
336.306
335.982
330.541
330.81
331.16
331.536
331.917
332.283
332.614
332.889
333.086
333.19
333.19
333.086
332.889
332.614
332.283
331.917
331.536
331.16
330.81
330.541
325.054
325.271
325.556
325.864
326.175
326.474
326.745
326.97
327.131
327.216
327.216
327.131
326.97
326.745
326.474
326.175
325.864
325.556
325.271
325.054
319.53
319.696
319.918
320.157
320.399
320.632
320.842
321.017
321.142
321.208
321.208
321.142
321.017
320.842
320.632
320.399
320.157
319.918
319.696
319.53
313.977
314.095
314.253
314.424
314.597
314.763
314.913
315.038
315.128
315.174
315.174
315.128
315.038
314.913
314.763
314.597
314.424
314.253
314.095
313.977
308.404
308.474
308.569
308.672
308.776
308.875
308.966
309.04
309.094
309.122
309.122
309.094
309.04
308.966
308.875
308.776
308.672
308.569
308.474
308.404
302.819
302.842
302.874
302.908
302.943
302.976
303.007
303.032
303.05
303.059
303.059
303.05
303.032
303.007
302.976
302.943
302.908
302.874
302.842
302.819
342.444
342.806
343.259
343.741
344.225
344.688
345.106
345.451
345.699
345.829
345.829
345.699
345.451
345.106
344.688
344.225
343.741
343.259
342.806
342.444
336.916
337.222
337.613
338.031
338.45
338.851
339.213
339.512
339.726
339.838
339.838
339.726
339.512
339.213
338.851
338.45
338.031
337.613
337.222
336.916
331.333
331.587
331.917
332.27
332.624
332.964
333.269
333.522
333.703
333.798
333.798
333.703
333.522
333.269
332.964
332.624
332.27
331.917
331.587
331.333
325.704
325.908
326.177
326.465
326.756
327.033
327.283
327.49
327.638
327.715
327.715
327.638
327.49
327.283
327.033
326.756
326.465
326.177
325.908
325.704
320.037
320.194
320.402
320.626
320.852
321.068
321.262
321.423
321.538
321.598
321.598
321.538
321.423
321.262
321.068
320.852
320.626
320.402
320.194
320.037
314.34
314.451
314.599
314.76
314.921
315.075
315.214
315.329
315.411
315.454
315.454
315.411
315.329
315.214
315.075
314.921
314.76
314.599
314.451
314.34
308.622
308.688
308.777
308.874
308.97
309.063
309.146
309.215
309.265
309.29
309.29
309.265
309.215
309.146
309.063
308.97
308.874
308.777
308.688
308.622
302.892
302.914
302.944
302.976
303.008
303.039
303.067
303.09
303.107
303.116
303.116
303.107
303.09
303.067
303.039
303.008
302.976
302.944
302.914
302.892
343.662
344.002
344.426
344.874
345.323
345.75
346.133
346.448
346.674
346.791
346.791
346.674
346.448
346.133
345.75
345.323
344.874
344.426
344.002
343.662
337.975
338.263
338.628
339.017
339.405
339.775
340.107
340.38
340.575
340.677
340.677
340.575
340.38
340.107
339.775
339.405
339.017
338.628
338.263
337.975
332.231
332.47
332.778
333.107
333.435
333.748
334.029
334.26
334.425
334.511
334.511
334.425
334.26
334.029
333.748
333.435
333.107
332.778
332.47
332.231
326.44
326.632
326.884
327.152
327.421
327.677
327.907
328.095
328.23
328.301
328.301
328.23
328.095
327.907
327.677
327.421
327.152
326.884
326.632
326.44
320.61
320.758
320.953
321.162
321.371
321.57
321.748
321.895
322
322.055
322.055
322
321.895
321.748
321.57
321.371
321.162
320.953
320.758
320.61
314.75
314.855
314.994
315.143
315.292
315.435
315.562
315.667
315.742
315.781
315.781
315.742
315.667
315.562
315.435
315.292
315.143
314.994
314.855
314.75
308.869
308.931
309.015
309.104
309.194
309.279
309.356
309.419
309.464
309.487
309.487
309.464
309.419
309.356
309.279
309.194
309.104
309.015
308.931
308.869
302.974
302.995
303.023
303.053
303.083
303.112
303.138
303.159
303.174
303.182
303.182
303.174
303.159
303.138
303.112
303.083
303.053
303.023
302.995
302.974
345.025
345.343
345.738
346.153
346.566
346.958
347.307
347.593
347.797
347.904
347.904
347.797
347.593
347.307
346.958
346.566
346.153
345.738
345.343
345.025
339.16
339.429
339.769
340.129
340.487
340.826
341.129
341.377
341.554
341.646
341.646
341.554
341.377
341.129
340.826
340.487
340.129
339.769
339.429
339.16
333.236
333.46
333.747
334.051
334.354
334.641
334.897
335.106
335.256
335.334
335.334
335.256
335.106
334.897
334.641
334.354
334.051
333.747
333.46
333.236
327.265
327.444
327.678
327.927
328.175
328.409
328.619
328.79
328.913
328.976
328.976
328.913
328.79
328.619
328.409
328.175
327.927
327.678
327.444
327.265
321.253
321.391
321.572
321.766
321.958
322.141
322.304
322.437
322.532
322.582
322.582
322.532
322.437
322.304
322.141
321.958
321.766
321.572
321.391
321.253
315.21
315.308
315.437
315.575
315.713
315.843
315.96
316.055
316.123
316.158
316.158
316.123
316.055
315.96
315.843
315.713
315.575
315.437
315.308
315.21
309.145
309.203
309.281
309.364
309.447
309.525
309.595
309.652
309.693
309.714
309.714
309.693
309.652
309.595
309.525
309.447
309.364
309.281
309.203
309.145
303.067
303.086
303.112
303.14
303.168
303.194
303.218
303.237
303.251
303.258
303.258
303.251
303.237
303.218
303.194
303.168
303.14
303.112
303.086
303.067
346.535
346.831
347.197
347.58
347.959
348.316
348.633
348.892
349.076
349.172
349.172
349.076
348.892
348.633
348.316
347.959
347.58
347.197
346.831
346.535
340.472
340.723
341.038
341.37
341.699
342.008
342.283
342.507
342.666
342.749
342.749
342.666
342.507
342.283
342.008
341.699
341.37
341.038
340.723
340.472
334.35
334.558
334.824
335.104
335.382
335.644
335.876
336.066
336.201
336.271
336.271
336.201
336.066
335.876
335.644
335.382
335.104
334.824
334.558
334.35
328.178
328.345
328.562
328.791
329.018
329.233
329.423
329.578
329.688
329.746
329.746
329.688
329.578
329.423
329.233
329.018
328.791
328.562
328.345
328.178
321.964
322.093
322.261
322.439
322.616
322.783
322.931
323.051
323.137
323.182
323.182
323.137
323.051
322.931
322.783
322.616
322.439
322.261
322.093
321.964
315.719
315.81
315.93
316.057
316.184
316.303
316.408
316.495
316.556
316.588
316.588
316.556
316.495
316.408
316.303
316.184
316.057
315.93
315.81
315.719
309.451
309.505
309.577
309.654
309.73
309.801
309.865
309.917
309.953
309.972
309.972
309.953
309.917
309.865
309.801
309.73
309.654
309.577
309.505
309.451
303.17
303.188
303.212
303.238
303.263
303.287
303.308
303.326
303.338
303.344
303.344
303.338
303.326
303.308
303.287
303.263
303.238
303.212
303.188
303.17
348.193
348.468
348.806
349.158
349.504
349.828
350.115
350.348
350.513
350.599
350.599
350.513
350.348
350.115
349.828
349.504
349.158
348.806
348.468
348.193
341.914
342.146
342.437
342.742
343.042
343.323
343.572
343.774
343.917
343.991
343.991
343.917
343.774
343.572
343.323
343.042
342.742
342.437
342.146
341.914
335.573
335.765
336.011
336.269
336.523
336.761
336.971
337.142
337.263
337.326
337.326
337.263
337.142
336.971
336.761
336.523
336.269
336.011
335.765
335.573
329.18
329.335
329.535
329.746
329.954
330.149
330.321
330.461
330.56
330.611
330.611
330.56
330.461
330.321
330.149
329.954
329.746
329.535
329.335
329.18
322.745
322.864
323.02
323.184
323.345
323.497
323.631
323.74
323.817
323.856
323.856
323.817
323.74
323.631
323.497
323.345
323.184
323.02
322.864
322.745
316.278
316.362
316.473
316.59
316.706
316.814
316.909
316.987
317.042
317.071
317.071
317.042
316.987
316.909
316.814
316.706
316.59
316.473
316.362
316.278
309.787
309.837
309.904
309.974
310.044
310.109
310.166
310.213
310.246
310.263
310.263
310.246
310.213
310.166
310.109
310.044
309.974
309.904
309.837
309.787
303.282
303.299
303.321
303.345
303.368
303.39
303.409
303.425
303.436
303.442
303.442
303.436
303.425
303.409
303.39
303.368
303.345
303.321
303.299
303.282
350
350.254
350.565
350.887
351.202
351.496
351.755
351.964
352.112
352.188
352.188
352.112
351.964
351.755
351.496
351.202
350.887
350.565
350.254
350
343.483
343.698
343.967
344.246
344.519
344.774
344.998
345.179
345.307
345.374
345.374
345.307
345.179
344.998
344.774
344.519
344.246
343.967
343.698
343.483
336.904
337.082
337.308
337.545
337.776
337.991
338.181
338.335
338.443
338.499
338.499
338.443
338.335
338.181
337.991
337.776
337.545
337.308
337.082
336.904
330.272
330.415
330.599
330.793
330.982
331.158
331.313
331.439
331.528
331.574
331.574
331.528
331.439
331.313
331.158
330.982
330.793
330.599
330.415
330.272
323.596
323.706
323.849
323.999
324.146
324.284
324.404
324.502
324.571
324.607
324.607
324.571
324.502
324.404
324.284
324.146
323.999
323.849
323.706
323.596
316.886
316.964
317.066
317.174
317.279
317.377
317.463
317.533
317.582
317.608
317.608
317.582
317.533
317.463
317.377
317.279
317.174
317.066
316.964
316.886
310.153
310.199
310.26
310.325
310.388
310.447
310.499
310.541
310.571
310.586
310.586
310.571
310.541
310.499
310.447
310.388
310.325
310.26
310.199
310.153
303.405
303.421
303.441
303.463
303.484
303.504
303.521
303.535
303.545
303.55
303.55
303.545
303.535
303.521
303.504
303.484
303.463
303.441
303.421
303.405
351.952
352.186
352.472
352.766
353.052
353.318
353.55
353.738
353.87
353.938
353.938
353.87
353.738
353.55
353.318
353.052
352.766
352.472
352.186
351.952
345.179
345.378
345.624
345.879
346.127
346.357
346.559
346.722
346.836
346.895
346.895
346.836
346.722
346.559
346.357
346.127
345.879
345.624
345.378
345.179
338.342
338.506
338.714
338.93
339.14
339.335
339.505
339.643
339.74
339.79
339.79
339.74
339.643
339.505
339.335
339.14
338.93
338.714
338.506
338.342
331.45
331.582
331.752
331.928
332.1
332.26
332.399
332.512
332.591
332.632
332.632
332.591
332.512
332.399
332.26
332.1
331.928
331.752
331.582
331.45
324.514
324.615
324.747
324.884
325.018
325.142
325.251
325.338
325.4
325.432
325.432
325.4
325.338
325.251
325.142
325.018
324.884
324.747
324.615
324.514
317.543
317.615
317.708
317.806
317.902
317.991
318.069
318.131
318.175
318.198
318.198
318.175
318.131
318.069
317.991
317.902
317.806
317.708
317.615
317.543
310.548
310.59
310.647
310.705
310.763
310.816
310.863
310.901
310.927
310.941
310.941
310.927
310.901
310.863
310.816
310.763
310.705
310.647
310.59
310.548
303.537
303.552
303.57
303.59
303.609
303.627
303.643
303.656
303.664
303.669
303.669
303.664
303.656
303.643
303.627
303.609
303.59
303.57
303.552
303.537
354.041
354.257
354.518
354.787
355.046
355.286
355.495
355.663
355.78
355.841
355.841
355.78
355.663
355.495
355.286
355.046
354.787
354.518
354.257
354.041
346.993
347.175
347.401
347.633
347.858
348.066
348.247
348.393
348.495
348.548
348.548
348.495
348.393
348.247
348.066
347.858
347.633
347.401
347.175
346.993
339.878
340.03
340.22
340.417
340.607
340.783
340.937
341.06
341.146
341.191
341.191
341.146
341.06
340.937
340.783
340.607
340.417
340.22
340.03
339.878
332.709
332.83
332.986
333.146
333.302
333.446
333.572
333.673
333.744
333.78
333.78
333.744
333.673
333.572
333.446
333.302
333.146
332.986
332.83
332.709
325.494
325.587
325.707
325.833
325.954
326.066
326.164
326.242
326.297
326.326
326.326
326.297
326.242
326.164
326.066
325.954
325.833
325.707
325.587
325.494
318.244
318.31
318.395
318.485
318.572
318.652
318.722
318.778
318.817
318.838
318.838
318.817
318.778
318.722
318.652
318.572
318.485
318.395
318.31
318.244
310.968
311.008
311.059
311.113
311.165
311.213
311.255
311.289
311.313
311.325
311.325
311.313
311.289
311.255
311.213
311.165
311.113
311.059
311.008
310.968
303.678
303.692
303.709
303.727
303.744
303.761
303.775
303.786
303.794
303.798
303.798
303.794
303.786
303.775
303.761
303.744
303.727
303.709
303.692
303.678
356.244
356.442
356.681
356.926
357.161
357.377
357.565
357.715
357.82
357.874
357.874
357.82
357.715
357.565
357.377
357.161
356.926
356.681
356.442
356.244
348.901
349.069
349.275
349.487
349.691
349.879
350.042
350.172
350.263
350.31
350.31
350.263
350.172
350.042
349.879
349.691
349.487
349.275
349.069
348.901
341.493
341.632
341.806
341.985
342.158
342.317
342.455
342.565
342.642
342.682
342.682
342.642
342.565
342.455
342.317
342.158
341.985
341.806
341.632
341.493
334.029
334.141
334.283
334.43
334.571
334.701
334.814
334.904
334.968
335
335
334.968
334.904
334.814
334.701
334.571
334.43
334.283
334.141
334.029
326.52
326.606
326.716
326.831
326.941
327.042
327.13
327.2
327.249
327.275
327.275
327.249
327.2
327.13
327.042
326.941
326.831
326.716
326.606
326.52
318.977
319.038
319.116
319.198
319.277
319.349
319.412
319.462
319.497
319.515
319.515
319.497
319.462
319.412
319.349
319.277
319.198
319.116
319.038
318.977
311.409
311.445
311.492
311.541
311.589
311.632
311.67
311.7
311.721
311.732
311.732
311.721
311.7
311.67
311.632
311.589
311.541
311.492
311.445
311.409
303.826
303.838
303.854
303.87
303.886
303.901
303.913
303.924
303.931
303.934
303.934
303.931
303.924
303.913
303.901
303.886
303.87
303.854
303.838
303.826
358.501
358.683
358.903
359.126
359.339
359.535
359.704
359.838
359.933
359.981
359.981
359.933
359.838
359.704
359.535
359.339
359.126
358.903
358.683
358.501
350.848
351.002
351.191
351.385
351.57
351.74
351.887
352.004
352.085
352.127
352.127
352.085
352.004
351.887
351.74
351.57
351.385
351.191
351.002
350.848
343.132
343.26
343.42
343.584
343.741
343.885
344.009
344.108
344.177
344.213
344.213
344.177
344.108
344.009
343.885
343.741
343.584
343.42
343.26
343.132
335.365
335.468
335.598
335.733
335.861
335.979
336.081
336.162
336.219
336.248
336.248
336.219
336.162
336.081
335.979
335.861
335.733
335.598
335.468
335.365
327.556
327.635
327.736
327.841
327.941
328.033
328.112
328.175
328.219
328.242
328.242
328.219
328.175
328.112
328.033
327.941
327.841
327.736
327.635
327.556
319.715
319.771
319.843
319.918
319.99
320.055
320.112
320.157
320.189
320.205
320.205
320.189
320.157
320.112
320.055
319.99
319.918
319.843
319.771
319.715
311.852
311.885
311.928
311.973
312.016
312.056
312.09
312.117
312.136
312.146
312.146
312.136
312.117
312.09
312.056
312.016
311.973
311.928
311.885
311.852
303.974
303.985
304
304.015
304.029
304.043
304.054
304.063
304.07
304.073
304.073
304.07
304.063
304.054
304.043
304.029
304.015
304
303.985
303.974
360.665
360.833
361.036
361.241
361.436
361.614
361.768
361.89
361.975
362.018
362.018
361.975
361.89
361.768
361.614
361.436
361.241
361.036
360.833
360.665
352.691
352.834
353.009
353.187
353.357
353.511
353.645
353.751
353.825
353.863
353.863
353.825
353.751
353.645
353.511
353.357
353.187
353.009
352.834
352.691
344.668
344.787
344.935
345.085
345.229
345.361
345.474
345.564
345.627
345.659
345.659
345.627
345.564
345.474
345.361
345.229
345.085
344.935
344.787
344.668
336.605
336.701
336.822
336.945
337.063
337.171
337.264
337.338
337.389
337.416
337.416
337.389
337.338
337.264
337.171
337.063
336.945
336.822
336.701
336.605
328.511
328.584
328.678
328.774
328.866
328.95
329.022
329.08
329.12
329.141
329.141
329.12
329.08
329.022
328.95
328.866
328.774
328.678
328.584
328.511
320.392
320.444
320.51
320.579
320.645
320.705
320.757
320.798
320.827
320.842
320.842
320.827
320.798
320.757
320.705
320.645
320.579
320.51
320.444
320.392
312.256
312.287
312.327
312.368
312.408
312.444
312.475
312.5
312.517
312.526
312.526
312.517
312.5
312.475
312.444
312.408
312.368
312.327
312.287
312.256
304.109
304.12
304.133
304.147
304.16
304.172
304.183
304.191
304.197
304.2
304.2
304.197
304.191
304.183
304.172
304.16
304.147
304.133
304.12
304.109
362.353
362.511
362.701
362.894
363.077
363.243
363.385
363.499
363.577
363.618
363.618
363.577
363.499
363.385
363.243
363.077
362.894
362.701
362.511
362.353
354.075
354.209
354.374
354.542
354.701
354.846
354.971
355.07
355.138
355.174
355.174
355.138
355.07
354.971
354.846
354.701
354.542
354.374
354.209
354.075
345.786
345.898
346.038
346.18
346.316
346.439
346.545
346.629
346.687
346.717
346.717
346.687
346.629
346.545
346.439
346.316
346.18
346.038
345.898
345.786
337.486
337.577
337.691
337.808
337.919
338.02
338.107
338.177
338.225
338.249
338.249
338.225
338.177
338.107
338.02
337.919
337.808
337.691
337.577
337.486
329.176
329.245
329.334
329.425
329.512
329.591
329.659
329.713
329.751
329.77
329.77
329.751
329.713
329.659
329.591
329.512
329.425
329.334
329.245
329.176
320.857
320.906
320.969
321.035
321.097
321.154
321.202
321.241
321.268
321.282
321.282
321.268
321.241
321.202
321.154
321.097
321.035
320.969
320.906
320.857
312.531
312.56
312.599
312.638
312.675
312.709
312.739
312.762
312.778
312.786
312.786
312.778
312.762
312.739
312.709
312.675
312.638
312.599
312.56
312.531
304.201
304.211
304.224
304.237
304.249
304.261
304.271
304.278
304.284
304.287
304.287
304.284
304.278
304.271
304.261
304.249
304.237
304.224
304.211
304.201
)
;

boundaryField
{
    hotSide
    {
        type            fixedGradient;
        gradient        nonuniform List<scalar> 
400
(
387.635
388.983
391.684
395.747
401.187
408.021
416.27
425.955
437.099
449.725
463.856
479.511
496.71
515.47
535.806
557.731
581.256
606.388
633.136
661.504
393.876
395.174
397.778
401.7
406.959
413.578
421.585
431.007
441.874
454.214
468.056
483.425
500.345
518.834
538.911
560.59
583.883
608.8
635.346
663.528
400.629
401.869
404.357
408.111
413.156
419.523
427.246
436.362
446.909
458.923
472.438
487.485
504.092
522.282
542.075
563.487
586.531
611.217
637.55
665.536
407.784
408.955
411.308
414.868
419.666
425.743
433.143
441.913
452.101
463.751
476.904
491.599
507.867
525.735
545.225
566.355
589.138
613.583
639.696
667.482
415.14
416.233
418.436
421.778
426.301
432.057
439.101
447.493
457.291
468.55
481.318
495.64
511.553
529.087
548.265
569.107
591.626
615.83
641.724
669.312
422.39
423.401
425.443
428.553
432.784
438.201
444.873
452.872
462.267
473.125
485.502
499.449
515.008
532.211
551.084
571.645
593.909
617.881
643.567
670.968
429.12
430.048
431.929
434.809
438.752
443.835
450.142
457.759
466.766
477.24
489.246
502.84
518.067
534.963
553.554
573.86
595.891
619.655
645.154
672.388
434.832
435.685
437.421
440.094
443.779
448.565
454.55
461.83
470.498
480.638
492.323
505.614
520.559
537.195
555.55
575.641
597.48
621.072
646.417
673.514
439.012
439.808
441.434
443.948
447.437
451.998
457.738
464.765
473.179
483.071
494.519
507.587
522.325
538.772
556.955
576.892
598.592
622.061
647.297
674.297
441.227
441.992
443.557
445.986
449.368
453.807
459.416
466.306
474.584
484.343
495.664
508.613
523.242
539.589
557.682
577.537
599.165
622.569
647.748
674.698
441.227
441.992
443.557
445.986
449.368
453.807
459.416
466.306
474.584
484.343
495.664
508.613
523.242
539.589
557.682
577.537
599.165
622.569
647.748
674.698
439.012
439.808
441.434
443.948
447.437
451.998
457.738
464.765
473.179
483.071
494.519
507.587
522.325
538.772
556.955
576.892
598.592
622.061
647.297
674.297
434.832
435.685
437.421
440.094
443.779
448.565
454.55
461.83
470.498
480.638
492.323
505.614
520.559
537.195
555.55
575.641
597.48
621.072
646.417
673.514
429.12
430.048
431.929
434.809
438.752
443.835
450.142
457.759
466.766
477.24
489.246
502.84
518.067
534.963
553.554
573.86
595.891
619.655
645.154
672.388
422.39
423.401
425.443
428.553
432.784
438.201
444.873
452.872
462.267
473.125
485.502
499.449
515.008
532.211
551.084
571.645
593.909
617.881
643.567
670.968
415.14
416.233
418.436
421.778
426.301
432.057
439.101
447.493
457.291
468.55
481.318
495.64
511.553
529.087
548.265
569.107
591.626
615.83
641.724
669.312
407.784
408.955
411.308
414.868
419.666
425.743
433.143
441.913
452.101
463.751
476.904
491.599
507.867
525.735
545.225
566.355
589.138
613.583
639.696
667.482
400.629
401.869
404.357
408.111
413.156
419.523
427.246
436.362
446.909
458.923
472.438
487.485
504.092
522.282
542.075
563.487
586.531
611.217
637.55
665.536
393.876
395.174
397.778
401.7
406.959
413.578
421.585
431.007
441.874
454.214
468.056
483.425
500.345
518.834
538.911
560.59
583.883
608.8
635.346
663.528
387.635
388.983
391.684
395.747
401.187
408.021
416.27
425.955
437.099
449.725
463.856
479.511
496.71
515.47
535.806
557.731
581.256
606.388
633.136
661.504
)
;
    }
    coldSide
    {
        type            mixed;
        refValue        uniform 300;
        refGradient     uniform 0;
        valueFraction   uniform 0.991591;
        source          uniform 0;
        value           nonuniform List<scalar> 
400
(
300.022
300.022
300.022
300.022
300.022
300.023
300.023
300.024
300.024
300.025
300.026
300.027
300.028
300.029
300.03
300.031
300.032
300.033
300.035
300.035
300.022
300.022
300.022
300.022
300.023
300.023
300.023
300.024
300.025
300.025
300.026
300.027
300.028
300.029
300.03
300.031
300.032
300.034
300.035
300.035
300.022
300.022