/*--------------------------------*- C++ -*----------------------------------*\
| =========                 |                                                 |
| \\      /  F ield         | OpenFOAM: The Open Source CFD Toolbox           |
|  \\    /   O peration     | Version:  2212                                  |
|   \\  /    A nd           | Website:  www.openfoam.com                      |
|    \\/     M anipulation  |                                                 |
\*---------------------------------------------------------------------------*/
FoamFile
{
    version     2.0;
    format      ascii;
    arch        "LSB;label=32;scalar=64";
    class       volScalarField;
    location    "./ITHACAoutput/true/12.1";
    object      trueState;
}
// * * * * * * * * * * * * * * * * * * * * * * * * * * * * * * * * * * * * * //

dimensions      [0 0 0 1 0 0 0];

internalField   nonuniform List<scalar> 
3200
(
319.116
319.489
319.966
320.485
321.019
321.544
322.029
322.438
322.735
322.893
322.893
322.735
322.438
322.029
321.544
321.019
320.485
319.966
319.489
319.116
316.618
316.933
317.344
317.793
318.256
318.71
319.129
319.482
319.739
319.875
319.875
319.739
319.482
319.129
318.71
318.256
317.793
317.344
316.933
316.618
314.098
314.36
314.706
315.086
315.477
315.86
316.214
316.512
316.729
316.843
316.843
316.729
316.512
316.214
315.86
315.477
315.086
314.706
314.36
314.098
311.561
311.772
312.054
312.364
312.684
312.997
313.286
313.53
313.707
313.8
313.8
313.707
313.53
313.286
312.997
312.684
312.364
312.054
311.772
311.561
309.01
309.172
309.391
309.631
309.88
310.123
310.348
310.537
310.674
310.747
310.747
310.674
310.537
310.348
310.123
309.88
309.631
309.391
309.172
309.01
306.447
306.561
306.717
306.89
307.067
307.241
307.401
307.536
307.634
307.686
307.686
307.634
307.536
307.401
307.241
307.067
306.89
306.717
306.561
306.447
303.876
303.944
304.038
304.141
304.248
304.352
304.448
304.529
304.588
304.619
304.619
304.588
304.529
304.448
304.352
304.248
304.141
304.038
303.944
303.876
301.3
301.323
301.354
301.389
301.424
301.459
301.491
301.519
301.538
301.549
301.549
301.538
301.519
301.491
301.459
301.424
301.389
301.354
301.323
301.3
319.168
319.538
320.011
320.525
321.054
321.573
322.052
322.456
322.75
322.905
322.905
322.75
322.456
322.052
321.573
321.054
320.525
320.011
319.538
319.168
316.663
316.976
317.383
317.828
318.286
318.735
319.149
319.498
319.752
319.886
319.886
319.752
319.498
319.149
318.735
318.286
317.828
317.383
316.976
316.663
314.136
314.396
314.739
315.115
315.502
315.882
316.231
316.526
316.74
316.853
316.853
316.74
316.526
316.231
315.882
315.502
315.115
314.739
314.396
314.136
311.593
311.802
312.081
312.389
312.705
313.015
313.3
313.541
313.716
313.808
313.808
313.716
313.541
313.3
313.015
312.705
312.389
312.081
311.802
311.593
309.034
309.195
309.412
309.65
309.896
310.137
310.359
310.546
310.681
310.753
310.753
310.681
310.546
310.359
310.137
309.896
309.65
309.412
309.195
309.034
306.464
306.578
306.733
306.903
307.079
307.251
307.409
307.542
307.639
307.69
307.69
307.639
307.542
307.409
307.251
307.079
306.903
306.733
306.578
306.464
303.886
303.954
304.047
304.149
304.255
304.358
304.453
304.533
304.591
304.622
304.622
304.591
304.533
304.453
304.358
304.255
304.149
304.047
303.954
303.886
301.303
301.326
301.357
301.391
301.427
301.461
301.493
301.52
301.539
301.55
301.55
301.539
301.52
301.493
301.461
301.427
301.391
301.357
301.326
301.303
319.273
319.637
320.101
320.606
321.124
321.632
322.1
322.494
322.78
322.931
322.931
322.78
322.494
322.1
321.632
321.124
320.606
320.101
319.637
319.273
316.753
317.062
317.462
317.899
318.347
318.787
319.191
319.531
319.779
319.909
319.909
319.779
319.531
319.191
318.787
318.347
317.899
317.462
317.062
316.753
314.213
314.469
314.806
315.175
315.554
315.926
316.267
316.554
316.763
316.873
316.873
316.763
316.554
316.267
315.926
315.554
315.175
314.806
314.469
314.213
311.655
311.861
312.136
312.438
312.748
313.051
313.33
313.565
313.735
313.825
313.825
313.735
313.565
313.33
313.051
312.748
312.438
312.136
311.861
311.655
309.083
309.241
309.454
309.689
309.93
310.165
310.382
310.564
310.697
310.767
310.767
310.697
310.564
310.382
310.165
309.93
309.689
309.454
309.241
309.083
306.499
306.611
306.763
306.931
307.103
307.271
307.426
307.556
307.65
307.7
307.7
307.65
307.556
307.426
307.271
307.103
306.931
306.763
306.611
306.499
303.907
303.974
304.065
304.166
304.269
304.37
304.463
304.541
304.598
304.628
304.628
304.598
304.541
304.463
304.37
304.269
304.166
304.065
303.974
303.907
301.31
301.333
301.363
301.397
301.431
301.465
301.496
301.523
301.542
301.552
301.552
301.542
301.523
301.496
301.465
301.431
301.397
301.363
301.333
301.31
319.43
319.786
320.238
320.729
321.232
321.724
322.176
322.555
322.831
322.977
322.977
322.831
322.555
322.176
321.724
321.232
320.729
320.238
319.786
319.43
316.89
317.191
317.581
318.006
318.442
318.867
319.257
319.586
319.824
319.95
319.95
319.824
319.586
319.257
318.867
318.442
318.006
317.581
317.191
316.89
314.329
314.579
314.908
315.266
315.635
315.994
316.324
316.601
316.802
316.908
316.908
316.802
316.601
316.324
315.994
315.635
315.266
314.908
314.579
314.329
311.75
311.951
312.219
312.513
312.814
313.107
313.377
313.603
313.767
313.854
313.854
313.767
313.603
313.377
313.107
312.814
312.513
312.219
311.951
311.75
309.157
309.311
309.519
309.747
309.981
310.209
310.419
310.595
310.722
310.789
310.789
310.722
310.595
310.419
310.209
309.981
309.747
309.519
309.311
309.157
306.552
306.661
306.81
306.972
307.139
307.302
307.452
307.577
307.668
307.716
307.716
307.668
307.577
307.452
307.302
307.139
306.972
306.81
306.661
306.552
303.939
304.004
304.093
304.191
304.291
304.389
304.479
304.554
304.609
304.637
304.637
304.609
304.554
304.479
304.389
304.291
304.191
304.093
304.004
303.939
301.321
301.343
301.373
301.405
301.439
301.472
301.502
301.527
301.545
301.555
301.555
301.545
301.527
301.502
301.472
301.439
301.405
301.373
301.343
301.321
319.642
319.987
320.424
320.898
321.381
321.852
322.284
322.646
322.908
323.047
323.047
322.908
322.646
322.284
321.852
321.381
320.898
320.424
319.987
319.642
317.074
317.365
317.743
318.153
318.571
318.979
319.352
319.665
319.892
320.011
320.011
319.892
319.665
319.352
318.979
318.571
318.153
317.743
317.365
317.074
314.485
314.727
315.045
315.391
315.745
316.089
316.405
316.669
316.86
316.961
316.961
316.86
316.669
316.405
316.089
315.745
315.391
315.045
314.727
314.485
311.878
312.073
312.332
312.615
312.904
313.186
313.444
313.659
313.816
313.898
313.898
313.816
313.659
313.444
313.186
312.904
312.615
312.332
312.073
311.878
309.256
309.406
309.607
309.827
310.052
310.271
310.471
310.639
310.76
310.824
310.824
310.76
310.639
310.471
310.271
310.052
309.827
309.607
309.406
309.256
306.623
306.729
306.872
307.029
307.19
307.346
307.489
307.609
307.696
307.741
307.741
307.696
307.609
307.489
307.346
307.19
307.029
306.872
306.729
306.623
303.982
304.045
304.131
304.225
304.322
304.416
304.501
304.573
304.625
304.653
304.653
304.625
304.573
304.501
304.416
304.322
304.225
304.131
304.045
303.982
301.335
301.356
301.385
301.417
301.449
301.481
301.509
301.533
301.551
301.56
301.56
301.551
301.533
301.509
301.481
301.449
301.417
301.385
301.356
301.335
319.909
320.241
320.661
321.114
321.575
322.022
322.43
322.772
323.019
323.149
323.149
323.019
322.772
322.43
322.022
321.575
321.114
320.661
320.241
319.909
317.305
317.586
317.949
318.34
318.74
319.127
319.48
319.775
319.989
320.101
320.101
319.989
319.775
319.48
319.127
318.74
318.34
317.949
317.586
317.305
314.681
314.914
315.219
315.55
315.888
316.215
316.514
316.763
316.943
317.038
317.038
316.943
316.763
316.514
316.215
315.888
315.55
315.219
314.914
314.681
312.039
312.226
312.475
312.746
313.022
313.289
313.533
313.737
313.884
313.962
313.962
313.884
313.737
313.533
313.289
313.022
312.746
312.475
312.226
312.039
309.382
309.526
309.719
309.929
310.143
310.351
310.541
310.699
310.814
310.874
310.874
310.814
310.699
310.541
310.351
310.143
309.929
309.719
309.526
309.382
306.713
306.815
306.952
307.103
307.256
307.404
307.54
307.653
307.734
307.777
307.777
307.734
307.653
307.54
307.404
307.256
307.103
306.952
306.815
306.713
304.036
304.096
304.179
304.269
304.361
304.45
304.532
304.599
304.648
304.674
304.674
304.648
304.599
304.532
304.45
304.361
304.269
304.179
304.096
304.036
301.353
301.374
301.401
301.432
301.462
301.492
301.52
301.542
301.559
301.567
301.567
301.559
301.542
301.52
301.492
301.462
301.432
301.401
301.374
301.353
320.233
320.551
320.951
321.381
321.816
322.237
322.62
322.939
323.169
323.29
323.29
323.169
322.939
322.62
322.237
321.816
321.381
320.951
320.551
320.233
317.587
317.856
318.201
318.573
318.95
319.314
319.646
319.922
320.121
320.225
320.225
320.121
319.922
319.646
319.314
318.95
318.573
318.201
317.856
317.587
314.92
315.142
315.433
315.748
316.067
316.375
316.655
316.888
317.056
317.144
317.144
317.056
316.888
316.655
316.375
316.067
315.748
315.433
315.142
314.92
312.234
312.413
312.651
312.908
313.168
313.42
313.649
313.84
313.977
314.049
314.049
313.977
313.84
313.649
313.42
313.168
312.908
312.651
312.413
312.234
309.534
309.671
309.855
310.055
310.258
310.454
310.632
310.78
310.886
310.942
310.942
310.886
310.78
310.632
310.454
310.258
310.055
309.855
309.671
309.534
306.822
306.919
307.05
307.193
307.338
307.478
307.605
307.71
307.787
307.827
307.827
307.787
307.71
307.605
307.478
307.338
307.193
307.05
306.919
306.822
304.101
304.159
304.238
304.323
304.41
304.494
304.571
304.634
304.68
304.704
304.704
304.68
304.634
304.571
304.494
304.41
304.323
304.238
304.159
304.101
301.375
301.395
301.421
301.45
301.479
301.507
301.533
301.554
301.569
301.577
301.577
301.569
301.554
301.533
301.507
301.479
301.45
301.421
301.395
301.375
320.617
320.918
321.297
321.702
322.11
322.504
322.86
323.155
323.368
323.479
323.479
323.368
323.155
322.86
322.504
322.11
321.702
321.297
320.918
320.617
317.92
318.175
318.502
318.852
319.206
319.547
319.855
320.11
320.294
320.391
320.391
320.294
320.11
319.855
319.547
319.206
318.852
318.502
318.175
317.92
315.202
315.413
315.689
315.985
316.284
316.572
316.832
317.049
317.204
317.285
317.285
317.204
317.049
316.832
316.572
316.284
315.985
315.689
315.413
315.202
312.465
312.635
312.86
313.102
313.347
313.582
313.795
313.972
314.099
314.165
314.165
314.099
313.972
313.795
313.582
313.347
313.102
312.86
312.635
312.465
309.714
309.844
310.019
310.207
310.397
310.58
310.746
310.883
310.982
311.033
311.033
310.982
310.883
310.746
310.58
310.397
310.207
310.019
309.844
309.714
306.95
307.043
307.167
307.301
307.437
307.568
307.686
307.784
307.855
307.892
307.892
307.855
307.784
307.686
307.568
307.437
307.301
307.167
307.043
306.95
304.178
304.234
304.308
304.389
304.47
304.549
304.62
304.679
304.721
304.743
304.743
304.721
304.679
304.62
304.549
304.47
304.389
304.308
304.234
304.178
301.401
301.42
301.445
301.472
301.499
301.525
301.549
301.569
301.583
301.59
301.59
301.583
301.569
301.549
301.525
301.499
301.472
301.445
301.42
301.401
321.06
321.345
321.702
322.081
322.462
322.826
323.155
323.426
323.621
323.723
323.723
323.621
323.426
323.155
322.826
322.462
322.081
321.702
321.345
321.06
318.305
318.546
318.853
319.182
319.512
319.827
320.112
320.347
320.516
320.604
320.604
320.516
320.347
320.112
319.827
319.512
319.182
318.853
318.546
318.305
315.528
315.728
315.987
316.264
316.543
316.81
317.051
317.25
317.392
317.467
317.467
317.392
317.25
317.051
316.81
316.543
316.264
315.987
315.728
315.528
312.733
312.893
313.105
313.332
313.56
313.778
313.975
314.137
314.254
314.315
314.315
314.254
314.137
313.975
313.778
313.56
313.332
313.105
312.893
312.733
309.922
310.045
310.209
310.386
310.563
310.733
310.886
311.012
311.103
311.15
311.15
311.103
311.012
310.886
310.733
310.563
310.386
310.209
310.045
309.922
307.099
307.187
307.303
307.429
307.556
307.678
307.787
307.877
307.942
307.975
307.975
307.942
307.877
307.787
307.678
307.556
307.429
307.303
307.187
307.099
304.268
304.32
304.39
304.466
304.542
304.615
304.68
304.734
304.773
304.794
304.794
304.773
304.734
304.68
304.615
304.542
304.466
304.39
304.32
304.268
301.431
301.449
301.472
301.497
301.523
301.547
301.569
301.588
301.601
301.607
301.607
301.601
301.588
301.569
301.547
301.523
301.497
301.472
301.449
301.431
321.567
321.834
322.168
322.521
322.873
323.209
323.51
323.759
323.936
324.029
324.029
323.936
323.759
323.51
323.209
322.873
322.521
322.168
321.834
321.567
318.744
318.971
319.258
319.564
319.87
320.161
320.422
320.636
320.79
320.87
320.87
320.79
320.636
320.422
320.161
319.87
319.564
319.258
318.971
318.744
315.9
316.088
316.331
316.589
316.848
317.094
317.314
317.496
317.626
317.693
317.693
317.626
317.496
317.314
317.094
316.848
316.589
316.331
316.088
315.9
313.038
313.189
313.387
313.598
313.809
314.011
314.191
314.34
314.446
314.501
314.501
314.446
314.34
314.191
314.011
313.809
313.598
313.387
313.189
313.038
310.16
310.276
310.429
310.593
310.758
310.914
311.055
311.17
311.253
311.296
311.296
311.253
311.17
311.055
310.914
310.758
310.593
310.429
310.276
310.16
307.269
307.351
307.461
307.578
307.695
307.807
307.908
307.99
308.049
308.08
308.08
308.049
307.99
307.908
307.807
307.695
307.578
307.461
307.351
307.269
304.37
304.419
304.485
304.555
304.626
304.693
304.753
304.802
304.838
304.856
304.856
304.838
304.802
304.753
304.693
304.626
304.555
304.485
304.419
304.37
301.465
301.482
301.504
301.527
301.551
301.574
301.594
301.61
301.622
301.628
301.628
301.622
301.61
301.594
301.574
301.551
301.527
301.504
301.482
301.465
322.137
322.387
322.698
323.024
323.349
323.657
323.932
324.157
324.318
324.402
324.402
324.318
324.157
323.932
323.657
323.349
323.024
322.698
322.387
322.137
319.239
319.451
319.719
320.002
320.284
320.55
320.788
320.984
321.123
321.195
321.195
321.123
320.984
320.788
320.55
320.284
320.002
319.719
319.451
319.239
316.32
316.496
316.721
316.961
317.199
317.424
317.626
317.791
317.908
317.97
317.97
317.908
317.791
317.626
317.424
317.199
316.961
316.721
316.496
316.32
313.381
313.523
313.707
313.903
314.097
314.282
314.447
314.582
314.678
314.728
314.728
314.678
314.582
314.447
314.282
314.097
313.903
313.707
313.523
313.381
310.427
310.536
310.678
310.831
310.982
311.126
311.254
311.359
311.434
311.473
311.473
311.434
311.359
311.254
311.126
310.982
310.831
310.678
310.536
310.427
307.461
307.537
307.639
307.748
307.856
307.959
308.05
308.125
308.179
308.206
308.206
308.179
308.125
308.05
307.959
307.856
307.748
307.639
307.537
307.461
304.485
304.531
304.592
304.657
304.722
304.784
304.839
304.884
304.916
304.933
304.933
304.916
304.884
304.839
304.784
304.722
304.657
304.592
304.531
304.485
301.504
301.519
301.54
301.562
301.583
301.604
301.623
301.638
301.648
301.654
301.654
301.648
301.638
301.623
301.604
301.583
301.562
301.54
301.519
301.504
322.773
323.006
323.293
323.595
323.893
324.174
324.423
324.627
324.771
324.847
324.847
324.771
324.627
324.423
324.174
323.893
323.595
323.293
323.006
322.773
319.791
319.989
320.237
320.498
320.756
320.999
321.216
321.392
321.517
321.583
321.583
321.517
321.392
321.216
320.999
320.756
320.498
320.237
319.989
319.791
316.788
316.951
317.16
317.381
317.6
317.806
317.988
318.138
318.244
318.299
318.299
318.244
318.138
317.988
317.806
317.6
317.381
317.16
316.951
316.788
313.765
313.896
314.067
314.247
314.426
314.595
314.744
314.866
314.953
314.998
314.998
314.953
314.866
314.744
314.595
314.426
314.247
314.067
313.896
313.765
310.726
310.827
310.959
311.099
311.239
311.37
311.486
311.581
311.648
311.683
311.683
311.648
311.581
311.486
311.37
311.239
311.099
310.959
310.827
310.726
307.674
307.745
307.84
307.94
308.04
308.133
308.216
308.284
308.332
308.357
308.357
308.332
308.284
308.216
308.133
308.04
307.94
307.84
307.745
307.674
304.613
304.656
304.713
304.773
304.832
304.889
304.939
304.979
305.008
305.023
305.023
305.008
304.979
304.939
304.889
304.832
304.773
304.713
304.656
304.613
301.547
301.561
301.58
301.6
301.62
301.639
301.656
301.67
301.679
301.684
301.684
301.679
301.67
301.656
301.639
301.62
301.6
301.58
301.561
301.547
323.475
323.691
323.957
324.234
324.506
324.761
324.987
325.17
325.3
325.368
325.368
325.3
325.17
324.987
324.761
324.506
324.234
323.957
323.691
323.475
320.401
320.584
320.813
321.053
321.289
321.51
321.706
321.865
321.977
322.036
322.036
321.977
321.865
321.706
321.51
321.289
321.053
320.813
320.584
320.401
317.305
317.456
317.649
317.852
318.052
318.239
318.405
318.539
318.634
318.684
318.684
318.634
318.539
318.405
318.239
318.052
317.852
317.649
317.456
317.305
314.188
314.31
314.468
314.634
314.797
314.95
315.086
315.196
315.274
315.314
315.314
315.274
315.196
315.086
314.95
314.797
314.634
314.468
314.31
314.188
311.055
311.149
311.271
311.4
311.527
311.647
311.752
311.838
311.898
311.93
311.93
311.898
311.838
311.752
311.647
311.527
311.4
311.271
311.149
311.055
307.91
307.976
308.063
308.155
308.246
308.331
308.407
308.468
308.511
308.534
308.534
308.511
308.468
308.407
308.331
308.246
308.155
308.063
307.976
307.91
304.755
304.795
304.847
304.902
304.957
305.008
305.053
305.09
305.116
305.129
305.129
305.116
305.09
305.053
305.008
304.957
304.902
304.847
304.795
304.755
301.595
301.608
301.625
301.644
301.662
301.679
301.694
301.707
301.715
301.72
301.72
301.715
301.707
301.694
301.679
301.662
301.644
301.625
301.608
301.595
324.245
324.445
324.689
324.943
325.191
325.422
325.625
325.79
325.906
325.967
325.967
325.906
325.79
325.625
325.422
325.191
324.943
324.689
324.445
324.245
321.069
321.239
321.45
321.669
321.884
322.085
322.261
322.404
322.504
322.557
322.557
322.504
322.404
322.261
322.085
321.884
321.669
321.45
321.239
321.069
317.871
318.011
318.189
318.375
318.557
318.726
318.875
318.996
319.081
319.126
319.126
319.081
318.996
318.875
318.726
318.557
318.375
318.189
318.011
317.871
314.652
314.765
314.91
315.062
315.211
315.349
315.472
315.57
315.64
315.676
315.676
315.64
315.57
315.472
315.349
315.211
315.062
314.91
314.765
314.652
311.417
311.503
311.616
311.734
311.85
311.958
312.053
312.13
312.184
312.212
312.212
312.184
312.13
312.053
311.958
311.85
311.734
311.616
311.503
311.417
308.168
308.229
308.31
308.394
308.477
308.554
308.622
308.677
308.716
308.736
308.736
308.716
308.677
308.622
308.554
308.477
308.394
308.31
308.229
308.168
304.91
304.947
304.995
305.046
305.095
305.142
305.183
305.216
305.239
305.251
305.251
305.239
305.216
305.183
305.142
305.095
305.046
304.995
304.947
304.91
301.647
301.659
301.675
301.692
301.709
301.724
301.738
301.749
301.757
301.761
301.761
301.757
301.749
301.738
301.724
301.709
301.692
301.675
301.659
301.647
325.082
325.266
325.49
325.722
325.947
326.156
326.339
326.487
326.59
326.644
326.644
326.59
326.487
326.339
326.156
325.947
325.722
325.49
325.266
325.082
321.795
321.951
322.145
322.346
322.541
322.722
322.881
323.009
323.099
323.145
323.145
323.099
323.009
322.881
322.722
322.541
322.346
322.145
321.951
321.795
318.486
318.615
318.778
318.948
319.113
319.267
319.401
319.509
319.585
319.625
319.625
319.585
319.509
319.401
319.267
319.113
318.948
318.778
318.615
318.486
315.156
315.26
315.393
315.532
315.667
315.792
315.902
315.991
316.053
316.086
316.086
316.053
315.991
315.902
315.792
315.667
315.532
315.393
315.26
315.156
311.809
311.889
311.992
312.1
312.205
312.303
312.388
312.457
312.506
312.531
312.531
312.506
312.457
312.388
312.303
312.205
312.1
311.992
311.889
311.809
308.448
308.505
308.579
308.656
308.731
308.801
308.862
308.911
308.946
308.964
308.964
308.946
308.911
308.862
308.801
308.731
308.656
308.579
308.505
308.448
305.079
305.112
305.157
305.203
305.248
305.29
305.327
305.356
305.377
305.388
305.388
305.377
305.356
305.327
305.29
305.248
305.203
305.157
305.112
305.079
301.703
301.714
301.729
301.745
301.76
301.774
301.786
301.796
301.803
301.807
301.807
301.803
301.796
301.786
301.774
301.76
301.745
301.729
301.714
301.703
325.981
326.151
326.357
326.568
326.772
326.96
327.125
327.257
327.35
327.397
327.397
327.35
327.257
327.125
326.96
326.772
326.568
326.357
326.151
325.981
322.576
322.719
322.897
323.08
323.257
323.42
323.563
323.677
323.757
323.799
323.799
323.757
323.677
323.563
323.42
323.257
323.08
322.897
322.719
322.576
319.146
319.265
319.415
319.57
319.719
319.858
319.978
320.075
320.143
320.179
320.179
320.143
320.075
319.978
319.858
319.719
319.57
319.415
319.265
319.146
315.696
315.792
315.914
316.041
316.163
316.277
316.375
316.455
316.51
316.539
316.539
316.51
316.455
316.375
316.277
316.163
316.041
315.914
315.792
315.696
312.229
312.303
312.398
312.496
312.591
312.68
312.757
312.818
312.862
312.884
312.884
312.862
312.818
312.757
312.68
312.591
312.496
312.398
312.303
312.229
308.749
308.801
308.869
308.939
309.007
309.07
309.125
309.169
309.2
309.216
309.216
309.2
309.169
309.125
309.07
309.007
308.939
308.869
308.801
308.749
305.259
305.29
305.331
305.373
305.414
305.452
305.485
305.511
305.53
305.54
305.54
305.53
305.511
305.485
305.452
305.414
305.373
305.331
305.29
305.259
301.764
301.774
301.788
301.802
301.815
301.828
301.839
301.848
301.854
301.858
301.858
301.854
301.848
301.839
301.828
301.815
301.802
301.788
301.774
301.764
326.935
327.091
327.279
327.471
327.656
327.826
327.974
328.092
328.175
328.217
328.217
328.175
328.092
327.974
327.826
327.656
327.471
327.279
327.091
326.935
323.401
323.533
323.695
323.862
324.022
324.17
324.298
324.4
324.472
324.509
324.509
324.472
324.4
324.298
324.17
324.022
323.862
323.695
323.533
323.401
319.843
319.953
320.09
320.231
320.367
320.492
320.6
320.687
320.748
320.779
320.779
320.748
320.687
320.6
320.492
320.367
320.231
320.09
319.953
319.843
316.266
316.354
316.466
316.581
316.693
316.795
316.884
316.955
317.004
317.03
317.03
317.004
316.955
316.884
316.795
316.693
316.581
316.466
316.354
316.266
312.672
312.74
312.826
312.916
313.003
313.082
313.152
313.207
313.246
313.266
313.266
313.246
313.207
313.152
313.082
313.003
312.916
312.826
312.74
312.672
309.065
309.113
309.175
309.239
309.301
309.358
309.407
309.447
309.475
309.489
309.489
309.475
309.447
309.407
309.358
309.301
309.239
309.175
309.113
309.065
305.449
305.478
305.515
305.553
305.59
305.625
305.654
305.678
305.695
305.703
305.703
305.695
305.678
305.654
305.625
305.59
305.553
305.515
305.478
305.449
301.827
301.837
301.849
301.862
301.875
301.886
301.896
301.904
301.91
301.912
301.912
301.91
301.904
301.896
301.886
301.875
301.862
301.849
301.837
301.827
327.916
328.059
328.232
328.407
328.576
328.729
328.862
328.968
329.042
329.08
329.08
329.042
328.968
328.862
328.729
328.576
328.407
328.232
328.059
327.916
324.246
324.367
324.516
324.668
324.814
324.948
325.063
325.155
325.219
325.252
325.252
325.219
325.155
325.063
324.948
324.814
324.668
324.516
324.367
324.246
320.554
320.655
320.781
320.91
321.033
321.146
321.244
321.322
321.377
321.405
321.405
321.377
321.322
321.244
321.146
321.033
320.91
320.781
320.655
320.554
316.845
316.926
317.029
317.134
317.235
317.328
317.408
317.472
317.517
317.54
317.54
317.517
317.472
317.408
317.328
317.235
317.134
317.029
316.926
316.845
313.121
313.183
313.263
313.345
313.424
313.496
313.558
313.608
313.643
313.66
313.66
313.643
313.608
313.558
313.496
313.424
313.345
313.263
313.183
313.121
309.385
309.429
309.486
309.544
309.601
309.652
309.697
309.733
309.757
309.77
309.77
309.757
309.733
309.697
309.652
309.601
309.544
309.486
309.429
309.385
305.641
305.667
305.701
305.736
305.77
305.801
305.828
305.849
305.864
305.872
305.872
305.864
305.849
305.828
305.801
305.77
305.736
305.701
305.667
305.641
301.891
301.9
301.912
301.923
301.935
301.945
301.954
301.961
301.966
301.969
301.969
301.966
301.961
301.954
301.945
301.935
301.923
301.912
301.9
301.891
328.861
328.993
329.152
329.314
329.467
329.607
329.728
329.824
329.891
329.925
329.925
329.891
329.824
329.728
329.607
329.467
329.314
329.152
328.993
328.861
325.05
325.162
325.299
325.439
325.573
325.695
325.8
325.883
325.941
325.971
325.971
325.941
325.883
325.8
325.695
325.573
325.439
325.299
325.162
325.05
321.223
321.317
321.433
321.552
321.665
321.768
321.857
321.928
321.977
322.003
322.003
321.977
321.928
321.857
321.768
321.665
321.552
321.433
321.317
321.223
317.385
317.46
317.555
317.652
317.745
317.83
317.903
317.961
318.001
318.022
318.022
318.001
317.961
317.903
317.83
317.745
317.652
317.555
317.46
317.385
313.536
313.594
313.667
313.743
313.815
313.881
313.938
313.984
314.015
314.031
314.031
314.015
313.984
313.938
313.881
313.815
313.743
313.667
313.594
313.536
309.679
309.72
309.772
309.827
309.878
309.926
309.966
309.999
310.021
310.033
310.033
310.021
309.999
309.966
309.926
309.878
309.827
309.772
309.72
309.679
305.816
305.841
305.872
305.905
305.936
305.964
305.989
306.008
306.022
306.029
306.029
306.022
306.008
305.989
305.964
305.936
305.905
305.872
305.841
305.816
301.95
301.958
301.969
301.98
301.99
302
302.008
302.014
302.019
302.021
302.021
302.019
302.014
302.008
302
301.99
301.98
301.969
301.958
301.95
329.601
329.726
329.875
330.026
330.17
330.301
330.413
330.502
330.564
330.596
330.596
330.564
330.502
330.413
330.301
330.17
330.026
329.875
329.726
329.601
325.655
325.761
325.891
326.023
326.148
326.262
326.36
326.438
326.492
326.52
326.52
326.492
326.438
326.36
326.262
326.148
326.023
325.891
325.761
325.655
321.712
321.8
321.91
322.022
322.129
322.226
322.309
322.375
322.421
322.445
322.445
322.421
322.375
322.309
322.226
322.129
322.022
321.91
321.8
321.712
317.769
317.841
317.93
318.022
318.11
318.19
318.258
318.313
318.35
318.37
318.37
318.35
318.313
318.258
318.19
318.11
318.022
317.93
317.841
317.769
313.826
313.881
313.951
314.022
314.091
314.153
314.206
314.249
314.279
314.294
314.294
314.279
314.249
314.206
314.153
314.091
314.022
313.951
313.881
313.826
309.882
309.92
309.97
310.022
310.071
310.115
310.154
310.184
310.205
310.216
310.216
310.205
310.184
310.154
310.115
310.071
310.022
309.97
309.92
309.882
305.936
305.959
305.989
306.02
306.05
306.077
306.1
306.118
306.131
306.137
306.137
306.131
306.118
306.1
306.077
306.05
306.02
305.989
305.959
305.936
301.99
301.998
302.008
302.018
302.028
302.037
302.045
302.051
302.055
302.057
302.057
302.055
302.051
302.045
302.037
302.028
302.018
302.008
301.998
301.99
)
;

boundaryField
{
    hotSide
    {
        type            fixedGradient;
        gradient        nonuniform List<scalar> 
400
(
198.043
198.591
199.69
201.348
203.576
206.388
209.801
213.83
218.495
223.812
229.801
236.475
243.852
251.944
260.763
270.319
280.62
291.674
303.485
316.059
202.952
203.461
204.483
206.03
208.116
210.76
213.981
217.804
222.25
227.343
233.105
239.555
246.711
254.59
263.205
272.567
282.687
293.57
305.224
317.651
208.264
208.727
209.658
211.073
212.991
215.436
218.435
222.017
226.212
231.048
236.552
242.748
249.659
257.302
265.694
274.846
284.77
295.472
306.957
319.23
213.893
214.301
215.127
216.389
218.112
220.329
223.074
226.383
230.295
234.845
240.065
245.984
252.628
260.018
268.171
277.102
286.82
297.333
308.645
320.761
219.679
220.026
220.734
221.824
223.332
225.295
227.761
230.773
234.378
238.62
243.537
249.163
255.528
262.655
270.563
279.267
288.777
299.101
310.241
322.2
225.382
225.665
226.245
227.154
228.431
230.129
232.301
235.004
238.293
242.219
246.828
252.159
258.245
265.112
272.78
281.264
290.573
300.714
311.691
323.503
230.676
230.894
231.348
232.075
233.125
234.561
236.446
238.848
241.832
245.456
249.773
254.826
260.652
267.277
274.724
283.006
292.133
302.11
312.939
324.62
235.169
235.328
235.668
236.232
237.08
238.282
239.913
242.05
244.767
248.129
252.194
257.009
262.612
269.033
276.293
284.407
293.382
303.224
313.933
325.506
238.457
238.571
238.824
239.264
239.957
240.982
242.421
244.36
246.877
250.043
253.921
258.561
264.001
270.274
277.399
285.391
294.257
304.002
314.624
326.121
240.2
240.289
240.495
240.867
241.476
242.405
243.74
245.572
247.981
251.044
254.822
259.368
264.723
270.916
277.97
285.898
294.708
304.402
314.979
326.437
240.2
240.289
240.495
240.867
241.476
242.405
243.74
245.572
247.981
251.044
254.822
259.368
264.723
270.916
277.97
285.898
294.708
304.402
314.979
326.437
238.457
238.571
238.824
239.264
239.957
240.982
242.421
244.36
246.877
250.043
253.921
258.561
264.001
270.274
277.399
285.391
294.257
304.002
314.624
326.121
235.169
235.328
235.668
236.232
237.08
238.282
239.913
242.05
244.767
248.129
252.194
257.009
262.612
269.033
276.293
284.407
293.382
303.224
313.933
325.506
230.676
230.894
231.348
232.075
233.125
234.561
236.446
238.848
241.832
245.456
249.773
254.826
260.652
267.277
274.724
283.006
292.133
302.11
312.939
324.62
225.382
225.665
226.245
227.154
228.431
230.129
232.301
235.004
238.293
242.219
246.828
252.159
258.245
265.112
272.78
281.264
290.573
300.714
311.691
323.503
219.679
220.026
220.734
221.824
223.332
225.295
227.761
230.773
234.378
238.62
243.537
249.163
255.528
262.655
270.563
279.267
288.777
299.101
310.241
322.2
213.893
214.301
215.127
216.389
218.112
220.329
223.074
226.383
230.295
234.845
240.065
245.984
252.628
260.018
268.171
277.102
286.82
297.333
308.645
320.761
208.264
208.727
209.658
211.073
212.991
215.436
218.435
222.017
226.212
231.048
236.552
242.748
249.659
257.302
265.694
274.846
284.77
295.472
306.957
319.23
202.952
203.461
204.483
206.03
208.116
210.76
213.981
217.804
222.25
227.343
233.105
239.555
246.711
254.59
263.205
272.567
282.687
293.57
305.224
317.651
198.043
198.591
199.69
201.348
203.576
206.388
209.801
213.83
218.495
223.812
229.801
236.475
243.852
251.944
260.763
270.319
280.62
291.674
303.485
316.059
)
;
    }
    coldSide
    {
        type            mixed;
        refValue        uniform 300;
        refGradient     uniform 0;
        valueFraction   uniform 0.991591;
        source          uniform 0;
        value           nonuniform List<scalar> 
400
(
300.011
300.011
300.011
300.011
300.011
300.011
300.012
300.012
300.012
300.012
300.013
300.013
300.013
300.014
300.014
300.015
300.015
300.016
300.016
300.017
300.011
300.011
300.011
300.011
300.011
300.012
300.012
300.012
300.012
300.012
300.013
300.013
300.014
300.014
300.014
300.015
300.015
300.016
300.016
300.017