/*--------------------------------*- C++ -*----------------------------------*\
| =========                 |                                                 |
| \\      /  F ield         | OpenFOAM: The Open Source CFD Toolbox           |
|  \\    /   O peration     | Version:  2212                                  |
|   \\  /    A nd           | Website:  www.openfoam.com                      |
|    \\/     M anipulation  |                                                 |
\*---------------------------------------------------------------------------*/
FoamFile
{
    version     2.0;
    format      ascii;
    arch        "LSB;label=32;scalar=64";
    class       volScalarField;
    location    "0";
    object      T;
}
// * * * * * * * * * * * * * * * * * * * * * * * * * * * * * * * * * * * * * //

dimensions      [0 0 0 1 0 0 0];

internalField   nonuniform List<scalar> 
3200
(
350.31
349.061
348.215
347.987
348.474
349.371
350.074
351.029
351.79
352.274
352.527
352.375
351.846
351.068
350.364
349.472
349.085
348.993
349.995
351.33
343.535
342.511
341.768
341.589
341.963
342.731
343.344
344.146
344.797
345.224
345.444
345.299
344.826
344.125
343.468
342.689
342.344
342.283
343.095
344.211
336.8
335.958
335.329
335.213
335.467
336.131
336.643
337.281
337.859
338.233
338.402
338.247
337.887
337.25
336.655
335.977
335.697
335.656
336.304
337.232
330.066
329.415
328.906
328.824
328.979
329.521
329.975
330.466
330.945
331.283
331.394
331.261
330.971
330.422
329.9
329.348
329.116
329.116
329.605
330.34
323.377
322.874
322.464
322.415
322.521
322.953
323.321
323.673
324.039
324.316
324.402
324.309
324.079
323.621
323.214
322.777
322.599
322.618
322.973
323.528
316.716
316.327
316.048
316.017
316.064
316.382
316.651
316.89
317.163
317.364
317.431
317.368
317.203
316.825
316.588
316.257
316.109
316.149
316.388
316.787
310.046
309.804
309.654
309.615
309.646
309.834
310
310.148
310.287
310.421
310.459
310.433
310.325
310.083
309.97
309.768
309.669
309.69
309.842
310.072
303.372
303.283
303.237
303.217
303.232
303.297
303.36
303.411
303.447
303.5
303.494
303.498
303.466
303.375
303.339
303.278
303.238
303.254
303.309
303.378
350.393
349.259
348.432
348.294
348.724
349.615
350.473
351.483
352.239
352.956
353.103
352.901
352.419
351.703
350.825
349.891
349.508
349.389
350.191
351.345
343.609
342.645
341.993
341.813
342.174
342.959
343.688
344.508
345.174
345.789
345.907
345.733
345.307
344.645
343.895
343.08
342.754
342.617
343.287
344.243
336.884
336.062
335.54
335.39
335.649
336.328
336.932
337.59
338.173
338.698
338.77
338.611
338.257
337.642
337.036
336.339
336.055
335.933
336.494
337.246
330.171
329.475
329.069
328.971
329.129
329.718
330.204
330.7
331.196
331.62
331.671
331.561
331.258
330.716
330.256
329.66
329.41
329.319
329.784
330.363
323.454
322.909
322.621
322.541
322.631
323.11
323.493
323.838
324.248
324.562
324.6
324.527
324.295
323.841
323.503
323.046
322.828
322.761
323.126
323.548
316.768
316.347
316.165
316.092
316.151
316.499
316.808
317.04
317.317
317.523
317.567
317.496
317.344
317.011
316.796
316.439
316.301
316.254
316.519
316.806
310.079
309.816
309.709
309.659
309.696
309.899
310.097
310.236
310.403
310.508
310.545
310.498
310.409
310.21
310.093
309.863
309.771
309.754
309.915
310.089
303.376
303.292
303.25
303.225
303.249
303.317
303.381
303.441
303.488
303.507
303.531
303.519
303.491
303.422
303.384
303.302
303.277
303.271
303.339
303.375
350.655
349.536
348.794
348.86
349.329
350.27
351.231
352.209
353.047
353.789
354.061
353.956
353.432
352.654
351.684
350.686
350.117
350.013
350.705
351.865
343.847
342.909
342.272
342.319
342.742
343.526
344.349
345.15
345.886
346.505
346.721
346.624
346.168
345.483
344.633
343.754
343.256
343.155
343.748
344.661
337.07
336.275
335.768
335.772
336.137
336.802
337.502
338.141
338.756
339.28
339.437
339.358
338.973
338.375
337.691
336.922
336.491
336.405
336.877
337.612
330.31
329.659
329.28
329.255
329.573
330.103
330.674
331.16
331.661
332.114
332.18
332.171
331.833
331.316
330.773
330.123
329.783
329.706
330.089
330.683
323.559
323.043
322.796
322.748
322.998
323.421
323.853
324.211
324.588
324.963
324.974
325.001
324.733
324.314
323.903
323.377
323.118
323.072
323.353
323.83
316.85
316.424
316.309
316.254
316.418
316.727
317.045
317.283
317.542
317.818
317.816
317.855
317.654
317.365
317.075
316.668
316.485
316.455
316.659
316.999
310.127
309.842
309.811
309.767
309.859
310.031
310.238
310.385
310.53
310.693
310.698
310.711
310.612
310.43
310.243
309.993
309.89
309.87
309.991
310.199
303.405
303.296
303.295
303.273
303.31
303.36
303.429
303.474
303.528
303.585
303.585
303.593
303.554
303.497
303.416
303.351
303.312
303.298
303.343
303.425
351.272
350.169
349.518
349.484
350.172
351.143
352.287
353.337
354.14
354.927
355.212
355.076
354.656
353.695
352.766
351.764
351.092
350.985
351.588
352.626
344.38
343.443
342.908
342.867
343.445
344.248
345.26
346.129
346.821
347.478
347.716
347.58
347.201
346.369
345.556
344.681
344.1
344.015
344.493
345.317
337.511
336.735
336.317
336.266
336.721
337.403
338.247
338.925
339.561
340.108
340.288
340.165
339.821
339.121
338.416
337.693
337.221
337.115
337.497
338.141
330.673
330.033
329.719
329.653
330.015
330.574
331.259
331.776
332.322
332.757
332.902
332.797
332.537
331.939
331.33
330.76
330.389
330.286
330.563
331.082
323.859
323.358
323.142
323.049
323.329
323.755
324.273
324.673
325.125
325.447
325.554
325.463
325.273
324.8
324.325
323.886
323.604
323.526
323.705
324.117
317.075
316.69
316.559
316.465
316.666
316.943
317.338
317.614
317.94
318.169
318.238
318.188
318.034
317.705
317.359
317.043
316.845
316.818
316.894
317.2
310.258
310.017
309.943
309.893
310.007
310.144
310.415
310.575
310.785
310.904
310.951
310.909
310.827
310.611
310.43
310.204
310.105
310.098
310.13
310.321
303.437
303.362
303.333
303.32
303.358
303.396
303.498
303.553
303.621
303.644
303.668
303.663
303.625
303.547
303.5
303.421
303.389
303.377
303.384
303.465
352.031
351.007
350.391
350.481
351.058
352.064
353.272
354.377
355.495
356.414
356.661
356.459
356.027
355.065
353.895
353.035
352.334
352.321
352.848
353.819
345.029
344.18
343.666
343.731
344.216
345.071
346.092
347.027
347.987
348.772
348.971
348.761
348.359
347.528
346.543
345.792
345.179
345.154
345.6
346.356
338.064
337.372
336.928
337.009
337.387
338.078
338.947
339.716
340.523
341.192
341.336
341.158
340.8
340.096
339.264
338.641
338.094
338.077
338.437
339.005
331.138
330.587
330.226
330.285
330.587
331.105
331.848
332.444
333.107
333.656
333.742
333.618
333.311
332.741
332.045
331.56
331.097
331.064
331.34
331.763
324.243
323.805
323.533
323.544
323.804
324.184
324.766
325.219
325.745
326.13
326.207
326.114
325.855
325.434
324.91
324.504
324.147
324.126
324.329
324.627
317.335
317.009
316.823
316.816
317.003
317.27
317.66
318.01
318.401
318.642
318.709
318.642
318.435
318.15
317.804
317.469
317.213
317.206
317.362
317.609
310.417
310.211
310.09
310.101
310.194
310.372
310.61
310.813
311.067
311.187
311.231
311.164
311.044
310.895
310.703
310.498
310.32
310.319
310.416
310.578
303.499
303.423
303.376
303.387
303.408
303.472
303.553
303.627
303.707
303.738
303.77
303.742
303.709
303.659
303.59
303.519
303.457
303.452
303.488
303.543
353.084
352.119
351.435
351.554
352.267
353.228
354.36
355.635
356.736
357.822
358.078
358.032
357.441
356.47
355.392
354.545
353.706
353.596
354.155
355.07
345.89
345.11
344.555
344.652
345.26
346.046
347.036
348.109
349.051
349.982
350.161
350.135
349.59
348.763
347.822
347.102
346.354
346.249
346.702
347.438
338.762
338.124
337.67
337.738
338.288
338.923
339.76
340.64
341.425
342.182
342.325
342.295
341.818
341.121
340.354
339.743
339.096
338.995
339.369
339.942
331.675
331.159
330.822
330.859
331.34
331.826
332.506
333.212
333.85
334.442
334.556
334.508
334.104
333.555
332.923
332.439
331.895
331.826
332.141
332.542
324.631
324.223
323.968
323.976
324.37
324.757
325.27
325.827
326.296
326.739
326.852
326.786
326.471
326.045
325.537
325.195
324.776
324.704
324.972
325.222
317.599
317.302
317.124
317.134
317.431
317.679
318.045
318.446
318.776
319.076
319.174
319.105
318.89
318.558
318.222
317.973
317.655
317.617
317.842
317.989
310.569
310.4
310.293
310.284
310.458
310.622
310.822
311.087
311.267
311.441
311.51
311.449
311.329
311.136
310.944
310.776
310.578
310.573
310.717
310.79
303.541
303.479
303.455
303.445
303.504
303.565
303.618
303.722
303.772
303.833
303.861
303.84
303.792
303.728
303.676
303.602
303.547
303.546
303.588
303.611
354.365
353.35
352.665
352.758
353.556
354.276
355.581
356.849
358.191
359.285
359.583
359.672
359.063
358.067
356.925
356.102
355.328
355.115
355.619
356.422
347.02
346.191
345.594
345.649
346.362
346.949
348.07
349.152
350.287
351.262
351.475
351.535
351.024
350.161
349.151
348.435
347.785
347.559
347.981
348.595
339.709
339.057
338.522
338.571
339.189
339.649
340.606
341.51
342.479
343.276
343.432
343.48
343.081
342.327
341.466
340.854
340.3
340.1
340.466
340.926
332.443
331.931
331.491
331.498
332.042
332.39
333.17
333.927
334.716
335.342
335.469
335.514
335.174
334.551
333.858
333.345
332.901
332.695
333.031
333.373
325.204
324.819
324.493
324.457
324.912
325.154
325.781
326.379
326.974
327.437
327.561
327.6
327.311
326.827
326.289
325.907
325.538
325.351
325.641
325.885
318
317.731
317.518
317.467
317.796
317.961
318.407
318.855
319.244
319.568
319.678
319.707
319.491
319.136
318.746
318.479
318.234
318.071
318.274
318.488
310.81
310.651
310.521
310.482
310.699
310.784
311.056
311.311
311.547
311.728
311.814
311.818
311.69
311.482
311.255
311.09
310.945
310.827
310.953
311.107
303.63
303.577
303.521
303.518
303.583
303.614
303.705
303.783
303.866
303.927
303.963
303.952
303.914
303.848
303.767
303.705
303.666
303.62
303.661
303.732
355.689
354.736
354.161
354.219
354.815
355.708
356.996
358.31
359.7
360.729
361.131
361.199
360.664
359.652
358.519
357.599
357.008
356.777
357.249
358.009
348.16
347.368
346.875
346.919
347.423
348.172
349.305
350.396
351.594
352.47
352.82
352.855
352.381
351.513
350.512
349.711
349.196
348.981
349.386
349.978
340.681
340.05
339.603
339.642
340.082
340.69
341.657
342.549
343.561
344.282
344.582
344.588
344.196
343.471
342.614
341.917
341.463
341.291
341.608
342.09
333.237
332.776
332.383
332.393
332.768
333.27
334.043
334.758
335.584
336.162
336.397
336.404
336.091
335.48
334.774
334.205
333.805
333.684
333.949
334.305
325.799
325.495
325.193
325.159
325.5
325.851
326.433
326.998
327.654
328.091
328.271
328.292
328.029
327.557
326.995
326.58
326.232
326.134
326.342
326.605
318.406
318.198
318.019
317.956
318.216
318.444
318.845
319.283
319.744
320.044
320.173
320.203
320.001
319.661
319.274
318.977
318.705
318.625
318.776
318.983
311.049
310.922
310.817
310.774
310.935
311.057
311.297
311.554
311.857
312.027
312.104
312.137
312.022
311.792
311.556
311.387
311.218
311.166
311.253
311.386
303.7
303.654
303.626
303.608
303.663
303.703
303.779
303.864
303.976
304.018
304.06
304.083
304.037
303.955
303.88
303.818
303.758
303.741
303.772
303.825
357.111
356.146
355.696
355.69
356.261
357.254
358.38
359.727
361.082
362.148
362.682
362.764
362.182
361.231
360.143
359.201
358.627
358.6
358.871
359.744
349.38
348.566
348.209
348.185
348.669
349.521
350.484
351.652
352.781
353.685
354.153
354.194
353.702
352.886
351.912
351.103
350.595
350.554
350.775
351.472
341.709
341.02
340.744
340.704
341.14
341.827
342.637
343.641
344.535
345.302
345.693
345.714
345.32
344.626
343.789
343.104
342.67
342.609
342.79
343.331
334.088
333.535
333.31
333.255
333.647
334.178
334.822
335.66
336.353
337.011
337.278
337.296
337.009
336.426
335.761
335.175
334.811
334.757
334.881
335.317
326.474
326.092
325.91
325.846
326.169
326.572
327.047
327.7
328.222
328.74
328.932
328.946
328.758
328.287
327.785
327.314
326.992
326.972
327.064
327.393
318.898
318.647
318.494
318.467
318.713
318.96
319.303
319.771
320.145
320.512
320.638
320.659
320.525
320.175
319.851
319.473
319.252
319.247
319.294
319.552
311.344
311.187
311.095
311.099
311.248
311.38
311.591
311.857
312.102
312.325
312.386
312.412
312.319
312.097
311.925
311.685
311.541
311.543
311.577
311.742
303.799
303.748
303.709
303.72
303.772
303.813
303.883
303.964
304.058
304.138
304.16
304.168
304.126
304.049
303.992
303.917
303.864
303.869
303.874
303.939
358.505
357.57
357.224
357.166
357.757
358.761
359.787
361.159
362.428
363.618
364.219
364.252
363.741
362.788
361.829
360.878
360.357
360.338
360.632
361.496
350.583
349.781
349.521
349.451
349.96
350.803
351.712
352.867
353.973
354.971
355.465
355.474
355.038
354.205
353.379
352.547
352.08
352.047
352.261
352.991
342.697
342.059
341.85
341.785
342.226
342.914
343.681
344.66
345.602
346.412
346.782
346.794
346.436
345.721
345.025
344.321
343.903
343.875
344.023
344.612
334.858
334.366
334.201
334.145
334.517
335.085
335.685
336.472
337.255
337.911
338.194
338.195
337.921
337.314
336.763
336.187
335.808
335.799
335.898
336.357
327.064
326.694
326.573
326.54
326.817
327.26
327.721
328.342
328.959
329.463
329.66
329.664
329.45
328.981
328.556
328.087
327.792
327.784
327.854
328.203
319.319
319.062
318.984
318.945
319.122
319.445
319.78
320.225
320.665
321.048
321.158
321.186
321.017
320.696
320.368
320.052
319.816
319.786
319.882
320.122
311.6
311.442
311.403
311.366
311.466
311.644
311.888
312.15
312.406
312.643
312.687
312.73
312.605
312.435
312.229
312.037
311.877
311.856
311.932
312.073
303.874
303.838
303.818
303.814
303.837
303.904
303.983
304.068
304.154
304.246
304.253
304.262
304.222
304.167
304.096
304.038
303.976
303.965
303.995
304.043
360.031
359.152
358.712
358.631
359.222
360.19
361.243
362.509
363.924
365.047
365.592
365.687
365.121
364.263
363.436
362.605
362.113
362.045
362.538
363.238
351.893
351.175
350.767
350.708
351.241
352.043
352.961
354.023
355.24
356.207
356.675
356.728
356.219
355.495
354.773
354.002
353.581
353.487
353.936
354.489
343.832
343.233
342.867
342.85
343.3
343.947
344.756
345.597
346.644
347.458
347.842
347.842
347.428
346.818
346.204
345.534
345.164
345.081
345.453
345.882
335.81
335.344
334.997
335.013
335.389
335.905
336.568
337.232
338.107
338.762
339.057
339.052
338.716
338.236
337.704
337.181
336.822
336.778
337.075
337.361
327.832
327.48
327.184
327.199
327.506
327.891
328.427
328.908
329.602
330.105
330.325
330.311
330.063
329.709
329.276
328.877
328.586
328.532
328.774
328.986
319.877
319.644
319.416
319.421
319.644
319.884
320.309
320.623
321.137
321.475
321.617
321.627
321.461
321.217
320.892
320.604
320.383
320.336
320.508
320.673
311.909
311.794
311.672
311.671
311.786
311.923
312.2
312.358
312.697
312.884
312.967
312.973
312.883
312.745
312.541
312.361
312.228
312.183
312.296
312.407
303.996
303.954
303.92
303.908
303.941
303.991
304.084
304.133
304.245
304.298
304.349
304.335
304.31
304.275
304.204
304.142
304.113
304.097
304.128
304.161
361.587
360.834
360.312
360.222
360.829
361.651
362.686
363.963
365.255
366.33
366.853
366.861
366.444
365.774
364.993
364.265
363.823
363.884
364.358
365.079
353.212
352.603
352.164
352.072
352.579
353.328
354.203
355.292
356.397
357.326
357.747
357.744
357.379
356.786
356.097
355.432
355.072
355.119
355.512
356.079
344.885
344.415
344.06
343.98
344.393
345.058
345.792
346.686
347.616
348.389
348.73
348.716
348.384
347.9
347.305
346.73
346.447
346.478
346.789
347.231
336.641
336.289
335.988
335.93
336.235
336.857
337.399
338.129
338.895
339.527
339.783
339.768
339.502
339.117
338.595
338.15
337.899
337.918
338.154
338.476
328.45
328.2
327.946
327.918
328.149
328.67
329.067
329.616
330.22
330.703
330.892
330.851
330.682
330.371
329.964
329.635
329.425
329.445
329.595
329.842
320.309
320.135
319.944
319.936
320.084
320.477
320.759
321.145
321.587
321.931
322.048
321.999
321.893
321.676
321.381
321.165
321.013
321.025
321.096
321.278
312.197
312.109
311.972
311.983
312.053
312.296
312.451
312.704
312.948
313.169
313.231
313.199
313.144
312.994
312.824
312.702
312.62
312.618
312.671
312.761
304.091
304.061
304.023
304.019
304.045
304.126
304.169
304.258
304.335
304.416
304.43
304.425
304.397
304.357
304.292
304.262
304.233
304.229
304.251
304.277
363.161
362.454
362.027
361.859
362.275
363.177
364.161
365.312
366.51
367.345
367.995
368.025
367.716
367.16
366.608
365.884
365.673
365.799
366.111
366.755
354.581
353.978
353.615
353.496
353.859
354.634
355.455
356.444
357.458
358.195
358.745
358.743
358.46
357.976
357.498
356.856
356.663
356.751
356.993
357.533
346.064
345.554
345.248
345.192
345.484
346.16
346.819
347.645
348.483
349.138
349.574
349.558
349.29
348.898
348.5
347.934
347.776
347.82
348.04
348.457
337.594
337.205
336.936
336.91
337.169
337.737
338.258
338.902
339.572
340.125
340.495
340.442
340.211
339.909
339.585
339.099
338.957
339.007
339.173
339.491
329.18
328.898
328.68
328.704
328.894
329.341
329.733
330.211
330.725
331.151
331.479
331.392
331.216
330.988
330.723
330.351
330.238
330.259
330.384
330.624
320.815
320.613
320.455
320.504
320.617
320.945
321.23
321.573
321.936
322.2
322.479
322.405
322.266
322.105
321.917
321.641
321.575
321.576
321.663
321.824
312.501
312.366
312.264
312.313
312.356
312.566
312.745
312.956
313.173
313.323
313.496
313.443
313.351
313.26
313.138
312.999
312.943
312.939
312.971
313.083
304.196
304.144
304.107
304.123
304.135
304.211
304.274
304.351
304.417
304.473
304.527
304.504
304.469
304.435
304.392
304.36
304.336
304.33
304.338
304.383
364.808
363.989
363.559
363.426
363.929
364.671
365.526
366.562
367.611
368.562
369.061
369.258
369.045
368.458
368.048
367.527
367.328
367.539
367.851
368.612
356.015
355.31
354.948
354.822
355.267
355.926
356.651
357.53
358.416
359.26
359.655
359.814
359.614
359.102
358.723
358.271
358.121
358.274
358.522
359.131
347.303
346.694
346.427
346.288
346.652
347.222
347.841
348.572
349.297
350.021
350.355
350.45
350.283
349.84
349.517
349.141
349.007
349.105
349.32
349.812
338.647
338.147
337.901
337.812
338.076
338.599
339.076
339.679
340.255
340.852
341.141
341.179
341.035
340.691
340.413
340.113
339.974
340.05
340.218
340.622
330.044
329.65
329.421
329.366
329.565
330.012
330.356
330.829
331.271
331.729
331.95
331.993
331.843
331.597
331.372
331.17
331.027
331.09
331.196
331.513
321.462
321.178
320.993
320.962
321.11
321.446
321.674
322.014
322.32
322.656
322.796
322.847
322.715
322.549
322.398
322.246
322.131
322.208
322.236
322.468
312.877
312.728
312.589
312.573
312.674
312.872
313.001
313.215
313.399
313.592
313.671
313.716
313.62
313.529
313.443
313.35
313.263
313.337
313.341
313.48
304.319
304.273
304.215
304.217
304.251
304.318
304.355
304.422
304.481
304.556
304.572
304.597
304.567
304.535
304.499
304.473
304.434
304.47
304.477
304.511
366.365
365.703
365.14
365.066
365.433
366.174
367.042
367.845
368.971
369.831
370.165
370.355
370.243
369.872
369.454
369.1
369.117
369.273
369.791
370.376
357.303
356.805
356.305
356.24
356.559
357.193
357.941
358.628
359.577
360.337
360.6
360.741
360.618
360.306
359.941
359.627
359.641
359.768
360.177
360.642
348.328
347.989
347.545
347.459
347.742
348.301
348.911
349.492
350.272
350.924
351.121
351.257
351.093
350.858
350.546
350.266
350.293
350.38
350.711
351.083
339.458
339.216
338.832
338.738
338.99
339.461
339.95
340.43
341.042
341.59
341.734
341.853
341.66
341.529
341.249
341.012
341.004
341.082
341.355
341.654
330.621
330.458
330.16
330.08
330.303
330.654
331.032
331.405
331.864
332.292
332.395
332.499
332.322
332.243
332.006
331.845
331.807
331.892
332.097
332.308
321.871
321.722
321.533
321.48
321.64
321.884
322.165
322.415
322.736
323.031
323.11
323.177
323.058
323.019
322.836
322.714
322.694
322.757
322.881
323.03
313.134
313.024
312.93
312.885
312.99
313.131
313.304
313.45
313.626
313.805
313.867
313.899
313.837
313.814
313.72
313.62
313.619
313.651
313.726
313.815
304.403
304.357
304.335
304.312
304.352
304.405
304.46
304.509
304.553
304.617
304.658
304.648
304.622
304.626
304.588
304.568
304.558
304.57
304.601
304.634
367.963
367.346
366.866
366.598
367.072
367.652
368.436
369.217
370.096
370.826
371.305
371.478
371.526
371.322
370.972
370.751
370.688
370.914
371.52
372.183
358.692
358.21
357.793
357.574
357.98
358.465
359.107
359.777
360.546
361.184
361.571
361.711
361.763
361.575
361.25
361.055
360.984
361.179
361.687
362.207
349.507
349.144
348.772
348.623
348.98
349.336
349.872
350.458
351.092
351.619
351.926
352.067
352.092
351.926
351.627
351.485
351.411
351.575
351.989
352.385
340.39
340.141
339.807
339.731
340.02
340.253
340.725
341.206
341.665
342.137
342.374
342.514
342.507
342.371
342.108
342.026
341.942
342.053
342.382
342.719
331.343
331.188
330.926
330.867
331.101
331.266
331.628
332.017
332.329
332.706
332.895
333.013
332.963
332.881
332.679
332.635
332.555
332.644
332.866
333.143
322.364
322.268
322.052
322.064
322.201
322.32
322.572
322.857
323.064
323.326
323.459
323.563
323.507
323.442
323.301
323.281
323.221
323.272
323.434
323.62
313.433
313.362
313.226
313.257
313.316
313.39
313.538
313.725
313.838
314.002
314.071
314.152
314.112
314.061
313.985
313.964
313.917
313.936
314.048
314.156
304.507
304.475
304.424
304.447
304.459
304.474
304.538
304.6
304.633
304.681
304.701
304.738
304.727
304.708
304.692
304.677
304.656
304.665
304.71
304.748
369.651
368.985
368.538
368.418
368.623
369.032
369.693
370.543
371.329
372.029
372.462
372.803
372.816
372.596
372.366
372.236
372.39
372.654
373.29
374.041
360.153
359.611
359.209
359.105
359.296
359.655
360.213
360.925
361.623
362.201
362.555
362.845
362.863
362.66
362.436
362.347
362.45
362.658
363.208
363.815
350.757
350.301
349.954
349.885
350.035
350.346
350.821
351.407
351.992
352.468
352.764
353.018
353.028
352.851
352.655
352.573
352.648
352.806
353.271
353.737
341.432
341.057
340.789
340.751
340.832
341.106
341.496
341.964
342.457
342.82
343.063
343.274
343.282
343.124
342.949
342.878
342.979
343.09
343.45
343.799
332.166
331.882
331.664
331.665
331.701
331.941
332.245
332.584
332.979
333.257
333.436
333.608
333.611
333.474
333.349
333.286
333.383
333.451
333.723
333.959
322.928
322.758
322.587
322.615
322.622
322.793
323.004
323.266
323.532
323.74
323.858
323.989
323.985
323.886
323.8
323.752
323.83
323.858
324.041
324.202
313.749
313.656
313.551
313.58
313.58
313.692
313.81
313.966
314.113
314.255
314.307
314.383
314.404
314.353
314.282
314.25
314.299
314.305
314.417
314.528
304.606
304.571
304.527
304.552
304.553
304.591
304.633
304.675
304.723
304.774
304.795
304.818
304.831
304.82
304.788
304.776
304.79
304.784
304.831
304.87
371.38
370.574
370.244
369.99
370.07
370.58
371.121
371.786
372.569
373.125
373.71
374.067
373.986
373.991
373.822
373.731
373.961
374.32
375.047
375.764
361.621
360.949
360.673
360.479
360.502
360.966
361.414
361.999
362.663
363.133
363.667
363.961
363.865
363.859
363.689
363.613
363.801
364.108
364.707
365.295
351.988
351.431
351.186
351.058
351.068
351.43
351.804
352.315
352.867
353.272
353.727
353.94
353.872
353.852
353.689
353.623
353.778
354.026
354.527
354.997
342.439
341.982
341.779
341.722
341.695
341.962
342.273
342.715
343.142
343.491
343.862
344.011
343.97
343.949
343.807
343.737
343.878
344.052
344.474
344.814
332.924
332.611
332.428
332.413
332.369
332.58
332.824
333.167
333.498
333.759
334.063
334.148
334.142
334.123
334.008
333.947
334.05
334.164
334.509
334.753
323.468
323.279
323.137
323.139
323.099
323.25
323.426
323.672
323.892
324.093
324.3
324.359
324.363
324.354
324.258
324.237
324.27
324.36
324.597
324.777
314.062
313.991
313.889
313.895
313.87
313.962
314.056
314.214
314.323
314.459
314.587
314.606
314.616
314.632
314.559
314.544
314.561
314.602
314.73
314.853
304.722
304.692
304.652
304.659
304.65
304.669
304.706
304.766
304.799
304.845
304.882
304.884
304.896
304.907
304.884
304.863
304.879
304.887
304.93
304.977
373.069
372.191
371.816
371.594
371.59
372.052
372.487
373.092
373.674
374.24
374.84
375.092
375.138
375.258
375.164
375.283
375.395
375.862
376.625
377.539
363.043
362.325
362.029
361.837
361.827
362.222
362.594
363.121
363.602
364.096
364.609
364.829
364.816
364.943
364.845
364.921
365.004
365.397
366.041
366.785
353.17
352.568
352.336
352.173
352.159
352.491
352.796
353.24
353.639
354.082
354.504
354.675
354.636
354.737
354.658
354.702
354.771
355.084
355.629
356.214
343.377
342.887
342.713
342.58
342.582
342.84
343.113
343.447
343.771
344.146
344.466
344.628
344.573
344.632
344.577
344.619
344.667
344.897
345.361
345.792
333.66
333.292
333.146
333.066
333.061
333.269
333.496
333.696
333.971
334.262
334.522
334.655
334.585
334.638
334.597
334.621
334.664
334.817
335.192
335.511
324.011
323.744
323.645
323.616
323.569
323.738
323.919
324.017
324.23
324.459
324.628
324.739
324.666
324.719
324.685
324.697
324.727
324.792
325.113
325.314
314.392
314.241
314.178
314.162
314.139
314.245
314.364
314.414
314.537
314.672
314.783
314.848
314.806
314.831
314.82
314.836
314.823
314.865
315.066
315.198
304.819
304.773
304.751
304.75
304.737
304.765
304.813
304.82
304.885
304.915
304.954
304.977
304.955
304.963
304.965
304.977
304.965
304.979
305.046
305.098
374.348
373.359
373.104
372.82
372.616
373.025
373.639
374.091
374.636
375.107
375.662
375.849
375.917
376.09
376.236
376.37
376.508
377.025
377.814
378.639
364.108
363.281
363.07
362.838
362.649
363.009
363.547
363.894
364.39
364.783
365.269
365.413
365.45
365.59
365.705
365.815
365.914
366.339
367.008
367.698
354.048
353.333
353.178
352.985
352.816
353.102
353.567
353.841
354.257
354.617
355.003
355.136
355.161
355.264
355.351
355.423
355.522
355.862
356.374
356.935
344.094
343.48
343.379
343.218
343.071
343.324
343.694
343.904
344.213
344.552
344.858
344.975
345
345.08
345.136
345.184
345.25
345.543
345.908
346.364
334.199
333.728
333.667
333.544
333.416
333.635
333.941
334.071
334.305
334.58
334.814
334.903
334.897
334.999
335.013
335.024
335.122
335.327
335.598
335.934
324.392
324.049
324.002
323.924
323.83
324.007
324.223
324.301
324.469
324.66
324.819
324.892
324.885
324.972
324.99
324.952
325.05
325.179
325.373
325.61
314.635
314.434
314.398
314.358
314.298
314.416
314.532
314.58
314.662
314.811
314.879
314.92
314.931
314.981
314.985
314.967
315.032
315.094
315.227
315.364
304.897
304.827
304.826
304.815
304.786
304.835
304.863
304.887
304.919
304.966
304.985
304.985
305.005
305.015
305.01
305.006
305.037
305.063
305.108
305.148
)
;

boundaryField
{
    hotSide
    {
        type            fixedGradient;
        gradient        nonuniform List<scalar> 
400
(
547.633
547.441
550.589
556.989
566.307
578.064
591.747
606.89
623.11
640.111
657.681
675.675
694.007
712.644
731.596
750.912
770.667
790.945
811.811
833.291
527.877
528.016
531.727
538.902
549.135
561.857
576.478
592.482
609.454
627.086
645.16
663.535
682.132
700.93
719.954
739.273
758.987
779.206
800.021
821.47
517.589
518.404
522.747
530.497
541.248
554.435
569.467
585.823
603.084
620.935
639.154
657.6
676.198
694.933
713.839
732.993
752.503
772.488
793.045
814.22
516.17
517.985
523.045
531.224
542.172
555.401
570.387
586.647
603.776
621.463
639.484
657.696
676.027
694.464
713.045
731.848
750.977
770.54
790.628
811.292
521.3
524.311
530.206
538.85
549.951
563.109
577.881
593.837
610.604
627.883
645.454
663.181
680.995
698.893
716.916
735.145
753.675
772.608
792.025
811.979
530.33
534.627
541.491
550.772
562.207
575.453
590.119
605.821
622.209
639.001
655.991
673.054
690.144
707.274
724.504
741.925
759.637
777.739
796.312
815.412
541.064
546.673
554.624
564.75
576.789
590.411
605.241
620.903
637.052
653.41
669.786
686.083
702.29
718.463
734.698
751.114
767.828
784.95
802.563
820.73
551.798
558.681
567.788
578.928
591.825
606.129
621.442
637.352
653.483
669.538
685.338
700.826
716.052
731.14
746.249
761.543
777.169
793.249
809.876
827.11
561.173
569.199
579.422
591.638
605.547
620.764
636.832
653.268
669.619
685.541
700.855
715.558
729.793
743.781
757.761
771.952
786.534
801.643
817.372
833.78
568.087
576.993
588.136
601.306
616.186
632.354
649.29
666.412
683.166
699.131
714.118
728.192
741.601
754.674
767.733
781.048
794.821
809.193
824.256
840.06
571.752
581.128
592.812
606.591
622.139
639.01
656.635
674.364
691.556
707.723
722.665
736.49
749.525
762.171
774.801
787.711
801.114
815.153
829.913
845.441
571.808
581.154
592.876
606.761
622.478
639.569
657.457
675.48
692.993
709.5
724.792
738.965
752.331
765.282
778.184
791.331
804.937
819.144
834.044
849.683
568.454
577.27
588.542
602.052
617.466
634.329
652.085
670.122
687.854
704.837
720.854
735.934
750.296
764.243
778.082
792.077
806.43
821.288
836.748
852.868
562.472
570.361
580.832
593.673
608.546
625.003
642.519
660.537
678.545
696.147
713.114
729.404
745.12
760.455
775.632
790.865
806.334
822.182
838.514
855.397
555.202
561.909
571.413
583.513
597.867
614.017
631.442
649.612
668.053
686.391
704.386
721.935
739.055
755.846
772.455
789.043
805.764
822.75
840.107
857.908
548.548
553.95
562.468
573.916
587.922
603.985
621.546
640.061
659.059
678.169
697.137
715.827
734.199
752.295
770.205
788.051
805.96
824.055
842.437
861.182
545.041
549.146
556.743
567.66
581.47
597.589
615.391
634.295
653.814
673.578
693.329
712.912
732.262
751.384
770.335
789.206
808.109
827.155
846.444
866.045
547.741
550.711
557.475
567.872
581.422
597.466
615.319
634.373
654.135
674.241
694.435
714.557
734.527
754.33
773.999
793.604
813.241
833.013
853.01
873.297
559.364
561.524
567.527
577.229
590.156
605.654
623.044
641.731
661.239
681.21
701.395
721.629
741.82
761.936
781.988
802.026
822.125
842.371
862.842
883.588
580.732
582.447
587.75
596.524
608.379
622.763
639.087
656.818
675.516
694.841
714.546
734.46
754.478
774.548
794.66
814.839
835.133
855.601
876.299
897.261
)
;
    }
    coldSide
    {
        type            mixed;
        refValue        uniform 300;
        refGradient     uniform 0;
        valueFraction   uniform 0.991591;
        source          uniform 0;
        value           nonuniform List<scalar> 
400
(
300.028
300.028
300.029
300.029
300.029
300.03
300.031
300.031
300.032
300.033
300.034
300.034
300.035
300.036
300.037
300.038
300.039
300.04
300.041
300.041
300.028
300.028
300.028
300.028
300.029
300.029
300.03
300.031
300.032
300.032
300.033
300.034
300.035
300.036
300.037
300.038
300.038
300.039
300.04