/*--------------------------------*- C++ -*----------------------------------*\
| =========                 |                                                 |
| \\      /  F ield         | OpenFOAM: The Open Source CFD Toolbox           |
|  \\    /   O peration     | Version:  2212                                  |
|   \\  /    A nd           | Website:  www.openfoam.com                      |
|    \\/     M anipulation  |                                                 |
\*---------------------------------------------------------------------------*/
FoamFile
{
    version     2.0;
    format      ascii;
    arch        "LSB;label=32;scalar=64";
    class       volScalarField;
    location    "0";
    object      T;
}
// * * * * * * * * * * * * * * * * * * * * * * * * * * * * * * * * * * * * * //

dimensions      [0 0 0 1 0 0 0];

internalField   nonuniform List<scalar> 
3200
(
341.624
342.111
343.413
344.039
344.877
345.527
345.879
346.366
346.554
346.585
346.2
346.423
345.939
345.393
344.529
344.049
342.884
341.961
341.051
340.307
336.173
336.53
337.687
338.208
338.924
339.495
339.768
340.282
340.409
340.378
340.053
340.318
339.906
339.383
338.599
338.254
337.222
336.386
335.669
335.015
330.63
330.923
331.951
332.328
332.974
333.456
333.676
334.18
334.198
334.153
333.924
334.21
333.807
333.352
332.699
332.39
331.522
330.79
330.245
329.671
325.091
325.299
326.177
326.52
327.012
327.382
327.596
328.046
327.973
327.965
327.789
328.063
327.695
327.307
326.746
326.555
325.849
325.234
324.773
324.313
319.527
319.722
320.34
320.68
321.046
321.296
321.455
321.817
321.782
321.739
321.65
321.884
321.556
321.248
320.833
320.668
320.129
319.666
319.265
318.915
313.939
314.128
314.499
314.757
315.061
315.203
315.352
315.592
315.57
315.502
315.502
315.681
315.348
315.208
314.907
314.793
314.377
314.084
313.748
313.503
308.355
308.489
308.701
308.793
309.023
309.157
309.23
309.348
309.373
309.302
309.307
309.429
309.204
309.131
308.963
308.835
308.644
308.472
308.257
308.079
302.818
302.875
302.902
302.925
303.022
303.071
303.116
303.1
303.143
303.132
303.133
303.168
303.08
303.075
303.023
302.953
302.897
302.838
302.765
302.694
342.357
343.116
344.289
344.871
345.759
346.351
346.697
346.986
347.215
347.467
347.349
347.131
346.696
346.235
345.447
344.858
343.788
342.74
341.926
340.824
336.735
337.395
338.391
338.888
339.629
340.183
340.501
340.741
340.96
341.161
341.04
340.844
340.512
340.091
339.336
338.877
337.968
337.053
336.359
335.438
331.083
331.632
332.514
332.923
333.559
333.996
334.313
334.5
334.69
334.835
334.746
334.53
334.349
333.953
333.282
332.912
332.136
331.344
330.766
330.054
325.452
325.897
326.619
326.937
327.48
327.832
328.073
328.271
328.417
328.505
328.441
328.266
328.154
327.806
327.228
326.953
326.323
325.633
325.198
324.619
319.803
320.128
320.749
320.966
321.339
321.672
321.832
322.028
322.119
322.195
322.091
322.072
321.9
321.651
321.192
320.967
320.481
319.915
319.638
319.197
314.145
314.354
314.853
314.995
315.202
315.496
315.61
315.758
315.777
315.871
315.712
315.791
315.65
315.464
315.128
314.971
314.643
314.204
314.047
313.737
308.493
308.622
308.955
308.99
309.124
309.327
309.377
309.456
309.457
309.553
309.429
309.531
309.385
309.3
309.087
308.987
308.814
308.506
308.44
308.275
302.834
302.899
303.023
303.019
303.066
303.123
303.145
303.156
303.15
303.224
303.168
303.205
303.141
303.103
303.027
302.995
302.969
302.841
302.817
302.781
343.243
344.092
345.164
345.924
346.656
347.404
347.849
348.023
348.471
348.544
348.488
348.037
347.766
347.091
346.495
345.868
345.062
343.814
342.603
341.765
337.477
338.206
339.1
339.777
340.415
341.078
341.444
341.635
342.029
342.08
342.05
341.603
341.421
340.774
340.282
339.742
339.087
337.958
336.915
336.25
331.765
332.288
333.101
333.668
334.208
334.735
335.04
335.223
335.598
335.64
335.595
335.172
335.064
334.47
334.05
333.64
333.078
332.097
331.23
330.72
326.028
326.43
327.102
327.591
328.003
328.389
328.661
328.787
329.136
329.199
329.147
328.802
328.718
328.21
327.858
327.514
327.06
326.193
325.566
325.163
320.286
320.528
321.103
321.516
321.785
322.087
322.273
322.347
322.625
322.728
322.679
322.443
322.365
321.973
321.684
321.411
321.027
320.352
319.909
319.586
314.524
314.65
315.1
315.375
315.53
315.757
315.895
315.913
316.153
316.251
316.221
316.054
315.991
315.708
315.487
315.309
315
314.509
314.212
313.983
308.729
308.776
309.102
309.197
309.312
309.454
309.589
309.555
309.705
309.761
309.758
309.683
309.608
309.446
309.265
309.219
309.021
308.681
308.559
308.384
302.921
302.948
303.054
303.097
303.109
303.161
303.218
303.182
303.254
303.302
303.285
303.244
303.196
303.167
303.088
303.084
303.027
302.91
302.876
302.812
344.401
345.296
346.262
347.139
347.914
348.475
349.064
349.302
349.615
349.546
349.649
349.532
348.949
348.07
347.633
346.966
346.084
344.69
343.7
342.963
338.477
339.236
340.087
340.787
341.518
341.989
342.497
342.7
342.962
342.926
343.037
342.916
342.458
341.679
341.301
340.687
339.953
338.725
337.917
337.276
332.552
333.193
333.934
334.472
335.139
335.538
335.907
336.093
336.358
336.334
336.375
336.269
335.952
335.288
334.974
334.431
333.79
332.756
332.074
331.594
326.614
327.148
327.781
328.211
328.775
329.07
329.326
329.507
329.784
329.73
329.738
329.649
329.417
328.912
328.649
328.151
327.617
326.778
326.262
325.85
320.708
321.074
321.62
321.952
322.394
322.653
322.785
322.902
323.176
323.121
323.138
323.041
322.872
322.485
322.31
321.878
321.49
320.82
320.423
320.088
314.822
315.029
315.439
315.692
315.989
316.223
316.241
316.343
316.552
316.541
316.548
316.492
316.327
316.082
315.965
315.654
315.34
314.875
314.586
314.352
308.921
308.992
309.258
309.406
309.581
309.769
309.745
309.827
309.942
309.942
309.918
309.892
309.791
309.632
309.572
309.435
309.242
308.956
308.724
308.582
302.995
303.019
303.095
303.156
303.207
303.285
303.255
303.306
303.338
303.354
303.322
303.309
303.304
303.228
303.207
303.167
303.104
303.001
302.924
302.87
345.543
346.371
347.343
348.218
348.88
349.766
350.234
350.654
350.822
350.856
350.729
350.472
350.09
349.376
348.768
347.989
347.046
345.668
344.825
343.795
339.461
340.161
341.049
341.738
342.384
343.087
343.505
343.892
344.047
344.062
343.948
343.765
343.407
342.812
342.244
341.557
340.738
339.592
338.809
338.006
333.383
334.004
334.767
335.354
335.858
336.404
336.815
337.121
337.236
337.239
337.222
337.038
336.713
336.211
335.728
335.169
334.47
333.483
332.837
332.175
327.299
327.849
328.477
328.922
329.369
329.757
330.075
330.341
330.436
330.448
330.483
330.326
330.022
329.613
329.175
328.768
328.23
327.408
326.851
326.336
321.236
321.658
322.21
322.497
322.871
323.128
323.363
323.586
323.71
323.65
323.701
323.602
323.35
323.059
322.653
322.382
321.942
321.368
320.897
320.474
315.194
315.492
315.89
316.099
316.378
316.524
316.693
316.865
317.028
316.843
316.955
316.89
316.663
316.502
316.14
316.005
315.69
315.319
314.958
314.625
309.129
309.31
309.56
309.671
309.871
309.941
310.03
310.164
310.268
310.121
310.213
310.156
310.01
309.937
309.701
309.619
309.468
309.207
309.013
308.767
303.06
303.12
303.206
303.23
303.297
303.341
303.364
303.381
303.443
303.38
303.422
303.414
303.363
303.344
303.262
303.246
303.184
303.073
303.02
302.954
346.516
347.26
348.411
349.253
349.868
350.857
351.329
351.726
351.892
351.961
351.74
351.266
351.121
350.431
349.78
348.969
347.858
346.828
345.628
344.588
340.296
340.954
342.006
342.703
343.22
344.027
344.483
344.838
344.982
345.034
344.802
344.414
344.321
343.701
343.106
342.414
341.443
340.596
339.533
338.641
334.079
334.663
335.601
336.152
336.574
337.22
337.594
337.965
338.02
338.082
337.92
337.548
337.459
336.981
336.433
335.878
335.043
334.387
333.427
332.698
327.861
328.394
329.137
329.547
329.937
330.459
330.712
331.078
331.112
331.149
331.033
330.726
330.622
330.275
329.769
329.381
328.654
328.191
327.341
326.776
321.673
322.105
322.635
322.962
323.289
323.687
323.875
324.158
324.196
324.203
324.145
323.894
323.777
323.551
323.123
322.846
322.255
321.986
321.286
320.865
315.5
315.805
316.155
316.433
316.645
316.894
317.078
317.276
317.295
317.259
317.267
317.037
316.993
316.847
316.501
316.344
315.865
315.706
315.228
314.936
309.311
309.504
309.694
309.898
309.994
310.126
310.246
310.381
310.411
310.376
310.374
310.239
310.177
310.102
309.945
309.805
309.542
309.437
309.152
308.989
303.12
303.182
303.262
303.318
303.341
303.399
303.437
303.473
303.497
303.503
303.481
303.434
303.411
303.391
303.348
303.282
303.205
303.155
303.057
303.011
347.537
348.306
349.361
350.199
351.112
352.097
352.395
352.857
352.787
353.039
352.836
352.411
352.171
351.353
350.652
349.836
348.77
347.86
346.51
345.519
341.218
341.885
342.771
343.496
344.294
345.172
345.418
345.817
345.777
345.978
345.774
345.473
345.2
344.48
343.892
343.184
342.256
341.466
340.283
339.465
334.847
335.476
336.184
336.806
337.463
338.23
338.466
338.798
338.763
338.904
338.721
338.485
338.234
337.64
337.113
336.544
335.771
335.074
334.054
333.415
328.453
329.064
329.591
330.112
330.663
331.258
331.496
331.74
331.774
331.82
331.652
331.536
331.269
330.83
330.363
329.865
329.276
328.665
327.866
327.384
322.117
322.637
322.995
323.39
323.836
324.324
324.481
324.674
324.695
324.743
324.577
324.566
324.286
324.057
323.656
323.236
322.803
322.297
321.658
321.32
315.784
316.165
316.448
316.654
317.027
317.369
317.493
317.607
317.635
317.64
317.534
317.571
317.316
317.214
316.897
316.63
316.287
315.941
315.459
315.24
309.469
309.709
309.904
310.007
310.22
310.448
310.541
310.598
310.581
310.559
310.518
310.563
310.374
310.341
310.134
310.015
309.782
309.58
309.275
309.144
303.186
303.233
303.321
303.35
303.43
303.509
303.534
303.546
303.546
303.526
303.523
303.549
303.474
303.466
303.377
303.348
303.286
303.226
303.097
303.049
348.234
349.37
350.168
351.01
352.283
352.95
353.436
353.825
353.983
354.102
353.607
353.379
353.231
352.364
351.754
350.634
349.681
348.555
347.239
346.148
341.834
342.78
343.468
344.164
345.284
345.927
346.297
346.64
346.796
346.862
346.42
346.256
346.151
345.329
344.848
343.879
343.07
342.125
340.931
340.005
335.407
336.191
336.801
337.379
338.273
338.869
339.192
339.437
339.637
339.614
339.272
339.18
339.059
338.321
337.96
337.1
336.427
335.654
334.656
333.865
328.923
329.603
330.093
330.593
331.311
331.795
332.065
332.255
332.437
332.413
332.118
332.115
331.985
331.335
331.046
330.352
329.787
329.155
328.326
327.748
322.475
323.038
323.411
323.81
324.323
324.782
324.978
325.107
325.22
325.136
325.001
324.968
324.878
324.404
324.162
323.599
323.138
322.671
322.03
321.601
316.048
316.474
316.735
317.027
317.362
317.76
317.876
317.919
318.008
317.923
317.863
317.867
317.753
317.462
317.223
316.873
316.463
316.191
315.774
315.428
309.619
309.89
310.034
310.243
310.409
310.686
310.751
310.758
310.797
310.758
310.718
310.749
310.642
310.503
310.35
310.135
309.888
309.728
309.485
309.245
303.202
303.293
303.354
303.447
303.481
303.597
303.598
303.599
303.611
303.614
303.578
303.605
303.545
303.511
303.48
303.4
303.311
303.262
303.159
303.089
349.105
350.106
350.812
352.038
353.035
353.906
354.222
354.266
354.77
354.737
354.6
354.327
353.78
353.247
352.593
351.518
350.57
349.318
348.182
346.86
342.571
343.415
343.989
345.059
345.918
346.763
346.994
347.048
347.481
347.411
347.298
347.082
346.643
346.139
345.538
344.68
343.841
342.712
341.763
340.671
335.974
336.772
337.173
338.12
338.809
339.612
339.762
339.786
340.217
340.114
339.994
339.788
339.523
339.028
338.498
337.816
337.096
336.117
335.325
334.456
329.393
330.117
330.4
331.228
331.768
332.417
332.551
332.549
332.928
332.806
332.697
332.517
332.37
331.881
331.47
330.982
330.367
329.602
328.881
328.16
322.829
323.449
323.608
324.325
324.708
325.218
325.359
325.318
325.598
325.508
325.449
325.258
325.193
324.769
324.472
324.143
323.585
323.026
322.466
321.922
316.294
316.769
316.846
317.425
317.635
318.041
318.112
318.1
318.285
318.202
318.193
318.045
318.031
317.708
317.452
317.251
316.843
316.481
316.057
315.653
309.755
310.075
310.11
310.487
310.585
310.83
310.892
310.876
311.005
310.903
310.91
310.824
310.826
310.62
310.461
310.365
310.121
309.888
309.637
309.411
303.254
303.379
303.394
303.51
303.557
303.645
303.631
303.643
303.684
303.64
303.663
303.629
303.618
303.555
303.506
303.464
303.388
303.302
303.235
303.152
349.697
350.875
351.808
352.853
353.871
354.385
354.728
355.015
355.565
355.55
355.281
355.144
354.74
354.12
353.452
352.107
351.106
350.054
348.862
347.717
343.11
344.086
344.876
345.771
346.688
347.127
347.428
347.64
348.165
348.157
347.845
347.761
347.421
346.918
346.308
345.143
344.287
343.339
342.334
341.364
336.499
337.29
338.006
338.713
339.504
339.847
340.149
340.324
340.739
340.763
340.457
340.397
340.115
339.707
339.124
338.245
337.459
336.649
335.849
335.013
329.848
330.476
331.067
331.637
332.269
332.571
332.908
333.02
333.335
333.375
333.101
333.039
332.828
332.479
331.998
331.333
330.632
329.979
329.327
328.668
323.206
323.703
324.166
324.552
325.113
325.31
325.617
325.652
325.925
325.993
325.766
325.724
325.538
325.266
324.903
324.403
323.845
323.321
322.814
322.299
316.603
316.938
317.238
317.557
317.926
318.105
318.337
318.296
318.523
318.595
318.434
318.348
318.277
318.037
317.789
317.464
317.047
316.663
316.271
315.915
309.969
310.157
310.344
310.57
310.76
310.879
311.021
310.966
311.132
311.153
311.088
311.009
310.979
310.813
310.7
310.494
310.234
310.025
309.767
309.566
303.329
303.412
303.45
303.562
303.606
303.658
303.714
303.663
303.728
303.738
303.73
303.676
303.692
303.627
303.611
303.506
303.43
303.359
303.272
303.21
350.437
351.448
352.4
353.568
354.448
355.077
355.507
355.761
356.215
356.349
356.002
355.815
355.579
354.585
354.063
353.08
351.894
350.835
349.304
348.472
343.759
344.552
345.391
346.377
347.187
347.711
348.099
348.278
348.7
348.82
348.477
348.365
348.212
347.311
346.825
345.955
344.909
344.065
342.732
342.003
337.014
337.68
338.404
339.252
339.974
340.357
340.698
340.819
341.193
341.327
340.992
340.924
340.818
340.066
339.575
338.873
337.931
337.298
336.157
335.538
330.288
330.856
331.429
332.144
332.745
333.026
333.284
333.386
333.672
333.791
333.534
333.491
333.438
332.775
332.357
331.769
331.007
330.524
329.584
329.047
323.561
324.019
324.438
324.999
325.524
325.704
325.903
325.983
326.201
326.274
326.109
326.073
325.997
325.529
325.132
324.66
324.082
323.73
322.988
322.568
316.829
317.189
317.448
317.866
318.214
318.432
318.531
318.583
318.723
318.785
318.67
318.62
318.59
318.231
317.924
317.583
317.193
316.953
316.409
316.122
310.095
310.317
310.471
310.717
310.945
311.076
311.158
311.148
311.214
311.294
311.234
311.162
311.18
310.968
310.766
310.535
310.357
310.196
309.844
309.672
303.382
303.475
303.511
303.601
303.672
303.745
303.759
303.713
303.741
303.779
303.757
303.734
303.745
303.681
303.596
303.517
303.47
303.438
303.293
303.259
350.867
351.869
352.98
353.979
354.904
355.738
356.305
356.535
356.857
356.958
356.741
356.417
356.185
355.243
354.714
353.727
352.416
351.474
349.887
348.974
344.085
344.983
345.898
346.781
347.544
348.276
348.777
348.952
349.244
349.356
349.129
348.893
348.69
347.908
347.43
346.555
345.397
344.64
343.232
342.484
337.311
338.071
338.786
339.571
340.221
340.82
341.218
341.387
341.661
341.789
341.545
341.362
341.218
340.564
340.164
339.386
338.435
337.773
336.551
335.945
330.506
331.141
331.703
332.356
332.868
333.391
333.706
333.844
334.055
334.216
333.98
333.834
333.762
333.229
332.885
332.23
331.492
330.918
329.933
329.365
323.739
324.25
324.667
325.203
325.566
325.95
326.206
326.291
326.498
326.631
326.416
326.26
326.292
325.904
325.613
325.08
324.503
324.044
323.303
322.799
316.984
317.333
317.643
318.067
318.289
318.529
318.716
318.751
318.932
319.052
318.853
318.735
318.812
318.529
318.327
317.917
317.526
317.156
316.66
316.286
310.194
310.377
310.596
310.874
311.002
311.124
311.228
311.237
311.376
311.425
311.351
311.256
311.278
311.111
311.024
310.787
310.514
310.311
310.015
309.758
303.415
303.472
303.57
303.642
303.684
303.735
303.78
303.777
303.824
303.831
303.815
303.789
303.788
303.716
303.71
303.634
303.506
303.468
303.353
303.254
351.159
352.243
353.514
354.421
355.406
356.209
356.715
356.973
357.461
357.348
357.298
357.134
356.725
355.793
355.092
354.292
352.905
351.984
350.611
349.29
344.338
345.286
346.354
347.138
347.976
348.699
349.134
349.339
349.747
349.673
349.67
349.545
349.188
348.341
347.759
347.05
345.867
345.035
343.864
342.7
337.545
338.36
339.226
339.902
340.575
341.198
341.552
341.744
342.098
342.016
342.012
341.956
341.637
340.892
340.417
339.815
338.797
338.098
337.128
336.114
330.734
331.388
332.111
332.64
333.174
333.726
333.984
334.143
334.435
334.379
334.347
334.306
334.027
333.456
333.073
332.569
331.738
331.155
330.418
329.51
323.878
324.444
325.006
325.387
325.763
326.235
326.469
326.56
326.764
326.732
326.689
326.671
326.469
325.999
325.715
325.293
324.741
324.243
323.697
322.938
317.06
317.462
317.892
318.156
318.377
318.737
318.917
318.956
319.083
319.08
319.024
319.051
318.887
318.545
318.339
318.071
317.698
317.325
316.935
316.379
310.223
310.519
310.742
310.897
311.031
311.251
311.33
311.382
311.423
311.456
311.407
311.447
311.337
311.112
311.031
310.827
310.646
310.415
310.178
309.853
303.434
303.513
303.591
303.664
303.698
303.781
303.788
303.812
303.836
303.834
303.811
303.845
303.8
303.737
303.668
303.633
303.564
303.508
303.418
303.308
351.558
352.666
353.972
354.938
355.839
356.666
357.224
357.595
357.833
358.02
357.951
357.488
356.983
356.202
355.523
354.615
353.283
352.392
350.866
349.798
344.659
345.62
346.794
347.598
348.333
349.102
349.619
349.936
350.119
350.227
350.251
349.847
349.351
348.681
348.1
347.303
346.151
345.426
344.065
343.186
337.778
338.581
339.631
340.269
340.891
341.535
341.943
342.243
342.433
342.437
342.519
342.202
341.777
341.191
340.706
340.001
339.093
338.433
337.266
336.567
330.916
331.523
332.498
332.97
333.446
333.956
334.317
334.569
334.716
334.698
334.781
334.477
334.177
333.704
333.309
332.695
331.947
331.439
330.505
329.915
324.083
324.48
325.304
325.653
326.007
326.417
326.681
326.916
327.02
326.968
327.08
326.777
326.563
326.201
325.885
325.431
324.83
324.476
323.762
323.224
317.263
317.481
318.117
318.311
318.59
318.867
319.033
319.28
319.314
319.242
319.362
319.117
318.956
318.702
318.501
318.185
317.746
317.477
316.942
316.609
310.369
310.503
310.88
310.991
311.166
311.32
311.407
311.578
311.596
311.545
311.653
311.468
311.347
311.22
311.123
310.924
310.644
310.471
310.18
309.97
303.482
303.505
303.658
303.684
303.754
303.788
303.825
303.876
303.887
303.863
303.927
303.829
303.799
303.782
303.714
303.677
303.568
303.495
303.396
303.345
351.963
353.06
354.257
355.257
356.264
357.26
357.713
358.064
358.125
358.425
358.361
357.874
357.124
356.706
355.909
354.925
353.783
352.741
351.187
349.97
345.049
345.968
347.054
347.853
348.742
349.631
350.027
350.313
350.351
350.59
350.609
350.102
349.493
349.118
348.408
347.584
346.599
345.72
344.348
343.305
338.153
338.889
339.86
340.469
341.195
341.98
342.316
342.582
342.583
342.741
342.812
342.351
341.866
341.544
340.925
340.23
339.438
338.652
337.508
336.659
331.238
331.804
332.612
333.079
333.664
334.389
334.608
334.808
334.819
334.941
335.047
334.61
334.217
333.989
333.439
332.91
332.3
331.645
330.712
330.016
324.309
324.741
325.36
325.726
326.147
326.739
326.886
327.015
327.078
327.171
327.255
326.936
326.655
326.436
325.976
325.638
325.109
324.65
323.879
323.369
317.382
317.712
318.112
318.384
318.673
319.089
319.189
319.312
319.331
319.416
319.443
319.24
319.029
318.87
318.58
318.298
317.962
317.653
317.044
316.719
310.401
310.618
310.901
311.041
311.214
311.464
311.531
311.559
311.618
311.655
311.668
311.554
311.411
311.315
311.191
311.018
310.809
310.617
310.241
310.07
303.492
303.539
303.651
303.699
303.75
303.851
303.873
303.863
303.882
303.914
303.909
303.889
303.831
303.797
303.742
303.689
303.641
303.571
303.414
303.38
352.273
353.364
354.434
355.632
356.432
357.374
357.728
358.281
358.563
358.47
358.527
358.049
357.476
356.935
356.283
355.2
354.101
352.831
351.579
350.169
345.29
346.222
347.147
348.176
348.848
349.717
350.003
350.501
350.701
350.64
350.729
350.275
349.786
349.339
348.796
347.869
346.896
345.817
344.696
343.487
338.313
339.109
339.908
340.734
341.286
342.041
342.279
342.692
342.848
342.816
342.902
342.478
342.11
341.76
341.344
340.521
339.649
338.763
337.856
336.838
331.367
331.971
332.708
333.307
333.732
334.401
334.589
334.9
334.983
335.033
335.096
334.72
334.45
334.179
333.867
333.185
332.402
331.735
330.969
330.123
324.388
324.876
325.467
325.861
326.245
326.702
326.949
327.11
327.189
327.262
327.313
327.001
326.821
326.568
326.392
325.871
325.227
324.643
324.081
323.422
317.416
317.783
318.198
318.465
318.7
319.025
319.312
319.307
319.408
319.429
319.494
319.292
319.176
318.95
318.865
318.532
318.047
317.601
317.191
316.692
310.436
310.678
310.954
311.12
311.206
311.435
311.624
311.579
311.671
311.635
311.718
311.591
311.548
311.389
311.315
311.143
310.846
310.567
310.335
310.02
303.502
303.58
303.673
303.744
303.763
303.832
303.898
303.872
303.928
303.929
303.949
303.886
303.893
303.829
303.779
303.728
303.635
303.552
303.449
303.349
352.566
353.547
354.668
355.819
356.723
357.356
357.727
358.386
358.687
358.851
358.58
358.283
357.634
357.174
356.327
355.332
354.217
352.934
351.497
350.165
345.624
346.406
347.379
348.364
349.107
349.688
350.003
350.593
350.825
350.993
350.808
350.459
349.935
349.553
348.819
347.933
347.023
345.875
344.63
343.485
338.585
339.258
340.098
340.903
341.526
342.022
342.324
342.792
342.969
343.157
342.993
342.639
342.231
341.946
341.334
340.571
339.776
338.77
337.712
336.798
331.588
332.104
332.794
333.426
333.952
334.359
334.645
334.993
335.18
335.29
335.21
334.878
334.556
334.295
333.843
333.222
332.565
331.722
330.823
330.153
324.566
324.938
325.518
326.01
326.361
326.721
326.994
327.19
327.362
327.434
327.385
327.113
326.936
326.672
326.318
325.872
325.354
324.686
323.951
323.46
317.521
317.822
318.274
318.583
318.763
319.086
319.333
319.387
319.565
319.603
319.522
319.323
319.27
319.037
318.801
318.529
318.112
317.653
317.108
316.758
310.48
310.704
310.993
311.174
311.239
311.476
311.663
311.606
311.787
311.767
311.684
311.575
311.537
311.444
311.309
311.12
310.886
310.643
310.291
310.025
303.513
303.605
303.683
303.751
303.755
303.842
303.913
303.889
303.946
303.935
303.885
303.886
303.845
303.845
303.774
303.716
303.651
303.588
303.455
303.375
352.655
353.668
354.758
356.054
356.789
357.545
357.831
358.458
358.569
358.747
358.77
358.382
357.807
357.539
356.487
355.431
354.244
353.081
351.414
350.432
345.696
346.512
347.46
348.584
349.216
349.898
350.044
350.639
350.766
350.886
350.95
350.567
350.124
349.828
348.931
348.042
347.015
345.973
344.601
343.774
338.702
339.351
340.139
341.102
341.647
342.221
342.34
342.823
343.003
343.061
343.111
342.728
342.415
342.163
341.423
340.657
339.785
338.829
337.769
337.07
331.706
332.167
332.867
333.631
334.05
334.543
334.665
335.04
335.227
335.224
335.283
334.918
334.701
334.463
333.923
333.284
332.542
331.71
330.901
330.3
324.724
324.971
325.54
326.148
326.491
326.836
326.956
327.252
327.431
327.353
327.406
327.159
326.978
326.79
326.383
325.913
325.301
324.609
324.061
323.596
317.697
317.816
318.261
318.674
318.945
319.188
319.224
319.45
319.602
319.561
319.539
319.419
319.265
319.125
318.866
318.541
318.078
317.527
317.205
316.845
310.618
310.705
310.999
311.183
311.369
311.573
311.568
311.677
311.797
311.758
311.715
311.645
311.539
311.462
311.332
311.151
310.879
310.5
310.347
310.104
303.536
303.595
303.705
303.733
303.811
303.906
303.884
303.927
303.944
303.929
303.934
303.899
303.864
303.837
303.809
303.729
303.644
303.485
303.472
303.395
352.655
353.665
354.737
355.841
356.645
357.523
357.976
358.718
358.716
358.633
358.739
358.186
357.874
357.375
356.454
355.163
354.405
352.843
351.632
350.547
345.715
346.486
347.405
348.39
349.049
349.859
350.253
350.854
350.879
350.83
350.876
350.435
350.103
349.722
348.925
347.813
347.177
345.807
344.767
343.861
338.72
339.372
340.095
340.977
341.495
342.205
342.539
342.962
343.046
343.008
343.072
342.667
342.34
342.044
341.375
340.426
339.935
338.805
337.884
337.156
331.733
332.246
332.79
333.517
333.961
334.541
334.81
335.123
335.234
335.154
335.269
334.883
334.604
334.368
333.849
333.065
332.711
331.81
331.001
330.457
324.72
325.079
325.475
326.073
326.417
326.884
327.103
327.296
327.436
327.328
327.432
327.143
326.893
326.712
326.309
325.718
325.452
324.778
324.101
323.718
317.7
317.908
318.213
318.597
318.874
319.225
319.375
319.504
319.646
319.5
319.556
319.391
319.242
319.067
318.783
318.379
318.197
317.717
317.213
316.923
310.627
310.777
310.927
311.118
311.353
311.547
311.646
311.693
311.82
311.671
311.733
311.668
311.566
311.448
311.241
311.026
310.954
310.67
310.349
310.176
303.575
303.593
303.657
303.714
303.822
303.882
303.913
303.919
303.966
303.911
303.93
303.914
303.871
303.827
303.764
303.693
303.686
303.573
303.479
303.403
352.363
353.484
354.755
355.708
356.631
357.473
358.1
358.765
358.722
358.67
358.709
358.311
357.724
357.245
356.402
355.229
354.425
352.921
351.607
350.369
345.388
346.342
347.431
348.272
349.038
349.817
350.333
350.907
350.958
350.83
350.919
350.591
349.985
349.586
348.877
347.849
347.168
345.861
344.77
343.715
338.4
339.199
340.113
340.85
341.471
342.117
342.604
343.058
343.122
343.003
343.07
342.825
342.26
341.966
341.378
340.472
339.895
338.818
337.937
337.045
331.422
332.079
332.803
333.422
333.928
334.459
334.888
335.22
335.334
335.175
335.251
335.032
334.564
334.343
333.833
333.104
332.637
331.775
331.063
330.341
324.452
324.979
325.498
325.956
326.377
326.816
327.211
327.398
327.536
327.35
327.475
327.271
326.912
326.738
326.307
325.727
325.367
324.749
324.188
323.59
317.493
317.856
318.213
318.542
318.845
319.153
319.47
319.62
319.681
319.528
319.65
319.548
319.233
319.128
318.804
318.371
318.102
317.704
317.266
316.84
310.507
310.764
310.918
311.135
311.33
311.484
311.742
311.797
311.814
311.726
311.781
311.742
311.565
311.462
311.301
311.017
310.884
310.642
310.329
310.15
303.519
303.612
303.651
303.736
303.804
303.849
303.935
303.961
303.94
303.932
303.947
303.93
303.878
303.841
303.799
303.693
303.645
303.577
303.45
303.392
)
;

boundaryField
{
    hotSide
    {
        type            fixedGradient;
        gradient        nonuniform List<scalar> 
400
(
435.612
448.029
460.027
471.552
482.552
492.975
502.771
511.892
520.295
527.937
534.778
540.783
545.922
550.166
553.492
555.882
557.322
557.804
557.323
555.881
447.032
459.788
472.115
483.957
495.261
505.973
516.043
525.421
534.062
541.922
548.961
555.143
560.435
564.809
568.241
570.712
572.208
572.72
572.244
570.78
457.218
470.277
482.898
495.024
506.599
517.571
527.885
537.494
546.348
554.404
561.621
567.961
573.391
577.882
581.409
583.954
585.501
586.041
585.57
584.088
466.105
479.428
492.305
504.679
516.492
527.69
538.219
548.029
557.07
565.298
572.67
579.149
584.7
589.294
592.906
595.516
597.108
597.674
597.208
595.712
473.636
487.184
500.279
512.863
524.878
536.268
546.979
556.96
566.16
574.534
582.039
588.636
594.291
598.973
602.657
605.322
606.954
607.542
607.081
605.574
479.768
493.499
506.771
519.526
531.706
543.253
554.113
564.233
573.563
582.056
589.669
596.363
602.103
606.857
610.6
613.312
614.976
615.583
615.128
613.611
484.47
498.34
511.749
524.635
536.94
548.607
559.581
569.808
579.237
587.822
595.519
602.287
608.092
612.902
616.691
619.439
621.128
621.75
621.3
619.777
487.719
501.686
515.187
528.163
540.555
552.305
563.357
573.657
583.155
591.803
599.558
606.378
612.228
617.076
620.898
623.67
625.378
626.011
625.564
624.038
489.504
503.522
517.074
530.099
542.537
554.332
565.426
575.767
585.302
593.985
601.77
608.618
614.493
619.364
623.203
625.99
627.708
628.347
627.903
626.375
489.823
503.848
517.407
530.439
542.884
554.686
565.786
576.133
585.674
594.362
602.153
609.006
614.885
619.759
623.602
626.392
628.112
628.754
628.311
626.784
488.683
502.671
516.194
529.192
541.604
553.374
564.445
574.764
584.28
592.945
600.714
607.548
613.412
618.272
622.104
624.885
626.601
627.239
626.796
625.272
486.1
500.008
513.453
526.375
538.715
550.416
561.422
571.68
581.139
589.752
597.474
604.266
610.093
614.923
618.729
621.492
623.194
623.825
623.381
621.862
482.098
495.883
509.208
522.015
534.244
545.839
556.745
566.909
576.281
584.814
592.464
599.192
604.962
609.744
613.511
616.243
617.924
618.544
618.097
616.585
476.711
490.33
503.495
516.147
528.228
539.682
550.454
560.492
569.747
578.173
585.725
592.366
598.061
602.778
606.493
609.184
610.837
611.441
610.991
609.488
469.978
483.392
496.358
508.817
520.713
531.99
542.596
552.478
561.587
569.879
577.311
583.844
589.444
594.081
597.73
600.371
601.988
602.572
602.118
600.626
461.948
475.118
487.846
500.076
511.753
522.821
533.229
542.925
551.862
559.995
567.282
573.687
579.175
583.717
587.288
589.869
591.444
592.005
591.545
590.067
452.676
465.565
478.021
489.988
501.412
512.239
522.419
531.901
540.639
548.59
555.713
561.97
567.329
571.762
575.244
577.756
579.283
579.816
579.351
577.889
442.226
454.799
466.948
478.62
489.76
500.317
510.241
519.484
528
535.746
542.683
548.775
553.99
558.301
561.683
564.118
565.592
566.095
565.624
564.18
430.668
442.893
454.705
466.051
476.879
487.139
496.781
505.76
514.031
521.552
528.285
534.196
539.253
543.429
546.702
549.052
550.468
550.94
550.463
549.04
418.081
429.928
441.374
452.367
462.856
472.793
482.131
490.824
498.829
506.107
512.62
518.334
523.22
527.251
530.406
532.666
534.02
534.458
533.976
532.577
)
;
    }
    coldSide
    {
        type            mixed;
        refValue        uniform 300;
        refGradient     uniform 0;
        valueFraction   uniform 0.991591;
        source          uniform 0;
        value           nonuniform List<scalar> 
400
(
300.024
300.024
300.025
300.025
300.026
300.026
300.027
300.027
300.027
300.028
300.028
300.029
300.029
300.029
300.029
300.029
300.03
300.03
300.03
300.03
300.024
300.024
300.025
300.025
300.026
300.027
300.027
300.028
300.028
300.029
300.029
300.029
300.03
300.029
300.03
300.03
300.03
300.03