/*--------------------------------*- C++ -*----------------------------------*\
| =========                 |                                                 |
| \\      /  F ield         | OpenFOAM: The Open Source CFD Toolbox           |
|  \\    /   O peration     | Version:  2212                                  |
|   \\  /    A nd           | Website:  www.openfoam.com                      |
|    \\/     M anipulation  |                                                 |
\*---------------------------------------------------------------------------*/
FoamFile
{
    version     2.0;
    format      ascii;
    arch        "LSB;label=32;scalar=64";
    class       volScalarField;
    location    "./ITHACAoutput/true/1.6";
    object      trueState;
}
// * * * * * * * * * * * * * * * * * * * * * * * * * * * * * * * * * * * * * //

dimensions      [0 0 0 1 0 0 0];

internalField   nonuniform List<scalar> 
3200
(
342.363
343.428
344.79
346.273
347.8
349.3
350.684
351.852
352.703
353.153
353.153
352.703
351.852
350.684
349.3
347.8
346.273
344.79
343.428
342.363
336.759
337.662
338.836
340.119
341.441
342.738
343.934
344.944
345.679
346.067
346.067
345.679
344.944
343.934
342.738
341.441
340.119
338.836
337.662
336.759
331.138
331.887
332.876
333.96
335.077
336.173
337.183
338.035
338.655
338.982
338.982
338.655
338.035
337.183
336.173
335.077
333.96
332.876
331.887
331.138
325.502
326.104
326.91
327.796
328.709
329.605
330.43
331.126
331.632
331.899
331.899
331.632
331.126
330.43
329.605
328.709
327.796
326.91
326.104
325.502
319.853
320.315
320.941
321.629
322.339
323.035
323.676
324.216
324.609
324.816
324.816
324.609
324.216
323.676
323.035
322.339
321.629
320.941
320.315
319.853
314.194
314.522
314.967
315.459
315.966
316.463
316.92
317.306
317.586
317.734
317.734
317.586
317.306
316.92
316.463
315.966
315.459
314.967
314.522
314.194
308.529
308.724
308.992
309.287
309.591
309.889
310.164
310.395
310.563
310.652
310.652
310.563
310.395
310.164
309.889
309.591
309.287
308.992
308.724
308.529
302.859
302.925
303.014
303.113
303.215
303.315
303.407
303.485
303.541
303.571
303.571
303.541
303.485
303.407
303.315
303.215
303.113
303.014
302.925
302.859
342.452
343.51
344.859
346.328
347.841
349.324
350.691
351.845
352.685
353.129
353.129
352.685
351.845
350.691
349.324
347.841
346.328
344.859
343.51
342.452
336.837
337.732
338.896
340.167
341.476
342.759
343.941
344.938
345.664
346.047
346.047
345.664
344.938
343.941
342.759
341.476
340.167
338.896
337.732
336.837
331.204
331.946
332.927
334.001
335.107
336.19
337.189
338.03
338.642
338.965
338.965
338.642
338.03
337.189
336.19
335.107
334.001
332.927
331.946
331.204
325.555
326.153
326.952
327.83
328.734
329.619
330.435
331.122
331.622
331.885
331.885
331.622
331.122
330.435
329.619
328.734
327.83
326.952
326.153
325.555
319.894
320.353
320.973
321.655
322.358
323.046
323.68
324.213
324.601
324.806
324.806
324.601
324.213
323.68
323.046
322.358
321.655
320.973
320.353
319.894
314.224
314.549
314.991
315.478
315.979
316.471
316.923
317.304
317.581
317.727
317.727
317.581
317.304
316.923
316.471
315.979
315.478
314.991
314.549
314.224
308.547
308.74
309.005
309.298
309.599
309.894
310.166
310.394
310.56
310.648
310.648
310.56
310.394
310.166
309.894
309.599
309.298
309.005
308.74
308.547
302.865
302.93
303.019
303.117
303.218
303.317
303.408
303.484
303.54
303.569
303.569
303.54
303.484
303.408
303.317
303.218
303.117
303.019
302.93
302.865
342.633
343.674
345
346.443
347.924
349.375
350.711
351.837
352.655
353.087
353.087
352.655
351.837
350.711
349.375
347.924
346.443
345
343.674
342.633
336.993
337.874
339.018
340.266
341.548
342.804
343.959
344.931
345.639
346.012
346.012
345.639
344.931
343.959
342.804
341.548
340.266
339.018
337.874
336.993
331.335
332.066
333.03
334.084
335.168
336.229
337.204
338.025
338.622
338.937
338.937
338.622
338.025
337.204
336.229
335.168
334.084
333.03
332.066
331.335
325.663
326.251
327.037
327.898
328.784
329.651
330.448
331.118
331.605
331.862
331.862
331.605
331.118
330.448
329.651
328.784
327.898
327.037
326.251
325.663
319.978
320.429
321.039
321.708
322.397
323.071
323.69
324.21
324.589
324.788
324.788
324.589
324.21
323.69
323.071
322.397
321.708
321.039
320.429
319.978
314.283
314.603
315.038
315.516
316.007
316.488
316.93
317.302
317.572
317.714
317.714
317.572
317.302
316.93
316.488
316.007
315.516
315.038
314.603
314.283
308.582
308.773
309.034
309.321
309.616
309.905
310.17
310.393
310.555
310.64
310.64
310.555
310.393
310.17
309.905
309.616
309.321
309.034
308.773
308.582
302.877
302.941
303.028
303.125
303.224
303.32
303.409
303.484
303.538
303.567
303.567
303.538
303.484
303.409
303.32
303.224
303.125
303.028
302.941
302.877
342.907
343.924
345.217
346.62
348.057
349.462
350.753
351.838
352.626
353.041
353.041
352.626
351.838
350.753
349.462
348.057
346.62
345.217
343.924
342.907
337.23
338.091
339.206
340.419
341.664
342.879
343.995
344.933
345.614
345.973
345.973
345.614
344.933
343.995
342.879
341.664
340.419
339.206
338.091
337.23
331.535
332.249
333.189
334.214
335.266
336.293
337.236
338.027
338.602
338.905
338.905
338.602
338.027
337.236
336.293
335.266
334.214
333.189
332.249
331.535
325.826
326.4
327.166
328.005
328.864
329.704
330.474
331.12
331.589
331.837
331.837
331.589
331.12
330.474
329.704
328.864
328.005
327.166
326.4
325.826
320.104
320.546
321.14
321.791
322.46
323.112
323.71
324.212
324.577
324.769
324.769
324.577
324.212
323.71
323.112
322.46
321.791
321.14
320.546
320.104
314.374
314.686
315.11
315.575
316.052
316.518
316.945
317.304
317.564
317.7
317.7
317.564
317.304
316.945
316.518
316.052
315.575
315.11
314.686
314.374
308.637
308.823
309.077
309.356
309.643
309.922
310.179
310.394
310.55
310.632
310.632
310.55
310.394
310.179
309.922
309.643
309.356
309.077
308.823
308.637
302.896
302.958
303.043
303.136
303.233
303.326
303.412
303.484
303.537
303.564
303.564
303.537
303.484
303.412
303.326
303.233
303.136
303.043
302.958
302.896
343.278
344.263
345.514
346.866
348.248
349.595
350.828
351.862
352.612
353.007
353.007
352.612
351.862
350.828
349.595
348.248
346.866
345.514
344.263
343.278
337.55
338.384
339.463
340.633
341.83
342.995
344.061
344.956
345.603
345.945
345.945
345.603
344.956
344.061
342.995
341.83
340.633
339.463
338.384
337.55
331.805
332.497
333.406
334.395
335.407
336.391
337.292
338.047
338.594
338.882
338.882
338.594
338.047
337.292
336.391
335.407
334.395
333.406
332.497
331.805
326.046
326.603
327.344
328.152
328.979
329.784
330.52
331.137
331.584
331.819
331.819
331.584
331.137
330.52
329.784
328.979
328.152
327.344
326.603
326.046
320.276
320.703
321.278
321.906
322.549
323.174
323.747
324.226
324.573
324.755
324.755
324.573
324.226
323.747
323.174
322.549
321.906
321.278
320.703
320.276
314.496
314.799
315.208
315.657
316.116
316.563
316.971
317.313
317.561
317.691
317.691
317.561
317.313
316.971
316.563
316.116
315.657
315.208
314.799
314.496
308.71
308.891
309.136
309.406
309.681
309.949
310.195
310.4
310.549
310.627
310.627
310.549
310.4
310.195
309.949
309.681
309.406
309.136
308.891
308.71
302.92
302.98
303.063
303.153
303.245
303.335
303.417
303.486
303.536
303.562
303.562
303.536
303.486
303.417
303.335
303.245
303.153
303.063
302.98
302.92
343.749
344.697
345.897
347.191
348.508
349.786
350.953
351.929
352.634
353.005
353.005
352.634
351.929
350.953
349.786
348.508
347.191
345.897
344.697
343.749
337.957
338.76
339.795
340.914
342.055
343.161
344.17
345.014
345.624
345.945
345.945
345.624
345.014
344.17
343.161
342.055
340.914
339.795
338.76
337.957
332.149
332.814
333.687
334.633
335.597
336.532
337.385
338.098
338.613
338.883
338.883
338.613
338.098
337.385
336.532
335.597
334.633
333.687
332.814
332.149
326.327
326.863
327.574
328.347
329.135
329.9
330.597
331.179
331.6
331.821
331.821
331.6
331.179
330.597
329.9
329.135
328.347
327.574
326.863
326.327
320.493
320.905
321.456
322.057
322.67
323.264
323.806
324.259
324.585
324.757
324.757
324.585
324.259
323.806
323.264
322.67
322.057
321.456
320.905
320.493
314.651
314.943
315.336
315.765
316.203
316.627
317.014
317.337
317.57
317.693
317.693
317.57
317.337
317.014
316.627
316.203
315.765
315.336
314.943
314.651
308.803
308.977
309.213
309.471
309.733
309.988
310.22
310.414
310.554
310.628
310.628
310.554
310.414
310.22
309.988
309.733
309.471
309.213
308.977
308.803
302.951
303.009
303.088
303.175
303.263
303.348
303.426
303.491
303.538
303.563
303.563
303.538
303.491
303.426
303.348
303.263
303.175
303.088
303.009
302.951
344.324
345.231
346.374
347.602
348.847
350.05
351.144
352.055
352.713
353.058
353.058
352.713
352.055
351.144
350.05
348.847
347.602
346.374
345.231
344.324
338.454
339.221
340.208
341.271
342.348
343.39
344.337
345.125
345.694
345.992
345.992
345.694
345.125
344.337
343.39
342.348
341.271
340.208
339.221
338.454
332.568
333.205
334.036
334.934
335.846
336.726
337.526
338.192
338.673
338.924
338.924
338.673
338.192
337.526
336.726
335.846
334.934
334.036
333.205
332.568
326.669
327.182
327.859
328.593
329.339
330.059
330.713
331.257
331.649
331.855
331.855
331.649
331.257
330.713
330.059
329.339
328.593
327.859
327.182
326.669
320.759
321.153
321.678
322.249
322.829
323.388
323.897
324.32
324.625
324.784
324.784
324.625
324.32
323.897
323.388
322.829
322.249
321.678
321.153
320.759
314.841
315.12
315.494
315.902
316.316
316.716
317.079
317.381
317.598
317.713
317.713
317.598
317.381
317.079
316.716
316.316
315.902
315.494
315.12
314.841
308.917
309.083
309.308
309.553
309.801
310.041
310.259
310.441
310.571
310.64
310.64
310.571
310.441
310.259
310.041
309.801
309.553
309.308
309.083
308.917
302.99
303.045
303.12
303.202
303.286
303.366
303.439
303.5
303.544
303.567
303.567
303.544
303.5
303.439
303.366
303.286
303.202
303.12
303.045
302.99
345.009
345.87
346.953
348.11
349.277
350.401
351.418
352.263
352.87
353.188
353.188
352.87
352.263
351.418
350.401
349.277
348.11
346.953
345.87
345.009
339.046
339.775
340.709
341.71
342.722
343.694
344.575
345.306
345.831
346.106
346.106
345.831
345.306
344.575
343.694
342.722
341.71
340.709
339.775
339.046
333.068
333.673
334.46
335.306
336.162
336.984
337.728
338.346
338.79
339.022
339.022
338.79
338.346
337.728
336.984
336.162
335.306
334.46
333.673
333.068
327.077
327.564
328.206
328.898
329.597
330.27
330.878
331.383
331.746
331.936
331.936
331.746
331.383
330.878
330.27
329.597
328.898
328.206
327.564
327.077
321.076
321.45
321.948
322.486
323.03
323.553
324.026
324.418
324.7
324.847
324.847
324.7
324.418
324.026
323.553
323.03
322.486
321.948
321.45
321.076
315.068
315.332
315.687
316.071
316.46
316.833
317.171
317.451
317.652
317.758
317.758
317.652
317.451
317.171
316.833
316.46
316.071
315.687
315.332
315.068
309.053
309.211
309.424
309.654
309.888
310.112
310.315
310.483
310.604
310.667
310.667
310.604
310.483
310.315
310.112
309.888
309.654
309.424
309.211
309.053
303.035
303.088
303.159
303.236
303.315
303.39
303.458
303.514
303.555
303.576
303.576
303.555
303.514
303.458
303.39
303.315
303.236
303.159
303.088
303.035
345.808
346.622
347.64
348.724
349.812
350.853
351.792
352.569
353.125
353.416
353.416
353.125
352.569
351.792
350.853
349.812
348.724
347.64
346.622
345.808
339.737
340.426
341.304
342.242
343.185
344.087
344.9
345.572
346.053
346.305
346.305
346.053
345.572
344.9
344.087
343.185
342.242
341.304
340.426
339.737
333.652
334.223
334.963
335.756
336.553
337.316
338.003
338.571
338.978
339.191
339.191
338.978
338.571
338.003
337.316
336.553
335.756
334.963
334.223
333.652
327.554
328.014
328.617
329.266
329.918
330.542
331.104
331.568
331.901
332.075
332.075
331.901
331.568
331.104
330.542
329.918
329.266
328.617
328.014
327.554
321.447
321.8
322.268
322.772
323.279
323.764
324.201
324.562
324.821
324.956
324.956
324.821
324.562
324.201
323.764
323.279
322.772
322.268
321.8
321.447
315.332
315.582
315.915
316.275
316.638
316.984
317.296
317.554
317.739
317.835
317.835
317.739
317.554
317.296
316.984
316.638
316.275
315.915
315.582
315.332
309.212
309.361
309.561
309.777
309.995
310.203
310.39
310.545
310.656
310.714
310.714
310.656
310.545
310.39
310.203
309.995
309.777
309.561
309.361
309.212
303.088
303.138
303.205
303.278
303.35
303.42
303.483
303.535
303.572
303.592
303.592
303.572
303.535
303.483
303.42
303.35
303.278
303.205
303.138
303.088
346.728
347.492
348.445
349.454
350.461
351.421
352.282
352.991
353.498
353.762
353.762
353.498
352.991
352.282
351.421
350.461
349.454
348.445
347.492
346.728
340.532
341.179
342.001
342.874
343.747
344.579
345.324
345.938
346.377
346.606
346.606
346.377
345.938
345.324
344.579
343.747
342.874
342.001
341.179
340.532
334.323
334.859
335.552
336.29
337.029
337.732
338.363
338.882
339.253
339.446
339.446
339.253
338.882
338.363
337.732
337.029
336.29
335.552
334.859
334.323
328.102
328.534
329.099
329.703
330.307
330.882
331.398
331.822
332.125
332.284
332.284
332.125
331.822
331.398
330.882
330.307
329.703
329.099
328.534
328.102
321.873
322.204
322.642
323.112
323.582
324.029
324.43
324.76
324.996
325.119
325.119
324.996
324.76
324.43
324.029
323.582
323.112
322.642
322.204
321.873
315.636
315.871
316.183
316.518
316.854
317.174
317.46
317.696
317.864
317.952
317.952
317.864
317.696
317.46
317.174
316.854
316.518
316.183
315.871
315.636
309.394
309.534
309.722
309.923
310.125
310.316
310.489
310.63
310.731
310.784
310.784
310.731
310.63
310.489
310.316
310.125
309.923
309.722
309.534
309.394
303.149
303.196
303.259
303.326
303.394
303.458
303.516
303.563
303.597
303.615
303.615
303.597
303.563
303.516
303.458
303.394
303.326
303.259
303.196
303.149
347.772
348.487
349.373
350.308
351.236
352.115
352.901
353.545
354.003
354.242
354.242
354.003
353.545
352.901
352.115
351.236
350.308
349.373
348.487
347.772
341.435
342.04
342.805
343.614
344.418
345.18
345.86
346.418
346.815
347.022
347.022
346.815
346.418
345.86
345.18
344.418
343.614
342.805
342.04
341.435
335.085
335.587
336.232
336.916
337.596
338.241
338.816
339.288
339.624
339.799
339.799
339.624
339.288
338.816
338.241
337.596
336.916
336.232
335.587
335.085
328.725
329.129
329.655
330.214
330.771
331.298
331.769
332.155
332.429
332.572
332.572
332.429
332.155
331.769
331.298
330.771
330.214
329.655
329.129
328.725
322.357
322.667
323.074
323.509
323.942
324.353
324.719
325.019
325.232
325.343
325.343
325.232
325.019
324.719
324.353
323.942
323.509
323.074
322.667
322.357
315.981
316.201
316.492
316.802
317.112
317.405
317.666
317.881
318.033
318.113
318.113
318.033
317.881
317.666
317.405
317.112
316.802
316.492
316.201
315.981
309.602
309.732
309.907
310.093
310.279
310.455
310.612
310.741
310.833
310.88
310.88
310.833
310.741
310.612
310.455
310.279
310.093
309.907
309.732
309.602
303.219
303.263
303.321
303.384
303.446
303.505
303.558
303.601
303.631
303.647
303.647
303.631
303.601
303.558
303.505
303.446
303.384
303.321
303.263
303.219
348.944
349.61
350.432
351.294
352.145
352.947
353.66
354.242
354.655
354.87
354.87
354.655
354.242
353.66
352.947
352.145
351.294
350.432
349.61
348.944
342.449
343.012
343.721
344.468
345.205
345.9
346.518
347.022
347.38
347.567
347.567
347.38
347.022
346.518
345.9
345.205
344.468
343.721
343.012
342.449
335.942
336.409
337.007
337.638
338.262
338.85
339.373
339.799
340.102
340.259
340.259
340.102
339.799
339.373
338.85
338.262
337.638
337.007
336.409
335.942
329.425
329.801
330.288
330.804
331.315
331.796
332.224
332.573
332.821
332.949
332.949
332.821
332.573
332.224
331.796
331.315
330.804
330.288
329.801
329.425
322.9
323.189
323.567
323.968
324.366
324.74
325.073
325.344
325.537
325.637
325.637
325.537
325.344
325.073
324.74
324.366
323.968
323.567
323.189
322.9
316.37
316.574
316.844
317.13
317.414
317.682
317.919
318.113
318.251
318.322
318.322
318.251
318.113
317.919
317.682
317.414
317.13
316.844
316.574
316.37
309.835
309.956
310.118
310.29
310.461
310.622
310.764
310.881
310.963
311.006
311.006
310.963
310.881
310.764
310.622
310.461
310.29
310.118
309.956
309.835
303.297
303.338
303.392
303.45
303.507
303.561
303.608
303.647
303.675
303.69
303.69
303.675
303.647
303.608
303.561
303.507
303.45
303.392
303.338
303.297
350.25
350.867
351.627
352.418
353.196
353.924
354.569
355.093
355.464
355.657
355.657
355.464
355.093
354.569
353.924
353.196
352.418
351.627
350.867
350.25
343.578
344.1
344.755
345.441
346.115
346.747
347.305
347.76
348.081
348.248
348.248
348.081
347.76
347.305
346.747
346.115
345.441
344.755
344.1
343.578
336.895
337.329
337.881
338.46
339.031
339.566
340.038
340.423
340.695
340.836
340.836
340.695
340.423
340.038
339.566
339.031
338.46
337.881
337.329
336.895
330.204
330.553
331.003
331.477
331.944
332.382
332.768
333.083
333.305
333.421
333.421
333.305
333.083
332.768
332.382
331.944
331.477
331.003
330.553
330.204
323.506
323.774
324.123
324.491
324.855
325.195
325.496
325.741
325.914
326.003
326.003
325.914
325.741
325.496
325.195
324.855
324.491
324.123
323.774
323.506
316.802
316.991
317.24
317.504
317.763
318.007
318.222
318.396
318.52
318.584
318.584
318.52
318.396
318.222
318.007
317.763
317.504
317.24
316.991
316.802
310.094
310.207
310.357
310.515
310.671
310.817
310.946
311.051
311.125
311.164
311.164
311.125
311.051
310.946
310.817
310.671
310.515
310.357
310.207
310.094
303.384
303.422
303.472
303.525
303.577
303.626
303.669
303.704
303.729
303.742
303.742
303.729
303.704
303.669
303.626
303.577
303.525
303.472
303.422
303.384
351.69
352.262
352.96
353.685
354.393
355.053
355.634
356.105
356.437
356.609
356.609
356.437
356.105
355.634
355.053
354.393
353.685
352.96
352.262
351.69
344.824
345.307
345.91
346.538
347.152
347.724
348.228
348.636
348.924
349.073
349.073
348.924
348.636
348.228
347.724
347.152
346.538
345.91
345.307
344.824
337.948
338.349
338.857
339.388
339.907
340.392
340.818
341.163
341.407
341.533
341.533
341.407
341.163
340.818
340.392
339.907
339.388
338.857
338.349
337.948
331.064
331.387
331.801
332.235
332.66
333.057
333.406
333.688
333.888
333.991
333.991
333.888
333.688
333.406
333.057
332.66
332.235
331.801
331.387
331.064
324.174
324.422
324.743
325.081
325.412
325.72
325.992
326.211
326.366
326.447
326.447
326.366
326.211
325.992
325.72
325.412
325.081
324.743
324.422
324.174
317.279
317.454
317.683
317.925
318.161
318.382
318.576
318.733
318.844
318.901
318.901
318.844
318.733
318.576
318.382
318.161
317.925
317.683
317.454
317.279
310.381
310.485
310.623
310.767
310.909
311.042
311.158
311.253
311.319
311.354
311.354
311.319
311.253
311.158
311.042
310.909
310.767
310.623
310.485
310.381
303.48
303.515
303.561
303.609
303.657
303.701
303.741
303.772
303.794
303.806
303.806
303.794
303.772
303.741
303.701
303.657
303.609
303.561
303.515
303.48
353.266
353.793
354.435
355.096
355.74
356.336
356.859
357.281
357.577
357.731
357.731
357.577
357.281
356.859
356.336
355.74
355.096
354.435
353.793
353.266
346.186
346.632
347.186
347.759
348.317
348.834
349.287
349.653
349.91
350.043
350.043
349.91
349.653
349.287
348.834
348.317
347.759
347.186
346.632
346.186
339.099
339.468
339.935
340.42
340.892
341.33
341.714
342.023
342.241
342.353
342.353
342.241
342.023
341.714
341.33
340.892
340.42
339.935
339.468
339.099
332.004
332.302
332.682
333.079
333.465
333.824
334.138
334.391
334.569
334.661
334.661
334.569
334.391
334.138
333.824
333.465
333.079
332.682
332.302
332.004
324.904
325.133
325.428
325.736
326.037
326.316
326.56
326.757
326.896
326.968
326.968
326.896
326.757
326.56
326.316
326.037
325.736
325.428
325.133
324.904
317.801
317.962
318.172
318.393
318.608
318.807
318.982
319.123
319.222
319.273
319.273
319.222
319.123
318.982
318.807
318.608
318.393
318.172
317.962
317.801
310.694
310.79
310.916
311.048
311.178
311.297
311.402
311.487
311.546
311.577
311.577
311.546
311.487
311.402
311.297
311.178
311.048
310.916
310.79
310.694
303.585
303.617
303.659
303.704
303.747
303.787
303.822
303.851
303.871
303.881
303.881
303.871
303.851
303.822
303.787
303.747
303.704
303.659
303.617
303.585
354.973
355.457
356.045
356.648
357.232
357.77
358.24
358.617
358.882
359.019
359.019
358.882
358.617
358.24
357.77
357.232
356.648
356.045
355.457
354.973
347.661
348.071
348.578
349.101
349.607
350.074
350.481
350.808
351.038
351.156
351.156
351.038
350.808
350.481
350.074
349.607
349.101
348.578
348.071
347.661
340.343
340.683
341.111
341.553
341.981
342.377
342.721
342.998
343.193
343.293
343.293
343.193
342.998
342.721
342.377
341.981
341.553
341.111
340.683
340.343
333.02
333.294
333.643
334.004
334.355
334.679
334.961
335.188
335.347
335.429
335.429
335.347
335.188
334.961
334.679
334.355
334.004
333.643
333.294
333.02
325.693
325.903
326.174
326.455
326.728
326.98
327.2
327.376
327.5
327.564
327.564
327.5
327.376
327.2
326.98
326.728
326.455
326.174
325.903
325.693
318.364
318.512
318.705
318.906
319.101
319.281
319.438
319.564
319.653
319.698
319.698
319.653
319.564
319.438
319.281
319.101
318.906
318.705
318.512
318.364
311.031
311.12
311.236
311.357
311.474
311.582
311.676
311.752
311.805
311.833
311.833
311.805
311.752
311.676
311.582
311.474
311.357
311.236
311.12
311.031
303.698
303.728
303.766
303.807
303.846
303.882
303.914
303.939
303.957
303.966
303.966
303.957
303.939
303.914
303.882
303.846
303.807
303.766
303.728
303.698
356.792
357.238
357.776
358.325
358.854
359.34
359.762
360.099
360.336
360.457
360.457
360.336
360.099
359.762
359.34
358.854
358.325
357.776
357.238
356.792
349.23
349.607
350.072
350.548
351.007
351.428
351.794
352.087
352.292
352.397
352.397
352.292
352.087
351.794
351.428
351.007
350.548
350.072
349.607
349.23
341.665
341.978
342.37
342.773
343.161
343.518
343.828
344.076
344.249
344.339
344.339
344.249
344.076
343.828
343.518
343.161
342.773
342.37
341.978
341.665
334.098
334.35
334.669
334.999
335.317
335.609
335.863
336.066
336.208
336.282
336.282
336.208
336.066
335.863
335.609
335.317
334.999
334.669
334.35
334.098
326.53
326.723
326.971
327.227
327.475
327.702
327.9
328.058
328.168
328.225
328.225
328.168
328.058
327.9
327.702
327.475
327.227
326.971
326.723
326.53
318.96
319.096
319.273
319.456
319.633
319.796
319.937
320.05
320.129
320.17
320.17
320.129
320.05
319.937
319.796
319.633
319.456
319.273
319.096
318.96
311.389
311.47
311.576
311.687
311.793
311.891
311.975
312.043
312.091
312.115
312.115
312.091
312.043
311.975
311.891
311.793
311.687
311.576
311.47
311.389
303.818
303.845
303.881
303.917
303.953
303.986
304.014
304.037
304.053
304.061
304.061
304.053
304.037
304.014
303.986
303.953
303.917
303.881
303.845
303.818
358.677
359.087
359.58
360.081
360.562
361.001
361.381
361.684
361.895
362.004
362.004
361.895
361.684
361.381
361.001
360.562
360.081
359.58
359.087
358.677
350.849
351.196
351.621
352.056
352.473
352.854
353.184
353.447
353.631
353.725
353.725
353.631
353.447
353.184
352.854
352.473
352.056
351.621
351.196
350.849
343.024
343.311
343.67
344.038
344.392
344.715
344.994
345.217
345.372
345.452
345.452
345.372
345.217
344.994
344.715
344.392
344.038
343.67
343.311
343.024
335.202
335.433
335.726
336.027
336.317
336.581
336.81
336.993
337.12
337.186
337.186
337.12
336.993
336.81
336.581
336.317
336.027
335.726
335.433
335.202
327.383
327.561
327.788
328.022
328.248
328.454
328.632
328.774
328.873
328.924
328.924
328.873
328.774
328.632
328.454
328.248
328.022
327.788
327.561
327.383
319.567
319.692
319.855
320.022
320.183
320.331
320.458
320.56
320.631
320.667
320.667
320.631
320.56
320.458
320.331
320.183
320.022
319.855
319.692
319.567
311.752
311.827
311.925
312.025
312.122
312.211
312.287
312.349
312.391
312.413
312.413
312.391
312.349
312.287
312.211
312.122
312.025
311.925
311.827
311.752
303.939
303.964
303.997
304.031
304.063
304.093
304.119
304.139
304.153
304.161
304.161
304.153
304.139
304.119
304.093
304.063
304.031
303.997
303.964
303.939
360.505
360.884
361.339
361.799
362.238
362.639
362.983
363.258
363.449
363.547
363.547
363.449
363.258
362.983
362.639
362.238
361.799
361.339
360.884
360.505
352.399
352.72
353.113
353.513
353.895
354.243
354.542
354.781
354.947
355.032
355.032
354.947
354.781
354.542
354.243
353.895
353.513
353.113
352.72
352.399
344.31
344.577
344.909
345.247
345.571
345.867
346.121
346.323
346.464
346.537
346.537
346.464
346.323
346.121
345.867
345.571
345.247
344.909
344.577
344.31
336.237
336.452
336.723
337.001
337.266
337.508
337.717
337.883
337.999
338.058
338.058
337.999
337.883
337.717
337.508
337.266
337.001
336.723
336.452
336.237
328.177
328.342
328.553
328.769
328.976
329.165
329.328
329.457
329.547
329.593
329.593
329.547
329.457
329.328
329.165
328.976
328.769
328.553
328.342
328.177
320.129
320.245
320.396
320.55
320.698
320.833
320.95
321.042
321.107
321.14
321.14
321.107
321.042
320.95
320.833
320.698
320.55
320.396
320.245
320.129
312.088
312.157
312.248
312.34
312.43
312.511
312.581
312.636
312.675
312.695
312.695
312.675
312.636
312.581
312.511
312.43
312.34
312.248
312.157
312.088
304.051
304.075
304.105
304.136
304.166
304.193
304.217
304.235
304.248
304.255
304.255
304.248
304.235
304.217
304.193
304.166
304.136
304.105
304.075
304.051
361.949
362.305
362.733
363.165
363.576
363.949
364.27
364.525
364.702
364.792
364.792
364.702
364.525
364.27
363.949
363.576
363.165
362.733
362.305
361.949
353.576
353.879
354.25
354.626
354.985
355.31
355.59
355.813
355.967
356.046
356.046
355.967
355.813
355.59
355.31
354.985
354.626
354.25
353.879
353.576
345.257
345.509
345.823
346.143
346.448
346.725
346.963
347.152
347.283
347.351
347.351
347.283
347.152
346.963
346.725
346.448
346.143
345.823
345.509
345.257
336.98
337.184
337.441
337.703
337.953
338.181
338.377
338.532
338.64
338.696
338.696
338.64
338.532
338.377
338.181
337.953
337.703
337.441
337.184
336.98
328.737
328.894
329.093
329.298
329.493
329.671
329.824
329.945
330.03
330.073
330.073
330.03
329.945
329.824
329.671
329.493
329.298
329.093
328.894
328.737
320.519
320.63
320.772
320.919
321.059
321.186
321.296
321.383
321.443
321.474
321.474
321.443
321.383
321.296
321.186
321.059
320.919
320.772
320.63
320.519
312.318
312.385
312.47
312.558
312.643
312.719
312.785
312.837
312.874
312.892
312.892
312.874
312.837
312.785
312.719
312.643
312.558
312.47
312.385
312.318
304.128
304.15
304.179
304.209
304.237
304.262
304.285
304.302
304.314
304.321
304.321
304.314
304.302
304.285
304.262
304.237
304.209
304.179
304.15
304.128
)
;

boundaryField
{
    hotSide
    {
        type            fixedGradient;
        gradient        nonuniform List<scalar> 
400
(
446.547
447.538
449.533
452.553
456.63
461.803
468.117
475.623
484.371
494.413
505.798
518.572
532.779
548.457
565.64
584.356
604.63
626.481
649.924
674.973
460.574
461.455
463.232
465.934
469.604
474.295
480.065
486.979
495.104
504.503
515.24
527.371
540.949
556.018
572.618
590.782
610.536
631.901
654.893
679.523
475.755
476.504
478.021
480.346
483.535
487.657
492.79
499.018
506.423
515.088
525.089
536.497
549.372
563.769
579.731
597.295
616.489
637.334
659.847
684.037
491.838
492.432
493.647
495.535
498.169
501.64
506.047
511.496
518.094
525.94
535.129
545.744
557.857
571.53
586.811
603.741
622.347
642.653
664.671
688.411
508.374
508.794
509.67
511.068
513.085
515.833
519.441
524.04
529.761
536.728
545.051
554.828
566.144
579.065
593.646
609.928
627.941
647.705
669.231
692.525
524.672
524.906
525.42
526.297
527.658
529.645
532.415
536.13
540.947
547.012
554.456
563.391
573.91
586.088
599.982
615.634
633.072
652.316
673.373
696.246
539.8
539.849
540.001
540.36
541.072
542.309
544.26
547.116
551.061
556.263
562.872
571.012
580.787
592.274
605.535
620.611
637.529
656.304
676.941
699.438
552.64
552.521
552.347
552.242
552.373
552.943
554.168
556.267
559.449
563.901
569.789
577.249
586.389
597.293
610.021
624.615
641.1
659.488
679.78
701.971
562.036
561.789
561.366
560.905
560.595
560.659
561.335
562.866
565.477
569.372
574.726
581.684
590.359
600.837
613.18
627.426
643.6
661.711
681.757
703.729
567.015
566.698
566.139
565.486
564.935
564.725
565.105
566.33
568.634
572.23
577.3
583.991
592.42
602.674
614.813
628.877
644.888
662.854
682.771
704.631
567.015
566.698
566.139
565.486
564.935
564.725
565.105
566.33
568.634
572.23
577.3
583.991
592.42
602.674
614.813
628.877
644.888
662.854
682.771
704.631
562.036
561.789
561.366
560.905
560.595
560.659
561.335
562.866
565.477
569.372
574.726
581.684
590.359
600.837
613.18
627.426
643.6
661.711
681.757
703.729
552.64
552.521
552.347
552.242
552.373
552.943
554.168
556.267
559.449
563.901
569.789
577.249
586.389
597.293
610.021
624.615
641.1
659.488
679.78
701.971
539.8
539.849
540.001
540.36
541.072
542.309
544.26
547.116
551.061
556.263
562.872
571.012
580.787
592.274
605.535
620.611
637.529
656.304
676.941
699.438
524.672
524.906
525.42
526.297
527.658
529.645
532.415
536.13
540.947
547.012
554.456
563.391
573.91
586.088
599.982
615.634
633.072
652.316
673.373
696.246
508.374
508.794
509.67
511.068
513.085
515.833
519.441
524.04
529.761
536.728
545.051
554.828
566.144
579.065
593.646
609.928
627.941
647.705
669.231
692.525
491.838
492.432
493.647
495.535
498.169
501.64
506.047
511.496
518.094
525.94
535.129
545.744
557.857
571.53
586.811
603.741
622.347
642.653
664.671
688.411
475.755
476.504
478.021
480.346
483.535
487.657
492.79
499.018
506.423
515.088
525.089
536.497
549.372
563.769
579.731
597.295
616.489
637.334
659.847
684.037
460.574
461.455
463.232
465.934
469.604
474.295
480.065
486.979
495.104
504.503
515.24
527.371
540.949
556.018
572.618
590.782
610.536
631.901
654.893
679.523
446.547
447.538
449.533
452.553
456.63
461.803
468.117
475.623
484.371
494.413
505.798
518.572
532.779
548.457
565.64
584.356
604.63
626.481
649.924
674.973
)
;
    }
    coldSide
    {
        type            mixed;
        refValue        uniform 300;
        refGradient     uniform 0;
        valueFraction   uniform 0.991591;
        source          uniform 0;
        value           nonuniform List<scalar> 
400
(
300.024
300.024
300.024
300.024
300.025
300.025
300.025
300.026
300.026
300.026
300.027
300.028
300.028
300.029
300.03
300.031
300.032
300.033
300.034
300.035
300.025
300.025
300.025
300.025
300.025
300.025
300.026
300.026
300.026
300.027
300.027
300.028
300.029
300.03
300.03