/*--------------------------------*- C++ -*----------------------------------*\
| =========                 |                                                 |
| \\      /  F ield         | OpenFOAM: The Open Source CFD Toolbox           |
|  \\    /   O peration     | Version:  2212                                  |
|   \\  /    A nd           | Website:  www.openfoam.com                      |
|    \\/     M anipulation  |                                                 |
\*---------------------------------------------------------------------------*/
FoamFile
{
    version     2.0;
    format      ascii;
    arch        "LSB;label=32;scalar=64";
    class       volScalarField;
    location    "0";
    object      Tdirect;
}
// * * * * * * * * * * * * * * * * * * * * * * * * * * * * * * * * * * * * * //

dimensions      [0 0 0 1 0 0 0];

internalField   nonuniform List<scalar> 
3200
(
328.43
328.599
328.816
329.051
329.294
329.532
329.752
329.938
330.073
330.144
330.144
330.073
329.938
329.752
329.532
329.294
329.051
328.816
328.599
328.43
324.488
324.631
324.818
325.022
325.232
325.438
325.628
325.788
325.905
325.966
325.966
325.905
325.788
325.628
325.438
325.232
325.022
324.818
324.631
324.488
320.612
320.731
320.888
321.06
321.238
321.412
321.572
321.708
321.806
321.858
321.858
321.806
321.708
321.572
321.412
321.238
321.06
320.888
320.731
320.612
316.792
316.888
317.016
317.156
317.301
317.444
317.575
317.685
317.766
317.808
317.808
317.766
317.685
317.575
317.444
317.301
317.156
317.016
316.888
316.792
313.017
313.09
313.19
313.299
313.412
313.522
313.624
313.71
313.772
313.805
313.805
313.772
313.71
313.624
313.522
313.412
313.299
313.19
313.09
313.017
309.277
309.329
309.4
309.478
309.559
309.638
309.71
309.771
309.816
309.84
309.84
309.816
309.771
309.71
309.638
309.559
309.478
309.4
309.329
309.277
305.563
305.594
305.636
305.683
305.731
305.779
305.822
305.859
305.886
305.9
305.9
305.886
305.859
305.822
305.779
305.731
305.683
305.636
305.594
305.563
301.863
301.873
301.888
301.903
301.919
301.935
301.95
301.962
301.971
301.976
301.976
301.971
301.962
301.95
301.935
301.919
301.903
301.888
301.873
301.863
328.548
328.716
328.93
329.164
329.404
329.64
329.857
330.04
330.174
330.244
330.244
330.174
330.04
329.857
329.64
329.404
329.164
328.93
328.716
328.548
324.589
324.732
324.916
325.118
325.326
325.53
325.718
325.876
325.991
326.052
326.052
325.991
325.876
325.718
325.53
325.326
325.118
324.916
324.732
324.589
320.697
320.815
320.971
321.142
321.317
321.489
321.648
321.782
321.879
321.93
321.93
321.879
321.782
321.648
321.489
321.317
321.142
320.971
320.815
320.697
316.861
316.956
317.083
317.222
317.366
317.507
317.636
317.745
317.825
317.867
317.867
317.825
317.745
317.636
317.507
317.366
317.222
317.083
316.956
316.861
313.071
313.143
313.242
313.35
313.462
313.571
313.672
313.757
313.818
313.851
313.851
313.818
313.757
313.672
313.571
313.462
313.35
313.242
313.143
313.071
309.315
309.367
309.437
309.515
309.594
309.672
309.744
309.805
309.849
309.872
309.872
309.849
309.805
309.744
309.672
309.594
309.515
309.437
309.367
309.315
305.585
305.616
305.658
305.705
305.753
305.8
305.843
305.879
305.905
305.919
305.919
305.905
305.879
305.843
305.8
305.753
305.705
305.658
305.616
305.585
301.871
301.881
301.895
301.911
301.927
301.942
301.957
301.969
301.978
301.982
301.982
301.978
301.969
301.957
301.942
301.927
301.911
301.895
301.881
301.871
328.784
328.95
329.16
329.389
329.625
329.855
330.067
330.246
330.376
330.445
330.445
330.376
330.246
330.067
329.855
329.625
329.389
329.16
328.95
328.784
324.792
324.932
325.114
325.312
325.516
325.715
325.899
326.053
326.166
326.225
326.225
326.166
326.053
325.899
325.715
325.516
325.312
325.114
324.932
324.792
320.868
320.984
321.137
321.304
321.477
321.645
321.8
321.93
322.025
322.075
322.075
322.025
321.93
321.8
321.645
321.477
321.304
321.137
320.984
320.868
317
317.093
317.218
317.355
317.496
317.633
317.76
317.866
317.944
317.985
317.985
317.944
317.866
317.76
317.633
317.496
317.355
317.218
317.093
317
313.178
313.25
313.346
313.453
313.562
313.669
313.768
313.85
313.91
313.942
313.942
313.91
313.85
313.768
313.669
313.562
313.453
313.346
313.25
313.178
309.392
309.443
309.512
309.588
309.666
309.742
309.812
309.871
309.914
309.937
309.937
309.914
309.871
309.812
309.742
309.666
309.588
309.512
309.443
309.392
305.631
305.662
305.703
305.749
305.795
305.841
305.883
305.919
305.945
305.958
305.958
305.945
305.919
305.883
305.841
305.795
305.749
305.703
305.662
305.631
301.886
301.896
301.91
301.925
301.941
301.956
301.97
301.982
301.991
301.995
301.995
301.991
301.982
301.97
301.956
301.941
301.925
301.91
301.896
301.886
329.139
329.3
329.506
329.728
329.957
330.18
330.385
330.557
330.682
330.748
330.748
330.682
330.557
330.385
330.18
329.957
329.728
329.506
329.3
329.139
325.097
325.234
325.411
325.604
325.801
325.994
326.172
326.321
326.429
326.486
326.486
326.429
326.321
326.172
325.994
325.801
325.604
325.411
325.234
325.097
321.124
321.237
321.386
321.549
321.716
321.88
322.029
322.155
322.246
322.294
322.294
322.246
322.155
322.029
321.88
321.716
321.549
321.386
321.237
321.124
317.208
317.299
317.421
317.554
317.691
317.824
317.946
318.049
318.124
318.163
318.163
318.124
318.049
317.946
317.824
317.691
317.554
317.421
317.299
317.208
313.339
313.409
313.504
313.607
313.713
313.817
313.912
313.992
314.05
314.08
314.08
314.05
313.992
313.912
313.817
313.713
313.607
313.504
313.409
313.339
309.507
309.556
309.624
309.697
309.773
309.847
309.915
309.972
310.013
310.035
310.035
310.013
309.972
309.915
309.847
309.773
309.697
309.624
309.556
309.507
305.7
305.73
305.77
305.814
305.86
305.904
305.945
305.979
306.004
306.017
306.017
306.004
305.979
305.945
305.904
305.86
305.814
305.77
305.73
305.7
301.909
301.919
301.932
301.947
301.963
301.977
301.991
302.003
302.011
302.015
302.015
302.011
302.003
301.991
301.977
301.963
301.947
301.932
301.919
301.909
329.612
329.769
329.967
330.182
330.402
330.616
330.812
330.976
331.095
331.158
331.158
331.095
330.976
330.812
330.616
330.402
330.182
329.967
329.769
329.612
325.504
325.637
325.808
325.994
326.184
326.369
326.538
326.681
326.783
326.838
326.838
326.783
326.681
326.538
326.369
326.184
325.994
325.808
325.637
325.504
321.466
321.576
321.72
321.877
322.038
322.194
322.337
322.457
322.544
322.59
322.59
322.544
322.457
322.337
322.194
322.038
321.877
321.72
321.576
321.466
317.486
317.575
317.692
317.821
317.952
318.08
318.197
318.295
318.366
318.403
318.403
318.366
318.295
318.197
318.08
317.952
317.821
317.692
317.575
317.486
313.555
313.623
313.714
313.814
313.916
314.015
314.106
314.182
314.237
314.266
314.266
314.237
314.182
314.106
314.015
313.916
313.814
313.714
313.623
313.555
309.66
309.708
309.773
309.845
309.917
309.988
310.053
310.108
310.147
310.168
310.168
310.147
310.108
310.053
309.988
309.917
309.845
309.773
309.708
309.66
305.792
305.821
305.86
305.902
305.946
305.989
306.028
306.06
306.084
306.096
306.096
306.084
306.06
306.028
305.989
305.946
305.902
305.86
305.821
305.792
301.94
301.949
301.962
301.977
301.991
302.006
302.019
302.03
302.038
302.042
302.042
302.038
302.03
302.019
302.006
301.991
301.977
301.962
301.949
301.94
330.205
330.356
330.547
330.752
330.961
331.164
331.35
331.505
331.617
331.676
331.676
331.617
331.505
331.35
331.164
330.961
330.752
330.547
330.356
330.205
326.014
326.142
326.306
326.484
326.665
326.841
327.001
327.135
327.232
327.283
327.283
327.232
327.135
327.001
326.841
326.665
326.484
326.306
326.142
326.014
321.894
322
322.139
322.289
322.442
322.591
322.726
322.839
322.921
322.964
322.964
322.921
322.839
322.726
322.591
322.442
322.289
322.139
322
321.894
317.835
317.92
318.033
318.156
318.281
318.402
318.513
318.606
318.672
318.708
318.708
318.672
318.606
318.513
318.402
318.281
318.156
318.033
317.92
317.835
313.824
313.89
313.977
314.073
314.17
314.265
314.351
314.423
314.475
314.502
314.502
314.475
314.423
314.351
314.265
314.17
314.073
313.977
313.89
313.824
309.852
309.898
309.961
310.029
310.099
310.166
310.228
310.279
310.316
310.335
310.335
310.316
310.279
310.228
310.166
310.099
310.029
309.961
309.898
309.852
305.907
305.935
305.972
306.013
306.055
306.095
306.132
306.163
306.185
306.197
306.197
306.185
306.163
306.132
306.095
306.055
306.013
305.972
305.935
305.907
301.978
301.988
302
302.014
302.028
302.041
302.054
302.064
302.072
302.075
302.075
302.072
302.064
302.054
302.041
302.028
302.014
302
301.988
301.978
330.919
331.063
331.245
331.44
331.637
331.828
332.002
332.147
332.251
332.306
332.306
332.251
332.147
332.002
331.828
331.637
331.44
331.245
331.063
330.919
326.627
326.749
326.906
327.075
327.246
327.411
327.562
327.687
327.777
327.825
327.825
327.777
327.687
327.562
327.411
327.246
327.075
326.906
326.749
326.627
322.41
322.511
322.643
322.785
322.93
323.07
323.197
323.303
323.379
323.419
323.419
323.379
323.303
323.197
323.07
322.93
322.785
322.643
322.511
322.41
318.254
318.335
318.443
318.56
318.678
318.792
318.896
318.983
319.045
319.078
319.078
319.045
318.983
318.896
318.792
318.678
318.56
318.443
318.335
318.254
314.149
314.212
314.295
314.386
314.478
314.567
314.647
314.715
314.763
314.788
314.788
314.763
314.715
314.647
314.567
314.478
314.386
314.295
314.212
314.149
310.083
310.128
310.187
310.252
310.318
310.381
310.439
310.487
310.521
310.539
310.539
310.521
310.487
310.439
310.381
310.318
310.252
310.187
310.128
310.083
306.046
306.072
306.108
306.147
306.186
306.224
306.259
306.288
306.308
306.319
306.319
306.308
306.288
306.259
306.224
306.186
306.147
306.108
306.072
306.046
302.025
302.034
302.045
302.058
302.072
302.085
302.096
302.106
302.113
302.116
302.116
302.113
302.106
302.096
302.085
302.072
302.058
302.045
302.034
302.025
331.753
331.89
332.062
332.246
332.431
332.61
332.771
332.906
333.002
333.053
333.053
333.002
332.906
332.771
332.61
332.431
332.246
332.062
331.89
331.753
327.345
327.461
327.609
327.768
327.929
328.083
328.223
328.339
328.423
328.466
328.466
328.423
328.339
328.223
328.083
327.929
327.768
327.609
327.461
327.345
323.012
323.109
323.233
323.368
323.504
323.634
323.753
323.851
323.921
323.958
323.958
323.921
323.851
323.753
323.634
323.504
323.368
323.233
323.109
323.012
318.744
318.822
318.924
319.034
319.145
319.252
319.348
319.428
319.486
319.516
319.516
319.486
319.428
319.348
319.252
319.145
319.034
318.924
318.822
318.744
314.529
314.588
314.667
314.753
314.839
314.922
314.997
315.06
315.104
315.128
315.128
315.104
315.06
314.997
314.922
314.839
314.753
314.667
314.588
314.529
310.354
310.396
310.452
310.513
310.575
310.634
310.688
310.732
310.764
310.781
310.781
310.764
310.732
310.688
310.634
310.575
310.513
310.452
310.396
310.354
306.208
306.233
306.267
306.303
306.34
306.376
306.408
306.435
306.454
306.464
306.464
306.454
306.435
306.408
306.376
306.34
306.303
306.267
306.233
306.208
302.079
302.087
302.099
302.111
302.123
302.135
302.146
302.155
302.161
302.165
302.165
302.161
302.155
302.146
302.135
302.123
302.111
302.099
302.087
302.079
332.71
332.839
333.001
333.173
333.346
333.511
333.66
333.784
333.872
333.918
333.918
333.872
333.784
333.66
333.511
333.346
333.173
333.001
332.839
332.71
328.167
328.276
328.416
328.565
328.715
328.858
328.987
329.094
329.17
329.21
329.21
329.17
329.094
328.987
328.858
328.715
328.565
328.416
328.276
328.167
323.703
323.794
323.912
324.038
324.164
324.285
324.395
324.485
324.55
324.583
324.583
324.55
324.485
324.395
324.285
324.164
324.038
323.912
323.794
323.703
319.307
319.38
319.475
319.578
319.682
319.781
319.87
319.944
319.997
320.025
320.025
319.997
319.944
319.87
319.781
319.682
319.578
319.475
319.38
319.307
314.964
315.02
315.094
315.175
315.255
315.332
315.402
315.459
315.5
315.521
315.521
315.5
315.459
315.402
315.332
315.255
315.175
315.094
315.02
314.964
310.664
310.703
310.756
310.814
310.871
310.926
310.976
311.017
311.046
311.061
311.061
311.046
311.017
310.976
310.926
310.871
310.814
310.756
310.703
310.664
306.393
306.417
306.449
306.483
306.518
306.551
306.581
306.605
306.623
306.632
306.632
306.623
306.605
306.581
306.551
306.518
306.483
306.449
306.417
306.393
302.141
302.149
302.16
302.171
302.183
302.194
302.204
302.212
302.218
302.221
302.221
302.218
302.212
302.204
302.194
302.183
302.171
302.16
302.149
302.141
333.789
333.91
334.062
334.222
334.382
334.534
334.671
334.784
334.864
334.906
334.906
334.864
334.784
334.671
334.534
334.382
334.222
334.062
333.91
333.789
329.095
329.197
329.328
329.467
329.605
329.737
329.856
329.953
330.023
330.059
330.059
330.023
329.953
329.856
329.737
329.605
329.467
329.328
329.197
329.095
324.483
324.568
324.678
324.795
324.913
325.024
325.125
325.207
325.266
325.297
325.297
325.266
325.207
325.125
325.024
324.913
324.795
324.678
324.568
324.483
319.941
320.009
320.099
320.195
320.291
320.382
320.464
320.532
320.58
320.605
320.605
320.58
320.532
320.464
320.382
320.291
320.195
320.099
320.009
319.941
315.455
315.508
315.577
315.652
315.727
315.798
315.861
315.914
315.951
315.971
315.971
315.951
315.914
315.861
315.798
315.727
315.652
315.577
315.508
315.455
311.013
311.051
311.1
311.154
311.207
311.258
311.303
311.341
311.367
311.381
311.381
311.367
311.341
311.303
311.258
311.207
311.154
311.1
311.051
311.013
306.603
306.625
306.655
306.687
306.719
306.749
306.777
306.799
306.815
306.824
306.824
306.815
306.799
306.777
306.749
306.719
306.687
306.655
306.625
306.603
302.211
302.219
302.229
302.239
302.25
302.26
302.27
302.277
302.282
302.285
302.285
302.282
302.277
302.27
302.26
302.25
302.239
302.229
302.219
302.211
334.991
335.105
335.246
335.394
335.542
335.681
335.806
335.908
335.981
336.019
336.019
335.981
335.908
335.806
335.681
335.542
335.394
335.246
335.105
334.991
330.128
330.225
330.346
330.475
330.602
330.723
330.831
330.92
330.983
331.016
331.016
330.983
330.92
330.831
330.723
330.602
330.475
330.346
330.225
330.128
325.352
325.431
325.534
325.642
325.751
325.853
325.944
326.019
326.073
326.1
326.1
326.073
326.019
325.944
325.853
325.751
325.642
325.534
325.431
325.352
320.648
320.712
320.795
320.884
320.972
321.056
321.131
321.192
321.236
321.259
321.259
321.236
321.192
321.131
321.056
320.972
320.884
320.795
320.712
320.648
316.002
316.052
316.116
316.186
316.254
316.32
316.378
316.425
316.459
316.477
316.477
316.459
316.425
316.378
316.32
316.254
316.186
316.116
316.052
316.002
311.403
311.438
311.484
311.534
311.583
311.629
311.671
311.705
311.729
311.742
311.742
311.729
311.705
311.671
311.629
311.583
311.534
311.484
311.438
311.403
306.837
306.857
306.885
306.915
306.944
306.972
306.997
307.018
307.032
307.04
307.04
307.032
307.018
306.997
306.972
306.944
306.915
306.885
306.857
306.837
302.29
302.296
302.306
302.316
302.326
302.335
302.343
302.35
302.355
302.358
302.358
302.355
302.35
302.343
302.335
302.326
302.316
302.306
302.296
302.29
336.318
336.423
336.554
336.691
336.826
336.954
337.067
337.159
337.225
337.259
337.259
337.225
337.159
337.067
336.954
336.826
336.691
336.554
336.423
336.318
331.269
331.358
331.471
331.589
331.707
331.817
331.915
331.995
332.052
332.082
332.082
332.052
331.995
331.915
331.817
331.707
331.589
331.471
331.358
331.269
326.31
326.384
326.479
326.579
326.679
326.772
326.855
326.923
326.971
326.996
326.996
326.971
326.923
326.855
326.772
326.679
326.579
326.479
326.384
326.31
321.427
321.487
321.564
321.646
321.727
321.804
321.872
321.927
321.967
321.987
321.987
321.967
321.927
321.872
321.804
321.727
321.646
321.564
321.487
321.427
316.606
316.652
316.712
316.776
316.839
316.898
316.951
316.994
317.025
317.041
317.041
317.025
316.994
316.951
316.898
316.839
316.776
316.712
316.652
316.606
311.833
311.866
311.908
311.954
311.999
312.042
312.079
312.11
312.132
312.143
312.143
312.132
312.11
312.079
312.042
311.999
311.954
311.908
311.866
311.833
307.094
307.114
307.139
307.167
307.194
307.219
307.242
307.26
307.274
307.28
307.28
307.274
307.26
307.242
307.219
307.194
307.167
307.139
307.114
307.094
302.376
302.382
302.391
302.4
302.409
302.418
302.425
302.431
302.436
302.438
302.438
302.436
302.431
302.425
302.418
302.409
302.4
302.391
302.382
302.376
337.768
337.866
337.987
338.113
338.236
338.352
338.454
338.538
338.597
338.627
338.627
338.597
338.538
338.454
338.352
338.236
338.113
337.987
337.866
337.768
332.516
332.599
332.703
332.812
332.919
333.019
333.108
333.18
333.231
333.258
333.258
333.231
333.18
333.108
333.019
332.919
332.812
332.703
332.599
332.516
327.358
327.427
327.515
327.607
327.697
327.782
327.857
327.918
327.962
327.984
327.984
327.962
327.918
327.857
327.782
327.697
327.607
327.515
327.427
327.358
322.28
322.335
322.407
322.482
322.556
322.626
322.687
322.737
322.772
322.791
322.791
322.772
322.737
322.687
322.626
322.556
322.482
322.407
322.335
322.28
317.266
317.309
317.364
317.423
317.481
317.535
317.583
317.621
317.649
317.663
317.663
317.649
317.621
317.583
317.535
317.481
317.423
317.364
317.309
317.266
312.303
312.333
312.373
312.415
312.456
312.495
312.529
312.557
312.576
312.586
312.586
312.576
312.557
312.529
312.495
312.456
312.415
312.373
312.333
312.303
307.376
307.394
307.418
307.443
307.468
307.491
307.511
307.528
307.54
307.546
307.546
307.54
307.528
307.511
307.491
307.468
307.443
307.418
307.394
307.376
302.47
302.476
302.484
302.492
302.501
302.509
302.515
302.521
302.525
302.527
302.527
302.525
302.521
302.515
302.509
302.501
302.492
302.484
302.476
302.47
339.343
339.433
339.544
339.659
339.772
339.877
339.969
340.044
340.097
340.124
340.124
340.097
340.044
339.969
339.877
339.772
339.659
339.544
339.433
339.343
333.869
333.946
334.042
334.142
334.239
334.33
334.41
334.475
334.521
334.544
334.544
334.521
334.475
334.41
334.33
334.239
334.142
334.042
333.946
333.869
328.495
328.559
328.64
328.724
328.807
328.884
328.951
329.006
329.045
329.065
329.065
329.045
329.006
328.951
328.884
328.807
328.724
328.64
328.559
328.495
323.205
323.256
323.322
323.391
323.459
323.522
323.577
323.622
323.654
323.67
323.67
323.654
323.622
323.577
323.522
323.459
323.391
323.322
323.256
323.205
317.983
318.022
318.073
318.127
318.179
318.228
318.272
318.306
318.331
318.344
318.344
318.331
318.306
318.272
318.228
318.179
318.127
318.073
318.022
317.983
312.813
312.841
312.878
312.916
312.954
312.989
313.019
313.044
313.062
313.071
313.071
313.062
313.044
313.019
312.989
312.954
312.916
312.878
312.841
312.813
307.682
307.698
307.72
307.743
307.766
307.787
307.805
307.82
307.831
307.836
307.836
307.831
307.82
307.805
307.787
307.766
307.743
307.72
307.698
307.682
302.572
302.578
302.585
302.593
302.601
302.608
302.614
302.619
302.622
302.624
302.624
302.622
302.619
302.614
302.608
302.601
302.593
302.585
302.578
302.572
341.039
341.122
341.224
341.329
341.431
341.526
341.609
341.676
341.723
341.748
341.748
341.723
341.676
341.609
341.526
341.431
341.329
341.224
341.122
341.039
335.327
335.398
335.486
335.577
335.665
335.747
335.819
335.878
335.918
335.94
335.94
335.918
335.878
335.819
335.747
335.665
335.577
335.486
335.398
335.327
329.72
329.779
329.853
329.93
330.005
330.074
330.135
330.184
330.219
330.237
330.237
330.219
330.184
330.135
330.074
330.005
329.93
329.853
329.779
329.72
324.201
324.248
324.309
324.372
324.433
324.49
324.54
324.58
324.608
324.623
324.623
324.608
324.58
324.54
324.49
324.433
324.372
324.309
324.248
324.201
318.754
318.79
318.837
318.886
318.934
318.978
319.017
319.048
319.07
319.082
319.082
319.07
319.048
319.017
318.978
318.934
318.886
318.837
318.79
318.754
313.362
313.388
313.421
313.456
313.491
313.522
313.55
313.572
313.588
313.596
313.596
313.588
313.572
313.55
313.522
313.491
313.456
313.421
313.388
313.362
308.011
308.026
308.046
308.067
308.087
308.107
308.123
308.137
308.146
308.151
308.151
308.146
308.137
308.123
308.107
308.087
308.067
308.046
308.026
308.011
302.683
302.688
302.694
302.701
302.708
302.715
302.72
302.725
302.728
302.73
302.73
302.728
302.725
302.72
302.715
302.708
302.701
302.694
302.688
302.683
342.85
342.927
343.02
343.116
343.208
343.294
343.369
343.428
343.471
343.492
343.492
343.471
343.428
343.369
343.294
343.208
343.116
343.02
342.927
342.85
336.882
336.947
337.028
337.111
337.191
337.266
337.33
337.382
337.419
337.438
337.438
337.419
337.382
337.33
337.266
337.191
337.111
337.028
336.947
336.882
331.026
331.08
331.148
331.218
331.286
331.349
331.404
331.448
331.478
331.494
331.494
331.478
331.448
331.404
331.349
331.286
331.218
331.148
331.08
331.026
325.263
325.306
325.361
325.419
325.475
325.526
325.571
325.607
325.632
325.645
325.645
325.632
325.607
325.571
325.526
325.475
325.419
325.361
325.306
325.263
319.575
319.609
319.652
319.696
319.74
319.78
319.815
319.843
319.862
319.872
319.872
319.862
319.843
319.815
319.78
319.74
319.696
319.652
319.609
319.575
313.947
313.971
314.001
314.033
314.064
314.093
314.118
314.138
314.152
314.159
314.159
314.152
314.138
314.118
314.093
314.064
314.033
314.001
313.971
313.947
308.361
308.375
308.393
308.412
308.431
308.448
308.463
308.475
308.484
308.488
308.488
308.484
308.475
308.463
308.448
308.431
308.412
308.393
308.375
308.361
302.8
302.805
302.811
302.817
302.823
302.829
302.834
302.838
302.841
302.842
302.842
302.841
302.838
302.834
302.829
302.823
302.817
302.811
302.805
302.8
344.758
344.829
344.914
345.002
345.086
345.163
345.23
345.283
345.321
345.34
345.34
345.321
345.283
345.23
345.163
345.086
345.002
344.914
344.829
344.758
338.519
338.579
338.652
338.728
338.801
338.868
338.926
338.973
339.005
339.022
339.022
339.005
338.973
338.926
338.868
338.801
338.728
338.652
338.579
338.519
332.398
332.447
332.509
332.573
332.635
332.692
332.741
332.78
332.808
332.822
332.822
332.808
332.78
332.741
332.692
332.635
332.573
332.509
332.447
332.398
326.376
326.416
326.467
326.519
326.57
326.616
326.656
326.689
326.711
326.723
326.723
326.711
326.689
326.656
326.616
326.57
326.519
326.467
326.416
326.376
320.436
320.467
320.506
320.547
320.586
320.622
320.654
320.679
320.696
320.705
320.705
320.696
320.679
320.654
320.622
320.586
320.547
320.506
320.467
320.436
314.559
314.581
314.609
314.638
314.666
314.692
314.714
314.732
314.745
314.751
314.751
314.745
314.732
314.714
314.692
314.666
314.638
314.609
314.581
314.559
308.727
308.74
308.757
308.775
308.791
308.807
308.82
308.831
308.839
308.843
308.843
308.839
308.831
308.82
308.807
308.791
308.775
308.757
308.74
308.727
302.922
302.927
302.932
302.938
302.944
302.949
302.954
302.957
302.96
302.961
302.961
302.96
302.957
302.954
302.949
302.944
302.938
302.932
302.927
302.922
346.718
346.784
346.862
346.941
347.018
347.088
347.148
347.196
347.23
347.247
347.247
347.23
347.196
347.148
347.088
347.018
346.941
346.862
346.784
346.718
340.192
340.247
340.315
340.384
340.45
340.511
340.563
340.605
340.634
340.649
340.649
340.634
340.605
340.563
340.511
340.45
340.384
340.315
340.247
340.192
333.795
333.84
333.897
333.956
334.012
334.063
334.108
334.143
334.168
334.18
334.18
334.168
334.143
334.108
334.063
334.012
333.956
333.897
333.84
333.795
327.506
327.543
327.59
327.637
327.683
327.725
327.762
327.791
327.811
327.821
327.821
327.811
327.791
327.762
327.725
327.683
327.637
327.59
327.543
327.506
321.307
321.335
321.371
321.409
321.444
321.477
321.505
321.528
321.544
321.552
321.552
321.544
321.528
321.505
321.477
321.444
321.409
321.371
321.335
321.307
315.177
315.197
315.223
315.249
315.275
315.298
315.319
315.335
315.346
315.352
315.352
315.346
315.335
315.319
315.298
315.275
315.249
315.223
315.197
315.177
309.097
309.109
309.124
309.14
309.155
309.169
309.182
309.191
309.198
309.202
309.202
309.198
309.191
309.182
309.169
309.155
309.14
309.124
309.109
309.097
303.046
303.05
303.055
303.06
303.066
303.07
303.074
303.078
303.08
303.081
303.081
303.08
303.078
303.074
303.07
303.066
303.06
303.055
303.05
303.046
348.61
348.67
348.743
348.816
348.886
348.949
349.004
349.048
349.078
349.093
349.093
349.078
349.048
349.004
348.949
348.886
348.816
348.743
348.67
348.61
341.788
341.839
341.901
341.965
342.025
342.08
342.128
342.166
342.192
342.206
342.206
342.192
342.166
342.128
342.08
342.025
341.965
341.901
341.839
341.788
335.112
335.155
335.207
335.261
335.313
335.36
335.4
335.432
335.455
335.466
335.466
335.455
335.432
335.4
335.36
335.313
335.261
335.207
335.155
335.112
328.562
328.596
328.64
328.684
328.726
328.764
328.797
328.824
328.842
328.852
328.852
328.842
328.824
328.797
328.764
328.726
328.684
328.64
328.596
328.562
322.115
322.141
322.174
322.209
322.242
322.272
322.297
322.318
322.332
322.34
322.34
322.332
322.318
322.297
322.272
322.242
322.209
322.174
322.141
322.115
315.747
315.765
315.789
315.814
315.837
315.859
315.877
315.892
315.902
315.908
315.908
315.902
315.892
315.877
315.859
315.837
315.814
315.789
315.765
315.747
309.436
309.447
309.461
309.476
309.49
309.503
309.514
309.523
309.529
309.532
309.532
309.529
309.523
309.514
309.503
309.49
309.476
309.461
309.447
309.436
303.159
303.163
303.168
303.173
303.177
303.182
303.185
303.188
303.19
303.192
303.192
303.19
303.188
303.185
303.182
303.177
303.173
303.168
303.163
303.159
350.106
350.162
350.23
350.299
350.364
350.423
350.474
350.515
350.543
350.557
350.557
350.543
350.515
350.474
350.423
350.364
350.299
350.23
350.162
350.106
343
343.048
343.107
343.167
343.224
343.276
343.32
343.356
343.38
343.393
343.393
343.38
343.356
343.32
343.276
343.224
343.167
343.107
343.048
343
336.083
336.123
336.173
336.223
336.272
336.316
336.354
336.384
336.405
336.415
336.415
336.405
336.384
336.354
336.316
336.272
336.223
336.173
336.123
336.083
329.321
329.353
329.394
329.436
329.475
329.512
329.543
329.567
329.584
329.593
329.593
329.584
329.567
329.543
329.512
329.475
329.436
329.394
329.353
329.321
322.684
322.709
322.74
322.773
322.804
322.832
322.856
322.876
322.889
322.896
322.896
322.889
322.876
322.856
322.832
322.804
322.773
322.74
322.709
322.684
316.143
316.16
316.183
316.206
316.228
316.249
316.266
316.28
316.289
316.294
316.294
316.289
316.28
316.266
316.249
316.228
316.206
316.183
316.16
316.143
309.669
309.68
309.694
309.708
309.721
309.733
309.744
309.752
309.758
309.761
309.761
309.758
309.752
309.744
309.733
309.721
309.708
309.694
309.68
309.669
303.237
303.24
303.245
303.25
303.254
303.258
303.262
303.264
303.266
303.267
303.267
303.266
303.264
303.262
303.258
303.254
303.25
303.245
303.24
303.237
)
;

boundaryField
{
    hotSide
    {
        type            fixedGradient;
        gradient        nonuniform List<scalar> 
400
(
321.511
322.87
325.591
329.677
335.133
341.965
350.181
359.788
370.794
383.208
397.037
412.289
428.971
447.088
466.647
487.651
510.105
534.011
559.372
586.191
323.738
325.08
327.767
331.802
337.194
343.949
352.078
361.591
372.498
384.81
398.537
413.687
430.268
448.289
467.755
488.672
511.043
534.872
560.161
586.913
326.149
327.47
330.116
334.091
339.406
346.071
354.099
363.503
374.296
386.491
400.101
415.136
431.606
449.52
468.885
489.706
511.988
535.735
560.948
587.63
328.704
330
332.597
336.503
341.73
348.292
356.205
365.485
376.15
388.215
401.695
416.604
432.954
450.753
470.009
490.73
512.919
536.579
561.714
588.325
331.33
332.599
335.142
338.97
344.099
350.546
358.332
367.477
378.003
389.928
403.271
418.047
434.27
451.949
471.095
491.712
513.807
537.382
562.439
588.978
333.918
335.158
337.643
341.389
346.414
352.74
360.392
369.397
379.779
391.562
404.765
419.407
435.503
453.065
472.101
492.618
514.622
538.114
563.096
589.569
336.321
337.531
339.959
343.622
348.544
354.751
362.274
371.142
381.385
393.031
406.101
420.618
436.595
454.047
472.983
493.409
515.33
538.747
563.663
590.076
338.36
339.543
341.92
345.509
350.339
356.44
363.847
372.595
382.718
394.244
407.2
421.608
437.485
454.844
473.695
494.045
515.897
539.253
564.114
590.478
339.852
341.015
343.352
346.885
351.645
357.665
364.985
373.643
383.675
395.113
407.984
422.312
438.116
455.407
474.197
494.491
516.294
539.606
564.428
590.758
340.643
341.795
344.11
347.613
352.334
358.311
365.584
374.193
384.176
395.567
408.393
422.679
438.443
455.699
474.456
494.722
516.498
539.788
564.589
590.901
340.643
341.795
344.11
347.613
352.334
358.311
365.584
374.193
384.176
395.567
408.393
422.679
438.443
455.699
474.456
494.722
516.498
539.788
564.589
590.901
339.852
341.015
343.352
346.885
351.645
357.665
364.985
373.643
383.675
395.113
407.984
422.312
438.116
455.407
474.197
494.491
516.294
539.606
564.428
590.758
338.36
339.543
341.92
345.509
350.339
356.44
363.847
372.595
382.718
394.244
407.2
421.608
437.485
454.844
473.695
494.045
515.897
539.253
564.114
590.478
336.321
337.531
339.959
343.622
348.544
354.751
362.274
371.142
381.385
393.031
406.101
420.618
436.595
454.047
472.983
493.409
515.33
538.747
563.663
590.076
333.918
335.158
337.643
341.389
346.414
352.74
360.392
369.397
379.779
391.562
404.765
419.407
435.503
453.065
472.101
492.618
514.622
538.114
563.096
589.569
331.33
332.599
335.142
338.97
344.099
350.546
358.332
367.477
378.003
389.928
403.271
418.047
434.27
451.949
471.095
491.712
513.807
537.382
562.439
588.978
328.704
330
332.597
336.503
341.73
348.292
356.205
365.485
376.15
388.215
401.695
416.604
432.954
450.753
470.009
490.73
512.919
536.579
561.714
588.325
326.149
327.47
330.116
334.091
339.406
346.071
354.099
363.503
374.296
386.491
400.101
415.136
431.606
449.52
468.885
489.706
511.988
535.735
560.948
587.63
323.738
325.08
327.767
331.802
337.194
343.949
352.078
361.591
372.498
384.81
398.537
413.687
430.268
448.289
467.755
488.672
511.043
534.872
560.161
586.913
321.511
322.87
325.591
329.677
335.133
341.965
350.181
359.788
370.794
383.208
397.037
412.289
428.971
447.088
466.647
487.651
510.105
534.011
559.372
586.191
)
;
    }
    coldSide
    {
        type            mixed;
        refValue        uniform 300;
        refGradient     uniform 0;
        valueFraction   uniform 0.991591;
        source          uniform 0;
        value           nonuniform List<scalar> 
400
(
300.016
300.016
300.016
300.016
300.016
300.017
300.017
300.017
300.018
300.019
300.019
300.02
300.021
300.022
300.023
300.024
300.025
300.026
300.027
300.027
300.016
300.016
300.016
300.016
300.016
300.017
300.017
300.018
300.018
300.019
300.019
300.02
300.021
300.022
300.023
300.024
300.025