/*--------------------------------*- C++ -*----------------------------------*\
| =========                 |                                                 |
| \\      /  F ield         | OpenFOAM: The Open Source CFD Toolbox           |
|  \\    /   O peration     | Version:  2212                                  |
|   \\  /    A nd           | Website:  www.openfoam.com                      |
|    \\/     M anipulation  |                                                 |
\*---------------------------------------------------------------------------*/
FoamFile
{
    version     2.0;
    format      ascii;
    arch        "LSB;label=32;scalar=64";
    class       volScalarField;
    location    "0";
    object      stateMean;
}
// * * * * * * * * * * * * * * * * * * * * * * * * * * * * * * * * * * * * * //

dimensions      [0 0 0 1 0 0 0];

internalField   nonuniform List<scalar> 
3200
(
347.02
346.15
345.785
345.867
346.435
347.11
348.156
349.031
349.838
350.351
350.554
350.362
349.859
349.116
348.255
347.295
346.551
346.327
346.67
347.337
340.927
340.25
339.849
339.853
340.356
341.023
341.844
342.76
343.285
343.675
343.931
343.744
343.255
342.632
341.856
341.003
340.44
340.171
340.443
340.984
334.726
334.146
333.749
333.846
334.298
334.886
335.577
336.191
336.734
337.187
337.335
337.124
336.716
336.141
335.492
334.807
334.175
334.048
334.223
334.747
328.466
328.001
327.833
327.776
328.172
328.571
329.11
329.623
330.109
330.467
330.554
330.366
330.032
329.645
328.973
328.452
328.028
327.954
328.005
328.482
322.187
321.786
321.636
321.682
321.91
322.343
322.651
323.174
323.506
323.784
323.822
323.681
323.415
323.033
322.572
322.175
321.814
321.687
321.789
322.093
315.96
315.647
315.529
315.551
315.709
315.906
316.266
316.54
316.803
316.964
316.965
316.937
316.706
316.547
316.178
315.86
315.561
315.499
315.608
315.816
309.625
309.437
309.313
309.297
309.412
309.591
309.797
309.955
310.019
310.188
310.202
310.214
310.129
309.936
309.696
309.475
309.364
309.289
309.366
309.487
303.189
303.17
303.146
303.107
303.162
303.17
303.303
303.349
303.406
303.431
303.373
303.429
303.354
303.257
303.246
303.123
303.088
303.148
303.154
303.203
347.088
346.267
345.788
345.899
346.509
347.407
348.476
349.387
350.168
350.78
350.943
350.798
350.338
349.495
348.424
347.513
346.697
346.372
346.627
347.351
340.833
340.227
339.855
339.991
340.428
341.195
342.024
342.945
343.614
344.177
344.309
344.129
343.65
342.926
342.132
341.269
340.577
340.248
340.428
340.954
334.748
334.172
333.845
333.917
334.345
334.973
335.654
336.37
337.029
337.418
337.486
337.389
337.006
336.309
335.715
334.841
334.382
334.057
334.218
334.704
328.48
328.051
327.802
327.827
328.192
328.735
329.24
329.823
330.262
330.678
330.712
330.586
330.319
329.753
329.178
328.48
328.139
327.947
328.09
328.422
322.23
321.919
321.623
321.792
321.924
322.395
322.851
323.244
323.651
323.864
324.031
323.954
323.562
323.155
322.691
322.254
321.916
321.801
321.823
322.09
315.875
315.636
315.575
315.487
315.741
316.117
316.326
316.638
316.892
317.038
317.101
317.085
316.831
316.543
316.297
315.969
315.679
315.607
315.679
315.746
309.573
309.442
309.315
309.348
309.478
309.541
309.854
310.1
310.091
310.235
310.341
310.253
310.08
309.965
309.764
309.588
309.383
309.342
309.348
309.494
303.202
303.235
303.08
303.165
303.164
303.301
303.278
303.373
303.415
303.427
303.485
303.49
303.467
303.322
303.271
303.145
303.244
303.145
303.148
303.18
347.167
346.304
346.016
346.12
346.859
347.709
348.865
349.867
350.742
351.475
351.641
351.533
350.914
349.949
348.894
347.923
347.034
346.614
346.862
347.436
341.006
340.402
340.08
340.225
340.773
341.518
342.493
343.356
344.116
344.61
344.883
344.729
344.134
343.433
342.45
341.544
340.759
340.396
340.644
341.11
334.818
334.288
333.932
334.103
334.531
335.27
335.953
336.766
337.397
337.851
337.989
337.897
337.469
336.882
336.036
335.175
334.54
334.276
334.455
334.862
328.594
328.117
327.975
328.032
328.453
328.946
329.513
330.179
330.721
330.973
331.135
331.017
330.62
330.057
329.42
328.82
328.262
328.006
328.207
328.448
322.267
321.94
321.758
321.85
322.166
322.478
323.063
323.44
323.981
324.15
324.262
324.193
323.891
323.422
322.988
322.419
322.045
321.921
321.874
322.164
315.862
315.713
315.65
315.673
315.87
316.145
316.408
316.827
317.142
317.214
317.346
317.168
316.978
316.727
316.405
316.013
315.752
315.595
315.635
315.833
309.529
309.418
309.395
309.421
309.568
309.742
309.895
310.13
310.254
310.346
310.429
310.342
310.281
310.011
309.842
309.603
309.537
309.339
309.415
309.555
303.242
303.122
303.132
303.175
303.169
303.225
303.341
303.34
303.419
303.503
303.496
303.543
303.443
303.259
303.306
303.243
303.21
303.141
303.141
303.199
347.435
346.757
346.32
346.542
347.229
348.196
349.351
350.487
351.635
352.279
352.476
352.348
351.725
350.659
349.565
348.419
347.531
347.08
347.176
347.759
341.265
340.709
340.351
340.524
341.108
341.941
342.939
343.913
344.786
345.384
345.602
345.435
344.844
343.925
342.98
342.028
341.193
340.885
340.99
341.391
335.03
334.526
334.323
334.43
334.925
335.533
336.513
337.181
337.972
338.434
338.562
338.443
338.006
337.215
336.396
335.556
334.914
334.549
334.606
335.029
328.704
328.424
328.177
328.304
328.649
329.104
329.871
330.541
331.067
331.502
331.679
331.478
331.197
330.489
329.8
329.116
328.612
328.319
328.424
328.727
322.371
322.089
321.941
322.009
322.303
322.764
323.248
323.816
324.312
324.55
324.734
324.572
324.206
323.788
323.258
322.669
322.278
321.963
322.003
322.328
316.022
315.687
315.689
315.788
316.016
316.308
316.703
317.104
317.337
317.537
317.67
317.594
317.362
316.994
316.576
316.256
315.935
315.722
315.862
315.925
309.612
309.498
309.435
309.469
309.601
309.835
309.971
310.251
310.43
310.46
310.66
310.542
310.444
310.225
309.992
309.74
309.504
309.441
309.546
309.571
303.272
303.102
303.162
303.176
303.224
303.275
303.392
303.445
303.496
303.551
303.571
303.48
303.493
303.491
303.307
303.285
303.231
303.187
303.164
303.273
347.89
347.245
346.862
347.148
347.831
348.885
350.164
351.369
352.412
353.149
353.426
353.229
352.64
351.627
350.352
349.156
348.166
347.667
347.735
348.274
341.554
341.07
340.789
341.094
341.626
342.487
343.569
344.573
345.466
346.155
346.398
346.233
345.607
344.696
343.682
342.579
341.77
341.312
341.417
341.833
335.457
334.887
334.659
334.807
335.411
336.058
336.944
337.796
338.561
339.087
339.402
339.165
338.626
337.93
337.043
336.059
335.437
334.974
335.116
335.358
329.002
328.595
328.446
328.598
329.063
329.594
330.241
330.981
331.576
332.034
332.252
332.092
331.655
330.96
330.241
329.524
328.958
328.693
328.706
329.024
322.593
322.332
322.253
322.289
322.586
323.087
323.622
324.128
324.663
324.945
325.124
324.986
324.597
324.157
323.519
322.944
322.54
322.327
322.322
322.521
316.18
316.084
315.875
316.019
316.206
316.527
316.851
317.233
317.664
317.845
317.916
317.826
317.623
317.238
316.871
316.383
316.18
315.934
315.905
316.067
309.73
309.622
309.509
309.637
309.73
309.917
310.177
310.372
310.569
310.704
310.76
310.713
310.57
310.346
310.114
309.82
309.616
309.678
309.551
309.631
303.225
303.283
303.247
303.226
303.265
303.38
303.415
303.443
303.524
303.524
303.637
303.663
303.514
303.43
303.425
303.259
303.238
303.29
303.289
303.33
348.57
347.76
347.556
347.863
348.562
349.599
350.871
352.214
353.294
354.161
354.488
354.307
353.59
352.468
351.108
349.988
348.931
348.421
348.45
348.88
342.185
341.613
341.454
341.667
342.25
343.134
344.188
345.248
346.339
346.972
347.236
347.183
346.475
345.429
344.33
343.255
342.534
342.023
342.039
342.387
335.837
335.423
335.107
335.27
335.781
336.588
337.483
338.461
339.262
339.782
339.999
339.942
339.331
338.546
337.621
336.684
335.957
335.562
335.529
335.851
329.337
329.121
328.811
328.968
329.425
330.04
330.815
331.505
332.155
332.62
332.826
332.666
332.248
331.568
330.777
330.076
329.419
329.174
329.077
329.305
322.86
322.608
322.422
322.625
322.912
323.415
323.932
324.512
325.024
325.469
325.517
325.349
325.133
324.567
324
323.388
322.919
322.643
322.711
322.813
316.377
316.229
316.037
316.191
316.385
316.761
317.049
317.651
317.93
318.166
318.284
318.238
317.91
317.545
317.144
316.748
316.32
316.231
316.202
316.345
309.812
309.714
309.732
309.796
309.897
310.137
310.3
310.538
310.829
310.925
310.994
310.982
310.756
310.547
310.345
310.066
309.817
309.793
309.676
309.801
303.33
303.23
303.268
303.198
303.249
303.341
303.416
303.435
303.592
303.615
303.649
303.708
303.658
303.562
303.427
303.346
303.308
303.264
303.257
303.199
349.271
348.58
348.416
348.641
349.379
350.466
351.725
352.987
354.237
355.179
355.567
355.364
354.618
353.472
352.072
350.74
349.779
349.266
349.249
349.617
342.809
342.32
342.079
342.315
342.95
343.832
345.008
346.041
347.134
347.808
348.146
348.061
347.419
346.313
345.182
344.095
343.146
342.674
342.695
343.09
336.414
335.975
335.72
335.906
336.387
337.214
338.181
339.017
339.89
340.573
340.871
340.642
340.103
339.261
338.253
337.352
336.495
336.132
336.127
336.477
329.83
329.522
329.305
329.478
329.91
330.54
331.249
332.007
332.705
333.145
333.452
333.274
332.78
332.086
331.36
330.596
330.009
329.587
329.582
329.815
323.247
322.988
322.9
323.058
323.269
323.828
324.327
324.978
325.471
325.896
326.044
325.943
325.607
325.021
324.363
323.838
323.279
323.121
323.084
323.163
316.648
316.491
316.341
316.416
316.648
316.99
317.391
317.883
318.208
318.527
318.611
318.514
318.229
317.862
317.445
316.97
316.61
316.446
316.47
316.514
310.054
309.951
309.874
309.832
310.023
310.197
310.51
310.671
310.92
311.123
311.132
311.202
311.078
310.751
310.493
310.238
310.04
309.86
309.857
309.889
303.338
303.355
303.302
303.316
303.387
303.378
303.53
303.545
303.645
303.702
303.738
303.746
303.621
303.619
303.52
303.406
303.243
303.29
303.362
303.319
350.129
349.544
349.367
349.546
350.17
351.326
352.588
353.946
355.178
356.134
356.581
356.4
355.576
354.466
353.001
351.702
350.735
350.097
350.128
350.482
343.593
343.089
342.783
343.09
343.731
344.601
345.684
346.859
347.905
348.695
349.019
348.914
348.206
347.151
345.973
344.921
343.983
343.554
343.405
343.719
336.957
336.594
336.364
336.604
337.084
337.819
338.776
339.719
340.644
341.257
341.52
341.443
340.809
339.935
338.916
338.001
337.253
336.857
336.684
337.037
330.341
330.044
329.899
329.971
330.492
331.015
331.793
332.563
333.232
333.756
334.047
333.899
333.407
332.688
331.798
331.078
330.481
330.162
330.127
330.26
323.648
323.424
323.297
323.416
323.718
324.188
324.77
325.35
325.857
326.328
326.411
326.391
326.001
325.431
324.828
324.217
323.706
323.472
323.408
323.529
316.89
316.756
316.661
316.837
317.019
317.373
317.709
318.207
318.509
318.757
318.904
318.885
318.63
318.176
317.762
317.29
317.04
316.774
316.74
316.811
310.091
310.056
310.085
310.065
310.291
310.398
310.665
310.83
311.123
311.26
311.338
311.331
311.159
310.899
310.663
310.493
310.246
309.982
310.052
310.07
303.387
303.458
303.292
303.336
303.346
303.455
303.538
303.576
303.728
303.806
303.796
303.836
303.696
303.698
303.579
303.52
303.426
303.433
303.356
303.339
351.037
350.4
350.205
350.484
351.13
352.172
353.474
354.871
356.083
357.029
357.57
357.343
356.562
355.304
353.887
352.595
351.644
351.117
351.001
351.409
344.394
343.929
343.704
343.87
344.476
345.36
346.445
347.667
348.664
349.418
349.841
349.712
348.991
347.873
346.73
345.618
344.867
344.289
344.22
344.432
337.656
337.212
337.088
337.279
337.85
338.46
339.374
340.326
341.221
341.937
342.201
342.023
341.474
340.561
339.569
338.687
337.955
337.446
337.454
337.639
330.805
330.604
330.457
330.489
330.947
331.453
332.313
333.059
333.838
334.302
334.613
334.454
333.966
333.271
332.449
331.713
330.981
330.754
330.623
330.713
323.992
323.869
323.733
323.846
324.112
324.535
325.114
325.788
326.349
326.735
326.92
326.823
326.456
325.835
325.221
324.672
324.094
323.848
323.842
324.003
317.187
317
316.977
317.034
317.202
317.485
317.915
318.416
318.833
319.055
319.29
319.088
318.91
318.525
318.036
317.543
317.291
317.074
317.031
317.126
310.392
310.254
310.179
310.272
310.401
310.645
310.808
311.073
311.341
311.41
311.572
311.491
311.33
311.04
310.864
310.598
310.386
310.201
310.244
310.349
303.487
303.415
303.383
303.379
303.506
303.591
303.606
303.71
303.715
303.851
303.838
303.861
303.743
303.756
303.631
303.568
303.494
303.427
303.463
303.382
351.917
351.478
351.214
351.533
352.093
353.112
354.385
355.678
356.859
357.779
358.336
358.116
357.265
356.125
354.784
353.561
352.505
352.049
351.938
352.283
345.132
344.733
344.538
344.74
345.243
346.083
347.184
348.408
349.365
350.132
350.484
350.311
349.684
348.739
347.482
346.413
345.556
345.123
345.086
345.292
338.357
337.919
337.778
337.956
338.347
339.128
340.01
340.984
341.778
342.515
342.832
342.678
342.096
341.238
340.279
339.305
338.547
338.209
338.104
338.275
331.396
331.218
331.006
331.012
331.501
332.075
332.891
333.6
334.256
334.805
335.124
334.851
334.416
333.679
333.005
332.086
331.602
331.251
331.16
331.365
324.526
324.289
324.196
324.273
324.528
324.932
325.577
326.122
326.594
327.05
327.235
327.216
326.744
326.25
325.545
325.081
324.624
324.301
324.234
324.259
317.534
317.34
317.309
317.363
317.619
317.815
318.305
318.707
319.112
319.341
319.498
319.461
319.212
318.752
318.334
317.875
317.645
317.381
317.397
317.386
310.513
310.495
310.371
310.44
310.554
310.664
310.915
311.312
311.359
311.652
311.715
311.593
311.493
311.28
311.011
310.693
310.587
310.46
310.402
310.428
303.555
303.516
303.458
303.495
303.546
303.577
303.63
303.78
303.855
303.787
303.947
303.888
303.908
303.727
303.703
303.562
303.559
303.408
303.483
303.544
352.929
352.39
352.187
352.436
353.111
354.073
355.215
356.446
357.63
358.502
358.991
358.749
358.056
356.827
355.64
354.455
353.416
352.926
352.806
353.099
346.01
345.664
345.42
345.516
346.112
347
347.903
348.976
349.919
350.727
351.153
350.993
350.362
349.306
348.239
347.159
346.382
345.915
345.788
346.094
339.019
338.679
338.486
338.624
339.14
339.776
340.639
341.474
342.396
343.015
343.239
343.19
342.637
341.785
340.818
339.888
339.204
338.824
338.826
338.971
332.024
331.693
331.669
331.755
332.03
332.616
333.303
334.148
334.79
335.188
335.477
335.318
334.847
334.177
333.367
332.634
332.078
331.839
331.727
331.895
324.915
324.841
324.62
324.702
324.973
325.413
325.895
326.57
326.982
327.346
327.618
327.518
327.116
326.606
326.004
325.382
324.988
324.693
324.67
324.814
317.871
317.686
317.595
317.676
317.855
318.174
318.575
318.968
319.376
319.596
319.681
319.652
319.33
319.049
318.642
318.215
317.941
317.73
317.644
317.653
310.745
310.662
310.601
310.64
310.757
310.917
311.134
311.456
311.614
311.848
311.851
311.821
311.633
311.392
311.23
311.007
310.731
310.578
310.656
310.591
303.555
303.577
303.52
303.475
303.624
303.628
303.774
303.786
303.878
303.96
303.948
303.96
303.857
303.821
303.712
303.597
303.535
303.497
303.485
303.514
353.924
353.436
353.196
353.305
353.958
354.86
355.967
357.104
358.25
359.041
359.517
359.509
358.638
357.64
356.376
355.22
354.35
353.812
353.729
354.054
346.943
346.44
346.229
346.387
346.86
347.662
348.61
349.602
350.58
351.224
351.581
351.46
350.833
349.9
348.91
347.957
347.045
346.666
346.51
346.826
339.754
339.423
339.251
339.354
339.779
340.469
341.249
342.116
342.839
343.446
343.765
343.55
343.01
342.24
341.389
340.534
339.949
339.554
339.444
339.635
332.567
332.339
332.184
332.34
332.596
333.091
333.789
334.431
335.107
335.589
335.788
335.669
335.255
334.541
333.878
333.133
332.635
332.369
332.298
332.435
325.386
325.169
325.091
325.124
325.38
325.872
326.286
326.819
327.231
327.616
327.725
327.736
327.461
326.969
326.371
325.771
325.373
325.114
325.08
325.273
318.237
318.069
317.97
318.036
318.225
318.494
318.72
319.147
319.548
319.747
319.939
319.896
319.648
319.247
318.754
318.461
318.124
317.954
317.862
317.975
310.954
310.839
310.759
310.911
310.9
311.077
311.271
311.569
311.765
311.846
311.951
311.933
311.785
311.527
311.294
311.025
310.896
310.848
310.805
310.804
303.603
303.656
303.716
303.616
303.601
303.712
303.787
303.829
303.895
303.96
303.982
304.024
303.965
303.864
303.807
303.761
303.685
303.643
303.6
303.66
354.976
354.405
354.18
354.375
354.793
355.672
356.754
357.857
358.861
359.566
359.968
359.812
359.182
358.161
357.042
355.968
355.142
354.762
354.661
354.915
347.762
347.297
347.062
347.252
347.743
348.383
349.237
350.252
351.137
351.732
352.09
351.915
351.276
350.47
349.408
348.537
347.783
347.422
347.361
347.545
340.595
340.141
339.978
340.09
340.515
341.005
341.766
342.584
343.336
343.829
344.02
343.944
343.413
342.787
341.88
341.126
340.492
340.064
340.162
340.287
333.169
332.941
332.783
332.808
333.163
333.688
334.266
334.892
335.57
335.879
336.045
335.884
335.515
334.963
334.309
333.626
333.171
332.85
332.811
332.939
325.901
325.641
325.504
325.523
325.885
326.155
326.676
327.089
327.576
327.948
328.135
328.024
327.698
327.285
326.739
326.166
325.727
325.555
325.569
325.657
318.607
318.408
318.275
318.36
318.441
318.723
319.138
319.493
319.777
319.988
320.045
320.003
319.809
319.399
319.067
318.692
318.396
318.342
318.247
318.282
311.034
311.042
311.027
311.034
311.048
311.262
311.517
311.672
311.839
312.038
312.042
312.001
311.867
311.672
311.416
311.276
311.107
310.897
311.001
311.028
303.69
303.712
303.639
303.645
303.694
303.787
303.89
303.93
303.986
303.972
304.024
304.037
303.947
303.918
303.856
303.738
303.759
303.71
303.719
303.695
355.989
355.439
355.178
355.294
355.801
356.524
357.504
358.461
359.396
360.096
360.402
360.317
359.698
358.701
357.729
356.686
356.009
355.528
355.573
355.901
348.716
348.269
348.032
348.165
348.573
349.075
349.909
350.795
351.606
352.159
352.368
352.235
351.733
350.933
349.997
349.233
348.528
348.118
348.164
348.44
341.297
340.991
340.713
340.792
341.172
341.62
342.388
343.029
343.652
344.216
344.416
344.234
343.719
343.066
342.3
341.706
341.029
340.718
340.771
340.912
333.832
333.619
333.358
333.419
333.694
334.184
334.653
335.242
335.77
336.138
336.348
336.181
335.793
335.353
334.671
334.064
333.622
333.435
333.338
333.509
326.418
326.169
326.099
326.089
326.31
326.626
326.969
327.436
327.836
328.187
328.275
328.249
327.851
327.508
326.952
326.609
326.209
325.957
325.966
326.097
318.899
318.7
318.604
318.644
318.764
319.041
319.283
319.678
319.864
320.134
320.18
320.077
319.898
319.723
319.329
318.929
318.664
318.61
318.473
318.619
311.328
311.276
311.223
311.267
311.322
311.463
311.663
311.717
311.973
312.086
312.11
312.099
311.96
311.765
311.585
311.433
311.238
311.208
311.169
311.192
303.718
303.702
303.794
303.789
303.874
303.909
303.937
303.975
303.992
304.095
304.08
304.025
304.013
303.946
303.843
303.775
303.851
303.698
303.674
303.691
357.081
356.467
356.243
356.36
356.713
357.37
358.337
359.145
359.992
360.523
360.81
360.638
360.18
359.196
358.332
357.454
356.791
356.494
356.362
356.848
349.596
349.134
348.881
349.047
349.343
349.857
350.599
351.28
352.001
352.493
352.72
352.566
352.099
351.429
350.562
349.763
349.235
348.892
348.895
349.208
342.046
341.617
341.433
341.553
341.717
342.247
342.857
343.484
344.08
344.525
344.679
344.558
344.106
343.516
342.838
342.194
341.655
341.398
341.401
341.673
334.347
334.148
334
334.107
334.233
334.761
335.193
335.638
336.154
336.446
336.599
336.463
336.155
335.59
335.097
334.515
334.148
333.94
333.918
334.058
326.831
326.621
326.479
326.462
326.65
326.991
327.398
327.725
328.146
328.416
328.514
328.369
328.124
327.751
327.316
326.843
326.577
326.398
326.402
326.519
319.214
319.118
319.04
318.892
319.09
319.306
319.516
319.93
320.086
320.3
320.346
320.331
320.133
319.818
319.534
319.325
318.972
318.861
318.875
318.882
311.56
311.428
311.388
311.362
311.539
311.559
311.714
311.918
312.137
312.251
312.167
312.175
312.122
311.954
311.744
311.512
311.418
311.282
311.322
311.31
303.865
303.869
303.842
303.834
303.833
303.865
303.857
304.008
304.079
304.08
304.048
304.054
304.024
303.988
303.951
303.824
303.851
303.817
303.786
303.838
358.157
357.664
357.358
357.256
357.572
358.225
358.993
359.829
360.482
361.018
361.236
361.021
360.58
359.927
359.071
358.181
357.575
357.318
357.417
357.772
350.533
350.101
349.766
349.777
350.088
350.642
351.216
351.962
352.497
352.844
353.058
352.996
352.533
351.903
351.204
350.482
349.907
349.712
349.761
350.054
342.728
342.521
342.246
342.223
342.469
342.879
343.363
343.967
344.511
344.832
344.965
344.808
344.476
343.912
343.295
342.725
342.291
342.079
342.095
342.393
335.083
334.759
334.513
334.623
334.91
335.145
335.59
336.047
336.424
336.682
336.813
336.721
336.412
336.026
335.422
335.005
334.575
334.382
334.477
334.614
327.348
327.168
326.957
327.031
327.114
327.378
327.763
328.046
328.326
328.59
328.649
328.61
328.341
327.956
327.58
327.25
326.822
326.734
326.823
326.957
319.514
319.473
319.251
319.347
319.413
319.602
319.784
320.104
320.329
320.462
320.474
320.402
320.225
319.996
319.66
319.483
319.242
319.144
319.154
319.195
311.793
311.658
311.606
311.596
311.614
311.793
311.849
312.057
312.204
312.274
312.268
312.248
312.138
311.988
311.809
311.739
311.601
311.542
311.507
311.574
304.037
303.907
303.867
303.821
303.91
303.906
303.947
304.027
304.108
304.037
304.094
304.125
304.102
303.993
303.971
303.919
303.876
303.873
303.839
303.851
359.215
358.624
358.329
358.304
358.647
359.149
359.785
360.438
361.007
361.465
361.674
361.528
361.15
360.423
359.684
359.035
358.402
358.142
358.325
358.776
351.479
350.962
350.68
350.645
350.865
351.262
351.9
352.431
352.959
353.31
353.442
353.365
352.967
352.399
351.815
351.133
350.628
350.435
350.596
350.86
343.649
343.218
342.951
342.975
343.179
343.552
344.098
344.593
344.879
345.129
345.313
345.114
344.924
344.401
343.826
343.316
342.854
342.635
342.769
343.158
335.778
335.474
335.221
335.244
335.363
335.719
336.097
336.424
336.714
337.016
337.059
336.91
336.767
336.303
335.814
335.408
335.043
334.973
335.024
335.189
327.747
327.627
327.513
327.405
327.573
327.812
328.141
328.436
328.702
328.769
328.838
328.739
328.546
328.277
327.952
327.509
327.382
327.241
327.213
327.412
319.959
319.737
319.631
319.547
319.631
319.93
320.078
320.318
320.463
320.619
320.612
320.543
320.444
320.21
319.949
319.734
319.522
319.402
319.495
319.647
311.999
311.844
311.8
311.769
311.884
312.005
312.046
312.305
312.322
312.315
312.461
312.354
312.288
312.151
311.892
311.806
311.686
311.704
311.692
311.78
304.062
303.951
303.976
303.93
303.956
304.015
304.083
304.123
304.134
304.165
304.117
304.143
304.161
304.103
303.984
304.078
303.919
303.927
303.966
303.972
360.351
359.744
359.404
359.334
359.59
359.982
360.54
361.113
361.629
361.889
362.105
362.018
361.574
360.978
360.38
359.788
359.385
359.171
359.303
359.825
352.427
351.944
351.689
351.56
351.628
352.103
352.573
353.081
353.416
353.785
353.87
353.817
353.345
352.972
352.331
351.785
351.397
351.315
351.394
351.832
344.372
344.032
343.768
343.739
343.836
344.149
344.452
345.061
345.35
345.569
345.609
345.562
345.252
344.797
344.314
343.804
343.471
343.404
343.45
343.777
336.387
336.059
335.867
335.761
335.915
336.175
336.443
336.842
337.088
337.244
337.377
337.269
336.983
336.653
336.231
335.867
335.608
335.443
335.615
335.785
328.349
328.131
327.928
327.916
328.007
328.155
328.373
328.666
328.895
329.083
329.104
328.994
328.862
328.526
328.232
327.902
327.63
327.665
327.695
327.908
320.247
320.041
320.031
319.963
320.049
320.139
320.265
320.469
320.628
320.754
320.819
320.73
320.599
320.32
320.154
320.045
319.723
319.694
319.675
319.866
312.202
312.128
312.039
312.066
312.096
312.064
312.223
312.33
312.501
312.537
312.478
312.463
312.317
312.243
312.102
311.928
311.883
311.829
311.924
311.947
304.103
304.027
304.057
303.979
304.01
304.037
304.086
304.142
304.193
304.161
304.185
304.203
304.062
304.123
304.039
303.983
304.011
303.961
303.946
304.001
361.451
360.797
360.39
360.184
360.437
360.825
361.302
361.796
362.237
362.497
362.614
362.51
362.08
361.648
361.08
360.436
360.125
360.073
360.241
360.718
353.359
352.815
352.501
352.348
352.439
352.844
353.146
353.588
353.974
354.207
354.278
354.186
353.849
353.43
352.888
352.438
352.11
352.055
352.158
352.588
345.228
344.76
344.513
344.394
344.526
344.736
345.048
345.407
345.76
345.861
346.009
345.863
345.658
345.271
344.842
344.424
344.108
344.016
344.128
344.431
337.013
336.703
336.415
336.381
336.411
336.622
336.951
337.168
337.444
337.629
337.619
337.581
337.298
336.995
336.671
336.256
336.096
335.914
336.093
336.343
328.742
328.667
328.452
328.289
328.344
328.439
328.727
329.005
329.204
329.247
329.294
329.251
329.058
328.792
328.57
328.205
328.061
328.027
328.16
328.244
320.578
320.365
320.306
320.206
320.309
320.43
320.555
320.687
320.863
320.919
320.975
320.886
320.791
320.581
320.36
320.187
320.012
319.976
320.04
320.141
312.476
312.301
312.148
312.109
312.195
312.173
312.314
312.411
312.497
312.581
312.529
312.541
312.431
312.343
312.222
312.079
312.082
312.013
312.032
312.138
304.179
304.148
304.107
304.05
304.027
304.13
304.132
304.145
304.179
304.206
304.156
304.185
304.136
304.184
304.177
304.092
304.109
304.087
303.977
304.036
362.264
361.637
361.118
361.036
361.139
361.369
361.873
362.237
362.676
362.946
362.951
362.866
362.557
362.156
361.578
361.069
360.762
360.706
361.027
361.437
353.971
353.417
353.121
352.971
353.096
353.316
353.722
354.036
354.312
354.6
354.658
354.519
354.138
353.775
353.344
352.927
352.629
352.577
352.779
353.245
345.773
345.351
344.955
344.866
344.927
345.118
345.442
345.724
346.05
346.24
346.221
346.107
345.865
345.519
345.115
344.758
344.51
344.51
344.618
344.933
337.386
337.078
336.793
336.764
336.785
337.004
337.249
337.462
337.735
337.813
337.808
337.701
337.448
337.285
336.958
336.616
336.423
336.386
336.478
336.731
329.157
328.926
328.68
328.623
328.609
328.764
328.881
329.088
329.345
329.453
329.413
329.403
329.249
328.962
328.755
328.448
328.324
328.204
328.402
328.572
320.831
320.606
320.507
320.467
320.507
320.58
320.742
320.81
321.021
321.051
320.999
320.983
320.872
320.687
320.525
320.345
320.252
320.144
320.301
320.399
312.507
312.351
312.331
312.407
312.35
312.378
312.442
312.529
312.621
312.7
312.583
312.654
312.482
312.495
312.285
312.139
312.121
312.097
312.173
312.184
304.159
304.107
304.192
304.155
304.181
304.185
304.132
304.158
304.231
304.254
304.181
304.206
304.2
304.153
304.107
304.115
304.118
304.114
304.018
304.135
)
;

boundaryField
{
    hotSide
    {
        type            fixedGradient;
        gradient        nonuniform List<scalar> 
400
(
321.511
322.87
325.591
329.677
335.133
341.965
350.181
359.788
370.794
383.208
397.037
412.289
428.971
447.088
466.647
487.651
510.105
534.011
559.372
586.191
323.738
325.08
327.767
331.802
337.194
343.949
352.078
361.591
372.498
384.81
398.537
413.687
430.268
448.289
467.755
488.672
511.043
534.872
560.161
586.913
326.149
327.47
330.116
334.091
339.406
346.071
354.099
363.503
374.296
386.491
400.101
415.136
431.606
449.52
468.885
489.706
511.988
535.735
560.948
587.63
328.704
330
332.597
336.503
341.73
348.292
356.205
365.485
376.15
388.215
401.695
416.604
432.954
450.753
470.009
490.73
512.919
536.579
561.714
588.325
331.33
332.599
335.142
338.97
344.099
350.546
358.332
367.477
378.003
389.928
403.271
418.047
434.27
451.949
471.095
491.712
513.807
537.382
562.439
588.978
333.918
335.158
337.643
341.389
346.414
352.74
360.392
369.397
379.779
391.562
404.765
419.407
435.503
453.065
472.101
492.618
514.622
538.114
563.096
589.569
336.321
337.531
339.959
343.622
348.544
354.751
362.274
371.142
381.385
393.031
406.101
420.618
436.595
454.047
472.983
493.409
515.33
538.747
563.663
590.076
338.36
339.543
341.92
345.509
350.339
356.44
363.847
372.595
382.718
394.244
407.2
421.608
437.485
454.844
473.695
494.045
515.897
539.253
564.114
590.478
339.852
341.015
343.352
346.885
351.645
357.665
364.985
373.643
383.675
395.113
407.984
422.312
438.116
455.407
474.197
494.491
516.294
539.606
564.428
590.758
340.643
341.795
344.11
347.613
352.334
358.311
365.584
374.193
384.176
395.567
408.393
422.679
438.443
455.699
474.456
494.722
516.498
539.788
564.589
590.901
340.643
341.795
344.11
347.613
352.334
358.311
365.584
374.193
384.176
395.567
408.393
422.679
438.443
455.699
474.456
494.722
516.498
539.788
564.589
590.901
339.852
341.015
343.352
346.885
351.645
357.665
364.985
373.643
383.675
395.113
407.984
422.312
438.116
455.407
474.197
494.491
516.294
539.606
564.428
590.758
338.36
339.543
341.92
345.509
350.339
356.44
363.847
372.595
382.718
394.244
407.2
421.608
437.485
454.844
473.695
494.045
515.897
539.253
564.114
590.478
336.321
337.531
339.959
343.622
348.544
354.751
362.274
371.142
381.385
393.031
406.101
420.618
436.595
454.047
472.983
493.409
515.33
538.747
563.663
590.076
333.918
335.158
337.643
341.389
346.414
352.74
360.392
369.397
379.779
391.562
404.765
419.407
435.503
453.065
472.101
492.618
514.622
538.114
563.096
589.569
331.33
332.599
335.142
338.97
344.099
350.546
358.332
367.477
378.003
389.928
403.271
418.047
434.27
451.949
471.095
491.712
513.807
537.382
562.439
588.978
328.704
330
332.597
336.503
341.73
348.292
356.205
365.485
376.15
388.215
401.695
416.604
432.954
450.753
470.009
490.73
512.919
536.579
561.714
588.325
326.149
327.47
330.116
334.091
339.406
346.071
354.099
363.503
374.296
386.491
400.101
415.136
431.606
449.52
468.885
489.706
511.988
535.735
560.948
587.63
323.738
325.08
327.767
331.802
337.194
343.949
352.078
361.591
372.498
384.81
398.537
413.687
430.268
448.289
467.755
488.672
511.043
534.872
560.161
586.913
321.511
322.87
325.591
329.677
335.133
341.965
350.181
359.788
370.794
383.208
397.037
412.289
428.971
447.088
466.647
487.651
510.105
534.011
559.372
586.191
)
;
    }
    coldSide
    {
        type            mixed;
        refValue        uniform 300;
        refGradient     uniform 0;
        valueFraction   uniform 0.991591;
        source          uniform 0;
        value           nonuniform List<scalar> 
400
(
300.027
300.027
300.027
300.028
300.027
300.028
300.028
300.028
300.029
300.03
300.03
300.03
300.031
300.031
300.033
300.034
300.034
300.035
300.035
300.035
300.027
300.027
300.026
300.026
300.028
300.027
300.028
300.029
300.029
300.03
300.03
300.031
300.031
300.031
300.033
300.033