/*--------------------------------*- C++ -*----------------------------------*\
| =========                 |                                                 |
| \\      /  F ield         | OpenFOAM: The Open Source CFD Toolbox           |
|  \\    /   O peration     | Version:  2212                                  |
|   \\  /    A nd           | Website:  www.openfoam.com                      |
|    \\/     M anipulation  |                                                 |
\*---------------------------------------------------------------------------*/
FoamFile
{
    version     2.0;
    format      ascii;
    arch        "LSB;label=32;scalar=64";
    class       volScalarField;
    location    "./ITHACAoutput/true/1.2";
    object      trueState;
}
// * * * * * * * * * * * * * * * * * * * * * * * * * * * * * * * * * * * * * //

dimensions      [0 0 0 1 0 0 0];

internalField   nonuniform List<scalar> 
3200
(
342.818
343.925
345.338
346.876
348.461
350.016
351.451
352.663
353.546
354.013
354.013
353.546
352.663
351.451
350.016
348.461
346.876
345.338
343.925
342.818
337.196
338.132
339.35
340.681
342.051
343.396
344.636
345.683
346.445
346.848
346.848
346.445
345.683
344.636
343.396
342.051
340.681
339.35
338.132
337.196
331.538
332.315
333.341
334.465
335.623
336.758
337.805
338.688
339.331
339.67
339.67
339.331
338.688
337.805
336.758
335.623
334.465
333.341
332.315
331.538
325.851
326.476
327.312
328.23
329.176
330.104
330.959
331.68
332.204
332.481
332.481
332.204
331.68
330.959
330.104
329.176
328.23
327.312
326.476
325.851
320.139
320.619
321.267
321.98
322.715
323.436
324.1
324.66
325.067
325.281
325.281
325.067
324.66
324.1
323.436
322.715
321.98
321.267
320.619
320.139
314.406
314.746
315.208
315.717
316.242
316.756
317.23
317.63
317.92
318.073
318.073
317.92
317.63
317.23
316.756
316.242
315.717
315.208
314.746
314.406
308.659
308.862
309.139
309.445
309.76
310.069
310.353
310.593
310.767
310.859
310.859
310.767
310.593
310.353
310.069
309.76
309.445
309.139
308.862
308.659
302.904
302.971
303.064
303.167
303.272
303.376
303.471
303.551
303.61
303.64
303.64
303.61
303.551
303.471
303.376
303.272
303.167
303.064
302.971
302.904
342.904
344.002
345.402
346.926
348.495
350.033
351.451
352.648
353.52
353.98
353.98
353.52
352.648
351.451
350.033
348.495
346.926
345.402
344.002
342.904
337.269
338.199
339.406
340.724
342.081
343.411
344.637
345.67
346.423
346.82
346.82
346.423
345.67
344.637
343.411
342.081
340.724
339.406
338.199
337.269
331.601
332.371
333.388
334.501
335.648
336.771
337.806
338.678
339.312
339.647
339.647
339.312
338.678
337.806
336.771
335.648
334.501
333.388
332.371
331.601
325.902
326.522
327.351
328.26
329.197
330.114
330.96
331.671
332.189
332.462
332.462
332.189
331.671
330.96
330.114
329.197
328.26
327.351
326.522
325.902
320.178
320.654
321.297
322.004
322.731
323.444
324.1
324.653
325.055
325.267
325.267
325.055
324.653
324.1
323.444
322.731
322.004
321.297
320.654
320.178
314.434
314.771
315.229
315.734
316.254
316.762
317.231
317.625
317.912
318.063
318.063
317.912
317.625
317.231
316.762
316.254
315.734
315.229
314.771
314.434
308.676
308.877
309.152
309.455
309.767
310.072
310.353
310.59
310.762
310.853
310.853
310.762
310.59
310.353
310.072
309.767
309.455
309.152
308.877
308.676
302.909
302.977
303.069
303.17
303.275
303.377
303.471
303.55
303.608
303.638
303.638
303.608
303.55
303.471
303.377
303.275
303.17
303.069
302.977
302.909
343.076
344.157
345.533
347.029
348.566
350.071
351.456
352.624
353.473
353.921
353.921
353.473
352.624
351.456
350.071
348.566
347.029
345.533
344.157
343.076
337.418
338.333
339.519
340.813
342.143
343.444
344.642
345.65
346.383
346.77
346.77
346.383
345.65
344.642
343.444
342.143
340.813
339.519
338.333
337.418
331.726
332.484
333.484
334.577
335.7
336.799
337.81
338.661
339.28
339.606
339.606
339.28
338.661
337.81
336.799
335.7
334.577
333.484
332.484
331.726
326.004
326.615
327.429
328.322
329.24
330.138
330.963
331.658
332.163
332.429
332.429
332.163
331.658
330.963
330.138
329.24
328.322
327.429
326.615
326.004
320.258
320.726
321.358
322.051
322.765
323.462
324.104
324.643
325.035
325.241
325.241
325.035
324.643
324.104
323.462
322.765
322.051
321.358
320.726
320.258
314.491
314.823
315.273
315.768
316.277
316.775
317.233
317.618
317.898
318.045
318.045
317.898
317.618
317.233
316.775
316.277
315.768
315.273
314.823
314.491
308.71
308.908
309.178
309.475
309.781
310.08
310.355
310.586
310.754
310.842
310.842
310.754
310.586
310.355
310.08
309.781
309.475
309.178
308.908
308.71
302.921
302.987
303.077
303.177
303.279
303.38
303.472
303.549
303.605
303.635
303.635
303.605
303.549
303.472
303.38
303.279
303.177
303.077
302.987
302.921
343.337
344.392
345.734
347.189
348.681
350.137
351.476
352.601
353.418
353.849
353.849
353.418
352.601
351.476
350.137
348.681
347.189
345.734
344.392
343.337
337.643
338.537
339.693
340.952
342.242
343.502
344.659
345.631
346.337
346.709
346.709
346.337
345.631
344.659
343.502
342.242
340.952
339.693
338.537
337.643
331.916
332.657
333.631
334.694
335.784
336.849
337.825
338.646
339.242
339.555
339.555
339.242
338.646
337.825
336.849
335.784
334.694
333.631
332.657
331.916
326.159
326.755
327.55
328.418
329.309
330.179
330.976
331.646
332.132
332.389
332.389
332.132
331.646
330.976
330.179
329.309
328.418
327.55
326.755
326.159
320.378
320.836
321.451
322.126
322.819
323.494
324.114
324.634
325.012
325.21
325.21
325.012
324.634
324.114
323.494
322.819
322.126
321.451
320.836
320.378
314.577
314.901
315.34
315.822
316.316
316.798
317.241
317.612
317.881
318.023
318.023
317.881
317.612
317.241
316.798
316.316
315.822
315.34
314.901
314.577
308.762
308.955
309.218
309.508
309.804
310.094
310.359
310.582
310.744
310.829
310.829
310.744
310.582
310.359
310.094
309.804
309.508
309.218
308.955
308.762
302.938
303.003
303.091
303.188
303.287
303.384
303.473
303.548
303.602
303.63
303.63
303.602
303.548
303.473
303.384
303.287
303.188
303.091
303.003
302.938
343.69
344.713
346.011
347.414
348.847
350.243
351.523
352.595
353.373
353.782
353.782
353.373
352.595
351.523
350.243
348.847
347.414
346.011
344.713
343.69
337.948
338.814
339.933
341.147
342.387
343.595
344.701
345.628
346.299
346.653
346.653
346.299
345.628
344.701
343.595
342.387
341.147
339.933
338.814
337.948
332.173
332.891
333.834
334.859
335.907
336.927
337.861
338.644
339.211
339.509
339.509
339.211
338.644
337.861
336.927
335.907
334.859
333.834
332.891
332.173
326.369
326.947
327.715
328.553
329.41
330.243
331.006
331.645
332.108
332.351
332.351
332.108
331.645
331.006
330.243
329.41
328.553
327.715
326.947
326.369
320.541
320.985
321.58
322.231
322.897
323.545
324.137
324.634
324.993
325.182
325.182
324.993
324.634
324.137
323.545
322.897
322.231
321.58
320.985
320.541
314.693
315.007
315.432
315.897
316.372
316.835
317.258
317.612
317.868
318.003
318.003
317.868
317.612
317.258
316.835
316.372
315.897
315.432
315.007
314.693
308.832
309.019
309.274
309.553
309.838
310.116
310.37
310.582
310.736
310.817
310.817
310.736
310.582
310.37
310.116
309.838
309.553
309.274
309.019
308.832
302.961
303.024
303.109
303.203
303.298
303.391
303.477
303.548
303.599
303.626
303.626
303.599
303.548
303.477
303.391
303.298
303.203
303.109
303.024
302.961
344.139
345.124
346.369
347.711
349.077
350.403
351.613
352.625
353.357
353.741
353.741
353.357
352.625
351.613
350.403
349.077
347.711
346.369
345.124
344.139
338.336
339.17
340.243
341.404
342.586
343.733
344.78
345.655
346.287
346.619
346.619
346.287
345.655
344.78
343.733
342.586
341.404
340.243
339.17
338.336
332.501
333.192
334.096
335.077
336.076
337.045
337.929
338.668
339.201
339.482
339.482
339.201
338.668
337.929
337.045
336.076
335.077
334.096
333.192
332.501
326.636
327.193
327.93
328.731
329.548
330.34
331.062
331.665
332.101
332.33
332.33
332.101
331.665
331.062
330.34
329.548
328.731
327.93
327.193
326.636
320.748
321.175
321.747
322.37
323.005
323.62
324.181
324.65
324.988
325.166
325.166
324.988
324.65
324.181
323.62
323.005
322.37
321.747
321.175
320.748
314.841
315.143
315.551
315.996
316.449
316.888
317.289
317.623
317.865
317.992
317.992
317.865
317.623
317.289
316.888
316.449
315.996
315.551
315.143
314.841
308.92
309.101
309.345
309.612
309.884
310.148
310.388
310.589
310.734
310.81
310.81
310.734
310.589
310.388
310.148
309.884
309.612
309.345
309.101
308.92
302.991
303.051
303.133
303.223
303.314
303.402
303.483
303.55
303.599
303.624
303.624
303.599
303.55
303.483
303.402
303.314
303.223
303.133
303.051
302.991
344.689
345.631
346.817
348.091
349.382
350.629
351.764
352.71
353.392
353.749
353.749
353.392
352.71
351.764
350.629
349.382
348.091
346.817
345.631
344.689
338.811
339.608
340.631
341.733
342.851
343.93
344.912
345.729
346.319
346.628
346.628
346.319
345.729
344.912
343.93
342.851
341.733
340.631
339.608
338.811
332.901
333.562
334.424
335.355
336.3
337.212
338.041
338.732
339.229
339.49
339.49
339.229
338.732
338.041
337.212
336.3
335.355
334.424
333.562
332.901
326.964
327.495
328.198
328.959
329.731
330.477
331.154
331.718
332.125
332.338
332.338
332.125
331.718
331.154
330.477
329.731
328.959
328.198
327.495
326.964
321.003
321.411
321.956
322.547
323.147
323.727
324.253
324.691
325.007
325.173
325.173
325.007
324.691
324.253
323.727
323.147
322.547
321.956
321.411
321.003
315.023
315.312
315.7
316.122
316.551
316.965
317.34
317.653
317.879
317.997
317.997
317.879
317.653
317.34
316.965
316.551
316.122
315.7
315.312
315.023
309.029
309.202
309.435
309.688
309.945
310.194
310.42
310.607
310.743
310.813
310.813
310.743
310.607
310.42
310.194
309.945
309.688
309.435
309.202
309.029
303.028
303.085
303.163
303.248
303.334
303.418
303.493
303.556
303.602
303.625
303.625
303.602
303.556
303.493
303.418
303.334
303.248
303.163
303.085
303.028
345.345
346.24
347.363
348.563
349.774
350.939
351.994
352.87
353.5
353.83
353.83
353.5
352.87
351.994
350.939
349.774
348.563
347.363
346.24
345.345
339.378
340.135
341.103
342.142
343.19
344.199
345.111
345.869
346.414
346.699
346.699
346.414
345.869
345.111
344.199
343.19
342.142
341.103
340.135
339.378
333.38
334.007
334.823
335.701
336.587
337.439
338.211
338.851
339.311
339.551
339.551
339.311
338.851
338.211
337.439
336.587
335.701
334.823
334.007
333.38
327.354
327.859
328.524
329.242
329.966
330.663
331.293
331.816
332.192
332.389
332.389
332.192
331.816
331.293
330.663
329.966
329.242
328.524
327.859
327.354
321.306
321.694
322.209
322.767
323.33
323.872
324.361
324.768
325.06
325.213
325.213
325.06
324.768
324.361
323.872
323.33
322.767
322.209
321.694
321.306
315.239
315.514
315.881
316.279
316.682
317.068
317.418
317.708
317.917
318.026
318.026
317.917
317.708
317.418
317.068
316.682
316.279
315.881
315.514
315.239
309.159
309.323
309.543
309.782
310.024
310.256
310.466
310.64
310.765
310.831
310.831
310.765
310.64
310.466
310.256
310.024
309.782
309.543
309.323
309.159
303.071
303.126
303.2
303.28
303.361
303.439
303.509
303.567
303.609
303.631
303.631
303.609
303.567
303.509
303.439
303.361
303.28
303.2
303.126
303.071
346.112
346.957
348.014
349.137
350.266
351.346
352.319
353.125
353.702
354.004
354.004
353.702
353.125
352.319
351.346
350.266
349.137
348.014
346.957
346.112
340.041
340.756
341.667
342.639
343.616
344.551
345.394
346.091
346.59
346.851
346.851
346.59
346.091
345.394
344.551
343.616
342.639
341.667
340.756
340.041
333.939
334.532
335.3
336.122
336.948
337.738
338.45
339.039
339.461
339.681
339.681
339.461
339.039
338.45
337.738
336.948
336.122
335.3
334.532
333.939
327.811
328.288
328.914
329.586
330.261
330.907
331.489
331.971
332.315
332.495
332.495
332.315
331.971
331.489
330.907
330.261
329.586
328.914
328.288
327.811
321.661
322.027
322.512
323.034
323.559
324.062
324.514
324.888
325.156
325.296
325.296
325.156
324.888
324.514
324.062
323.559
323.034
322.512
322.027
321.661
315.492
315.751
316.097
316.47
316.845
317.204
317.527
317.794
317.986
318.086
318.086
317.986
317.794
317.527
317.204
316.845
316.47
316.097
315.751
315.492
309.311
309.466
309.673
309.897
310.122
310.338
310.532
310.692
310.807
310.867
310.867
310.807
310.692
310.532
310.338
310.122
309.897
309.673
309.466
309.311
303.122
303.174
303.243
303.318
303.394
303.466
303.531
303.585
303.623
303.643
303.643
303.623
303.585
303.531
303.466
303.394
303.318
303.243
303.174
303.122
346.995
347.789
348.778
349.824
350.869
351.864
352.757
353.492
354.018
354.292
354.292
354.018
353.492
352.757
351.864
350.869
349.824
348.778
347.789
346.995
340.804
341.476
342.329
343.234
344.139
345.001
345.774
346.41
346.865
347.102
347.102
346.865
346.41
345.774
345.001
344.139
343.234
342.329
341.476
340.804
334.584
335.141
335.859
336.624
337.389
338.118
338.771
339.309
339.694
339.894
339.894
339.694
339.309
338.771
338.118
337.389
336.624
335.859
335.141
334.584
328.337
328.786
329.371
329.997
330.622
331.218
331.752
332.192
332.506
332.67
332.67
332.506
332.192
331.752
331.218
330.622
329.997
329.371
328.786
328.337
322.069
322.413
322.868
323.354
323.84
324.304
324.719
325.061
325.305
325.432
325.432
325.305
325.061
324.719
324.304
323.84
323.354
322.868
322.413
322.069
315.784
316.028
316.351
316.699
317.046
317.377
317.674
317.918
318.092
318.183
318.183
318.092
317.918
317.674
317.377
317.046
316.699
316.351
316.028
315.784
309.486
309.632
309.826
310.034
310.243
310.442
310.62
310.766
310.871
310.925
310.925
310.871
310.766
310.62
310.442
310.243
310.034
309.826
309.632
309.486
303.181
303.229
303.294
303.364
303.434
303.501
303.56
303.61
303.645
303.663
303.663
303.645
303.61
303.56
303.501
303.434
303.364
303.294
303.229
303.181
348
348.742
349.663
350.632
351.594
352.506
353.321
353.988
354.464
354.712
354.712
354.464
353.988
353.321
352.506
351.594
350.632
349.663
348.742
348
341.673
342.301
343.095
343.933
344.767
345.557
346.262
346.84
347.252
347.466
347.466
347.252
346.84
346.262
345.557
344.767
343.933
343.095
342.301
341.673
335.317
335.838
336.507
337.215
337.921
338.589
339.185
339.673
340.021
340.203
340.203
340.021
339.673
339.185
338.589
337.921
337.215
336.507
335.838
335.317
328.936
329.355
329.901
330.48
331.057
331.603
332.091
332.49
332.775
332.923
332.923
332.775
332.49
332.091
331.603
331.057
330.48
329.901
329.355
328.936
322.535
322.856
323.279
323.73
324.178
324.603
324.982
325.293
325.514
325.629
325.629
325.514
325.293
324.982
324.603
324.178
323.73
323.279
322.856
322.535
316.116
316.344
316.645
316.967
317.287
317.591
317.862
318.084
318.241
318.324
318.324
318.241
318.084
317.862
317.591
317.287
316.967
316.645
316.344
316.116
309.686
309.821
310.002
310.195
310.388
310.57
310.733
310.866
310.961
311.01
311.01
310.961
310.866
310.733
310.57
310.388
310.195
310.002
309.821
309.686
303.248
303.293
303.354
303.418
303.483
303.544
303.598
303.643
303.675
303.691
303.691
303.675
303.643
303.598
303.544
303.483
303.418
303.354
303.293
303.248
349.13
349.822
350.675
351.568
352.451
353.283
354.022
354.626
355.054
355.277
355.277
355.054
354.626
354.022
353.283
352.451
351.568
350.675
349.822
349.13
342.65
343.235
343.971
344.744
345.509
346.23
346.87
347.392
347.764
347.956
347.956
347.764
347.392
346.87
346.23
345.509
344.744
343.971
343.235
342.65
336.142
336.627
337.247
337.901
338.548
339.157
339.699
340.141
340.455
340.618
340.618
340.455
340.141
339.699
339.157
338.548
337.901
337.247
336.627
336.142
329.611
330.001
330.506
331.041
331.57
332.068
332.511
332.873
333.129
333.262
333.262
333.129
332.873
332.511
332.068
331.57
331.041
330.506
330.001
329.611
323.059
323.358
323.75
324.166
324.577
324.965
325.309
325.59
325.79
325.893
325.893
325.79
325.59
325.309
324.965
324.577
324.166
323.75
323.358
323.059
316.49
316.702
316.982
317.278
317.572
317.849
318.095
318.296
318.438
318.513
318.513
318.438
318.296
318.095
317.849
317.572
317.278
316.982
316.702
316.49
309.91
310.037
310.204
310.382
310.559
310.725
310.873
310.993
311.079
311.123
311.123
311.079
310.993
310.873
310.725
310.559
310.382
310.204
310.037
309.91
303.323
303.365
303.421
303.481
303.54
303.596
303.645
303.686
303.714
303.729
303.729
303.714
303.686
303.645
303.596
303.54
303.481
303.421
303.365
303.323
350.391
351.033
351.82
352.641
353.447
354.203
354.871
355.415
355.8
355.999
355.999
355.8
355.415
354.871
354.203
353.447
352.641
351.82
351.033
350.391
343.74
344.283
344.962
345.673
346.371
347.026
347.605
348.076
348.409
348.582
348.582
348.409
348.076
347.605
347.026
346.371
345.673
344.962
344.283
343.74
337.063
337.513
338.085
338.686
339.277
339.831
340.321
340.719
341.001
341.147
341.147
341.001
340.719
340.321
339.831
339.277
338.686
338.085
337.513
337.063
330.363
330.724
331.191
331.682
332.166
332.619
333.02
333.345
333.576
333.695
333.695
333.576
333.345
333.02
332.619
332.166
331.682
331.191
330.724
330.363
323.643
323.92
324.282
324.664
325.04
325.393
325.704
325.958
326.137
326.23
326.23
326.137
325.958
325.704
325.393
325.04
324.664
324.282
323.92
323.643
316.907
317.104
317.362
317.635
317.903
318.155
318.378
318.559
318.687
318.753
318.753
318.687
318.559
318.378
318.155
317.903
317.635
317.362
317.104
316.907
310.16
310.278
310.432
310.596
310.758
310.909
311.043
311.151
311.228
311.268
311.268
311.228
311.151
311.043
310.909
310.758
310.596
310.432
310.278
310.16
303.407
303.446
303.498
303.553
303.607
303.657
303.702
303.739
303.764
303.778
303.778
303.764
303.739
303.702
303.657
303.607
303.553
303.498
303.446
303.407
351.784
352.377
353.102
353.854
354.588
355.273
355.875
356.363
356.708
356.886
356.886
356.708
356.363
355.875
355.273
354.588
353.854
353.102
352.377
351.784
344.945
345.446
346.072
346.722
347.359
347.952
348.474
348.897
349.195
349.35
349.35
349.195
348.897
348.474
347.952
347.359
346.722
346.072
345.446
344.945
338.08
338.496
339.023
339.573
340.112
340.614
341.055
341.413
341.665
341.796
341.796
341.665
341.413
341.055
340.614
340.112
339.573
339.023
338.496
338.08
331.194
331.528
331.958
332.408
332.848
333.259
333.62
333.913
334.119
334.226
334.226
334.119
333.913
333.62
333.259
332.848
332.408
331.958
331.528
331.194
324.288
324.545
324.878
325.228
325.571
325.89
326.171
326.399
326.559
326.642
326.642
326.559
326.399
326.171
325.89
325.571
325.228
324.878
324.545
324.288
317.368
317.55
317.787
318.037
318.282
318.51
318.711
318.874
318.988
319.048
319.048
318.988
318.874
318.711
318.51
318.282
318.037
317.787
317.55
317.368
310.437
310.545
310.688
310.838
310.985
311.122
311.243
311.34
311.409
311.445
311.445
311.409
311.34
311.243
311.122
310.985
310.838
310.688
310.545
310.437
303.499
303.536
303.583
303.634
303.683
303.729
303.769
303.802
303.825
303.837
303.837
303.825
303.802
303.769
303.729
303.683
303.634
303.583
303.536
303.499
353.31
353.858
354.523
355.209
355.877
356.495
357.037
357.474
357.782
357.941
357.941
357.782
357.474
357.037
356.495
355.877
355.209
354.523
353.858
353.31
346.264
346.727
347.301
347.895
348.473
349.01
349.479
349.858
350.125
350.263
350.263
350.125
349.858
349.479
349.01
348.473
347.895
347.301
346.727
346.264
339.194
339.578
340.062
340.564
341.053
341.507
341.904
342.225
342.451
342.567
342.567
342.451
342.225
341.904
341.507
341.053
340.564
340.062
339.578
339.194
332.103
332.412
332.806
333.217
333.618
333.989
334.314
334.576
334.761
334.856
334.856
334.761
334.576
334.314
333.989
333.618
333.217
332.806
332.412
332.103
324.995
325.232
325.538
325.857
326.169
326.458
326.711
326.915
327.058
327.132
327.132
327.058
326.915
326.711
326.458
326.169
325.857
325.538
325.232
324.995
317.873
318.04
318.258
318.487
318.709
318.915
319.096
319.242
319.345
319.398
319.398
319.345
319.242
319.096
318.915
318.709
318.487
318.258
318.04
317.873
310.74
310.84
310.971
311.108
311.241
311.365
311.474
311.561
311.623
311.655
311.655
311.623
311.561
311.474
311.365
311.241
311.108
310.971
310.84
310.74
303.601
303.634
303.678
303.724
303.769
303.81
303.847
303.876
303.897
303.907
303.907
303.897
303.876
303.847
303.81
303.769
303.724
303.678
303.634
303.601
354.965
355.469
356.079
356.704
357.309
357.867
358.354
358.745
359.02
359.161
359.161
359.02
358.745
358.354
357.867
357.309
356.704
356.079
355.469
354.965
347.694
348.12
348.646
349.188
349.712
350.196
350.618
350.957
351.195
351.318
351.318
351.195
350.957
350.618
350.196
349.712
349.188
348.646
348.12
347.694
340.4
340.753
341.197
341.655
342.099
342.508
342.866
343.153
343.354
343.458
343.458
343.354
343.153
342.866
342.508
342.099
341.655
341.197
340.753
340.4
333.088
333.372
333.734
334.108
334.472
334.807
335.099
335.334
335.499
335.584
335.584
335.499
335.334
335.099
334.807
334.472
334.108
333.734
333.372
333.088
325.76
325.978
326.258
326.549
326.832
327.093
327.32
327.503
327.631
327.697
327.697
327.631
327.503
327.32
327.093
326.832
326.549
326.258
325.978
325.76
318.418
318.572
318.772
318.98
319.182
319.369
319.531
319.662
319.753
319.801
319.801
319.753
319.662
319.531
319.369
319.182
318.98
318.772
318.572
318.418
311.067
311.159
311.279
311.404
311.525
311.637
311.735
311.813
311.868
311.897
311.897
311.868
311.813
311.735
311.637
311.525
311.404
311.279
311.159
311.067
303.711
303.741
303.781
303.823
303.864
303.902
303.934
303.961
303.979
303.988
303.988
303.979
303.961
303.934
303.902
303.864
303.823
303.781
303.741
303.711
356.732
357.195
357.753
358.323
358.871
359.375
359.812
360.162
360.407
360.533
360.533
360.407
360.162
359.812
359.375
358.871
358.323
357.753
357.195
356.732
349.217
349.609
350.091
350.584
351.06
351.496
351.875
352.179
352.391
352.501
352.501
352.391
352.179
351.875
351.496
351.06
350.584
350.091
349.609
349.217
341.684
342.009
342.415
342.832
343.235
343.604
343.925
344.182
344.362
344.455
344.455
344.362
344.182
343.925
343.604
343.235
342.832
342.415
342.009
341.684
334.135
334.396
334.727
335.068
335.398
335.7
335.963
336.173
336.32
336.396
336.396
336.32
336.173
335.963
335.7
335.398
335.068
334.727
334.396
334.135
326.571
326.772
327.028
327.294
327.55
327.786
327.99
328.154
328.268
328.327
328.327
328.268
328.154
327.99
327.786
327.55
327.294
327.028
326.772
326.571
318.997
319.138
319.322
319.511
319.695
319.863
320.009
320.126
320.208
320.25
320.25
320.208
320.126
320.009
319.863
319.695
319.511
319.322
319.138
318.997
311.414
311.499
311.609
311.723
311.833
311.934
312.022
312.092
312.141
312.166
312.166
312.141
312.092
312.022
311.934
311.833
311.723
311.609
311.499
311.414
303.827
303.855
303.892
303.93
303.967
304.001
304.03
304.054
304.07
304.079
304.079
304.07
304.054
304.03
304.001
303.967
303.93
303.892
303.855
303.827
358.565
358.991
359.502
360.022
360.52
360.975
361.369
361.683
361.902
362.015
362.015
361.902
361.683
361.369
360.975
360.52
360.022
359.502
358.991
358.565
350.791
351.151
351.593
352.043
352.475
352.87
353.212
353.484
353.674
353.772
353.772
353.674
353.484
353.212
352.87
352.475
352.043
351.593
351.151
350.791
343.004
343.303
343.675
344.057
344.422
344.757
345.046
345.277
345.438
345.521
345.521
345.438
345.277
345.046
344.757
344.422
344.057
343.675
343.303
343.004
335.207
335.447
335.751
336.063
336.362
336.636
336.873
337.062
337.194
337.262
337.262
337.194
337.062
336.873
336.636
336.362
336.063
335.751
335.447
335.207
327.4
327.585
327.82
328.063
328.296
328.51
328.694
328.841
328.944
328.997
328.997
328.944
328.841
328.694
328.51
328.296
328.063
327.82
327.585
327.4
319.586
319.717
319.885
320.059
320.225
320.378
320.51
320.615
320.688
320.726
320.726
320.688
320.615
320.51
320.378
320.225
320.059
319.885
319.717
319.586
311.767
311.845
311.946
312.05
312.15
312.242
312.321
312.384
312.429
312.451
312.451
312.429
312.384
312.321
312.242
312.15
312.05
311.946
311.845
311.767
303.945
303.971
304.005
304.04
304.073
304.104
304.131
304.152
304.167
304.174
304.174
304.167
304.152
304.131
304.104
304.073
304.04
304.005
303.971
303.945
360.344
360.738
361.21
361.687
362.142
362.557
362.914
363.199
363.397
363.498
363.498
363.397
363.199
362.914
362.557
362.142
361.687
361.21
360.738
360.344
352.3
352.633
353.041
353.455
353.851
354.211
354.522
354.769
354.941
355.029
355.029
354.941
354.769
354.522
354.211
353.851
353.455
353.041
352.633
352.3
344.256
344.533
344.877
345.228
345.564
345.869
346.133
346.342
346.488
346.563
346.563
346.488
346.342
346.133
345.869
345.564
345.228
344.877
344.533
344.256
336.214
336.437
336.718
337.006
337.281
337.531
337.747
337.919
338.039
338.1
338.1
338.039
337.919
337.747
337.531
337.281
337.006
336.718
336.437
336.214
328.174
328.345
328.563
328.787
329.001
329.196
329.364
329.498
329.592
329.639
329.639
329.592
329.498
329.364
329.196
329.001
328.787
328.563
328.345
328.174
320.133
320.254
320.41
320.57
320.723
320.863
320.984
321.079
321.146
321.18
321.18
321.146
321.079
320.984
320.863
320.723
320.57
320.41
320.254
320.133
312.093
312.166
312.259
312.355
312.448
312.531
312.604
312.661
312.702
312.722
312.722
312.702
312.661
312.604
312.531
312.448
312.355
312.259
312.166
312.093
304.054
304.078
304.109
304.142
304.172
304.201
304.225
304.244
304.258
304.265
304.265
304.258
304.244
304.225
304.201
304.172
304.142
304.109
304.078
304.054
361.751
362.121
362.565
363.013
363.439
363.826
364.158
364.422
364.605
364.699
364.699
364.605
364.422
364.158
363.826
363.439
363.013
362.565
362.121
361.751
353.447
353.761
354.146
354.536
354.907
355.244
355.534
355.764
355.924
356.006
356.006
355.924
355.764
355.534
355.244
354.907
354.536
354.146
353.761
353.447
345.179
345.44
345.766
346.097
346.413
346.699
346.946
347.142
347.278
347.348
347.348
347.278
347.142
346.946
346.699
346.413
346.097
345.766
345.44
345.179
336.938
337.149
337.415
337.687
337.947
338.182
338.385
338.546
338.657
338.715
338.715
338.657
338.546
338.385
338.182
337.947
337.687
337.415
337.149
336.938
328.719
328.881
329.088
329.3
329.502
329.686
329.844
329.969
330.057
330.102
330.102
330.057
329.969
329.844
329.686
329.502
329.3
329.088
328.881
328.719
320.513
320.628
320.776
320.928
321.073
321.204
321.318
321.408
321.47
321.502
321.502
321.47
321.408
321.318
321.204
321.073
320.928
320.776
320.628
320.513
312.318
312.387
312.476
312.567
312.654
312.733
312.801
312.855
312.893
312.912
312.912
312.893
312.855
312.801
312.733
312.654
312.567
312.476
312.387
312.318
304.129
304.152
304.181
304.212
304.241
304.268
304.291
304.309
304.321
304.328
304.328
304.321
304.309
304.291
304.268
304.241
304.212
304.181
304.152
304.129
)
;

boundaryField
{
    hotSide
    {
        type            fixedGradient;
        gradient        nonuniform List<scalar> 
400
(
446.758
447.703
449.607
452.491
456.388
461.34
467.394
474.601
483.015
492.689
503.674
516.019
529.769
544.963
561.638
579.822
599.54
620.814
643.659
668.088
461.358
462.188
463.864
466.418
469.892
474.342
479.829
486.421
494.185
503.191
513.502
525.177
538.272
552.833
568.901
586.51
605.688
626.456
648.83
672.824
477.158
477.851
479.257
481.417
484.391
488.25
493.074
498.951
505.967
514.208
523.753
534.676
547.04
560.9
576.304
593.289
611.883
632.11
653.986
677.522
493.898
494.429
495.521
497.227
499.623
502.803
506.872
511.938
518.114
525.503
534.202
544.3
555.871
568.978
583.673
599.997
617.981
637.646
659.008
682.074
511.108
511.459
512.197
513.394
515.147
517.575
520.812
524.994
530.258
536.731
544.529
553.755
564.496
576.821
590.787
606.438
623.803
642.904
663.753
686.356
528.071
528.229
528.59
529.244
530.315
531.951
534.316
537.577
541.9
547.435
554.318
562.667
572.579
584.13
597.381
612.376
629.144
647.704
668.065
690.229
543.817
543.781
543.766
543.881
544.277
545.132
546.644
549.011
552.426
557.063
563.078
570.6
579.736
590.569
603.162
617.556
633.782
651.854
671.778
693.552
557.18
556.97
556.617
556.248
556.039
556.2
556.956
558.536
561.156
565.013
570.277
577.091
585.567
595.792
607.83
621.724
637.499
655.168
674.733
696.187
566.96
566.616
566.004
565.265
564.596
564.23
564.416
565.404
567.43
570.707
575.415
581.706
589.699
599.481
611.118
624.65
640.101
657.482
676.79
698.018
572.142
571.725
570.972
570.032
569.114
568.462
568.34
569.009
570.716
573.682
578.094
584.108
591.844
601.393
612.818
626.16
641.442
658.671
677.847
698.956
572.142
571.725
570.972
570.032
569.114
568.462
568.34
569.009
570.716
573.682
578.094
584.108
591.844
601.393
612.818
626.16
641.442
658.671
677.847
698.956
566.96
566.616
566.004
565.265
564.596
564.23
564.416
565.404
567.43
570.707
575.415
581.706
589.699
599.481
611.118
624.65
640.101
657.482
676.79
698.018
557.18
556.97
556.617
556.248
556.039
556.2
556.956
558.536
561.156
565.013
570.277
577.091
585.567
595.792
607.83
621.724
637.499
655.168
674.733
696.187
543.817
543.781
543.766
543.881
544.277
545.132
546.644
549.011
552.426
557.063
563.078
570.6
579.736
590.569
603.162
617.556
633.782
651.854
671.778
693.552
528.071
528.229
528.59
529.244
530.315
531.951
534.316
537.577
541.9
547.435
554.318
562.667
572.579
584.13
597.381
612.376
629.144
647.704
668.065
690.229
511.108
511.459
512.197
513.394
515.147
517.575
520.812
524.994
530.258
536.731
544.529
553.755
564.496
576.821
590.787
606.438
623.803
642.904
663.753
686.356
493.898
494.429
495.521
497.227
499.623
502.803
506.872
511.938
518.114
525.503
534.202
544.3
555.871
568.978
583.673
599.997
617.981
637.646
659.008
682.074
477.158
477.851
479.257
481.417
484.391
488.25
493.074
498.951
505.967
514.208
523.753
534.676
547.04
560.9
576.304
593.289
611.883
632.11
653.986
677.522
461.358
462.188
463.864
466.418
469.892
474.342
479.829
486.421
494.185
503.191
513.502
525.177
538.272
552.833
568.901
586.51
605.688
626.456
648.83
672.824
446.758
447.703
449.607
452.491
456.388
461.34
467.394
474.601
483.015
492.689
503.674
516.019
529.769
544.963
561.638
579.822
599.54
620.814
643.659
668.088
)
;
    }
    coldSide
    {
        type            mixed;
        refValue        uniform 300;
        refGradient     uniform 0;
        valueFraction   uniform 0.991591;
        source          uniform 0;
        value           nonuniform List<scalar> 
400
(
300.024
300.024
300.025
300.025
300.025
300.025
300.025
300.026
300.026
300.027
300.027
300.028
300.029
300.029
300.03
300.031
300.032
300.033
300.034
300.035
300.025
300.025
300.025
300.025
300.025
300.026
300.026
300.026
300.027
300.027
300.028
300.028
300.029
300.03