/*--------------------------------*- C++ -*----------------------------------*\
| =========                 |                                                 |
| \\      /  F ield         | OpenFOAM: The Open Source CFD Toolbox           |
|  \\    /   O peration     | Version:  2212                                  |
|   \\  /    A nd           | Website:  www.openfoam.com                      |
|    \\/     M anipulation  |                                                 |
\*---------------------------------------------------------------------------*/
FoamFile
{
    version     2.0;
    format      ascii;
    arch        "LSB;label=32;scalar=64";
    class       volScalarField;
    location    "./ITHACAoutput/true/1.8";
    object      error;
}
// * * * * * * * * * * * * * * * * * * * * * * * * * * * * * * * * * * * * * //

dimensions      [0 0 0 1 0 0 0];

internalField   nonuniform List<scalar> 
3200
(
-4.76321
-2.00139
0.617738
1.11763
1.38143
4.4641
5.00463
3.09845
6.29093
4.19932
5.2296
4.13607
4.72389
4.56065
3.1467
3.83485
3.24782
2.83412
0.771346
-0.975768
-3.90541
-2.27143
1.7061
-0.185079
0.144617
3.5392
3.26351
4.67428
2.80472
5.03129
2.28382
4.04118
2.45946
3.83754
4.39141
2.72647
0.445022
-1.39403
0.415693
-2.61029
-2.68958
-0.799615
-0.525054
0.526715
1.2967
3.79514
4.84804
1.80159
4.78628
4.20315
2.99417
5.82859
3.87735
2.48387
2.48598
2.12783
0.558111
2.54927
-0.698328
-2.60555
-2.74037
-2.46783
1.83211
-0.379503
1.0956
2.10286
2.66367
2.45726
2.44934
0.885284
0.810318
2.90502
1.35967
4.02837
1.251
3.06971
-1.36023
-0.494661
0.958727
-1.0856
-3.24597
-0.849978
0.40235
-1.57495
-1.01892
0.217458
3.67247
3.60891
0.426236
4.51292
1.65511
3.4837
1.56658
1.26352
0.613271
2.11474
0.45284
-0.541432
-1.74652
-1.37274
-0.61204
-0.259864
-0.753942
-1.19624
-0.611177
0.345521
2.70425
1.33997
0.756087
0.777832
-0.341227
0.183922
2.31448
2.18796
2.34179
-0.478255
-0.0191403
0.942627
0.950041
-2.16894
-3.00182
-0.491337
-0.00132792
0.911041
-1.10421
0.290682
0.0828335
0.261497
-0.140585
0.668126
-0.63024
0.84707
-0.630578
0.265388
0.79454
-0.0407977
-0.0516279
0.36945
3.23298
-2.09248
-0.972742
-0.446543
-0.432823
-0.503546
-0.74263
0.410356
0.737784
-0.56918
0.111324
-0.334082
1.10685
-1.61924
0.758614
1.01864
1.24432
-1.18041
0.346288
0.435691
2.5342
-0.467694
-3.9923
-0.823289
0.826461
1.2877
4.36967
2.86519
2.97528
3.47253
3.58843
6.25253
4.61251
2.94406
4.15011
3.74909
2.84951
2.02701
0.638108
-1.45683
-1.05845
-6.12066
-3.89558
-0.0194474
0.753502
0.145812
2.18273
0.651393
2.52021
-0.186802
5.02527
0.562394
0.63699
3.45366
0.195829
3.34401
-0.160609
0.444574
0.191355
0.316476
-0.00113452
-2.37829
-2.6723
-2.65031
-0.405883
0.0689534
2.01488
4.01393
3.41695
3.70643
3.25631
4.76981
2.82105
1.17603
1.66159
4.57722
2.6774
0.992397
2.50205
1.16148
-2.4643
-3.80971
-1.14528
-0.485485
-0.0956234
0.637524
-1.02837
2.82405
1.08455
6.00711
3.61187
1.38697
2.28497
1.45111
4.39064
2.40524
-0.869183
0.540013
1.3791
-1.02345
-1.93318
-1.91169
-0.446895
-3.17134
-0.308369
1.13937
-0.423661
1.7742
1.3672
1.61401
3.55373
2.75345
2.5265
0.929883
1.34462
0.901782
1.01082
0.698545
1.96582
-2.21513
1.28496
-3.2787
-1.11573
-1.23395
0.350523
0.391648
-1.08594
-0.328676
-0.764884
1.88562
0.610363
1.07856
1.51703
2.21845
2.42754
0.454256
1.19004
1.17541
2.55783
-1.08145
-2.91689
-1.45579
-0.428441
0.681809
-0.426986
-0.176201
1.22321
-1.6012
1.07523
0.543313
4.00439
2.35173
1.13805
0.584992
0.409723
0.196171
2.69112
-1.15729
-0.0144177
1.59103
-1.55991
0.692924
0.715406
0.76974
0.929556
-0.757542
0.610657
0.131412
0.22921
0.613974
-1.12043
0.143614
0.125161
0.996187
0.336261
-0.221492
-0.470459
1.66998
1.65279
-0.561305
-0.535065
0.380555
-5.3826
-2.06862
-0.0469014
-0.677256
2.14237
1.76643
2.29754
5.55729
4.18743
4.21626
3.56209
2.06649
2.41195
2.5431
0.33598
1.53871
2.46676
-1.15331
0.397903
-3.80084
-1.70442
-1.64491
-0.690954
1.36615
2.57491
1.18766
3.87534
2.45704
4.25274
1.11385
1.42343
3.08365
3.14931
1.29716
1.88626
2.13229
-0.0287938
-1.37975
0.159709
-2.9806
-5.02047
-4.15674
0.367667
-0.431743
1.11338
0.951308
1.39695
3.04617
1.81664
2.24933
2.20469
2.81048
2.41974
1.75989
1.37985
1.91079
0.139018
-0.0851126
-2.80424
-1.79706
-1.96171
-2.53635
-0.830183
0.220838
0.912966
2.75737
1.82636
4.51674
2.34201
1.10688
0.080805
2.35366
-0.364841
0.00810557
3.23073
1.96948
0.0402458
-1.78412
-0.719693
-0.9125
-0.129382
0.177486
-0.949379
-0.69665
-0.626053
1.32958
3.85976
-0.335152
1.29166
0.549105
0.234195
0.513416
1.28665
0.533244
3.06644
1.31415
-1.45052
2.83258
2.32695
-2.41468
-1.81816
-3.4575
-1.22805
1.1416
3.48074
1.26142
3.23071
0.530237
0.988555
1.80996
0.630401
2.10137
1.66815
-0.739493
-0.615185
0.586244
-2.442
-1.02123
0.449574
0.283463
-1.79788
-1.50177
0.00235116
-0.055912
1.67465
0.916641
1.08609
1.2451
1.28291
1.67454
-0.152052
1.57636
-0.536281
-1.14454
2.02622
1.01082
2.36161
-0.886181
0.145492
-0.0454228
1.52124
0.0402301
-1.77623
0.969883
-1.0329
-1.38771
1.27514
-0.561439
1.45228
-0.781385
0.537454
-2.00269
0.118332
-2.56646
0.449397
-2.15384
0.043146
0.226986
-1.71793
-0.567526
-4.94906
-2.72391
-1.4963
1.01025
2.2811
2.85083
2.36746
3.5154
2.78989
1.56999
3.80535
3.07993
2.73683
1.74541
2.2778
1.63547
0.35736
0.458769
-2.23544
-2.83514
-1.99763
-1.14195
-0.143784
0.639042
3.2426
-0.286743
3.74015
0.090213
2.17405
0.367048
-0.247292
0.866698
0.104158
2.49234
0.445942
1.56702
-0.0266042
0.141123
-0.133326
-0.589042
-1.53157
-1.83743
-1.72137
-0.0983605
0.15518
0.758778
2.35662
1.92831
1.19362
1.43586
1.44451
0.455676
0.923903
1.89634
2.60987
1.55712
0.801813
-1.27713
-0.305954
-3.7305
-2.25672
-1.48962
-1.37715
-0.012941
-0.0135049
1.41416
0.914217
-0.743454
1.04039
1.93322
0.684325
-0.480026
1.45361
1.81943
-0.430274
-0.580455
1.00305
0.371333
0.570564
-3.77928
-1.66431
-1.9142
0.990048
-1.92736
1.96562
0.186273
1.77949
0.710493
2.25499
-0.111386
-0.187286
0.42344
1.32704
0.167367
-0.843045
0.5848
0.827979
-0.274131
-0.260212
-0.421578
-1.0261
1.07946
0.279134
-0.725212
1.27385
2.21946
0.717521
4.00397
-1.22421
2.09654
1.15803
0.801157
-0.280769
1.85389
1.00886
1.8612
-1.13726
1.34692
-1.14162
-4.31328
-3.15114
-2.8193
-1.18358
0.661281
-0.123899
0.30937
0.645391
2.01213
0.131677
0.391163
0.537397
-0.242603
1.20459
0.669742
-0.9928
0.502285
-0.481214
-0.265562
-0.167503
-0.788408
-0.819849
-1.75536
-0.523608
1.97746
0.223944
1.29341
1.06484
1.44197
-0.0551804
1.45675
-0.964818
1.97873
-0.319067
-0.607719
0.402591
-0.25166
2.45177
1.71884
0.272136
1.34893
-2.87421
-3.72353
-1.04
1.01403
0.910454
2.67815
3.17033
1.6532
3.12123
3.64335
0.512154
4.0818
1.4181
-0.785961
3.67968
-0.0918241
-0.981321
0.873671
-1.90624
-2.91
-4.04496
-2.19965
-1.46167
1.77746
1.33686
-0.310351
2.08059
3.83497
-0.646506
-0.190263
0.851149
0.0403234
0.935598
-0.476418
-0.0321072
1.3001
0.399397
0.507078
-1.84879
-2.30809
-1.07817
-4.29801
-0.804577
0.741852
1.85226
1.5502
1.6226
3.47081
0.442601
-0.503037
-0.205496
-0.384628
0.789337
-0.648359
0.346534
1.14647
0.679957
0.448581
-1.31776
-2.69345
-0.654149
-1.83196
-1.2684
0.943264
0.985531
0.786703
2.07697
-0.984666
2.09794
1.13061
0.476396
-0.278812
1.27018
0.942358
-0.60534
-0.723537
2.04564
0.832607
-0.832372
-3.12178
-0.380446
-2.42484
-2.56537
0.661225
2.09275
2.34404
2.97137
-2.37537
0.589604
0.0891965
-0.883149
0.852724
2.31928
-0.995385
1.58203
-1.03741
0.0430256
0.888436
1.60432
-0.917609
-1.07757
0.286496
-0.107776
1.92785
-0.807249
-0.218411
0.196116
-1.20171
-2.37057
2.20166
1.23848
1.7811
0.492693
3.09053
-0.355469
0.501504
0.461929
-1.38429
1.50582
1.2007
-1.20508
-0.839508
1.94757
3.34565
0.544273
1.66638
-1.58038
0.184667
2.1286
2.87843
0.595249
0.365171
0.24784
1.86681
0.419016
-0.434766
0.841687
1.97571
0.0786955
-0.679928
-1.7136
-1.27931
0.103247
1.62407
3.78617
-1.00132
1.82656
0.11523
0.93652
-1.1537
-1.00261
0.129198
1.07866
-1.19088
2.18769
-0.464722
-1.08206
-2.33077
-0.315844
-0.29238
-3.78671
-2.19224
-3.04042
-0.714639
1.21619
2.41984
0.769124
3.29878
0.27765
1.20145
1.02591
2.12849
0.933807
2.74656
1.56178
0.0942237
-1.91621
-2.21555
-1.52027
-2.44771
-3.75279
-0.679082
-0.648717
0.0663264
0.336344
0.589453
-0.441674
0.375628
0.886116
0.262042
0.020998
0.938763
0.181298
0.212991
0.0193165
1.39713
-0.626805
-2.24499
0.186673
-3.63661
-3.14097
-2.21212
0.860683
-0.198474
1.84146
-1.04361
-0.0122914
-0.14682
1.97032
0.228844
0.877598
-1.67408
1.58718
-0.191215
0.00640186
-0.740861
0.994322
-1.79055
0.63065
-2.01807
-2.55707
-1.73413
-0.989794
0.327442
1.15388
1.42868
-1.65231
2.11154
-0.321715
-0.275606
-0.473886
1.88153
-0.850209
0.988613
1.65375
2.17523
-2.19252
0.0337254
0.134677
-1.39053
-3.34401
-1.68688
-0.184347
0.190705
-0.115429
0.437744
0.741924
-0.595783
0.62125
-0.603262
-0.556973
1.77772
-0.886491
1.63547
0.125809
0.118892
-0.248049
-0.139249
-0.893082
-0.866931
-1.73754
-0.674523
0.518634
-1.10641
1.12113
3.07922
-0.462995
-1.75218
-0.702162
-1.3313
-2.68042
0.392536
-1.02628
-1.11732
1.5033
-0.205965
1.57151
-1.20445
0.883033
-0.732606
-1.28864
1.79186
-1.96652
-1.78839
2.30914
1.50065
-1.58077
-0.5477
-1.52993
1.03317
0.579308
1.35017
-1.35166
0.153484
-2.26722
-0.164474
-0.00974837
1.06135
0.172817
-1.1462
-0.00445804
0.444325
1.41493
1.34981
-1.0958
1.68784
0.337732
0.458927
0.164227
2.39749
-0.79851
0.800874
0.585842
1.22075
-1.53142
0.634725
0.303075
-0.0114531
-0.0109938
0.83037
-4.6744
-2.90518
-2.45804
1.25739
-1.12668
1.24871
0.905212
1.7164
-0.320344
-0.472873
1.14737
-1.34837
-1.49136
-0.37562
-0.00670989
-0.262169
-0.116718
-2.01408
-2.75269
-3.80014
-4.18892
-1.92853
-0.576517
-0.605428
1.87744
0.306379
1.43768
0.0549266
-0.939893
-0.750601
-1.3225
1.42399
2.04452
-2.52888
0.52169
0.345592
-0.151068
-0.959204
-0.494072
-2.9263
-1.68695
-2.81684
-0.191331
-0.437151
1.03313
1.80587
0.826772
2.65873
1.09324
-2.95999
-0.648542
0.376702
1.27991
0.773904
-1.16531
2.30866
-0.727344
-1.37221
-0.0548038
-4.30468
-3.90913
-1.75515
-2.01884
-0.937052
1.35467
-0.299726
-1.53974
-0.70943
-0.192563
0.396211
-1.47166
-1.61437
-0.446652
-0.31113
0.228167
-0.951899
-0.678456
-1.18826
-1.88827
-1.03407
-0.748823
-1.14103
0.0645804
-1.41038
0.672653
1.67906
0.0719618
2.93548
0.892967
1.69376
-0.419246
0.31771
-0.163746
0.830021
-0.012834
2.40523
-0.307193
-0.413918
-2.69587
-0.438103
-1.42529
-1.32628
0.557754
-0.0728695
2.49945
3.06167
-0.333632
-0.180112
2.42408
-1.04081
-1.19636
-2.59405
1.00685
0.75617
-1.08739
-0.401313
-0.596963
-0.54841
0.754696
-1.11964
-1.503
0.48887
1.04637
1.63302
-1.51113
-0.190468
2.17518
1.86178
-2.12874
-1.89095
0.635265
-1.45462
0.946525
-1.55635
1.78097
1.82678
0.390678
-0.415211
-1.72961
-0.702271
-0.265666
0.366266
-0.668749
-2.3706
-0.892146
0.667795
0.911722
0.421429
-0.00358889
-2.21028
-0.971574
1.27381
2.01469
-0.0300664
2.03684
0.566748
0.191843
1.03375
1.2142
0.269999
-4.08077
-0.844736
-1.51195
-0.45081
3.20839
-0.335569
1.88024
0.147443
-2.25238
-2.10232
-4.13342
-1.50655
-2.37506
-2.58558
-0.598834
-0.945599
-0.252064
-1.70073
-2.2028
-4.33101
-1.47106
-1.03063
-0.563685
0.292801
0.82131
0.648454
-1.60231
0.483356
1.55274
-0.408673
0.318311
-1.60364
0.0922673
-2.76835
-0.14743
-0.520929
-0.168939
-2.45049
0.469742
-3.83984
-1.70811
-2.36737
-0.00506755
-0.622345
-0.572737
1.44902
0.882135
1.3133
-0.326077
0.990616
-0.330119
0.754829
-1.95577
-0.66258
0.455933
0.692252
-2.7815
-0.200732
-1.91539
-3.13003
-0.57661
0.0372601
-3.89488
-2.24167
-0.522375
-0.614076
-1.1696
-1.65662
0.235245
0.521278
-0.649867
-2.39804
-1.49697
-1.36367
0.675919
0.119413
-0.863688
-0.492261
-2.55367
-2.16889
-1.94501
-1.60903
-0.924213
-0.571728
0.069618
-0.364882
0.17443
0.692986
0.851047
0.212271
0.453265
-0.198912
1.70903
-0.135577
-0.390609
-0.287932
-2.98924
0.208578
-2.14001
-0.694427
-4.08727
-0.526456
0.105733
-2.1817
0.856584
-1.18399
0.417009
-1.04079
1.83091
-0.245706
-0.263731
-0.996651
1.77528
-1.42297
-0.138606
2.21857
0.163376
0.919153
-1.16766
-2.76133
-2.93418
-1.00365
-1.02167
0.391621
0.834842
1.09144
0.919094
0.806068
-0.161059
-0.25739
-0.048898
-4.16715
-1.43234
0.774371
1.04352
-1.32847
-0.338473
0.0906939
0.308158
-1.72887
-0.0720907
-1.76307
0.516618
0.398703
0.265774
1.06969
0.904582
-0.16985
0.768167
0.218058
-1.53917
-2.19976
0.41924
0.416955
-0.169207
-0.0842811
-0.603405
-0.207017
-1.16841
1.83577
-4.52347
-2.22255
-1.19355
-2.75953
1.22264
0.942602
-2.66685
-1.47642
-0.126338
-2.64258
0.61887
-2.68083
-1.26524
-0.392743
-2.05738
-0.617822
-0.874113
-0.899175
-1.3068
-3.02104
-3.31558
-2.31705
-0.0459349
0.793711
-1.07933
-0.177113
0.779311
-1.1863
-1.70536
-2.37442
-2.69509
-2.41738
-3.04627
-3.54043
-2.27678
0.921643
2.64669
-2.42281
-3.3813
-4.71349
-0.950389
-2.21004
-1.61565
0.0555523
1.71075
-0.968429
-0.0411554
-0.28775
0.522306
0.573464
0.533535
-1.34843
-1.8979
2.33409
-0.134652
0.816192
-2.35901
0.329209
-3.25495
-2.76008
-0.859998
-2.20639
-2.28544
0.228946
0.910222
-1.49233
2.20667
0.0794948
-1.34325
-2.09901
-0.767181
-2.62158
0.506801
0.930691
-0.746361
-2.48463
-0.406627
-1.07078
-3.78896
-1.97684
-2.31495
1.68837
-2.35483
-1.25088
-1.15545
-1.42427
-1.45832
0.568238
-1.89229
0.371604
-2.59142
-1.25426
1.16181
-0.203897
-1.45398
-1.13397
0.348757
-0.818991
-0.970338
-2.68973
-2.28403
1.04449
-1.20308
-1.55775
-0.248068
-1.65721
-1.53009
-1.4021
1.82575
-1.70281
0.704907
-1.69913
0.5893
0.163787
0.140493
0.559371
-0.142935
0.856225
0.50916
0.51041
1.2449
0.338347
0.530001
-0.187569
-0.667056
1.39886
1.13826
1.77639
-0.717647
0.56238
1.00093
-0.334702
-0.404145
-1.04561
-0.798164
-1.9253
1.08999
1.29015
0.14149
-1.16301
0.110181
0.116537
1.07007
-0.217343
0.97044
-0.0335979
0.168812
-0.357891
-0.430944
-1.23442
0.0306653
1.16564
1.4843
-0.0444516
-0.0819605
-0.317763
0.844866
1.98786
-0.072195
0.610952
-5.09802
-5.10647
-2.9364
-1.14963
-1.26874
-0.167654
-2.49966
-3.07545
0.0642624
-0.218684
-3.2044
-1.69728
-3.84374
-1.08625
-1.84444
-0.886363
-3.12219
-0.929985
-2.82286
-3.11678
-1.26059
-0.0282684
-0.68798
0.31365
1.0702
-0.0347534
1.38308
0.0920505
-0.738608
-0.933027
0.122932
-3.74681
0.368686
-0.641836
0.209026
0.0939029
0.143952
-2.42702
-0.278643
-2.9556
-4.52813
0.665507
0.134608
1.50145
-2.67187
-0.160778
-1.12597
0.890398
0.5186
1.95099
-1.4373
-0.997175
-3.74668
-0.0356595
-1.11636
-0.662903
-2.07589
0.882159
-3.43812
-0.99381
-2.57206
-1.44157
-0.817592
-2.09044
-0.266843
-0.686122
-0.167115
0.450058
-1.68957
-0.397481
-1.51245
-1.758
-0.389821
-0.610066
-0.404299
-0.489714
-1.01916
-1.41478
-1.98396
-1.624
0.33597
-2.3043
0.136363
-2.14745
-0.50091
1.04392
-0.162369
-0.698134
-3.58207
-1.05174
-1.69685
-0.342555
-0.906757
-3.88352
-1.18096
-1.00879
-0.504881
-0.0885648
0.396691
-2.59032
-3.41034
-1.43205
1.25791
0.525248
-0.140187
-3.33296
1.9204
1.3846
-0.339616
0.096194
0.519266
-0.103384
0.339599
-1.14192
0.170778
-0.667349
-0.889125
-1.30531
-2.92972
-0.198364
1.3053
-1.30744
0.661403
-0.41367
1.03662
0.183525
-1.57899
-0.185001
-0.935035
0.396752
-0.625712
1.01396
-3.42504
-1.34845
0.686638
0.861938
-1.63213
1.90374
-0.0662627
0.520676
-0.430389
1.46512
-1.57926
-0.866262
0.865117
0.913438
-1.92439
-0.67661
-1.39856
2.94738
1.22696
0.343194
0.245053
-0.296467
0.5073
-2.27637
0.466964
-1.12091
-1.32974
-0.0932669
-2.03098
-4.39399
-0.955285
-0.439645
0.250505
0.780095
-0.770602
-3.39534
-1.1616
-1.78615
-4.02566
-3.47441
-2.05618
-1.17535
-1.70594
-0.554629
-3.52279
-1.05142
-0.710324
-3.06617
-5.04008
0.282678
-0.490653
0.250574
0.525347
-0.0503463
-0.316673
0.122203
-1.40718
-0.125671
0.409947
-1.55318
-0.65036
-4.0983
0.338728
-1.64467
0.438534
-0.581301
0.122529
-2.87957
-3.64338
-2.57782
-1.74363
-0.303276
-0.160163
0.0612572
-2.00875
-0.611983
0.632654
-1.62897
-0.81481
-1.34664
-3.36874
-1.41277
-1.55341
-4.00029
-1.80812
-0.695494
-1.3288
-2.76045
-2.493
-1.93923
-1.6772
-0.505032
0.525885
-0.662016
1.28299
-0.0103629
-1.05635
-0.0794172
-2.63963
-0.509987
-1.70553
-0.258546
0.703075
0.398669
1.57144
-2.12601
0.302759
-4.10965
-1.20034
-3.48508
-0.18579
-1.68128
-1.26803
1.5356
-0.042767
-1.09769
0.432689
-0.52912
-0.843317
-1.39624
-2.4136
-1.49223
0.186887
-0.744389
-1.40253
-2.14764
-0.829379
-1.75432
-1.10849
-2.61405
-0.64689
-2.08023
-0.440639
-0.750331
1.87389
1.4015
-0.807802
0.623717
-3.61724
-1.88589
-1.80554
0.0750781
-2.44714
-0.984718
-0.157712
-1.0732
0.328408
-2.04548
-0.442421
0.597903
0.693377
-0.0265716
1.00223
-2.72777
0.0813309
-1.79445
0.0619477
0.311504
-0.789626
-1.07429
-0.547923
0.208986
-0.51146
0.706595
-0.0618933
-0.952871
-0.557547
1.91986
-1.20537
-0.224197
-2.0645
0.834374
0.587404
1.56898
0.630366
1.23665
-1.17322
-0.309028
-1.24877
0.164342
0.312512
0.40784
0.925496
-1.2561
-0.761466
1.02176
0.213169
-1.44637
-4.16184
-3.94919
-0.304582
0.348876
-0.648789
0.250614
-0.869482
-0.78437
-2.04185
-0.861945
-1.92953
-4.45393
-2.03484
-1.27853
-1.48653
-0.660902
-2.76456
-0.638209
-3.54992
-4.64707
-2.89867
-1.12847
0.629506
0.863432
-1.0412
0.0605572
-2.94988
-0.997559
-0.778707
-1.943
-1.72129
-1.67944
-2.07298
-0.472109
-2.55289
-1.93777
-0.40423
-1.32848
-0.851451
-3.8512
-3.43738
-3.71106
1.10697
-0.838395
1.17919
1.10223
-2.13948
-1.02439
-1.39295
0.469952
-1.13982
-1.50045
-1.76173
-2.77983
-2.18475
0.88877
0.879642
-1.88404
-1.41976
-0.22483
-2.12721
-0.736764
0.161377
2.56658
-2.64688
-0.737633
0.30552
-0.324012
-0.119481
-2.36257
-1.36116
-1.00764
-1.50656
-3.0695
-2.34927
0.239806
-1.64602
-4.12496
-2.86745
-1.19428
-3.09557
-1.16256
2.78167
-0.160965
0.722203
-1.83882
0.922938
0.418474
-0.853802
-0.268049
0.661126
-2.08924
-1.33542
0.0360124
-1.23816
-0.279563
-2.79363
-0.865789
-0.699541
-0.716242
-2.92111
-0.814906
-0.0135528
0.633423
-1.89068
-1.29929
0.125799
1.81459
0.896427
-1.38316
-1.48266
-1.07623
-0.61513
-0.98284
1.31554
-2.202
-0.00923288
-1.58959
0.976241
-1.14981
1.51936
0.740333
0.777077
-0.35045
1.0365
0.623816
0.0601364
-0.829867
0.29553
-0.804605
-1.82273
2.29879
-0.435345
-0.448621
0.499478
1.33268
0.547814
-0.234791
-1.46161
-1.17184
-0.297827
0.833301
-0.600622
0.0281698
0.637191
-0.278072
-0.397571
-0.0116678
0.210988
-1.40194
-1.02976
-1.4226
0.250096
-0.378304
-0.17628
0.554144
-1.41627
-0.130549
-0.694191
1.8468
-2.22005
-1.23028
-1.74274
1.10611
-1.0927
0.676555
-0.350756
1.48916
-0.184173
-2.28456
-1.18143
-2.01597
-3.87837
-0.261167
-1.14587
-1.02357
1.09813
-3.62877
-3.18347
-2.97469
-2.52657
-0.0575314
-2.06134
-0.0666147
-1.11971
0.150667
-0.580568
0.556887
-1.37129
0.175522
-0.0336045
-3.02347
0.267773
-3.58362
-0.529902
0.208905
0.405792
-1.88411
-0.344517
-3.39031
-2.83302
-0.562905
-2.22599
1.51996
-1.48095
0.363983
-0.764311
-0.376
-2.20986
0.958646
-1.4077
0.928161
-2.87908
0.757226
-1.6379
-1.13644
-2.21509
1.34856
-0.296456
-2.18684
-2.55803
-2.56718
1.83139
1.48961
1.14847
0.748556
-0.0549482
0.13703
0.168963
-0.106714
-2.37978
-0.626798
1.0992
-2.37694
-0.23138
-0.0135362
-1.25882
-0.340271
-0.250583
-2.67801
-1.76973
-1.5869
-1.20226
-1.08516
-0.26676
1.51706
-0.760316
0.188966
-1.29828
-1.80799
-0.646069
-1.88862
-0.617441
0.395046
-1.84503
-0.326393
-0.18973
-1.09037
-1.45029
-0.474056
0.641083
-0.366936
1.05129
0.328308
-0.146364
-0.708743
1.07149
-0.791776
-2.70728
-1.176
0.678355
0.361631
-1.1433
-0.0352751
-0.222433
1.05566
-1.50113
-0.659536
-0.530018
-1.07491
-2.5564
-0.408094
-0.078889
-0.45708
1.11417
1.36252
0.208584
1.07499
1.05382
0.0239161
1.33115
-0.391958
0.920706
-1.63523
-0.542632
1.54015
-2.61603
-0.509676
-0.315556
-1.9232
-0.802135
0.546133
-0.143032
0.311728
-0.817933
1.71985
-1.15124
0.412284
-1.30098
-1.77296
-2.05066
-0.813301
-0.832762
0.98884
-0.890317
-1.15598
-0.907963
0.821078
-2.86256
-0.0646397
-3.05567
-0.157173
-4.36563
1.57429
-0.1244
0.670805
0.261096
-1.88792
-1.43456
-0.100499
0.321839
-1.1629
0.088704
0.72813
0.0636921
-1.56891
-0.747989
-0.0718826
-2.95726
-2.11158
-1.24578
-1.64357
-0.684988
-1.09247
-1.14169
-0.000283347
-1.98574
-0.635956
-0.119228
-0.275553
-2.02635
-1.54443
-2.30034
-1.86962
0.100776
1.27195
-0.089852
-0.736298
-2.39183
-2.0468
-1.02655
-1.03692
-0.419855
0.668277
-1.27612
0.82851
1.64733
-0.399418
-0.361247
-0.117765
0.656242
0.51042
-0.539715
-1.98752
0.495515
-0.15226
0.954992
-2.90205
-0.739914
-2.57574
0.017641
-3.0436
0.0812482
1.35051
2.51309
-0.0522059
-0.42968
-1.22255
-1.91514
0.387335
-2.55067
1.33121
-0.700287
-1.51839
-2.31063
-0.498637
-1.74185
-0.892541
-2.07472
-0.570369
-1.66202
0.0161118
-0.953914
-0.272829
0.440585
-1.20664
-1.76983
-0.565786
-1.75151
-1.78829
-0.171848
-0.27517
-2.17455
-1.6433
-0.684764
0.841783
-0.807429
-1.01711
-0.411313
2.0948
-0.310758
-2.29513
-2.18073
1.92101
0.389002
1.13433
1.07614
-1.25457
-0.196404
-1.93424
-2.40962
-1.04288
-1.16586
0.951332
0.969046
-0.146149
3.3575
0.175133
-0.10688
1.17408
-1.3232
-0.85172
-0.0599193
-0.976794
1.44802
0.425713
1.65257
2.26232
-0.388778
3.87574
0.361596
-2.497
1.15749
1.14009
-0.902102
-0.338838
1.11367
0.863678
-0.693571
-0.310742
0.85833
-0.702217
-1.47361
-1.81771
-1.36968
-0.192394
0.501843
-0.161622
-1.40213
0.930797
-0.0820986
-2.32105
-1.29054
-2.04761
1.03508
-0.578773
-0.532998
-0.54327
0.468992
-1.38868
-1.79183
-0.0471273
-1.59899
0.42229
1.37143
1.35266
1.22086
-0.163517
0.857797
-1.19056
-0.138069
-1.7575
-1.48634
-1.1089
1.21953
-0.00789547
-0.203307
0.18957
-2.76106
-4.22463
-2.07449
0.0485358
0.230551
-0.140442
0.702692
0.0526687
0.925005
-0.327641
-0.452225
-0.181947
-1.04525
0.779302
0.0987777
-1.97748
-0.288059
0.365468
0.00143391
-0.57828
0.0383419
-3.22514
-2.41787
-2.84706
-0.13999
0.718204
1.22622
-0.882907
-0.731061
-0.443597
-0.618346
-0.776117
-0.856509
-1.40768
-3.66189
0.310756
-2.26487
0.201358
0.872135
-1.40772
-1.9961
-2.21623
-1.57305
-0.308257
0.0475309
1.15053
1.36329
0.681899
-0.329321
0.949445
-1.65189
-0.181728
-0.599128
-0.581362
0.0358195
0.661108
0.634015
0.430603
0.347548
1.39143
-0.693376
0.153993
-0.411841
-1.08061
-1.41785
1.76292
-1.79759
3.00883
-0.58606
1.71613
-0.365065
-0.524476
-1.26659
0.581073
0.649653
-0.985185
-2.25935
0.224096
0.909571
-0.622205
-1.46863
-2.85567
0.0968993
0.400597
-0.089204
0.42922
1.2025
0.627076
-0.540709
-0.0966661
-2.16401
-0.306814
-1.44948
-1.6853
0.752335
1.89472
-2.19828
0.187822
1.29561
-0.25058
-0.74598
-2.158
0.386568
0.968922
-1.23644
-1.45754
-1.90187
-0.778037
1.69128
-0.953241
-1.33914
0.282376
1.64103
0.337393
-2.22867
0.770275
1.93379
-0.27466
0.417631
-3.11472
-0.628226
-1.00269
0.386158
-1.35667
0.725778
0.560029
1.73325
-1.2262
0.755653
1.47642
0.0335898
-0.0597379
1.36375
1.12847
1.59864
1.20353
0.700322
0.033913
-4.2186
1.05166
-0.0108681
-1.15445
-1.93552
-0.249125
-0.229939
2.99454
3.01599
1.21923
3.61987
0.764422
1.33286
-0.326238
2.52762
0.733009
0.135068
-0.793881
-0.118827
1.39554
-0.796738
-1.14856
2.4697
0.825555
-0.871865
-0.819446
-1.0621
-0.769269
-1.48816
1.60834
0.242452
1.85689
0.260923
1.30569
-0.607229
-0.253928
1.54359
0.761211
-0.409657
1.01481
-0.779329
0.516963
-1.2346
-0.712719
-2.71043
-0.433095
-0.813484
-1.11049
2.84732
2.11438
1.21744
0.685269
3.20555
1.37857
-1.26521
-0.618847
-0.230406
0.821253
0.0931947
-1.11608
1.0886
-0.0840844
-2.26287
-1.7466
-2.10765
-1.3933
0.319658
0.80129
2.48719
1.05809
0.047042
0.993262
-0.00798609
0.510228
0.117606
-0.556532
-0.658514
1.79348
1.5853
-1.29109
1.43962
0.0216368
1.02588
-0.886527
0.408982
-0.802021
1.95427
-1.97026
1.30433
3.15521
0.194938
0.176611
0.51451
2.17623
-0.394009
1.59595
0.421588
0.2947
-0.287031
-0.467996
-0.621832
0.897993
-1.28274
-0.198224
-1.94527
1.4602
-0.459237
0.850727
0.728775
0.329426
-0.962919
-0.90079
-0.742363
-0.720867
-1.1629
-0.768196
-0.527925
0.78197
0.157932
0.764382
-1.46503
1.03093
2.39636
0.386734
0.455063
0.144484
0.0568994
0.920288
0.00669257
0.335682
2.12258
0.716758
-0.51662
0.634843
0.513403
1.90392
-1.03926
-1.39758
-1.5465
1.13344
-0.998256
0.833295
-1.56561
-1.56744
-0.669163
1.84352
1.15341
2.24749
0.489164
2.55442
-0.182363
-0.54074
-0.381386
-0.803624
-0.16573
-0.865787
-0.252175
0.896279
-0.421188
-0.796851
0.00123172
2.37618
1.61165
1.22871
-0.289126
2.47938
0.175439
3.66406
3.45531
2.16055
2.39819
2.23865
1.32083
2.66134
1.77904
0.976211
1.84624
0.73971
0.648321
1.98312
-1.08314
0.561619
-1.27778
0.741553
-0.286645
0.00486407
4.01055
0.640447
0.310096
0.300075
0.769839
0.584656
3.28579
-0.439036
0.207235
2.09128
-0.0232855
0.381743
0.227545
1.593
0.340117
1.06967
0.662431
-0.562957
-0.362053
3.87554
2.01925
0.678832
4.51063
0.911916
0.0492223
1.14186
1.72786
-0.014328
-0.0966671
0.925528
0.954484
1.94596
-0.0168236
3.82218
1.71494
0.116649
0.649235
-0.503485
-2.13121
1.78434
0.464792
2.49113
1.08525
-0.176645
0.847991
-1.6199
0.950475
2.22464
1.48854
-0.43545
0.691996
3.37566
0.793049
1.00491
3.49
1.55526
0.482283
-0.633063
0.0458873
-0.858168
1.52817
2.68761
0.38881
0.783658
-0.334739
1.42703
1.71291
-0.91147
1.46865
-0.393473
0.625235
0.843197
0.0716434
1.18599
-0.411373
1.45838
2.02619
2.05472
1.19911
-1.47921
2.31121
-0.038739
1.69488
-0.442114
1.3395
0.992935
1.12627
-0.318758
0.99478
-0.306185
0.814933
-1.41111
2.61736
1.52027
0.286066
1.77263
0.481879
-0.495415
-0.359988
1.36395
0.500298
-0.895401
-1.27945
0.711369
0.975231
0.328957
1.07359
1.29749
-0.862994
0.382867
1.03903
-0.00113917
0.539342
2.73687
0.2355
0.00336579
0.29721
-1.07463
-1.68662
-0.839019
-0.461907
0.267255
-2.00827
-0.0484584
0.425433
0.0621582
0.431834
1.41633
0.892925
-0.473765
1.09459
0.671762
1.12289
0.909415
-1.03838
-1.27978
-0.303752
2.56059
-0.414453
3.46512
2.80686
2.16677
2.49088
4.67803
4.10728
3.58849
2.82019
2.67829
1.97139
0.79629
3.49856
1.80232
2.75779
3.47072
2.80792
1.74399
0.874258
-1.69041
-0.924194
0.10938
2.79804
2.59529
2.22888
2.97046
3.66505
2.2357
2.02845
0.659089
2.04533
0.515058
2.67123
1.78509
1.91293
3.70286
1.96191
2.05276
1.26928
1.91143
1.18427
1.08923
1.18951
2.37515
2.05749
1.55265
2.08673
3.05975
2.73092
2.89765
0.649048
-0.417242
0.946112
-0.141422
2.73734
3.05225
1.99945
2.01137
0.136101
0.703962
-0.431071
1.93245
0.483167
2.18124
-0.574633
1.48762
2.58548
1.02945
0.800657
0.108278
1.73002
0.0691457
1.21847
3.073
-0.19851
1.69281
2.19655
2.58577
-0.463819
-0.203784
-0.863277
1.79006
1.4566
1.1636
2.95964
0.61858
1.38934
1.78816
-1.93451
-0.529691
1.38765
2.11861
-0.390675
-1.38077
0.044525
-0.119587
0.972175
-0.736869
-0.309739
1.66285
-1.00731
-0.207951
0.897432
-0.436224
0.508795
1.65714
-0.0968064
1.00362
1.80721
1.65756
0.316183
0.580891
0.697606
0.602559
0.232373
2.90087
1.43595
-0.897047
-0.58315
-1.97522
1.4498
-0.440597
1.06843
1.11081
1.74556
0.216137
-0.137764
-1.31176
0.381105
1.17454
-1.03782
0.154738
0.143796
2.01163
2.25271
0.7515
-0.470155
0.534077
-1.48039
0.938522
0.649053
-2.06706
2.02576
-1.01017
0.262903
-3.07498
-1.5701
0.795567
-0.148198
-0.0474319
0.569699
0.554725
1.04243
0.0279376
1.49073
-0.563214
0.89018
1.02029
0.607123
0.26203
0.255508
3.21075
3.43048
2.99708
2.88721
3.92205
5.03612
1.46461
1.15236
3.30393
4.0139
3.38801
4.58161
1.67883
4.83228
3.53799
4.79644
1.5847
1.34282
0.588359
1.07625
0.0310286
4.25442
-0.265799
3.81269
-0.170372
3.39522
0.428303
3.69111
0.760471
-0.183275
2.63593
0.106063
2.56195
0.31946
0.581466
0.172547
1.59094
-0.434769
0.933072
2.07934
0.4116
3.01429
3.34496
2.71048
2.61487
1.29849
2.86299
2.70365
2.31756
2.23273
2.78632
2.94915
4.3016
-0.183017
2.92758
0.733311
2.60634
0.305154
2.016
-0.263005
0.121798
1.30988
1.42277
1.40429
1.22835
3.51238
1.93646
1.75758
1.52707
0.565695
1.58563
2.96656
2.59739
0.511467
2.04621
2.75425
1.00246
0.773765
1.15467
0.710769
-0.170886
1.28974
2.89541
1.97703
1.0252
1.41742
1.54015
2.93989
0.813383
0.552469
-0.19888
1.08541
1.39348
1.63701
0.361346
0.421857
0.929298
1.25412
0.140764
1.61673
0.770301
0.239839
2.70989
0.370011
1.74573
0.0257407
0.810145
1.31704
0.759347
0.79137
2.29679
-1.25583
0.605277
2.93523
0.8928
3.45797
1.39213
-1.24196
1.86829
2.52209
-0.980894
2.31462
0.324676
-0.234494
1.05549
1.12245
1.18632
-0.617151
1.9236
-0.200974
0.169514
1.59655
1.85797
0.0894977
3.10342
2.0521
2.31161
-0.646745
1.40968
1.83901
0.718232
1.66523
-2.15956
0.695218
-0.274956
0.507181
0.297684
0.376424
0.194724
0.0312293
-0.141108
-0.664548
-0.12238
-1.31064
1.18749
1.20691
0.174274
-0.94229
0.0495219
1.51894
1.6994
4.09208
4.40905
5.76869
3.62403
5.89194
5.59258
5.00768
2.99171
4.21022
3.68033
3.65359
5.23679
5.79855
4.77209
4.93069
2.96095
2.83531
3.4806
1.76344
2.9504
2.82275
1.93349
1.2876
5.62165
3.26834
3.49849
2.7481
3.06702
1.54458
1.33918
0.517141
3.44864
4.56037
3.75102
5.38096
3.38992
2.89545
4.18403
0.764959
3.48499
1.46124
1.32548
2.65719
3.54512
3.15037
1.74623
4.7314
1.09641
3.15497
3.01544
4.49218
2.82767
4.06906
4.77665
1.43044
2.61732
0.767741
2.07538
0.285843
1.90381
3.55483
3.73985
4.0573
1.43205
4.82113
4.31953
0.571327
2.37608
1.4616
1.58545
1.73807
3.5449
1.81538
1.40858
0.628178
2.54703
2.33002
1.84861
0.992046
0.440239
2.75952
3.25221
1.47989
3.64961
1.51753
1.66807
2.80857
1.39607
0.686566
1.69591
2.27555
2.45505
0.136858
4.16215
2.26637
0.176966
1.27555
1.17855
0.0375552
0.477825
3.33829
1.46493
1.83377
1.55498
2.11088
-0.240658
3.01682
3.74703
2.77937
0.212537
0.656354
2.32121
-1.95219
-0.326491
1.81959
0.0786239
-1.5083
-0.235573
-0.548967
2.09594
0.847098
0.621558
1.92425
1.09132
1.50209
0.00930388
0.76822
1.32303
2.7232
1.05889
0.714212
0.416966
1.52295
0.502338
0.0725913
-0.211811
0.32761
0.14409
-0.732877
0.456444
0.0611961
-1.46869
-0.705692
-1.29647
0.381786
0.0911222
-0.825959
0.97877
0.826401
-1.16775
-0.691989
-0.842145
0.759186
-0.38204
0.228067
0.971207
-1.60579
0.285422
)
;

boundaryField
{
    hotSide
    {
        type            calculated;
        value           nonuniform List<scalar> 
400
(
-3.9784
-3.20963
-4.60416
-4.17681
-2.10996
-3.03206
-3.93073
-3.34919
-3.80484
-4.39293
-1.33977
-3.4846
-1.55666
-2.40582
-1.15502
-1.3111
0.323657
0.187559
0.847693
2.10231
-1.14457
0.0308206
-1.21985
-1.88296
-2.89268
-1.37346
-2.10018
-0.054862
-1.44882
-4.34958
-3.6543
-3.22678
-0.524949
0.531501
0.625515
0.408283
3.12248
4.09496
3.82844
2.30612
1.55249
1.75783
0.877789
-0.581367
-0.137624
-2.15305
-1.58771
-0.660266
-0.361714
-2.12517
-0.165034
0.464681
-0.994168
-3.63717
-0.889837
0.460899