/*--------------------------------*- C++ -*----------------------------------*\
| =========                 |                                                 |
| \\      /  F ield         | OpenFOAM: The Open Source CFD Toolbox           |
|  \\    /   O peration     | Version:  2212                                  |
|   \\  /    A nd           | Website:  www.openfoam.com                      |
|    \\/     M anipulation  |                                                 |
\*---------------------------------------------------------------------------*/
FoamFile
{
    version     2.0;
    format      ascii;
    arch        "LSB;label=32;scalar=64";
    class       volScalarField;
    location    "0";
    object      relativeErrorField;
}
// * * * * * * * * * * * * * * * * * * * * * * * * * * * * * * * * * * * * * //

dimensions      [0 0 0 1 0 0 0];

internalField   nonuniform List<scalar> 
3200
(
0.0139112
0.00582737
0.00179168
0.00322795
0.0039727
0.0127837
0.0142762
0.00880985
0.0178447
0.0118968
0.0148157
0.0117323
0.0134315
0.0130097
0.00901113
0.0110282
0.00938039
0.00822007
0.00224589
0.00284977
0.0115959
0.0067266
0.00503531
0.000544211
0.000423624
0.0103288
0.00949178
0.0135559
0.00811704
0.0145448
0.00660224
0.0116954
0.0071327
0.0111613
0.0128159
0.00798659
0.00130856
0.00411426
0.00123103
0.00775044
0.00812155
0.0024092
0.00157736
0.00157731
0.00387043
0.0112917
0.014382
0.00533133
0.0141383
0.012404
0.00883616
0.0172172
0.011474
0.00736855
0.00739652
0.00635121
0.00167133
0.00765849
0.00210403
0.00786782
0.00841833
0.00756736
0.0056044
0.00115782
0.00333346
0.00638109
0.00806306
0.00742295
0.00738794
0.00266817
0.00244223
0.00876243
0.00410732
0.0121941
0.00379613
0.00933986
0.0041499
0.00151316
0.00293984
0.00333492
0.0101478
0.0026535
0.00125368
0.00489708
0.00316133
0.000673268
0.0113482
0.0111336
0.00131339
0.0138972
0.00509681
0.0107346
0.00483294
0.00390437
0.00189874
0.00656126
0.00140804
0.00168704
0.00545237
0.00429156
0.0019479
0.000826206
0.00239374
0.00379222
0.00193445
0.00109194
0.00853404
0.00422361
0.00238114
0.00244851
0.00107414
0.000579225
0.00729531
0.00690473
0.00740066
0.00151374
6.06769e-05
0.00299281
0.00302054
0.00690293
0.00972922
0.00159149
4.29762e-06
0.00294569
0.00356684
0.00093808
0.000267085
0.000842545
0.000452726
0.00215096
0.00202899
0.00272782
0.00203173
0.000855708
0.00256412
0.000131785
0.00016693
0.00119567
0.0104719
0.00678196
0.00321183
0.0014741
0.00142839
0.00166126
0.00244922
0.00135293
0.00243173
0.00187554
0.000366764
0.00110055
0.00364624
0.00533471
0.00249976
0.00335744
0.00410249
0.00389304
0.00114244
0.00143786
0.00836573
0.00154425
0.0116565
0.00239655
0.00239655
0.00371853
0.0125646
0.00820432
0.00848697
0.00987354
0.0101793
0.0177146
0.0130681
0.00835139
0.0118001
0.0106943
0.00815943
0.00582851
0.00184268
0.00422448
0.0030811
0.0178708
0.0115639
5.75794e-05
0.00222343
0.000428687
0.00639311
0.00190089
0.00732968
0.000541748
0.0145439
0.00162589
0.00184155
0.00999544
0.000567929
0.00972559
0.00046869
0.00130214
0.000562582
0.000933857
3.35906e-06
0.00705991
0.00806775
0.0079838
0.00121915
0.000206463
0.0060135
0.0119419
0.0101363
0.0109682
0.00961914
0.0140768
0.00832558
0.003474
0.00491705
0.0135782
0.00796558
0.00296186
0.00749172
0.00348873
0.00742345
0.0115016
0.00351767
0.00148846
0.000292473
0.00194481
0.00312867
0.00856909
0.00328292
0.0181464
0.0108947
0.00418036
0.00688694
0.00437708
0.0132634
0.0072806
0.00263739
0.00164291
0.00420703
0.00313033
0.00592701
0.00587166
0.00139693
0.00989924
0.00096074
0.00354237
0.00131438
0.00549286
0.00422466
0.00497928
0.0109505
0.0084793
0.00778041
0.00286536
0.00414819
0.00278652
0.00312945
0.0021672
0.00611188
0.00690135
0.00401097
0.0102487
0.00355061
0.00392285
0.00111281
0.00124149
0.003437
0.00103867
0.00241378
0.00594354
0.00192224
0.00339524
0.00477548
0.00698664
0.00765167
0.00143352
0.00376071
0.00372017
0.00810809
0.00343332
0.00927308
0.00463278
0.00138854
0.00220833
0.00138181
0.000569694
0.00395113
0.00516724
0.00346691
0.00175056
0.0128954
0.00757122
0.00366387
0.00188386
0.00132013
0.000632521
0.00868453
0.0037382
4.66154e-05
0.00514891
0.00505244
0.00224571
0.00236211
0.00254097
0.00306766
0.00249919
0.00201395
0.00043326
0.000755473
0.00202314
0.00369135
0.000473103
0.000412313
0.00328202
0.00110803
0.000730033
0.00155108
0.00550763
0.00545268
0.00185238
0.00176629
0.00125651
0.0157074
0.00601869
0.000135946
0.00195505
0.00615862
0.00505724
0.0065532
0.0158012
0.0118791
0.0119465
0.010093
0.00586233
0.00685797
0.0072536
0.0009619
0.00442328
0.00712086
0.00334294
0.0011577
0.0110915
0.00505713
0.00486808
0.0020381
0.00401525
0.00754004
0.0034653
0.0112701
0.00712573
0.0123087
0.00322041
0.00411548
0.00892502
0.00913338
0.00377234
0.00550368
0.00624393
8.46278e-05
0.00406984
0.000472656
0.00884364
0.0151507
0.0125171
0.00110401
0.0012924
0.00332228
0.00282989
0.00414376
0.00901433
0.00536658
0.00663874
0.00650698
0.0083025
0.00716058
0.00522036
0.00410469
0.00570171
0.000416143
0.00025557
0.00844433
0.00542314
0.00602326
0.00777388
0.00253851
0.00067353
0.00277709
0.00836584
0.00552807
0.0136442
0.00706459
0.00333633
0.00024356
0.00709974
0.00110212
2.45341e-05
0.00980202
0.00599082
0.000122745
0.00545541
0.00220585
0.00280175
0.000404323
0.000553879
0.00295722
0.00216556
0.00194203
0.00411597
0.0119263
0.00103395
0.00398025
0.00169105
0.000721236
0.00158209
0.00396936
0.00164766
0.00949275
0.00407653
0.00450898
0.00882318
0.00726172
0.00754593
0.00578483
0.0109898
0.0038981
0.00361832
0.0110154
0.00398605
0.010195
0.00167132
0.00311335
0.00569779
0.00198452
0.00661805
0.00525805
0.00233358
0.00194396
0.00185527
0.00773996
0.0032416
0.00142898
0.000901894
0.0058261
0.00486359
7.60813e-06
0.000180761
0.00540899
0.00295799
0.00350184
0.00401172
0.00413142
0.00539116
0.000489532
0.00507644
0.0017279
0.00369032
0.00653856
0.00326488
0.00763498
0.00286759
0.000471188
0.000147194
0.00502258
0.000132798
0.00586161
0.00319964
0.00340643
0.00457516
0.00420281
0.00185003
0.00478468
0.00257411
0.00177053
0.00659805
0.000389923
0.00845894
0.00148162
0.00710321
0.000142338
0.000749058
0.00567082
0.00187376
0.0144304
0.00791932
0.00433427
0.00291474
0.00655472
0.00815957
0.00675162
0.00999506
0.00791489
0.00444892
0.0107833
0.00873774
0.00778142
0.00497765
0.00651945
0.0046995
0.00103104
0.0013289
0.00649919
0.00826664
0.00592282
0.00337735
0.000423875
0.00187732
0.00949178
0.00083644
0.0108755
0.000261619
0.0062926
0.00106131
0.000715037
0.00250858
0.00030206
0.00724714
0.00130083
0.00458701
7.81554e-05
0.000416032
0.000394316
0.00174647
0.00461912
0.00552988
0.00516626
0.000294317
0.000462907
0.00225668
0.00698963
0.00570614
0.00352622
0.00423813
0.00426365
0.00134616
0.00273396
0.00562445
0.007762
0.00464492
0.00239921
0.00383299
0.000920792
0.0112509
0.0069255
0.0045635
0.00420927
3.94552e-05
4.1069e-05
0.0042898
0.0027669
0.00224577
0.00313838
0.00582736
0.00206278
0.00144802
0.00439097
0.00550655
0.00130522
0.00176519
0.00305817
0.00113498
0.00174794
0.011598
0.0051989
0.0059714
0.00308289
0.00598967
0.00609615
0.000576561
0.00549798
0.00219184
0.00694889
0.000343043
0.000576796
0.00130486
0.00409385
0.000517104
0.00260943
0.00181369
0.00257311
0.000853609
0.000811741
0.0013169
0.00326378
0.00343016
0.000885824
0.00229812
0.0040307
0.00701268
0.00226411
0.0126204
0.00385557
0.00660013
0.00364561
0.00252319
0.000884974
0.00584989
0.00318763
0.00588921
0.00360386
0.00427441
0.00362767
0.0137195
0.0102095
0.009129
0.00382938
0.00213763
0.000400148
0.000998266
0.00208085
0.00648302
0.000424052
0.00125937
0.00173017
0.000781273
0.00388114
0.00215936
0.00320354
0.00162219
0.00155555
0.000859207
0.00054238
0.0025544
0.00270667
0.00579402
0.00172783
0.00652336
0.00073853
0.00426417
0.00350964
0.00475152
0.000181797
0.00479899
0.00317841
0.00651914
0.00105137
0.002003
0.00132728
0.000829932
0.00808804
0.00567193
0.000898257
0.0044534
0.0083713
0.0108146
0.00300985
0.00292349
0.00261465
0.00766212
0.00903895
0.00469985
0.00885483
0.0103247
0.00145137
0.0115799
0.00403151
0.00224086
0.0105274
0.000263701
0.00282917
0.00252848
0.00553647
0.00847554
0.0119814
0.00649974
0.00430564
0.0052182
0.00391124
0.000904971
0.00604847
0.0111203
0.00187124
0.000550161
0.00246117
0.000116711
0.00271296
0.00138499
9.36234e-05
0.00380371
0.00117254
0.0014937
0.005463
0.00683667
0.00324898
0.0129253
0.00241311
0.00221854
0.00552286
0.00460895
0.00481159
0.0102696
0.00130752
0.00148482
0.000606566
0.00113626
0.00233554
0.00192261
0.00103029
0.00341841
0.00203344
0.0013454
0.00396286
0.00811646
0.00200608
0.0056087
0.0038747
0.00287452
0.00299593
0.00238578
0.00628493
0.00297417
0.00632842
0.00340813
0.00143605
0.000841037
0.00383657
0.00285159
0.00183578
0.00219949
0.00623391
0.00254344
0.00254838
0.00957357
0.00118776
0.00756053
0.00798469
0.00205412
0.00648852
0.00725383
0.00917923
0.00732742
0.00181688
0.00027471
0.00271994
0.00262769
0.00715441
0.00307497
0.00489572
0.00321646
0.000133661
0.00276525
0.0050022
0.00286481
0.00342611
0.000910052
0.000341913
0.00610747
0.00255375
0.000689991
0.000618776
0.00378759
0.00746589
0.00693115
0.00389892
0.00560941
0.00155288
0.00975108
0.00112298
0.00158652
0.0014634
0.00439159
0.00478323
0.00381762
0.00390346
0.00271774
0.00629998
0.0108132
0.00175757
0.00537652
0.0050951
0.000594973
0.00685485
0.0092673
0.00191644
0.00117598
0.00079851
0.00601852
0.00135194
0.00140395
0.00272035
0.00639098
0.000254761
0.0022024
0.00565685
0.00422237
0.000340676
0.00535729
0.0124856
0.00330109
0.00602007
0.000379697
0.00308545
0.00380066
0.00330292
0.000425653
0.00355431
0.00392495
0.00721222
0.00153251
0.00356937
0.00769068
0.00104245
0.000965192
0.0110135
0.00635888
0.00878917
0.00205832
0.00348992
0.00691896
0.00219196
0.00937578
0.000787587
0.00340456
0.00290712
0.00603774
0.00265407
0.00782754
0.00446553
0.000270379
0.00551909
0.00640465
0.00440976
0.00711911
0.0111023
0.00200433
0.00190899
0.000194552
0.000983355
0.00171792
0.00128353
0.00108898
0.00256448
0.000757679
6.07143e-05
0.00271684
0.000525599
0.000618963
5.62964e-05
0.00408474
0.00183858
0.00660638
0.000550972
0.0107586
0.00945499
0.00664591
0.00257914
0.000593105
0.00548737
0.00310139
3.6437e-05
0.000434337
0.00582009
0.000675449
0.0025903
0.00494504
0.00469537
0.000566841
1.9025e-05
0.0022077
0.00297135
0.00536561
0.00189467
0.00607482
0.00783489
0.00530486
0.00302142
0.000997235
0.00350593
0.00433102
0.00499859
0.00637687
0.000970371
0.000830755
0.00142842
0.00567517
0.00256764
0.00299077
0.0050133
0.00660918
0.00667739
0.00010295
0.00041199
0.00426059
0.0104329
0.00525622
0.000573449
0.00059214
0.000357742
0.00135422
0.00229149
0.00183761
0.00191427
0.00185788
0.00171532
0.0054777
0.00273425
0.00505128
0.000389209
0.000368475
0.000770195
0.000433163
0.00278279
0.00270472
0.00552171
0.00214161
0.00164465
0.00350387
0.00354568
0.00972556
0.00146059
0.00552204
0.00221128
0.004191
0.00843814
0.00123619
0.00323433
0.00352478
0.0047481
0.000651384
0.00497681
0.00381944
0.00280364
0.00232814
0.00417282
0.00579911
0.00635964
0.00577887
0.00745536
0.00484115
0.00509588
0.00176452
0.00492678
0.0033263
0.00186509
0.0043479
0.00435463
0.000494781
0.00731411
0.000531025
3.15001e-05
0.00343235
0.000559301
0.00371158
1.47151e-05
0.00146636
0.00466833
0.00445225
0.00361339
0.00556408
0.00111308
0.00151219
0.000541055
0.00789805
0.00263053
0.00263853
0.00193038
0.00402327
0.00504844
0.002093
0.00099967
3.77879e-05
3.62816e-05
0.00274089
0.0135722
0.0084135
0.00709553
0.00361711
0.00322974
0.0035675
0.00257825
0.0048763
0.000908433
0.00133969
0.0032506
0.0038237
0.00423696
0.00106985
1.91699e-05
0.000751536
0.000335761
0.00581395
0.00797188
0.0110337
0.0123739
0.00568416
0.0016944
0.00177395
0.00548405
0.000892278
0.00417571
0.000159176
0.0027194
0.00216989
0.00382317
0.00412005
0.00592497
0.00734508
0.00151934
0.00100948
0.00044264
0.00281913
0.00145623
0.00864418
0.00507154
0.00845251
0.000572727
0.00130512
0.00307622
0.00536335
0.00244977
0.00786275
0.00322859
0.00873511
0.00191389
0.00111248
0.00378511
0.00229312
0.00346092
0.00687421
0.0021715
0.00410755
0.00016445
0.0129413
0.0119648
0.00536379
0.00615711
0.0028516
0.00411331
0.000908146
0.00465624
0.00214189
0.000580706
0.00119411
0.00443535
0.00486842
0.00134852
0.00094087
0.000691327
0.00289035
0.00206465
0.003624
0.00577061
0.00316499
0.00233424
0.00355257
0.000200747
0.00437653
0.00208363
0.00519229
0.000222191
0.00905209
0.00275109
0.00521569
0.001291
0.000978812
0.00050494
0.00256279
3.96877e-05
0.00745051
0.000953248
0.00128666
0.00839355
0.00136566
0.0045266
0.0042085
0.00176779
0.000230666
0.00790178
0.00966722
0.00105226
0.000567537
0.00763317
0.00327625
0.0037659
0.00816837
0.00317259
0.00238493
0.00343344
0.00126871
0.00188967
0.00173817
0.00239478
0.00355588
0.0048651
0.00158161
0.00338284
0.00527533
0.00487776
0.000614342
0.00701109
0.00599748
0.00685463
0.00608764
0.00204514
0.00468395
0.00304911
0.00501647
0.00574438
0.00589661
0.00126205
0.00134235
0.00559569
0.00227321
0.000876801
0.0012086
0.0022062
0.0078185
0.00294161
0.0022013
0.00300466
0.00138859
1.18235e-05
0.00728116
0.00320059
0.00419654
0.00663828
9.90866e-05
0.00671418
0.0018687
0.000632719
0.00341032
0.00400661
0.000891101
0.0118245
0.00244174
0.00435698
0.00129487
0.00918532
0.000957685
0.00535082
0.000418609
0.006384
0.00595342
0.0117051
0.00427006
0.0067431
0.00735808
0.00170902
0.00270716
0.000724007
0.004901
0.00636729
0.0125496
0.00433769
0.00303261
0.00165418
0.000856778
0.00239633
0.00188674
0.00465039
0.00139994
0.00449049
0.00118095
0.000919829
0.00463768
0.000267233
0.00803461
0.000428964
0.00151991
0.00049434
0.00719118
0.00138221
0.0113225
0.00512728
0.00709356
1.51494e-05
0.00185588
0.00170369
0.00430001
0.00261212
0.00388188
0.000962589
0.00292236
0.000973864
0.00222828
0.00578091
0.00196198
0.001353
0.00205921
0.00829466
0.000600084
0.00573924
0.00939547
0.0017626
0.000113731
0.0118658
0.00681519
0.00158484
0.00185934
0.00353501
0.00499952
0.000709181
0.00157059
0.00195803
0.00722925
0.00451769
0.00412157
0.00204659
0.000362288
0.00262582
0.00149968
0.00779473
0.0066299
0.00605689
0.00500494
0.00287043
0.00177278
0.000215511
0.00112774
0.000538341
0.00213622
0.00262124
0.000653506
0.00139544
0.000612651
0.0052683
0.00041843
0.00120726
0.000891329
0.00926886
0.000647803
0.00665655
0.00216249
0.0129713
0.00166938
0.000334907
0.00690229
0.00270672
0.00373698
0.00131482
0.00327871
0.0057642
0.0007733
0.000830029
0.00313774
0.00559254
0.00448658
0.000437475
0.00701047
0.000516874
0.0029114
0.00370261
0.00876333
0.00949348
0.00324566
0.00330173
0.00126467
0.00269399
0.00351952
0.00296186
0.00259625
0.000518554
0.00082854
0.000157403
0.0134167
0.00461341
0.00249548
0.00336498
0.00428689
0.00109304
0.000293094
0.000996541
0.00559372
0.00023789
0.00581693
0.00170409
0.00131481
0.000876228
0.00352582
0.00298093
0.000559616
0.0025306
0.000718306
0.00507018
0.00724675
0.0013813
0.00137402
0.000557723
0.000277866
0.00198987
0.000682859
0.00385495
0.00605781
0.0130763
0.0064101
0.00343247
0.00791181
0.00349474
0.00268645
0.00758072
0.00418779
0.000357795
0.00747792
0.00175126
0.00759226
0.00358878
0.0011164
0.0058636
0.00176595
0.00250616
0.00258589
0.00376897
0.00873315
0.00975629
0.00680455
0.000134558
0.00231879
0.00314472
0.00051471
0.00225953
0.00343298
0.00492834
0.00685698
0.00778303
0.00698603
0.00881549
0.0102651
0.00661655
0.00268529
0.00773218
0.00709718
0.00992997
0.0138697
0.00284771
0.006611
0.00482251
0.000165432
0.0050827
0.00287087
0.00012176
0.000849924
0.00154091
0.0016908
0.00157307
0.00397816
0.0056058
0.00690554
0.00039917
0.00242494
0.00702501
0.000982646
0.00973667
0.00827019
0.00262495
0.00672526
0.00695365
0.000695245
0.00275874
0.00451467
0.00666461
0.000239761
0.00404736
0.00632129
0.0023104
0.00789907
0.00152854
0.00281088
0.00225792
0.00753052
0.00123481
0.00325796
0.0115491
0.00603385
0.00720044
0.00524589
0.00730618
0.00387509
0.00357396
0.004399
0.00449819
0.00175082
0.00582587
0.00114361
0.00797506
0.00386154
0.0035797
0.000628923
0.00449075
0.00350751
0.00108041
0.00254104
0.0030149
0.00836617
0.00724234
0.00330938
0.00380792
0.004925
0.000783412
0.00522794
0.00482229
0.00441538
0.00574622
0.00535772
0.00221792
0.00534771
0.00185578
0.000516197
0.00044321
0.00176652
0.000451905
0.00271006
0.00161323
0.00161844
0.00402574
0.00109362
0.00171202
0.000605475
0.00215178
0.00450947
0.0036672
0.00572028
0.00231015
0.00181
0.00322144
0.00107742
0.00130142
0.0033687
0.00257301
0.00621062
0.0035185
0.00416746
0.000457332
0.00376093
0.000363517
0.000384427
0.00352912
0.000716638
0.00319905
0.00011073
0.000556248
0.00117908
0.00141959
0.00406607
0.000101009
0.00383978
0.00489006
0.000146471
0.000270121
0.0010475
0.00278574
0.00655602
0.000238153
0.00201571
0.0146974
0.01469
0.00842461
0.00328901
0.00361953
0.000477014
0.00709504
0.00871221
0.000181788
0.00061817
0.00905808
0.00480134
0.0108886
0.00308323
0.00524785
0.00252867
0.00893232
0.00266815
0.00812064
0.00898553
0.00370055
8.28294e-05
0.0020111
0.000914573
0.00311284
0.000100846
0.00400488
0.00026608
0.00213236
0.00269191
0.000354676
0.0108171
0.00106572
0.00185852
0.000606545
0.00027313
0.000419751
0.00709465
0.000816451
0.00867632
0.0135401
0.00198689
0.000401063
0.00446394
0.00792663
0.000476006
0.00332751
0.00262739
0.00152864
0.00574761
0.00423427
0.00293931
0.0110557
0.000105382
0.00330516
0.00196663
0.00617179
0.00262838
0.0102646
0.00297171
0.00783724
0.00438692
0.00248387
0.00633944
0.000807771
0.00207345
0.000504249
0.00135629
0.00508711
0.00119622
0.0045517
0.00529316
0.00117476
0.0018408
0.00122179
0.00148243
0.00309068
0.00429813
0.00603747
0.00494844
0.00104359
0.0071504
0.000422581
0.00664536
0.00154788
0.0032215
0.000500455
0.00214965
0.0110218
0.00323497
0.00521919
0.00105402
0.00279203
0.0119698
0.00364438
0.0031173
0.00156237
0.000274458
0.00123096
0.00804607
0.0108031
0.00453308
0.00397801
0.00165931
0.000442403
0.0105078
0.00604909
0.0043582
0.00106843
0.000302544
0.00163316
0.000325244
0.00106893
0.00359696
0.000538412
0.00210603
0.00280883
0.00412791
0.00927388
0.000628368
0.00421851
0.00422357
0.00213533
0.00133468
0.00334247
0.000591395
0.0050854
0.000595564
0.00300915
0.00127662
0.00201334
0.00326316
0.011026
0.00434293
0.00221264
0.00277922
0.00526597
0.0061462
0.000214056
0.00168274
0.00141969
0.00483213
0.00520749
0.00285582
0.00285143
0.00301007
0.00634027
0.00222889
0.00460662
0.00970763
0.00404117
0.00113043
0.000807252
0.000976768
0.00167171
0.0075029
0.00153945
0.00369614
0.00438562
0.000307651
0.0058373
0.0126035
0.00273328
0.00125464
0.000713027
0.002215
0.00218327
0.00960249
0.003281
0.00504172
0.0113631
0.00981365
0.00581516
0.00332999
0.00484383
0.00157867
0.0100532
0.00300834
0.00203746
0.00881257
0.0147556
0.000826148
0.00143083
0.000729035
0.00152497
0.000145829
0.000915481
0.000352722
0.00405709
0.000362113
0.00118124
0.00447801
0.00187718
0.0118479
0.000981129
0.00477413
0.00127589
0.00169518
0.0003581
0.00843037
0.0108693
0.00767913
0.00518438
0.000899941
0.00047433
0.000181077
0.00592802
0.00180356
0.00186267
0.00479363
0.00239777
0.00396479
0.00992791
0.00416923
0.0045919
0.011847
0.00536542
0.00206793
0.0039584
0.00823524
0.00758166
0.00589047
0.00508659
0.00152911
0.00158962
0.00199799
0.00386672
3.11965e-05
0.00317748
0.000238784
0.00793657
0.00153403
0.00513435
0.000779218
0.00212191
0.00120508
0.00475794
0.00644773
0.000919638
0.0124982
0.00372279
0.0107986
0.000574965
0.0051962
0.00391386
0.00473388
0.000131695
0.00337711
0.00133034
0.00162627
0.00259198
0.00429286
0.00742561
0.00459511
0.000576126
0.00229761
0.0043347
0.00664631
0.00256986
0.00544096
0.00350752
0.00826581
0.00204367
0.00656561
0.00138941
0.00236378
0.00589858
0.00440869
0.00253991
0.00196062
0.0113706
0.00592966
0.00567968
0.000236329
0.00770927
0.00310498
0.000497767
0.0033905
0.00103845
0.00647237
0.00142886
0.00193021
0.00223719
8.5683e-05
0.00322989
0.00878598
0.000261832
0.00577461
0.000199292
0.00100199
0.00253992
0.0034561
0.00176323
0.000672797
0.00164738
0.00227716
0.000199582
0.00307445
0.00179993
0.00620044
0.00397513
0.000739261
0.00680615
0.00275016
0.00193574
0.00516944
0.00207657
0.00407325
0.00386393
0.00101771
0.00411255
0.000541249
0.00102934
0.00134352
0.00304931
0.00413937
0.00250985
0.00336849
0.000702898
0.0047699
0.0119208
0.0112906
0.000868786
0.000992738
0.00184177
0.000709856
0.00245792
0.00221375
0.00575618
0.00242847
0.00543631
0.0125561
0.00574297
0.00361426
0.00421054
0.00187616
0.00786666
0.00182042
0.0101491
0.0133106
0.00846068
0.00328851
0.00183075
0.00250573
0.00301529
0.000175027
0.00851108
0.00287409
0.00224128
0.00558943
0.00495162
0.00483378
0.0059725
0.00136214
0.00737855
0.00561175
0.0011731
0.00386352
0.00248123
0.0112409
0.0102281
0.0110274
0.00328364
0.00248241
0.00348516
0.00325215
0.00630305
0.00301422
0.00409508
0.00138097
0.0033494
0.00441113
0.00518379
0.00818954
0.00644614
0.0026268
0.00260453
0.00558868
0.0042188
0.000668991
0.00645525
0.00223329
0.000488461
0.00775675
0.00798735
0.00222275
0.00091948
0.000974129
0.000358954
0.00709511
0.00408774
0.0030272
0.00452942
0.00923783
0.00707918
0.00072365
0.00497462
0.0124856
0.00869189
0.00362416
0.00958432
0.0035963
0.00859502
0.00049676
0.00222614
0.00566165
0.00283883
0.00128612
0.00262251
0.000823081
0.00203008
0.00641723
0.0041042
0.000110769
0.00381225
0.000861735
0.00862153
0.00267518
0.00216398
0.00221758
0.00923148
0.00257369
4.27676e-05
0.00199708
0.0059558
0.0040895
0.000395659
0.0057038
0.00281654
0.00434489
0.00465743
0.00338147
0.00193354
0.00309121
0.00414062
0.00693649
2.91098e-05
0.00501618
0.00308323
0.0036337
0.00490321
0.00238826
0.00250551
0.00112933
0.00333834
0.00200816
0.000193501
0.00266928
0.00095033
0.00258701
0.00586053
0.00739218
0.00140029
0.00144353
0.0016079
0.00429227
0.00176534
0.000757029
0.00471504
0.00378171
0.000981926
0.002747
0.00197963
9.28292e-05
0.00209938
0.000916014
0.00130946
3.84248e-05
0.000694775
0.00461629
0.00339079
0.00468457
0.000823628
0.001246
0.000580696
0.00182576
0.0046671
0.000430285
0.00228842
0.00608884
0.00633479
0.00350447
0.00495373
0.0031372
0.00309248
0.00191087
0.000988915
0.00419243
0.000517972
0.00642173
0.00332091
0.00566977
0.0109188
0.000736329
0.0032364
0.00289682
0.00311457
0.0103147
0.00906816
0.0084881
0.00734992
0.000167113
0.00597648
0.000192762
0.0032339
0.000434374
0.00167114
0.00160093
0.0039386
0.000503895
9.64728e-05
0.00868394
0.000769789
0.0103153
0.00152771
0.000603352
0.00117424
0.00546264
0.00100073
0.00986262
0.0084055
0.00166803
0.00658557
0.00448926
0.00436683
0.00107161
0.00224716
0.00110426
0.00648495
0.00281205
0.00412929
0.00272374
0.00845542
0.00222632
0.00482215
0.00335097
0.00654232
0.0039897
0.00087847
0.00648829
0.00774397
0.00776363
0.00553109
0.00449256
0.00345893
0.00225158
0.00016509
0.00041132
0.000506839
0.000320004
0.00713624
0.00188022
0.00329945
0.00714142
0.000695965
4.0768e-05
0.00379651
0.00102768
0.000757809
0.0081072
0.00546888
0.00489992
0.00370835
0.00334343
0.000820997
0.00466421
0.00233548
0.000580024
0.00398295
0.00554517
0.00198152
0.00579404
0.00189521
0.00121347
0.00567257
0.00100453
0.000584565
0.00336321
0.00447811
0.00146495
0.00202318
0.00115733
0.00331324
0.00103385
0.000460538
0.00222841
0.00336671
0.00248649
0.00849869
0.00369095
0.00212907
0.00113523
0.00359042
0.000110837
0.000699368
0.00332167
0.00472712
0.0020786
0.0016717
0.0033923
0.00824288
0.00131539
0.00025416
0.00147186
0.00358601
0.00438333
0.000670755
0.00345576
0.0033869
7.68556e-05
0.00427771
0.00125973
0.00295979
0.00525849
0.00174568
0.00495706
0.00842398
0.00164204
0.00101712
0.0062012
0.00264385
0.00179984
0.000471302
0.00102699
0.00269423
0.0056642
0.003791
0.00135748
0.00428325
0.00583693
0.00675116
0.00267766
0.00274195
0.00325622
0.0029322
0.00380775
0.0029913
0.00270552
0.00943388
0.000213053
0.00868285
0.000445907
0.0123615
0.00444871
0.000350847
0.00188844
0.000733856
0.00529947
0.00402319
0.000281714
0.000902163
0.00326132
0.000248996
0.00204654
0.000179305
0.00442485
0.00211371
0.000203538
0.00838986
0.00600016
0.00361073
0.00475714
0.00197924
0.00315103
0.00328731
8.14533e-07
0.00570028
0.00182349
0.000341589
0.00078913
0.00580307
0.0044248
0.00659579
0.00536695
0.000289701
0.00366236
0.000259163
0.0021275
0.00692292
0.0059324
0.00303611
0.00306321
0.00123849
0.00196827
0.0037529
0.00243314
0.0048319
0.0011704
0.00105781
0.000344718
0.00192093
0.00149462
0.00158151
0.00582976
0.00145521
0.000447779
0.00281273
0.00856049
0.00218582
0.00761797
5.32638e-05
0.00918085
0.000244781
0.00406355
0.00755216
0.000156703
0.00128842
0.00366282
0.00573451
0.00115945
0.00763518
0.00398605
0.0020981
0.00455297
0.00693563
0.00149847
0.00524105
0.00268901
0.00625829
0.00172213
0.00512529
4.96477e-05
0.00293659
0.000839039
0.0013536
0.00370368
0.00542791
0.00173407
0.0053657
0.00547703
0.000526322
0.000842972
0.00666477
0.00503984
0.00210182
0.00258619
0.00248311
0.00313113
0.00126744
0.00645988
0.000979217
0.00722817
0.00686302
0.00604116
0.00122243
0.0035622
0.00337745
0.00393554
0.000615904
0.0060645
0.00755498
0.00327038
0.00365727
0.00298574
0.00304315
0.000459272
0.0105586
0.000551165
0.000336601
0.00369959
0.00426255
0.00274281
0.000192876
0.00314279
0.00465686
0.00136853
0.00531052
0.00726778
0.0012487
0.012447
0.00116127
0.00802001
0.00371847
0.00366366
0.00289996
0.00108971
0.00358318
0.00278011
0.00223352
0.00100102
0.00282815
0.00231351
0.0048542
0.00598677
0.00451042
0.000633476
0.00165216
0.000532035
0.00461526
0.0030637
0.000270226
0.00763997
0.00424824
0.0067411
0.00340811
0.00190593
0.00175547
0.00178958
0.00154513
0.00457564
0.00506852
0.000133114
0.00450844
0.00118849
0.00385293
0.00379394
0.00341938
0.000457444
0.00239777
0.00332653
0.000385777
0.00491268
0.00415809
0.00310578
0.00342054
2.21816e-05
0.000572187
0.000534503
0.00779877
0.0119501
0.0059886
0.000139935
0.000663672
0.000403631
0.00201636
0.000150912
0.00264706
0.000936642
0.00129186
0.000519571
0.00298484
0.00222621
0.00028238
0.00565891
0.00082538
0.0010487
4.12104e-06
0.00166466
0.000110545
0.00931026
0.0071264
0.00838244
0.00041161
0.00210877
0.00359551
0.0025856
0.00213856
0.0012965
0.00180611
0.00226621
0.00250095
0.00411165
0.0107026
0.000909049
0.00663267
0.000590419
0.00256074
0.00413908
0.00587701
0.00653209
0.0047359
0.000927237
0.000142813
0.00345287
0.00408677
0.00204199
0.000985263
0.00283844
0.00493588
0.000542861
0.00178972
0.00173712
0.000107085
0.0019779
0.0018986
0.00129083
0.00104303
0.00418072
0.00208567
0.000463617
0.00126712
0.00332246
0.00435543
0.00541043
0.00551184
0.0092181
0.00179418
0.0052507
0.0011165
0.00160369
0.00387285
0.00177712
0.00198769
0.00301607
0.00692194
0.000687132
0.00279149
0.00191133
0.00451547
0.00878608
0.000304826
0.00125957
0.000280296
0.00134778
0.00377344
0.00196655
0.00169479
0.000302858
0.00677784
0.000960816
0.00453918
0.00527848
0.00235709
0.00593877
0.00689396
0.000589384
0.00406829
0.00078737
0.00234554
0.00678865
0.00124401
0.00311713
0.00397618
0.00468522
0.00611104
0.00249903
0.00543054
0.00305996
0.00429791
0.000906184
0.00526631
0.00108284
0.00715417
0.00247329
0.00621128
0.000882532
0.00134247
0.0100164
0.00202107
0.00322673
0.00127192
0.00446813
0.00238998
0.00184391
0.00570598
0.00403622
0.00248706
0.00485886
0.000110536
0.000196576
0.00448763
0.00371351
0.00526106
0.00396114
0.00230521
0.000111644
0.0138898
0.00346311
3.57936e-05
0.00380251
0.00544825
0.000700319
0.00064534
0.00839046
0.00843704
0.0034057
0.0100985
0.00213033
0.0037118
0.000908181
0.0070364
0.00204131
0.000376415
0.00221471
0.000331921
0.00390395
0.0022324
0.0032235
0.00694262
0.00232383
0.00250604
0.00235266
0.00304499
0.00220222
0.00425417
0.00459172
0.000691399
0.00529043
0.000742915
0.0037164
0.00172837
0.000723
0.00439782
0.00217074
0.00116955
0.00290103
0.00223102
0.0014821
0.00354459
0.0020486
0.00795902
0.00127051
0.00238348
0.00324956
0.00832176
0.00617262
0.00355064
0.00199699
0.00933636
0.00401399
0.00368394
0.00180243
0.000671443
0.00239517
0.000272068
0.00326193
0.00318551
0.000246364
0.00663829
0.0051288
0.00632572
0.00417837
0.000957639
0.00239798
0.00743564
0.00316025
0.000140386
0.0029622
2.38058e-05
0.00152058
0.000350489
0.00165897
0.00196388
0.00535225
0.00473489
0.00385981
0.00430828
6.48202e-05
0.00307651
0.00266074
0.00125523
0.00245997
0.00598929
0.0060332
0.00399076
0.00964648
0.000595593
0.000539314
0.00157057
0.00664181
0.00120251
0.00487173
0.0012874
0.000900398
0.000877545
0.00143189
0.00190413
0.0027521
0.00393444
0.000608379
0.00610844
0.00458314
0.00144056
0.00266696
0.00228328
0.00103153
0.00301375
0.0028182
0.00232192
0.00225437
0.00363673
0.00240272
0.00165166
0.00244741
0.000494535
0.00239484
0.00459275
0.00323389
0.00752147
0.0012144
0.00146282
0.000464318
0.000182787
0.00295527
2.14836e-05
0.0010772
0.00680927
0.00229883
0.00165666
0.00203559
0.0016462
0.00610535
0.00333316
0.00448347
0.0049627
0.00363842
0.00320564
0.00267694
0.00503129
0.00503859
0.00220324
0.00606928
0.00379682
0.00739736
0.00160982
0.00840556
0.00060002
0.00177903
0.00125468
0.00264367
0.000545201
0.00284825
0.00082965
0.00294898
0.00138596
0.00262241
4.05408e-06
0.00782193
0.00530592
0.00404556
0.000809644
0.00693456
0.000489961
0.0102175
0.0096215
0.0060082
0.00666137
0.00621251
0.00366311
0.00737833
0.00493224
0.00270737
0.00512353
0.00205467
0.00180289
0.00552211
0.00302041
0.00156847
0.0035738
0.00207658
0.000820163
1.39026e-05
0.0114481
0.00182573
0.000882863
0.000853328
0.00218697
0.00165955
0.00932142
0.00124513
0.00058773
0.00593272
6.6096e-05
0.00108446
0.000647075
0.00453538
0.000969574
0.00305339
0.00189338
0.00161076
0.00105897
0.0113254
0.00589423
0.00197924
0.0131368
0.00265318
0.000143084
0.00331692
0.00501665
4.15894e-05
0.000280592
0.00268718
0.00277261
0.00565671
4.89474e-05
0.0111318
0.00500019
0.0003405
0.00189725
0.00147265
0.00637549
0.0053339
0.00138809
0.00743255
0.00323494
0.0005261
0.00252369
0.0048181
0.00282585
0.00661266
0.00442462
0.00129463
0.00205822
0.0100462
0.00236193
0.00299547
0.0104128
0.00464476
0.00144168
0.0018938
0.000140469
0.00262547
0.00467183
0.00821007
0.00118685