/*--------------------------------*- C++ -*----------------------------------*\
| =========                 |                                                 |
| \\      /  F ield         | OpenFOAM: The Open Source CFD Toolbox           |
|  \\    /   O peration     | Version:  2212                                  |
|   \\  /    A nd           | Website:  www.openfoam.com                      |
|    \\/     M anipulation  |                                                 |
\*---------------------------------------------------------------------------*/
FoamFile
{
    version     2.0;
    format      ascii;
    arch        "LSB;label=32;scalar=64";
    class       volScalarField;
    location    "0";
    object      T;
}
// * * * * * * * * * * * * * * * * * * * * * * * * * * * * * * * * * * * * * //

dimensions      [0 0 0 1 0 0 0];

internalField   nonuniform List<scalar> 
3200
(
349.001
347.852
346.878
346.77
347.026
347.739
348.372
349.105
349.797
350.206
350.231
349.949
349.296
348.369
347.144
346.03
345.663
345.559
346.089
347.22
342.682
341.757
340.913
340.851
341.06
341.682
342.2
342.828
343.466
343.811
343.854
343.605
343.034
342.236
341.179
340.234
339.913
339.818
340.291
341.221
336.281
335.532
334.807
334.791
334.955
335.499
335.929
336.416
336.99
337.268
337.294
337.09
336.647
335.942
335.05
334.298
334.019
333.942
334.322
335.086
329.792
329.203
328.584
328.621
328.741
329.2
329.53
329.909
330.406
330.658
330.639
330.459
330.129
329.55
328.844
328.236
327.984
327.944
328.237
328.846
323.25
322.805
322.289
322.345
322.451
322.787
323.054
323.34
323.725
323.95
323.917
323.75
323.504
323.064
322.546
322.054
321.861
321.839
322.065
322.52
316.636
316.35
315.979
316.004
316.098
316.317
316.523
316.713
317.01
317.156
317.114
317.015
316.83
316.506
316.169
315.812
315.67
315.644
315.825
316.124
309.993
309.849
309.617
309.638
309.695
309.82
309.954
310.05
310.247
310.325
310.306
310.237
310.13
309.917
309.737
309.51
309.442
309.411
309.528
309.687
303.359
303.306
303.225
303.222
303.253
303.287
303.35
303.383
303.44
303.466
303.464
303.426
303.397
303.321
303.266
303.196
303.175
303.162
303.205
303.238
349.403
348.153
347.264
347.075
347.569
348.141
349.025
349.786
350.475
350.815
350.998
350.685
349.992
349.101
347.833
346.776
346.152
345.781
346.482
347.495
343.06
341.99
341.266
341.098
341.507
341.996
342.758
343.416
344.024
344.305
344.467
344.213
343.632
342.86
341.775
340.869
340.332
340
340.639
341.44
336.62
335.714
335.11
334.999
335.308
335.741
336.369
336.92
337.446
337.673
337.814
337.608
337.14
336.493
335.547
334.82
334.369
334.075
334.64
335.267
330.068
329.341
328.862
328.784
329.027
329.382
329.888
330.31
330.768
330.954
331.069
330.883
330.526
330.006
329.23
328.627
328.305
328.064
328.519
328.987
323.463
322.902
322.54
322.495
322.677
322.935
323.315
323.655
324.005
324.161
324.245
324.092
323.826
323.427
322.832
322.347
322.126
321.941
322.299
322.645
316.797
316.413
316.156
316.14
316.254
316.437
316.719
316.962
317.207
317.315
317.37
317.266
317.064
316.772
316.369
316.005
315.868
315.729
315.997
316.237
310.106
309.886
309.725
309.723
309.778
309.888
310.054
310.205
310.335
310.421
310.45
310.394
310.269
310.105
309.86
309.644
309.559
309.469
309.639
309.786
303.39
303.318
303.266
303.261
303.286
303.321
303.376
303.42
303.464
303.504
303.509
303.477
303.446
303.39
303.3
303.246
303.207
303.178
303.241
303.295
350.137
348.752
347.956
347.826
348.299
348.963
349.972
350.709
351.528
351.994
352.217
351.867
351.196
350.194
348.873
347.806
346.958
346.735
347.33
348.31
343.7
342.542
341.86
341.748
342.107
342.683
343.547
344.203
344.913
345.321
345.508
345.213
344.662
343.774
342.67
341.733
341.037
340.842
341.355
342.164
337.175
336.203
335.625
335.548
335.792
336.272
337.015
337.59
338.201
338.529
338.692
338.443
337.976
337.25
336.322
335.528
334.956
334.783
335.24
335.875
330.554
329.737
329.287
329.236
329.393
329.791
330.378
330.881
331.402
331.657
331.774
331.574
331.187
330.627
329.863
329.205
328.746
328.619
329.002
329.488
323.837
323.213
322.841
322.85
322.972
323.252
323.702
324.106
324.535
324.698
324.788
324.646
324.335
323.908
323.325
322.817
322.453
322.378
322.654
323.02
317.07
316.617
316.333
316.378
316.462
316.66
316.981
317.273
317.584
317.696
317.739
317.638
317.427
317.112
316.722
316.357
316.081
316.049
316.242
316.498
310.272
309.999
309.827
309.85
309.894
310.032
310.211
310.386
310.59
310.634
310.681
310.619
310.492
310.289
310.05
309.848
309.67
309.646
309.765
309.933
303.445
303.358
303.305
303.301
303.316
303.362
303.422
303.472
303.552
303.564
303.579
303.558
303.511
303.447
303.369
303.302
303.242
303.235
303.276
303.336
351.078
349.714
348.983
348.851
349.232
350.097
351.149
351.927
352.827
353.482
353.674
353.282
352.635
351.471
350.192
348.915
348.064
347.969
348.49
349.268
344.497
343.378
342.714
342.603
342.936
343.685
344.573
345.263
346.027
346.595
346.774
346.43
345.901
344.885
343.764
342.695
341.967
341.9
342.357
342.984
337.817
336.887
336.332
336.257
336.518
337.149
337.899
338.498
339.138
339.592
339.743
339.454
339.028
338.168
337.206
336.349
335.738
335.69
336.075
336.598
331.045
330.311
329.848
329.82
330.009
330.522
331.118
331.632
332.155
332.509
332.64
332.391
332.07
331.356
330.561
329.887
329.4
329.354
329.664
330.089
324.246
323.658
323.279
323.283
323.415
323.815
324.273
324.678
325.108
325.378
325.47
325.236
325.043
324.484
323.839
323.34
322.959
322.926
323.166
323.492
317.377
316.95
316.675
316.681
316.778
317.058
317.377
317.662
317.981
318.177
318.214
318.065
317.937
317.532
317.068
316.713
316.441
316.432
316.608
316.824
310.443
310.207
310.033
310.037
310.092
310.272
310.445
310.614
310.823
310.926
310.935
310.891
310.784
310.532
310.267
310.037
309.893
309.886
309.99
310.119
303.497
303.428
303.36
303.373
303.386
303.446
303.494
303.561
303.626
303.658
303.662
303.653
303.617
303.528
303.447
303.36
303.32
303.318
303.353
303.391
352.017
350.939
350.059
350.105
350.529
351.48
352.443
353.356
354.412
355.085
355.317
355.013
354.318
353.031
351.737
350.386
349.641
349.34
349.774
350.595
345.318
344.429
343.643
343.689
344.063
344.874
345.677
346.463
347.374
347.979
348.176
347.916
347.351
346.256
345.102
343.938
343.343
343.076
343.478
344.134
338.499
337.793
337.109
337.169
337.486
338.146
338.795
339.455
340.231
340.759
340.932
340.706
340.267
339.337
338.338
337.381
336.893
336.678
337.019
337.566
331.6
331.058
330.482
330.571
330.809
331.333
331.822
332.39
333.012
333.467
333.606
333.409
333.067
332.319
331.474
330.727
330.328
330.159
330.433
330.877
324.636
324.222
323.8
323.87
324.057
324.441
324.809
325.258
325.749
326.09
326.195
326.047
325.787
325.217
324.538
323.983
323.68
323.571
323.782
324.118
317.64
317.348
317.054
317.11
317.237
317.488
317.742
318.103
318.418
318.664
318.756
318.647
318.459
318.046
317.57
317.19
316.974
316.913
317.048
317.296
310.59
310.443
310.256
310.304
310.364
310.515
310.667
310.884
311.063
311.217
311.303
311.214
311.106
310.841
310.554
310.345
310.226
310.189
310.281
310.409
303.555
303.515
303.438
303.457
303.47
303.524
303.578
303.645
303.705
303.765
303.793
303.761
303.727
303.629
303.545
303.464
303.426
303.415
303.453
303.49
353.285
352.187
351.526
351.519
351.94
352.756
354.002
355.073
356.126
356.729
357.025
356.652
355.912
354.642
353.314
352.131
351.231
350.952
351.504
352.19
346.378
345.486
344.909
344.907
345.263
345.973
347.021
347.956
348.869
349.389
349.651
349.327
348.71
347.641
346.505
345.485
344.703
344.468
344.96
345.507
339.388
338.662
338.198
338.16
338.478
339.083
339.952
340.738
341.503
341.924
342.177
341.895
341.396
340.516
339.54
338.696
338.023
337.842
338.263
338.733
332.339
331.761
331.368
331.346
331.582
332.104
332.806
333.456
334.057
334.394
334.616
334.404
333.951
333.267
332.466
331.804
331.257
331.116
331.462
331.84
325.221
324.791
324.446
324.45
324.595
325.056
325.585
326.11
326.552
326.806
326.984
326.837
326.487
325.943
325.304
324.814
324.389
324.299
324.578
324.848
318.056
317.769
317.492
317.505
317.581
317.951
318.313
318.697
318.993
319.199
319.318
319.231
318.963
318.575
318.116
317.756
317.466
317.417
317.634
317.8
310.861
310.694
310.519
310.524
310.57
310.8
311.01
311.255
311.419
311.555
311.625
311.572
311.426
311.17
310.893
310.702
310.49
310.489
310.613
310.707
303.631
303.582
303.526
303.529
303.539
303.616
303.693
303.784
303.825
303.87
303.913
303.879
303.832
303.749
303.657
303.592
303.52
303.517
303.566
303.592
354.771
353.754
353.167
353.183
353.574
354.37
355.602
356.801
357.77
358.514
358.935
358.526
357.822
356.539
355.175
354.029
353.165
352.768
353.223
353.98
347.658
346.832
346.314
346.337
346.662
347.357
348.439
349.46
350.287
350.932
351.287
350.944
350.346
349.251
348.093
347.109
346.374
346.04
346.434
347.085
340.46
339.797
339.356
339.38
339.642
340.247
341.153
342.029
342.696
343.227
343.542
343.252
342.741
341.861
340.899
340.07
339.46
339.182
339.513
340.043
333.209
332.686
332.297
332.341
332.54
333.035
333.796
334.502
335.041
335.484
335.718
335.482
335.054
334.392
333.605
332.935
332.433
332.197
332.465
332.897
325.906
325.479
325.178
325.246
325.378
325.773
326.364
326.881
327.333
327.675
327.842
327.664
327.301
326.83
326.226
325.716
325.304
325.129
325.332
325.68
318.547
318.233
318.017
318.103
318.163
318.47
318.872
319.222
319.571
319.811
319.928
319.804
319.534
319.22
318.782
318.428
318.134
318.002
318.14
318.392
311.157
310.966
310.828
310.901
310.907
311.125
311.35
311.557
311.762
311.92
311.976
311.905
311.745
311.553
311.289
311.082
310.921
310.813
310.923
311.067
303.747
303.67
303.641
303.667
303.655
303.737
303.798
303.881
303.941
304.005
304.018
303.99
303.94
303.879
303.78
303.706
303.668
303.632
303.67
303.715
356.482
355.526
354.847
354.837
355.369
356.191
357.314
358.487
359.62
360.385
360.759
360.567
359.692
358.528
357.256
355.953
355.165
354.814
355.168
355.902
349.141
348.33
347.77
347.77
348.22
348.945
349.922
350.915
351.909
352.564
352.885
352.716
351.981
350.975
349.894
348.766
348.124
347.808
348.122
348.726
341.688
341.066
340.593
340.577
340.946
341.593
342.416
343.239
344.089
344.657
344.917
344.786
344.16
343.326
342.407
341.459
340.931
340.663
340.937
341.442
334.222
333.736
333.324
333.287
333.572
334.156
334.804
335.494
336.197
336.636
336.858
336.744
336.244
335.567
334.825
334.05
333.632
333.441
333.628
334.055
326.672
326.316
325.989
325.968
326.147
326.638
327.135
327.682
328.227
328.534
328.737
328.667
328.271
327.743
327.173
326.559
326.232
326.137
326.234
326.594
319.095
318.849
318.596
318.598
318.704
319.066
319.435
319.807
320.205
320.394
320.568
320.524
320.238
319.87
319.467
319.021
318.799
318.741
318.797
319.081
311.486
311.332
311.171
311.191
311.233
311.47
311.684
311.903
312.154
312.246
312.36
312.341
312.159
311.963
311.711
311.443
311.322
311.284
311.316
311.481
303.851
303.799
303.755
303.755
303.766
303.851
303.915
303.99
304.072
304.106
304.127
304.148
304.077
304.015
303.93
303.84
303.798
303.789
303.8
303.859
358.327
357.425
356.67
356.666
357.091
358.037
359.064
360.256
361.29
362.173
362.66
362.462
361.611
360.4
359.121
358.008
357.26
356.962
357.142
357.867
350.713
349.967
349.335
349.325
349.7
350.531
351.401
352.43
353.35
354.107
354.52
354.373
353.631
352.599
351.499
350.562
349.923
349.644
349.807
350.423
343.007
342.426
341.907
341.898
342.231
342.928
343.652
344.521
345.309
345.95
346.299
346.178
345.549
344.696
343.779
342.979
342.453
342.202
342.346
342.881
335.261
334.799
334.384
334.378
334.65
335.215
335.839
336.534
337.178
337.703
338
337.919
337.347
336.703
335.918
335.319
334.87
334.682
334.769
335.248
327.485
327.134
326.79
326.8
327.002
327.429
327.942
328.49
328.969
329.375
329.638
329.588
329.114
328.637
327.992
327.546
327.216
327.058
327.12
327.523
319.658
319.418
319.13
319.164
319.319
319.616
319.997
320.399
320.717
321.006
321.196
321.178
320.849
320.501
320.046
319.718
319.498
319.378
319.423
319.704
311.816
311.681
311.492
311.514
311.612
311.786
312.023
312.267
312.454
312.627
312.731
312.731
312.544
312.323
312.067
311.857
311.722
311.643
311.667
311.849
303.957
303.911
303.85
303.855
303.896
303.95
304.028
304.116
304.179
304.241
304.265
304.264
304.203
304.137
304.042
303.973
303.935
303.896
303.912
303.97
360.111
359.299
358.645
358.573
358.928
359.717
360.802
362.056
362.925
363.969
364.448
364.159
363.38
362.311
361.106
360.019
359.306
359.088
359.227
359.827
352.294
351.612
351.07
350.97
351.285
351.98
352.915
354.018
354.718
355.641
356.075
355.82
355.156
354.251
353.205
352.273
351.678
351.512
351.641
352.147
344.41
343.852
343.371
343.276
343.579
344.146
344.933
345.869
346.417
347.233
347.59
347.4
346.835
346.066
345.18
344.418
343.926
343.804
343.911
344.352
336.427
336.015
335.577
335.518
335.785
336.237
336.843
337.624
338.061
338.759
339.013
338.88
338.433
337.821
337.075
336.465
336.061
335.986
336.065
336.422
328.4
328.076
327.71
327.695
327.925
328.258
328.736
329.328
329.661
330.225
330.404
330.306
329.967
329.481
328.917
328.425
328.128
328.095
328.14
328.391
320.314
320.087
319.808
319.819
320.005
320.216
320.572
320.988
321.219
321.635
321.756
321.686
321.465
321.091
320.713
320.336
320.137
320.11
320.141
320.325
312.201
312.071
311.883
311.918
312.035
312.162
312.376
312.611
312.76
312.991
313.072
313.038
312.907
312.704
312.447
312.222
312.097
312.105
312.097
312.219
304.107
304.047
303.988
304.001
304.041
304.075
304.144
304.218
304.282
304.358
304.374
304.377
304.333
304.266
304.176
304.101
304.057
304.063
304.072
304.098
362.151
361.267
360.604
360.622
360.83
361.658
362.458
363.814
364.702
365.721
365.907
365.733
365.14
364.155
362.918
361.96
361.456
361.295
361.462
361.961
354.038
353.309
352.733
352.734
352.898
353.637
354.336
355.505
356.284
357.191
357.302
357.196
356.685
355.848
354.783
353.974
353.559
353.415
353.576
353.987
345.839
345.266
344.767
344.742
344.902
345.519
346.111
347.117
347.758
348.553
348.619
348.554
348.134
347.428
346.539
345.863
345.522
345.384
345.553
345.884
337.591
337.148
336.712
336.7
336.828
337.329
337.827
338.662
339.146
339.828
339.872
339.828
339.495
338.913
338.213
337.651
337.393
337.285
337.414
337.661
329.29
328.987
328.602
328.591
328.711
329.081
329.515
330.132
330.492
331.023
331.065
331.043
330.814
330.335
329.815
329.363
329.191
329.103
329.196
329.368
320.927
320.765
320.45
320.453
320.544
320.784
321.125
321.564
321.826
322.177
322.212
322.202
322.055
321.733
321.346
321.017
320.907
320.841
320.908
321.029
312.571
312.49
312.285
312.306
312.353
312.487
312.691
312.961
313.13
313.325
313.342
313.351
313.266
313.079
312.828
312.623
312.571
312.545
312.569
312.666
304.219
304.196
304.12
304.139
304.138
304.183
304.254
304.341
304.403
304.466
304.472
304.488
304.454
304.387
304.307
304.238
304.211
304.212
304.22
304.251
363.945
363.229
362.673
362.492
362.744
363.458
364.371
365.321
366.398
367.287
367.489
367.451
366.805
365.855
364.852
364.002
363.482
363.259
363.455
364.117
355.611
355.034
354.519
354.373
354.578
355.206
355.992
356.817
357.747
358.526
358.697
358.667
358.131
357.323
356.453
355.747
355.308
355.092
355.299
355.857
347.193
346.736
346.251
346.152
346.33
346.864
347.487
348.231
349.016
349.669
349.805
349.786
349.358
348.666
347.963
347.366
346.977
346.822
347.024
347.453
338.722
338.345
337.924
337.855
338.025
338.445
338.937
339.562
340.198
340.724
340.846
340.801
340.509
339.922
339.382
338.883
338.56
338.437
338.623
338.971
330.21
329.878
329.552
329.488
329.633
329.958
330.356
330.857
331.316
331.724
331.82
331.797
331.589
331.114
330.698
330.315
330.059
329.976
330.121
330.41
321.625
321.38
321.126
321.084
321.195
321.439
321.72
322.089
322.413
322.687
322.748
322.744
322.62
322.269
321.989
321.713
321.529
321.473
321.562
321.78
313.007
312.864
312.694
312.677
312.729
312.899
313.038
313.296
313.48
313.621
313.663
313.688
313.607
313.395
313.237
313.064
312.945
312.919
312.955
313.107
304.358
304.325
304.254
304.259
304.271
304.336
304.371
304.454
304.523
304.562
304.588
304.59
304.577
304.487
304.426
304.393
304.336
304.337
304.345
304.389
366.045
365.293
364.622
364.457
364.677
365.33
366.105
367.071
368.106
368.846
369.098
368.89
368.384
367.581
366.794
365.95
365.564
365.44
365.611
366.356
357.39
356.795
356.217
356.074
356.247
356.824
357.515
358.33
359.25
359.886
360.109
359.935
359.482
358.811
358.138
357.446
357.111
356.971
357.172
357.799
348.69
348.192
347.697
347.588
347.727
348.215
348.829
349.512
350.295
350.805
351.016
350.878
350.469
349.909
349.395
348.816
348.528
348.389
348.605
349.117
339.925
339.514
339.106
339.048
339.14
339.563
340.069
340.588
341.252
341.66
341.828
341.746
341.386
340.941
340.55
340.078
339.853
339.737
339.92
340.316
331.127
330.777
330.466
330.443
330.514
330.85
331.253
331.645
332.149
332.45
332.587
332.515
332.249
331.909
331.623
331.259
331.083
330.98
331.128
331.458
322.285
322.018
321.804
321.805
321.843
322.074
322.377
322.637
322.98
323.211
323.301
323.259
323.085
322.841
322.635
322.396
322.266
322.184
322.277
322.543
313.411
313.235
313.116
313.117
313.151
313.275
313.459
313.592
313.808
313.949
313.995
313.969
313.874
313.741
313.601
313.466
313.394
313.336
313.396
313.559
304.503
304.44
304.404
304.391
304.421
304.457
304.51
304.561
304.622
304.679
304.695
304.678
304.663
304.608
304.561
304.523
304.491
304.487
304.493
304.548
368.017
367.065
366.634
366.462
366.524
367.166
367.825
368.698
369.673
370.163
370.543
370.266
369.815
369.232
368.657
367.98
367.589
367.449
367.8
368.343
359.11
358.326
357.949
357.789
357.855
358.418
359.001
359.729
360.618
361.025
361.36
361.108
360.745
360.242
359.755
359.184
358.862
358.72
359.044
359.527
350.146
349.481
349.154
349.03
349.117
349.584
350.093
350.684
351.452
351.79
352.08
351.864
351.544
351.148
350.736
350.264
350.004
349.865
350.147
350.57
341.111
340.58
340.301
340.223
340.308
340.666
341.102
341.546
342.185
342.481
342.704
342.549
342.26
341.976
341.643
341.257
341.056
340.918
341.16
341.502
332.017
331.62
331.418
331.375
331.425
331.701
332.05
332.374
332.862
333.089
333.292
333.17
332.915
332.73
332.482
332.145
332.012
331.913
332.085
332.363
322.901
322.643
322.49
322.456
322.477
322.688
322.954
323.158
323.507
323.676
323.842
323.746
323.534
323.426
323.246
323.002
322.892
322.856
322.954
323.162
313.77
313.618
313.54
313.499
313.502
313.649
313.799
313.905
314.147
314.234
314.326
314.293
314.142
314.089
313.962
313.82
313.767
313.751
313.794
313.916
304.622
304.568
304.545
304.52
304.518
304.575
304.623
304.668
304.752
304.774
304.804
304.794
304.744
304.723
304.678
304.633
304.613
304.618
304.616
304.67
370.077
369.193
368.73
368.408
368.36
368.85
369.53
370.317
371.069
371.546
371.857
371.694
371.405
370.866
370.355
369.876
369.602
369.49
369.855
370.421
360.911
360.179
359.759
359.493
359.424
359.851
360.484
361.169
361.821
362.211
362.494
362.356
362.096
361.679
361.224
360.838
360.614
360.507
360.818
361.32
351.641
351.049
350.707
350.481
350.433
350.769
351.345
351.907
352.462
352.778
353.051
352.937
352.689
352.359
351.955
351.688
351.49
351.396
351.666
352.117
342.338
341.856
341.587
341.391
341.385
341.647
342.133
342.56
343.06
343.279
343.521
343.441
343.205
342.94
342.634
342.441
342.274
342.187
342.398
342.776
332.982
332.608
332.406
332.234
332.284
332.475
332.851
333.171
333.585
333.724
333.909
333.874
333.684
333.455
333.251
333.107
332.982
332.92
333.067
333.356
323.6
323.334
323.188
323.054
323.119
323.256
323.523
323.737
324.032
324.14
324.273
324.226
324.123
323.929
323.802
323.704
323.615
323.55
323.664
323.876
314.182
314.013
313.943
313.853
313.9
314.012
314.16
314.262
314.45
314.524
314.589
314.57
314.501
314.385
314.293
314.25
314.204
314.153
314.22
314.361
304.753
304.679
304.68
304.642
304.657
304.703
304.753
304.786
304.845
304.873
304.887
304.883
304.858
304.817
304.785
304.779
304.766
304.753
304.779
304.824
372.055
371.19
370.7
370.303
370.438
370.709
371.248
371.96
372.565
372.885
373.2
373.27
372.869
372.431
372.006
371.735
371.47
371.596
371.88
372.431
362.638
361.882
361.45
361.151
361.23
361.484
361.951
362.562
363.127
363.364
363.682
363.719
363.394
363.039
362.656
362.45
362.228
362.37
362.585
363.069
353.16
352.501
352.118
351.899
351.934
352.169
352.576
353.085
353.576
353.747
354.052
354.062
353.826
353.518
353.189
353.029
352.85
352.971
353.166
353.582
343.611
343.064
342.719
342.574
342.582
342.776
343.132
343.539
343.948
344.078
344.344
344.357
344.155
343.895
343.633
343.494
343.364
343.467
343.64
343.962
334.007
333.565
333.274
333.186
333.159
333.315
333.635
333.944
334.241
334.343
334.561
334.575
334.431
334.205
334.019
333.899
333.803
333.884
334.037
334.268
324.321
324.015
323.812
323.756
323.701
323.808
324.084
324.287
324.491
324.563
324.722
324.741
324.651
324.456
324.352
324.268
324.181
324.251
324.357
324.537
314.627
314.448
314.326
314.289
314.245
314.29
314.476
314.598
314.718
314.772
314.865
314.872
314.836
314.668
314.634
314.592
314.533
314.587
314.65
314.757
304.902
304.846
304.799
304.784
304.789
304.788
304.857
304.89
304.936
304.963
304.982
304.987
304.981
304.912
304.909
304.895
304.874
304.891
304.914
304.949
374.08
373.119
372.653
372.302
372.266
372.475
372.899
373.574
374.095
374.441
374.638
374.681
374.425
374.015
373.687
373.37
373.346
373.671
373.866
374.375
364.393
363.56
363.162
362.837
362.824
362.98
363.373
363.984
364.448
364.736
364.947
364.949
364.731
364.417
364.116
363.841
363.835
364.161
364.291
364.743
354.627
353.925
353.589
353.307
353.29
353.413
353.759
354.285
354.685
354.939
355.138
355.105
354.946
354.691
354.412
354.226
354.214
354.477
354.589
354.984
344.792
344.229
343.958
343.718
343.691
343.807
344.093
344.503
344.828
345.048
345.227
345.19
345.073
344.856
344.634
344.497
344.496
344.698
344.797
345.134
334.885
334.443
334.254
334.05
334.039
334.144
334.36
334.695
334.913
335.087
335.242
335.209
335.124
334.942
334.794
334.692
334.691
334.827
334.91
335.202
324.952
324.635
324.509
324.335
324.334
324.424
324.555
324.863
324.978
325.091
325.22
325.203
325.14
324.991
324.889
324.829
324.837
324.909
324.975
325.196
314.995
314.794
314.741
314.629
314.619
314.68
314.764
314.954
315.005
315.079
315.168
315.16
315.136
315.01
314.959
314.923
314.926
314.982
314.999
315.134
305.032
304.97
304.937
304.901
304.901
304.919
304.953
305.01
305.025
305.064
305.086
305.087
305.078
305.031
305.021
304.997
305.007
305.028
305.032
305.081
376.071
375.17
374.485
374.19
374.073
374.237
374.643
375.03
375.572
375.85
376.076
376.016
375.92
375.591
375.369
375.221
375.09
375.522
375.838
376.434
366.095
365.338
364.738
364.473
364.373
364.545
364.871
365.232
365.721
365.952
366.162
366.102
366.034
365.748
365.553
365.438
365.34
365.716
366.021
366.515
356.024
355.437
354.905
354.685
354.61
354.75
355.014
355.336
355.778
355.938
356.136
356.086
356.037
355.776
355.64
355.519
355.469
355.799
356.059
356.464
345.898
345.464
345.014
344.843
344.757
344.887
345.111
345.372
345.723
345.871
346.011
345.956
345.943
345.746
345.633
345.515
345.502
345.786
345.986
346.329
335.749
335.423
335.053
334.948
334.874
334.969
335.13
335.336
335.615
335.735
335.839
335.814
335.81
335.654
335.549
335.462
335.457
335.689
335.847
336.142
325.57
325.361
325.09
324.993
324.946
325.019
325.107
325.275
325.485
325.539
325.64
325.63
325.608
325.499
325.424
325.361
325.384
325.543
325.678
325.865
315.353
315.258
315.081
315.028
314.997
315.048
315.083
315.185
315.322
315.341
315.411
315.409
315.408
315.327
315.27
315.231
315.268
315.359
315.456
315.566
305.142
305.121
305.062
305.042
305.027
305.055
305.051
305.091
305.135
305.151
305.175
305.169
305.167
305.147
305.116
305.101
305.124
305.156
305.196
305.228
377.789
376.88
376.305
375.89
375.85
375.859
376.279
376.536
377.003
377.171
377.362
377.447
377.342
377.037
376.882
376.926
376.862
377.173
377.623
378.324
367.553
366.791
366.312
365.947
365.913
365.897
366.281
366.519
366.949
367.085
367.261
367.314
367.236
366.986
366.858
366.906
366.876
367.135
367.508
368.115
357.239
356.62
356.219
355.941
355.888
355.857
356.208
356.416
356.789
356.904
357.074
357.096
357.023
356.829
356.718
356.768
356.766
356.989
357.282
357.797
346.857
346.413
346.071
345.857
345.801
345.78
346.098
346.251
346.566
346.671
346.794
346.795
346.746
346.601
346.487
346.544
346.542
346.763
346.947
347.395
336.481
336.167
335.867
335.713
335.668
335.667
335.924
336.027
336.287
336.392
336.432
336.435
336.416
336.302
336.214
336.285
336.285
336.48
336.58
336.927
326.07
325.864
325.655
325.538
325.518
325.526
325.685
325.775
325.969
326.043
326.061
326.057
326.048
325.953
325.902
325.982
325.973
326.119
326.171
326.406
315.664
315.548
315.425
315.337
315.335
315.344
315.446
315.5
315.607
315.648
315.657
315.655
315.652
315.581
315.554
315.608
315.617
315.716
315.739
315.862
305.239
305.209
305.175
305.143
305.138
305.152
305.19
305.199
305.224
305.252
305.251
305.248
305.252
305.217
305.207
305.228
305.243
305.281
305.276
305.315
379.168
378.169
377.533
377.319
377.058
377.18
377.317
377.681
378.001
378.288
378.36
378.465
378.47
378.135
378.034
378.044
378.182
378.456
379.007
379.783
368.705
367.858
367.272
367.135
366.897
366.999
367.138
367.468
367.764
368.023
368.067
368.158
368.184
367.895
367.787
367.83
367.949
368.203
368.678
369.338
358.194
357.493
356.989
356.886
356.687
356.75
356.902
357.203
357.451
357.675
357.696
357.781
357.83
357.555
357.456
357.542
357.629
357.871
358.244
358.823
347.664
347.109
346.685
346.602
346.431
346.484
346.621
346.892
347.064
347.261
347.293
347.333
347.402
347.164
347.071
347.165
347.258
347.471
347.728
348.224
337.099
336.684
336.332
336.275
336.163
336.186
336.296
336.5
336.625
336.83
336.848
336.86
336.913
336.708
336.66
336.752
336.839
336.988
337.174
337.549
326.541
326.242
325.976
325.912
325.851
325.865
325.953
326.088
326.171
326.36
326.338
326.362
326.412
326.235
326.205
326.285
326.369
326.461
326.602
326.861
315.952
315.778
315.606
315.555
315.533
315.526
315.599
315.663
315.702
315.855
315.83
315.853
315.864
315.758
315.728
315.781
315.86
315.893
316.005
316.156
305.341
305.287
305.233
305.205
305.207
305.202
305.23
305.242
305.264
305.322
305.304
305.322
305.31
305.275
305.27
305.293
305.319
305.327
305.376
305.423
)
;

boundaryField
{
    hotSide
    {
        type            fixedGradient;
        gradient        nonuniform List<scalar> 
400
(
495.278
498.459
505.007
514.831
527.588
542.789
559.909
578.467
598.065
618.39
639.205
660.338
681.668
703.117
724.639
746.215
767.844
789.54
811.316
833.183
475.118
478.666
485.822
496.471
510.198
526.425
544.55
564.04
584.468
605.507
626.916
648.528
670.227
691.947
713.653
735.341
757.025
778.734
800.497
822.333
464.02
468.261
476.067
487.309
501.575
518.287
536.844
556.709
577.447
598.724
620.298
641.998
663.715
685.386
706.985
728.519
750.013
771.504
793.031
814.624
461.384
466.62
475.135
486.794
501.242
517.979
536.467
556.209
576.783
597.857
619.185
640.595
661.977
683.275
704.47
725.575
746.625
767.662
788.731
809.868
464.88
471.288
480.606
492.695
507.253
523.869
542.086
561.459
581.597
602.178
622.961
643.776
664.522
685.152
705.659
726.07
746.427
766.783
787.186
807.679
471.86
479.51
489.748
502.418
517.248
533.881
551.913
570.944
590.604
610.589
630.669
650.69
670.571
690.29
709.866
729.347
748.794
768.271
787.838
807.543
480.135
489.039
500.304
513.751
529.11
546.037
564.144
583.037
602.351
621.786
641.127
660.25
679.114
697.743
716.201
734.574
752.95
771.412
790.031
808.862
488.022
498.134
510.483
524.869
541.007
558.533
577.033
596.077
615.27
634.294
652.944
671.141
688.909
706.344
723.578
740.75
757.984
775.386
793.035
810.988
494.185
505.366
518.757
534.144
551.215
569.573
588.745
608.229
627.552
646.349
664.419
681.737
698.423
714.674
730.707
746.723
762.882
779.307
796.08
813.257
497.552
509.534
523.769
540.035
558.005
577.242
597.208
617.306
636.96
655.727
673.399
690.019
705.815
721.095
736.164
751.272
766.608
782.302
798.436
815.057
497.359
509.733
524.434
541.237
559.809
579.687
600.285
620.934
640.973
659.894
677.474
693.803
709.187
724.011
738.63
753.324
768.294
783.67
799.533
815.925
493.282
505.543
520.208
537.053
555.736
575.783
596.6
617.507
637.835
657.069
674.978
691.638
707.343
722.468
737.361
752.303
767.493
783.065
799.102
815.649
485.551
497.2
511.343
527.754
546.086
565.868
586.526
607.426
627.963
647.668
666.304
683.879
700.594
716.732
732.586
748.402
764.371
780.628
797.263
814.332
474.991
485.629
498.903
514.592
532.345
551.699
572.105
592.986
613.806
634.145
653.753
672.566
690.668
708.231
725.461
742.555
759.681
776.968
794.514
812.383
463.001
472.37
484.61
499.513
516.722
535.759
556.077
577.124
598.398
619.503
640.174
660.287
679.837
698.904
717.617
736.116
754.541
773.009
791.617
810.435
451.562
459.537
470.727
484.938
501.782
520.731
541.198
562.612
584.472
606.381
628.064
649.36
670.21
690.633
710.7
730.51
750.173
769.792
789.458
809.242
443.322
449.909
460.115
473.757
490.388
509.393
530.111
551.928
574.329
596.916
619.408
641.629
663.493
684.983
706.135
727.017
747.716
768.323
788.921
809.576
441.49
446.856
456.162
469.239
485.579
504.49
525.245
547.202
569.839
592.763
615.697
638.461
660.954
683.141
705.031
726.67
748.128
769.481
790.802
812.151
448.919
453.4
461.874
474.189
489.845
508.15
528.388
549.926
572.258
595.002
617.885
640.724
663.407
685.88
708.134
730.193
752.104
773.928
795.723
817.535
466.47
470.444
478.141
489.438
503.923
521.012
540.081
560.563
581.99
603.997
626.315
648.754
671.19
693.548
715.799
737.944
760.005
782.02
804.027
826.056
)
;
    }
    coldSide
    {
        type            mixed;
        refValue        uniform 300;
        refGradient     uniform 0;
        valueFraction   uniform 0.991591;
        source          uniform 0;
        value           nonuniform List<scalar> 
400
(
300.028
300.029
300.029
300.029
300.03
300.031
300.032
300.032
300.033
300.035
300.035
300.037
300.038
300.039
300.04
300.041
300.042
300.043
300.044
300.045
300.028
300.028
300.028
300.029
300.03
300.03
300.031
300.032
300.033
300.034
300.035
300.036
300.037
300.038
300.039
300.041
300.042
300.043
300.044
300.044
300.027