/*--------------------------------*- C++ -*----------------------------------*\
| =========                 |                                                 |
| \\      /  F ield         | OpenFOAM: The Open Source CFD Toolbox           |
|  \\    /   O peration     | Version:  2212                                  |
|   \\  /    A nd           | Website:  www.openfoam.com                      |
|    \\/     M anipulation  |                                                 |
\*---------------------------------------------------------------------------*/
FoamFile
{
    version     2.0;
    format      ascii;
    arch        "LSB;label=32;scalar=64";
    class       volScalarField;
    location    "0";
    object      stateMean;
}
// * * * * * * * * * * * * * * * * * * * * * * * * * * * * * * * * * * * * * //

dimensions      [0 0 0 1 0 0 0];

internalField   nonuniform List<scalar> 
3200
(
334.187
330.686
330.879
331.027
332.261
330.619
333.378
335.326
333.271
334.366
335.774
336.097
333.556
332.9
332.777
332.963
331.723
331.432
332.536
332.729
329.38
328.006
326.454
328.33
327.026
327.56
328.856
329.068
329.839
330.21
331.623
329.553
329.958
330.906
330.3
328.714
327.248
327.739
329.463
329.041
324.854
322.43
323.724
324.183
326.015
323.369
326.212
325.876
325.813
325.257
324.374
325.012
324.245
325.691
325.401
324.191
323.826
322.862
325.038
326.167
320.053
319.353
319.668
319.02
322.75
320.661
318.761
320.235
320.243
318.818
320.982
321.406
322.46
319.628
321.584
321.428
320.549
319.039
319.753
319.792
314.014
313.137
316.338
316.853
315.225
316.252
314.129
315.621
317.083
318.538
315.169
319.748
316.392
316.395
315.14
315.388
318.076
315.232
315.585
316.445
311.002
308.777
309.318
311.075
309.391
309.395
311.839
310.345
313.031
311.52
312.844
310.421
311.529
311.812
311.856
310.511
311.898
311.936
310.041
312.161
308.948
307.819
305.118
307.754
305.091
305.257
306.812
307.584
308.022
308.465
305.226
308.013
306.59
306.167
304.844
305.685
307.472
308.481
306.184
306.834
300.31
301.973
302.747
302.192
300.711
301.198
300.804
303.595
302.778
300.379
303.922
300.618
301.899
302.416
301.655
303.476
303.638
302.624
303.223
301.375
333.623
332.896
331.497
331.414
333.367
332.49
334.945
332.821
333.925
335.105
334.243
335.469
334.066
333.973
333.562
334.271
332.528
330.996
333.34
332.691
327.14
329.473
326.268
330.454
328.169
331.138
329.307
332.749
331.422
332.528
332.446
330.962
332.407
329.959
331.433
328.794
330.626
327.803
328.892
330.013
324.252
325.67
322.026
324.158
325.27
324.145
324.286
325.463
324.761
327.013
326.114
327.398
323.827
324.537
325.201
324.403
325.091
326.834
323.308
323.292
320.357
317.996
319.266
319.795
319.943
320.27
319.682
320.406
320.484
321.711
323.097
321.651
321.687
320.827
320.962
319.391
319.064
319.91
320.275
319.134
316.994
317.475
314.836
314.216
314.194
316.705
316.083
316.371
316.305
316.04
316.755
316.166
317.326
317.11
314.714
315.52
315.058
315.353
314.931
315.072
313.057
312.002
310.837
310.188
311.888
310.047
309.659
311.93
309.948
313.066
311.218
311.839
310.206
311.664
312.408
312.323
309.976
310.504
310.914
313.019
306.126
306.118
306.52
305.7
307.3
306.73
305.663
305.935
306.348
307.275
307.852
309.062
307.09
308.553
307.526
307.047
307.07
307.591
308.353
308.402
303.051
301.23
303.295
302.952
302.328
303.5
302.219
301.869
302.026
301.993
303.888
301.045
302.118
303.182
303.567
300.881
303.137
301.626
303.447
303.898
332.591
332.96
332.586
331.098
330.917
334.208
336.316
334.359
333.552
334.525
335.408
334.788
336.049
333.743
333.132
332.872
335.331
332.405
332.063
334.469
330.226
328.524
327.56
329.182
327.447
328.734
328.937
328.125
329.988
330.234
331.834
331.468
330.201
328.328
329.138
330.05
328.703
328.721
330.396
329.255
322.619
323.207
323.469
322.733
323.757
325.695
325.492
325.827
326.026
328.605
325.319
325.766
325.154
326.865
324.352
325.055
326.954
326.392
325.778
324.847
318.439
320.799
321.121
319.466
321.238
321.46
318.9
318.558
323.743
322.185
322.805
322.542
320.774
321.379
321.749
320.956
320.571
319.296
319.989
321.945
315.385
317.077
316.129
314.688
316.471
314.643
314.551
316.377
316.426
315.686
317.875
318.371
315.347
317.323
316.407
317.283
316.945
316.355
317.356
316.683
311.204
311.104
309.753
312.481
311.496
310.28
310.635
309.666
314.448
311.618
312.714
312.991
311.262
313.304
311.88
311.953
310.387
310.796
311.52
311.646
307.182
307.864
307.056
308.069
307.761
308.657
306.181
309.233
305.524
306.873
309.498
304.823
305.325
306.264
307.147
306.722
306.794
306.794
306.905
306.053
301.669
301.336
302.028
301.478
300.496
299.604
302.138
303.424
300.2
300.55
301.076
303.349
301.173
303.153
303.226
301.88
302.756
303.057
301.736
302.37
334.723
333.437
334.188
332.295
332.873
333.629
334.283
337.227
335.743
337.163
338.727
339.057
335.813
335.98
334.486
332.681
333.068
332.558
333.6
335.93
330.126
329.275
328.605
330.065
328.4
331.474
327.63
332.487
332.227
332.396
333.275
332.412
332.503
331.777
332.001
329.681
330.824
330.289
330.021
331.493
323.311
324.848
324.125
324.896
326.062
324.431
325.798
326.123
324.871
327.182
328.059
326.906
327.064
327.135
325.83
325.479
324.295
325.443
324.815
326.219
320.237
319.461
321.301
320.53
320.825
319.676
320.199
321.618
324.144
323.784
322.756
321.377
323.609
322.379
322.18
320.027
321.179
318.962
319.974
322.339
315.774
318.673
314.54
313.515
314.286
315.602
316.477
318.618
317.719
318.518
317.37
317.311
318.021
316.488
315.907
317.487
317.764
314.976
314.104
316.722
310.91
311.32
310.911
310.166
310.9
313.081
312.507
310.47
313.171
313.02
311.493
310.657
311.995
311.628
311.255
311.64
311.894
311.231
310.884
312.351
305.397
306.343
304.946
306.527
306.745
306.994
305.727
306.12
308.238
307.215
307.777
307.515
308.234
306.929
306.818
305.651
307.185
306.265
306.281
307.188
301.49
301.396
300.626
302.152
301.423
301.756
302.471
304.732
302.867
302.658
302.791
302.102
302.838
302.373
302.995
302.128
300.87
301.465
302.541
301.179
335.63
334.126
333.55
335.23
333.948
335.106
334.624
334.792
336.063
338.445
336.839
337.586
338
338.222
338.089
335.697
333.209
336.123
334.656
335.634
329.287
329.835
328.38
329.124
329.488
330.315
330.443
332.854
329.797
331.957
334.149
333.366
332.411
331.408
333.538
330.775
328.448
329.209
331.485
329.911
326.513
324.797
323.654
325.826
324.524
325.732
325.412
327.761
327.618
327.038
329.433
327.545
329.627
326.096
326.701
324.361
325.266
325.074
325.807
328.184
321.542
321.045
319.254
319.36
319.302
321.887
321.176
321.328
322.923
324.036
323.85
323.091
323.798
323.546
322.344
321.109
321.573
323.482
321.555
321.552
315.521
316.156
316.544
314.114
315.408
317.208
315.111
316.587
318.932
319.51
317.336
319.492
317.661
316.885
316.516
316.191
316.343
314.687
317.499
316.525
312.035
312.951
309.202
311.77
311.202
312.511
311.619
312.55
314.242
312.923
312.219
315.852
314.649
313.191
312.616
311.485
312.74
313.339
311.348
312.888
307.97
305.826
305.957
306.045
306.305
307.23
307.493
305.746
306.88
306.731
309.234
308.459
307.092
307.737
309.034
305.674
306.395
306.805
307.886
307.166
300.504
302.523
303.866
303.053
303.801
301.156
301.003
300.405
302.089
301.652
302.523
301.603
302.18
303.575
302.934
302.017
300.557
302.735
301.703
302.099
335.596
335.379
335.06
335.823
336.069
334.585
336.63
337.414
338.057
338.221
339.362
338.94
340.892
336.134
337.01
334.858
335.846
335.181
335.806
339.058
332.519
330.905
329.896
331.27
332.338
332.759
334.094
333.394
333.175
333.601
333.47
333.56
333.512
333.357
332.035
331.298
330.885
331.843
330.345
333.249
326.509
325.524
325.278
324.768
324.709
327.752
326.437
327.414
327.464
327.296
328.56
328.372
327.31
326.001
327.229
325.231
324.13
324.258
326.031
327.118
321.4
322.482
320.812
321.143
319.006
323.682
322.13
319.963
321.951
324.627
323.988
323.625
324.669
322.959
321.802
320.654
320.955
319.861
322.551
322.505
317.641
315.794
315.324
316.136
317.609
316.98
317.671
317.919
317.726
319.155
319.276
318.141
317.75
321.519
318.324
315.643
316.377
316.914
318.393
317.718
310.473
309.751
314.157
311.924
311.641
312.143
312.773
312.496
312.219
313.686
313.777
313.237
313.599
314.417
314.787
312.964
311.608
312.633
311.412
311.226
305.561
305.208
307.493
306.874
306.709
308.493
306.659
309.072
307.238
308.545
309.073
308.49
306.573
308.368
307.709
305.515
306.505
306.726
308.779
306.274
303.009
300.179
304.663
302.05
302.451
303.525
301.829
301.828
301.432
302.99
304.231
302.401
302.07
302.562
303.535
302.695
302.562
303.228
304.167
301.426
336.956
340.022
334.987
338.121
334.509
338.129
338.996
339.725
338.742
339.886
340.292
338.424
339.794
338.919
337.428
336.393
338.352
336.608
337.907
340.523
333.257
331.648
328.039
332.032
329.235
333.559
331.899
331.925
333.535
332.482
335.817
334.474
332.778
333.902
332.579
331.723
331.859
333.461
332.828
333.986
327.219
324.161
326.459
325.436
325.414
326.605
327.566
328.085
329.32
329.105
330.935
329.11
328.845
328.077
326.529
327.387
326.979
327.586
326.419
330.273
323.73
322.065
322.525
321.702
323.256
321.916
324.085
323.466
322.768
324.515
323.404
326.405
325.696
322.954
322.931
323.278
323.5
322.751
322.326
322.744
316.889
317.519
317.383
317.635
318.211
316.602
314.978
319.115
319.146
320.237
319.784
319.353
319.06
318.871
317.873
317.215
317.142
319.528
317.305
318.538
311.198
310.922
311.631
311.446
311.192
311.266
311.137
313.002
313.888
312.346
312.913
315.825
311.043
314.934
313.127
315.848
313.331
313.843
314.104
314.091
307.317
309.18
308.351
306.669
306.96
307.814
307.094
306.516
306.675
308.305
309.217
309.941
307.108
307.755
305.847
308.291
307.134
306.387
307.073
306.749
300.875
303.694
300.571
301.82
301.802
301.525
303.254
301.478
301.994
302.665
303.13
303.169
303.072
304.169
302.196
302.145
303.188
303.222
302.284
300.379
338.427
337.544
337.312
336.472
338.623
337.417
339.174
341.534
340.246
341.866
341.368
339.578
339.751
340.34
338.941
339.873
337.652
339.055
336.502
339.256
333.095
331.416
332.535
332.213
332.14
333.738
334.837
334.682
336.501
334.965
334.608
336.09
334.092
332.174
333.657
333.3
332.575
332.079
331.446
332.498
326.913
327.475
328.256
327.749
328.74
329.15
329.322
329.441
330.389
330.146
330.534
331.423
330.539
329.626
330.734
330.228
327.782
329.125
327.874
326.681
322.27
322.011
322.854
324.981
320.184
322.448
323.358
323.569
323.674
325.641
324.223
327.023
323.853
324.564
322.1
323.659
322.221
324.306
323.899
323.668
317.006
318.076
317.597
318.404
317.86
316.945
318.019
318.335
320.896
319.196
320.553
318.692
316.988
317.73
318.774
319.379
319.952
318
316.464
317.14
313.056
313.698
311.977
312.108
312.145
313.738
313.984
312.466
316.477
315.835
314.297
311.869
314.151
314.822
313.98
314.437
313.014
313.356
310.193
310.994
308.394
307.955
307.114
307.159
309.036
306.988
308.081
308.262
310.756
307.269
308.287
308.154
306.247
306.96
307.148
308.775
308.35
309.003
307.781
308.44
301.849
302.446
303.892
301.998
302.525
301.022
301.811
302.914
302.214
303.384
303.552
302.409
304.355
303.004
303.615
302.635
302.232
303.855
301.917
304.037
339.915
338.753
339.187
339.773
339.152
338.327
340.081
342.432
339.371
340.854
344.851
341.38
343.161
341.861
341.13
338.918
341.719
339.358
339.082
339.655
332.917
333.98
336.358
333.401
334.604
333.06
336.295
334.25
336.262
338.171
337.417
338.171
337.736
335.633
336.028
336.384
335.528
333.04
334.378
334.053
330.119
330.782
328.673
329.72
328.246
329.168
329.066
329.385
328.896
332.821
330.291
330.122
331.44
329.722
329.918
329.565
329.895
328.451
329.669
330.361
321.761
323.907
322.1
322.527
326.376
324.691
323.373
324.381
325.057
325.39
327.169
325.97
327.174
325.857
325.349
326.373
322.535
323.69
324.707
322.783
316.299
317.019
318.503
319.982
317.565
319.587
319.523
318.092
319.865
320.078
320.574
320.533
320.164
321.699
317.607
320.359
317.059
319.229
317.442
318.529
313.859
313.454
310.984
312.4
312.195
313.77
312.587
314.86
314.452
313.203
315.342
313.914
315.036
313.651
313.849
313.757
313.762
311.839
313.737
312.633
308.323
308.579
306.528
309.508
309.107
307.291
310.2
308.5
307.625
308.483
308.992
308.803
308.694
309.087
310.255
308.957
306.251
308.777
308.34
309.269
302.913
303.248
304.186
302.768
301.385
302.076
305.861
303.283
304.843
302.337
304.677
304.014
303.952
302.687
305.037
301.459
302.411
303.744
303.036
304.074
341.763
340.531
341.043
339.058
341.142
341.259
340.424
339.769
341.451
344.054
346.008
342.985
342.703
343.378
340.562
341.694
340.282
338.601
341.451
341.161
336.947
333.351
334.811
334.526
334.032
334.366
337.878
335.613
336.506
335.808
335.829
338.676
335.053
336.761
335.062
333.381
334.2
335.948
333.596
335.392
330.62
327.463
328.856
328.87
330.074
331.483
332.628
328.181
330.068
329.576
330.485
332.637
332.782
329.522
331.427
328.968
329.402
330.709
329.026
330.092
324.546
324.824
324.896
325.173
323.647
325.684
324.321
326.65
324.418
327.693
328.264
325.426
326.067
325.746
325.699
327.405
325.493
323.578
322.933
326.743
319.55
319.773
318.289
320.333
318.566
320.377
319.648
319.552
319.09
322.836
319.231
320.66
319.387
320.869
318.821
319.864
321.453
318.666
318.011
318.183
312.204
313.364
314.738
314.917
314.176
313.754
312.805
314.283
313.79
314.284
314.733
314.956
313.994
315.11
314.538
313.759
313.28
312.89
314.194
313.196
307.692
310.593
308.717
307.883
309.201
310.677
306.541
307.407
308.829
308.654
308.16
308.518
308.198
307.222
306.935
308.549
307.929
311.053
309.967
307.67
302.668
302.589
303.289
303.399
303.663
304.713
304.059
302.608
304.62
303.783
303.189
302.371
304.975
303.316
301.599
303.27
302.554
302.415
303.157
300.791
342.801
342.497
339.251
340.986
340.426
340.425
341.555
343.665
344.842
343.674
346.188
343.514
346.207
344.18
342.756
341.835
339.244
342.126
340.764
344.002
335.958
335.091
335.217
335.352
336.044
335.495
337.044
336.425
337.053
336.269
336.674
338.8
336.63
338.299
335.708
336.967
335.277
337.005
334.466
336.854
332.246
329.283
328.456
331.929
331.034
328.549
329.442
331.949
333.001
331.507
332.979
333.06
331.991
332.744
330.047
330.032
329.726
330.824
331.369
332.894
326.379
325.427
326.352
325.498
325.111
326.126
327.263
325.509
324.239
328.617
327.256
326.671
325.996
325.965
326.038
325.293
324.892
328.652
324.088
325.732
319.188
318.609
320.294
321.227
318.333
319.381
321.456
319.866
322.182
320.87
322.761
322.787
319.459
320.029
320.16
320.617
321.002
319.956
318.998
319.308
313.107
315.928
313.643
313.009
313.969
313.452
313.754
315.17
314.604
314.575
314.937
315.062
314.897
313.282
313.127
312.845
314.674
316.352
313.38
316.488
308.496
308.195
308.799
307.992
308.72
307.046
308.51
308.666
307.394
309.607
308.247
310.106
307.283
308.616
307.684
307.957
309.34
307.698
310.055
308.342
301.958
300.712
302.372
301.388
302.898
303.731
303.007
303.702
305.101
302.111
304.914
302.401
299.341
303.754
301.718
302.338
302.453
302.319
302.348
303.219
342.273
343.501
343.734
342.266
343.847
343.535
341.929
344.97
344.264
345.945
345.299
345.64
344.019
344.162
344.414
344.241
341.623
343.57
343.033
342.995
339.517
336.477
337.337
336.525
338.55
336.822
337.149
338.385
339.652
338.925
340.428
337.266
338.277
338.033
338.836
338.955
335.328
337.303
337.862
338.611
333.656
330.923
331.57
332.056
331.711
333.384
333.096
332.714
332.55
333.5
335.235
334.727
335.21
333.97
331.802
331.96
330.114
331.125
331.601
332.805
324.612
327.518
325.154
325.357
325.175
327.276
328.029
326.045
328.348
328.159
328.08
327.298
328.229
326.9
326.882
326.117
327.923
325.083
326.45
328.442
322.245
320.804
321.009
321.258
320.243
321.207
319.312
320.361
322.685
321.799
321.359
321.548
321.428
321.709
323.059
321.315
323.33
320.865
321.898
318.55
313.668
314.765
314.624
312.926
314.467
315.186
312.755
316.103
315.309
314.141
315.6
316.17
317.162
316.519
314.496
316.79
313.905
314.867
314.738
315.334
307.3
307.747
309.455
310.884
309.608
309.607
309.582
308.592
310.999
310.033
311.048
310.186
310.448
308.997
308.825
309.234
306.99
309.73
308.396
310.205
302.391
304.966
303.467
302.486
303.207
300.216
303.849
303.519
304.395
304.123
304.419
302.607
301.951
304.68
301.995
300.993
303.694
304.627
302.296
304.773
344.061
344.714
343.031
343.978
342.606
343.37
346.24
343.494
345.961
344.646
347.611
345.651
345.674
343.075
347.074
344.154
345.018
341.522
343.909
346.053
340.86
337.235
338.831
336.586
338.407
337.893
339.17
338.129
342.109
339.116
338.643
341.01
338.593
338.677
338.394
340.472
337.108
339.219
336.984
339.428
332.62
332.585
333.14
332.437
332.023
332.661
332.739
332.584
335.137
335.861
334.439
335.389
335.552
335.484
334.474
334.273
333.038
331.975
334.238
333.32
325.375
326.076
327.293
325.9
326.158
328.873
328.661
326.7
327.974
328.95
330.405
328.154
330.003
327.489
330.314
327.133
325.503
325.658
326.366
325.777
322.428
322.748
322.27
321.172
321.753
320.559
321.495
323.002
319.97
324.497
322.038
321.735
321.168
320.696
320.73
321.696
320.877
320.107
321.283
322.291
315.077
315.393
314.734
316.442
314.634
316.555
313.849
316.003
315.671
316.936
316.333
316.052
315.423
314.697
313.618
314.303
318.484
314.518
315.353
315.5
308.696
308.753
309.358
307.393
309.776
307.552
309.446
310.121
309.495
310.202
310.353
307.827
310.407
308.196
309.769
308.513
307.958
310.181
309.175
307.706
303.047
301.928
305.317
301.668
302.793
303.244
301.692
304.49
301.038
304.304
305.96
304.856
303.984
303.564
302.686
302.527
303.678
303.921
301.453
303.802
346.29
346.069
346.201
344.532
346.636
346.452
346.357
346.691
347.015
349.273
346.806
347.289
346.535
347.188
345.954
344.618
345.155
342.821
347.566
345.966
339.4
338.98
339.676
339.365
339.057
339.065
338.673
341.189
338.285
341.284
341.879
339.415
340.245
341.661
338.928
340.88
339.495
340.221
339.948
339.719
333.504
334.344
333.221
332.806
333.13
333.545
333.626
334.892
332.704
335.052
334.762
336.247
335.868
333.923
333.47
331.44
334.071
331.958
332.692
331.716
328.721
325.937
327.777
327.82
327.345
327.924
329.905
328.12
328.418
327.598
329.306
331.555
330.512
330.295
328.543
327.075
327.047
329.791
327.318
325.703
321.163
322.255
321.449
319.874
321.094
322.038
321.99
320.774
322.147
323.234
322.45
322.23
321.458
323.62
319.997
321.095
320.557
320.938
319.906
321.067
316.681
316.682
314.816
314.787
313.67
315.947
316.908
315.959
315.141
316.365
315.866
316.925
316.398
313.521
316.928
314.93
315.119
316.518
316.792
315.243
309.726
308.98
309.987
308.428
310.529
308.24
307.314
307.645
309.587
307.965
306.943
309.348
309.383
310.354
310.683
308.597
309.642
309.278
308.042
310.027
304.184
303.816
303.505
304.004
305.54
302.328
302.875
303.508
303.455
303.858
304.154
304.128
304.08
303.332
302.716
301.334
302.169
301.949
302.96
302.39
348.315
347.844
347.346
347.38
348.808
347.784
347.129
347.764
344.797
349.853
349.127
347.84
348.952
345.982
344.66
346.856
347.316
346.392
347.301
345.969
341.183
339.799
341.966
340.564
342.283
340.765
341.202
340.535
342.494
341.013
340.99
342.842
340.574
341.256
340.124
342.333
339.435
339.757
339.578
340.794
335.761
332.558
335.772
333.257
336.188
336.245
335.657
334.696
334.167
336.288
335.852
336.391
336.669
333.899
337.529
334.202
332.735
334.521
335.529
334.825
329.66
327.814
328.636
328.112
329.118
328.15
329.025
328.121
327.839
330.408
328.483
331.446
327.724
328.23
329.394
329.162
328.693
328.865
328.019
326.169
322.975
322.541
322.244
322.012
321.675
323.946
319.195
323.887
321.541
323.639
321.022
322.26
322.504
324.261
322.174
321.161
322.649
321.947
321.585
321.997
316.791
317.697
313.981
317.23
315.083
316.438
317.082
316.327
316.164
312.504
317.203
314.627
316.314
316.844
316.239
317.625
314.349
314.887
314.274
314.525
310.358
310.895
308.572
308.879
307.066
309.491
308.944
310.452
307.09
308.86
307.207
309.147
309.674
309.948
309.42
308.912
308.699
310.039
308.75
308.098
303.771
302.508
304.86
303.463
302.318
304.173
304.453
302.98
303.527
303.881
302.423
303.201
303.302
305.878
302.858
302.055
301.788
303.957
303.146
302.905
349.326
348.627
347.755
348.194
349.91
349.166
347.712
347.244
349.83
349.235
349.158
346.642
350.485
348.895
347.896
348.925
345.51
349.203
347.309
348.538
343.617
342.727
341.995
340.328
341.063
344.193
341.975
342.192
343.227
342.284
343.258
342.848
342.996
342.031
343.642
341.427
341.968
341.633
341.659
342.281
338.314
337.821
336.369
333.901
336.336
334.818
337.477
336.284
336.519
337.773
339.67
336.922
336.824
335.099
336.735
336.728
336.175
335.522
335.238
335.98
330.386
329.955
330.097
327.65
328.46
328.002
329.618
328.771
330.572
329.954
328.539
330.674
328.986
330.192
329.068
330.291
329.526
331.281
328.989
332.001
324.571
321.769
323.559
323.577
322.55
323.343
324.319
320.14
322.328
322.833
324.406
322.267
324.691
319.869
324.176
322.839
321.896
322.886
323.99
321.829
316.383
314.144
315.441
316.4
316.298
318.449
316.593
317.602
315.81
318.021
318.052
316.139
315.938
316.507
315.59
316.246
317.345
317.389
314.68
317.46
308.047
308.804
308.505
312.587
308.822
308.578
308.397
308.03
309.48
311.198
309.787
309.284
309.014
309.628
309.639
309.621
309.086
310.454
311.595
308.447
301.066
302.858
304.024
303.299
301.186
304.153
305.652
303.822
303.703
302.248
302.918
303.311
301.603
304.247
304.488
304.89
302.554
304.123
303.835
303.984
349.368
350.698
350.484
349.055
351.395
347.678
349.762
348.595
352.868
351.483
348.904
351.974
350.315
349.854
348.733
349.099
349.398
349.079
348.728
351.217
344.339
342.725
343.432
343.032
343.134
343.415
343.695
343.936
341.524
343.849
344.23
344.94
343.727
344.126
343.604
342.352
343.362
341.959
342.863
341.861
338.64
337.116
337.031
335.88
338.143
336.739
336.988
335.906
336.697
337.417
337.606
337.678
338.278
337.46
336.637
336.991
336.218
335.669
335.389
335.237
330.366
330.431
332.643
330.349
330.388
329.139
330.404
328.595
330.559
330.24
329.486
328.367
329.362
330.639
329.844
331.048
329.069
330.257
330.817
328.498
323.998
324.854
323.571
322.866
323.624
324.016
323.965
324.02
322.99
323.633
324.348
323.197
323.945
324.429
322.769
323.575
323.833
322.421
324.968
323.321
319.026
314.342
315.061
315.956
318.149
316.344
317.191
316.395
318.211
316.077
316.442
317.334
317.748
317.47
316.837
316.401
316.549
315.814
314.755
315.725
308.968
309.238
308.82
308.43
311.084
309.488
309.363
310.471
309.579
309.864
309.965
309.793
312.79
309.309
310.725
310.031
309.27
309.619
311.316
311.153
303.219
302.831
304.776
303.495
302.406
302.72
302.667
304.439
302.595
302.404
302.939
304.992
304.309
300.966
303.414
302.051
303.369
304.695
302.549
303.888
351.325
351.214
351.274
351.574
349.2
349.509
350.089
350.797
351.213
353.111
352.543
350.394
352.293
352.304
349.568
349.866
348.839
348.88
349.54
349.228
345.318
346.12
344.39
345.255
345.101
342.872
344.728
344.902
344.575
346.866
343.432
343.75
346.167
343.546
341.866
343.859
343.929
344.265
344.309
344.33
338.492
337.817
338.415
338.521
338.624
337.935
339.217
337.416
337.567
335.882
336.957
336.693
336.485
336.548
339.43
335.408
336.937
337.51
338.286
338.6
331.568
331.468
331.865
329.943
330.166
330.079
330.437
332.139
328.812
332.662
330.986
332.502
329.741
329.931
330.8
329.101
331.938
328.599
329.85
331.811
325.689
322.079
324.31
325.66
323.576
323.627
324.061
324.712
323.343
323.586
323.893
324.794
322.462
325.234
324.816
324.062
323.526
323.94
324.26
322.165
316.449
318.316
315.308
317.705
315.982
316.454
316.61
315.792
316.999
316.551
318.621
318.002
315.744
315.71
315.03
320.209
318.208
318.18
317.793
314.856
311.513
310.693
309.671
312.725
310.373
311.156
310.629
308.663
310.263
310.439
310.895
309.782
310.635
308.742
310.453
309.945
309.514
309.651
310.5
307.32
303.391
302.348
304.54
303.891
305.219
304.129
303.144
302.293
305.382
303.661
301.354
302.785
303.155
304.477
302.259
303.079
303.026
302.473
305.162
301.109
352.509
352.522
352.346
351.3
352.722
351.169
350.155
351.496
350.348
352.84
351.64
350.424
350.335
350.94
350.788
350.525
351.543
351.879
352.758
350.99
345.29
346.982
345.212
346.512
343.585
346.225
346.674
347.165
345.26
346.204
346.897
344.178
346.147
344.892
346.188
344.812
346.326
347.109
345.67
346.541
339.866
339.502
337.145
337.788
337.492
336.343
339.955
337.996
337.893
340.696
338.491
338.183
337.973
338.427
336.704
338.314
339.18
337.96
339.47
338.287
331.591
331.39
332.156
331.906
332.473
332.789
331.641
330.072
330.441
332.022
330.157
332.763
330.158
329.362
330.672
332.337
329.837
331.421
329.221
331.242
324.72
323.833
324.766
326.558
324.68
324.265
323.658
324.391
325.801
325.807
323.947
324.365
327.979
324.187
322.92
325.249
324.693
323.633
324.305
326.021
318.198
318.898
317.254
318.279
317.746
316.419
318.168
319.204
316.945
317.025
317.088
318.299
319.09
317.006
315.628
317.58
317.317
316.6
318.876
315.465
312.147
312.458
312.246
312.225
309.982
310.212
311.249
311.78
311.137
311.058
310.055
312.975
310.94
310.57
309.945
310.616
311.695
309.311
311.734
309.738
303.203
302.456
302.514
304.34
304.121
302.211
304.681
302.218
303.369
304.732
302.783
303.251
303.675
305.252
303.661
302.766
301.839
304.15
302.163
302.394
353.846
351.77
354.643
352.422
354.039
353.7
351.527
352.263
353.261
352.821
351.921
353.135
350.611
351.597
350.946
351.079
352.988
350.812
353.314
352.665
346.858
347.842
345.233
345.147
345.175
345.688
345.564
346.29
344.335
345.635
344.825
346.394
345.224
345.291
344.913
345.837
342.073
344.567
344.947
345.293
340.152
338.75
340.561
337.744
339.266
339.365
338.464
338.719
340.184
340.377
338.98
339.391
337.825
338.209
337.832
338.292
337.482
339.231
337.397
339.256
334.741
333.029
332.889
330.237
332.068
332.332
332.518
331.247
331.087
333.914
330.066
331.242
332.244
330.11
330.454
330.752
331.954
333.003
331.281
330.836
325.265
325.614
326.238
324.443
326.176
325.502
324.916
324.791
325.685
323.289
324.238
324.016
324.366
324.313
324.817
322.545
324.127
324.29
323.401
324.818
320.845
318.146
318.183
318.86
317.392
317.362
319.111
317.923
317.586
318.467
320.326
318.459
317.712
316.143
317.162
318.141
314.989
317.336
318.616
318.503
311.362
311.899
309.091
309.506
311.974
310.783
311.956
309.96
309.39
311.713
310.077
309.868
311.476
311.832
312.013
311.534
307.246
309.543
310.799
310.057
303.684
304.26
303.218
304.349
303.374
301.804
304.983
303.39
305.036
305.032
303.529
302.576
303.214
303.745
304.239
303.573
304.061
301.968
302.653
304.114
)
;

boundaryField
{
    hotSide
    {
        type            fixedGradient;
        gradient        nonuniform List<scalar> 
400
(
321.511
322.87
325.591
329.677
335.133
341.965
350.181
359.788
370.794
383.208
397.037
412.289
428.971
447.088
466.647
487.651
510.105
534.011
559.372
586.191
323.738
325.08
327.767
331.802
337.194
343.949
352.078
361.591
372.498
384.81
398.537
413.687
430.268
448.289
467.755
488.672
511.043
534.872
560.161
586.913
326.149
327.47
330.116
334.091
339.406
346.071
354.099
363.503
374.296
386.491
400.101
415.136
431.606
449.52
468.885
489.706
511.988
535.735
560.948
587.63
328.704
330
332.597
336.503
341.73
348.292
356.205
365.485
376.15
388.215
401.695
416.604
432.954
450.753
470.009
490.73
512.919
536.579
561.714
588.325
331.33
332.599
335.142
338.97
344.099
350.546
358.332
367.477
378.003
389.928
403.271
418.047
434.27
451.949
471.095
491.712
513.807
537.382
562.439
588.978
333.918
335.158
337.643
341.389
346.414
352.74
360.392
369.397
379.779
391.562
404.765
419.407
435.503
453.065
472.101
492.618
514.622
538.114
563.096
589.569
336.321
337.531
339.959
343.622
348.544
354.751
362.274
371.142
381.385
393.031
406.101
420.618
436.595
454.047
472.983
493.409
515.33
538.747
563.663
590.076
338.36
339.543
341.92
345.509
350.339
356.44
363.847
372.595
382.718
394.244
407.2
421.608
437.485
454.844
473.695
494.045
515.897
539.253
564.114
590.478
339.852
341.015
343.352
346.885
351.645
357.665
364.985
373.643
383.675
395.113
407.984
422.312
438.116
455.407
474.197
494.491
516.294
539.606
564.428
590.758
340.643
341.795
344.11
347.613
352.334
358.311
365.584
374.193
384.176
395.567
408.393
422.679
438.443
455.699
474.456
494.722
516.498
539.788
564.589
590.901
340.643
341.795
344.11
347.613
352.334
358.311
365.584
374.193
384.176
395.567
408.393
422.679
438.443
455.699
474.456
494.722
516.498
539.788
564.589
590.901
339.852
341.015
343.352
346.885
351.645
357.665
364.985
373.643
383.675
395.113
407.984
422.312
438.116
455.407
474.197
494.491
516.294
539.606
564.428
590.758
338.36
339.543
341.92
345.509
350.339
356.44
363.847
372.595
382.718
394.244
407.2
421.608
437.485
454.844
473.695
494.045
515.897
539.253
564.114
590.478
336.321
337.531
339.959
343.622
348.544
354.751
362.274
371.142
381.385
393.031
406.101
420.618
436.595
454.047
472.983
493.409
515.33
538.747
563.663
590.076
333.918
335.158
337.643
341.389
346.414
352.74
360.392
369.397
379.779
391.562
404.765
419.407
435.503
453.065
472.101
492.618
514.622
538.114
563.096
589.569
331.33
332.599
335.142
338.97
344.099
350.546
358.332
367.477
378.003
389.928
403.271
418.047
434.27
451.949
471.095
491.712
513.807
537.382
562.439
588.978
328.704
330
332.597
336.503
341.73
348.292
356.205
365.485
376.15
388.215
401.695
416.604
432.954
450.753
470.009
490.73
512.919
536.579
561.714
588.325
326.149
327.47
330.116
334.091
339.406
346.071
354.099
363.503
374.296
386.491
400.101
415.136
431.606
449.52
468.885
489.706
511.988
535.735
560.948
587.63
323.738
325.08
327.767
331.802
337.194
343.949
352.078
361.591
372.498
384.81
398.537
413.687
430.268
448.289
467.755
488.672
511.043
534.872
560.161
586.913
321.511
322.87
325.591
329.677
335.133
341.965
350.181
359.788
370.794
383.208
397.037
412.289
428.971
447.088
466.647
487.651
510.105
534.011
559.372
586.191
)
;
    }
    coldSide
    {
        type            mixed;
        refValue        uniform 300;
        refGradient     uniform 0;
        valueFraction   uniform 0.991591;
        source          uniform 0;
        value           nonuniform List<scalar> 
400
(
300.003
300.026
300.014
300.013
300.004
300.025
300.007
300.016
300.024
300.022
300.016
300.02
300.026
300.035
300.032
300.009
300.027
300.029
300.027
300.031
300.017
300.01
300.011
300.012
300.021
300.002
300.031
300.021
300.027
300.022
300.006
300.042
300.016
300.032
300.021
300.024
300.024
300.02
300.021
300.036