/*--------------------------------*- C++ -*----------------------------------*\
| =========                 |                                                 |
| \\      /  F ield         | OpenFOAM: The Open Source CFD Toolbox           |
|  \\    /   O peration     | Version:  2212                                  |
|   \\  /    A nd           | Website:  www.openfoam.com                      |
|    \\/     M anipulation  |                                                 |
\*---------------------------------------------------------------------------*/
FoamFile
{
    version     2.0;
    format      ascii;
    arch        "LSB;label=32;scalar=64";
    class       volScalarField;
    location    "./ITHACAoutput/true/10.2";
    object      trueState;
}
// * * * * * * * * * * * * * * * * * * * * * * * * * * * * * * * * * * * * * //

dimensions      [0 0 0 1 0 0 0];

internalField   nonuniform List<scalar> 
3200
(
333.076
333.527
334.103
334.731
335.377
336.012
336.598
337.092
337.452
337.643
337.643
337.452
337.092
336.598
336.012
335.377
334.731
334.103
333.527
333.076
328.79
329.172
329.669
330.212
330.771
331.32
331.827
332.254
332.565
332.729
332.729
332.565
332.254
331.827
331.32
330.771
330.212
329.669
329.172
328.79
324.452
324.769
325.187
325.646
326.119
326.583
327.01
327.371
327.633
327.772
327.772
327.633
327.371
327.01
326.583
326.119
325.646
325.187
324.769
324.452
320.07
320.325
320.666
321.041
321.427
321.806
322.156
322.45
322.664
322.777
322.777
322.664
322.45
322.156
321.806
321.427
321.041
320.666
320.325
320.07
315.651
315.847
316.112
316.403
316.704
316.998
317.269
317.498
317.664
317.752
317.752
317.664
317.498
317.269
316.998
316.704
316.403
316.112
315.847
315.651
311.205
311.343
311.532
311.74
311.955
312.165
312.359
312.522
312.641
312.703
312.703
312.641
312.522
312.359
312.165
311.955
311.74
311.532
311.343
311.205
306.739
306.821
306.934
307.059
307.188
307.314
307.431
307.529
307.6
307.637
307.637
307.6
307.529
307.431
307.314
307.188
307.059
306.934
306.821
306.739
302.26
302.288
302.326
302.368
302.411
302.453
302.492
302.525
302.549
302.561
302.561
302.549
302.525
302.492
302.453
302.411
302.368
302.326
302.288
302.26
333.186
333.634
334.205
334.827
335.467
336.094
336.673
337.161
337.517
337.705
337.705
337.517
337.161
336.673
336.094
335.467
334.827
334.205
333.634
333.186
328.886
329.265
329.757
330.295
330.849
331.392
331.893
332.315
332.622
332.784
332.784
332.622
332.315
331.893
331.392
330.849
330.295
329.757
329.265
328.886
324.533
324.848
325.263
325.717
326.185
326.644
327.067
327.423
327.682
327.819
327.819
327.682
327.423
327.067
326.644
326.185
325.717
325.263
324.848
324.533
320.136
320.389
320.728
321.099
321.482
321.857
322.202
322.493
322.704
322.816
322.816
322.704
322.493
322.202
321.857
321.482
321.099
320.728
320.389
320.136
315.703
315.898
316.16
316.449
316.746
317.037
317.306
317.531
317.696
317.782
317.782
317.696
317.531
317.306
317.037
316.746
316.449
316.16
315.898
315.703
311.242
311.38
311.567
311.773
311.985
312.193
312.385
312.546
312.663
312.725
312.725
312.663
312.546
312.385
312.193
311.985
311.773
311.567
311.38
311.242
306.761
306.843
306.955
307.079
307.206
307.331
307.446
307.543
307.613
307.65
307.65
307.613
307.543
307.446
307.331
307.206
307.079
306.955
306.843
306.761
302.268
302.295
302.333
302.374
302.417
302.459
302.497
302.53
302.553
302.566
302.566
302.553
302.53
302.497
302.459
302.417
302.374
302.333
302.295
302.268
333.407
333.848
334.409
335.02
335.647
336.261
336.826
337.303
337.649
337.832
337.832
337.649
337.303
336.826
336.261
335.647
335.02
334.409
333.848
333.407
329.078
329.451
329.936
330.464
331.006
331.538
332.027
332.438
332.737
332.895
332.895
332.737
332.438
332.027
331.538
331.006
330.464
329.936
329.451
329.078
324.697
325.006
325.414
325.86
326.319
326.768
327.181
327.528
327.781
327.914
327.914
327.781
327.528
327.181
326.768
326.319
325.86
325.414
325.006
324.697
320.271
320.52
320.852
321.217
321.592
321.958
322.296
322.58
322.786
322.894
322.894
322.786
322.58
322.296
321.958
321.592
321.217
320.852
320.52
320.271
315.808
315.999
316.257
316.54
316.832
317.117
317.379
317.599
317.759
317.844
317.844
317.759
317.599
317.379
317.117
316.832
316.54
316.257
315.999
315.808
311.317
311.452
311.636
311.839
312.047
312.25
312.437
312.595
312.709
312.769
312.769
312.709
312.595
312.437
312.25
312.047
311.839
311.636
311.452
311.317
306.806
306.887
306.997
307.118
307.243
307.366
307.478
307.572
307.641
307.677
307.677
307.641
307.572
307.478
307.366
307.243
307.118
306.997
306.887
306.806
302.283
302.31
302.347
302.387
302.429
302.47
302.508
302.54
302.563
302.575
302.575
302.563
302.54
302.508
302.47
302.429
302.387
302.347
302.31
302.283
333.74
334.171
334.718
335.311
335.92
336.514
337.061
337.52
337.853
338.029
338.029
337.853
337.52
337.061
336.514
335.92
335.311
334.718
334.171
333.74
329.368
329.732
330.204
330.718
331.245
331.759
332.231
332.628
332.916
333.068
333.068
332.916
332.628
332.231
331.759
331.245
330.718
330.204
329.732
329.368
324.943
325.245
325.642
326.077
326.522
326.956
327.355
327.69
327.934
328.062
328.062
327.934
327.69
327.355
326.956
326.522
326.077
325.642
325.245
324.943
320.472
320.715
321.04
321.394
321.758
322.114
322.44
322.713
322.912
323.016
323.016
322.912
322.713
322.44
322.114
321.758
321.394
321.04
320.715
320.472
315.965
316.152
316.403
316.679
316.962
317.238
317.491
317.704
317.858
317.939
317.939
317.858
317.704
317.491
317.238
316.962
316.679
316.403
316.152
315.965
311.43
311.562
311.741
311.938
312.14
312.337
312.518
312.67
312.78
312.838
312.838
312.78
312.67
312.518
312.337
312.14
311.938
311.741
311.562
311.43
306.874
306.953
307.06
307.178
307.3
307.418
307.526
307.618
307.684
307.718
307.718
307.684
307.618
307.526
307.418
307.3
307.178
307.06
306.953
306.874
302.306
302.332
302.368
302.407
302.448
302.488
302.524
302.555
302.577
302.588
302.588
302.577
302.555
302.524
302.488
302.448
302.407
302.368
302.332
302.306
334.186
334.603
335.133
335.705
336.29
336.86
337.382
337.82
338.137
338.304
338.304
338.137
337.82
337.382
336.86
336.29
335.705
335.133
334.603
334.186
329.756
330.109
330.566
331.061
331.567
332.061
332.512
332.89
333.165
333.309
333.309
333.165
332.89
332.512
332.061
331.567
331.061
330.566
330.109
329.756
325.272
325.565
325.95
326.368
326.796
327.213
327.594
327.914
328.145
328.267
328.267
328.145
327.914
327.594
327.213
326.796
326.368
325.95
325.565
325.272
320.743
320.978
321.292
321.634
321.984
322.325
322.636
322.897
323.086
323.186
323.186
323.086
322.897
322.636
322.325
321.984
321.634
321.292
320.978
320.743
316.176
316.357
316.6
316.866
317.138
317.403
317.645
317.848
317.995
318.072
318.072
317.995
317.848
317.645
317.403
317.138
316.866
316.6
316.357
316.176
311.58
311.709
311.882
312.072
312.266
312.455
312.628
312.773
312.878
312.933
312.933
312.878
312.773
312.628
312.455
312.266
312.072
311.882
311.709
311.58
306.964
307.041
307.145
307.259
307.375
307.489
307.593
307.68
307.743
307.776
307.776
307.743
307.68
307.593
307.489
307.375
307.259
307.145
307.041
306.964
302.336
302.361
302.396
302.435
302.474
302.512
302.546
302.576
302.597
302.608
302.608
302.597
302.576
302.546
302.512
302.474
302.435
302.396
302.361
302.336
334.747
335.149
335.656
336.204
336.761
337.302
337.796
338.209
338.508
338.665
338.665
338.508
338.209
337.796
337.302
336.761
336.204
335.656
335.149
334.747
330.244
330.584
331.022
331.496
331.978
332.447
332.874
333.231
333.489
333.625
333.625
333.489
333.231
332.874
332.447
331.978
331.496
331.022
330.584
330.244
325.686
325.968
326.337
326.738
327.146
327.541
327.903
328.204
328.422
328.537
328.537
328.422
328.204
327.903
327.541
327.146
326.738
326.337
325.968
325.686
321.082
321.309
321.61
321.938
322.271
322.595
322.89
323.136
323.314
323.408
323.408
323.314
323.136
322.89
322.595
322.271
321.938
321.61
321.309
321.082
316.441
316.615
316.848
317.103
317.362
317.614
317.843
318.035
318.173
318.246
318.246
318.173
318.035
317.843
317.614
317.362
317.103
316.848
316.615
316.441
311.77
311.893
312.06
312.241
312.427
312.606
312.77
312.907
313.006
313.057
313.057
313.006
312.907
312.77
312.606
312.427
312.241
312.06
311.893
311.77
307.078
307.152
307.252
307.361
307.472
307.58
307.678
307.76
307.82
307.851
307.851
307.82
307.76
307.678
307.58
307.472
307.361
307.252
307.152
307.078
302.374
302.399
302.432
302.469
302.506
302.542
302.575
302.603
302.622
302.633
302.633
302.622
302.603
302.575
302.542
302.506
302.469
302.432
302.399
302.374
335.425
335.808
336.292
336.812
337.339
337.848
338.311
338.697
338.975
339.121
339.121
338.975
338.697
338.311
337.848
337.339
336.812
336.292
335.808
335.425
330.833
331.158
331.576
332.025
332.482
332.922
333.323
333.657
333.898
334.024
334.024
333.898
333.657
333.323
332.922
332.482
332.025
331.576
331.158
330.833
326.187
326.456
326.808
327.188
327.574
327.946
328.285
328.567
328.77
328.877
328.877
328.77
328.567
328.285
327.946
327.574
327.188
326.808
326.456
326.187
321.493
321.71
321.997
322.307
322.623
322.927
323.204
323.435
323.601
323.688
323.688
323.601
323.435
323.204
322.927
322.623
322.307
321.997
321.71
321.493
316.761
316.927
317.15
317.391
317.637
317.874
318.089
318.268
318.397
318.464
318.464
318.397
318.268
318.089
317.874
317.637
317.391
317.15
316.927
316.761
311.999
312.117
312.276
312.448
312.623
312.792
312.946
313.074
313.166
313.214
313.214
313.166
313.074
312.946
312.792
312.623
312.448
312.276
312.117
311.999
307.216
307.286
307.382
307.485
307.59
307.692
307.784
307.861
307.916
307.945
307.945
307.916
307.861
307.784
307.692
307.59
307.485
307.382
307.286
307.216
302.42
302.444
302.476
302.51
302.546
302.58
302.611
302.636
302.655
302.665
302.665
302.655
302.636
302.611
302.58
302.546
302.51
302.476
302.444
302.42
336.221
336.585
337.043
337.533
338.027
338.503
338.933
339.291
339.548
339.683
339.683
339.548
339.291
338.933
338.503
338.027
337.533
337.043
336.585
336.221
331.526
331.835
332.23
332.654
333.082
333.493
333.866
334.175
334.398
334.514
334.514
334.398
334.175
333.866
333.493
333.082
332.654
332.23
331.835
331.526
326.775
327.031
327.364
327.722
328.084
328.432
328.747
329.008
329.196
329.295
329.295
329.196
329.008
328.747
328.432
328.084
327.722
327.364
327.031
326.775
321.975
322.181
322.453
322.746
323.042
323.327
323.584
323.798
323.951
324.032
324.032
323.951
323.798
323.584
323.327
323.042
322.746
322.453
322.181
321.975
317.137
317.295
317.506
317.734
317.964
318.185
318.385
318.551
318.671
318.733
318.733
318.671
318.551
318.385
318.185
317.964
317.734
317.506
317.295
317.137
312.268
312.38
312.53
312.693
312.858
313.016
313.159
313.277
313.362
313.407
313.407
313.362
313.277
313.159
313.016
312.858
312.693
312.53
312.38
312.268
307.378
307.445
307.535
307.633
307.731
307.826
307.912
307.983
308.034
308.061
308.061
308.034
307.983
307.912
307.826
307.731
307.633
307.535
307.445
307.378
302.475
302.497
302.527
302.56
302.593
302.625
302.654
302.677
302.695
302.704
302.704
302.695
302.677
302.654
302.625
302.593
302.56
302.527
302.497
302.475
337.138
337.482
337.913
338.372
338.832
339.273
339.67
339.999
340.235
340.358
340.358
340.235
339.999
339.67
339.273
338.832
338.372
337.913
337.482
337.138
332.324
332.615
332.987
333.384
333.783
334.165
334.509
334.793
334.997
335.104
335.104
334.997
334.793
334.509
334.165
333.783
333.384
332.987
332.615
332.324
327.452
327.694
328.007
328.342
328.68
329.003
329.294
329.534
329.706
329.796
329.796
329.706
329.534
329.294
329.003
328.68
328.342
328.007
327.694
327.452
322.531
322.726
322.981
323.255
323.531
323.795
324.033
324.23
324.371
324.444
324.444
324.371
324.23
324.033
323.795
323.531
323.255
322.981
322.726
322.531
317.57
317.72
317.918
318.131
318.346
318.551
318.736
318.889
318.998
319.055
319.055
318.998
318.889
318.736
318.551
318.346
318.131
317.918
317.72
317.57
312.578
312.684
312.825
312.978
313.131
313.278
313.41
313.519
313.597
313.638
313.638
313.597
313.519
313.41
313.278
313.131
312.978
312.825
312.684
312.578
307.564
307.628
307.712
307.804
307.896
307.984
308.063
308.129
308.176
308.2
308.2
308.176
308.129
308.063
307.984
307.896
307.804
307.712
307.628
307.564
302.537
302.558
302.587
302.617
302.648
302.678
302.704
302.726
302.742
302.75
302.75
302.742
302.726
302.704
302.678
302.648
302.617
302.587
302.558
302.537
338.178
338.501
338.904
339.331
339.758
340.164
340.528
340.828
341.043
341.155
341.155
341.043
340.828
340.528
340.164
339.758
339.331
338.904
338.501
338.178
333.228
333.502
333.85
334.22
334.589
334.941
335.257
335.517
335.702
335.799
335.799
335.702
335.517
335.257
334.941
334.589
334.22
333.85
333.502
333.228
328.22
328.447
328.74
329.053
329.365
329.663
329.93
330.149
330.306
330.388
330.388
330.306
330.149
329.93
329.663
329.365
329.053
328.74
328.447
328.22
323.161
323.344
323.583
323.839
324.094
324.338
324.556
324.736
324.864
324.931
324.931
324.864
324.736
324.556
324.338
324.094
323.839
323.583
323.344
323.161
318.062
318.202
318.387
318.586
318.785
318.974
319.144
319.284
319.383
319.435
319.435
319.383
319.284
319.144
318.974
318.785
318.586
318.387
318.202
318.062
312.93
313.029
313.162
313.303
313.446
313.581
313.702
313.802
313.873
313.91
313.91
313.873
313.802
313.702
313.581
313.446
313.303
313.162
313.029
312.93
307.776
307.835
307.914
308
308.085
308.166
308.239
308.299
308.342
308.364
308.364
308.342
308.299
308.239
308.166
308.085
308
307.914
307.835
307.776
302.608
302.628
302.654
302.683
302.712
302.739
302.763
302.783
302.798
302.805
302.805
302.798
302.783
302.763
302.739
302.712
302.683
302.654
302.628
302.608
339.342
339.645
340.02
340.416
340.809
341.181
341.513
341.786
341.98
342.081
342.081
341.98
341.786
341.513
341.181
340.809
340.416
340.02
339.645
339.342
334.242
334.498
334.822
335.164
335.505
335.827
336.115
336.351
336.519
336.607
336.607
336.519
336.351
336.115
335.827
335.505
335.164
334.822
334.498
334.242
329.08
329.293
329.565
329.855
330.143
330.416
330.659
330.859
331.001
331.075
331.075
331.001
330.859
330.659
330.416
330.143
329.855
329.565
329.293
329.08
323.867
324.038
324.26
324.497
324.733
324.956
325.155
325.319
325.435
325.495
325.495
325.435
325.319
325.155
324.956
324.733
324.497
324.26
324.038
323.867
318.612
318.743
318.916
319.1
319.283
319.457
319.612
319.739
319.829
319.876
319.876
319.829
319.739
319.612
319.457
319.283
319.1
318.916
318.743
318.612
313.324
313.417
313.54
313.671
313.802
313.926
314.037
314.128
314.192
314.226
314.226
314.192
314.128
314.037
313.926
313.802
313.671
313.54
313.417
313.324
308.013
308.068
308.142
308.221
308.3
308.374
308.441
308.495
308.534
308.554
308.554
308.534
308.495
308.441
308.374
308.3
308.221
308.142
308.068
308.013
302.688
302.706
302.731
302.757
302.784
302.809
302.831
302.849
302.862
302.869
302.869
302.862
302.849
302.831
302.809
302.784
302.757
302.731
302.706
302.688
340.634
340.916
341.264
341.628
341.989
342.328
342.63
342.876
343.051
343.142
343.142
343.051
342.876
342.63
342.328
341.989
341.628
341.264
340.916
340.634
335.365
335.604
335.904
336.22
336.532
336.826
337.088
337.301
337.453
337.531
337.531
337.453
337.301
337.088
336.826
336.532
336.22
335.904
335.604
335.365
330.034
330.232
330.485
330.752
331.016
331.265
331.486
331.667
331.795
331.861
331.861
331.795
331.667
331.486
331.265
331.016
330.752
330.485
330.232
330.034
324.65
324.809
325.015
325.233
325.45
325.653
325.834
325.982
326.087
326.141
326.141
326.087
325.982
325.834
325.653
325.45
325.233
325.015
324.809
324.65
319.222
319.344
319.504
319.674
319.842
320.001
320.141
320.256
320.338
320.38
320.38
320.338
320.256
320.141
320.001
319.842
319.674
319.504
319.344
319.222
313.761
313.847
313.961
314.082
314.203
314.316
314.416
314.499
314.557
314.587
314.587
314.557
314.499
314.416
314.316
314.203
314.082
313.961
313.847
313.761
308.275
308.327
308.395
308.468
308.54
308.608
308.669
308.718
308.753
308.771
308.771
308.753
308.718
308.669
308.608
308.54
308.468
308.395
308.327
308.275
302.776
302.793
302.816
302.84
302.864
302.887
302.907
302.924
302.936
302.942
302.942
302.936
302.924
302.907
302.887
302.864
302.84
302.816
302.793
302.776
342.053
342.315
342.636
342.971
343.3
343.608
343.881
344.103
344.26
344.342
344.342
344.26
344.103
343.881
343.608
343.3
342.971
342.636
342.315
342.053
336.6
336.821
337.098
337.388
337.674
337.941
338.178
338.37
338.506
338.576
338.576
338.506
338.37
338.178
337.941
337.674
337.388
337.098
336.821
336.6
331.082
331.265
331.499
331.744
331.986
332.212
332.412
332.575
332.69
332.75
332.75
332.69
332.575
332.412
332.212
331.986
331.744
331.499
331.265
331.082
325.509
325.657
325.848
326.048
326.246
326.431
326.595
326.728
326.822
326.871
326.871
326.822
326.728
326.595
326.431
326.246
326.048
325.848
325.657
325.509
319.892
320.006
320.153
320.309
320.463
320.607
320.735
320.838
320.911
320.949
320.949
320.911
320.838
320.735
320.607
320.463
320.309
320.153
320.006
319.892
314.24
314.321
314.426
314.537
314.647
314.75
314.841
314.915
314.968
314.995
314.995
314.968
314.915
314.841
314.75
314.647
314.537
314.426
314.321
314.24
308.564
308.612
308.675
308.742
308.808
308.87
308.924
308.969
309
309.016
309.016
309
308.969
308.924
308.87
308.808
308.742
308.675
308.612
308.564
302.872
302.888
302.91
302.932
302.954
302.975
302.993
303.008
303.019
303.024
303.024
303.019
303.008
302.993
302.975
302.954
302.932
302.91
302.888
302.872
343.6
343.842
344.138
344.445
344.744
345.024
345.27
345.469
345.609
345.682
345.682
345.609
345.469
345.27
345.024
344.744
344.445
344.138
343.842
343.6
337.946
338.15
338.405
338.671
338.931
339.173
339.386
339.559
339.681
339.744
339.744
339.681
339.559
339.386
339.173
338.931
338.671
338.405
338.15
337.946
332.224
332.394
332.609
332.834
333.053
333.259
333.439
333.585
333.688
333.742
333.742
333.688
333.585
333.439
333.259
333.053
332.834
332.609
332.394
332.224
326.446
326.583
326.758
326.942
327.122
327.29
327.438
327.557
327.642
327.685
327.685
327.642
327.557
327.438
327.29
327.122
326.942
326.758
326.583
326.446
320.623
320.727
320.863
321.006
321.146
321.277
321.392
321.485
321.551
321.585
321.585
321.551
321.485
321.392
321.277
321.146
321.006
320.863
320.727
320.623
314.763
314.837
314.934
315.036
315.136
315.23
315.312
315.378
315.425
315.45
315.45
315.425
315.378
315.312
315.23
315.136
315.036
314.934
314.837
314.763
308.878
308.922
308.981
309.042
309.102
309.158
309.207
309.247
309.275
309.29
309.29
309.275
309.247
309.207
309.158
309.102
309.042
308.981
308.922
308.878
302.978
302.993
303.012
303.033
303.053
303.072
303.088
303.101
303.111
303.116
303.116
303.111
303.101
303.088
303.072
303.053
303.033
303.012
302.993
302.978
345.273
345.496
345.768
346.048
346.32
346.573
346.794
346.973
347.098
347.163
347.163
347.098
346.973
346.794
346.573
346.32
346.048
345.768
345.496
345.273
339.4
339.589
339.823
340.066
340.302
340.521
340.713
340.868
340.976
341.033
341.033
340.976
340.868
340.713
340.521
340.302
340.066
339.823
339.589
339.4
333.459
333.615
333.812
334.018
334.217
334.403
334.565
334.696
334.788
334.836
334.836
334.788
334.696
334.565
334.403
334.217
334.018
333.812
333.615
333.459
327.459
327.585
327.746
327.913
328.077
328.229
328.362
328.469
328.544
328.583
328.583
328.544
328.469
328.362
328.229
328.077
327.913
327.746
327.585
327.459
321.412
321.508
321.633
321.764
321.891
322.009
322.112
322.196
322.255
322.285
322.285
322.255
322.196
322.112
322.009
321.891
321.764
321.633
321.508
321.412
315.328
315.396
315.485
315.578
315.669
315.754
315.828
315.887
315.929
315.951
315.951
315.929
315.887
315.828
315.754
315.669
315.578
315.485
315.396
315.328
309.218
309.258
309.312
309.368
309.422
309.473
309.517
309.553
309.579
309.592
309.592
309.579
309.553
309.517
309.473
309.422
309.368
309.312
309.258
309.218
303.092
303.105
303.123
303.142
303.16
303.177
303.192
303.204
303.213
303.217
303.217
303.213
303.204
303.192
303.177
303.16
303.142
303.123
303.105
303.092
347.065
347.27
347.519
347.774
348.021
348.249
348.448
348.607
348.719
348.777
348.777
348.719
348.607
348.448
348.249
348.021
347.774
347.519
347.27
347.065
340.957
341.13
341.345
341.566
341.78
341.978
342.15
342.289
342.386
342.436
342.436
342.386
342.289
342.15
341.978
341.78
341.566
341.345
341.13
340.957
334.778
334.922
335.103
335.29
335.471
335.639
335.785
335.902
335.984
336.027
336.027
335.984
335.902
335.785
335.639
335.471
335.29
335.103
334.922
334.778
328.54
328.656
328.804
328.957
329.105
329.242
329.362
329.458
329.525
329.56
329.56
329.525
329.458
329.362
329.242
329.105
328.957
328.804
328.656
328.54
322.254
322.343
322.457
322.576
322.692
322.799
322.892
322.966
323.019
323.046
323.046
323.019
322.966
322.892
322.799
322.692
322.576
322.457
322.343
322.254
315.93
315.993
316.075
316.16
316.242
316.319
316.385
316.438
316.476
316.495
316.495
316.476
316.438
316.385
316.319
316.242
316.16
316.075
315.993
315.93
309.58
309.617
309.666
309.717
309.767
309.813
309.853
309.885
309.907
309.919
309.919
309.907
309.885
309.853
309.813
309.767
309.717
309.666
309.617
309.58
303.213
303.226
303.242
303.259
303.276
303.291
303.304
303.315
303.323
303.327
303.327
303.323
303.315
303.304
303.291
303.276
303.259
303.242
303.226
303.213
348.954
349.143
349.371
349.603
349.827
350.033
350.211
350.354
350.454
350.506
350.506
350.454
350.354
350.211
350.033
349.827
349.603
349.371
349.143
348.954
342.595
342.755
342.951
343.153
343.347
343.525
343.68
343.804
343.891
343.936
343.936
343.891
343.804
343.68
343.525
343.347
343.153
342.951
342.755
342.595
336.165
336.297
336.463
336.633
336.798
336.949
337.08
337.185
337.259
337.296
337.296
337.259
337.185
337.08
336.949
336.798
336.633
336.463
336.297
336.165
329.675
329.782
329.917
330.056
330.191
330.315
330.422
330.508
330.568
330.599
330.599
330.568
330.508
330.422
330.315
330.191
330.056
329.917
329.782
329.675
323.137
323.219
323.324
323.432
323.537
323.633
323.717
323.784
323.831
323.855
323.855
323.831
323.784
323.717
323.633
323.537
323.432
323.324
323.219
323.137
316.561
316.619
316.694
316.771
316.846
316.915
316.975
317.023
317.056
317.073
317.073
317.056
317.023
316.975
316.915
316.846
316.771
316.694
316.619
316.561
309.959
309.993
310.038
310.085
310.13
310.171
310.207
310.236
310.256
310.266
310.266
310.256
310.236
310.207
310.171
310.13
310.085
310.038
309.993
309.959
303.34
303.352
303.367
303.382
303.397
303.411
303.423
303.433
303.44
303.443
303.443
303.44
303.433
303.423
303.411
303.397
303.382
303.367
303.352
303.34
350.891
351.064
351.273
351.485
351.688
351.874
352.035
352.163
352.253
352.299
352.299
352.253
352.163
352.035
351.874
351.688
351.485
351.273
351.064
350.891
344.266
344.413
344.593
344.777
344.954
345.115
345.255
345.366
345.444
345.484
345.484
345.444
345.366
345.255
345.115
344.954
344.777
344.593
344.413
344.266
337.574
337.695
337.847
338.003
338.153
338.289
338.408
338.502
338.568
338.602
338.602
338.568
338.502
338.408
338.289
338.153
338.003
337.847
337.695
337.574
330.824
330.922
331.046
331.173
331.296
331.408
331.505
331.582
331.636
331.664
331.664
331.636
331.582
331.505
331.408
331.296
331.173
331.046
330.922
330.824
324.028
324.103
324.199
324.299
324.394
324.481
324.557
324.617
324.659
324.68
324.68
324.659
324.617
324.557
324.481
324.394
324.299
324.199
324.103
324.028
317.196
317.25
317.318
317.389
317.457
317.52
317.574
317.617
317.647
317.662
317.662
317.647
317.617
317.574
317.52
317.457
317.389
317.318
317.25
317.196
310.34
310.371
310.413
310.455
310.496
310.534
310.566
310.592
310.61
310.619
310.619
310.61
310.592
310.566
310.534
310.496
310.455
310.413
310.371
310.34
303.468
303.478
303.492
303.506
303.52
303.533
303.544
303.552
303.558
303.561
303.561
303.558
303.552
303.544
303.533
303.52
303.506
303.492
303.478
303.468
352.747
352.907
353.1
353.295
353.481
353.65
353.796
353.912
353.993
354.034
354.034
353.993
353.912
353.796
353.65
353.481
353.295
353.1
352.907
352.747
345.849
345.985
346.151
346.32
346.482
346.629
346.756
346.857
346.927
346.963
346.963
346.927
346.857
346.756
346.629
346.482
346.32
346.151
345.985
345.849
338.893
339.006
339.146
339.29
339.427
339.552
339.659
339.745
339.805
339.835
339.835
339.805
339.745
339.659
339.552
339.427
339.29
339.146
339.006
338.893
331.89
331.981
332.095
332.213
332.325
332.428
332.516
332.586
332.635
332.66
332.66
332.635
332.586
332.516
332.428
332.325
332.213
332.095
331.981
331.89
324.849
324.918
325.008
325.099
325.187
325.267
325.335
325.39
325.428
325.448
325.448
325.428
325.39
325.335
325.267
325.187
325.099
325.008
324.918
324.849
317.778
317.828
317.891
317.957
318.019
318.077
318.126
318.165
318.192
318.206
318.206
318.192
318.165
318.126
318.077
318.019
317.957
317.891
317.828
317.778
310.687
310.717
310.755
310.794
310.832
310.866
310.896
310.919
310.936
310.944
310.944
310.936
310.919
310.896
310.866
310.832
310.794
310.755
310.717
310.687
303.584
303.594
303.607
303.62
303.632
303.644
303.654
303.662
303.667
303.67
303.67
303.667
303.662
303.654
303.644
303.632
303.62
303.607
303.594
303.584
354.193
354.344
354.525
354.708
354.882
355.04
355.176
355.283
355.358
355.397
355.397
355.358
355.283
355.176
355.04
354.882
354.708
354.525
354.344
354.193
347.035
347.163
347.32
347.48
347.631
347.769
347.888
347.982
348.047
348.081
348.081
348.047
347.982
347.888
347.769
347.631
347.48
347.32
347.163
347.035
339.852
339.959
340.092
340.227
340.356
340.473
340.574
340.654
340.71
340.738
340.738
340.71
340.654
340.574
340.473
340.356
340.227
340.092
339.959
339.852
332.646
332.732
332.841
332.952
333.058
333.154
333.237
333.303
333.349
333.372
333.372
333.349
333.303
333.237
333.154
333.058
332.952
332.841
332.732
332.646
325.42
325.486
325.571
325.657
325.74
325.815
325.88
325.932
325.967
325.986
325.986
325.967
325.932
325.88
325.815
325.74
325.657
325.571
325.486
325.42
318.178
318.225
318.285
318.347
318.407
318.46
318.507
318.544
318.569
318.582
318.582
318.569
318.544
318.507
318.46
318.407
318.347
318.285
318.225
318.178
310.924
310.952
310.988
311.026
311.061
311.094
311.121
311.144
311.159
311.167
311.167
311.159
311.144
311.121
311.094
311.061
311.026
310.988
310.952
310.924
303.663
303.672
303.684
303.697
303.709
303.72
303.729
303.736
303.741
303.744
303.744
303.741
303.736
303.729
303.72
303.709
303.697
303.684
303.672
303.663
)
;

boundaryField
{
    hotSide
    {
        type            fixedGradient;
        gradient        nonuniform List<scalar> 
400
(
338.016
339.151
341.425
344.848
349.433
355.197
362.16
370.341
379.763
390.448
402.415
415.686
430.279
446.208
463.49
482.135
502.155
523.557
546.348
570.533
343.952
345.04
347.222
350.51
354.923
360.483
367.215
375.146
384.305
394.717
406.411
419.41
433.736
449.408
466.443
484.855
504.654
525.851
548.451
572.459
350.376
351.408
353.48
356.609
360.818
366.138
372.6
380.241
389.095
399.197
410.579
423.272
437.3
452.688
469.453
487.611
507.173
528.15
550.547
574.369
357.182
358.148
360.092
363.036
367.011
372.055
378.21
385.521
394.033
403.789
414.827
427.185
440.891
455.972
472.449
490.338
509.653
530.401
552.588
576.22
364.179
365.072
366.872
369.609
373.323
378.061
383.878
390.829
398.97
408.354
419.026
431.029
444.397
459.161
475.341
492.957
512.02
532.538
554.518
577.961
371.076
371.89
373.537
376.054
379.49
383.905
389.368
395.945
403.704
412.706
423.006
434.652
447.684
462.132
478.022
495.371
514.191
534.49
556.271
579.535
377.477
378.213
379.707
382.005
385.166
389.265
394.38
400.594
407.983
416.62
426.567
437.877
450.594
464.75
480.372
497.477
516.077
536.177
557.781
580.886
382.911
383.575
384.932
387.032
389.948
393.764
398.573
404.466
411.533
419.853
429.494
440.516
452.964
466.874
482.271
499.172
517.588
537.525
558.982
581.958
386.887
387.497
388.748
390.698
393.427
397.029
401.606
407.259
414.084
422.167
431.583
442.393
454.644
468.374
483.607
500.361
518.646
538.465
559.818
582.702
388.994
389.574
390.768
392.637
395.264
398.75
403.201
408.724
415.42
423.377
432.673
443.369
455.517
469.151
484.298
500.975
519.191
538.949
560.248
583.083
388.994
389.574
390.768
392.637
395.264
398.75
403.201
408.724
415.42
423.377
432.673
443.369
455.517
469.151
484.298
500.975
519.191
538.949
560.248
583.083
386.887
387.497
388.748
390.698
393.427
397.029
401.606
407.259
414.084
422.167
431.583
442.393
454.644
468.374
483.607
500.361
518.646
538.465
559.818
582.702
382.911
383.575
384.932
387.032
389.948
393.764
398.573
404.466
411.533
419.853
429.494
440.516
452.964
466.874
482.271
499.172
517.588
537.525
558.982
581.958
377.477
378.213
379.707
382.005
385.166
389.265
394.38
400.594
407.983
416.62
426.567
437.877
450.594
464.75
480.372
497.477
516.077
536.177
557.781
580.886
371.076
371.89
373.537
376.054
379.49
383.905
389.368
395.945
403.704
412.706
423.006
434.652
447.684
462.132
478.022
495.371
514.191
534.49
556.271
579.535
364.179
365.072
366.872
369.609
373.323
378.061
383.878
390.829
398.97
408.354
419.026
431.029
444.397
459.161
475.341
492.957
512.02
532.538
554.518
577.961
357.182
358.148
360.092
363.036
367.011
372.055
378.21
385.521
394.033
403.789
414.827
427.185
440.891
455.972
472.449
490.338
509.653
530.401
552.588
576.22
350.376
351.408
353.48
356.609
360.818
366.138
372.6
380.241
389.095
399.197
410.579
423.272
437.3
452.688
469.453
487.611
507.173
528.15
550.547
574.369
343.952
345.04
347.222
350.51
354.923
360.483
367.215
375.146
384.305
394.717
406.411
419.41
433.736
449.408
466.443
484.855
504.654
525.851
548.451
572.459
338.016
339.151
341.425
344.848
349.433
355.197
362.16
370.341
379.763
390.448
402.415
415.686
430.279
446.208
463.49
482.135
502.155
523.557
546.348
570.533
)
;
    }
    coldSide
    {
        type            mixed;
        refValue        uniform 300;
        refGradient     uniform 0;
        valueFraction   uniform 0.991591;
        source          uniform 0;
        value           nonuniform List<scalar> 
400
(
300.019
300.019
300.019
300.019
300.02
300.02
300.02
300.021
300.021
300.022
300.023
300.023
300.024
300.025
300.026
300.027
300.028
300.029
300.03
300.031
300.019
300.019
300.019
300.02
300.02
300.02
300.021
300.021
300.022
300.022
300.023
300.023
300.024