/*--------------------------------*- C++ -*----------------------------------*\
| =========                 |                                                 |
| \\      /  F ield         | OpenFOAM: The Open Source CFD Toolbox           |
|  \\    /   O peration     | Version:  2212                                  |
|   \\  /    A nd           | Website:  www.openfoam.com                      |
|    \\/     M anipulation  |                                                 |
\*---------------------------------------------------------------------------*/
FoamFile
{
    version     2.0;
    format      ascii;
    arch        "LSB;label=32;scalar=64";
    class       volScalarField;
    location    "0";
    object      Tdirect;
}
// * * * * * * * * * * * * * * * * * * * * * * * * * * * * * * * * * * * * * //

dimensions      [0 0 0 1 0 0 0];

internalField   nonuniform List<scalar> 
3200
(
349.929
350.544
351.33
352.185
353.067
353.932
354.731
355.405
355.896
356.155
356.155
355.896
355.405
354.731
353.932
353.067
352.185
351.33
350.544
349.929
343.313
343.834
344.511
345.252
346.014
346.763
347.453
348.036
348.46
348.684
348.684
348.46
348.036
347.453
346.763
346.014
345.252
344.511
343.834
343.313
336.681
337.113
337.683
338.309
338.954
339.586
340.169
340.66
341.018
341.207
341.207
341.018
340.66
340.169
339.586
338.954
338.309
337.683
337.113
336.681
330.035
330.383
330.848
331.359
331.886
332.403
332.879
333.28
333.572
333.726
333.726
333.572
333.28
332.879
332.403
331.886
331.359
330.848
330.383
330.035
323.378
323.645
324.006
324.403
324.813
325.214
325.584
325.896
326.122
326.242
326.242
326.122
325.896
325.584
325.214
324.813
324.403
324.006
323.645
323.378
316.713
316.902
317.159
317.442
317.735
318.022
318.286
318.508
318.67
318.755
318.755
318.67
318.508
318.286
318.022
317.735
317.442
317.159
316.902
316.713
310.041
310.154
310.308
310.479
310.654
310.826
310.985
311.118
311.215
311.267
311.267
311.215
311.118
310.985
310.826
310.654
310.479
310.308
310.154
310.041
303.366
303.404
303.456
303.513
303.572
303.629
303.682
303.727
303.76
303.777
303.777
303.76
303.727
303.682
303.629
303.572
303.513
303.456
303.404
303.366
350.103
350.713
351.492
352.339
353.212
354.068
354.857
355.523
356.007
356.263
356.263
356.007
355.523
354.857
354.068
353.212
352.339
351.492
350.713
350.103
343.464
343.98
344.652
345.385
346.14
346.88
347.563
348.138
348.557
348.778
348.778
348.557
348.138
347.563
346.88
346.14
345.385
344.652
343.98
343.464
336.808
337.236
337.802
338.422
339.06
339.685
340.262
340.747
341.1
341.287
341.287
341.1
340.747
340.262
339.685
339.06
338.422
337.802
337.236
336.808
330.139
330.484
330.945
331.451
331.973
332.484
332.955
333.351
333.639
333.792
333.792
333.639
333.351
332.955
332.484
331.973
331.451
330.945
330.484
330.139
323.459
323.724
324.081
324.475
324.88
325.277
325.643
325.951
326.175
326.293
326.293
326.175
325.951
325.643
325.277
324.88
324.475
324.081
323.724
323.459
316.77
316.958
317.213
317.494
317.783
318.067
318.328
318.548
318.707
318.792
318.792
318.707
318.548
318.328
318.067
317.783
317.494
317.213
316.958
316.77
310.076
310.188
310.341
310.509
310.683
310.854
311.01
311.142
311.238
311.288
311.288
311.238
311.142
311.01
310.854
310.683
310.509
310.341
310.188
310.076
303.378
303.415
303.467
303.523
303.581
303.638
303.691
303.735
303.767
303.784
303.784
303.767
303.735
303.691
303.638
303.581
303.523
303.467
303.415
303.378
350.451
351.051
351.817
352.649
353.504
354.341
355.112
355.761
356.234
356.483
356.483
356.234
355.761
355.112
354.341
353.504
352.649
351.817
351.051
350.451
343.765
344.273
344.933
345.653
346.393
347.117
347.784
348.345
348.753
348.968
348.968
348.753
348.345
347.784
347.117
346.393
345.653
344.933
344.273
343.765
337.063
337.484
338.041
338.649
339.274
339.886
340.449
340.923
341.267
341.449
341.449
341.267
340.923
340.449
339.886
339.274
338.649
338.041
337.484
337.063
330.347
330.687
331.14
331.637
332.148
332.648
333.108
333.495
333.776
333.924
333.924
333.776
333.495
333.108
332.648
332.148
331.637
331.14
330.687
330.347
323.621
323.881
324.233
324.619
325.017
325.405
325.763
326.063
326.281
326.396
326.396
326.281
326.063
325.763
325.405
325.017
324.619
324.233
323.881
323.621
316.886
317.071
317.321
317.597
317.881
318.158
318.413
318.628
318.784
318.866
318.866
318.784
318.628
318.413
318.158
317.881
317.597
317.321
317.071
316.886
310.145
310.256
310.406
310.571
310.742
310.908
311.062
311.19
311.284
311.333
311.333
311.284
311.19
311.062
310.908
310.742
310.571
310.406
310.256
310.145
303.401
303.438
303.488
303.544
303.601
303.657
303.708
303.751
303.783
303.799
303.799
303.783
303.751
303.708
303.657
303.601
303.544
303.488
303.438
303.401
350.974
351.561
352.307
353.116
353.946
354.756
355.501
356.127
356.582
356.821
356.821
356.582
356.127
355.501
354.756
353.946
353.116
352.307
351.561
350.974
344.218
344.714
345.358
346.058
346.776
347.478
348.122
348.663
349.056
349.263
349.263
349.056
348.663
348.122
347.478
346.776
346.058
345.358
344.714
344.218
337.446
337.858
338.4
338.992
339.599
340.191
340.735
341.192
341.523
341.698
341.698
341.523
341.192
340.735
340.191
339.599
338.992
338.4
337.858
337.446
330.661
330.992
331.434
331.918
332.414
332.898
333.343
333.716
333.986
334.129
334.129
333.986
333.716
333.343
332.898
332.414
331.918
331.434
330.992
330.661
323.864
324.119
324.462
324.838
325.223
325.6
325.945
326.235
326.445
326.556
326.556
326.445
326.235
325.945
325.6
325.223
324.838
324.462
324.119
323.864
317.06
317.24
317.485
317.753
318.029
318.297
318.544
318.751
318.901
318.98
318.98
318.901
318.751
318.544
318.297
318.029
317.753
317.485
317.24
317.06
310.25
310.357
310.504
310.665
310.831
310.992
311.14
311.264
311.354
311.402
311.402
311.354
311.264
311.14
310.992
310.831
310.665
310.504
310.357
310.25
303.436
303.472
303.521
303.575
303.631
303.685
303.734
303.776
303.806
303.822
303.822
303.806
303.776
303.734
303.685
303.631
303.575
303.521
303.472
303.436
351.675
352.243
352.965
353.745
354.543
355.32
356.031
356.628
357.061
357.288
357.288
357.061
356.628
356.031
355.32
354.543
353.745
352.965
352.243
351.675
344.825
345.306
345.928
346.604
347.294
347.966
348.582
349.098
349.472
349.668
349.668
349.472
349.098
348.582
347.966
347.294
346.604
345.928
345.306
344.825
337.959
338.358
338.883
339.453
340.037
340.605
341.125
341.561
341.876
342.042
342.042
341.876
341.561
341.125
340.605
340.037
339.453
338.883
338.358
337.959
331.08
331.401
331.829
332.295
332.773
333.237
333.662
334.018
334.275
334.411
334.411
334.275
334.018
333.662
333.237
332.773
332.295
331.829
331.401
331.08
324.191
324.437
324.769
325.132
325.503
325.863
326.194
326.47
326.67
326.776
326.776
326.67
326.47
326.194
325.863
325.503
325.132
324.769
324.437
324.191
317.293
317.468
317.704
317.963
318.228
318.486
318.722
318.919
319.062
319.137
319.137
319.062
318.919
318.722
318.486
318.228
317.963
317.704
317.468
317.293
310.39
310.494
310.636
310.791
310.95
311.105
311.247
311.365
311.451
311.496
311.496
311.451
311.365
311.247
311.105
310.95
310.791
310.636
310.494
310.39
303.483
303.518
303.566
303.618
303.671
303.723
303.77
303.81
303.839
303.854
303.854
303.839
303.81
303.77
303.723
303.671
303.618
303.566
303.518
303.483
352.555
353.102
353.795
354.541
355.301
356.039
356.712
357.275
357.682
357.896
357.896
357.682
357.275
356.712
356.039
355.301
354.541
353.795
353.102
352.555
345.587
346.05
346.647
347.293
347.951
348.59
349.172
349.659
350.011
350.196
350.196
350.011
349.659
349.172
348.59
347.951
347.293
346.647
346.05
345.587
338.604
338.988
339.491
340.037
340.593
341.133
341.625
342.036
342.333
342.49
342.49
342.333
342.036
341.625
341.133
340.593
340.037
339.491
338.988
338.604
331.607
331.917
332.327
332.773
333.228
333.669
334.071
334.407
334.65
334.778
334.778
334.65
334.407
334.071
333.669
333.228
332.773
332.327
331.917
331.607
324.601
324.838
325.156
325.503
325.857
326.2
326.512
326.773
326.962
327.061
327.061
326.962
326.773
326.512
326.2
325.857
325.503
325.156
324.838
324.601
317.586
317.754
317.981
318.229
318.481
318.726
318.949
319.136
319.27
319.341
319.341
319.27
319.136
318.949
318.726
318.481
318.229
317.981
317.754
317.586
310.566
310.666
310.802
310.951
311.103
311.25
311.384
311.495
311.576
311.619
311.619
311.576
311.495
311.384
311.25
311.103
310.951
310.802
310.666
310.566
303.542
303.576
303.621
303.671
303.722
303.771
303.816
303.854
303.881
303.895
303.895
303.881
303.854
303.816
303.771
303.722
303.671
303.621
303.576
303.542
353.617
354.14
354.8
355.509
356.227
356.921
357.552
358.079
358.458
358.657
358.657
358.458
358.079
357.552
356.921
356.227
355.509
354.8
354.14
353.617
346.507
346.95
347.519
348.132
348.754
349.355
349.901
350.356
350.685
350.857
350.857
350.685
350.356
349.901
349.355
348.754
348.132
347.519
346.95
346.507
339.382
339.749
340.228
340.747
341.273
341.781
342.242
342.627
342.904
343.049
343.049
342.904
342.627
342.242
341.781
341.273
340.747
340.228
339.749
339.382
332.244
332.539
332.93
333.354
333.784
334.199
334.577
334.891
335.117
335.236
335.236
335.117
334.891
334.577
334.199
333.784
333.354
332.93
332.539
332.244
325.095
325.322
325.626
325.955
326.289
326.612
326.906
327.15
327.326
327.418
327.418
327.326
327.15
326.906
326.612
326.289
325.955
325.626
325.322
325.095
317.94
318.1
318.316
318.552
318.79
319.021
319.231
319.405
319.53
319.596
319.596
319.53
319.405
319.231
319.021
318.79
318.552
318.316
318.1
317.94
310.778
310.874
311.004
311.145
311.288
311.427
311.553
311.657
311.733
311.772
311.772
311.733
311.657
311.553
311.427
311.288
311.145
311.004
310.874
310.778
303.613
303.645
303.689
303.736
303.784
303.831
303.873
303.908
303.933
303.946
303.946
303.933
303.908
303.873
303.831
303.784
303.736
303.689
303.645
303.613
354.865
355.362
355.986
356.654
357.328
357.976
358.563
359.05
359.401
359.584
359.584
359.401
359.05
358.563
357.976
357.328
356.654
355.986
355.362
354.865
347.587
348.008
348.547
349.125
349.708
350.269
350.778
351.199
351.502
351.661
351.661
351.502
351.199
350.778
350.269
349.708
349.125
348.547
348.008
347.587
340.295
340.644
341.098
341.587
342.08
342.555
342.984
343.34
343.597
343.731
343.731
343.597
343.34
342.984
342.555
342.08
341.587
341.098
340.644
340.295
332.991
333.272
333.642
334.041
334.445
334.833
335.184
335.475
335.684
335.794
335.794
335.684
335.475
335.184
334.833
334.445
334.041
333.642
333.272
332.991
325.676
325.892
326.179
326.49
326.804
327.105
327.378
327.605
327.767
327.852
327.852
327.767
327.605
327.378
327.105
326.804
326.49
326.179
325.892
325.676
318.355
318.507
318.712
318.934
319.158
319.373
319.568
319.73
319.846
319.907
319.907
319.846
319.73
319.568
319.373
319.158
318.934
318.712
318.507
318.355
311.027
311.118
311.241
311.374
311.509
311.638
311.755
311.853
311.922
311.959
311.959
311.922
311.853
311.755
311.638
311.509
311.374
311.241
311.118
311.027
303.697
303.727
303.768
303.813
303.858
303.902
303.941
303.973
303.997
304.009
304.009
303.997
303.973
303.941
303.902
303.858
303.813
303.768
303.727
303.697
356.3
356.769
357.357
357.982
358.61
359.211
359.753
360.201
360.522
360.69
360.69
360.522
360.201
359.753
359.211
358.61
357.982
357.357
356.769
356.3
348.83
349.228
349.734
350.276
350.82
351.34
351.809
352.197
352.475
352.62
352.62
352.475
352.197
351.809
351.34
350.82
350.276
349.734
349.228
348.83
341.346
341.676
342.103
342.561
343.021
343.461
343.857
344.185
344.42
344.543
344.543
344.42
344.185
343.857
343.461
343.021
342.561
342.103
341.676
341.346
333.85
334.116
334.464
334.838
335.214
335.574
335.899
336.167
336.359
336.459
336.459
336.359
336.167
335.899
335.574
335.214
334.838
334.464
334.116
333.85
326.345
326.549
326.819
327.11
327.402
327.682
327.934
328.143
328.292
328.37
328.37
328.292
328.143
327.934
327.682
327.402
327.11
326.819
326.549
326.345
318.832
318.976
319.169
319.377
319.586
319.786
319.966
320.115
320.221
320.277
320.277
320.221
320.115
319.966
319.786
319.586
319.377
319.169
318.976
318.832
311.314
311.4
311.516
311.64
311.766
311.886
311.994
312.084
312.148
312.181
312.181
312.148
312.084
311.994
311.886
311.766
311.64
311.516
311.4
311.314
303.793
303.822
303.86
303.902
303.944
303.985
304.021
304.051
304.072
304.083
304.083
304.072
304.051
304.021
303.985
303.944
303.902
303.86
303.822
303.793
357.926
358.367
358.917
359.499
360.08
360.634
361.131
361.54
361.832
361.985
361.985
361.832
361.54
361.131
360.634
360.08
359.499
358.917
358.367
357.926
350.238
350.612
351.086
351.59
352.094
352.573
353.004
353.358
353.611
353.743
353.743
353.611
353.358
353.004
352.573
352.094
351.59
351.086
350.612
350.238
342.537
342.847
343.247
343.673
344.099
344.505
344.868
345.168
345.382
345.494
345.494
345.382
345.168
344.868
344.505
344.099
343.673
343.247
342.847
342.537
334.825
335.074
335.4
335.748
336.097
336.429
336.726
336.971
337.146
337.237
337.237
337.146
336.971
336.726
336.429
336.097
335.748
335.4
335.074
334.825
327.103
327.294
327.547
327.818
328.089
328.347
328.578
328.769
328.905
328.976
328.976
328.905
328.769
328.578
328.347
328.089
327.818
327.547
327.294
327.103
319.373
319.509
319.689
319.882
320.076
320.261
320.426
320.562
320.659
320.71
320.71
320.659
320.562
320.426
320.261
320.076
319.882
319.689
319.509
319.373
311.639
311.72
311.828
311.944
312.061
312.171
312.271
312.352
312.411
312.441
312.441
312.411
312.352
312.271
312.171
312.061
311.944
311.828
311.72
311.639
303.902
303.929
303.965
304.004
304.043
304.08
304.113
304.141
304.16
304.171
304.171
304.16
304.141
304.113
304.08
304.043
304.004
303.965
303.929
303.902
359.745
360.158
360.669
361.208
361.744
362.252
362.705
363.076
363.341
363.479
363.479
363.341
363.076
362.705
362.252
361.744
361.208
360.669
360.158
359.745
351.814
352.163
352.605
353.072
353.536
353.976
354.368
354.69
354.919
355.039
355.039
354.919
354.69
354.368
353.976
353.536
353.072
352.605
352.163
351.814
343.87
344.16
344.532
344.926
345.319
345.691
346.023
346.295
346.489
346.59
346.59
346.489
346.295
346.023
345.691
345.319
344.926
344.532
344.16
343.87
335.915
336.148
336.451
336.774
337.095
337.399
337.671
337.894
338.052
338.135
338.135
338.052
337.894
337.671
337.399
337.095
336.774
336.451
336.148
335.915
327.95
328.129
328.365
328.616
328.865
329.102
329.313
329.486
329.61
329.674
329.674
329.61
329.486
329.313
329.102
328.865
328.616
328.365
328.129
327.95
319.979
320.106
320.273
320.453
320.631
320.8
320.951
321.075
321.163
321.209
321.209
321.163
321.075
320.951
320.8
320.631
320.453
320.273
320.106
319.979
312.003
312.078
312.179
312.287
312.394
312.496
312.586
312.66
312.713
312.741
312.741
312.713
312.66
312.586
312.496
312.394
312.287
312.179
312.078
312.003
304.024
304.049
304.083
304.119
304.155
304.189
304.219
304.244
304.262
304.271
304.271
304.262
304.244
304.219
304.189
304.155
304.119
304.083
304.049
304.024
361.76
362.144
362.619
363.116
363.607
364.07
364.481
364.817
365.056
365.18
365.18
365.056
364.817
364.481
364.07
363.607
363.116
362.619
362.144
361.76
353.56
353.885
354.294
354.725
355.15
355.551
355.908
356.199
356.405
356.513
356.513
356.405
356.199
355.908
355.551
355.15
354.725
354.294
353.885
353.56
345.346
345.616
345.961
346.325
346.685
347.024
347.326
347.572
347.747
347.838
347.838
347.747
347.572
347.326
347.024
346.685
346.325
345.961
345.616
345.346
337.122
337.339
337.62
337.918
338.213
338.49
338.737
338.939
339.081
339.156
339.156
339.081
338.939
338.737
338.49
338.213
337.918
337.62
337.339
337.122
328.889
329.056
329.274
329.506
329.735
329.951
330.143
330.299
330.411
330.468
330.468
330.411
330.299
330.143
329.951
329.735
329.506
329.274
329.056
328.889
320.65
320.768
320.923
321.089
321.253
321.407
321.544
321.656
321.735
321.777
321.777
321.735
321.656
321.544
321.407
321.253
321.089
320.923
320.768
320.65
312.406
312.476
312.569
312.669
312.767
312.86
312.942
313.009
313.057
313.082
313.082
313.057
313.009
312.942
312.86
312.767
312.669
312.569
312.476
312.406
304.159
304.182
304.214
304.247
304.28
304.311
304.339
304.361
304.377
304.385
304.385
304.377
304.361
304.339
304.311
304.28
304.247
304.214
304.182
304.159
363.973
364.329
364.767
365.224
365.673
366.093
366.465
366.768
366.982
367.093
367.093
366.982
366.768
366.465
366.093
365.673
365.224
364.767
364.329
363.973
355.476
355.778
356.156
356.551
356.94
357.305
357.627
357.889
358.075
358.171
358.171
358.075
357.889
357.627
357.305
356.94
356.551
356.156
355.778
355.476
346.967
347.217
347.536
347.87
348.199
348.508
348.781
349.002
349.159
349.241
349.241
349.159
349.002
348.781
348.508
348.199
347.87
347.536
347.217
346.967
338.448
338.649
338.909
339.182
339.452
339.704
339.927
340.109
340.237
340.304
340.304
340.237
340.109
339.927
339.704
339.452
339.182
338.909
338.649
338.448
329.92
330.075
330.276
330.489
330.698
330.895
331.069
331.21
331.31
331.361
331.361
331.31
331.21
331.069
330.895
330.698
330.489
330.276
330.075
329.92
321.386
321.496
321.639
321.791
321.941
322.081
322.206
322.306
322.378
322.415
322.415
322.378
322.306
322.206
322.081
321.941
321.791
321.639
321.496
321.386
312.848
312.913
312.999
313.091
313.181
313.265
313.34
313.4
313.443
313.465
313.465
313.443
313.4
313.34
313.265
313.181
313.091
312.999
312.913
312.848
304.307
304.329
304.358
304.388
304.419
304.447
304.472
304.492
304.506
304.514
304.514
304.506
304.492
304.472
304.447
304.419
304.388
304.358
304.329
304.307
366.383
366.713
367.116
367.534
367.942
368.323
368.659
368.93
369.122
369.221
369.221
369.122
368.93
368.659
368.323
367.942
367.534
367.116
366.713
366.383
357.563
357.842
358.19
358.552
358.907
359.237
359.528
359.763
359.929
360.015
360.015
359.929
359.763
359.528
359.237
358.907
358.552
358.19
357.842
357.563
348.732
348.963
349.257
349.563
349.863
350.142
350.388
350.588
350.728
350.801
350.801
350.728
350.588
350.388
350.142
349.863
349.563
349.257
348.963
348.732
339.891
340.077
340.316
340.567
340.812
341.041
341.243
341.406
341.521
341.58
341.58
341.521
341.406
341.243
341.041
340.812
340.567
340.316
340.077
339.891
331.043
331.186
331.371
331.566
331.757
331.935
332.091
332.218
332.308
332.354
332.354
332.308
332.218
332.091
331.935
331.757
331.566
331.371
331.186
331.043
322.188
322.289
322.422
322.561
322.697
322.824
322.936
323.027
323.091
323.124
323.124
323.091
323.027
322.936
322.824
322.697
322.561
322.422
322.289
322.188
313.33
313.39
313.469
313.553
313.635
313.711
313.779
313.833
313.871
313.891
313.891
313.871
313.833
313.779
313.711
313.635
313.553
313.469
313.39
313.33
304.469
304.489
304.515
304.543
304.571
304.596
304.619
304.637
304.65
304.657
304.657
304.65
304.637
304.619
304.596
304.571
304.543
304.515
304.489
304.469
368.988
369.292
369.662
370.043
370.415
370.759
371.061
371.304
371.475
371.564
371.564
371.475
371.304
371.061
370.759
370.415
370.043
369.662
369.292
368.988
359.818
360.076
360.395
360.726
361.048
361.346
361.608
361.819
361.967
362.044
362.044
361.967
361.819
361.608
361.346
361.048
360.726
360.395
360.076
359.818
350.639
350.852
351.121
351.401
351.673
351.926
352.147
352.326
352.452
352.517
352.517
352.452
352.326
352.147
351.926
351.673
351.401
351.121
350.852
350.639
341.45
341.622
341.841
342.07
342.293
342.5
342.681
342.827
342.93
342.983
342.983
342.93
342.827
342.681
342.5
342.293
342.07
341.841
341.622
341.45
332.255
332.386
332.557
332.735
332.908
333.069
333.21
333.324
333.404
333.445
333.445
333.404
333.324
333.21
333.069
332.908
332.735
332.557
332.386
332.255
323.054
323.147
323.269
323.396
323.52
323.635
323.736
323.817
323.874
323.904
323.904
323.874
323.817
323.736
323.635
323.52
323.396
323.269
323.147
323.054
313.849
313.905
313.978
314.054
314.129
314.198
314.258
314.307
314.342
314.359
314.359
314.342
314.307
314.258
314.198
314.129
314.054
313.978
313.905
313.849
304.643
304.661
304.686
304.711
304.736
304.759
304.78
304.796
304.808
304.814
304.814
304.808
304.796
304.78
304.759
304.736
304.711
304.686
304.661
304.643
371.776
372.056
372.395
372.743
373.079
373.39
373.661
373.879
374.032
374.11
374.11
374.032
373.879
373.661
373.39
373.079
372.743
372.395
372.056
371.776
362.231
362.467
362.76
363.062
363.354
363.623
363.858
364.047
364.179
364.248
364.248
364.179
364.047
363.858
363.623
363.354
363.062
362.76
362.467
362.231
352.677
352.873
353.12
353.375
353.622
353.85
354.049
354.209
354.321
354.379
354.379
354.321
354.209
354.049
353.85
353.622
353.375
353.12
352.873
352.677
343.115
343.273
343.475
343.683
343.886
344.072
344.235
344.366
344.458
344.505
344.505
344.458
344.366
344.235
344.072
343.886
343.683
343.475
343.273
343.115
333.549
333.67
333.826
333.988
334.146
334.291
334.418
334.52
334.591
334.628
334.628
334.591
334.52
334.418
334.291
334.146
333.988
333.826
333.67
333.549
323.978
324.064
324.175
324.291
324.403
324.507
324.598
324.671
324.722
324.748
324.748
324.722
324.671
324.598
324.507
324.403
324.291
324.175
324.064
323.978
314.404
314.455
314.522
314.592
314.659
314.722
314.776
314.82
314.851
314.866
314.866
314.851
314.82
314.776
314.722
314.659
314.592
314.522
314.455
314.404
304.829
304.846
304.868
304.891
304.914
304.935
304.953
304.968
304.978
304.984
304.984
304.978
304.968
304.953
304.935
304.914
304.891
304.868
304.846
304.829
374.718
374.975
375.286
375.603
375.908
376.188
376.432
376.627
376.763
376.833
376.833
376.763
376.627
376.432
376.188
375.908
375.603
375.286
374.975
374.718
364.772
364.989
365.257
365.532
365.797
366.04
366.251
366.42
366.538
366.599
366.599
366.538
366.42
366.251
366.04
365.797
365.532
365.257
364.989
364.772
354.82
355
355.226
355.459
355.683
355.889
356.067
356.211
356.311
356.362
356.362
356.311
356.211
356.067
355.889
355.683
355.459
355.226
355
354.82
344.864
345.009
345.194
345.384
345.567
345.736
345.882
346
346.082
346.124
346.124
346.082
346
345.882
345.736
345.567
345.384
345.194
345.009
344.864
334.906
335.017
335.16
335.308
335.451
335.583
335.697
335.788
335.852
335.884
335.884
335.852
335.788
335.697
335.583
335.451
335.308
335.16
335.017
334.906
324.946
325.025
325.127
325.233
325.335
325.429
325.51
325.575
325.621
325.644
325.644
325.621
325.575
325.51
325.429
325.335
325.233
325.127
325.025
324.946
314.985
315.032
315.093
315.157
315.218
315.274
315.323
315.363
315.39
315.404
315.404
315.39
315.363
315.323
315.274
315.218
315.157
315.093
315.032
314.985
305.023
305.039
305.059
305.081
305.101
305.12
305.137
305.15
305.159
305.164
305.164
305.159
305.15
305.137
305.12
305.101
305.081
305.059
305.039
305.023
377.738
377.975
378.259
378.548
378.826
379.079
379.298
379.473
379.595
379.658
379.658
379.595
379.473
379.298
379.079
378.826
378.548
378.259
377.975
377.738
367.368
367.568
367.813
368.064
368.305
368.525
368.715
368.867
368.973
369.027
369.027
368.973
368.867
368.715
368.525
368.305
368.064
367.813
367.568
367.368
357
357.166
357.374
357.586
357.79
357.976
358.137
358.266
358.356
358.402
358.402
358.356
358.266
358.137
357.976
357.79
357.586
357.374
357.166
357
346.637
346.771
346.94
347.114
347.281
347.433
347.565
347.671
347.744
347.782
347.782
347.744
347.671
347.565
347.433
347.281
347.114
346.94
346.771
346.637
336.278
336.381
336.512
336.647
336.777
336.896
336.999
337.081
337.138
337.168
337.168
337.138
337.081
336.999
336.896
336.777
336.647
336.512
336.381
336.278
325.922
325.995
326.089
326.185
326.278
326.363
326.437
326.496
326.537
326.558
326.558
326.537
326.496
326.437
326.363
326.278
326.185
326.089
325.995
325.922
315.57
315.613
315.669
315.727
315.783
315.834
315.879
315.914
315.938
315.951
315.951
315.938
315.914
315.879
315.834
315.783
315.727
315.669
315.613
315.57
305.219
305.233
305.252
305.272
305.29
305.308
305.322
305.334
305.343
305.347
305.347
305.343
305.334
305.322
305.308
305.29
305.272
305.252
305.233
305.219
380.642
380.86
381.123
381.388
381.642
381.873
382.072
382.23
382.34
382.397
382.397
382.34
382.23
382.072
381.873
381.642
381.388
381.123
380.86
380.642
369.833
370.018
370.245
370.476
370.696
370.897
371.07
371.208
371.304
371.353
371.353
371.304
371.208
371.07
370.897
370.696
370.476
370.245
370.018
369.833
359.049
359.203
359.394
359.59
359.777
359.947
360.094
360.211
360.292
360.334
360.334
360.292
360.211
360.094
359.947
359.777
359.59
359.394
359.203
359.049
348.288
348.411
348.568
348.728
348.881
349.021
349.141
349.237
349.304
349.338
349.338
349.304
349.237
349.141
349.021
348.881
348.728
348.568
348.411
348.288
337.546
337.641
337.762
337.887
338.007
338.115
338.209
338.284
338.336
338.363
338.363
338.336
338.284
338.209
338.115
338.007
337.887
337.762
337.641
337.546
326.82
326.887
326.974
327.063
327.148
327.226
327.293
327.347
327.384
327.403
327.403
327.384
327.347
327.293
327.226
327.148
327.063
326.974
326.887
326.82
316.105
316.145
316.197
316.251
316.302
316.349
316.39
316.422
316.444
316.456
316.456
316.444
316.422
316.39
316.349
316.302
316.251
316.197
316.145
316.105
305.398
305.411
305.429
305.447
305.464
305.48
305.493
305.504
305.511
305.515
305.515
305.511
305.504
305.493
305.48
305.464
305.447
305.429
305.411
305.398
382.917
383.123
383.37
383.619
383.856
384.072
384.257
384.404
384.506
384.558
384.558
384.506
384.404
384.257
384.072
383.856
383.619
383.37
383.123
382.917
371.692
371.867
372.081
372.298
372.505
372.693
372.854
372.983
373.072
373.117
373.117
373.072
372.983
372.854
372.693
372.505
372.298
372.081
371.867
371.692
360.546
360.692
360.873
361.057
361.233
361.393
361.53
361.64
361.715
361.754
361.754
361.715
361.64
361.53
361.393
361.233
361.057
360.873
360.692
360.546
349.464
349.582
349.73
349.881
350.026
350.157
350.27
350.36
350.422
350.454
350.454
350.422
350.36
350.27
350.157
350.026
349.881
349.73
349.582
349.464
338.432
338.523
338.638
338.756
338.869
338.971
339.06
339.13
339.178
339.203
339.203
339.178
339.13
339.06
338.971
338.869
338.756
338.638
338.523
338.432
327.439
327.502
327.585
327.669
327.75
327.824
327.887
327.937
327.972
327.99
327.99
327.972
327.937
327.887
327.824
327.75
327.669
327.585
327.502
327.439
316.471
316.509
316.559
316.61
316.658
316.703
316.741
316.771
316.792
316.803
316.803
316.792
316.771
316.741
316.703
316.658
316.61
316.559
316.509
316.471
305.52
305.532
305.549
305.566
305.582
305.597
305.61
305.62
305.627
305.631
305.631
305.627
305.62
305.61
305.597
305.582
305.566
305.549
305.532
305.52
)
;

boundaryField
{
    hotSide
    {
        type            fixedGradient;
        gradient        nonuniform List<scalar> 
400
(
527.747
529.615
533.357
538.987
546.522
555.985
567.403
580.804
596.217
613.673
633.199
654.822
678.568
704.458
732.512
762.747
795.176
829.811
866.661
905.732
535.84
537.644
541.261
546.707
554.008
563.192
574.296
587.356
602.409
619.494
638.646
659.899
683.281
708.821
736.539
766.455
798.584
832.938
869.527
908.357
544.599
546.326
549.793
555.022
562.045
570.902
581.638
594.301
608.94
625.601
644.329
665.164
688.141
713.292
740.642
770.212
802.018
836.073
872.385
910.961
553.878
555.516
558.809
563.785
570.488
578.969
589.287
601.501
615.673
631.862
650.121
670.499
693.037
717.77
744.727
773.931
805.398
839.142
875.169
913.485
563.418
564.956
568.053
572.747
579.094
587.158
597.014
608.738
622.405
638.086
655.846
675.74
697.818
722.118
748.671
777.501
808.626
842.056
877.799
915.858
572.821
574.252
577.14
581.534
587.502
595.127
604.5
615.713
628.859
644.02
661.272
680.68
702.298
726.169
752.326
780.793
811.586
844.717
880.189
918.005
581.549
582.873
585.552
589.647
595.241
602.434
611.334
622.052
634.694
649.357
666.128
685.078
706.266
729.739
755.53
783.665
814.157
847.018
882.248
919.847
588.957
590.184
592.676
596.502
601.761
608.569
617.05
627.331
639.533
653.764
670.119
688.676
709.498
732.634
758.118
785.975
816.218
848.855
883.886
921.308
594.378
595.531
597.879
601.501
606.505
613.02
621.185
631.139
643.011
656.92
672.967
691.234
711.789
734.679
759.941
787.597
817.66
850.137
885.026
922.323
597.251
598.364
600.633
604.143
609.009
615.366
623.36
633.137
644.832
658.569
674.452
692.566
712.978
735.738
760.883
788.434
818.403
850.796
885.612
922.843
597.251
598.364
600.633
604.143
609.009
615.366
623.36
633.137
644.832
658.569
674.452
692.566
712.978
735.738
760.883
788.434
818.403
850.796
885.612
922.843
594.378
595.531
597.879
601.501
606.505
613.02
621.185
631.139
643.011
656.92
672.967
691.234
711.789
734.679
759.941
787.597
817.66
850.137
885.026
922.323
588.957
590.184
592.676
596.502
601.761
608.569
617.05
627.331
639.533
653.764
670.119
688.676
709.498
732.634
758.118
785.975
816.218
848.855
883.886
921.308
581.549
582.873
585.552
589.647
595.241
602.434
611.334
622.052
634.694
649.357
666.128
685.078
706.266
729.739
755.53
783.665
814.157
847.018
882.248
919.847
572.821
574.252
577.14
581.534
587.502
595.127
604.5
615.713
628.859
644.02
661.272
680.68
702.298
726.169
752.326
780.793
811.586
844.717
880.189
918.005
563.418
564.956
568.053
572.747
579.094
587.158
597.014
608.738
622.405
638.086
655.846
675.74
697.818
722.118
748.671
777.501
808.626
842.056
877.799
915.858
553.878
555.516
558.809
563.785
570.488
578.969
589.287
601.501
615.673
631.862
650.121
670.499
693.037
717.77
744.727
773.931
805.398
839.142
875.169
913.485
544.599
546.326
549.793
555.022
562.045
570.902
581.638
594.301
608.94
625.601
644.329
665.164
688.141
713.292
740.642
770.212
802.018
836.073
872.385
910.961
535.84
537.644
541.261
546.707
554.008
563.192
574.296
587.356
602.409
619.494
638.646
659.899
683.281
708.821
736.539
766.455
798.584
832.938
869.527
908.357
527.747
529.615
533.357
538.987
546.522
555.985
567.403
580.804
596.217
613.673
633.199
654.822
678.568
704.458
732.512
762.747
795.176
829.811
866.661
905.732
)
;
    }
    coldSide
    {
        type            mixed;
        refValue        uniform 300;
        refGradient     uniform 0;
        valueFraction   uniform 0.991591;
        source          uniform 0;
        value           nonuniform List<scalar> 
400
(
300.028
300.028
300.029
300.029
300.029
300.03
300.03
300.031
300.032
300.033
300.034
300.035
300.036
300.038
300.039
300.041
300.042
300.044
300.045
300.046
300.029
300.029
300.029
300.029
300.03
300.03
300.031
300.031
300.032
300.033
300.034
300.035
300.036
300.038
300.039
300.041