/*--------------------------------*- C++ -*----------------------------------*\
| =========                 |                                                 |
| \\      /  F ield         | OpenFOAM: The Open Source CFD Toolbox           |
|  \\    /   O peration     | Version:  2212                                  |
|   \\  /    A nd           | Website:  www.openfoam.com                      |
|    \\/     M anipulation  |                                                 |
\*---------------------------------------------------------------------------*/
FoamFile
{
    version     2.0;
    format      ascii;
    arch        "LSB;label=32;scalar=64";
    class       volScalarField;
    location    "./ITHACAoutput/true/7.4";
    object      error;
}
// * * * * * * * * * * * * * * * * * * * * * * * * * * * * * * * * * * * * * //

dimensions      [0 0 0 1 0 0 0];

internalField   nonuniform List<scalar> 
3200
(
-3.70924
-1.63299
0.121674
2.57525
3.45671
4.33139
5.21171
2.83126
5.19896
4.13396
4.74449
4.22366
4.18697
6.97929
3.91891
2.31471
6.1797
2.71134
-2.33334
-3.11988
-1.0777
1.09579
3.74011
1.83195
5.76664
2.5892
3.21993
4.2844
3.90917
2.85285
5.80879
4.28419
3.16498
1.48763
2.80248
3.57124
3.76693
1.49043
0.86872
-3.10445
-2.59131
-0.461622
0.0414327
-1.04736
1.94527
0.98604
3.35848
2.49205
3.47583
1.94384
2.75778
1.74507
2.08874
2.31621
4.43994
1.94197
1.79902
1.77819
1.53747
0.673309
-0.278863
-1.10644
2.81164
0.634179
3.42015
2.86235
2.22297
2.13363
2.56023
2.98302
1.52627
1.608
2.35002
2.33117
2.09174
3.45822
2.98439
0.11659
2.68346
-1.12992
-1.04976
0.289456
0.575802
1.36348
1.67739
1.11707
2.90497
4.28026
-0.0279997
2.17843
3.59028
2.54173
0.911798
0.858827
1.17028
1.34212
2.06482
-1.02994
1.33131
0.773225
0.652779
2.75889
-0.0707955
1.54877
0.803479
1.72654
0.977201
-0.543073
1.90742
0.247363
1.66212
-0.423222
1.46498
1.30035
1.86962
2.85427
-0.270888
-1.94571
-1.19675
-2.60218
-2.74123
-0.154143
-0.872184
-1.60593
1.53833
0.764934
-0.242829
2.27047
4.54618
-0.171704
0.62609
2.21291
-0.114699
2.86921
1.75996
-0.0143313
-0.176689
0.605442
-0.185763
-0.959894
2.24593
-2.1685
-2.44936
2.07364
2.75282
0.845793
0.978742
0.25064
1.214
-0.517205
0.829259
0.80665
2.19297
-0.698304
-0.680126
2.04833
2.81581
-0.119049
2.25472
-0.759391
-2.39579
-0.423449
-0.796015
2.55233
4.45267
3.52754
3.831
3.93068
2.223
0.997505
5.21983
5.10145
2.80241
2.04953
2.69316
2.64422
2.28194
3.67489
1.31309
-1.6865
-1.84108
-0.376081
1.7396
0.385127
3.31511
0.479035
1.81203
0.273836
5.21073
0.655114
-0.30252
3.29299
-0.542683
2.76738
0.0707706
2.29532
0.355633
0.0690223
-0.0552237
-3.20701
-4.40146
-2.17058
-2.8035
3.59708
1.07091
1.63615
3.90407
1.40543
4.11623
4.77543
2.00331
2.1683
3.18596
1.03045
3.55298
3.80742
2.09994
2.12114
-1.72479
-0.381676
-2.09578
-1.30921
3.26321
0.346354
3.12655
1.72514
-0.925041
1.67804
0.795549
2.19754
3.04
1.44599
-0.900128
1.261
1.88966
2.51825
0.467706
1.4271
-1.72146
1.13046
-2.87446
-0.531722
-2.26225
2.1192
3.15031
1.81622
0.665836
-0.928344
3.78992
2.16744
3.02438
2.87285
0.940902
-0.647168
2.0499
1.50743
3.44363
1.62766
-2.06497
-0.162714
0.25986
0.659494
3.31535
-0.169045
2.73683
-0.104993
0.354628
1.7986
2.15616
4.52318
-1.22073
-0.326777
0.195153
3.83918
3.7943
-0.406367
0.38809
0.963495
0.120395
-1.52889
0.805819
0.91791
-1.66015
-0.0864587
0.0254141
-1.52442
2.20354
-0.101734
1.2239
0.969657
2.12375
2.2247
-1.75957
1.11647
0.646609
1.76255
2.01191
2.05454
-0.702055
0.871597
1.50046
0.503413
2.22502
0.219089
0.545971
0.369301
0.184946
-0.0634041
-0.381381
-0.694849
-2.1923
1.41299
0.62211
-0.115429
1.74903
2.98032
-2.18911
0.0188753
1.07436
0.0553681
-2.65757
-0.97434
-0.013776
0.533921
4.11805
3.24015
4.74044
2.94483
2.74727
3.37442
4.33695
3.11745
4.05602
1.05775
3.36952
3.42334
2.77878
0.665972
-0.53633
0.375227
-4.23312
-0.34661
2.06627
2.12078
2.92636
5.29602
3.5971
2.05358
5.04637
3.19699
2.79957
2.52211
1.90547
1.99459
1.6426
2.68743
3.00102
-1.06181
-0.0944383
-3.26308
-1.55699
0.153627
2.18663
1.60312
3.02592
3.90019
-0.223182
3.41512
1.93002
3.32981
1.75727
0.404562
-0.5889
2.8151
2.22054
4.07503
2.44924
1.70535
-2.00062
-3.09463
-2.70629
-3.87071
-0.27792
2.38234
0.330652
1.51834
-0.126774
2.62877
2.29281
3.62357
2.83096
4.03095
3.42643
1.56972
2.81088
3.05335
2.09284
1.4174
-2.36942
-0.412398
-2.9454
-1.69253
0.898448
4.13731
1.99295
-1.18037
3.27241
0.866099
1.24588
-0.196882
1.47433
-1.46425
1.77232
1.8358
2.7622
3.12653
3.0238
1.75506
-1.62397
-0.168851
-2.1758
-0.664829
1.37458
0.415286
3.60405
1.04678
1.35376
1.11093
3.05612
1.99871
1.01957
0.768143
1.75084
1.18389
-1.5455
-0.335354
0.98515
1.15046
1.06179
-0.956327
-2.64496
-1.41851
-2.24481
1.10682
0.0566308
0.869762
2.51626
0.115391
-1.60849
1.35682
-2.04663
1.64279
0.532233
-2.66328
-0.772896
0.886755
0.647744
-0.201569
-0.964787
-0.478214
-2.83571
2.59775
2.25435
-0.30496
-1.25363
-1.19562
3.34379
-0.496312
2.03398
1.97289
0.223686
-0.589473
-0.393645
-1.2884
0.501544
2.14604
-1.41744
-1.75762
1.59715
-2.77692
-3.16149
-2.26525
3.0035
-0.0201631
4.18695
0.888035
-0.131405
1.37362
0.292652
5.53707
0.968417
-0.369681
2.08946
2.67088
3.30007
0.0795875
3.62073
0.647585
0.74327
-2.16695
-0.728579
-0.0684914
1.33907
-0.100252
3.58758
0.651788
1.20959
0.0659278
1.20939
0.480057
-0.0170649
0.445134
0.384012
0.555362
-0.372125
4.37145
0.64453
2.19681
0.183835
-1.3137
-1.46029
-2.37964
-2.7922
2.26906
0.149202
1.85167
1.55532
-0.653422
3.01713
0.866716
1.72361
1.22652
0.823018
2.31708
0.116036
0.699423
3.41248
2.20395
-0.913461
1.41592
-2.79596
-2.19754
0.488188
-0.280528
0.525555
2.26077
4.50892
4.27432
1.21113
1.99075
1.02022
1.3307
0.0768295
2.53128
1.04099
1.22534
1.43794
3.87759
-1.38284
-1.84734
-2.25014
-1.09363
0.998288
-1.15631
1.63643
1.09805
0.206181
1.37856
2.14794
0.233091
0.737102
2.77879
1.12646
1.41175
3.40427
1.51877
-1.37686
1.16883
1.94582
0.993467
-0.571163
-0.223814
1.84779
0.948307
0.493108
1.83243
-0.428401
-1.43972
1.65217
1.63136
2.09069
-0.681545
-0.563817
0.805399
1.89335
1.42058
-1.54919
1.62854
1.554
-0.622201
-2.98483
-1.9148
0.380789
0.782989
0.366061
1.3912
-0.170946
-2.22107
0.295432
-0.357369
-0.6261
1.43635
0.800801
-0.989179
0.995253
0.960917
0.137897
-0.512669
1.07884
-2.51533
-0.234142
-1.30688
1.00388
2.69242
-2.36724
0.621786
-0.123033
-0.460394
1.82433
-1.79102
0.267605
-0.907444
1.05242
3.15173
0.400689
0.286416
-1.57311
-1.16964
-1.47305
-2.25982
-3.55062
-1.29981
-0.401031
1.07715
1.732
1.16227
2.0391
3.61289
1.2348
1.99185
1.93529
1.05766
0.786365
2.66258
2.00598
0.46212
2.08779
1.08986
-1.10694
-2.23014
-3.84975
-2.78747
0.622393
0.490212
1.98816
-0.0497858
0.317079
0.693773
1.72374
2.23023
-1.08098
0.19294
0.512069
2.54785
0.605421
1.04155
0.473154
-1.20979
-1.45486
0.284382
-4.79126
-3.4046
0.246735
1.62612
1.19624
0.603267
-1.46325
3.5321
2.70217
1.56039
0.518878
1.32486
-0.50126
1.2573
1.58599
1.30058
1.14177
0.751614
-1.69594
-3.14409
-3.7976
-2.53447
0.0828445
2.14012
2.4331
1.91636
1.18934
3.06942
1.10429
0.307869
-1.71893
-0.184532
-0.239209
2.61717
1.22615
-0.40247
1.8766
0.728753
0.270827
-2.05755
-0.473674
-2.1366
-0.49399
0.855023
2.82086
1.57421
1.85613
1.38938
2.43739
3.91164
-0.449412
0.17026
0.914174
1.87821
3.02632
2.88317
1.95923
1.36412
-0.155672
-1.4537
0.311304
-1.54536
1.09273
1.93096
0.855037
1.84914
-2.47479
2.41385
0.615762
0.651444
2.84528
1.36552
-1.1675
-1.32738
0.0852952
-0.095867
-0.463183
1.07695
-0.0360118
-3.78516
-0.918189
0.283435
0.47621
-0.61012
2.496
0.84261
0.243347
0.662911
0.158884
1.00514
-0.570945
-0.691672
0.493409
1.53673
-0.165218
0.263675
-0.0540817
0.260668
-0.454978
0.238193
2.17319
-0.513704
0.864504
1.78838
-0.923067
0.836361
1.33681
0.162773
0.232144
1.65847
-2.34403
0.679398
1.25793
1.60496
-0.225676
2.61045
0.105322
1.42666
-3.15554
-0.67903
-3.30724
-2.35139
-0.260232
1.4355
2.96316
0.623903
2.36021
-0.799059
1.53934
0.360579
-1.63803
1.41784
1.49065
2.8158
0.973319
-1.78867
2.83608
-1.97178
1.94798
-4.16962
-3.19229
-0.0803314
-2.57023
0.179855
2.60696
0.285564
1.40328
0.27176
-1.8916
-0.0759899
0.0351144
0.105119
0.221757
0.153636
-0.0383402
1.17432
0.812916
1.06788
-0.285769
-3.73262
-2.09353
-2.41777
1.10694
2.49121
1.32891
0.0745072
1.08547
2.10107
0.483518
-0.8744
-1.25188
-1.31548
0.127955
0.90012
0.630442
-1.39368
2.02425
-2.09065
-1.23666
0.502007
-0.995793
1.11668
1.14185
1.64175
-0.162278
1.76342
1.64425
2.36694
0.703489
-0.208309
-1.84567
-0.0737802
-1.41044
1.96829
-0.488384
1.343
0.374277
0.297262
3.10209
-1.6115
-0.874818
-1.30174
-0.512581
1.24036
0.324944
-1.2268
0.749982
1.40286
-0.986757
0.705391
-0.254008
-1.64136
-0.595692
-0.475762
0.634323
0.551876
0.526762
-0.395904
-0.385238
-3.11472
-1.75146
-1.32867
0.355979
-0.698061
0.562397
1.3252
2.13786
-2.0331
-0.0198385
2.11955
-0.236937
0.297652
0.465529
-0.916435
2.47778
2.34075
1.34577
0.932399
0.944949
-2.97972
0.733163
-0.0568124
0.0571805
-1.57494
-0.992914
-2.627
-0.675486
0.804391
1.01983
1.19209
0.00109492
-1.54373
1.15231
-0.0819439
1.17183
0.116719
-1.41295
1.89979
-1.15066
-1.85071
1.38368
0.906338
2.23583
1.32659
-3.36195
-2.39749
-0.0700187
-0.19323
0.565388
0.935843
1.5454
1.71888
-3.21942
-0.88624
1.46066
-2.97584
-0.50675
0.991415
-1.24317
-1.64578
-5.98086
-1.30665
-1.3909
1.04615
0.899952
0.283609
0.359346
0.00835841
0.280039
-1.27966
-0.633617
-0.965402
-3.36068
1.1863
-0.234675
1.05012
0.515451
0.100919
-1.11507
-1.46818
-2.82919
-4.8469
0.319893
-0.639114
2.32582
-0.228267
2.72881
-0.420922
-0.436279
-3.64252
-1.19317
0.911774
-1.00453
-1.19377
-1.79456
0.520938
0.771552
2.01377
-1.55729
-4.88399
-4.19979
-0.977411
2.63935
1.76081
0.973542
-1.46731
-1.09541
-0.514428
-0.519565
-0.51044
0.877661
-2.3537
0.324217
-1.14094
2.16657
0.560574
3.23129
-0.853257
-0.498219
-2.79406
-3.75954
-3.0021
-2.42155
0.642163
0.0768407
1.98911
2.68071
1.99546
-1.11872
-0.56014
-4.56903
-1.66811
0.563765
2.7595
-0.195784
0.33418
0.633772
1.32209
1.92447
-1.97205
-2.84828
-2.66737
-0.398857
-0.847214
0.8823
-1.08379
0.957308
1.16724
-3.47845
-0.231009
-0.744014
-0.82358
-2.58642
-0.67241
0.809018
-0.0106874
-1.01205
-1.76731
-0.551872
-0.280054
-3.41866
-1.22109
-0.424888
-0.29249
-1.54313
0.0438309
0.957945
-1.35286
0.979545
0.264942
-0.53449
-0.877234
1.68177
-2.83927
0.36767
-0.0462918
2.23058
-0.607497
-1.73414
-1.33269
-1.09663
-2.0531
0.344038
-0.0313157
0.587323
0.500847
1.76838
-0.738572
1.22567
-0.623084
2.24439
0.185533
-0.0478486
-1.12215
-1.57271
1.94877
-0.156525
-0.828368
0.588312
0.575281
1.05475
-2.17009
0.0930699
1.09277
-0.908597
1.90231
1.71774
0.930269
-0.214725
-1.07585
0.304011
0.205964
-0.738104
-1.58638
-0.585824
1.47059
0.47028
-0.52855
-0.371796
-1.98043
-6.32141
-5.8707
-1.38189
-2.69661
1.35086
1.45698
-0.0984462
-1.22989
0.360068
-1.30779
-2.0679
-0.622724
-2.68924
-1.70655
-0.209628
-1.11308
-1.37435
0.181055
0.548898
-5.22941
-2.75933
-0.489515
-2.18778
-0.128478
-1.51766
0.0887573
0.743319
0.26143
0.219706
0.0242585
-0.580761
-2.07526
0.128499
-0.0277972
0.158512
-0.608048
0.245786
-1.83989
-0.0483875
-3.84303
-1.63947
-4.33688
1.31222
0.936608
1.20545
1.60048
-1.92798
1.36516
-2.22206
0.0428842
-1.40014
-2.22779
-1.49411
-0.361325
0.122006
-1.06295
-1.77126
-1.75702
-3.06449
-1.43094
-3.21987
0.0124204
0.183332
-0.213146
-0.595265
-0.890733
-0.706986
0.895108
0.446771
-1.13684
-1.96619
0.752084
0.19775
0.288334
0.826145
-1.39255
0.623192
-0.31068
-0.202338
-3.31832
-2.03443
-3.44684
0.0348612
-1.12887
-0.445616
-0.207239
1.03657
0.140836
-2.94851
0.133316
0.102028
-0.403744
-2.88312
-2.32911
2.07847
-0.0864862
1.40115
-0.163565
-2.8725
0.639353
-1.98693
-1.78875
1.47075
1.53718
1.25917
1.79261
-0.907461
1.03861
-0.648264
-3.12256
2.75598
0.493735
-2.0743
-0.947233
1.89257
0.970557
0.509435
-1.10288
0.736837
-1.43206
-1.38816
-3.15611
1.42622
-1.79359
-1.78052
0.156011
0.956747
1.81323
-2.29113
0.795306
-1.53981
0.824047
-2.23186
1.4505
0.082924
1.31158
0.287639
1.77087
-1.35027
-0.156511
1.09531
-2.17424
-0.214318
0.841964
0.18546
-0.268754
2.1808
2.64529
0.139221
-2.49278
-0.461538
-0.202821
-0.540927
-1.91338
0.355698
3.31109
0.199239
0.28063
2.03469
-3.23063
-6.01943
-2.2239
-3.26907
-1.14566
1.81458
-2.84322
0.804328
-0.467934
-0.786484
-3.74099
-3.25724
-1.74568
0.0766538
-2.78278
-2.23419
-1.23233
-1.70296
-0.773824
-2.45004
-5.12224
-5.10383
-2.94336
-0.185288
1.32017
-2.37879
1.82872
0.0542748
-2.39185
-1.67236
-0.304474
-3.5514
1.01514
-0.761736
0.177569
2.44955
-1.10703
0.857778
0.278006
-3.05133
-3.65062
-4.76151
-2.1328
-2.83235
-1.61383
0.409951
-0.953463
0.675277
-0.419474
-1.11749
-2.79244
-2.68798
-2.5643
-0.307785
0.766465
-0.278473
-2.16417
-0.451506
-2.37072
-1.27984
-5.61262
-3.51706
-1.30385
-0.633401
-0.120828
-0.536543
1.63657
-0.602894
1.64916
-1.1036
-0.68311
-1.6363
-1.08943
-2.16054
-0.953379
-0.903377
-2.69544
-0.389934
-0.396162
-1.19602
-2.23641
-1.36579
-2.48635
0.0493781
-1.09542
-2.5148
2.54073
-0.855289
-0.309457
1.56148
-1.57498
-1.43412
-0.431399
-0.605293
-1.8166
0.568445
-4.61813
0.0192071
-0.19407
-0.422056
-0.460736
-2.44701
-1.39092
0.574811
1.07871
1.72592
-0.178684
1.27242
0.227263
-1.00384
1.24888
0.155903
-1.76553
-1.04254
0.420202
-0.718359
-1.9101
-0.801375
2.45284
-2.19799
-2.15726
-5.14197
-0.139597
2.37176
-1.81258
0.0456144
-1.04418
0.353119
2.24942
-0.522545
1.40783
-1.40142
-1.16885
-0.916788
3.30586
0.776754
1.33089
-0.12986
-1.03181
-1.81398
-0.748571
0.474363
0.476491
0.0614252
-1.24442
0.465925
-0.957014
-0.325332
-0.455634
-1.18981
0.200485
-1.35258
1.04878
1.81218
-2.0694
-2.02446
-0.363409
-0.02348
0.082108
-2.38783
0.629349
-5.87167
-2.73329
-1.40906
-2.42633
-0.0280873
-2.14732
-1.49398
-1.17104
-1.10598
-2.12307
-2.4605
-3.92493
-2.00468
-1.60293
1.48388
-1.22135
-2.31505
-4.0105
-4.31696
-5.34554
-5.62966
-0.113141
-1.0877
-0.144655
-1.94175
0.579121
-3.31998
-0.0903764
-3.92708
-0.339197
0.198824
-1.77612
-0.647413
-0.823638
0.108801
-1.40469
-0.203529
-2.905
-0.689893
-3.23801
-4.43335
-4.68121
-1.79607
-0.557435
-1.62865
0.709965
-0.988065
-1.13334
-0.99031
-0.884266
-1.40525
-2.54095
-1.23959
-0.755273
-0.915433
-4.02398
-0.200842
2.09661
-0.373701
-2.9717
-3.82294
-0.69457
-0.760431
-0.743663
-0.0231734
-1.22295
-0.487672
-0.0971918
-1.06886
-0.03523
-0.107714
-1.65791
-1.50574
-0.705624
-1.86877
0.34076
-0.750965
1.5127
-1.05368
-0.702131
-4.04076
-4.29646
-0.356044
-0.960014
-0.0215098
0.518683
-2.95369
-0.404225
0.475971
1.45711
-0.57948
-1.95105
-1.67147
-0.914302
-2.50455
-0.758166
0.538335
-1.09404
-0.108536
-2.41131
-1.01847
0.144252
2.51261
-1.11886
0.245697
-1.18166
-1.95983
-0.373296
-2.4064
-0.841866
-5.31136
-0.173129
-0.856707
3.19432
-1.34505
2.50401
0.00110441
1.8864
0.688756
-2.21324
-0.973337
-2.52572
-1.27463
-1.39743
0.0338165
0.485501
2.29687
-0.341228
-1.5014
0.0120497
0.241714
-0.755894
0.0631947
-0.00437188
-2.27401
-1.07288
0.364459
-1.38626
-0.0886193
-2.32072
-0.227177
-1.02009
-0.239772
-1.18821
0.560431
0.519019
-0.551603
-0.524494
1.06834
2.18837
-0.722367
-0.73367
0.460466
-1.06513
0.526209
0.853805
-0.740249
-0.811211
2.35875
-0.417825
-4.64805
-2.90975
-0.707204
-2.66339
-1.13071
0.662935
-2.86099
-3.51844
-1.8064
-2.20031
-3.32152
-2.0183
-3.22233
-0.574342
-4.31853
-1.73634
0.150476
-1.82295
-3.21106
-3.92713
-5.68973
-0.659737
-2.02832
-0.0331462
-0.268827
-0.221175
-1.77784
-0.117481
-0.686035
-0.280359
-0.153633
-2.39055
-0.160014
-1.82553
-0.43639
-1.67358
-0.399832
-3.27114
-0.113985
-5.62814
-4.27652
-2.59109
-0.911321
0.375072
0.310445
0.601944
0.212619
-1.94767
-4.20665
0.110559
-3.21357
-1.70085
-4.38936
0.572417
-0.718484
-3.97845
-2.56889
-2.51457
-2.24317
-2.90117
-1.66459
-3.36646
-1.4912
-2.11356
-2.70099
0.499638
0.442572
-1.91301
-4.30191
-1.65192
-3.48976
0.0747792
1.2967
-1.93024
-1.60734
0.317894
-2.62164
-2.80088
-2.81663
-1.35051
-0.671693
-2.6969
-3.49436
-1.87451
0.27702
-2.18925
0.920537
0.956779
0.166859
-1.0641
-0.973057
-0.260803
-0.199629
-2.20079
-1.19261
-0.0488041
0.672397
-1.40737
-1.29605
-3.44684
-1.43593
0.443577
-1.5331
2.34466
-1.26742
-1.19471
-0.0698923
1.38065
-0.64315
-0.00229162
1.20437
-0.920396
0.572729
-0.0576944
1.47694
1.02375
-2.15711
-3.74651
0.244047
-0.882135
-3.86463
-1.60114
-1.70978
1.24842
-1.73237
1.02647
0.167776
0.08246
-0.863394
0.0289425
-0.568136
-2.59195
-0.868862
0.741591
1.57601
-0.831288
0.551331
-0.813325
1.2625
1.28331
1.22494
1.10992
-0.591062
-0.398027
1.36456
1.56081
0.487271
-2.37693
-0.583492
-0.148297
-0.568671
-0.104992
-0.114704
0.948271
0.334288
3.19991
-1.31706
-0.305028
-0.928078
0.642354
-6.44645
-4.46461
-1.06006
-2.71676
-1.26259
-1.32483
-1.39481
-1.89291
-3.11132
-1.3842
-3.96144
-3.1532
-0.895096
1.10782
-3.59731
-0.724075
-1.97945
-3.45026
-2.84933
-5.032
-4.33772
-5.58326
-2.71449
-1.23903
0.155841
-0.417919
-3.34175
-1.32755
-1.9569
-0.366191
-3.14181
-2.39785
-1.8736
-3.58697
-1.03438
3.13177
1.35062
-1.27184
-3.47093
-4.20441
-6.78178
-3.04687
-2.46357
-1.12014
0.517885
-1.1265
-0.185631
1.641
1.89421
-1.80814
-2.65559
-2.61141
0.0107685
-1.30423
0.0668271
1.28942
-0.581926
-1.78107
-0.53322
-5.89135
-3.77316
-3.37184
-1.18356
-1.72456
-0.67932
-0.725616
1.4929
-0.968262
0.338333
-2.31245
-1.78078
-2.23607
-1.57554
0.614796
-3.10156
0.874048
-0.161091
-0.701493
-1.36167
-2.54505
1.60357
-1.25587
-1.85198
-2.15754
0.803349
-0.465434
-0.146509
0.560671
0.438301
-1.77378
-1.92267
-0.472486
-2.53343
-1.11055
-0.867871
-0.518767
0.0112222
-1.78801
-3.58993
-2.47647
-2.29486
-2.01893
-0.0631921
-1.05563
-1.64975
-2.38959
-1.01379
-1.10779
-0.624774
-0.907238
-3.33654
0.306949
-1.85856
-0.338461
-2.20803
-1.52651
0.359769
0.408395
-1.41703
-0.261005
-0.0921731
-0.883698
-1.86129
0.0172318
-0.934207
-0.0656874
2.10578
-1.76948
-0.0892302
0.662979
-3.02649
0.560815
-0.692909
-1.31951
1.07621
-1.73858
0.0317787
-0.0880224
-2.2243
-2.70052
-2.35919
1.05864
-0.649577
1.86954
0.849488
0.759577
0.524713
-0.126429
-0.326252
0.421932
0.647079
-0.142216
-2.04509
-0.677514
0.237433
0.638875
-0.0904225
-0.350582
-0.453631
0.638583
-4.76764
-2.85157
-1.64093
0.737241
-2.26229
-3.7968
-2.4133
-3.26428
-2.41255
-1.80591
-0.781254
-2.43692
1.82846
-3.72414
1.39502
-0.0965158
-2.49429
-0.139654
-1.92381
-5.40017
-3.36596
0.0477943
-1.33865
-0.380991
-0.0920191
0.582806
0.47079
0.441418
-0.0260606
-0.18652
-0.362823
0.55632
0.164634
0.242308
0.43838
0.13022
0.367887
-1.48342
-0.0795736
-1.65828
-4.8293
-3.11689
-1.03799
-1.61092
-0.0892792
-0.133215
-2.4893
-0.796303
0.17807
0.193267
-1.74984
-1.22336
-0.18981
-1.95041
-2.1441
-1.07468
-0.260305
0.620165
-1.53211
-3.03579
-2.76909
-0.486404
0.686761
-1.19646
-0.0228494
-1.0435
-0.0179095
0.678014
-0.607424
-2.33912
-1.21025
-2.27714
0.129598
2.17688
-0.886061
-0.950442
-1.32869
-0.365531
-1.22395
-4.17799
-3.87848
-1.23496
-2.68627
-1.34381
-0.0536904
-0.729879
-1.46816
0.999683
-0.845405
-0.00632143
-1.4656
-0.927033
1.45257
-0.643156
-0.179725
-0.954242
-0.163219
0.836401
-1.95482
-3.94488
-2.56734
2.11422
0.71245
-0.340823
1.35893
-1.56471
-0.267974
-0.89073
-0.486695
-1.9837
0.16783
-1.22055
-1.37534
0.716462
2.35413
-0.157916
-0.690896
0.887624
-0.800773
-1.72268
-0.93159
-1.25351
2.02165
-1.55585
-2.28621
-0.715475
-0.393575
-1.93727
0.367136
-0.851215
0.0730977
0.825902
-1.86964
-1.87261
-0.307016
-0.748678
1.22552
-0.807733
0.569514
0.0460664
-0.476653
0.758212
-0.741265
-1.39925
1.19271
0.139739
0.88939
-0.633298
-2.10307
0.943524
-1.17365
-0.660566
0.153323
0.634119
-0.297091
-0.940838
2.69497
0.723236
-3.47054
1.27619
-6.56478
-4.49709
-0.522024
0.165897
-3.28919
1.06106
-1.06992
-0.00566505
-0.595403
-2.05213
-1.6654
-1.88124
-3.22013
-2.06037
-0.524994
-0.576875
1.02537
-1.08065
-0.964119
-4.21624
-2.50134
-2.95694
-4.26326
-3.88599
1.64323
-1.55255
-0.302279
1.45448
1.99412
-1.7469
0.216705
-2.33202
1.89622
-3.11916
-3.65122
-0.17454
-1.53103
-1.3254
-1.75682
-4.99635
-3.5149
-5.18779
-2.86033
-1.93844
-0.610413
-2.16365
0.417459
-1.0088
-0.169468
0.998407
-1.72942
-1.66334
0.320563
-0.328354
-0.494976
-0.666317
-0.24426
0.73508
-0.0147164
-2.30147
-2.16807
-4.32626
-1.22157
-4.07795
-1.27961
1.95925
-2.0993
0.797203
-0.0563058
0.10907
-0.951341
-3.31456
1.02723
-0.399651
-0.528158
1.85845
1.73482
-1.26691
-1.78208
-2.15465
-2.29642
-1.78362
-1.07114
-0.588728
-1.60455
0.865167
0.73939
1.81739
-3.00048
0.46511
-0.953237
-3.40359
0.0512581
-0.902393
1.75534
-2.53532
1.33937
-2.36752
1.14068
-1.17315
-1.60708
-0.744145
-1.34883
0.00847917
1.16071
-0.82876
1.2791
-3.05694
-0.0803791
-1.60496
-0.423281
0.126758
1.13968
-1.02831
-2.15267
-2.12581
-1.11745
1.71674
-3.40889
-0.366015
-2.7531
-1.27629
0.153565
-2.13242
-1.48622
-0.347729
-0.177114
-0.455208
-0.512661
0.182674
-0.225323
-1.01854
0.700561
0.231208
-0.0101908
0.649575
-0.54529
-0.885195
-0.339094
-0.560382
2.83782
-0.300884
-0.737277
-0.686703
-1.87599
1.29907
0.621463
-0.637635
0.559195
-1.84507
1.34069
-0.888473
-0.756584
-3.15261
2.02437
0.993918
2.44267
-0.156622
-0.72185
-0.534233
-3.69207
-3.15065
-1.97712
-1.21954
-1.75371
-0.372691
-1.865
-0.340006
-1.51707
-0.464832
0.0564783
-1.09409
1.4607
-1.46549
-1.02347
0.972183
-0.751535
-1.02631
-2.43091
-3.20646
-4.22662
-0.277486
-2.18027
0.0947671
0.253962
0.495238
-1.27617
0.425052
1.08495
-0.239731
0.294539
-0.926954
-0.00569592
-0.241236
0.0754156
-0.399439
-0.235133
0.115746
-0.606331
-2.23268
-4.67886
-3.49688
0.485814
-2.02009
-0.619815
-0.209792
-0.539633
-1.79488
0.00502938
-0.761356
-0.983214
-0.23871
1.14979
-3.31989
-0.647078
0.192007
0.783207
-0.0277676
-0.436175
-3.63142
-3.09718
-2.41219
-1.53564
-1.03041
-1.35296
3.35873
0.371479
1.46449
-0.622615
-0.87564
-0.397472
-0.910749
-2.55783
-0.796068
-0.353985
-0.56466
0.435484
-4.66632
-2.1344
-0.930745
-3.51204
-1.15972
-1.41753
0.287353
1.05448
-1.36296
-2.22139
0.0848544
-2.1446
0.211953
0.475372
-0.40143
-0.306556
-0.0543672
1.04262
-0.00876224
-0.977358
-1.16947
-1.32818
-2.46797
-1.12237
-0.155335
-0.0128548
3.5193
1.78016
0.636129
0.853306
0.729478
-0.197882
0.093762
0.370588
1.01004
1.95581
0.440984
1.72255
2.08482
0.53827
-0.57867
1.81133
0.125675
-2.24708
-0.413551
-1.38825
0.381464
-0.736853
-1.63217
3.37261
-1.19661
-0.220537
2.41045
-0.428542
0.600694
-0.474334
1.52618
0.148249
0.212034
-0.892346
-1.349
0.84993
-2.4133
0.136515
-0.408212
-0.391899
1.33956
-0.167309
0.505789
1.4193
0.732171
-1.32528
-1.31666
-2.08515
-1.93745
0.952466
-0.628617
0.536469
0.527326
0.00600174
0.252906
-0.88942
1.5511
-3.30964
-2.86382
-0.0713201
0.880842
2.19396
1.79978
1.30055
0.777244
-1.78819
2.12686
0.308635
-0.242968
1.34162
1.13713
-1.3805
-0.0968854
-0.961782
-1.92871
-1.85566
-4.93409
-4.12278
-2.82689
-2.07634
0.044602
0.329361
1.80813
2.83671
0.56659
-0.406906
1.02949
-0.635119
1.16962
1.101
1.68502
0.935879
-0.422755
0.653996
-2.28576
-1.82555
-1.441
-2.43292
-3.53668
-1.49124
-1.12601
3.25534
-2.15631
0.0596172
0.181889
0.133576
-0.859103
0.202708
0.339859
-0.46355
0.322027
0.282491
0.868674
-0.874048
-0.419276
-1.1918
-2.50574
-1.80817
-0.452647
-1.74347
-1.17141
-0.0631125
-0.43724
0.891847
-1.25859
0.500197
-1.65219
0.301676
-0.32917
-2.20593
0.208389
0.875021
-0.0724902
-0.0235287
-1.19641
0.492676
0.319553
0.863521
-1.45677
0.760669
0.677201
0.376233
1.59546
0.20317
-0.578864
-0.222554
2.42854
-1.68769
-0.706268
0.0709436
-0.355428
1.06529
0.448187
0.284977
0.353108
-1.70021
0.613452
-2.80039
-0.732969
-0.452714
-0.647194
-0.149951
-0.411768
-1.94442
-1.11663
1.52425
0.1661
-2.00965
1.07137
0.219348
-1.0434
-0.358352
2.92094
0.588372
0.892424
0.816679
-0.656375
-0.654707
-0.425286
-0.0884236
-0.671365
-0.134112
0.456412
0.529623
-0.888982
-0.383814
-1.19858
-0.0845366
0.598788
1.63143
2.38322
-0.932697
-0.625956
-2.83722
0.0597381
-1.22204
-1.57511
-0.147771
-1.79565
-1.09552
1.93629
-3.00568
0.439646
-1.1368
-0.119779
0.560686
-4.15947
1.41821
-0.185076
-0.294747
-0.402632
-3.73096
-1.13713
-1.42977
0.786792
0.890425
-1.45217
-1.72827
-0.674024
-1.35145
-0.38042
1.46807
0.980658
-0.0775578
1.83588
-0.174238
2.98046
2.12357
0.739829
0.801637
2.16614
1.93014
1.70318
2.19152
2.26972
0.140305
-2.35345
-2.83198
-0.269293
-0.848609
-0.0183174
1.40486
-0.230545
1.55449
0.354358
4.28852
0.674287
0.7201
-0.0309612
0.422012
3.32519
-0.0279786
-0.0532871
0.41621
-0.536458
-0.726885
-1.16818
-1.70176
-0.585475
-1.29364
-1.55697
2.40492
-1.90165
1.71286
-2.95668
0.34981
-2.65348
-1.75279
1.7531
1.79658
0.275011
1.97837
-1.02319
0.647735
0.586485
-1.2361
0.0352149
-1.02466
0.145212
-0.594826
0.184228
0.574812
0.915686
0.774159
0.833447
2.86338
0.130073
-0.150159
2.19404
0.527997
0.574321
-0.54133
-0.49606
-3.14628
-1.20075
2.19471
0.664505
0.556363
1.81719
-1.32709
-0.517058
0.948961
-1.68104
-0.881645
1.24335
0.357104
2.6639
1.87659
-0.319973
1.80272
0.531239
0.989101
2.76596
1.02387
-1.4206
-0.341245
-0.126455
-1.15714
-2.27148
-0.901891
0.356809
-0.143308
-1.09972
1.38344
2.23842
1.11113
2.80388
0.317386
0.403413
1.5034
1.25704
-0.240744
1.9291
0.933902
-0.691343
-1.46495
0.141363
-0.943393
1.95835
2.14452
-1.2807
-0.0784112
1.52
1.70755
-2.24858
-1.86429
0.147877
0.148063
-0.210038
0.382115
-0.804543
0.110563
0.544435
2.49306
-0.102472
-1.42964
-0.392698
2.6009
-0.711639
0.677054
-0.714636
0.514195
2.15671
-0.79589
-1.11092
2.28191
0.657331
0.645501
-3.11729
-0.155095
2.69208
-1.14267
-0.299663
1.37249
-1.61559
1.58837
1.05024
-1.33978
-0.901183
1.31534
1.30837
2.18612
1.6029
4.91813
0.996569
1.16409
2.71436
1.85773
3.15129
-0.407888
-0.654135
1.97491
3.33065
3.47484
1.68184
1.33699
-3.14606
-1.79767
-2.6594
1.71891
-0.499624
1.75414
2.3453
0.703612
1.34754
2.41082
0.17105
2.85305
2.97815
2.14326
4.43989
3.32718
1.45151
1.42378
0.360815
0.895299
1.73473
-1.58645
0.545625
0.780235
0.296538
3.62777
3.20596
5.16013
2.44921
0.747241
2.20407
1.43284
3.12798
1.29108
2.91413
-0.199705
2.06172
1.961
0.812929
0.925272
-0.884091
-0.27252
-3.28514
0.724293
1.99635
2.64391
0.912533
2.27942
2.4476
0.657288
1.71369
3.56256
3.67311
0.225804
-0.187446
0.882389
1.87909
2.34552
0.301807
0.90075
-0.553544
1.22025
-0.34114
-0.79305
1.86241
-1.01238
3.76827
0.334787
1.71403
0.832397
1.52383
2.27206
0.980754
1.67843
1.78052
1.37029
0.585394
0.961927
0.174482
0.71423
1.06607
-0.0250081
-1.53547
2.75819
1.66917
0.734544
0.60688
-0.556743
2.33158
-0.68921
0.811366
1.00083
1.03151
-1.06367
0.32536
3.64772
0.634314
-0.314169
3.61025
1.22051
-0.885069
-0.695504
1.99804
-2.91169
0.188842
-1.32892
0.867713
-0.926898
0.784432
2.68418
1.41775
-0.201502
1.08689
1.54946
1.95679
-0.442275
0.111611
0.746141
0.440584
0.154562
-1.29358
0.245897
2.51604
-0.114804
-0.576417
0.308907
-2.80102
1.34408
2.68277
1.01973
-0.249539
-0.165442
1.0012
0.135669
-2.52916
-0.31602
-0.128133
-0.804465
-1.29749
1.87556
0.0127382
0.252485
-0.00315747
2.49195
0.100383
3.2712
3.5111
4.68045
5.19609
4.35236
4.24585
4.49445
4.40696
3.55541
1.55458
4.7878
3.65596
4.13947
2.57805
0.210079
0.48678
-2.09433
-0.336435
1.65848
1.45943
1.86053
0.428813
4.37022
-0.0178385
5.98457
0.195527
0.196804
2.62867
0.209018
5.83465
0.664661
2.45252
0.0537796
1.9911
0.381109
0.601419
-3.60309
-2.20574
2.05145
-1.07568
-0.841106
4.86014
4.68183
1.23437
1.93446
0.905976
2.7179
2.00484
3.84102
5.45711
0.894962
3.32929
4.93774
1.61812
0.966821
-0.557259
-1.95068
-0.637614
1.23884
-0.390552
3.08367
4.02774
3.0465
3.25723
0.830217
3.24974
1.47574
0.715846
4.45225
3.06173
-0.919605
1.78561
0.847066
1.9184
-0.303523
-0.669623
0.300271
0.658301
2.39717
-0.0851237
0.280501
4.45244
0.561488
0.9611
1.05664
1.1732
1.62769
0.0333585
0.0390918
1.9973
0.180599
1.40852
3.7758
1.12837
1.00113
0.6071
3.05729
1.02279
1.25817
-0.54107
0.60357
1.1452
2.30584
0.215546
-0.033226
1.72937
1.5279
0.230826
1.62271
-1.04313
-1.05685
-0.373588
-0.944524
0.0264227
0.512119
1.35584
1.183
-2.0002
1.46519
-1.6604
-1.65473
2.62619
0.698323
-0.894834
1.96251
1.6951
0.900832
0.0543927
0.940229
0.132362
-0.061613
-2.37026
1.00627
0.859881
-0.394037
-1.37054
-0.481863
0.850617
1.43832
0.282821
-0.0633579
-1.14088
0.492227
-0.762529
2.26266
2.16418
0.0356592
-0.158631
-0.838455
1.67659
-0.532681
0.954793
1.17286
3.05192
-1.67005
-0.930325
1.33958
1.59012
1.72352
3.047
4.26503
4.93087
3.65002
1.66379
2.84741
4.49078
3.79397
5.28804
6.10105
4.40715
5.27852
4.86137
4.70547
4.80407
3.83633
-1.55094
3.5732
2.0712
2.87735
3.49619
3.7382
7.2441
4.49559
3.64222
5.15663
4.0802
4.15949
5.12539
4.66516
2.59756
2.90208
3.90162
7.53344
1.58013
2.41279
0.468715
0.131731
2.21655
1.05211
0.898554
1.99648
6.11767
3.40321
5.21093
4.43708
5.011
3.78603
3.34812
4.81529
4.16771
3.80468
2.87617
4.7723
4.00193
1.2355
3.48881
-1.28264
-1.15695
1.22336
1.7556
3.57842
4.47973
2.68296
1.51459
1.35123
0.922568
1.34504
4.29874
4.09323
3.96916
2.62673
3.46893
-0.501457
4.21062
2.43313
1.81742
-0.088214
-1.22339
3.58648
1.12022
3.77255
5.17652
3.14067
3.34004
1.61519
-0.938466
0.251826
1.5345
4.03278
3.17797
1.71182
2.80747
2.56414
1.84625
2.5506
3.27479
-0.973387
1.55988
1.1068
1.59842
3.30377
2.09054
2.3574
1.53727
4.17277
2.60309
0.368677
4.39821
1.7989
3.80667
1.99975
0.0468757
0.830805
2.53394
0.0328726
-2.25748
-0.241601
-1.92535
-0.0751151
1.23898
0.675835
2.7731
-0.560465
-0.450626
2.99443
0.247408
3.12339
-0.540842
0.885467
-0.198915
0.0753429
1.69024
0.079715
1.19083
0.453034
0.109653
0.0476427
-1.06252
-1.33753
-0.823997
0.476655
-1.16362
-0.105167
1.35539
-2.85042
2.59797
-0.756044
-0.758288
0.225541
2.91693
1.63532
-2.35064
-1.11735
0.0123466
2.11465
1.55986
)
;

boundaryField
{
    hotSide
    {
        type            calculated;
        value           nonuniform List<scalar> 
400
(
-2.44497
-1.12833
-1.38372
-1.87799
-2.25412
-1.9943
-4.64792
-4.96479
-4.63532
-4.45613
-3.19703
-4.95575
-3.23299
-4.9818
-2.05628
-1.61651
0.026806
0.48189
2.14543
3.30852
-0.333554
0.878892
0.333842
-0.948209
0.0292102
-1.00713
0.0562464
-4.48561
-0.812885
-1.29245
-1.43506
-2.95186
-1.29644
-2.89514
-1.49736
-1.15458
1.09586
0.934074
1.90224
3.57047
1.45916
0.544046
1.33148
4.35666
0.962912
1.11752
0.00388744
0.0333797
-1.82968
0.0583071
0.792184
0.475572
-0.0646838
1.09934
-0.306004
1.65425
0.433355
3.16421
4.40977
3.71518
3.95305
3.93233
1.91835
1.37108
2.47778
2.84831
2.47417