/*--------------------------------*- C++ -*----------------------------------*\
| =========                 |                                                 |
| \\      /  F ield         | OpenFOAM: The Open Source CFD Toolbox           |
|  \\    /   O peration     | Version:  2212                                  |
|   \\  /    A nd           | Website:  www.openfoam.com                      |
|    \\/     M anipulation  |                                                 |
\*---------------------------------------------------------------------------*/
FoamFile
{
    version     2.0;
    format      ascii;
    arch        "LSB;label=32;scalar=64";
    class       volScalarField;
    location    "0";
    object      relativeErrorField;
}
// * * * * * * * * * * * * * * * * * * * * * * * * * * * * * * * * * * * * * //

dimensions      [0 0 0 1 0 0 0];

internalField   nonuniform List<scalar> 
3200
(
0.010609
0.00466262
0.000346656
0.00731972
0.00980132
0.0122522
0.0147102
0.00797657
0.0146275
0.0116229
0.0133394
0.0118834
0.011796
0.0196992
0.0110854
0.00656324
0.0175648
0.00772479
0.00666231
0.00892331
0.0031414
0.00318944
0.0108653
0.00531087
0.0166818
0.00747436
0.00927716
0.012324
0.0112314
0.00819138
0.0166787
0.0123088
0.00910403
0.00428612
0.00809003
0.0103309
0.0109204
0.00432981
0.00252852
0.00904921
0.00770138
0.00137023
0.000122783
0.0030982
0.00574367
0.00290616
0.00988198
0.00732231
0.0102025
0.00570263
0.0080905
0.00512227
0.00613729
0.00681522
0.0130859
0.00573394
0.0053217
0.00526954
0.00456367
0.00200107
0.000845374
0.00335075
0.00850316
0.00191506
0.0103121
0.00861719
0.00668303
0.00640695
0.00768141
0.00894591
0.00457719
0.00482444
0.00705674
0.00700832
0.00629724
0.0104268
0.00901209
0.000352601
0.00812661
0.00342536
0.00324749
0.000894736
0.00177793
0.00420509
0.00516688
0.0034368
0.0089276
0.013142
8.59112e-05
0.00668167
0.0110121
0.00779878
0.00279955
0.00263936
0.00360049
0.00413414
0.00636807
0.00318019
0.00411521
0.00239203
0.00206169
0.00870845
0.00022329
0.00488061
0.00252973
0.00543119
0.00307151
0.00170582
0.00598835
0.000776394
0.00521686
0.00132871
0.00460158
0.00408724
0.00588128
0.00898657
0.000853646
0.0061368
0.00377753
0.00821856
0.00884301
0.000497079
0.00281126
0.00517355
0.00495304
0.00246157
0.000781043
0.00729977
0.014612
0.00055179
0.00201201
0.00711257
0.000368768
0.00922863
0.00566359
4.61434e-05
0.000569209
0.00195149
0.000599047
0.00309655
0.00740379
0.00714767
0.00807212
0.00683264
0.00906881
0.00278584
0.0032232
0.000825289
0.00399696
0.00170275
0.0027301
0.00265581
0.00722086
0.00229966
0.00224017
0.00674795
0.00927807
0.000392339
0.00743188
0.00250336
0.00684888
0.00120848
0.00226685
0.0072514
0.0126201
0.00997453
0.0108092
0.0110703
0.00625251
0.00280367
0.0146713
0.0143486
0.00789264
0.00578275
0.00761522
0.00749444
0.00648318
0.0104651
0.00374742
0.00482123
0.00536423
0.00109416
0.00505158
0.00111605
0.00958645
0.00138238
0.00521909
0.00078745
0.0149666
0.00188051
0.000868386
0.00945834
0.00156056
0.00797075
0.000204227
0.00663747
0.00103058
0.000200432
0.000160667
0.00934405
0.0130761
0.00644056
0.00830504
0.010637
0.00316101
0.00482081
0.0114842
0.00412848
0.0120793
0.0140063
0.00587571
0.00636301
0.0093588
0.00303117
0.0104686
0.0112384
0.00620975
0.00628363
0.00511782
0.00113391
0.00635136
0.0039636
0.00986592
0.00104561
0.00942432
0.0051923
0.00278036
0.00503778
0.00238638
0.00658896
0.00911495
0.00433748
0.00270235
0.00379012
0.00568749
0.00759073
0.00141196
0.00431465
0.00521169
0.00342592
0.00889011
0.0016432
0.00698364
0.00653434
0.00970186
0.00558671
0.00204588
0.00284986
0.0116267
0.0066469
0.00927489
0.0088133
0.00288841
0.00198852
0.00630549
0.00464235
0.0106181
0.00502463
0.00638146
0.000503241
0.000820575
0.00208132
0.0104549
0.000532623
0.00861548
0.000330229
0.00111451
0.00564878
0.00676844
0.0141951
0.00383103
0.00102579
0.000612908
0.0120656
0.0119341
0.00127924
0.00122278
0.00303836
0.000379959
0.00482786
0.00259922
0.00295975
0.00535048
0.000278501
8.18193e-05
0.00490519
0.00708696
0.00032706
0.00393348
0.00311587
0.00682442
0.00714993
0.00565675
0.00359077
0.00208062
0.00567446
0.00648076
0.00662156
0.00226374
0.00281139
0.00494613
0.00165926
0.00733251
0.000721871
0.00179857
0.00121635
0.000609048
0.000208767
0.00125562
0.00228754
0.00721737
0.00465199
0.00204839
0.000380122
0.00576073
0.00981797
0.00721285
6.22031e-05
0.00354112
0.000182516
0.00758967
0.00277796
3.91941e-05
0.00151558
0.0116619
0.00915475
0.0133654
0.00828805
0.00772209
0.00947844
0.0121821
0.0087626
0.0114154
0.00298227
0.00952028
0.00969459
0.00788779
0.00189476
0.00152914
0.0010716
0.0123229
0.00100756
0.00599527
0.00614097
0.00845606
0.0152724
0.0103538
0.00590176
0.0144862
0.00917184
0.00803168
0.00724002
0.00547611
0.0057412
0.00473685
0.00776564
0.00868981
0.00308085
0.000274523
0.00949907
0.00462211
0.000455506
0.00647304
0.00473742
0.00892593
0.0114848
0.000656139
0.0100267
0.00566092
0.00976159
0.00515156
0.00118662
0.00172899
0.0082762
0.00653874
0.0120206
0.00723778
0.0050483
0.00593186
0.00918679
0.00819636
0.0117113
0.000839758
0.00718798
0.000996151
0.00456759
0.000380862
0.00788858
0.00687479
0.0108603
0.0084847
0.0120864
0.0102822
0.00471582
0.00845592
0.00919879
0.00631451
0.0042828
0.00716895
0.001249
0.00910495
0.00522793
0.00277223
0.0127512
0.006135
0.00362938
0.0100512
0.00265785
0.00382082
0.000603585
0.00451987
0.00449051
0.00543881
0.00563869
0.00849313
0.00962456
0.00931936
0.00541538
0.00501614
0.000521958
0.00686811
0.00209741
0.00433321
0.00130804
0.011342
0.00329142
0.00425337
0.00348814
0.00959118
0.00627108
0.00319897
0.0024107
0.00549736
0.00371967
0.00485957
0.00105536
0.00310296
0.0036267
0.00334975
0.00301874
0.00852958
0.00457291
0.00723326
0.00356458
0.000182285
0.00279817
0.00809137
0.000370906
0.0051687
0.00435934
0.00657561
0.00527894
0.00171078
0.00856411
0.00248653
0.00285432
0.00208609
0.000649501
0.00311022
0.00154217
0.00934693
0.00856159
0.00742863
0.00100474
0.00412952
0.00393771
0.0110109
0.00163409
0.00669614
0.00649467
0.000736367
0.00194063
0.00129607
0.00424261
0.00165182
0.00706919
0.00466998
0.00579179
0.00526386
0.00915315
0.00901529
0.00644911
0.00853329
5.71584e-05
0.0118421
0.00250609
0.000370079
0.00386193
0.000821774
0.0155381
0.00271756
0.00103807
0.00587452
0.00752204
0.00931299
0.0002251
0.010264
0.00183987
0.00211607
0.00617926
0.00211814
0.000198842
0.00388049
0.000289949
0.0103552
0.00187763
0.00347825
0.000189293
0.00346862
0.00137605
4.89153e-05
0.00127668
0.00110258
0.00159697
0.00107199
0.0126177
0.00186411
0.00636615
0.000533703
0.00381922
0.0043301
0.00704784
0.00825686
0.00669849
0.000439694
0.00544759
0.00456865
0.00191688
0.00884274
0.00253895
0.00504914
0.00359473
0.00241441
0.00680625
0.000341378
0.00206118
0.010074
0.00651735
0.00270542
0.00419854
0.00845986
0.00664275
0.00147379
0.000845686
0.00158205
0.00679588
0.0135362
0.012818
0.00362913
0.00596278
0.0030558
0.00398743
0.0002304
0.00759915
0.00312921
0.00368859
0.00433484
0.011706
0.00418007
0.00558958
0.00695047
0.00337555
0.00307811
0.00356134
0.00503427
0.00337422
0.000632927
0.0042282
0.00658385
0.000714234
0.00225862
0.00851753
0.00345497
0.00433373
0.0104611
0.00467231
0.00424063
0.00360396
0.00600588
0.00306873
0.00180194
0.000705714
0.00582194
0.00298544
0.00155108
0.00575923
0.00134543
0.00451872
0.00518314
0.00511661
0.00655727
0.00213813
0.0017696
0.00252942
0.0059507
0.00446846
0.00487713
0.00513115
0.00489994
0.00196295
0.00962236
0.00617076
0.00122659
0.00252089
0.00117795
0.00447452
0.000549556
0.00713752
0.000949121
0.00114793
0.00201115
0.0046145
0.00257342
0.00318002
0.00320102
0.00309214
0.000443971
0.00165141
0.00347676
0.00810883
0.000771678
0.00430668
0.00330765
0.00886965
0.00779706
0.00204764
0.000405104
0.00151571
0.00600547
0.00589554
0.000880878
0.00298719
0.00346478
0.0103775
0.00131953
0.000943378
0.0051823
0.00385383
0.00485428
0.00744786
0.0101047
0.00369333
0.00113724
0.00304802
0.00489035
0.00327473
0.00573408
0.0101431
0.0034626
0.00558205
0.00542354
0.00296587
0.00220771
0.00748733
0.00565191
0.00130481
0.00590785
0.00309061
0.00314529
0.00634674
0.0111723
0.00807855
0.00180065
0.00141555
0.00572995
0.000143216
0.000910557
0.00198945
0.00493782
0.00638521
0.00309487
0.000552696
0.0014684
0.00731667
0.00174158
0.00300178
0.00136629
0.00350004
0.00421642
0.000825302
0.0141856
0.0100685
0.00072858
0.0047939
0.00352069
0.00177263
0.00429319
0.0103504
0.00791131
0.00456629
0.00151843
0.00387887
0.00146889
0.00368896
0.00466023
0.00382778
0.00336601
0.00221943
0.00501544
0.00930876
0.0114759
0.00765173
0.000249799
0.00644427
0.00731629
0.00575465
0.00356706
0.00919623
0.00330606
0.000921348
0.00514419
0.000552461
0.00071669
0.00784938
0.003682
0.00121022
0.00565076
0.0021974
0.000817644
0.00621772
0.00146166
0.00658823
0.00152171
0.002631
0.00867049
0.00483346
0.00569347
0.00425825
0.00746583
0.0119778
0.00137614
0.000521512
0.00280182
0.00576119
0.00929202
0.00886201
0.00602878
0.0042021
0.000480016
0.00448582
0.000981394
0.00486918
0.00344055
0.00607495
0.00268784
0.00580829
0.00776791
0.00757207
0.00193076
0.00204218
0.00891952
0.00428168
0.00366238
0.00416641
0.000267918
0.000301361
0.00145721
0.00339087
0.000113468
0.0119328
0.00295867
0.000913014
0.00153331
0.00196352
0.00802876
0.00270908
0.000782042
0.0021296
0.00051028
0.00322769
0.00183341
0.0022214
0.00158508
0.00493856
0.000531193
0.000848152
0.000174049
0.000839304
0.0014656
0.000767527
0.00716122
0.0016926
0.00284802
0.00589065
0.00303993
0.00275392
0.00440111
0.000535819
0.000764107
0.00545864
0.00771508
0.00223625
0.00414089
0.00528393
0.000743093
0.00859695
0.000346916
0.00469999
0.0103972
0.00223758
0.00938847
0.00666498
0.000736224
0.00405289
0.00834855
0.00175428
0.00662422
0.00223923
0.00430898
0.00100876
0.00458257
0.00396886
0.00417729
0.00790289
0.00273676
0.00503948
0.00800716
0.00557836
0.00552153
0.0118366
0.00924382
0.000232311
0.00742042
0.000518316
0.00749905
0.000819977
0.0040229
0.000778025
0.00541019
0.000217228
0.00010038
0.000300653
0.000634869
0.000440441
0.000110091
0.003378
0.00234271
0.00308305
0.000826415
0.0108084
0.00618651
0.0071368
0.00326276
0.00733153
0.00390471
0.000218588
0.00318007
0.00614826
0.0014137
0.00255542
0.00365861
0.00384619
0.00037443
0.00263706
0.00184958
0.00409505
0.00595728
0.0061623
0.00365039
0.00148346
0.00300439
0.00336608
0.0034378
0.00493645
0.000487293
0.00528846
0.00492528
0.00708317
0.00210374
0.000622706
0.00551731
0.000220635
0.00422079
0.00589595
0.00146465
0.00403281
0.00112538
0.000894977
0.00935079
0.00486204
0.00269608
0.00400896
0.00157709
0.00381235
0.000997687
0.00376286
0.00229821
0.00429554
0.00301974
0.00215805
0.000777103
0.005023
0.001824
0.0014579
0.0019456
0.00169445
0.00161904
0.0012181
0.00118641
0.00959917
0.00551642
0.00418267
0.00111984
0.00219431
0.0017665
0.00415937
0.00670547
0.00637329
6.21634e-05
0.00664014
0.000742276
0.000932685
0.00145933
0.00287443
0.00777693
0.00735234
0.00423033
0.00293315
0.0029747
0.00938499
0.00236113
0.000182905
0.000184012
0.00506593
0.00319229
0.00844212
0.00216983
0.00258301
0.003274
0.00382649
3.51458e-06
0.00495587
0.00370022
0.000263224
0.00376577
0.000375261
0.00454487
0.00611368
0.0037045
0.00596014
0.0045587
0.00298573
0.00736436
0.00436881
0.01107
0.00789304
0.000230483
0.000635988
0.00186073
0.00307978
0.00508577
0.00565695
0.0105962
0.00291727
0.00480882
0.00979865
0.00166886
0.00326551
0.00409533
0.00542222
0.0169271
0.00369278
0.00392381
0.00294552
0.00252893
0.000795454
0.00100615
2.33697e-05
0.000782172
0.00357227
0.00176879
0.00269644
0.00939629
0.00332159
0.000658207
0.00295092
0.0014513
0.000284697
0.00315135
0.00415527
0.00817057
0.0139803
0.000921224
0.00183736
0.00667483
0.000654005
0.00780642
0.00120263
0.00124537
0.0103927
0.00340433
0.00260269
0.00287008
0.00341505
0.00514157
0.00149503
0.0022181
0.00579921
0.00449181
0.0141047
0.0123821
0.00287864
0.00776267
0.00517113
0.00285481
0.00429653
0.00320335
0.00150272
0.00151653
0.00148928
0.0025607
0.00687009
0.000947085
0.00333648
0.00634406
0.00164382
0.00948963
0.00250954
0.00146734
0.00823761
0.011321
0.00903239
0.00727737
0.00192748
0.000230352
0.00595574
0.0080177
0.00596277
0.00334072
0.00167212
0.0136393
0.00498132
0.00168462
0.00825336
0.00058621
0.0010018
0.00190229
0.00397321
0.00579013
0.00593841
0.00876464
0.00820238
0.00122541
0.00260035
0.00270534
0.00331997
0.00292996
0.0035699
0.010633
0.000705956
0.00227369
0.00251753
0.00791032
0.00205799
0.00247826
3.27702e-05
0.00310628
0.00542972
0.00169705
0.000861775
0.0107554
0.00383979
0.0013352
0.000918486
0.00484227
0.000137442
0.00300195
0.00423729
0.00306685
0.000829339
0.00167309
0.00274652
0.00526745
0.00889755
0.00115292
0.000145261
0.00700454
0.00190905
0.0054531
0.00419278
0.00352923
0.00660542
0.00110642
0.000100667
0.00188715
0.00160859
0.00567738
0.00237041
0.0039328
0.00199904
0.00720066
0.000595319
0.000153568
0.00360264
0.00505113
0.00626168
0.000503161
0.00266403
0.00189277
0.0018514
0.00347419
0.00714721
0.000306484
0.00359802
0.00299115
0.00626158
0.00565329
0.00306128
0.000706548
0.00353992
0.0010003
0.000677722
0.00242892
0.00522096
0.00192828
0.00484124
0.00154843
0.00174054
0.00122452
0.00652323
0.0178279
0.0165343
0.00388533
0.00756803
0.00378424
0.00407434
0.00027486
0.00342929
0.00100303
0.00364125
0.0057576
0.0017347
0.00749839
0.00476466
0.000586209
0.00311815
0.0038571
0.000509056
0.00154592
0.0147482
0.00794399
0.00140764
0.00628169
0.0003683
0.00434353
0.000253628
0.00212108
0.000745124
0.00062568
6.9053e-05
0.00165317
0.00590993
0.000366246
7.932e-05
0.000452954
0.00174023
0.00070458
0.00528282
0.000139142
0.0110639
0.00482057
0.0127391
0.00384952
0.00274382
0.00352644
0.00467578
0.00562571
0.00397942
0.00647258
0.000124869
0.00407691
0.00648929
0.00435532
0.00105432
0.00035644
0.00310957
0.00518896
0.00515439
0.00900164
0.00420742
0.0096741
3.72867e-05
0.000549779
0.000638442
0.00178092
0.00266192
0.00211065
0.00267001
0.00133186
0.00338796
0.00585955
0.00224203
0.000589866
0.000860797
0.0024689
0.00416625
0.00186666
0.000931671
0.000607428
0.00996991
0.00624907
0.0105807
0.000106922
0.00345911
0.0013642
0.000633869
0.00316793
0.000430129
0.00900072
0.000406864
0.000311376
0.00123248
0.00880534
0.00711812
0.0063573
0.000264767
0.00429344
0.000501666
0.00881766
0.00196388
0.00624292
0.00561761
0.00461604
0.00482127
0.00394661
0.00561491
0.00284072
0.00324968
0.00202761
0.00976482
0.00861845
0.00154428
0.0064902
0.00296522
0.00592802
0.00304202
0.00159782
0.00346146
0.00231405
0.00449951
0.00446385
0.0101461
0.0045832
0.00576136
0.00571697
0.000500725
0.00306961
0.00581576
0.00734698
0.00255003
0.00493718
0.00264248
0.00715848
0.00465374
0.000266149
0.00421126
0.000923952
0.00569072
0.00434079
0.000503289
0.0036068
0.00715892
0.000705572
0.00277151
0.000610394
0.000884411
0.00717563
0.00870308
0.000458008
0.00820039
0.0015183
0.000667238
0.00177967
0.00629572
0.00117053
0.0108976
0.000655839
0.000923883
0.00669944
0.0106383
0.0169077
0.00623862
0.00915592
0.00320331
0.00506497
0.00792331
0.00223817
0.00130053
0.00218398
0.0103836
0.00904091
0.00484756
0.000213044
0.00774352
0.00622609
0.00343975
0.00476152
0.00216731
0.00687301
0.0143876
0.0146412
0.00843419
0.000530195
0.00377195
0.00678637
0.00520957
0.000154416
0.00679771
0.00474924
0.000864315
0.0100814
0.00288286
0.00216488
0.000505198
0.00697817
0.00315821
0.00245082
0.000795504
0.00874359
0.0104724
0.0139572
0.0062459
0.00828449
0.00471425
0.00119597
0.00277812
0.00196536
0.00121973
0.00324726
0.00811156
0.00780812
0.00745144
0.000894966
0.00223076
0.000811392
0.00631365
0.00131892
0.00693425
0.00374802
0.016452
0.0105397
0.00390429
0.00189476
0.000361054
0.00160153
0.00487992
0.00179602
0.00490905
0.00328325
0.00203169
0.00486666
0.0032411
0.00643126
0.00284012
0.00269369
0.00804562
0.00116519
0.00118508
0.0035814
0.00670197
0.00418662
0.00761692
0.000151148
0.00335023
0.00768456
0.00775737
0.00260943
0.000943548
0.00475893
0.00479897
0.00436977
0.00131478
0.00184556
0.00554232
0.00173558
0.0141118
5.87428e-05
0.000594055
0.00129296
0.00141232
0.00767691
0.00436177
0.00180149
0.0033786
0.00540226
0.000558958
0.0039782
0.000710209
0.00313604
0.00390089
0.000486966
0.00551562
0.00325801
0.00131375
0.00224716
0.00597879
0.00250997
0.00768733
0.00689265
0.0067679
0.0165196
0.000448363
0.00761497
0.00581737
0.000146339
0.00334865
0.00113207
0.00720942
0.00167443
0.00451075
0.00449021
0.00374542
0.00293832
0.0105983
0.00249103
0.00426975
0.000416779
0.00331282
0.00582621
0.00240493
0.00156155
0.00156842
0.000202162
0.00409506
0.00153304
0.00314847
0.00107018
0.00149866
0.00391323
0.000659365
0.00444842
0.0034494
0.0059606
0.00680729
0.00666025
0.00119573
7.72666e-05
0.000270232
0.00785977
0.00207175
0.0164175
0.0076333
0.00392925
0.00675534
7.80774e-05
0.00596025
0.00414124
0.00324249
0.00305994
0.00587154
0.00680475
0.0108592
0.00555076
0.00444324
0.00411876
0.00339512
0.0064455
0.0111835
0.0120561
0.0149464
0.0160845
0.000322922
0.00310038
0.00041175
0.00551939
0.00164396
0.00941337
0.000256001
0.0111161
0.000959795
0.000562594
0.00502755
0.00183386
0.00233532
0.000308857
0.0039928
0.000579332
0.00828044
0.00196906
0.00925133
0.0129499
0.0136619
0.00523584
0.00162306
0.00473637
0.00206232
0.00286721
0.003286
0.00286958
0.00256149
0.00407064
0.00736282
0.00359406
0.00219169
0.00265917
0.0117024
0.000584782
0.00611196
0.00109063
0.00868043
0.011423
0.00207388
0.00226839
0.00221613
6.89877e-05
0.00363725
0.00144917
0.000288613
0.00317241
0.000104536
0.000319615
0.00492072
0.00447133
0.00209684
0.00555806
0.00101445
0.00223789
0.00451241
0.00314613
0.00209797
0.0123576
0.0131321
0.00108743
0.00292973
6.55902e-05
0.00158042
0.00899368
0.00123013
0.00144789
0.00443153
0.00176239
0.00593503
0.0050866
0.00278396
0.0076313
0.00231188
0.00164287
0.00334141
0.000331738
0.00737435
0.00318978
0.000451603
0.00786177
0.00349877
0.000767865
0.00369092
0.00611848
0.00116493
0.00750735
0.002626
0.0165675
0.000540118
0.00267349
0.00997249
0.00420127
0.00782566
3.45358e-06
0.00590241
0.00215625
0.0069317
0.00312377
0.00810386
0.00408832
0.00448057
0.000108386
0.00155556
0.00735699
0.00109269
0.00480697
3.85753e-05
0.00077381
0.00242011
0.000202364
1.40033e-05
0.00728598
0.00343871
0.00116856
0.00444636
0.000284338
0.00744795
0.000747573
0.00335654
0.000788862
0.00390876
0.00184338
0.00170697
0.00181394
0.00172464
0.0035127
0.00719513
0.00237507
0.0024123
0.0015141
0.00350266
0.00173061
0.00280836
0.00243515
0.00266892
0.0077613
0.00137494
0.0129304
0.00808561
0.00196247
0.00738011
0.00312863
0.00183181
0.00789587
0.00970066
0.00497687
0.00605992
0.00914787
0.00556071
0.00888426
0.00158509
0.0119329
0.00480437
0.00041696
0.00505861
0.00892288
0.0109248
0.0161832
0.00187467
0.00575655
9.3951e-05
0.000761003
0.000625354
0.00502127
0.000331518
0.0019347
0.000790386
0.00043312
0.00674162
0.000451539
0.00515597
0.00123385
0.0047376
0.0011333
0.00928378
0.000323893
0.016008
0.0124433
0.00753308
0.0026467
0.00108809
0.000899613
0.0017425
0.000614913
0.00562854
0.0121501
0.00031924
0.00927919
0.0049126
0.0126848
0.00165549
0.00207986
0.0115288
0.0074524
0.00730295
0.00652155
0.00844148
0.00495761
0.0100195
0.00443433
0.00627918
0.00801696
0.0014817
0.00131145
0.00566506
0.0127337
0.00488853
0.0103272
0.000221346
0.00383996
0.00571977
0.00476665
0.000943557
0.00778864
0.00832889
0.00838309
0.00402219
0.00204887
0.00822202
0.0106458
0.0057066
0.000842714
0.00665519
0.00279663
0.00290526
0.000506484
0.00322936
0.00295306
0.00079164
0.000606172
0.00668611
0.00362545
0.000148465
0.00204699
0.00428766
0.00395127
0.0105139
0.00448869
0.00138609
0.0047882
0.00731886
0.00395411
0.00372536
0.00021784
0.00430161
0.00200328
7.13696e-06
0.00375085
0.00286685
0.00178441
0.000179822
0.00460544
0.00319389
0.00673342
0.0117011
0.000762598
0.00275754
0.0123884
0.0051314
0.00547785
0.00399837
0.0055465
0.00328539
0.000536847
0.000263794
0.00276158
9.25654e-05
0.00181704
0.0082904
0.00277953
0.00237293
0.00504431
0.00266153
0.00176578
0.00260576
0.00404612
0.00411376
0.0040293
0.00365068
0.00194387
0.00130887
0.0044867
0.00513141
0.00160182
0.00781315
0.00191787
0.000487421
0.0018691
0.000345098
0.000377041
0.00311728
0.00109902
0.0105213
0.00433102
0.00100317
0.00305257
0.00211295
0.0178332
0.012338
0.00292576
0.0074883
0.00347554
0.00364238
0.00383057
0.00519386
0.00853156
0.00379437
0.0108591
0.00864639
0.00245601
0.0030424
0.00989014
0.00199317
0.00545601
0.0095227
0.00787415
0.0139203
0.0122767
0.0157877
0.00766712
0.00349554
0.000439144
0.00117636
0.00939723
0.0037302
0.00549548
0.00102806
0.00882043
0.00673378
0.00526453
0.0100868
0.00291158
0.00882502
0.00381036
0.00359233
0.00981471
0.0118993
0.0196483
0.00882074
0.00712519
0.00323639
0.0014948
0.00324838
0.000534837
0.00472476
0.00545115
0.00520213
0.0076403
0.00751508
3.10047e-05
0.00375772
0.000192703
0.00372172
0.00168134
0.00515126
0.00154368
0.0170685
0.0111972
0.00999999
0.00350728
0.00510608
0.00200963
0.00214488
0.00440981
0.00285846
0.000998399
0.00682247
0.00525387
0.0065985
0.00465122
0.00181602
0.00916804
0.0025857
0.000476958
0.00207876
0.00403835
0.00755269
0.00487738
0.00381796
0.00562657
0.00655043
0.00243737
0.00141123
0.000443975
0.00169826
0.00132717
0.00537006
0.00582082
0.00143068
0.00767368
0.00336537
0.00263145
0.00157394
3.40713e-05
0.00543221
0.0109137
0.0075324
0.00715865
0.00629567
0.000196961
0.0032886
0.0051369
0.00743715
0.00315393
0.00344519
0.00194256
0.00282045
0.0103728
0.000954373
0.00578007
0.00105296
0.00687206
0.00475317
0.00112079
0.00127291
0.00441876
0.000814188
0.000295087
0.0028285
0.00595579
5.51218e-05
0.00298746
0.000209998
0.00673033
0.00565428
0.000285089
0.00211804
0.00966884
0.00179179
0.00221415
0.00421733
0.00344058
0.00555973
0.000101655
0.000281656
0.00711941
0.00864558
0.00775684
0.00348048
0.00213539
0.00614517
0.00279197
0.00249622
0.00172422
0.000415422
0.00107194
0.00138628
0.00212601
0.00046727
0.00671974
0.00222634
0.000780281
0.00209976
0.000297219
0.00115249
0.00149139
0.00209961
0.0131087
0.00783299
0.00450221
0.00202032
0.00619212
0.0103806
0.00659158
0.00890877
0.00658051
0.00492439
0.00213034
0.00664699
0.00499017
0.0101719
0.00381406
0.000264174
0.00683527
0.000383169
0.00528452
0.0148479
0.00947492
0.000134427
0.00376122
0.00106932
0.000257995
0.0016324
0.0013175
0.00123442
7.28415e-05
0.000521203
0.00101385
0.00155496
0.000460397
0.000678093
0.00122787
0.0003651
0.00103254
0.00416798
0.000223809
0.00466795
0.013926
0.00898173
0.00298846
0.00463364
0.000256566
0.000382499
0.00714205
0.00228326
0.00051036
0.00055379
0.00501404
0.00350622
0.000544246
0.00559591
0.00615631
0.00308835
0.000748739
0.0017855
0.00441497
0.00875418
0.00818529
0.00143696
0.00202735
0.00352924
6.73477e-05
0.00307347
5.27156e-05
0.00199467
0.00178634
0.00687771
0.0035585
0.00669672
0.000381267
0.00640754
0.00260975
0.00280139
0.00391928
0.00107906
0.00361584
0.0123499
0.0117598
0.00374275
0.0081364
0.00406771
0.000162421
0.00220671
0.00443654
0.00301964
0.00255288
1.9086e-05
0.00442502
0.00279938
0.00438763
0.00194352
0.000543377
0.00288671
0.000494064
0.00253336
0.00592444
0.0119611
0.00799029
0.00657784
0.00221564
0.00105944
0.0042223
0.0048596
0.000831948
0.00276452
0.0015102
0.00615468
0.000520716
0.00378734
0.00426856
0.00222432
0.00731135
0.000490657
0.00214764
0.00276042
0.0024914
0.00536145
0.00297821
0.00400654
0.00646001
0.00497019
0.00730127
0.00228435
0.00125631
0.00618269
0.00117154
0.00271606
0.00023324
0.00263547
0.00596686
0.00597746
0.000980234
0.00239099
0.00391495
0.00258104
0.00182032
0.00014727
0.00156643
0.00249155
0.00243564
0.00459719
0.00391824
0.000459022
0.00292128
0.00208
0.00690698
0.00309868
0.00385446
0.00216945
0.00050357
0.00208282
0.000975903
0.00309079
0.00885422
0.0023764
0.0114045
0.00419396
0.0179311
0.0122726
0.00142309
0.000451754
0.00894713
0.00288336
0.00290486
1.53698e-05
0.00161457
0.00556334
0.0045149
0.0051014
0.00873648
0.00559395
0.00142663
0.00156919
0.00279217
0.00294598
0.0026311
0.0115163
0.00699992
0.00826864
0.0119103
0.0108457
0.0045818
0.00432511
0.000841428
0.00404614
0.00554487
0.00485631
0.00060243
0.00648442
0.005275
0.00868253
0.0101716
0.000486669
0.00427305
0.00370277
0.00491269
0.0139821
0.0100844
0.0148744
0.00819442
0.00554863
0.0017458
0.00618329
0.00119221
0.00287941
0.000483522
0.00284806
0.00493335
0.0047458
0.00091498
0.000937735
0.00141455
0.00190569
0.000699175
0.0021059
4.21946e-05
0.006603
0.00638145
0.012727
0.00359116
0.0119798
0.00375648
0.00574791
0.00615526
0.00233636
0.000164961
0.000319492
0.0027867
0.00971077
0.0030105
0.0011718
0.00154947
0.00545576
0.00509637
0.00372446
0.00524253
0.00634193
0.00693922
0.00538741
0.00323361
0.00177627
0.00483844
0.0026075
0.00222741
0.00547286
0.0090332
0.00140006
0.00286942
0.0102468
0.000154358
0.00271845
0.00529036
0.00764513
0.00404104
0.00714718
0.00344541
0.00354498
0.00498921
0.0023095
0.00418453
2.62942e-05
0.00359793
0.00256797
0.00396206
0.00946637
0.000248861
0.00496861
0.00131039
0.000392454
0.00352924
0.00318523
0.00667021
0.0065895
0.00346524
0.00532591
0.0105797
0.0011363
0.00878786
0.00407314
0.000489964
0.00680196
0.00473951
0.00110864
0.00056456
0.00145076
0.00163367
0.000582082
0.000717979
0.00324572
0.0022327
0.000736989
3.24905e-05
0.00207148
0.00173936
0.00282431
0.00108218
0.00178873
0.00932103
0.000988214
0.00242128
0.00225499
0.0061598
0.00426516
0.00204027
0.00209324
0.00183565
0.00605665
0.00440096
0.00291656
0.00248372
0.01035
0.00664647
0.00326353
0.00802124
0.000514358
0.00237082
0.00175473
0.0100133
0.00853804
0.00535265
0.00329834
0.00473845
0.00100609
0.00503062
0.000916542
0.0040877
0.00125218
0.000152143
0.00294797
0.00393755
0.00395299
0.00276286
0.00262679
0.00203259
0.00277853
0.00658759
0.00869623
0.0117538
0.000771126
0.0060537
0.000262894
0.000703909
0.00137156
0.00353185
0.00117568
0.00299973
0.000662688
0.000814194
0.0025629
1.57548e-05
0.000667629
0.000208862
0.00110713
0.000652286
0.000321379
0.00168498
0.00620887
0.0133507
0.00997216
0.00138438
0.00575201
0.00176353
0.000596498
0.00153339
0.00509771
1.42792e-05
0.00216122
0.002791
0.000677735
0.00326555
0.00943361
0.00183982
0.00054631
0.00223011
7.91267e-05
0.00124386
0.010362
0.00907447
0.00706408
0.00449428
0.0030137
0.00395458
0.0098115
0.0010846
0.00427408
0.00181657
0.00255441
0.0011595
0.00265724
0.00746498
0.00232427
0.00103406
0.00165045
0.00127368
0.0136567
0.00625056
0.002727
0.0105738
0.00349025
0.00426402
0.000863929
0.00316869
0.00409374
0.00666935
0.000254677
0.00643519
0.000635919
0.00142625
0.00120455
0.000920079
0.000163229
0.00313159
2.63303e-05
0.00293843
0.00351785
0.00399725
0.00743035
0.00347508
0.00048081
3.97752e-05
0.0108852
0.00550401
0.00196614
0.00263659
0.00225343
0.000611173
0.000289565
0.00114449
0.00311958
0.00604169
0.00136258
0.00532405
0.00644596
0.00166487
0.00179051
0.00560664
0.000389112
0.00716075
0.00131763
0.00442217
0.00121484
0.0023461
0.00519562
0.0107339
0.00380785
0.000701716
0.00766928
0.00136348
0.00191132
0.00150942
0.00485731
0.000471916
0.000675105
0.00284183
0.00429716
0.002708
0.00769044
0.000448138
0.00133995
0.00128631
0.00439642
0.000549059
0.00165973
0.00465711
0.00240232
0.0043482
0.00431985
0.00684116
0.00635671
0.00312513
0.00206266
0.00176041
0.00173053
1.96976e-05
0.000830099
0.00291952
0.00509179
0.00890868
0.00770305
0.000191665
0.00236502
0.00588552
0.00482418
0.00348357
0.00208071
0.00478514
0.00569025
0.000825727
0.000650176
0.00359155
0.00304584
0.00370033
0.000259905
0.00258235
0.00518319
0.00499132
0.0132813
0.0113886
0.00780394
0.00572748
0.000122933
0.000907085
0.00497615
0.007802
0.00155755
0.00111818
0.00282854
0.001745
0.00321412
0.00302664
0.00463441
0.00257562
0.0011643
0.00180256
0.00630517
0.00503964
0.00398057
0.00690196
0.0100278
0.00422535
0.00318825
0.00921113
0.00609755
0.000168492
0.000513834
0.000377234
0.00242582
0.000572381
0.000959801
0.00130952
0.00091012
0.000798819
0.00245795
0.00247484
0.001188
0.00337921
0.00710855
0.00527203
0.00131918
0.00507823
0.00340996
0.000183616
0.0012714
0.00259212
0.00365669
0.00145289
0.00479838
0.000876144
0.000956119
0.0064091
0.000605675
0.00254438
0.000210898
6.8492e-05
0.00348482
0.00143584
0.000931712
0.00258972
0.00436734
0.00227942
0.00202834
0.00112637
0.00477451
0.000607774
0.00173113
0.000665424
0.00726046
0.00504558
0.0021117
0.000212162
0.00106325
0.00318795
0.00134179
0.000853558
0.00105812
0.00509718
0.00183976
0.00864575
0.00226234
0.00139686
0.00199624
0.000462362
0.00126926
0.00599197
0.00344027
0.00469541
0.000511626
0.00619019
0.00330032
0.0006758
0.00321536
0.0011046
0.00900646
0.0018148
0.00275359
0.00252072
0.00202645
0.00208267
0.00135265
0.000281179
0.00213442
0.000426283
0.00145045
0.00168283
0.00282428
0.00121926
0.00380732
0.000268533
0.00190216
0.00518303
0.00757249
0.00296407
0.00198964
0.00902015
0.000189961
0.00388678
0.00501052
0.000484792
0.00589065
0.00359362
0.00635111
0.00985801
0.00144185
0.003728
0.000392783
0.00183856
0.0136392
0.00465043
0.000606887
0.000966547
0.00132039
0.012236
0.00372957
0.00468969
0.0025809
0.00292105
0.00476411
0.0046155
0.00179884
0.00360387
0.00101362
0.00390855
0.00260899
0.000206209
0.00487874
0.000462864
0.00791618
0.00564027
0.00196536
0.0021303
0.00575929
0.00513505
0.0045345
0.00583927
0.00605257
0.000374449
0.00628509
0.00776843
0.000738274
0.00232482
5.01452e-05
0.00384319
0.00063028
0.00424742
0.000967794
0.0117088
0.00184068
0.00196575
8.45322e-05
0.00115257
0.00908556
7.64901e-05
0.000145774
0.0011394
0.00146966
0.00199277
0.00320445
0.00479853
0.00165008
0.0036437
0.00438262
0.00676531
0.00534656
0.0048134
0.0083055
0.000982369
0.00745072
0.00492167
0.00492321
0.00504671
0.000772824
0.00556225
0.00287835
0.00182327
0.00165191
0.00348378
9.92973e-05
0.00297239
0.000421069
0.00172392
0.000533642
0.00166416
0.00264978
0.00223932
0.00241002
0.00827795
0.000375993
0.000434054
0.00634291
0.00152677
0.00166127
0.00156648
0.00143616
0.00911363
0.00347999
0.00636399
0.00192764
0.00166178
0.00542593
0.00396089
0.00154258
0.00282994
0.00501119
0.00262733
0.00370425
0.0010637