/*--------------------------------*- C++ -*----------------------------------*\
| =========                 |                                                 |
| \\      /  F ield         | OpenFOAM: The Open Source CFD Toolbox           |
|  \\    /   O peration     | Version:  2212                                  |
|   \\  /    A nd           | Website:  www.openfoam.com                      |
|    \\/     M anipulation  |                                                 |
\*---------------------------------------------------------------------------*/
FoamFile
{
    version     2.0;
    format      ascii;
    arch        "LSB;label=32;scalar=64";
    class       volScalarField;
    location    "0";
    object      relativeErrorField;
}
// * * * * * * * * * * * * * * * * * * * * * * * * * * * * * * * * * * * * * //

dimensions      [0 0 0 1 0 0 0];

internalField   nonuniform List<scalar> 
3200
(
0.0166198
0.0104321
0.00496446
0.000598037
0.00238202
0.00419935
0.00546459
0.0063194
0.00662284
0.00700923
0.00724423
0.00719832
0.00764422
0.00780807
0.00762967
0.00708764
0.00569403
0.00258845
0.00196959
0.00766806
0.0152673
0.010091
0.00508433
0.00130016
0.00140539
0.00316769
0.00428184
0.00522285
0.00569887
0.00596198
0.00607291
0.00601832
0.00660977
0.00656175
0.00647189
0.00599619
0.00472061
0.00216759
0.00194055
0.00686343
0.0134073
0.00911262
0.00466826
0.00137623
0.00111032
0.0022961
0.00356125
0.00415088
0.00451315
0.00484265
0.00507882
0.00524844
0.00555906
0.00553965
0.00547007
0.00518588
0.0040573
0.00175283
0.00179992
0.00540294
0.0112315
0.00765435
0.00422441
0.00150003
0.000843919
0.00159533
0.00271892
0.00355515
0.00381431
0.00397013
0.00413937
0.00406518
0.00456282
0.00462785
0.00445518
0.00430755
0.00334437
0.00138276
0.0013882
0.00462455
0.00915307
0.00610169
0.00353651
0.00147764
2.76564e-05
0.00127911
0.00227525
0.00251449
0.00274308
0.00302771
0.00318676
0.00323241
0.00337323
0.00343041
0.00382885
0.00328731
0.00264224
0.00113522
0.00142825
0.00370222
0.00652858
0.0047186
0.00256515
0.000856892
3.67084e-05
0.000902152
0.00152585
0.00187672
0.00216132
0.00200134
0.00225708
0.0025386
0.00251101
0.00262482
0.00259208
0.00223582
0.00189632
0.000753232
0.000922999
0.00259848
0.00410136
0.00288996
0.00183676
0.000857936
0.00011266
0.000463494
0.00075341
0.00097616
0.00130537
0.00144204
0.0014009
0.0015883
0.00148989
0.00154691
0.00149057
0.00150691
0.0011329
0.000494665
0.000583513
0.00133459
0.00165486
0.00107114
0.000401926
0.00038002
3.11997e-05
0.000296653
0.000164736
0.000554962
0.000415488
0.000576442
0.000412158
0.000688061
0.000434384
0.000632483
0.00038217
0.000366996
0.00015634
7.88466e-06
0.000383543
0.000532366
0.0163053
0.0101474
0.00482728
0.000595444
0.0018705
0.00378626
0.00461972
0.00528474
0.00556632
0.00573015
0.00566363
0.00602204
0.00641873
0.00652773
0.00655261
0.00632375
0.0050545
0.00240631
0.0021489
0.00759319
0.0147029
0.00983061
0.00486724
0.00110432
0.00118807
0.0027001
0.00377447
0.00442912
0.00472778
0.00486791
0.00500856
0.00517346
0.00519844
0.00556938
0.00598017
0.00546155
0.00447414
0.00205507
0.00168307
0.006625
0.0132374
0.00892864
0.00470477
0.00150272
0.000614066
0.00225239
0.00287973
0.00342289
0.00402204
0.00393897
0.00418176
0.00446947
0.00457928
0.00484677
0.00504826
0.004476
0.0037904
0.00178114
0.00178986
0.00588479
0.0112113
0.00760605
0.00414516
0.00130601
0.000394698
0.0015959
0.00234976
0.00265753
0.00291271
0.00321175
0.00332097
0.00347764
0.00375438
0.00387197
0.00424177
0.00407525
0.00286548
0.0013146
0.00148784
0.00437606
0.00881836
0.00630602
0.00344093
0.00136068
1.59395e-05
0.00126544
0.00178802
0.00224305
0.00257268
0.00234635
0.00253172
0.00275572
0.0030317
0.00301988
0.00326035
0.00302679
0.00213073
0.000928401
0.00151377
0.00357765
0.0064311
0.00474333
0.00232221
0.00116694
0.000121447
0.000845101
0.00124543
0.00140946
0.0018013
0.00188175
0.00184359
0.00177802
0.00205704
0.0022905
0.00235436
0.00216446
0.00160265
0.000702874
0.00102869
0.0028828
0.00425033
0.00294762
0.00150904
0.000806568
4.61647e-05
0.00027395
0.000564632
0.000796184
0.000896572
0.00117797
0.000834925
0.00134671
0.0015342
0.00126122
0.00143797
0.00137552
0.00113523
0.000615716
0.000641757
0.00171793
0.00143994
0.000922251
0.000969986
0.000224356
0.000157652
0.000138538
0.000350931
0.000420506
0.000408448
0.00035634
0.000339576
0.000665337
0.000290014
0.000568768
0.000474714
0.000308403
0.00064637
4.40842e-05
0.000179003
0.00053781
0.0161521
0.0101585
0.00491005
0.000975916
0.00123297
0.00295495
0.00371624
0.00405527
0.00407922
0.00413486
0.00412666
0.00411653
0.00449822
0.00504913
0.00535682
0.00518642
0.00437832
0.00163998
0.00266106
0.00773596
0.0143298
0.00966375
0.00517822
0.00150582
0.00110428
0.00208509
0.00288872
0.00305914
0.00335657
0.0032165
0.00332901
0.00358319
0.00385548
0.00396426
0.00460452
0.0042832
0.00378387
0.00125813
0.00260841
0.00702631
0.0129367
0.00878251
0.00471077
0.0017749
0.000344709
0.00153693
0.00223129
0.00265896
0.00276859
0.00277693
0.0028675
0.00278168
0.00327475
0.00337804
0.0041263
0.00389584
0.00316615
0.00112739
0.00213513
0.0060359
0.0109923
0.00767579
0.0042158
0.00137982
3.06466e-05
0.0011638
0.00173255
0.00194863
0.00216178
0.00220387
0.00229637
0.00250505
0.00253428
0.00307254
0.00330035
0.00324364
0.00226912
0.000674889
0.00170599
0.00489276
0.00887461
0.00619458
0.00340687
0.00130649
4.42857e-05
0.000827175
0.00123155
0.00139471
0.00167373
0.00153224
0.00165049
0.00205497
0.00195735
0.00257755
0.00282371
0.00255043
0.00182263
0.000588031
0.00137065
0.00390063
0.00651427
0.00465617
0.0025628
0.00118866
7.89999e-05
0.000376009
0.000840197
0.000830452
0.00117729
0.00120363
0.00119129
0.0014009
0.00141064
0.00187445
0.00188714
0.00178205
0.00158206
0.000475977
0.00126199
0.00274697
0.00416832
0.00281834
0.00170003
0.000846121
0.000458037
0.000303503
0.000497922
0.000754265
0.000574774
0.000999093
0.000721098
0.000759317
0.000782162
0.00110975
0.00118571
0.000898983
0.000845704
0.000319548
0.0004923
0.00156274
0.00149129
0.00100276
0.000731822
0.000133044
6.78094e-05
3.44285e-05
0.000116295
0.000207043
0.000331704
0.000291757
0.000501173
0.000180574
0.000187785
0.000126647
0.000247446
0.000395519
0.000232583
9.75935e-06
0.000310106
0.000668434
0.0159334
0.0105139
0.00521365
0.00133396
0.000896595
0.00190694
0.00238182
0.00267132
0.00214992
0.00158434
0.00145712
0.00190285
0.00224021
0.0030359
0.00369593
0.0038755
0.00286525
0.000446829
0.00351511
0.00852993
0.0149028
0.00988444
0.00514581
0.00201134
0.000136463
0.00134453
0.00157536
0.00183826
0.00169208
0.00145793
0.000968394
0.00162168
0.00231176
0.00263245
0.00308652
0.00337315
0.00256024
0.000561406
0.00316072
0.0075133
0.0128402
0.00882263
0.00510137
0.00204574
0.000211113
0.000642989
0.00127667
0.00141229
0.00144396
0.00117924
0.00104933
0.00114611
0.00168274
0.0019809
0.00264011
0.00275641
0.00196235
2.62515e-05
0.00273764
0.00622483
0.0108848
0.00761279
0.00459793
0.00198885
0.000314268
0.000366645
0.000967527
0.000960723
0.00101394
0.00107111
0.00096298
0.000948373
0.00134706
0.00180688
0.00229567
0.00232519
0.00176866
0.00041295
0.00230577
0.00528815
0.0088964
0.00634725
0.00361645
0.00162324
0.000430188
0.000372104
0.000630039
0.000573025
0.000926879
0.000692476
0.000716721
0.000926644
0.00108405
0.00126815
0.00166107
0.00175599
0.0014336
0.000106886
0.00184629
0.00390329
0.00652267
0.00446034
0.00274485
0.00150924
0.000374922
0.000195077
0.00068767
0.000362883
0.000293905
0.000271127
0.0003977
0.00045324
0.000709621
0.00110625
0.00134336
0.00116982
0.000963172
0.000156656
0.00118218
0.00274538
0.00420202
0.00267388
0.0017198
0.00095564
0.00028535
9.60003e-05
0.000130974
0.000329614
0.000145336
0.000348504
0.0004047
0.000312529
0.000514822
0.000658744
0.00101508
0.00077294
0.000448057
0.000166604
0.000818118
0.00183411
0.00132064
0.00110192
0.000723986
0.000462892
0.000426491
0.000160697
2.41583e-05
1.86908e-05
4.08789e-05
0.000359498
0.000152765
0.000275558
0.000121361
0.000319443
0.000281445
0.000119469
0.000286511
8.73921e-06
0.000383703
0.000812625
0.0159482
0.0108516
0.00589265
0.00226724
0.000165203
0.000671282
0.00108289
0.00055144
2.28061e-05
0.000511293
0.000630608
0.000650897
2.59917e-05
0.000845147
0.00163088
0.0020558
0.00149984
0.000674944
0.00480151
0.00948716
0.0145076
0.00993451
0.00575158
0.00273954
0.000592014
0.00046552
0.000586262
0.000435252
5.53405e-06
0.000411427
0.00082117
0.000570581
0.000147127
0.000592441
0.00138502
0.00188401
0.0013665
0.000688778
0.00414393
0.0081863
0.0127774
0.00921585
0.00528275
0.00252454
0.00107716
0.000133284
0.000207478
9.04336e-05
0.000341334
0.000586258
0.000796367
0.000575026
3.3606e-05
0.000616477
0.00125329
0.00140014
0.000935995
0.000622671
0.00371525
0.0069356
0.0111352
0.00804559
0.00475484
0.00223886
0.000920462
0.000293119
0.000233561
3.8419e-05
0.000156624
0.00059233
0.000837874
0.000423413
1.07425e-05
0.000196339
0.000849604
0.00119503
0.000770297
0.000601985
0.0030944
0.00575957
0.00886211
0.00634297
0.00379779
0.00205143
0.000833413
0.000315657
0.000122592
0.000339696
0.000121805
0.00063212
0.000448795
0.000401787
8.58896e-06
0.000574865
0.000703876
0.000798797
0.00062262
0.000573557
0.0025672
0.00446505
0.00665412
0.00484558
0.00309865
0.00155507
0.000777812
0.000305668
0.000127666
0.000151233
2.8844e-06
0.000323256
0.00022469
0.0001798
2.92512e-05
0.000163195
0.000551714
0.000706613
0.000310713
0.000365031
0.00186804
0.00330104
0.00395787
0.00301555
0.00187891
0.0010777
0.000413853
0.000294686
5.68796e-06
9.56425e-05
0.000469273
0.000570545
0.000292753
0.000236685
8.94914e-05
0.00018337
0.00044797
0.000285047
0.000367404
0.000229008
0.00117027
0.00188284
0.00157685
0.00107437
0.000439488
0.000354562
8.91107e-05
7.97617e-05
4.21355e-05
0.000299373
2.26678e-05
3.97095e-05
5.19243e-05
0.000126819
0.000212629
0.000165531
3.58728e-05
0.000312907
6.59716e-05
3.05545e-05
0.000343759
0.000661929
0.0164147
0.0111565
0.00629647
0.00316091
0.00109738
0.000530381
0.000628161
0.00113775
0.00208882
0.00281625
0.00333015
0.00323791
0.00224489
0.00140678
0.000377839
4.09312e-05
0.000270704
0.00249437
0.0060541
0.0104783
0.0147819
0.0104945
0.00638749
0.00349402
0.00158603
0.000898303
0.000925706
0.00128467
0.00216055
0.00271855
0.00304099
0.0027405
0.00211639
0.00114831
0.00020753
1.14984e-05
0.000208007
0.00206266
0.00546597
0.00913337
0.0131036
0.00931148
0.00563235
0.0030637
0.00153465
0.000910477
0.000879616
0.00131512
0.00177197
0.00242875
0.00274913
0.00234632
0.00192756
0.000923444
0.000366468
0.000166963
0.000348364
0.001979
0.00463259
0.00765356
0.0110094
0.00823691
0.00507395
0.00261774
0.00156144
0.000913611
0.000920579
0.00113959
0.00156879
0.00216832
0.00263862
0.00226212
0.00149912
0.000934589
0.000223038
0.000149416
0.000405219
0.00187989
0.00389579
0.00654754
0.00881336
0.00688954
0.0040791
0.00241142
0.00144773
0.000870699
0.000810322
0.00101206
0.00140826
0.0017042
0.00178791
0.00163337
0.00136341
0.000919441
0.000110391
1.76757e-05
0.000414826
0.00125235
0.00297616
0.00516505
0.00679945
0.00490127
0.00324605
0.00215131
0.00114592
0.000603313
0.000475045
0.000828679
0.00109313
0.00126289
0.00114633
0.00129231
0.000975859
0.000205824
8.23914e-05
8.06727e-05
1.49308e-05
0.0010056
0.00247498
0.00374364
0.00415632
0.0029619
0.00201146
0.000909696
0.000538493
0.000376439
0.000181002
0.000590905
0.00053906
0.000784888
0.000722645
0.000749223
0.000408585
0.0001594
5.90472e-05
0.000166733
0.000105574
0.000466089
0.0013181
0.00226338
0.00153433
0.000861539
0.000455205
5.84148e-05
0.000383153
7.0392e-05
0.000261408
5.93944e-06
0.000346496
0.000242238
0.000287479
0.000390925
0.000419417
9.17257e-05
0.000105201
6.60645e-05
1.82965e-06
0.000220779
0.000483199
0.00076448
0.01647
0.0118
0.00711294
0.00390202
0.0024048
0.00154936
0.00198621
0.00275053
0.00402293
0.00506362
0.00564319
0.00539139
0.0047516
0.00324023
0.00227534
0.00167751
0.00223105
0.00374848
0.0076076
0.0120059
0.015027
0.0107715
0.00695732
0.0040452
0.00251578
0.00180882
0.00199519
0.00254343
0.00360203
0.0043323
0.00513332
0.00477574
0.00417362
0.00331596
0.00220015
0.00180659
0.00196359
0.00342059
0.00657113
0.0101383
0.0133035
0.00965513
0.0060861
0.00396381
0.00236561
0.00175004
0.00184883
0.0023502
0.00304304
0.00404733
0.00453267
0.00433702
0.00349461
0.00267085
0.00180711
0.00158371
0.00170932
0.00331542
0.00566091
0.00855868
0.011199
0.00818144
0.00542456
0.00333953
0.00211202
0.00166609
0.00170828
0.00204679
0.00275074
0.00352328
0.00364339
0.00351286
0.00291842
0.00204033
0.001259
0.00128524
0.00148694
0.00259268
0.00453233
0.00732986
0.00901339
0.00657331
0.00449566
0.00290103
0.00178555
0.00159086
0.00145335
0.00182653
0.00219313
0.00272334
0.00287617
0.00275498
0.00237813
0.0017983
0.000944929
0.0008993
0.000925751
0.00193304
0.00371847
0.00568221
0.00675188
0.00499959
0.00326579
0.00226871
0.00140858
0.00130791
0.00112607
0.00130007
0.00188584
0.0019509
0.0021106
0.00209323
0.00192218
0.0013457
0.000977834
0.000720051
0.00070531
0.00145864
0.00282376
0.00412674
0.0040627
0.00310313
0.00180873
0.00150434
0.000809762
0.000537631
0.000672768
0.000872806
0.000754676
0.00132581
0.00150659
0.00130641
0.00120165
0.000791663
0.000715785
0.000485027
0.000456487
0.000782782
0.00162995
0.00226214
0.0014244
0.000881001
0.000727387
0.000388797
0.000220565
0.000288667
0.000308949
0.00024542
0.000290052
0.000516081
0.000483551
0.000433568
0.000314682
0.000488905
0.000292053
0.000131201
0.000294325
0.000270651
0.00072285
0.000716115
0.0165949
0.0118962
0.00773588
0.00454649
0.00307583
0.00261953
0.0028809
0.00419807
0.00552999
0.00686541
0.00785306
0.00783521
0.0064559
0.0057296
0.00416244
0.0034833
0.00380734
0.00545885
0.00864539
0.0127352
0.015144
0.0110934
0.00726216
0.00439811
0.00307899
0.00270633
0.00317133
0.00395331
0.00530466
0.00596011
0.00686111
0.00685552
0.00599358
0.00481441
0.00344008
0.0029651
0.00338629
0.00481954
0.00756957
0.0111444
0.0132106
0.00977677
0.00647661
0.00420679
0.00315387
0.00264395
0.00284676
0.00344667
0.00441375
0.0053874
0.00580327
0.00571883
0.00493832
0.00429041
0.00299284
0.00276322
0.00277749
0.00393078
0.00667414
0.00922686
0.0112408
0.00856845
0.0058259
0.00357107
0.00290606
0.00232061
0.00237904
0.00305795
0.0041319
0.00442075
0.004831
0.00463453
0.00417928
0.0033379
0.00258756
0.00213056
0.00251602
0.00371003
0.00562277
0.00791426
0.00903831
0.00680681
0.00459546
0.00322367
0.00207369
0.00202495
0.00202473
0.00226048
0.00304502
0.00356717
0.003918
0.00377766
0.00332455
0.0027957
0.00191553
0.00191962
0.00198417
0.00269769
0.00431765
0.00621869
0.00696902
0.00512548
0.00367405
0.00229917
0.00181263
0.00146378
0.00143926
0.00161047
0.00230366
0.00250213
0.00295581
0.00292449
0.00262307
0.0018594
0.00183374
0.0010351
0.00119044
0.00191133
0.00312752
0.00432908
0.00420311
0.00336487
0.00208744
0.00153188
0.00110396
0.00114267
0.00104259
0.00116276
0.00128613
0.00144883
0.00157177
0.00180807
0.00154407
0.00121526
0.000701032
0.000855557
0.000717412
0.00129408
0.0019031
0.00255308
0.00165054
0.00126028
0.000815132
0.000600728
0.000268842
0.000232187
0.000325121
0.000256273
0.000487223
0.000735577
0.000511319
0.000407288
0.000477208
0.000553105
0.00037832
5.76487e-05
0.000309421
0.000470839
0.000442326
0.00100719
0.0164443
0.0120073
0.00798697
0.00538686
0.00371933
0.00335441
0.00394765
0.0053848
0.00664629
0.0082819
0.00915168
0.00910218
0.00823756
0.00694812
0.00543387
0.0046691
0.00506666
0.00664771
0.00986689
0.0136922
0.0151601
0.0111266
0.00774272
0.00489262
0.0036844
0.00322935
0.00376773
0.00449391
0.00587394
0.00740254
0.0080622
0.00778322
0.00727585
0.00593408
0.00493806
0.00425827
0.00456591
0.00597482
0.00868247
0.0120079
0.0129129
0.0100318
0.00704954
0.00458729
0.00326697
0.00313652
0.00366933
0.00408597
0.00531411
0.00638698
0.00698122
0.00685203
0.00619673
0.00498392
0.00405935
0.00376202
0.0038077
0.0051813
0.00764325
0.0101112
0.0111455
0.00872233
0.00585613
0.00401244
0.00290801
0.00265527
0.00303721
0.00362519
0.00461866
0.00530069
0.00583174
0.00547098
0.00523332
0.00416885
0.00345826
0.00286775
0.00302084
0.00409436
0.00622845
0.00798255
0.00893911
0.00700708
0.00469696
0.00360438
0.00271222
0.00218495
0.00249042
0.00292423
0.00365509
0.00414844
0.0045714
0.00449816
0.00382337
0.0032503
0.00276723
0.00236877
0.00262101
0.00339956
0.00493903
0.0067979
0.00662849
0.00516561
0.00331284
0.00239605
0.00190368
0.00179245
0.00162046
0.00207538
0.00275282
0.00317773
0.00348582
0.00332993
0.0031296
0.00221647
0.00189436
0.00166553
0.00189678
0.00266656
0.0039043
0.00477221
0.00422259
0.003051
0.00215273
0.0014661
0.00091952
0.00112399
0.00105678
0.00117269
0.00178572
0.00191728
0.002105
0.00189909
0.00174631
0.0014672
0.00134617
0.0011031
0.00107547
0.00153109
0.00216696
0.00308234
0.00142524
0.00119605
0.00075826
0.000301846
0.000347058
0.000118584
0.000491476
0.000592537
0.000678303
0.000591508
0.000681129
0.000822348
0.000531059
0.000438702
0.0004314
0.000338082
0.000164219
0.000605121
0.000764608
0.00106901
0.0162581
0.0117423
0.00796381
0.00536391
0.00395281
0.00357506
0.00437358
0.0057001
0.00740233
0.00907849
0.00997171
0.0100158
0.00890918
0.00768975
0.00663486
0.0058259
0.00615919
0.00785939
0.0107857
0.0142801
0.01456
0.0110227
0.0074912
0.00530252
0.00379422
0.00354309
0.00415642
0.00537743
0.00688325
0.00810122
0.00887425
0.00885718
0.00799487
0.00690784
0.00570971
0.00523461
0.00537215
0.00667741
0.0093113
0.0123697
0.0130667
0.00975975
0.00672685
0.00474718
0.00374154
0.00330698
0.00367728
0.00462442
0.00598965
0.00706519
0.00759041
0.00757878
0.00678382
0.00586075
0.00491794
0.00431134
0.00448843
0.00572853
0.00801654
0.0106395
0.0109017
0.00837043
0.0060033
0.00427895
0.00325186
0.00292166
0.00349577
0.00395965
0.00506824
0.00575746
0.0063629
0.00624631
0.00549603
0.00472551
0.00420342
0.00370485
0.00380828
0.00481405
0.0064276
0.00858409
0.0087799
0.00681743
0.00513175
0.00381727
0.00262911
0.00263125
0.00268878
0.0034474
0.00404148
0.00462254
0.00519713
0.00503782
0.00459467
0.00373746
0.00328624
0.00289691
0.00315478
0.00357997
0.0052166
0.00690728
0.006688
0.00511586
0.00370794
0.00263882
0.00201727
0.00195457
0.00196294
0.00248698
0.00268975
0.00344558
0.00359939
0.00342879
0.00312473
0.00248861
0.00231515
0.00191829
0.00225761
0.00266586
0.00367733
0.00504817
0.00409064
0.00303939
0.00224689
0.00162337
0.00124294
0.00114537
0.00131276
0.00135908
0.00167642
0.00204907
0.00229332
0.00218384
0.00222622
0.00167073
0.0012778
0.00127765
0.0012644
0.00177327
0.00251453
0.00325302
0.00129843
0.00129281
0.000564461
0.000635892
0.000173638
0.000335069
0.000427312
0.000598284
0.000542924
0.000537417
0.000738318
0.000706533
0.000570136
0.000760305
0.000370399
0.0004317
0.000647391
0.000674037
0.000935759
0.00126853
0.0153943
0.0114661
0.00760975
0.00490413
0.00351246
0.00371048
0.00439888
0.00573655
0.00770972
0.00900154
0.0103245
0.0102628
0.00940111
0.00813097
0.00686605
0.00629928
0.0066578
0.0083047
0.0110202
0.0143702
0.0138203
0.0106694
0.00712941
0.00508888
0.0037633
0.00353684
0.00419206
0.00526438
0.00670021
0.00804806
0.00901829
0.00906928
0.00836095
0.00703423
0.00595243
0.00545385
0.00563815
0.00718023
0.00953928
0.0125827
0.0122636
0.00932192
0.00695935
0.0044525
0.00358161
0.00329156
0.00379212
0.00467006
0.00593641
0.00705564
0.00784931
0.00747824
0.00702415
0.0058472
0.00514029
0.00464561
0.0050081
0.00615155
0.00811787
0.0105601
0.0106264
0.00804984
0.00574004
0.00403829
0.00334072
0.0031455
0.00329634
0.00393121
0.00510036
0.00561791
0.00638006
0.0064435
0.00583748
0.00508686
0.00431595
0.00388715
0.00409602
0.00514167
0.00689605
0.00882586
0.00864618
0.00654498
0.00473637
0.00354963
0.00260768
0.00255777
0.00264068
0.00316351
0.00411495
0.00473167
0.00522156
0.00516231
0.00435679
0.00415375
0.00324949
0.00326791
0.00313145
0.00376731
0.00534773
0.00669562
0.00618848
0.00474848
0.00357375
0.00263616
0.00186463
0.00171064
0.00193096
0.0025257
0.00292661
0.00354626
0.00375181
0.00357303
0.00329137
0.00279205
0.00264853
0.00211262
0.00239492
0.00279274
0.00393869
0.00495642
0.00380333
0.00311434
0.00203904
0.00156657
0.00123977
0.000973817
0.0011879
0.00149986
0.00186922
0.00199137
0.00220678
0.00225877
0.00215336
0.0017426
0.0014803
0.00130848
0.00141685
0.00174284
0.00249957
0.00296476
0.00144974
0.00123357
0.000985875
0.000567004
0.000462707
0.000742738
0.00047693
0.000239407
0.000724085
0.000887976
0.000704904
0.000609218
0.000554254
0.000637927
0.000522814
0.000545429
0.000497751
0.000692392
0.000830986
0.00134277
0.0143279
0.0102536
0.00667933
0.00455436
0.00312053
0.00306616
0.00389612
0.00539368
0.00721344
0.00812493
0.00971114
0.00952658
0.00899473
0.00790086
0.00683628
0.00627185
0.00663123
0.0082348
0.0108101
0.0141169
0.0131508
0.00944552
0.00641433
0.00433166
0.00322356
0.00319786
0.00385745
0.00485809
0.00629429
0.00761668
0.00820422
0.00821822
0.0078651
0.00684461
0.0058744
0.00517971
0.00587526
0.00704198
0.00950065
0.0121981
0.0115844
0.00869585
0.00611473
0.00413545
0.00314932
0.00288952
0.00354464
0.00421563
0.00542433
0.00648763
0.00726557
0.00729908
0.00652462
0.00586709
0.00489803
0.0045358
0.00491971
0.00611542
0.00816514
0.0105712
0.00981915
0.00745617
0.00509312
0.00332394
0.00250318
0.00248609
0.00296186
0.00369642
0.00471644
0.00537643
0.00612901
0.00605261
0.00541444
0.00502392
0.00420563
0.00384447
0.00403996
0.00516194
0.00668743
0.00863956
0.00781456
0.00627512
0.0043687
0.00294504
0.00231271
0.00199695
0.00239793
0.00282265
0.00363237
0.00422977
0.00497
0.00481032
0.00440546
0.00406799
0.00329244
0.00302359
0.00324973
0.00401094
0.00521147
0.00692567
0.00581374
0.00472758
0.00320376
0.0023039
0.00191605
0.0015589
0.0017298
0.00222019
0.00260939
0.00332349
0.00352494
0.00349632
0.00351419
0.00274076
0.00252157
0.00206657
0.00240929
0.00298382
0.00410076
0.00495738
0.00351527
0.00271657
0.00216383
0.00124707
0.0010771
0.000725167
0.00122182
0.00143581
0.00188279
0.00194069
0.00231327
0.00206744
0.00217162
0.00168359
0.00119023
0.00132102
0.00140261
0.00184151
0.00220921
0.0027967
0.00129129
0.00128083
0.000797929
0.000614626
0.000385519
0.0001066
0.000664802
0.000610723
0.000577255
0.000804461
0.00102097
0.000794726
0.000704646
0.000494015
0.000466959
0.000400901
0.000400859
0.000386489
0.000770882
0.00118541
0.0126743
0.00915189
0.00575355
0.00346547
0.00248899
0.00215072
0.0030427
0.0040664
0.00590515
0.00715622
0.00797424
0.00841879
0.00763042
0.00672316
0.00603173
0.00566792
0.00645251
0.00779742
0.0101475
0.0133552
0.0117531
0.00844583
0.00557451
0.00352846
0.00218071
0.00217056
0.00284491
0.00380808
0.00507686
0.00644411
0.00712189
0.00710421
0.00685449
0.00603261
0.00502025
0.00505129
0.0054136
0.0067284
0.00907236
0.0114764
0.0103885
0.00749291
0.00530926
0.00317659
0.00221381
0.00214531
0.0027391
0.00348068
0.00466217
0.00562145
0.00616072
0.00625877
0.00570659
0.00512394
0.00445888
0.00424803
0.00470649
0.00558418
0.00772017
0.00967851
0.00875203
0.00655296
0.00434843
0.00291465
0.00219857
0.00194156
0.00214877
0.00309387
0.00394631
0.00475296
0.00524934
0.00522699
0.00508013
0.00427
0.00365281
0.00338895
0.00389608
0.00469514
0.00644705
0.00804285
0.0071807
0.00551711
0.00385396
0.00249179
0.00158562
0.00164424
0.00191188
0.0024303
0.00333927
0.00367436
0.00422678
0.00425214
0.0038745
0.00334706
0.00274805
0.00268489
0.00303006
0.00368987
0.00484212
0.00633165
0.00516003
0.00408368
0.0025615
0.00154881
0.00129038
0.00117923
0.00149367
0.00160192
0.00243127
0.00294534
0.00315211
0.0031044
0.00273588
0.00220143
0.00219552
0.00211835
0.00199101
0.0025958
0.00358656
0.00480637
0.00315492
0.00239935
0.00160181
0.00135797
0.000934479
0.000774462
0.000814459
0.00113765
0.0014577
0.00164601
0.00199282
0.00185267
0.00163411
0.00136284
0.00117861
0.00141002
0.00145746
0.00168479
0.00227556
0.00302399
0.00103153
0.00102449
0.000696569
0.000118049
0.000470958
0.000199203
0.000330675
0.000368412
0.000295123
0.000758724
0.000512329
0.00051349
0.000642228
0.000349308
0.000356733
0.000506247
0.000610291
0.000662659
0.000646675
0.00107928
0.0110866
0.00753808
0.00405582
0.00177075
0.000829047
0.000713001
0.0014933
0.00252624
0.00398888
0.00530778
0.00617263
0.00652042
0.0059636
0.00533789
0.00467599
0.0046732
0.00499897
0.00669733
0.00919011
0.0121512
0.0100848
0.00676935
0.00401492
0.00201253
0.000944885
0.00110917
0.0015685
0.00270902
0.00364861
0.00487138
0.00555924
0.00569811
0.00536044
0.0046639
0.00402875
0.00392798
0.00449444
0.00594692
0.00806287
0.0105967
0.00919229
0.00653339
0.00398518
0.00211008
0.00109251
0.000921361
0.00143397
0.00233405
0.00337828
0.00428326
0.00468078
0.00499733
0.00447297
0.00388449
0.0033089
0.00329222
0.00351557
0.00473674
0.00708233
0.00910512
0.00753378
0.00566312
0.00337748
0.00191746
0.00123843
0.00106853
0.00115862
0.0017686
0.00283327
0.00335302
0.00403338
0.00412123
0.00379743
0.00338367
0.00278561
0.00262573
0.00297391
0.00407071
0.00578451
0.00752027
0.00637022
0.0046066
0.00284293
0.00176976
0.00110957
0.000709451
0.00121007
0.00163932
0.00208767
0.00270288
0.00316932
0.00336629
0.00313849
0.00264337
0.00207919
0.00216489
0.00247201
0.00311024
0.00422011
0.00586306
0.00457819
0.00333416
0.00217901
0.00116614
0.00102069
0.000664345
0.0007708
0.00136623
0.00163112
0.00222607
0.00235044
0.00234083
0.00197
0.00174044
0.00165658
0.0016979
0.00174077
0.00234728
0.00307236
0.00433773
0.00282774
0.00215004
0.00130089
0.000826857
0.000610042
0.000390923
0.000625493
0.000675399
0.00103957
0.0012505
0.00143796
0.00150627
0.00135023
0.0010262
0.000837129
0.00087161
0.00118365
0.0012941
0.001996
0.00247426
0.00111366
0.000965009
0.000513279
0.000225785
0.000181132
9.00068e-05
0.000394005
0.000113958
0.000146917
0.000476005
0.000617131
0.000512636
0.000570548
0.000434176
0.000297819
0.000495511
0.000312578
0.000486428
0.000704484
0.000833362
0.0085184
0.00525393
0.00200093
7.86552e-05
0.00105782
0.00121221
0.000756152
0.000374118
0.00183936
0.00297911
0.00365585
0.00395146
0.003761
0.00331659
0.00299287
0.00287092
0.00353067
0.00514829
0.00783492
0.0104992
0.00816105
0.00519631
0.00219814
0.000407832
0.000529714
0.000622598
0.000235957
0.000511397
0.00175252
0.0026294
0.00325041
0.00355966
0.00345094
0.00280299
0.00237816
0.00255077
0.00294833
0.00434135
0.00691463
0.00907085
0.00711448
0.00489206
0.00219974
0.000669552
0.00044499
0.000182954
0.000272444
0.000750143
0.00171746
0.00240575
0.00288438
0.00284
0.00290488
0.00236907
0.0021601
0.00195477
0.00247789
0.00365998
0.00584807
0.00774401
0.00630241
0.00432915
0.0022261
0.000537218
0.000124766
1.27987e-05
5.10305e-05
0.000637832
0.0012465
0.0017701
0.00238652
0.00238582
0.00246425
0.00207175
0.00169559
0.00154222
0.00188606
0.00309665
0.0046743
0.00623256
0.00515481
0.00330431
0.00183617
0.000683925
3.17954e-06
0.000241273
0.000138761
0.000633644
0.00111653
0.00151748
0.00196058
0.0021858
0.00192791
0.00161535
0.0011221
0.00114185
0.00145643
0.00239763
0.00369009
0.00510615
0.00380555
0.00269009
0.00128478
0.000473201
1.57074e-05
1.7994e-05
7.7282e-05
0.000345774
0.000901524
0.00109532
0.00143736
0.00149942
0.00118888
0.00104875
0.000966377
0.000984102
0.00145792
0.00183995
0.00258243
0.00379617
0.00231646
0.00167271
0.000901832
0.000416993
9.93026e-05
3.76936e-06
0.000116531
3.80954e-05
0.000447704
0.000508711
0.000621117
0.000811284
0.000816528
0.000773793
0.000676073
0.000622218
0.000657772
0.00129299
0.00155133
0.0022696
0.000695872
0.00047703
0.000213798
0.00021592
0.000272865
2.90429e-05
7.49675e-06
6.22317e-05
0.000235211
0.000330458
0.000478394
0.000337206
0.000299791
0.000205897
0.000261802
0.000273001
0.000232691
0.00013438
0.00074524
0.000642494
0.00602492
0.00289853
0.000287749
0.00245257
0.00339459
0.00354997
0.00289196
0.00219007
0.000902212
0.000214825
0.000841551
0.000823343
0.00116818
0.000854124
0.000574146
0.000814064
0.0014828
0.00308686
0.0057806
0.00847068
0.00574778
0.0027972
9.31194e-06
0.00168975
0.00260855
0.00286643
0.00248754
0.00154788
0.000832475
0.000124318
0.000701359
0.00108848
0.000725641
0.00072091
0.000521596
0.00047212
0.00112112
0.00262515
0.00486795
0.00739579
0.00530739
0.00288531
0.000516375
0.00114616
0.00196693
0.00229483
0.00188924
0.0015187
0.000627851
8.33796e-05
0.000692405
0.000820521
0.000650372
0.000575448
5.38471e-05
0.00048645
0.00114957
0.00238372
0.00415573
0.00627285
0.00461775
0.00268467
0.000673123
0.000745918
0.00138586
0.00153035
0.00145523
0.00093404
0.000543636
0.000203478
0.000569791
0.000694404
0.000830749
0.000318103
4.83911e-05
9.25904e-05
0.000809901
0.00181291
0.00348624
0.00495425
0.0038456
0.00223737
0.000571328
0.000454107
0.00129715
0.00162265
0.00104466
0.000816376
0.000392147
0.000117468
0.00061348
0.000419325
0.000481548
0.000322567
0.000223482
0.000125541
0.000419606
0.00139123
0.00237909
0.00401979
0.00286704
0.00184476
0.000360519
0.000257339
0.000916032
0.00125831
0.000662768
0.000579735
0.000173076
2.53356e-05
0.000400252
0.000667172
0.000451437
0.000202903
0.000131529
0.00018443
0.000606849
0.00115965
0.00196796
0.00299292
0.00159894
0.00111235
0.00024896
0.000332516
0.000240254
0.000798821
0.000407232
0.000448784
6.06591e-05
3.8372e-05
0.000318312
0.000295974
0.000233905
0.000151917
0.00014004
8.06701e-05
0.000430525
0.000683866
0.00140775
0.00171842
0.000465514
0.000286065
9.8235e-05
4.91312e-05
0.000191504
0.000370576
1.82267e-05
4.84773e-05
8.88849e-05
6.69821e-05
2.6198e-05
0.000102052
0.000160692
1.37566e-05
0.000154831
0.000150169
0.000292318
0.000187534
0.000511621
0.000452709
0.00352256
9.88284e-05
0.00315503
0.00487397
0.0060942
0.00622316
0.00562403
0.00500955
0.00400945
0.00306492
0.00238592
0.0019755
0.00195856
0.00236513
0.00197881
0.00185245
0.000913319
0.000543117
0.00334666
0.00622148
0.00323635
0.000610813
0.00204468
0.00384038
0.00470425
0.00506954
0.00505733
0.00417131
0.00359711
0.00264016
0.00192277
0.00198679
0.00171349
0.00195243
0.00216922
0.00162507
0.00113567
0.000581364
0.00283677
0.00533653
0.00310306
0.000822726
0.001537
0.00320576
0.00417068
0.00443137
0.00422147
0.00353364
0.00266525
0.00212598
0.00175285
0.0015497
0.0017925
0.00151381
0.00169618
0.00146533