/*--------------------------------*- C++ -*----------------------------------*\
| =========                 |                                                 |
| \\      /  F ield         | OpenFOAM: The Open Source CFD Toolbox           |
|  \\    /   O peration     | Version:  2212                                  |
|   \\  /    A nd           | Website:  www.openfoam.com                      |
|    \\/     M anipulation  |                                                 |
\*---------------------------------------------------------------------------*/
FoamFile
{
    version     2.0;
    format      ascii;
    arch        "LSB;label=32;scalar=64";
    class       volScalarField;
    location    "0";
    object      stateMean;
}
// * * * * * * * * * * * * * * * * * * * * * * * * * * * * * * * * * * * * * //

dimensions      [0 0 0 1 0 0 0];

internalField   nonuniform List<scalar> 
3200
(
352.534
351.171
350.263
349.819
349.885
350.332
350.886
351.428
351.935
352.121
352.038
351.731
350.96
350.059
349.125
348.234
347.619
347.631
348.23
349.43
345.749
344.649
343.797
343.436
343.467
343.799
344.281
344.684
345.05
345.239
345.201
344.939
344.204
343.492
342.66
341.888
341.371
341.317
341.868
342.887
338.807
337.92
337.153
336.837
336.811
337.205
337.509
337.924
338.251
338.375
338.295
338.001
337.447
336.839
336.132
335.436
335.009
334.998
335.471
336.131
331.779
331.047
330.507
330.256
330.145
330.546
330.772
330.998
331.278
331.42
331.364
331.194
330.663
330.139
329.599
329.001
328.658
328.662
328.988
329.611
324.806
324.163
323.792
323.629
323.657
323.757
323.898
324.212
324.423
324.48
324.428
324.263
323.933
323.523
322.931
322.602
322.297
322.285
322.657
323.052
317.685
317.352
316.997
316.814
316.899
316.986
317.119
317.287
317.401
317.558
317.477
317.281
317.086
316.77
316.45
316.202
315.943
315.948
316.154
316.444
310.655
310.423
310.291
310.202
310.122
310.23
310.339
310.438
310.458
310.48
310.492
310.37
310.278
310.093
309.911
309.69
309.585
309.569
309.709
309.799
303.648
303.519
303.381
303.446
303.414
303.387
303.494
303.432
303.515
303.488
303.538
303.432
303.468
303.352
303.361
303.294
303.284
303.261
303.31
303.307
352.568
351.208
350.343
349.935
350.17
350.571
351.266
351.865
352.372
352.634
352.657
352.21
351.463
350.592
349.597
348.607
347.959
347.821
348.427
349.546
345.682
344.678
343.833
343.47
343.633
344.043
344.527
345.021
345.442
345.671
345.622
345.287
344.754
343.906
342.911
342.163
341.556
341.465
341.897
342.93
338.855
337.958
337.258
336.965
337.056
337.289
337.799
338.224
338.464
338.725
338.643
338.312
337.832
337.133
336.343
335.753
335.184
335.081
335.567
336.396
331.858
331.112
330.558
330.262
330.357
330.603
330.944
331.339
331.616
331.707
331.671
331.428
330.975
330.439
329.726
329.14
328.886
328.76
329.102
329.615
324.765
324.292
323.82
323.645
323.71
323.805
324.095
324.334
324.508
324.729
324.669
324.448
324.078
323.696
323.158
322.735
322.516
322.41
322.748
323.078
317.701
317.405
316.962
316.951
316.984
317.035
317.235
317.46
317.536
317.616
317.628
317.543
317.254
316.903
316.556
316.26
316.075
316.006
316.232
316.581
310.729
310.467
310.214
310.21
310.164
310.308
310.415
310.509
310.597
310.574
310.68
310.457
310.279
310.198
309.947
309.751
309.608
309.556
309.754
309.946
303.593
303.483
303.561
303.406
303.46
303.442
303.443
303.477
303.522
303.559
303.564
303.444
303.517
303.377
303.34
303.318
303.142
303.254
303.257
303.319
352.805
351.488
350.629
350.305
350.606
351.053
351.751
352.446
353.029
353.322
353.325
353.016
352.289
351.28
350.207
349.218
348.431
348.344
348.879
349.883
345.804
344.86
344.162
343.813
343.847
344.419
344.979
345.623
346.033
346.351
346.312
345.954
345.347
344.606
343.55
342.753
341.997
341.958
342.45
343.314
338.965
338.11
337.448
337.229
337.303
337.669
338.142
338.591
338.987
339.211
339.181
338.982
338.382
337.753
336.794
336.104
335.566
335.487
335.882
336.656
331.957
331.3
330.734
330.427
330.605
330.859
331.249
331.663
331.945
332.117
332.087
331.831
331.469
330.804
330.152
329.543
329.223
329.124
329.337
329.955
324.916
324.383
323.929
323.737
323.829
324.036
324.354
324.679
324.862
325.053
325.015
324.738
324.496
323.917
323.388
322.989
322.726
322.639
322.828
323.314
317.822
317.468
317.124
317.036
317.042
317.247
317.42
317.693
317.778
317.874
317.878
317.707
317.508
317.092
316.767
316.452
316.159
316.162
316.396
316.632
310.76
310.482
310.325
310.269
310.363
310.337
310.468
310.552
310.724
310.654
310.741
310.667
310.543
310.278
310.063
309.942
309.745
309.699
309.761
309.954
303.627
303.525
303.506
303.394
303.405
303.486
303.526
303.552
303.554
303.586
303.523
303.6
303.558
303.523
303.421
303.306
303.283
303.287
303.315
303.378
353.164
352.026
351.124
350.788
351.051
351.714
352.481
353.165
353.92
354.423
354.468
354.008
353.318
352.25
351.084
350.004
349.317
349.147
349.588
350.59
346.375
345.294
344.488
344.297
344.462
344.928
345.658
346.246
346.79
347.132
347.302
346.815
346.082
345.292
344.326
343.347
342.726
342.532
342.995
343.853
339.249
338.427
337.864
337.583
337.729
338.186
338.656
339.184
339.59
339.9
339.944
339.691
339.092
338.417
337.511
336.727
336.233
336.14
336.385
337.033
332.181
331.526
331.093
330.843
330.915
331.298
331.659
332.13
332.453
332.613
332.649
332.474
332.001
331.38
330.659
330.042
329.602
329.442
329.78
330.342
325.123
324.624
324.176
324.006
324.106
324.32
324.67
325.054
325.203
325.418
325.411
325.203
324.887
324.463
323.902
323.398
323.017
322.973
323.173
323.514
317.968
317.543
317.31
317.257
317.245
317.402
317.555
317.92
318.129
318.237
318.196
318.079
317.809
317.422
317.038
316.755
316.474
316.391
316.507
316.774
310.856
310.519
310.408
310.374
310.375
310.519
310.635
310.73
310.9
310.897
310.879
310.848
310.672
310.471
310.174
310.046
309.939
309.823
309.944
310.123
303.603
303.582
303.53
303.518
303.577
303.467
303.585
303.637
303.657
303.58
303.643
303.585
303.668
303.481
303.431
303.412
303.291
303.307
303.364
303.449
353.753
352.702
351.885
351.601
351.868
352.551
353.301
354.24
354.987
355.448
355.49
355.21
354.444
353.385
352.213
351.087
350.28
350.06
350.591
351.503
346.745
345.793
345.149
344.967
345.098
345.58
346.312
347.014
347.637
348.026
348.169
347.833
347.114
346.31
345.262
344.244
343.555
343.411
343.811
344.584
339.653
338.966
338.309
338.1
338.348
338.744
339.283
339.933
340.415
340.708
340.779
340.495
339.913
339.144
338.275
337.511
336.933
336.741
337.119
337.694
332.61
332.001
331.458
331.217
331.382
331.759
332.118
332.657
333.021
333.336
333.418
333.11
332.648
332.131
331.38
330.681
330.222
330.088
330.37
330.842
325.381
324.881
324.479
324.371
324.444
324.73
325.084
325.281
325.684
325.982
325.922
325.775
325.389
324.857
324.4
323.915
323.505
323.436
323.662
323.963
318.2
317.85
317.595
317.433
317.521
317.695
317.936
318.191
318.324
318.521
318.49
318.38
318.152
317.843
317.423
317.05
316.842
316.73
316.908
317.14
310.896
310.735
310.561
310.509
310.503
310.662
310.746
310.927
311.151
311.239
311.153
311.079
310.869
310.691
310.431
310.287
310.061
310.05
310.164
310.253
303.719
303.611
303.478
303.519
303.505
303.567
303.59
303.744
303.696
303.696
303.692
303.728
303.718
303.553
303.554
303.383
303.391
303.354
303.389
303.442
354.652
353.513
352.692
352.535
352.768
353.496
354.379
355.269
356.12
356.649
356.831
356.529
355.662
354.655
353.442
352.367
351.519
351.359
351.73
352.581
347.475
346.596
345.943
345.764
345.937
346.503
347.246
347.984
348.733
349.161
349.273
348.935
348.274
347.323
346.264
345.393
344.632
344.456
344.871
345.54
340.298
339.513
338.912
338.736
338.921
339.39
339.999
340.665
341.196
341.616
341.725
341.391
340.874
340.014
339.205
338.345
337.819
337.681
337.939
338.468
333.005
332.484
331.961
331.712
331.936
332.277
332.786
333.282
333.732
334.092
334.249
333.963
333.402
332.791
332.048
331.369
330.98
330.906
331.053
331.536
325.704
325.383
324.878
324.776
324.91
325.154
325.529
325.923
326.29
326.51
326.538
326.363
326.037
325.564
324.907
324.434
324.129
323.963
324.119
324.527
318.488
318.099
317.862
317.827
317.827
317.964
318.204
318.551
318.805
318.948
318.911
318.869
318.598
318.118
317.798
317.489
317.15
317.153
317.331
317.521
311.101
310.858
310.735
310.58
310.656
310.791
310.899
311.168
311.253
311.383
311.364
311.318
311.111
310.893
310.692
310.437
310.331
310.256
310.349
310.514
303.755
303.593
303.527
303.47
303.632
303.599
303.713
303.68
303.821
303.808
303.821
303.835
303.809
303.662
303.61
303.496
303.453
303.456
303.479
303.522
355.562
354.595
353.789
353.556
353.935
354.508
355.459
356.394
357.326
357.948
358.155
357.813
357.105
355.903
354.765
353.678
352.968
352.607
353.126
354.001
348.328
347.43
346.84
346.612
346.869
347.382
348.136
348.901
349.684
350.155
350.435
350.093
349.468
348.595
347.518
346.624
345.894
345.622
345.987
346.65
341.014
340.254
339.658
339.597
339.72
340.151
340.767
341.423
342.009
342.535
342.7
342.45
341.812
341.046
340.171
339.455
338.834
338.722
338.908
339.417
333.597
332.976
332.56
332.406
332.542
332.918
333.408
333.916
334.436
334.845
334.885
334.691
334.207
333.518
332.782
332.267
331.793
331.624
331.771
332.32
326.179
325.678
325.388
325.288
325.348
325.691
326.017
326.446
326.787
327.076
327.126
326.97
326.626
326.129
325.481
325.06
324.647
324.558
324.754
325.102
318.765
318.413
318.137
318.117
318.146
318.404
318.61
318.885
319.23
319.334
319.385
319.296
319.083
318.68
318.299
317.927
317.621
317.564
317.724
317.934
311.247
311.07
310.833
310.916
310.882
310.971
311.171
311.366
311.424
311.652
311.708
311.596
311.468
311.208
311.026
310.781
310.591
310.515
310.613
310.689
303.78
303.655
303.664
303.621
303.63
303.71
303.769
303.794
303.839
303.924
303.914
303.883
303.815
303.823
303.711
303.603
303.592
303.525
303.607
303.565
356.656
355.641
354.971
354.691
355.023
355.679
356.513
357.597
358.515
359.223
359.576
359.337
358.401
357.526
356.227
355.167
354.43
354.169
354.499
355.302
349.275
348.416
347.778
347.521
347.801
348.38
349.183
349.988
350.843
351.273
351.588
351.385
350.699
349.755
348.635
347.761
347.171
346.935
347.201
347.898
341.748
341.033
340.493
340.343
340.609
341.035
341.646
342.301
342.954
343.456
343.598
343.4
342.81
342.138
341.154
340.476
339.858
339.632
339.985
340.404
334.233
333.707
333.268
333.025
333.314
333.609
334.072
334.665
335.289
335.524
335.661
335.457
335.039
334.391
333.698
333.056
332.675
332.567
332.732
333.134
326.67
326.221
325.868
325.814
325.837
326.201
326.546
326.908
327.37
327.648
327.762
327.609
327.255
326.797
326.166
325.787
325.411
325.252
325.414
325.757
319.178
318.787
318.584
318.427
318.556
318.717
318.954
319.213
319.581
319.721
319.866
319.778
319.536
319.088
318.835
318.309
318.075
318.025
318.153
318.341
311.497
311.351
311.11
311.106
311.142
311.317
311.433
311.594
311.719
311.816
311.854
311.882
311.713
311.487
311.18
311.065
310.853
310.864
310.898
310.985
303.918
303.837
303.754
303.745
303.702
303.745
303.823
303.843
303.942
304.033
303.965
303.918
303.91
303.892
303.789
303.638
303.657
303.65
303.589
303.723
357.816
356.852
356.179
356.052
356.254
356.884
357.779
358.858
359.716
360.513
360.824
360.594
359.876
358.848
357.624
356.591
355.938
355.706
356.097
356.847
350.327
349.44
348.914
348.612
348.88
349.379
350.159
350.903
351.737
352.455
352.686
352.405
351.875
350.915
349.974
349.079
348.499
348.302
348.596
349.239
342.53
341.975
341.506
341.249
341.382
341.893
342.575
343.132
343.85
344.372
344.575
344.376
343.854
343.024
342.208
341.55
340.984
340.872
341.166
341.582
334.922
334.456
333.946
333.807
333.915
334.285
334.822
335.356
335.931
336.286
336.464
336.216
335.894
335.2
334.553
333.902
333.477
333.361
333.629
333.874
327.196
326.827
326.419
326.431
326.511
326.692
327.11
327.515
327.941
328.202
328.34
328.217
327.809
327.358
326.882
326.399
326.112
325.997
326.156
326.502
319.467
319.185
318.84
318.811
318.918
319.135
319.307
319.64
319.99
320.196
320.295
320.175
319.976
319.497
319.167
318.842
318.652
318.634
318.785
318.878
311.741
311.485
311.353
311.297
311.285
311.5
311.615
311.763
312.035
312.118
312.177
312.071
311.942
311.743
311.569
311.342
311.175
311.16
311.211
311.387
303.929
303.895
303.811
303.726
303.792
303.773
303.932
304.001
304.054
304.042
304.069
304.098
303.982
303.916
303.868
303.79
303.684
303.765
303.764
303.82
359.128
358.094
357.454
357.268
357.502
358.067
358.979
359.971
360.951
361.746
362.066
361.888
361.12
360.164
359.158
358.169
357.551
357.417
357.755
358.429
351.31
350.56
349.937
349.814
349.926
350.444
351.202
352.077
352.926
353.52
353.791
353.618
352.994
352.164
351.201
350.428
349.838
349.654
349.967
350.551
343.586
342.857
342.333
342.2
342.395
342.76
343.346
344.049
344.787
345.297
345.478
345.332
344.788
344.093
343.31
342.59
342.112
341.994
342.265
342.762
335.66
335.135
334.761
334.628
334.726
335.034
335.602
336.066
336.659
337.005
337.208
337.053
336.581
336.013
335.462
334.877
334.471
334.365
334.489
334.89
327.779
327.384
327.155
327.07
327.025
327.351
327.662
328.15
328.516
328.796
328.984
328.842
328.526
328.004
327.565
327.112
326.854
326.65
326.863
327.17
319.939
319.61
319.39
319.293
319.34
319.552
319.763
320.103
320.29
320.596
320.645
320.526
320.307
319.931
319.667
319.308
319.172
319.058
319.152
319.417
311.97
311.746
311.636
311.588
311.617
311.726
311.903
312.02
312.193
312.348
312.424
312.352
312.291
312.014
311.767
311.628
311.476
311.488
311.583
311.71
303.981
304.014
303.837
303.908
303.817
303.913
303.983
304.069
304.077
304.088
304.149
304.127
304.06
304.084
303.924
303.895
303.912
303.871
303.905
303.972
360.369
359.5
358.779
358.497
358.676
359.389
360.208
361.158
362.202
362.842
363.318
363.12
362.474
361.546
360.518
359.672
359.122
359.026
359.342
360.005
352.389
351.737
351.065
350.945
351.068
351.544
352.27
353.054
353.848
354.473
354.814
354.681
354.141
353.267
352.39
351.659
351.137
351.083
351.344
351.959
344.439
343.806
343.473
343.117
343.315
343.686
344.277
344.922
345.603
346.115
346.388
346.132
345.731
344.981
344.319
343.679
343.307
343.197
343.396
343.859
336.487
335.925
335.539
335.379
335.552
335.871
336.264
336.759
337.351
337.629
337.885
337.802
337.398
336.864
336.263
335.735
335.398
335.339
335.54
335.888
328.447
327.991
327.699
327.629
327.636
327.919
328.212
328.602
329.07
329.353
329.514
329.413
328.993
328.708
328.145
327.852
327.492
327.383
327.601
327.812
320.287
319.988
319.827
319.754
319.733
319.897
320.158
320.503
320.743
320.999
321.065
320.95
320.748
320.433
320.197
319.812
319.677
319.578
319.73
319.895
312.185
312.066
311.859
311.848
311.881
311.925
312.107
312.298
312.48
312.552
312.619
312.602
312.501
312.28
312.083
311.903
311.801
311.766
311.875
311.924
304.128
304.095
304.061
303.98
303.994
304.122
304.079
304.038
304.208
304.269
304.213
304.173
304.133
304.128
304.055
304.019
303.959
303.972
303.972
304.096
361.707
360.742
360.067
359.936
360.042
360.607
361.426
362.389
363.348
363.834
364.407
364.183
363.687
362.867
361.963
361.173
360.68
360.623
360.941
361.632
353.639
352.759
352.218
352.033
352.183
352.68
353.363
354.083
354.851
355.453
355.66
355.529
355.142
354.414
353.621
352.869
352.574
352.438
352.778
353.307
345.459
344.815
344.37
344.152
344.269
344.608
345.214
345.756
346.394
346.875
347.143
347.04
346.551
346.013
345.298
344.745
344.421
344.37
344.633
345.113
337.238
336.724
336.291
336.074
336.171
336.517
336.987
337.489
338.013
338.328
338.582
338.462
338.067
337.68
337.094
336.621
336.314
336.314
336.467
336.844
328.969
328.677
328.33
328.157
328.239
328.409
328.783
329.119
329.526
329.794
330.037
329.912
329.639
329.33
328.833
328.472
328.256
328.213
328.329
328.679
320.732
320.534
320.245
320.166
320.248
320.33
320.557
320.855
321.08
321.361
321.425
321.364
321.269
320.88
320.637
320.297
320.2
320.175
320.334
320.459
312.433
312.273
312.219
312.059
312.13
312.137
312.395
312.547
312.747
312.796
312.912
312.804
312.777
312.539
312.282
312.206
312.107
312.119
312.115
312.21
304.193
304.219
304.112
304.099
304.07
304.024
304.229
304.241
304.252
304.331
304.396
304.318
304.269
304.177
304.134
304.075
304.034
303.987
304.064
304.161
363.006
362.196
361.531
361.285
361.5
361.909
362.7
363.453
364.389
364.983
365.28
365.3
364.743
364.031
363.31
362.646
362.36
362.266
362.553
363.25
354.783
354.007
353.478
353.257
353.274
353.73
354.375
355.047
355.73
356.336
356.576
356.447
356.124
355.502
354.736
354.286
353.921
353.883
354.227
354.686
346.428
345.752
345.406
345.096
345.179
345.545
346.094
346.63
347.236
347.671
347.858
347.788
347.399
346.918
346.342
345.88
345.622
345.501
345.83
346.184
338.006
337.523
337.113
336.977
337.076
337.309
337.66
338.207
338.657
339.013
339.18
339.089
338.877
338.375
337.885
337.477
337.307
337.229
337.488
337.768
329.633
329.285
328.994
328.816
328.784
329.05
329.357
329.705
330.131
330.306
330.488
330.431
330.18
329.829
329.413
329.144
328.993
328.94
329.064
329.355
321.145
320.938
320.633
320.501
320.607
320.749
321.006
321.168
321.524
321.735
321.801
321.74
321.531
321.233
321.074
320.872
320.642
320.644
320.779
321.032
312.693
312.54
312.401
312.439
312.421
312.477
312.583
312.76
312.914
313.001
313.11
313.038
312.916
312.755
312.603
312.569
312.47
312.426
312.502
312.653
304.239
304.264
304.201
304.063
304.208
304.162
304.233
304.27
304.266
304.416
304.341
304.332
304.353
304.238
304.209
304.219
304.213
304.19
304.15
304.253
364.498
363.637
362.89
362.591
362.764
363.203
363.909
364.627
365.401
366.006
366.321
366.322
365.877
365.306
364.641
364.158
363.759
363.845
364.233
364.882
355.979
355.164
354.632
354.382
354.451
354.925
355.455
356.156
356.7
357.243
357.487
357.428
357.098
356.553
355.96
355.507
355.26
355.315
355.62
356.16
347.52
346.898
346.391
346.13
346.156
346.449
346.937
347.5
348.04
348.445
348.583
348.601
348.242
347.786
347.275
346.916
346.615
346.65
347.087
347.49
338.824
338.43
337.963
337.787
337.868
338.099
338.383
338.794
339.3
339.551
339.781
339.735
339.48
339.135
338.679
338.336
338.144
338.196
338.471
338.819
330.32
329.922
329.576
329.469
329.493
329.586
329.948
330.249
330.51
330.772
330.925
330.931
330.744
330.42
330.037
329.841
329.7
329.664
329.795
330.153
321.637
321.366
321.163
321.014
321.139
321.185
321.361
321.666
321.831
322.064
322.104
322.059
321.86
321.672
321.504
321.357
321.198
321.217
321.282
321.56
312.998
312.862
312.697
312.654
312.69
312.718
312.876
312.96
313.122
313.213
313.272
313.268
313.171
313.001
312.858
312.771
312.766
312.695
312.814
312.887
304.4
304.379
304.276
304.224
304.245
304.249
304.37
304.308
304.335
304.443
304.486
304.446
304.447
304.382
304.313
304.341
304.25
304.268
304.3
304.314
365.801
365.002
364.287
364.011
364.121
364.499
365.045
365.764
366.515
367.044
367.292
367.288
367.002
366.533
366.033
365.553
365.325
365.432
365.939
366.519
357.228
356.503
355.842
355.624
355.695
356.037
356.505
357.036
357.667
358.077
358.299
358.312
358.085
357.589
357.106
356.792
356.527
356.603
357.112
357.55
348.43
347.932
347.339
347.161
347.117
347.526
347.773
348.354
348.849
349.171
349.338
349.24
349.104
348.692
348.341
347.951
347.789
347.845
348.263
348.648
339.737
339.286
338.854
338.571
338.628
338.926
339.175
339.558
339.895
340.139
340.348
340.282
340.178
339.861
339.505
339.192
339.027
339.148
339.403
339.713
330.95
330.508
330.238
330.083
330.075
330.199
330.41
330.808
331.069
331.254
331.4
331.423
331.236
330.99
330.65
330.453
330.337
330.423
330.635
330.934
322.123
321.883
321.585
321.484
321.484
321.627
321.785
321.974
322.225
322.325
322.435
322.418
322.246
322.097
321.944
321.805
321.8
321.763
321.848
322.12
313.278
313.147
312.998
312.942
312.875
312.992
313.105
313.119
313.314
313.355
313.391
313.428
313.387
313.311
313.205
313.101
313.018
313.12
313.109
313.263
304.42
304.377
304.327
304.36
304.409
304.364
304.379
304.382
304.488
304.524
304.569
304.519
304.492
304.444
304.435
304.409
304.365
304.303
304.459
304.403
367.284
366.495
365.758
365.403
365.48
365.813
366.394
366.926
367.592
368.102
368.333
368.227
368.161
367.771
367.327
367.024
366.844
366.992
367.548
368.177
358.435
357.683
357.056
356.829
356.867
357.113
357.543
358.118
358.541
358.971
359.178
359.231
358.933
358.693
358.327
357.969
357.834
357.99
358.421
359.023
349.545
348.951
348.438
348.179
348.204
348.376
348.767
349.098
349.55
349.872
350.085
350.057
349.856
349.628
349.158
349.06
348.98
349.088
349.393
349.881
340.588
340.131
339.703
339.483
339.52
339.705
339.936
340.278
340.526
340.84
340.965
340.948
340.879
340.539
340.242
339.96
340.011
340.089
340.403
340.702
331.621
331.242
330.889
330.754
330.673
330.747
331.099
331.302
331.533
331.748
331.912
331.802
331.733
331.552
331.359
331.144
331.043
331.16
331.289
331.679
322.607
322.387
322.049
321.996
321.926
321.946
322.252
322.37
322.566
322.647
322.784
322.837
322.703
322.531
322.31
322.28
322.274
322.306
322.426
322.648
313.525
313.437
313.251
313.156
313.27
313.174
313.364
313.407
313.605
313.594
313.706
313.679
313.621
313.54
313.38
313.37
313.395
313.387
313.53
313.562
304.508
304.474
304.445
304.43
304.415
304.387
304.516
304.556
304.581
304.581
304.553
304.585
304.492
304.526
304.453
304.427
304.534
304.472
304.543
304.504
368.891
367.956
367.148
366.912
366.844
367.147
367.673
368.144
368.685
369.123
369.375
369.438
369.273
368.878
368.715
368.409
368.372
368.51
369.151
369.883
359.713
359.046
358.431
358.129
358.151
358.324
358.592
359.124
359.479
359.901
360.16
360.06
360.01
359.711
359.369
359.259
359.102
359.374
359.845
360.466
350.61
350.04
349.499
349.206
349.15
349.316
349.614
350.035
350.465
350.72
350.851
350.857
350.646
350.565
350.276
350.098
349.988
350.17
350.572
351.086
341.463
341.002
340.479
340.33
340.283
340.481
340.528
340.955
341.226
341.458
341.538
341.568
341.459
341.279
341.103
340.905
340.882
341.074
341.435
341.79
332.23
331.917
331.624
331.425
331.368
331.417
331.617
331.888
332.049
332.158
332.308
332.303
332.29
332.093
331.91
331.818
331.745
331.814
332.133
332.451
323.108
322.862
322.654
322.467
322.389
322.524
322.593
322.715
322.826
323.054
323.166
323.083
323.07
322.945
322.854
322.745
322.712
322.774
322.955
323.173
313.889
313.686
313.54
313.494
313.518
313.552
313.563
313.703
313.822
313.921
313.898
313.892
313.852
313.748
313.693
313.689
313.63
313.705
313.804
313.91
304.655
304.561
304.511
304.555
304.54
304.562
304.567
304.533
304.622
304.563
304.683
304.727
304.661
304.561
304.612
304.54
304.608
304.586
304.633
304.659
370.308
369.357
368.688
368.285
368.234
368.455
368.881
369.344
369.8
370.138
370.431
370.43
370.35
370.107
370.008
369.827
369.82
370.134
370.648
371.494
361.015
360.326
359.65
359.285
359.158
359.402
359.751
360.151
360.386
360.818
360.996
361.011
360.944
360.755
360.558
360.403
360.4
360.675
361.151
361.846
351.622
351.141
350.51
350.264
350.109
350.214
350.533
350.798
351.179
351.455
351.619
351.547
351.532
351.367
351.176
351.094
351.097
351.324
351.635
352.149
342.309
341.895
341.408
341.129
341.066
341.201
341.369
341.646
341.859
342.144
342.276
342.258
342.162
341.955
341.925
341.722
341.834
341.972
342.24
342.758
332.999
332.548
332.239
332.056
331.936
332.097
332.205
332.438
332.631
332.77
332.837
332.751
332.755
332.576
332.538
332.452
332.453
332.586
332.843
333.188
323.558
323.292
323.144
322.949
322.825
322.854
323.012
323.262
323.253
323.435
323.489
323.442
323.465
323.387
323.288
323.177
323.242
323.319
323.51
323.701
314.203
313.973
313.873
313.75
313.778
313.795
313.751
313.98
313.931
314.053
314.116
314.124
314.027
314.018
313.888
313.873
313.937
313.971
314.054
314.124
304.688
304.728
304.636
304.613
304.624
304.595
304.65
304.655
304.712
304.72
304.726
304.778
304.785
304.675
304.601
304.627
304.629
304.697
304.725
304.782
371.736
370.8
370.057
369.699
369.554
369.756
370.014
370.416
370.845
371.285
371.456
371.458
371.446
371.363
371.148
371.068
371.198
371.582
372.233
372.91
362.223
361.388
360.864
360.409
360.41
360.408
360.755
361.039
361.334
361.709
361.873
361.883
361.803
361.766
361.562
361.513
361.564
361.88
362.411
363.105
352.711
351.994
351.491
351.23
351.071
351.215
351.426
351.615
351.804
352.217
352.239
352.361
352.314
352.198
352.067
351.949
351.997
352.311
352.758
353.283
343.201
342.632
342.198
341.929
341.827
341.904
342.095
342.319
342.512
342.753
342.763
342.814
342.743
342.635
342.51
342.486
342.606
342.754
343.125
343.474
333.577
333.189
332.841
332.628
332.549
332.561
332.746
332.816
333.055
333.197
333.243
333.212
333.231
333.196
333.067
333.048
333.109
333.194
333.549
333.861
324.048
323.724
323.438
323.265
323.334
323.346
323.475
323.519
323.718
323.747
323.79
323.722
323.69
323.734
323.606
323.515
323.71
323.693
323.954
324.07
314.477
314.266
314.093
314.024
313.953
314
314.037
314.076
314.216
314.219
314.22
314.296
314.187
314.232
314.1
314.139
314.216
314.235
314.389
314.489
304.864
304.777
304.767
304.68
304.681
304.7
304.775
304.677
304.766
304.775
304.786
304.78
304.821
304.788
304.804
304.74
304.789
304.719
304.788
304.834
372.771
371.846
371.163
370.688
370.495
370.612
370.966
371.226
371.618
371.961
372.216
372.285
372.378
372.12
372.161
372.048
372.2
372.63
373.291
374.091
363.131
362.314
361.715
361.275
361.176
361.257
361.503
361.743
362.091
362.324
362.423
362.572
362.496
362.42
362.317
362.354
362.539
362.813
363.3
364.039
353.451
352.776
352.174
351.882
351.837
351.839
352
352.183
352.452
352.662
352.822
352.84
352.833
352.697
352.735
352.704
352.755
353.019
353.46
354.057
343.678
343.21
342.764
342.442
342.277
342.41
342.605
342.693
342.866
343.049
343.214
343.264
343.158
343.12
343.009
343.073
343.169
343.3
343.659
344.173
334.012
333.635
333.33
333.055
332.969
332.956
333.101
333.172
333.383
333.546
333.589
333.573
333.563
333.511
333.479
333.433
333.524
333.595
333.952
334.257
324.297
324.041
323.721
323.549
323.609
323.585
323.663
323.703
323.811
323.913
324.008
323.966
323.932
323.942
323.842
323.828
323.895
324.091
324.24
324.553
314.619
314.46
314.341
314.17
314.112
314.159
314.179
314.26
314.264
314.364
314.395
314.442
314.377
314.343
314.287
314.361
314.301
314.452
314.491
314.688
304.868
304.825
304.849
304.734
304.775
304.739
304.7
304.747
304.799
304.804
304.847
304.782
304.808
304.813
304.797
304.858
304.838
304.87
304.859
304.911
)
;

boundaryField
{
    hotSide
    {
        type            fixedGradient;
        gradient        nonuniform List<scalar> 
400
(
321.511
322.87
325.591
329.677
335.133
341.965
350.181
359.788
370.794
383.208
397.037
412.289
428.971
447.088
466.647
487.651
510.105
534.011
559.372
586.191
323.738
325.08
327.767
331.802
337.194
343.949
352.078
361.591
372.498
384.81
398.537
413.687
430.268
448.289
467.755
488.672
511.043
534.872
560.161
586.913
326.149
327.47
330.116
334.091
339.406
346.071
354.099
363.503
374.296
386.491
400.101
415.136
431.606
449.52
468.885
489.706
511.988
535.735
560.948
587.63
328.704
330
332.597
336.503
341.73
348.292
356.205
365.485
376.15
388.215
401.695
416.604
432.954
450.753
470.009
490.73
512.919
536.579
561.714
588.325
331.33
332.599
335.142
338.97
344.099
350.546
358.332
367.477
378.003
389.928
403.271
418.047
434.27
451.949
471.095
491.712
513.807
537.382
562.439
588.978
333.918
335.158
337.643
341.389
346.414
352.74
360.392
369.397
379.779
391.562
404.765
419.407
435.503
453.065
472.101
492.618
514.622
538.114
563.096
589.569
336.321
337.531
339.959
343.622
348.544
354.751
362.274
371.142
381.385
393.031
406.101
420.618
436.595
454.047
472.983
493.409
515.33
538.747
563.663
590.076
338.36
339.543
341.92
345.509
350.339
356.44
363.847
372.595
382.718
394.244
407.2
421.608
437.485
454.844
473.695
494.045
515.897
539.253
564.114
590.478
339.852
341.015
343.352
346.885
351.645
357.665
364.985
373.643
383.675
395.113
407.984
422.312
438.116
455.407
474.197
494.491
516.294
539.606
564.428
590.758
340.643
341.795
344.11
347.613
352.334
358.311
365.584
374.193
384.176
395.567
408.393
422.679
438.443
455.699
474.456
494.722
516.498
539.788
564.589
590.901
340.643
341.795
344.11
347.613
352.334
358.311
365.584
374.193
384.176
395.567
408.393
422.679
438.443
455.699
474.456
494.722
516.498
539.788
564.589
590.901
339.852
341.015
343.352
346.885
351.645
357.665
364.985
373.643
383.675
395.113
407.984
422.312
438.116
455.407
474.197
494.491
516.294
539.606
564.428
590.758
338.36
339.543
341.92
345.509
350.339
356.44
363.847
372.595
382.718
394.244
407.2
421.608
437.485
454.844
473.695
494.045
515.897
539.253
564.114
590.478
336.321
337.531
339.959
343.622
348.544
354.751
362.274
371.142
381.385
393.031
406.101
420.618
436.595
454.047
472.983
493.409
515.33
538.747
563.663
590.076
333.918
335.158
337.643
341.389
346.414
352.74
360.392
369.397
379.779
391.562
404.765
419.407
435.503
453.065
472.101
492.618
514.622
538.114
563.096
589.569
331.33
332.599
335.142
338.97
344.099
350.546
358.332
367.477
378.003
389.928
403.271
418.047
434.27
451.949
471.095
491.712
513.807
537.382
562.439
588.978
328.704
330
332.597
336.503
341.73
348.292
356.205
365.485
376.15
388.215
401.695
416.604
432.954
450.753
470.009
490.73
512.919
536.579
561.714
588.325
326.149
327.47
330.116
334.091
339.406
346.071
354.099
363.503
374.296
386.491
400.101
415.136
431.606
449.52
468.885
489.706
511.988
535.735
560.948
587.63
323.738
325.08
327.767
331.802
337.194
343.949
352.078
361.591
372.498
384.81
398.537
413.687
430.268
448.289
467.755
488.672
511.043
534.872
560.161
586.913
321.511
322.87
325.591
329.677
335.133
341.965
350.181
359.788
370.794
383.208
397.037
412.289
428.971
447.088
466.647
487.651
510.105
534.011
559.372
586.191
)
;
    }
    coldSide
    {
        type            mixed;
        refValue        uniform 300;
        refGradient     uniform 0;
        valueFraction   uniform 0.991591;
        source          uniform 0;
        value           nonuniform List<scalar> 
400
(
300.031
300.03
300.031
300.03
300.031
300.032
300.032
300.033
300.033
300.033
300.035
300.035
300.036
300.037
300.037
300.038
300.039
300.039
300.041
300.041
300.03
300.029
300.03
300.03
300.03
300.03
300.031
300.032
300.033
300.034
300.034
300.035
300.036
300.037
300.037
300.038
300.038
300.04
300.04
300.041
300.028
300.03