/*--------------------------------*- C++ -*----------------------------------*\
| =========                 |                                                 |
| \\      /  F ield         | OpenFOAM: The Open Source CFD Toolbox           |
|  \\    /   O peration     | Version:  2212                                  |
|   \\  /    A nd           | Website:  www.openfoam.com                      |
|    \\/     M anipulation  |                                                 |
\*---------------------------------------------------------------------------*/
FoamFile
{
    version     2.0;
    format      ascii;
    arch        "LSB;label=32;scalar=64";
    class       volScalarField;
    location    "0";
    object      relativeErrorField;
}
// * * * * * * * * * * * * * * * * * * * * * * * * * * * * * * * * * * * * * //

dimensions      [0 0 0 1 0 0 0];

internalField   nonuniform List<scalar> 
3200
(
0.00491041
0.00631639
0.00534613
0.00356269
0.0107488
0.0116617
0.00398028
0.00442489
0.00767305
0.00568853
0.00907575
0.00186361
0.00819998
0.00416703
0.00615303
0.00353826
0.00394922
0.00132559
0.00169557
0.0028759
0.00023357
0.00506967
0.008634
0.0110274
0.00786612
0.0113763
0.00564691
0.0057744
0.00527663
0.00850935
0.00556079
0.00578634
0.00793188
0.00600262
0.00390918
0.00869597
0.00705831
0.00487256
0.00255805
0.0013832
0.00128046
0.0023245
0.00326829
0.00614283
0.00721175
0.00868053
0.00491802
0.0112654
3.06581e-05
0.00761594
0.00374138
0.00996094
0.00467034
0.00389871
0.00545925
0.00682412
0.00311388
0.00341981
0.00244085
0.00375029
0.00528168
0.00120872
0.000539656
0.00421565
0.00499846
0.000301515
0.00851625
0.00351029
0.00326743
0.000767423
0.00306341
0.00478963
0.00582307
0.00385344
0.00323174
0.0033318
0.0058546
0.00373053
0.00335022
0.00216843
0.0042415
0.00130199
0.00601888
0.0116162
0.0042667
0.00409623
0.00221168
0.000878331
0.00174371
0.00332915
0.00434945
0.00439975
0.00244291
0.00650914
0.00784305
0.0024225
0.00233781
0.00311456
0.000763133
0.00277347
0.00172212
6.32532e-05
0.000100627
0.000508131
0.00101566
0.00193636
0.00310068
0.00352367
0.00589569
0.00125659
0.00164361
0.000345234
0.000992579
0.00446714
0.00132863
0.006023
0.000772884
0.00267629
0.00386691
7.03087e-05
0.00224798
0.00207556
0.00273249
0.00362258
0.00122868
0.00349885
0.00125294
0.00225402
0.000559913
0.00373388
0.00767334
0.00552205
0.00559947
0.00141101
0.00165623
0.00197698
0.00198198
2.03946e-05
0.00381686
0.00198335
0.00741212
0.00323993
5.35251e-05
0.00500147
0.00167837
0.00207542
0.00189487
0.00483521
0.0025751
0.00171427
0.00157163
0.000511883
0.0013881
0.00220311
0.00381142
0.00234634
0.00059572
0.00135338
0.0024952
0.00249526
0.0045865
0.00484033
0.00717305
0.00876071
0.0108165
0.00813772
0.00797719
0.00840138
0.00667519
0.00359098
0.00415726
0.00663433
0.00147941
0.00647684
0.00494651
0.00469981
0.00552282
0.0043718
0.00583732
0.00097785
8.29275e-05
0.00042635
0.00758322
0.000115047
0.00719926
0.000344663
0.00528436
0.000337626
0.00587582
0.000699693
0.000693588
0.00137972
0.000505579
0.00257662
0.000118677
0.00207647
0.000845018
0.000938489
0.00121238
0.00443639
0.000853103
0.00181447
0.00647337
0.00552184
0.00874593
0.00546801
0.00506155
0.00787722
0.00146736
0.00511606
0.000718732
0.00963401
0.00526579
0.00565221
0.00224267
0.00736161
0.00115608
0.00485648
0.00249116
0.00374899
0.00061805
0.00278745
0.00272497
0.00647719
0.00306131
0.00153312
0.00193704
0.00589079
0.00862799
0.00145645
0.00394955
0.00284946
0.00307637
0.00187548
0.00522143
0.00358188
0.00646449
0.00125555
0.00290911
0.000516294
0.00169401
0.00175104
0.0024081
0.00316348
0.00251611
0.000721399
0.00369185
0.0010964
0.00200794
0.00227355
0.00374159
0.00199511
0.00189991
0.0011837
0.00546431
0.00146423
0.000152658
0.00449573
0.00137361
0.00160051
0.000896073
0.00120267
0.00218497
0.00247901
0.00519292
0.00164852
0.00334642
0.00194672
0.00510611
0.000179627
0.00563517
0.000387996
0.000986626
0.000345718
0.00344673
0.00413677
0.00369579
0.000459721
0.00166226
0.000518477
0.00263642
0.00214355
0.0035583
0.00248925
0.00772475
0.00136991
0.00346787
0.0049261
0.00475257
0.00242456
0.00153686
0.000625709
0.00293737
0.000881898
0.000474781
0.00080328
0.000288439
0.00506377
0.00192509
0.0026933
0.0043964
0.000304825
0.00273289
0.0017335
0.00406234
0.0005275
0.00063759
0.00395371
0.00127033
0.000684804
0.00148862
0.000353036
0.00281269
0.00554754
0.00521211
0.000927232
0.000730409
0.000731402
0.00408746
0.00145132
0.00111094
0.00518462
0.00989672
0.00421643
0.00908083
0.00790085
0.00662316
0.00371159
0.00689663
0.00045107
0.00305675
0.00488639
0.00190566
0.00140345
0.00591677
0.00117221
0.00825671
0.00556027
0.00161612
0.00523608
0.00188017
0.000551144
0.00509906
0.00754069
0.00534588
0.00419238
0.00920278
0.0049359
0.00480739
0.00172338
0.00107005
0.00362224
0.00156067
0.0089783
0.00142143
0.0038315
0.0054863
0.00377286
0.0017527
0.00109692
0.00118731
0.00359876
0.00267503
0.00383888
0.00681982
0.00722008
0.00820734
0.00401989
0.00361173
0.00276523
0.00268984
0.000473774
0.00635181
0.0022327
0.00287229
0.00187747
0.000122309
0.00316299
0.000408152
2.44174e-05
0.000770897
0.00387023
0.00437544
0.00259684
0.00587182
0.00335391
0.00434382
0.00697813
0.00123629
0.00583083
0.000399032
0.00130676
0.00245283
0.00298365
0.00791815
0.00364093
0.0046609
0.00438537
0.00418228
0.00153124
0.00191577
0.000668214
0.00225716
0.00514836
0.00226383
0.00343745
0.00512473
0.00265274
0.00217295
0.00102498
0.00235516
0.0027429
0.000968555
0.00168866
0.000233974
0.000113222
0.00406138
0.000289278
0.000776254
0.000405953
0.00100116
5.11971e-05
0.00176951
0.00283333
0.00347797
0.00432571
0.00132942
0.000944579
0.00107209
0.000333793
0.00274343
0.000318949
0.00241924
0.000298884
0.00224543
0.000955001
0.00137348
0.000774756
0.00291573
0.0015036
0.00292275
0.00219705
0.00309583
0.0018112
0.00315409
0.00469073
0.0046654
0.00050187
0.00357317
0.000715166
0.00200204
0.00400495
0.000537562
0.00232323
0.00304148
0.000274614
0.00669918
0.000411779
0.00551984
5.00195e-05
0.00178679
0.00630384
0.00327382
0.00063876
0.00162306
0.000163982
0.00364468
0.00164501
0.00169822
0.0011317
0.000710361
0.000945795
0.000475927
0.00111374
0.000427497
0.00125827
0.00130558
0.001379
0.00311199
8.26871e-05
0.00615355
0.00465863
0.00393985
0.00646318
0.00282492
0.00460477
0.00720651
0.00305716
0.00241969
0.00184429
0.000257121
0.00358981
0.00383096
0.00104643
0.00356384
0.00201088
0.0059006
0.00333405
0.00101372
0.0036145
0.000900047
0.000280035
0.000303089
0.000458255
0.005922
0.000727041
0.003757
0.000543441
0.00384403
0.000548676
0.00112488
0.000682225
0.000706283
0.000446853
0.000161515
0.00596934
0.000928911
0.000679174
0.000497023
0.000707281
0.00434373
0.00499301
0.00264941
0.00445494
0.00141243
0.00837443
0.000226102
0.00447481
0.00462879
0.00264192
0.00494102
0.00452786
0.00114757
0.0001411
0.0031135
0.000275902
0.000824129
0.00197845
0.00397571
0.000482137
0.00387081
0.000293161
0.00263718
0.00431902
0.0052719
0.000795811
0.00432719
0.00299244
0.00195741
0.00331107
0.00207727
0.00326104
0.00372739
0.00545218
0.00338999
6.96962e-05
0.00313323
0.00455924
0.00619884
0.002263
0.00476668
0.00103582
0.00341971
0.0022048
0.00526914
0.00441487
0.00689108
0.0084642
0.00179879
0.00140396
6.92409e-05
0.000424084
0.000474422
0.00464402
0.00171521
0.00114555
0.00420929
0.00321369
0.000240902
0.00437419
0.000163852
0.0013062
0.00185642
0.00498542
0.00139804
0.000584554
0.000235475
0.000446398
0.00140059
0.00259641
0.00111765
0.00105613
0.000187798
0.000851865
0.000866365
0.00549297
0.000177467
0.00126265
0.000440674
0.000197692
0.00146574
0.000305477
0.000362108
0.000615298
0.0046319
0.00242584
0.00210152
0.000724836
0.000840078
0.000427482
0.00034154
0.00345906
0.000281396
1.77435e-05
0.0045153
0.000919551
0.000366106
0.00120585
0.00393924
0.00193168
0.000651593
5.97213e-05
0.00164906
0.00474693
0.00159913
0.00496808
2.18941e-06
0.00315995
0.00300784
0.000115122
0.00164418
0.0063758
0.00226907
0.00529605
0.00169655
0.00528244
0.00580714
0.00316483
0.00446973
0.00495268
0.000814321
0.00116518
0.00128603
0.00520929
0.00527078
0.00582537
0.000868677
0.00427498
0.00228759
0.00093039
0.0010591
0.00284516
0.00337362
0.000831488
0.00153428
0.00582754
0.00301558
0.00147368
0.00455441
0.0027441
0.00325695
0.000699764
0.0037596
0.00742526
0.00856817
0.00120895
0.00577755
0.00275768
0.00114259
0.00099187
0.000396817
0.00451157
0.000591048
0.00265662
0.00112119
0.000439739
0.00299609
0.00124616
0.000673289
0.00292329
0.00161884
0.00278565
0.00259055
0.00226906
0.00543403
0.000338136
0.000567238
0.000464604
0.0008452
0.00343713
0.00120235
0.000748242
0.000982102
0.00251576
0.00130233
0.00366364
0.00397679
0.000274941
0.000110618
0.00163971
0.00193479
0.00393371
0.00692465
0.00074078
0.00483098
0.00309044
0.00430913
0.000386637
0.00318439
0.00254901
0.0026138
0.00168706
0.00197583
0.00292931
0.000757992
0.00242416
0.00449318
0.000593003
0.000108561
0.00244828
0.00400975
0.000735589
0.000900559
0.00174838
0.00545868
0.00453964
0.00113913
0.000232742
0.000671909
0.00123009
0.00113507
0.0020206
0.00324342
0.00454247
0.00489499
0.0010329
0.000856147
7.76118e-05
0.00333119
0.00333367
0.0034426
0.0046571
0.000705374
0.00101887
0.00629126
0.00028333
0.000407845
0.000658367
0.00181415
0.00171645
0.000628038
0.000296426
0.000898847
0.000325544
0.000104752
0.000311243
0.00328467
0.000159774
0.000753008
0.000905777
0.00191624
0.00145844
0.00178424
0.00167798
0.000857826
0.0012791
0.00132723
0.00263284
0.000145751
0.000991678
0.000520162
0.00184909
0.00136743
0.000285905
0.000786061
0.00237138
0.0014763
0.00270776
0.00299141
0.00051571
0.00410055
0.000128148
0.000520815
0.00209942
0.00100369
0.00300189
0.00105832
0.00170058
0.00120579
0.000785738
0.00070305
0.00225378
0.00108939
0.0045918
0.000403048
0.00221723
0.0038071
0.00448575
0.00120751
0.00271582
0.000790148
0.00161344
0.000272319
0.00163317
0.00419118
0.00629167
0.00556735
0.00253875
0.00282222
0.00271643
0.00597568
0.0015481
0.00651286
0.00255236
0.000771799
0.00234508
0.00370618
0.00101734
0.0032052
0.00591222
0.00739112
0.00173192
0.00240584
1.97513e-05
0.00615547
0.00080162
0.000520155
0.000358243
0.00205608
0.00122025
0.000517226
0.00213763
0.000301941
0.000710115
0.000219969
0.00320322
0.000433863
0.000200668
0.000515664
0.00387256
0.00117342
0.001996
0.000157376
0.00183757
0.000562325
0.00553101
0.000870385
0.00278424
0.0027143
0.00543259
0.00462686
0.000438007
0.00041917
0.00252584
0.000339913
0.00221002
0.00268538
0.00156785
0.00138431
0.00291179
0.00403681
0.00285613
0.0029469
0.0017043
0.000607157
0.0021451
0.00671953
0.00369158
0.00132327
0.00189285
0.00230524
0.00184856
0.00171815
0.00496046
0.000326981
0.00215176
0.000903473
0.00150254
0.000494141
0.00370888
0.00319132
0.000775486
0.00533815
0.00313444
0.00160034
0.00208547
0.00194331
0.00270481
0.00329812
0.00345511
0.000755071
0.00418699
0.00208434
4.62127e-05
0.00307993
0.00211809
0.00142871
0.000834248
0.000150091
0.0021108
0.00296223
0.00155381
0.00146348
0.00513332
0.001457
0.00104794
0.00807036
0.00637823
0.00224487
0.000798047
0.00296238
0.00424447
0.00222972
0.00217979
0.00246048
0.0012458
0.00128145
0.000578782
0.00422504
0.000389491
0.00255917
0.00103457
0.00321428
0.000242126
0.000110272
0.0041022
0.00464869
0.00205623
0.00364742
0.0018936
0.00128916
0.000185706
0.000810623
0.0015473
0.00180811
4.98159e-06
0.000135616
0.00386451
0.00370154
0.00129094
0.00154873
0.00192701
0.000896889
0.00167037
0.00140869
0.00140742
0.000243305
0.00155009
0.00286177
0.00227136
0.00155541
0.000450898
0.00150291
0.00120171
0.000939368
8.50823e-05
0.000386743
0.00414618
0.000346613
0.00108191
0.0036485
0.00101867
0.00433715
0.00502172
0.00109469
0.000474121
0.0015519
0.00141728
0.00407113
0.00224643
0.000369684
0.000810485
0.00298523
0.00242361
0.00227965
0.00117601
0.000626212
0.00055586
0.0017431
0.00529029
0.00749006
0.0036911
0.000614528
0.00288191
0.00234941
0.000564877
0.00198812
0.00380607
0.00182699
0.00131617
0.00422567
0.000703359
0.00222951
0.00183733
0.00390969
0.00139463
0.000687866
0.00365394
0.000756588
0.00276221
0.00549935
0.00343306
0.00208102
0.00297048
0.000234822
0.00268126
0.0023979
0.00211925
0.0006603
0.00138436
0.00031369
0.00324059
0.000428298
0.00106257
0.000899816
0.00150838
0.00178461
0.00119857
0.00124847
0.00163264
0.00248723
0.000936662
0.0018058
0.00268975
0.00242697
0.00471455
0.00327307
0.00439973
0.00337031
0.00136832
0.000897303
0.00397608
0.000210421
0.00291622
0.000812215
0.00296345
0.00022801
0.000786711
0.00154504
0.00227697
0.00322679
0.00633776
0.000255651
0.00269842
0.00133555
0.00224144
0.00309712
0.000641432
0.00261001
0.0042325
0.00199271
0.00184754
0.00162681
0.0033201
0.00243283
0.00189881
0.000593962
0.000866673
0.00345798
0.000747203
0.000310116
0.00238069
0.00460068
0.000784599
0.00117604
0.00551448
0.000620926
0.00138712
0.00215793
0.00368031
0.000573984
0.00264879
0.00256367
0.00163656
0.00561498
0.00417703
0.00202553
0.000243929
0.00416067
0.00151803
0.00320828
0.00211317
0.00331901
0.00186535
0.00467207
0.00138622
0.0016645
0.00289716
0.00534055
0.00175734
0.000469599
0.00188488
0.00272166
0.00685325
0.00136448
0.00259426
0.00207665
0.00331552
0.00189605
0.00338282
0.00112894
0.00380397
0.00182598
0.00142722
0.002715
0.0012472
0.00135269
0.00269328
0.000278289
0.00261858
0.00111009
0.00114345
0.0016967
0.002888
0.00215547
0.000184802
0.000788258
0.000836345
0.00132173
0.00424489
0.00398441
0.00019632
0.00193504
0.000786045
0.00323755
0.00228791
0.00141572
0.000429072
0.005014
0.00215944
0.00361554
0.00373607
0.000506887
0.00529273
0.00126484
0.00610757
0.00321456
0.000709055
0.00125488
0.00608106
0.00123663
0.000266117
0.00388251
0.000831698
0.00449406
0.000874834
0.000518974
0.000152263
0.00584295
0.000306769
0.00035737
0.00284415
0.00069743
0.000704655
0.000641565
0.00624831
0.000261679
0.00121753
0.000387466
0.00309857
0.00645278
0.00755578
0.000143742
0.000435384
0.00204444
0.000480324
0.00176183
0.00343888
0.00596055
0.00111982
0.00348654
0.00372687
0.00237426
0.00221169
0.00349688
0.0004818
0.00166922
0.000572315
0.00023995
0.00281965
0.00224699
0.0068104
0.00182712
0.00371547
0.000342517
0.00150697
0.000452429
0.00719965
0.00240478
0.00310362
0.00355805
0.00582209
0.00400171
0.000662838
0.00173979
0.000440946
0.00281745
0.00342232
0.0024823
0.000454944
0.00294207
0.00341557
0.00548649
0.000207089
0.00300588
0.000649071
0.00349295
0.0023383
0.00360021
4.44009e-05
0.00163627
0.0036886
0.00471045
0.00354347
0.000114306
0.00351499
0.0029295
0.00152647
0.00140182
0.00256982
0.00215101
0.000723407
0.000130336
0.00187932
0.00542191
0.00144804
0.000416861
0.00306491
0.000482834
0.00147968
0.00076313
0.00159008
0.00295953
0.00266714
0.000867986
0.000865497
0.000435817
0.00484175
0.00179683
0.00281538
0.00162859
4.28095e-05
0.00283682
0.00159343
0.000712327
0.00171139
0.00244963
0.00198273
0.00316676
0.000297138
0.00223734
0.00119958
0.000220256
0.00101309
0.000324763
0.00147452
0.00686223
0.00189309
0.00243539
0.00565824
0.00140799
0.000291055
0.000355578
0.000373837
0.00370216
0.00159154
0.000386605
0.00423332
0.00297216
0.000879385
0.000957138
0.00383879
0.000869075
0.00181525
0.000420442
0.000352138
0.0010906
0.000127998
0.000587867
0.00102304
0.00828512
0.00189454
0.00162917
0.00212547
0.00399181
0.000815682
0.000722834
0.00291882
0.00497112
0.00345412
0.00673576
0.0048044
0.00289629
0.00546898
0.000190613
8.60936e-05
0.00103385
0.00257925
0.000816919
0.00093665
0.0061185
0.0076267
0.00446915
8.7347e-05
0.000283636
0.00169611
0.00360287
0.00131536
0.00505268
0.00288016
0.00684811
0.00179805
0.00651863
0.00304592
0.00439756
0.00300509
0.00332664
0.00157777
0.00440147
0.00222867
0.00553222
0.00100847
0.00400313
0.00356582
0.00242246
0.00618062
0.0030282
0.000890843
0.00551314
0.000921167
0.00111343
0.000273157
0.00331723
0.0014232
0.00154044
0.00358511
0.000534102
0.000678606
0.00295169
0.000123546
0.00389934
0.000506036
0.00314065
0.000709904
0.000493973
0.00147529
0.00384322
0.00633247
0.00545923
0.000110377
0.00238273
0.00188857
0.00312308
0.00189681
0.00126069
0.000671724
0.00246914
0.00138836
0.00378691
0.0054146
0.00792554
0.00180749
0.00478281
0.000413514
0.000975018
0.000917481
0.00305586
0.000439372
0.00341885
0.00124013
0.000140698
0.0020055
0.00124338
0.00268676
0.00662405
0.00042043
0.000821072
0.00402902
0.00133269
0.00108172
0.00253142
0.000532062
0.00303808
0.000535035
0.0023675
0.00356442
0.00139983
0.000606132
0.00258943
0.000480918
0.00211625
0.000734941
0.00409045
0.00221279
0.000710701
0.0033866
0.00116741
0.00100963
0.00157559
0.0055736
0.000403524
0.00381716
0.000796102
0.00298266
0.0016516
0.00174523
0.00101586
0.00182216
0.00383181
0.00367161
0.00137976
0.0024669
0.0036789
0.00443134
0.00123187
0.00280911
0.000780469
0.00124959
0.00310741
0.00308222
0.00113629
0.00238188
0.000828904
0.00462099
0.000398393
0.0012124
0.00343923
0.00135443
0.00162567
0.00420993
0.00416501
0.0011697
0.00294352
0.00178808
0.00574593
0.000354223
0.00756617
0.00323288
0.00668965
0.00102571
0.00667513
0.00135288
0.00274748
0.00125701
0.00272742
0.00115009
0.000780246
0.00142807
0.00522884
0.00173142
0.00373228
0.00417805
0.00361264
0.00117768
0.00376591
0.00288622
0.00159176
0.000262441
0.00172641
0.00478289
0.00466121
0.00133875
0.00261953
0.00092927
0.00501805
0.00096951
0.0009551
0.000102677
0.00546902
0.000284828
0.000514645
0.00339702
0.000320676
0.00178253
0.0013431
0.000351199
0.00130244
0.00197752
0.000177581
0.00515076
0.00181475
0.00618355
0.00154733
0.00165115
0.00343011
0.00069288
0.00100817
0.00161066
0.00182248
0.000126466
0.000730488
0.00874404
0.00383219
0.00508758
0.00241927
0.000718808
0.00153738
0.000170178
0.000173733
0.00555526
0.00498614
0.00224006
0.0052995
0.00304319
0.00012113
0.00285796
0.00463778
0.0038854
0.00153447
0.000329977
0.00125747
0.00320472
0.0048069
0.000570588
0.00330737
0.000644355
0.0013704
0.00173821
0.00713521
0.00367435
0.00067807
0.00257728
0.00245076
0.00519366
0.000946078
0.00295079
0.00034729
0.00575281
0.00388328
0.00176468
0.00138973
0.00206234
0.00763429
0.00211415
0.00163241
0.00155216
0.00293897
0.00493728
0.000696197
0.00105208
0.00226018
0.00253125
0.00172747
0.00147238
0.00182357
0.000711979
0.00424738
0.004071
0.00180835
0.00140182
0.00121992
0.0018302
0.00239337
0.000872409
0.004358
0.00330864
0.00325747
0.00149227
0.00348533
0.000352911
0.00254562
0.000425221
0.00123957
0.00279689
0.00139274
0.00302587
0.0019197
0.00432271
0.00098213
0.000628958
0.000319432
0.00323994
0.000660782
0.00326218
0.00271636
0.00113537
0.000948135
0.00340203
0.00349863
0.00347003
0.00292147
0.000394082
0.00114195
0.00131948
7.15945e-05
9.59792e-05
0.0038035
0.0035183
0.0027014
0.00166288
0.000324292
0.0026149
0.00266245
0.00373043
0.000741159
0.00376204
0.00561962
0.00381721
1.95733e-05
0.00102304
0.00676436
0.00805805
0.0026035
0.000320612
0.00126638
0.00716009
0.00280103
0.00434592
0.00409637
0.00553266
0.00855635
0.0088666
0.00372435
0.0017824
0.00176557
0.00275738
0.00270852
0.00159411
0.0044296
0.00624931
0.0066838
0.000481387
0.00456066
0.000871473
0.00033612
0.000319826
0.00316237
0.00056096
0.00264511
0.000749109
0.000471271
0.00404642
0.000500643
0.00429338
0.000141156
0.00140814
0.000565902
0.00210234
0.000485898
0.0068221
0.00524507
0.00304985
0.00131869
0.00320171
0.0021824
0.00394436
0.00407182
0.00531245
0.00994763
0.00246736
0.00233374
0.00141623
0.00286218
0.00244044
0.000364876
0.000973308
0.00472327
0.00134606
0.000391209
0.00596908
0.00411974
0.00328823
0.000540326
0.00122598
0.00011695
0.00145656
0.00340891
0.00368226
0.00225548
0.00506444
0.00136122
0.00046094
0.000277731
0.00368493
0.00904949
0.000394318
0.00187423
0.00345308
0.00416794
0.00664578
0.00382597
0.0092001
0.0033235
0.00460109
0.00343405
0.00499958
0.0034101
0.00213249
0.00378798
0.00503344
0.00347184
0.0070153
0.000524759
0.00604617
0.000656425
0.00261833
0.00426107
0.00428003
0.00092097
0.00232425
0.000932973
0.00140851
0.00132095
0.000976357
0.00420214
0.00376052
0.00233844
0.00349421
0.00203174
0.00013608
0.00248388
0.000975146
0.0023341
0.00447423
0.000789711
0.00331322
0.000815911
0.00148404
0.00095072
0.00123742
0.000727981
0.00468272
0.00701688
0.00255347
0.0034076
0.000385458
0.000334493
0.00250349
0.00201765
6.05915e-05
0.000669315
3.64547e-06
0.00320449
0.00184773
0.00297275
0.00196451
0.00157299
0.00112568
0.00268743
0.000630645
0.000299282
0.00222712
0.000290515
0.00425648
0.00754572
0.00178189
0.00356029
0.000823377
0.00242006
0.000591113
0.00358072
0.00120623
0.00242353
0.00129757
0.000564219
0.00168244
0.000796233
0.00107197
0.00172724
0.002126
0.00541182
0.00711581
0.0029379
0.00191227
0.00167027
0.00280673
0.00308332
0.00115261
0.00273155
0.00767981
0.00376037
0.008055
0.00143544
0.00389129
0.00092957
0.00740364
0.00561747
0.00567035
0.00329948
0.00292501
0.00474728
0.00819615
0.00597629
0.00169651
0.0052307
0.00207943
0.00326338
0.00105179
3.73282e-05
0.00550116
0.00290284
0.00961488
0.000234114
0.00159665
0.000687808
0.00240305
0.00251301
0.00407385
0.00040635
0.00466324
0.00425559
0.00545922
7.04028e-05
0.0037777
0.000591678
0.00146529
0.00327083
0.00416009
0.000860032
0.00697239
0.004188
0.00370573
0.0016138
0.00203776
0.00218148
0.000627073
0.00263837
0.00425052
0.00123367
0.00292078
0.00708985
0.000618672
0.00139244
0.000697057
0.00700885
0.00493713
0.00494762
0.000142729
0.00187539
0.00412551
0.00479877
0.00205809
0.00567118
0.00115688
0.000604906
0.00393592
0.00152048
0.00179141
0.00280221
0.00141327
0.00284628
0.000712624
0.00431117
0.00186779
0.00485333
0.000954187
0.00234331
0.00127476
0.00108636
0.00161051
0.000898959
0.00540316
0.000415296
0.00100963
0.00029405
0.00123432
0.00209809
0.00326291
0.0033105
0.00237192
0.00513362
0.000828133
0.00195361
0.00456891
0.00160966
0.0031381
0.00373628
0.00201095
0.00199113
0.00599071
0.00438137
0.000922723
0.0054617
0.00209596
0.00327998
0.00462052
0.00261675
0.000659029
0.000153353
0.00328392
0.00379805
0.0039467
0.00136364
0.000547262
0.00101252
0.00231109
0.000366163
0.000769004
0.00110008
0.00600765
0.00256178
0.00306338
0.00162556
0.000944381
0.00290509
0.00122608
0.00153339
0.00481047
0.000681285
1.5076e-05
0.00430202
0.00271025
0.00587651
0.000346823
0.0016921
0.00111541
0.00152521
0.000832464
0.00482709
0.0020894
0.000549575
0.000483315
0.000900293
0.00383938
0.0031563
0.00101436
0.00245934
0.00157417
0.00215164
2.38217e-05
0.00395179
0.00548492
0.00316044
0.000262295
0.00855089
0.000608641
0.00389193
0.00883763
0.00374047
0.00145555
0.0083574
0.00273342
0.000297459
0.00159386
0.00212045
0.00103335
0.00512758
0.000895183
0.00412049
0.00823144
0.005766
0.000154107
0.00456069
0.00108479
0.000712437
0.000204296
6.4311e-05
0.000126158
0.0051777
0.000716685
0.00205901
0.00170513
0.000604864
0.00118249
0.000231736
0.00157904
0.000575929
0.00316965
0.000948343
0.00155077
0.00479225
0.00138058
0.00419688
0.00484475
0.00439424
0.00377792
0.00534419
0.00338381
0.00128734
0.00621897
0.0065875
0.00165472
0.00521288
0.00444951
0.00056764
0.00305169
0.00446268
4.91114e-05
0.00203076
0.00303769
0.00571412
0.00260625
0.00205577
0.00800453
0.00211502
0.00234647
0.00515826
0.000115853
0.00195917
0.00316209
0.00704667
0.00163951
0.00264428
0.000396595
0.00715492
0.000354091
0.00224359
0.00527999
0.00259252
0.00268438
0.00159687
0.00575353
0.00580441
0.00178848
0.00154384
0.00424565
0.0075885
0.00233932
0.000303574
0.00306572
0.00380502
0.00454092
0.00157513
0.00555979
0.00150422
0.00160079
0.00457783
0.000273607
0.000805045
0.0012687
0.00479726
0.00327078
0.00147773
1.74337e-05
0.00281092
0.00415851
0.000728068
0.00402166
0.00385702
0.00116402
0.00344354
0.000893522
0.00334264
0.00539687
0.00257843
0.000538622
0.00205912
3.31771e-05
0.000746224
0.000164358
0.000565721
0.000856885
0.00133934
0.000547699
0.000788005
0.000417364
0.00170427
0.00123836
0.00235052
0.000457148
0.00247794
0.000627226
0.00570928
0.000845206
0.0043872
0.00624099
0.00212712
0.000592798
0.00354329
0.000178616
0.000484577
0.00340279
0.000119383
0.00267787
0.0027786
0.000170734
0.00144665
0.00286929
0.00512132
0.00136471
0.00106081
0.00395133
0.00322067
0.0021807
0.00129186
0.00275198
0.00176442
0.00284445
0.00179421
0.0022737
0.00560728
0.00837997
0.0056767
0.00337895
0.00320145
0.0013388
0.00505721
0.00135412
0.00413563
0.00252916
0.00594236
0.00565749
0.000165446
0.000334745
0.000912291
0.00149171
0.00360292
0.00204151
0.00884309
0.00260854
0.00253815
0.00378616
0.000529138
0.00221303
0.00244424
0.00667529
0.00151447
0.00360275
0.000828159
0.00296554
0.00169093
0.00387599
0.00490207
0.00736156
0.00233864
0.000130348
0.00199937
0.00466614
0.00290606
0.00687014
0.00596583
0.00995596
0.00610283
0.00776801
0.00319026
0.00413939
0.00601334
0.00541409
0.00291212
0.000942599
0.00220539
0.00472677
0.00248273
0.00212866
0.000316704
0.000309321
0.000476255
0.00191849
0.000339946
0.00286108
0.00375981
0.00631121
0.00331882
0.00307367
0.00259476
0.00138476
0.000732171
0.00124418
0.00425473
0.00337419
0.00156244
0.00242373
0.00495942
0.00134453
0.00244561
0.00142627
0.00186666
0.00144123
0.00499171
0.000396685
0.00316585
0.00752887
0.0073948
0.000162756
0.00646573
0.000126433
0.00597112
0.00259866
0.000290454
0.0041831
0.00346107
0.00187617
0.00394114
0.0034415
0.0011475
0.00167342
0.00567739
0.000638018
0.0030571
0.00462658
0.00174161
0.000304108
0.000160836
0.00210149
0.0031531
0.000611562
0.00182729
0.000499803
0.00289891
0.00547848
0.000457656
0.00631917
0.00360482
9.03229e-05
0.000175238
0.00438504
0.00263146
0.0016138
0.00282201
0.00468816
0.00331233
0.000633329
0.000140697
0.00151084
0.00217654
0.00313137
0.00216499
5.07211e-05
0.00361814
0.00444552
0.000924245
0.00266211
0.00202721
0.00128514
0.00200828
0.000243599
0.000139795
0.00716002
0.00227213
0.00136258
0.00375257
0.00421745
0.00114351
0.00471669
0.00688813
0.00287541
0.00157725
0.00135081
0.00545859
0.00397517
0.000349232
0.0041925
0.00228865
0.00155159
0.00307215
0.00326866
0.00210464
0.0045542
0.0060012
0.00027833
0.0100727
0.0109424
0.00498696
0.00642005
0.000144752
0.00119374
0.00411524
0.00383285
0.00195236
0.00204269
0.000798717
0.00234192
0.00583062
0.00123664
0.00386297
0.0022096
0.0020011
0.00575773
0.000961096
0.00498348
0.00713414
0.000868603
0.00360272
0.000329635
0.00236805
0.000378535
0.00010543
0.000543483
0.00146447
0.000390828
0.000551462
0.00492399
0.000930234
0.00359569
0.000620851
0.00101816
0.00103236
0.00468736
4.25094e-05
0.00253022
0.00403577
0.00862904
0.004385
0.00367162
0.00142309
0.00114528
0.000138495
0.00271874
4.97911e-05
0.00575895
0.00374804
0.0049053
0.000557984
0.00106903
0.00358172
0.00297246
0.00235869
0.00232859
0.000757589
0.000695929
0.00501687
0.0056669
0.00217864
0.00324819
0.00204205
0.00084863
0.0028075
0.00186029
0.000544694
0.00205358
0.00067993
0.000536556
0.00160203
0.000627331
0.00141237
0.000918155
0.0007298
0.00190878
0.00224082
0.000201465
0.00210161
0.00551584
0.0020885
0.00829074
0.000701408
0.000581242
0.00272274
0.00594748
0.00543783
0.00116986
0.00129361
0.00301
0.00483559
0.00241851
0.00287518
0.00321122
0.000658258
0.00114341
0.00440647
0.00513034
0.00308139
0.00354709
0.00135167
4.04309e-05
0.00126638
0.00188799
0.00111434
0.00125282
0.00479381
0.00183294
0.00100884
0.00428524
0.000412114
0.000433837
0.00203892
0.00393754
0.00555294
0.00166918
0.00137223
0.00642653
4.70985e-06
0.0003778
0.000191598
0.00413349
0.00485128
0.00455527
0.00497174
0.00252643
0.00146957
0.00148242
0.00154596
0.00220056
6.29524e-05
0.00255891
0.00237444
0.00519011
0.00219657
0.00177445
0.000230983
0.00381775
0.00113684
0.00105169
0.000836657
0.000887147
0.00120065
0.00064534
0.000976158
0.000411817
0.00106973
0.00153444
0.00300682
0.00215454
0.00207094
0.000710346
0.00188339
0.00361743
0.00124051
0.00332247
0.00125994
0.00221618
0.0040692
0.00613763
0.00386302
0.00619914
0.000404602
0.000677819
0.00012522
0.0025276
0.00132266
0.00120946
0.000196978
0.00240512
0.000343705
0.00190867
0.00125284
0.0016331
0.00153782
0.0028414
0.0019383
0.00219737
0.0066277
0.00579106
0.000685786
0.0013375
0.00214484
0.00751518
0.000275363
0.00226352
0.00152471
0.00184433
0.00509664
0.00433804
0.000974247
0.00211635
0.00198351
0.0017681
0.0017366
0.000805081
0.00287358
0.00376351
0.00741028
0.00701326
0.00171432
0.000330813
0.00220067
0.00875021
0.00137507
0.00392527
0.00232072
0.00338773
0.000774626
0.00319055
0.000579053
0.00347482
0.00118143
0.000716504
0.00215458
0.0030485
0.000126405
0.00303245
0.00932444
0.00757237
0.00179298
0.0025168
0.00202379
0.00498537
0.00109719
0.00226277
0.00134789
0.00284485
7.26941e-05
0.00492157
0.00428019
0.00115708
0.0012624
0.000115039
0.000224182
0.000589428
0.00185918
0.000456409
0.00112902
0.000956257
0.004441
0.000807153
0.00553437
0.00262714
0.00213526
0.000210692
0.00252074
0.00421858
0.00192162
0.00209933
0.00194699
0.000308571
0.00368826
0.00109646
0.000686521
0.0032345
0.000434931
0.00226515
0.00701388
0.00451818
0.00346636
0.00140871
0.00487755
0.000304099
0.000646812
0.00449052
0.00116526
0.000907991
0.00306804
0.000440435
0.00140447
0.000678573
0.00155067
0.00281477
0.000464091
0.00200121
9.65762e-05
0.00353537
0.00148309
0.00367792
0.00178984
0.0006193
0.00118414
0.000667458
0.00106805
0.00052032
0.000800025
0.00191415
0.00211604
0.00521057
0.00580338
0.000813956
0.00814112
0.00404849
0.00146653
0.00384964
2.10102e-05
0.00132632
0.000585338
0.00162398
0.00154011
0.00042142
0.000774624
0.00223203
0.00550839
0.00360453
0.00333208
0.00137864
0.000282321
0.000901081
0.00204903
0.00199529
0.00142719
0.000698431
0.000897091
0.00266311
0.00211686
0.0022432
0.0057401
0.00402816
0.0017705
0.00103745
0.00446395
0.00128014
0.00285015
0.00123529
0.00291728
0.000906786
0.00346834
0.00203095
0.00357395
0.000469015
0.0020341
0.00394553
0.00241539
0.00432513
3.59248e-05
0.00474
0.00460621
0.000443341
0.000555051
0.000300442
0.00212445
2.01361e-05
0.00103783
0.000475389
0.00578893
0.00195793
0.00106438
0.00251549
0.00019068
0.00121911
0.000991293
0.00326341
0.000543706
0.000134115
4.55925e-05
0.000484537
0.00428788
0.00495482
0.00235506
0.00577321
0.00365581
0.00268648
0.000556166
0.00173324
0.00196262
0.000846191
0.000656428