/*--------------------------------*- C++ -*----------------------------------*\
| =========                 |                                                 |
| \\      /  F ield         | OpenFOAM: The Open Source CFD Toolbox           |
|  \\    /   O peration     | Version:  2212                                  |
|   \\  /    A nd           | Website:  www.openfoam.com                      |
|    \\/     M anipulation  |                                                 |
\*---------------------------------------------------------------------------*/
FoamFile
{
    version     2.0;
    format      ascii;
    arch        "LSB;label=32;scalar=64";
    class       volScalarField;
    location    "./ITHACAoutput/true/18.2";
    object      trueState;
}
// * * * * * * * * * * * * * * * * * * * * * * * * * * * * * * * * * * * * * //

dimensions      [0 0 0 1 0 0 0];

internalField   nonuniform List<scalar> 
3200
(
320.399
320.602
320.861
321.143
321.433
321.719
321.982
322.204
322.366
322.451
322.451
322.366
322.204
321.982
321.719
321.433
321.143
320.861
320.602
320.399
317.82
317.991
318.215
318.459
318.71
318.957
319.184
319.376
319.516
319.59
319.59
319.516
319.376
319.184
318.957
318.71
318.459
318.215
317.991
317.82
315.181
315.324
315.512
315.718
315.93
316.139
316.331
316.493
316.611
316.673
316.673
316.611
316.493
316.331
316.139
315.93
315.718
315.512
315.324
315.181
312.493
312.607
312.761
312.929
313.103
313.273
313.43
313.562
313.658
313.709
313.709
313.658
313.562
313.43
313.273
313.103
312.929
312.761
312.607
312.493
309.762
309.85
309.969
310.1
310.235
310.368
310.489
310.592
310.667
310.706
310.706
310.667
310.592
310.489
310.368
310.235
310.1
309.969
309.85
309.762
307
307.062
307.147
307.24
307.337
307.431
307.518
307.592
307.645
307.673
307.673
307.645
307.592
307.518
307.431
307.337
307.24
307.147
307.062
307
304.214
304.251
304.302
304.358
304.416
304.473
304.525
304.569
304.601
304.618
304.618
304.601
304.569
304.525
304.473
304.416
304.358
304.302
304.251
304.214
301.414
301.427
301.444
301.462
301.482
301.501
301.518
301.533
301.544
301.549
301.549
301.544
301.533
301.518
301.501
301.482
301.462
301.444
301.427
301.414
320.475
320.676
320.933
321.212
321.5
321.782
322.042
322.261
322.421
322.506
322.506
322.421
322.261
322.042
321.782
321.5
321.212
320.933
320.676
320.475
317.886
318.057
318.278
318.52
318.768
319.012
319.237
319.427
319.565
319.638
319.638
319.565
319.427
319.237
319.012
318.768
318.52
318.278
318.057
317.886
315.238
315.379
315.566
315.77
315.98
316.186
316.376
316.536
316.653
316.714
316.714
316.653
316.536
316.376
316.186
315.98
315.77
315.566
315.379
315.238
312.539
312.653
312.805
312.972
313.144
313.312
313.467
313.598
313.693
313.743
313.743
313.693
313.598
313.467
313.312
313.144
312.972
312.805
312.653
312.539
309.799
309.886
310.004
310.134
310.267
310.398
310.519
310.62
310.694
310.733
310.733
310.694
310.62
310.519
310.398
310.267
310.134
310.004
309.886
309.799
307.026
307.088
307.172
307.264
307.36
307.453
307.539
307.612
307.664
307.692
307.692
307.664
307.612
307.539
307.453
307.36
307.264
307.172
307.088
307.026
304.23
304.267
304.317
304.373
304.43
304.486
304.538
304.581
304.613
304.629
304.629
304.613
304.581
304.538
304.486
304.43
304.373
304.317
304.267
304.23
301.419
301.432
301.449
301.467
301.486
301.505
301.523
301.537
301.548
301.553
301.553
301.548
301.537
301.523
301.505
301.486
301.467
301.449
301.432
301.419
320.628
320.825
321.078
321.352
321.634
321.91
322.164
322.378
322.533
322.616
322.616
322.533
322.378
322.164
321.91
321.634
321.352
321.078
320.825
320.628
318.019
318.187
318.404
318.642
318.886
319.124
319.344
319.529
319.663
319.734
319.734
319.663
319.529
319.344
319.124
318.886
318.642
318.404
318.187
318.019
315.351
315.49
315.674
315.874
316.08
316.282
316.467
316.624
316.737
316.797
316.797
316.737
316.624
316.467
316.282
316.08
315.874
315.674
315.49
315.351
312.633
312.744
312.894
313.058
313.226
313.391
313.543
313.67
313.763
313.812
313.812
313.763
313.67
313.543
313.391
313.226
313.058
312.894
312.744
312.633
309.872
309.958
310.074
310.201
310.332
310.46
310.578
310.677
310.749
310.787
310.787
310.749
310.677
310.578
310.46
310.332
310.201
310.074
309.958
309.872
307.078
307.139
307.222
307.313
307.406
307.498
307.582
307.652
307.704
307.731
307.731
307.704
307.652
307.582
307.498
307.406
307.313
307.222
307.139
307.078
304.261
304.297
304.347
304.402
304.458
304.513
304.563
304.606
304.636
304.653
304.653
304.636
304.606
304.563
304.513
304.458
304.402
304.347
304.297
304.261
301.43
301.442
301.459
301.477
301.496
301.514
301.531
301.545
301.556
301.561
301.561
301.556
301.545
301.531
301.514
301.496
301.477
301.459
301.442
301.43
320.856
321.05
321.296
321.562
321.836
322.103
322.348
322.555
322.704
322.783
322.783
322.704
322.555
322.348
322.103
321.836
321.562
321.296
321.05
320.856
318.219
318.383
318.595
318.826
319.063
319.294
319.506
319.684
319.814
319.882
319.882
319.814
319.684
319.506
319.294
319.063
318.826
318.595
318.383
318.219
315.522
315.658
315.836
316.031
316.231
316.427
316.606
316.756
316.866
316.923
316.923
316.866
316.756
316.606
316.427
316.231
316.031
315.836
315.658
315.522
312.773
312.882
313.028
313.187
313.351
313.51
313.657
313.78
313.869
313.916
313.916
313.869
313.78
313.657
313.51
313.351
313.187
313.028
312.882
312.773
309.981
310.065
310.178
310.302
310.429
310.553
310.667
310.763
310.832
310.868
310.868
310.832
310.763
310.667
310.553
310.429
310.302
310.178
310.065
309.981
307.157
307.216
307.297
307.385
307.476
307.565
307.646
307.714
307.763
307.79
307.79
307.763
307.714
307.646
307.565
307.476
307.385
307.297
307.216
307.157
304.309
304.344
304.392
304.445
304.5
304.553
304.602
304.643
304.672
304.688
304.688
304.672
304.643
304.602
304.553
304.5
304.445
304.392
304.344
304.309
301.446
301.458
301.474
301.492
301.51
301.528
301.544
301.558
301.568
301.573
301.573
301.568
301.558
301.544
301.528
301.51
301.492
301.474
301.458
301.446
321.162
321.35
321.588
321.845
322.108
322.364
322.598
322.795
322.937
323.013
323.013
322.937
322.795
322.598
322.364
322.108
321.845
321.588
321.35
321.162
318.487
318.645
318.851
319.073
319.301
319.522
319.725
319.895
320.018
320.083
320.083
320.018
319.895
319.725
319.522
319.301
319.073
318.851
318.645
318.487
315.75
315.881
316.054
316.242
316.435
316.622
316.793
316.937
317.041
317.096
317.096
317.041
316.937
316.793
316.622
316.435
316.242
316.054
315.881
315.75
312.96
313.066
313.207
313.361
313.518
313.671
313.811
313.929
314.014
314.058
314.058
314.014
313.929
313.811
313.671
313.518
313.361
313.207
313.066
312.96
310.128
310.209
310.319
310.438
310.56
310.679
310.788
310.879
310.945
310.98
310.98
310.945
310.879
310.788
310.679
310.56
310.438
310.319
310.209
310.128
307.262
307.32
307.398
307.483
307.57
307.655
307.733
307.798
307.845
307.87
307.87
307.845
307.798
307.733
307.655
307.57
307.483
307.398
307.32
307.262
304.372
304.406
304.453
304.504
304.557
304.608
304.654
304.693
304.722
304.736
304.736
304.722
304.693
304.654
304.608
304.557
304.504
304.453
304.406
304.372
301.467
301.479
301.494
301.511
301.529
301.546
301.562
301.575
301.584
301.589
301.589
301.584
301.575
301.562
301.546
301.529
301.511
301.494
301.479
301.467
321.546
321.727
321.955
322.201
322.452
322.695
322.916
323.102
323.236
323.307
323.307
323.236
323.102
322.916
322.695
322.452
322.201
321.955
321.727
321.546
318.822
318.975
319.172
319.385
319.602
319.812
320.004
320.165
320.281
320.342
320.342
320.281
320.165
320.004
319.812
319.602
319.385
319.172
318.975
318.822
316.036
316.162
316.328
316.508
316.692
316.869
317.032
317.167
317.265
317.317
317.317
317.265
317.167
317.032
316.869
316.692
316.508
316.328
316.162
316.036
313.196
313.298
313.433
313.58
313.73
313.875
314.008
314.119
314.199
314.241
314.241
314.199
314.119
314.008
313.875
313.73
313.58
313.433
313.298
313.196
310.312
310.39
310.495
310.61
310.726
310.839
310.942
311.028
311.09
311.123
311.123
311.09
311.028
310.942
310.839
310.726
310.61
310.495
310.39
310.312
307.394
307.449
307.524
307.606
307.689
307.77
307.843
307.905
307.949
307.972
307.972
307.949
307.905
307.843
307.77
307.689
307.606
307.524
307.449
307.394
304.451
304.484
304.529
304.578
304.628
304.677
304.721
304.758
304.784
304.798
304.798
304.784
304.758
304.721
304.677
304.628
304.578
304.529
304.484
304.451
301.494
301.505
301.52
301.536
301.553
301.569
301.584
301.596
301.605
301.61
301.61
301.605
301.596
301.584
301.569
301.553
301.536
301.52
301.505
301.494
322.009
322.182
322.399
322.633
322.869
323.098
323.306
323.48
323.605
323.67
323.67
323.605
323.48
323.306
323.098
322.869
322.633
322.399
322.182
322.009
319.227
319.373
319.56
319.763
319.968
320.166
320.346
320.496
320.604
320.66
320.66
320.604
320.496
320.346
320.166
319.968
319.763
319.56
319.373
319.227
316.381
316.502
316.66
316.83
317.004
317.171
317.323
317.45
317.541
317.589
317.589
317.541
317.45
317.323
317.171
317.004
316.83
316.66
316.502
316.381
313.48
313.577
313.706
313.846
313.987
314.124
314.249
314.352
314.427
314.466
314.466
314.427
314.352
314.249
314.124
313.987
313.846
313.706
313.577
313.48
310.534
310.609
310.709
310.817
310.927
311.034
311.131
311.211
311.269
311.299
311.299
311.269
311.211
311.131
311.034
310.927
310.817
310.709
310.609
310.534
307.553
307.606
307.677
307.755
307.834
307.91
307.979
308.036
308.077
308.099
308.099
308.077
308.036
307.979
307.91
307.834
307.755
307.677
307.606
307.553
304.547
304.579
304.621
304.668
304.715
304.761
304.802
304.837
304.862
304.875
304.875
304.862
304.837
304.802
304.761
304.715
304.668
304.621
304.579
304.547
301.526
301.537
301.551
301.566
301.582
301.598
301.611
301.623
301.631
301.636
301.636
301.631
301.623
301.611
301.598
301.582
301.566
301.551
301.537
301.526
322.552
322.716
322.922
323.142
323.364
323.577
323.771
323.931
324.047
324.107
324.107
324.047
323.931
323.771
323.577
323.364
323.142
322.922
322.716
322.552
319.701
319.84
320.017
320.208
320.4
320.585
320.753
320.892
320.991
321.044
321.044
320.991
320.892
320.753
320.585
320.4
320.208
320.017
319.84
319.701
316.785
316.9
317.049
317.21
317.373
317.529
317.671
317.788
317.873
317.917
317.917
317.873
317.788
317.671
317.529
317.373
317.21
317.049
316.9
316.785
313.812
313.905
314.027
314.159
314.292
314.419
314.535
314.631
314.7
314.736
314.736
314.7
314.631
314.535
314.419
314.292
314.159
314.027
313.905
313.812
310.794
310.865
310.96
311.062
311.165
311.265
311.355
311.429
311.483
311.511
311.511
311.483
311.429
311.355
311.265
311.165
311.062
310.96
310.865
310.794
307.74
307.79
307.857
307.93
308.004
308.075
308.14
308.193
308.231
308.251
308.251
308.231
308.193
308.14
308.075
308.004
307.93
307.857
307.79
307.74
304.659
304.689
304.73
304.774
304.818
304.861
304.899
304.931
304.954
304.966
304.966
304.954
304.931
304.899
304.861
304.818
304.774
304.73
304.689
304.659
301.564
301.574
301.587
301.602
301.617
301.631
301.644
301.655
301.662
301.666
301.666
301.662
301.655
301.644
301.631
301.617
301.602
301.587
301.574
301.564
323.175
323.33
323.524
323.73
323.937
324.135
324.313
324.461
324.567
324.622
324.622
324.567
324.461
324.313
324.135
323.937
323.73
323.524
323.33
323.175
320.246
320.377
320.544
320.722
320.901
321.073
321.228
321.355
321.447
321.495
321.495
321.447
321.355
321.228
321.073
320.901
320.722
320.544
320.377
320.246
317.249
317.357
317.498
317.649
317.801
317.946
318.076
318.184
318.262
318.302
318.302
318.262
318.184
318.076
317.946
317.801
317.649
317.498
317.357
317.249
314.194
314.282
314.397
314.52
314.644
314.763
314.869
314.958
315.021
315.054
315.054
315.021
314.958
314.869
314.763
314.644
314.52
314.397
314.282
314.194
311.093
311.16
311.249
311.345
311.441
311.533
311.616
311.685
311.734
311.76
311.76
311.734
311.685
311.616
311.533
311.441
311.345
311.249
311.16
311.093
307.954
308.001
308.065
308.133
308.202
308.268
308.327
308.376
308.411
308.43
308.43
308.411
308.376
308.327
308.268
308.202
308.133
308.065
308.001
307.954
304.788
304.817
304.855
304.896
304.937
304.977
305.012
305.042
305.063
305.074
305.074
305.063
305.042
305.012
304.977
304.937
304.896
304.855
304.817
304.788
301.607
301.616
301.629
301.643
301.657
301.67
301.682
301.692
301.699
301.703
301.703
301.699
301.692
301.682
301.67
301.657
301.643
301.629
301.616
301.607
323.88
324.025
324.207
324.398
324.59
324.773
324.936
325.071
325.168
325.218
325.218
325.168
325.071
324.936
324.773
324.59
324.398
324.207
324.025
323.88
320.862
320.985
321.141
321.307
321.473
321.631
321.773
321.89
321.973
322.017
322.017
321.973
321.89
321.773
321.631
321.473
321.307
321.141
320.985
320.862
317.774
317.876
318.008
318.148
318.288
318.422
318.542
318.641
318.711
318.748
318.748
318.711
318.641
318.542
318.422
318.288
318.148
318.008
317.876
317.774
314.626
314.709
314.816
314.931
315.046
315.155
315.253
315.334
315.392
315.422
315.422
315.392
315.334
315.253
315.155
315.046
314.931
314.816
314.709
314.626
311.43
311.493
311.577
311.666
311.755
311.84
311.917
311.979
312.024
312.048
312.048
312.024
311.979
311.917
311.84
311.755
311.666
311.577
311.493
311.43
308.196
308.241
308.3
308.364
308.428
308.488
308.543
308.588
308.62
308.636
308.636
308.62
308.588
308.543
308.488
308.428
308.364
308.3
308.241
308.196
304.934
304.961
304.996
305.035
305.073
305.11
305.142
305.169
305.188
305.198
305.198
305.188
305.169
305.142
305.11
305.073
305.035
304.996
304.961
304.934
301.656
301.665
301.677
301.689
301.702
301.715
301.726
301.735
301.741
301.744
301.744
301.741
301.735
301.726
301.715
301.702
301.689
301.677
301.665
301.656
324.667
324.803
324.972
325.15
325.326
325.494
325.643
325.765
325.853
325.898
325.898
325.853
325.765
325.643
325.494
325.326
325.15
324.972
324.803
324.667
321.55
321.665
321.81
321.964
322.117
322.262
322.391
322.498
322.573
322.612
322.612
322.573
322.498
322.391
322.262
322.117
321.964
321.81
321.665
321.55
318.36
318.456
318.578
318.708
318.838
318.96
319.07
319.159
319.223
319.257
319.257
319.223
319.159
319.07
318.96
318.838
318.708
318.578
318.456
318.36
315.109
315.186
315.286
315.392
315.498
315.598
315.688
315.761
315.814
315.841
315.841
315.814
315.761
315.688
315.598
315.498
315.392
315.286
315.186
315.109
311.807
311.866
311.944
312.027
312.109
312.187
312.257
312.314
312.354
312.376
312.376
312.354
312.314
312.257
312.187
312.109
312.027
311.944
311.866
311.807
308.466
308.508
308.563
308.623
308.681
308.737
308.787
308.828
308.857
308.872
308.872
308.857
308.828
308.787
308.737
308.681
308.623
308.563
308.508
308.466
305.097
305.122
305.155
305.191
305.226
305.259
305.289
305.314
305.331
305.34
305.34
305.331
305.314
305.289
305.259
305.226
305.191
305.155
305.122
305.097
301.71
301.719
301.73
301.742
301.754
301.765
301.775
301.783
301.789
301.792
301.792
301.789
301.783
301.775
301.765
301.754
301.742
301.73
301.719
301.71
325.538
325.665
325.821
325.985
326.147
326.299
326.435
326.545
326.624
326.665
326.665
326.624
326.545
326.435
326.299
326.147
325.985
325.821
325.665
325.538
322.31
322.418
322.552
322.694
322.835
322.967
323.084
323.18
323.248
323.284
323.284
323.248
323.18
323.084
322.967
322.835
322.694
322.552
322.418
322.31
319.008
319.097
319.211
319.331
319.45
319.561
319.661
319.742
319.799
319.829
319.829
319.799
319.742
319.661
319.561
319.45
319.331
319.211
319.097
319.008
315.643
315.714
315.807
315.905
316.002
316.094
316.175
316.241
316.288
316.313
316.313
316.288
316.241
316.175
316.094
316.002
315.905
315.807
315.714
315.643
312.224
312.279
312.351
312.428
312.503
312.574
312.638
312.689
312.726
312.745
312.745
312.726
312.689
312.638
312.574
312.503
312.428
312.351
312.279
312.224
308.765
308.804
308.856
308.91
308.964
309.015
309.06
309.097
309.123
309.137
309.137
309.123
309.097
309.06
309.015
308.964
308.91
308.856
308.804
308.765
305.277
305.3
305.331
305.364
305.396
305.427
305.454
305.476
305.492
305.5
305.5
305.492
305.476
305.454
305.427
305.396
305.364
305.331
305.3
305.277
301.771
301.779
301.789
301.8
301.811
301.821
301.83
301.838
301.843
301.846
301.846
301.843
301.838
301.83
301.821
301.811
301.8
301.789
301.779
301.771
326.492
326.61
326.754
326.904
327.052
327.191
327.313
327.413
327.484
327.52
327.52
327.484
327.413
327.313
327.191
327.052
326.904
326.754
326.61
326.492
323.144
323.243
323.368
323.498
323.626
323.747
323.853
323.939
324
324.032
324.032
324
323.939
323.853
323.747
323.626
323.498
323.368
323.243
323.144
319.719
319.801
319.906
320.016
320.125
320.226
320.316
320.389
320.441
320.468
320.468
320.441
320.389
320.316
320.226
320.125
320.016
319.906
319.801
319.719
316.227
316.293
316.379
316.469
316.558
316.641
316.715
316.775
316.817
316.839
316.839
316.817
316.775
316.715
316.641
316.558
316.469
316.379
316.293
316.227
312.681
312.732
312.799
312.869
312.938
313.003
313.06
313.106
313.139
313.156
313.156
313.139
313.106
313.06
313.003
312.938
312.869
312.799
312.732
312.681
309.093
309.129
309.176
309.226
309.276
309.322
309.363
309.396
309.42
309.432
309.432
309.42
309.396
309.363
309.322
309.276
309.226
309.176
309.129
309.093
305.474
305.496
305.524
305.554
305.584
305.612
305.636
305.656
305.67
305.678
305.678
305.67
305.656
305.636
305.612
305.584
305.554
305.524
305.496
305.474
301.837
301.844
301.854
301.864
301.874
301.883
301.891
301.898
301.903
301.905
301.905
301.903
301.898
301.891
301.883
301.874
301.864
301.854
301.844
301.837
327.529
327.638
327.771
327.909
328.043
328.169
328.279
328.369
328.432
328.465
328.465
328.432
328.369
328.279
328.169
328.043
327.909
327.771
327.638
327.529
324.05
324.142
324.257
324.376
324.493
324.602
324.697
324.775
324.83
324.858
324.858
324.83
324.775
324.697
324.602
324.493
324.376
324.257
324.142
324.05
320.49
320.567
320.663
320.764
320.863
320.955
321.036
321.102
321.148
321.172
321.172
321.148
321.102
321.036
320.955
320.863
320.764
320.663
320.567
320.49
316.862
316.924
317.002
317.085
317.166
317.241
317.308
317.361
317.399
317.419
317.419
317.399
317.361
317.308
317.241
317.166
317.085
317.002
316.924
316.862
313.178
313.225
313.286
313.35
313.413
313.472
313.523
313.565
313.595
313.61
313.61
313.595
313.565
313.523
313.472
313.413
313.35
313.286
313.225
313.178
309.449
309.482
309.526
309.572
309.617
309.659
309.695
309.725
309.746
309.757
309.757
309.746
309.725
309.695
309.659
309.617
309.572
309.526
309.482
309.449
305.688
305.708
305.734
305.762
305.789
305.814
305.836
305.854
305.867
305.874
305.874
305.867
305.854
305.836
305.814
305.789
305.762
305.734
305.708
305.688
301.909
301.916
301.924
301.934
301.943
301.951
301.959
301.965
301.969
301.971
301.971
301.969
301.965
301.959
301.951
301.943
301.934
301.924
301.916
301.909
328.648
328.748
328.87
328.996
329.118
329.231
329.331
329.411
329.467
329.497
329.497
329.467
329.411
329.331
329.231
329.118
328.996
328.87
328.748
328.648
325.027
325.111
325.217
325.326
325.432
325.53
325.616
325.686
325.735
325.76
325.76
325.735
325.686
325.616
325.53
325.432
325.326
325.217
325.111
325.027
321.322
321.392
321.481
321.573
321.663
321.746
321.819
321.878
321.92
321.941
321.941
321.92
321.878
321.819
321.746
321.663
321.573
321.481
321.392
321.322
317.546
317.603
317.675
317.751
317.824
317.892
317.952
318
318.034
318.052
318.052
318.034
318
317.952
317.892
317.824
317.751
317.675
317.603
317.546
313.712
313.755
313.812
313.87
313.927
313.981
314.027
314.065
314.091
314.104
314.104
314.091
314.065
314.027
313.981
313.927
313.87
313.812
313.755
313.712
309.832
309.863
309.903
309.945
309.986
310.023
310.057
310.083
310.102
310.112
310.112
310.102
310.083
310.057
310.023
309.986
309.945
309.903
309.863
309.832
305.919
305.937
305.961
305.987
306.011
306.034
306.054
306.07
306.081
306.087
306.087
306.081
306.07
306.054
306.034
306.011
305.987
305.961
305.937
305.919
301.986
301.992
302.001
302.009
302.017
302.025
302.032
302.037
302.041
302.043
302.043
302.041
302.037
302.032
302.025
302.017
302.009
302.001
301.992
301.986
329.841
329.934
330.045
330.16
330.271
330.374
330.463
330.535
330.585
330.611
330.611
330.585
330.535
330.463
330.374
330.271
330.16
330.045
329.934
329.841
326.068
326.146
326.243
326.342
326.438
326.527
326.604
326.667
326.71
326.733
326.733
326.71
326.667
326.604
326.527
326.438
326.342
326.243
326.146
326.068
322.208
322.273
322.354
322.438
322.52
322.595
322.661
322.713
322.75
322.769
322.769
322.75
322.713
322.661
322.595
322.52
322.438
322.354
322.273
322.208
318.275
318.327
318.393
318.462
318.529
318.59
318.644
318.687
318.717
318.733
318.733
318.717
318.687
318.644
318.59
318.529
318.462
318.393
318.327
318.275
314.281
314.321
314.372
314.426
314.478
314.526
314.567
314.601
314.625
314.637
314.637
314.625
314.601
314.567
314.526
314.478
314.426
314.372
314.321
314.281
310.24
310.268
310.305
310.343
310.38
310.414
310.444
310.468
310.485
310.494
310.494
310.485
310.468
310.444
310.414
310.38
310.343
310.305
310.268
310.24
306.164
306.181
306.203
306.226
306.249
306.269
306.287
306.301
306.312
306.317
306.317
306.312
306.301
306.287
306.269
306.249
306.226
306.203
306.181
306.164
302.069
302.074
302.082
302.089
302.097
302.104
302.11
302.115
302.118
302.12
302.12
302.118
302.115
302.11
302.104
302.097
302.089
302.082
302.074
302.069
331.096
331.181
331.283
331.388
331.489
331.581
331.661
331.725
331.77
331.793
331.793
331.77
331.725
331.661
331.581
331.489
331.388
331.283
331.181
331.096
327.161
327.232
327.321
327.411
327.499
327.579
327.648
327.704
327.743
327.763
327.763
327.743
327.704
327.648
327.579
327.499
327.411
327.321
327.232
327.161
323.137
323.196
323.27
323.347
323.421
323.489
323.548
323.595
323.628
323.645
323.645
323.628
323.595
323.548
323.489
323.421
323.347
323.27
323.196
323.137
319.037
319.085
319.145
319.208
319.269
319.324
319.372
319.411
319.438
319.452
319.452
319.438
319.411
319.372
319.324
319.269
319.208
319.145
319.085
319.037
314.875
314.912
314.959
315.008
315.055
315.098
315.136
315.166
315.187
315.198
315.198
315.187
315.166
315.136
315.098
315.055
315.008
314.959
314.912
314.875
310.665
310.691
310.725
310.759
310.793
310.824
310.851
310.872
310.887
310.895
310.895
310.887
310.872
310.851
310.824
310.793
310.759
310.725
310.691
310.665
306.42
306.436
306.456
306.477
306.497
306.516
306.532
306.545
306.554
306.558
306.558
306.554
306.545
306.532
306.516
306.497
306.477
306.456
306.436
306.42
302.154
302.16
302.166
302.173
302.18
302.186
302.192
302.196
302.199
302.201
302.201
302.199
302.196
302.192
302.186
302.18
302.173
302.166
302.16
302.154
332.377
332.455
332.549
332.644
332.735
332.819
332.891
332.949
332.989
333.01
333.01
332.989
332.949
332.891
332.819
332.735
332.644
332.549
332.455
332.377
328.27
328.336
328.417
328.5
328.579
328.652
328.715
328.765
328.8
328.817
328.817
328.8
328.765
328.715
328.652
328.579
328.5
328.417
328.336
328.27
324.075
324.13
324.198
324.268
324.335
324.397
324.45
324.492
324.522
324.537
324.537
324.522
324.492
324.45
324.397
324.335
324.268
324.198
324.13
324.075
319.804
319.848
319.904
319.961
320.017
320.067
320.11
320.145
320.169
320.182
320.182
320.169
320.145
320.11
320.067
320.017
319.961
319.904
319.848
319.804
315.472
315.506
315.549
315.594
315.636
315.676
315.709
315.737
315.755
315.765
315.765
315.755
315.737
315.709
315.676
315.636
315.594
315.549
315.506
315.472
311.091
311.115
311.146
311.178
311.208
311.237
311.261
311.28
311.294
311.301
311.301
311.294
311.28
311.261
311.237
311.208
311.178
311.146
311.115
311.091
306.676
306.69
306.709
306.728
306.746
306.763
306.778
306.789
306.798
306.802
306.802
306.798
306.789
306.778
306.763
306.746
306.728
306.709
306.69
306.676
302.24
302.245
302.251
302.258
302.264
302.269
302.274
302.278
302.281
302.282
302.282
302.281
302.278
302.274
302.269
302.264
302.258
302.251
302.245
302.24
333.597
333.669
333.756
333.843
333.927
334.003
334.068
334.121
334.157
334.176
334.176
334.157
334.121
334.068
334.003
333.927
333.843
333.756
333.669
333.597
329.315
329.376
329.451
329.527
329.6
329.666
329.723
329.768
329.8
329.816
329.816
329.8
329.768
329.723
329.666
329.6
329.527
329.451
329.376
329.315
324.949
325
325.063
325.127
325.189
325.245
325.294
325.332
325.359
325.373
325.373
325.359
325.332
325.294
325.245
325.189
325.127
325.063
325
324.949
320.513
320.554
320.605
320.658
320.708
320.755
320.794
320.826
320.848
320.859
320.859
320.848
320.826
320.794
320.755
320.708
320.658
320.605
320.554
320.513
316.019
316.05
316.09
316.131
316.17
316.206
316.237
316.262
316.279
316.288
316.288
316.279
316.262
316.237
316.206
316.17
316.131
316.09
316.05
316.019
311.48
311.502
311.53
311.56
311.588
311.614
311.636
311.653
311.666
311.672
311.672
311.666
311.653
311.636
311.614
311.588
311.56
311.53
311.502
311.48
306.908
306.922
306.939
306.956
306.973
306.989
307.002
307.013
307.02
307.024
307.024
307.02
307.013
307.002
306.989
306.973
306.956
306.939
306.922
306.908
302.318
302.322
302.328
302.334
302.34
302.345
302.349
302.353
302.355
302.357
302.357
302.355
302.353
302.349
302.345
302.34
302.334
302.328
302.322
302.318
334.541
334.608
334.69
334.772
334.85
334.921
334.982
335.03
335.064
335.081
335.081
335.064
335.03
334.982
334.921
334.85
334.772
334.69
334.608
334.541
330.092
330.15
330.221
330.292
330.36
330.422
330.475
330.518
330.547
330.562
330.562
330.547
330.518
330.475
330.422
330.36
330.292
330.221
330.15
330.092
325.58
325.628
325.688
325.749
325.807
325.859
325.905
325.94
325.965
325.978
325.978
325.965
325.94
325.905
325.859
325.807
325.749
325.688
325.628
325.58
321.012
321.051
321.099
321.149
321.197
321.24
321.277
321.307
321.328
321.338
321.338
321.328
321.307
321.277
321.24
321.197
321.149
321.099
321.051
321.012
316.397
316.427
316.465
316.503
316.541
316.574
316.603
316.627
316.643
316.651
316.651
316.643
316.627
316.603
316.574
316.541
316.503
316.465
316.427
316.397
311.745
311.766
311.793
311.821
311.847
311.872
311.892
311.909
311.92
311.926
311.926
311.92
311.909
311.892
311.872
311.847
311.821
311.793
311.766
311.745
307.066
307.078
307.094
307.111
307.127
307.142
307.154
307.164
307.171
307.175
307.175
307.171
307.164
307.154
307.142
307.127
307.111
307.094
307.078
307.066
302.37
302.375
302.38
302.386
302.391
302.396
302.4
302.403
302.406
302.407
302.407
302.406
302.403
302.4
302.396
302.391
302.386
302.38
302.375
302.37
)
;

boundaryField
{
    hotSide
    {
        type            fixedGradient;
        gradient        nonuniform List<scalar> 
400
(
200.948
201.693
203.186
205.43
208.432
212.199
216.74
222.064
228.18
235.1
242.831
251.383
260.765
270.982
282.043
293.951
306.713
320.331
334.809
350.148
203.615
204.34
205.791
207.975
210.899
214.574
219.011
224.223
230.221
237.018
244.626
253.056
262.318
272.42
283.37
295.173
307.836
321.362
335.753
351.013
206.502
207.201
208.603
210.715
213.548
217.115
221.431
226.512
232.373
239.031
246.499
254.791
263.92
273.894
284.722
296.412
308.968
322.395
336.695
351.872
209.56
210.23
211.574
213.603
216.33
219.774
223.952
228.884
234.592
241.094
248.408
256.55
265.533
275.369
286.068
297.637
310.082
323.406
337.613
352.703
212.704
213.341
214.62
216.556
219.166
222.472
226.498
231.27
236.811
243.145
250.295
258.277
267.109
276.802
287.368
298.814
311.145
324.367
338.48
353.485
215.803
216.404
217.615
219.452
221.937
225.098
228.965
233.568
238.938
245.101
252.083
259.905
268.585
278.137
288.572
299.899
312.121
325.243
339.267
354.193
218.679
219.245
220.387
222.126
224.488
227.506
231.217
235.657
240.861
246.86
253.683
261.354
269.893
279.314
289.628
300.845
312.968
326.002
339.946
354.8
221.121
221.655
222.735
224.385
226.637
229.528
233.101
237.397
242.455
248.312
254.998
262.54
270.958
280.268
290.481
301.606
313.648
326.607
340.485
355.281
222.907
223.417
224.45
226.032
228.2
230.995
234.464
238.652
243.602
249.352
255.937
263.383
271.713
280.942
291.082
302.141
314.123
327.03
340.861
355.616
223.854
224.35
225.358
226.903
229.025
231.769
235.181
239.31
244.202
249.896
256.426
263.822
272.105
281.291
291.392
302.417
314.368
327.247
341.054
355.787
223.854
224.35
225.358
226.903
229.025
231.769
235.181
239.31
244.202
249.896
256.426
263.822
272.105
281.291
291.392
302.417
314.368
327.247
341.054
355.787
222.907
223.417
224.45
226.032
228.2
230.995
234.464
238.652
243.602
249.352
255.937
263.383
271.713
280.942
291.082
302.141
314.123
327.03
340.861
355.616
221.121
221.655
222.735
224.385
226.637
229.528
233.101
237.397
242.455
248.312
254.998
262.54
270.958
280.268
290.481
301.606
313.648
326.607
340.485
355.281
218.679
219.245
220.387
222.126
224.488
227.506
231.217
235.657
240.861
246.86
253.683
261.354
269.893
279.314
289.628
300.845
312.968
326.002
339.946
354.8
215.803
216.404
217.615
219.452
221.937
225.098
228.965
233.568
238.938
245.101
252.083
259.905
268.585
278.137
288.572
299.899
312.121
325.243
339.267
354.193
212.704
213.341
214.62
216.556
219.166
222.472
226.498
231.27
236.811
243.145
250.295
258.277
267.109
276.802
287.368
298.814
311.145
324.367
338.48
353.485
209.56
210.23
211.574
213.603
216.33
219.774
223.952
228.884
234.592
241.094
248.408
256.55
265.533
275.369
286.068
297.637
310.082
323.406
337.613
352.703
206.502
207.201
208.603
210.715
213.548
217.115
221.431
226.512
232.373
239.031
246.499
254.791
263.92
273.894
284.722
296.412
308.968
322.395
336.695
351.872
203.615
204.34
205.791
207.975
210.899
214.574
219.011
224.223
230.221
237.018
244.626
253.056
262.318
272.42
283.37
295.173
307.836
321.362
335.753
351.013
200.948
201.693
203.186
205.43
208.432
212.199
216.74
222.064
228.18
235.1
242.831
251.383
260.765
270.982
282.043
293.951
306.713
320.331
334.809
350.148
)
;
    }
    coldSide
    {
        type            mixed;
        refValue        uniform 300;
        refGradient     uniform 0;
        valueFraction   uniform 0.991591;
        source          uniform 0;
        value           nonuniform List<scalar> 
400
(
300.012
300.012
300.012
300.012
300.012
300.013
300.013
300.013
300.014
300.014
300.014
300.015
300.015
300.016
300.017
300.017
300.018
300.019
300.019
300.02
300.012
300.012
300.012
300.012
300.012
300.013
300.013
300.013
300.014
300.014
300.014
300.015
300.016
300.016
300.017
300.017
300.018
300.019
300.02