/*--------------------------------*- C++ -*----------------------------------*\
| =========                 |                                                 |
| \\      /  F ield         | OpenFOAM: The Open Source CFD Toolbox           |
|  \\    /   O peration     | Version:  2212                                  |
|   \\  /    A nd           | Website:  www.openfoam.com                      |
|    \\/     M anipulation  |                                                 |
\*---------------------------------------------------------------------------*/
FoamFile
{
    version     2.0;
    format      ascii;
    arch        "LSB;label=32;scalar=64";
    class       volScalarField;
    location    "0";
    object      T;
}
// * * * * * * * * * * * * * * * * * * * * * * * * * * * * * * * * * * * * * //

dimensions      [0 0 0 1 0 0 0];

internalField   nonuniform List<scalar> 
3200
(
323.405
323.419
324.16
324.573
324.677
324.929
325.092
325.048
325.327
325.319
324.976
324.925
324.775
324.798
324.717
324.579
323.961
323.639
323.164
322.963
320.143
320.112
320.825
321.162
321.288
321.465
321.59
321.605
321.849
321.83
321.52
321.495
321.389
321.397
321.318
321.252
320.674
320.439
320.012
319.844
316.946
316.939
317.535
317.822
317.934
318.09
318.155
318.194
318.382
318.362
318.163
318.091
318.024
318.021
317.955
317.964
317.447
317.27
316.858
316.728
313.805
313.821
314.296
314.574
314.648
314.732
314.781
314.801
314.971
314.918
314.82
314.762
314.67
314.686
314.612
314.692
314.247
314.105
313.739
313.658
310.721
310.688
311.063
311.305
311.392
311.441
311.422
311.427
311.588
311.509
311.464
311.439
311.369
311.331
311.331
311.396
311.072
310.971
310.677
310.584
307.679
307.592
307.852
308.095
308.143
308.121
308.14
308.143
308.233
308.17
308.125
308.174
308.103
308.012
308.057
308.109
307.931
307.837
307.627
307.514
304.618
304.574
304.734
304.891
304.886
304.866
304.878
304.889
304.971
304.9
304.859
304.881
304.879
304.798
304.798
304.872
304.767
304.695
304.586
304.484
301.544
301.549
301.594
301.666
301.63
301.632
301.643
301.635
301.665
301.653
301.602
301.607
301.626
301.618
301.61
301.638
301.595
301.569
301.539
301.519
324.154
324.365
324.909
325.181
325.421
325.596
325.794
325.832
326.022
326.282
325.907
325.738
325.735
325.59
325.563
325.283
324.759
324.461
323.968
323.585
320.813
320.956
321.437
321.693
321.873
322.058
322.141
322.213
322.414
322.649
322.297
322.148
322.156
322.055
322.043
321.791
321.327
321.064
320.657
320.366
317.543
317.599
317.999
318.228
318.369
318.608
318.622
318.674
318.904
319.076
318.737
318.612
318.65
318.59
318.55
318.393
318
317.743
317.353
317.145
314.29
314.325
314.629
314.816
314.926
315.142
315.155
315.244
315.409
315.503
315.22
315.178
315.194
315.128
315.107
315.026
314.705
314.488
314.122
313.982
311.077
311.096
311.341
311.468
311.587
311.75
311.742
311.83
311.973
312.052
311.724
311.76
311.783
311.735
311.742
311.705
311.414
311.24
310.947
310.811
307.885
307.946
308.098
308.168
308.27
308.354
308.362
308.486
308.538
308.553
308.346
308.33
308.388
308.366
308.377
308.362
308.175
308.004
307.793
307.672
304.741
304.784
304.872
304.901
304.947
305.002
304.99
305.14
305.13
305.135
305.016
305.025
305.022
304.988
305.022
305.004
304.895
304.79
304.694
304.609
301.571
301.613
301.629
301.653
301.641
301.666
301.676
301.698
301.715
301.73
301.691
301.675
301.679
301.671
301.678
301.668
301.648
301.593
301.57
301.535
325.052
325.334
325.723
326.019
326.153
326.553
326.887
326.954
327.242
327.144
326.893
326.838
326.713
326.48
326.422
326.12
325.797
325.492
325.001
324.46
321.578
321.828
322.055
322.359
322.507
322.833
323.148
323.176
323.409
323.352
323.113
323.049
322.956
322.81
322.733
322.472
322.213
321.967
321.522
321.099
318.093
318.397
318.491
318.78
318.93
319.177
319.496
319.492
319.655
319.648
319.429
319.368
319.303
319.164
319.117
318.871
318.71
318.498
318.093
317.784
314.635
314.993
314.976
315.255
315.462
315.535
315.885
315.854
315.993
315.991
315.779
315.745
315.686
315.597
315.551
315.368
315.224
315.053
314.736
314.48
311.294
311.635
311.626
311.831
311.991
312.012
312.321
312.291
312.386
312.369
312.18
312.183
312.115
312.072
312.078
311.891
311.777
311.645
311.398
311.212
308.025
308.318
308.286
308.423
308.562
308.544
308.796
308.705
308.809
308.804
308.649
308.669
308.627
308.641
308.621
308.486
308.42
308.26
308.083
307.943
304.808
304.997
304.967
305.015
305.133
305.143
305.254
305.217
305.308
305.3
305.155
305.179
305.134
305.173
305.169
305.099
305.078
304.937
304.854
304.752
301.622
301.682
301.648
301.653
301.725
301.733
301.747
301.741
301.781
301.772
301.715
301.726
301.702
301.75
301.722
301.704
301.695
301.656
301.642
301.595
325.93
326.411
326.705
327.004
327.484
327.866
328.133
328.081
328.277
328.201
328.214
327.899
327.669
327.667
327.464
327.235
326.865
326.528
326.083
325.551
322.273
322.71
322.944
323.191
323.682
323.943
324.218
324.163
324.298
324.266
324.251
323.967
323.735
323.787
323.627
323.493
323.19
322.862
322.471
322.029
318.703
319.047
319.22
319.513
319.946
320.129
320.383
320.348
320.416
320.353
320.397
320.15
319.927
319.97
319.844
319.818
319.554
319.286
318.882
318.576
315.187
315.465
315.576
315.925
316.212
316.423
316.593
316.571
316.603
316.562
316.609
316.406
316.212
316.265
316.157
316.174
315.921
315.754
315.372
315.131
311.738
311.974
312.055
312.345
312.575
312.755
312.858
312.835
312.85
312.782
312.851
312.716
312.561
312.596
312.553
312.531
312.343
312.246
311.888
311.685
308.357
308.544
308.579
308.792
308.987
309.097
309.157
309.14
309.145
309.146
309.141
309.098
308.98
308.958
308.987
308.922
308.789
308.724
308.452
308.334
304.995
305.127
305.115
305.244
305.411
305.453
305.465
305.424
305.503
305.514
305.485
305.503
305.426
305.35
305.399
305.349
305.281
305.226
305.073
304.984
301.679
301.71
301.703
301.746
301.821
301.818
301.828
301.796
301.827
301.86
301.828
301.836
301.82
301.773
301.809
301.795
301.758
301.738
301.697
301.67
326.741
327.429
327.748
328.121
328.513
328.848
329.234
329.372
329.221
329.38
329.424
329.168
328.98
328.854
328.651
328.44
327.94
327.752
327.217
326.681
323.026
323.588
323.855
324.206
324.506
324.866
325.154
325.257
325.119
325.319
325.339
325.084
324.95
324.845
324.648
324.487
324.038
323.932
323.435
323.032
319.375
319.798
320.008
320.357
320.622
320.924
321.164
321.222
321.096
321.281
321.305
321.015
321.004
320.932
320.719
320.616
320.213
320.154
319.694
319.434
315.759
316.079
316.259
316.599
316.87
317.03
317.206
317.237
317.159
317.303
317.371
317.029
317.101
317.035
316.86
316.788
316.422
316.435
316.049
315.852
312.201
312.446
312.589
312.893
313.089
313.189
313.329
313.328
313.269
313.387
313.448
313.155
313.276
313.155
313.056
313
312.714
312.761
312.416
312.306
308.675
308.867
308.962
309.189
309.35
309.405
309.511
309.513
309.454
309.523
309.604
309.36
309.451
309.347
309.313
309.212
309.06
309.086
308.838
308.789
305.194
305.35
305.352
305.508
305.642
305.631
305.699
305.695
305.662
305.709
305.777
305.589
305.641
305.602
305.586
305.492
305.432
305.459
305.293
305.296
301.743
301.78
301.8
301.838
301.904
301.884
301.905
301.919
301.907
301.91
301.924
301.871
301.878
301.865
301.86
301.856
301.818
301.832
301.78
301.776
327.69
328.114
328.821
329.147
329.521
329.884
330.212
330.212
330.262
330.64
330.508
330.416
330.311
329.961
329.817
329.681
329.062
328.711
328.093
327.646
323.811
324.168
324.757
325.042
325.4
325.707
325.962
325.952
326.064
326.35
326.257
326.186
326.096
325.803
325.694
325.574
325.06
324.734
324.198
323.836
320.006
320.316
320.785
321.045
321.366
321.596
321.827
321.795
321.887
322.119
322.092
321.998
321.925
321.66
321.638
321.507
321.093
320.841
320.35
320.132
316.279
316.509
316.91
317.14
317.402
317.584
317.745
317.768
317.839
318.014
317.967
317.881
317.867
317.641
317.607
317.477
317.174
317.034
316.547
316.408
312.63
312.78
313.077
313.279
313.452
313.648
313.718
313.751
313.822
313.952
313.947
313.818
313.858
313.654
313.658
313.522
313.316
313.22
312.769
312.724
308.984
309.12
309.302
309.457
309.547
309.736
309.757
309.807
309.847
309.942
309.932
309.79
309.871
309.731
309.717
309.607
309.485
309.419
309.062
309.061
305.373
305.494
305.576
305.67
305.745
305.861
305.859
305.885
305.889
305.958
305.929
305.836
305.916
305.848
305.784
305.756
305.657
305.63
305.437
305.434
301.784
301.838
301.877
301.898
301.936
301.955
301.961
301.98
301.978
301.987
301.979
301.938
301.984
301.95
301.92
301.924
301.902
301.885
301.813
301.805
328.578
329.102
329.564
330.013
330.411
330.907
331.184
331.411
331.45
331.605
331.657
331.494
331.372
330.969
330.876
330.338
330.146
329.723
329.074
328.809
324.575
325.021
325.425
325.775
326.14
326.585
326.806
327.04
327.077
327.187
327.245
327.05
327
326.659
326.595
326.145
325.959
325.61
325.05
324.803
320.67
321.032
321.362
321.684
321.972
322.357
322.521
322.744
322.762
322.867
322.927
322.71
322.689
322.425
322.383
322.012
321.847
321.559
321.082
320.84
316.845
317.129
317.421
317.604
317.857
318.238
318.303
318.535
318.502
318.635
318.662
318.415
318.416
318.298
318.209
317.899
317.788
317.539
317.146
316.993
313.067
313.259
313.532
313.632
313.835
314.129
314.2
314.388
314.311
314.42
314.433
314.194
314.232
314.177
314.1
313.869
313.796
313.612
313.28
313.194
309.331
309.465
309.636
309.68
309.846
310.094
310.113
310.234
310.155
310.263
310.285
310.075
310.126
310.115
310.028
309.875
309.84
309.723
309.422
309.385
305.607
305.663
305.787
305.807
305.954
306.044
306.076
306.157
306.073
306.166
306.168
306.039
306.042
306.045
306.004
305.959
305.9
305.836
305.658
305.662
301.91
301.892
301.937
301.946
302.008
302.006
302.046
302.074
302.041
302.049
302.072
302.004
302.021
302.032
302.004
301.999
301.976
301.963
301.878
301.886
329.593
330.262
330.629
331.132
331.428
332.051
332.183
332.492
332.478
332.682
332.693
332.507
332.605
332.201
331.913
331.522
331.205
330.697
330.283
329.699
325.446
326.034
326.315
326.727
327.02
327.61
327.703
327.989
327.992
328.143
328.129
327.914
328.063
327.715
327.524
327.18
326.831
326.489
326.114
325.614
321.401
321.872
322.067
322.436
322.724
323.231
323.247
323.589
323.56
323.66
323.648
323.444
323.611
323.313
323.148
322.896
322.541
322.34
322.017
321.595
317.393
317.806
317.923
318.229
318.494
318.929
318.895
319.254
319.236
319.274
319.224
319.042
319.194
318.984
318.831
318.661
318.348
318.196
317.936
317.625
313.468
313.756
313.892
314.104
314.316
314.699
314.658
314.917
314.926
314.911
314.869
314.729
314.842
314.694
314.578
314.464
314.209
314.117
313.865
313.67
309.602
309.79
309.912
310.032
310.206
310.508
310.448
310.603
310.628
310.623
310.584
310.485
310.56
310.404
310.38
310.341
310.125
310.059
309.85
309.745
305.778
305.837
305.921
306.001
306.116
306.312
306.281
306.367
306.366
306.362
306.338
306.305
306.315
306.214
306.212
306.209
306.065
305.987
305.879
305.815
301.931
301.938
301.975
302.006
302.06
302.118
302.101
302.131
302.121
302.141
302.129
302.118
302.111
302.075
302.047
302.072
302.007
301.991
301.954
301.951
330.16
331.102
331.527
332.112
332.234
333.069
333.156
333.637
333.434
333.807
333.79
333.627
333.503
333.14
332.947
332.401
332.108
331.609
331.149
330.727
325.942
326.755
327.09
327.611
327.682
328.499
328.525
328.957
328.751
329.145
329.083
328.915
328.901
328.516
328.359
327.909
327.634
327.26
326.857
326.503
321.784
322.474
322.742
323.22
323.263
323.981
323.982
324.358
324.172
324.557
324.435
324.3
324.356
323.974
323.84
323.498
323.253
322.986
322.632
322.322
317.744
318.305
318.454
318.865
318.93
319.556
319.548
319.821
319.658
320.004
319.895
319.763
319.862
319.509
319.409
319.151
318.926
318.761
318.43
318.214
313.742
314.157
314.254
314.567
314.633
315.159
315.132
315.356
315.21
315.554
315.436
315.281
315.41
315.142
315.05
314.858
314.643
314.538
314.287
314.134
309.78
310.063
310.153
310.378
310.416
310.814
310.769
310.927
310.849
311.082
311.031
310.884
310.993
310.839
310.713
310.62
310.395
310.376
310.141
310.075
305.829
306.03
306.091
306.205
306.244
306.485
306.429
306.533
306.511
306.65
306.616
306.549
306.623
306.53
306.434
306.425
306.241
306.237
306.061
306.041
301.936
302.015
302.046
302.091
302.074
302.173
302.151
302.194
302.183
302.201
302.207
302.18
302.218
302.182
302.159
302.161
302.077
302.071
302.038
302.022
331.268
331.81
332.47
332.878
333.333
334.113
334.119
334.354
334.411
334.684
334.787
334.623
334.27
334.327
333.844
333.551
332.907
332.369
332.032
331.611
326.939
327.33
327.926
328.27
328.656
329.373
329.321
329.596
329.626
329.848
329.939
329.84
329.519
329.57
329.141
328.922
328.339
327.907
327.639
327.285
322.67
322.893
323.464
323.729
324.103
324.706
324.637
324.956
324.907
325.086
325.155
325.102
324.896
324.888
324.528
324.363
323.853
323.52
323.279
323.002
318.461
318.561
319.081
319.276
319.623
320.13
320.016
320.349
320.224
320.416
320.501
320.449
320.308
320.284
319.973
319.903
319.462
319.171
318.996
318.786
314.288
314.354
314.725
314.923
315.246
315.588
315.505
315.76
315.641
315.861
315.932
315.825
315.714
315.704
315.482
315.476
315.101
314.901
314.758
314.585
310.2
310.207
310.442
310.642
310.848
311.088
311.05
311.227
311.13
311.294
311.341
311.259
311.198
311.176
311.024
311.073
310.723
310.623
310.594
310.434
306.125
306.089
306.233
306.368
306.49
306.636
306.633
306.775
306.706
306.784
306.77
306.737
306.726
306.724
306.604
306.638
306.421
306.36
306.377
306.279
302.035
302.035
302.081
302.145
302.183
302.204
302.237
302.272
302.261
302.264
302.259
302.256
302.253
302.238
302.203
302.232
302.142
302.123
302.162
302.104
332.114
332.567
333.269
333.707
334.095
334.837
335.207
335.403
335.588
335.744
335.651
335.54
335.302
335.096
334.772
334.611
333.968
333.285
332.69
332.615
327.655
328.019
328.621
328.988
329.316
329.949
330.25
330.483
330.611
330.791
330.696
330.56
330.385
330.295
329.899
329.794
329.286
328.702
328.188
328.155
323.246
323.534
324.033
324.348
324.623
325.168
325.44
325.622
325.698
325.897
325.834
325.664
325.566
325.562
325.139
325.109
324.645
324.187
323.755
323.762
318.914
319.144
319.571
319.787
320.018
320.405
320.704
320.88
320.88
321.067
321.048
320.903
320.813
320.81
320.466
320.463
320.129
319.674
319.377
319.424
314.634
314.85
315.121
315.291
315.495
315.756
316.035
316.152
316.185
316.291
316.305
316.214
316.129
316.116
315.848
315.872
315.605
315.218
315.022
315.055
310.429
310.59
310.761
310.87
311.037
311.198
311.392
311.483
311.505
311.582
311.63
311.541
311.481
311.486
311.279
311.326
311.116
310.814
310.701
310.707
306.241
306.353
306.467
306.526
306.6
306.718
306.801
306.886
306.866
306.917
306.966
306.912
306.886
306.886
306.772
306.798
306.654
306.466
306.399
306.398
302.063
302.118
302.162
302.183
302.214
302.247
302.277
302.322
302.308
302.325
302.332
302.321
302.307
302.307
302.288
302.292
302.213
302.188
302.153
302.15
332.818
333.34
333.997
334.607
335.138
335.614
336.087
336.365
336.471
336.667
336.615
336.435
336.384
336.145
335.716
335.384
334.793
333.993
333.613
333.386
328.206
328.665
329.223
329.813
330.265
330.644
331.069
331.302
331.392
331.542
331.569
331.351
331.333
331.142
330.755
330.491
329.97
329.309
328.984
328.805
323.658
324.097
324.578
325.103
325.432
325.748
326.152
326.37
326.437
326.543
326.595
326.348
326.343
326.181
325.899
325.649
325.255
324.697
324.387
324.278
319.215
319.618
320.019
320.478
320.688
320.951
321.337
321.48
321.578
321.631
321.677
321.456
321.441
321.374
321.093
320.902
320.579
320.122
319.844
319.864
314.865
315.2
315.494
315.898
316.018
316.239
316.528
316.633
316.739
316.786
316.827
316.642
316.611
316.529
316.326
316.163
315.918
315.573
315.373
315.489
310.596
310.835
311.019
311.31
311.397
311.551
311.795
311.849
311.94
311.939
312.04
311.827
311.822
311.748
311.591
311.532
311.324
311.096
310.93
311.066
306.347
306.506
306.639
306.757
306.85
306.887
307.076
307.08
307.183
307.147
307.241
307.067
307.096
306.985
306.932
306.937
306.776
306.64
306.548
306.66
302.11
302.175
302.233
302.267
302.278
302.302
302.368
302.368
302.4
302.391
302.429
302.356
302.377
302.348
302.328
302.34
302.272
302.229
302.176
302.241
333.51
334.2
334.872
335.542
336.013
336.412
336.777
337.086
337.291
337.546
337.334
337.126
337.274
336.906
336.549
336.264
335.472
335.074
334.531
333.878
328.834
329.423
329.982
330.646
330.998
331.327
331.649
331.902
332.095
332.291
332.135
331.951
332.099
331.801
331.487
331.245
330.555
330.178
329.735
329.258
324.257
324.727
325.228
325.843
326.064
326.311
326.572
326.827
326.993
327.148
327.011
326.879
326.996
326.76
326.529
326.277
325.734
325.36
325.021
324.724
319.748
320.119
320.51
321.09
321.257
321.42
321.58
321.831
321.93
322.094
321.994
321.874
321.969
321.782
321.607
321.378
320.978
320.644
320.385
320.197
315.283
315.597
315.868
316.36
316.486
316.573
316.715
316.922
316.987
317.099
317.054
317.008
317.034
316.889
316.745
316.54
316.253
316.013
315.818
315.694
310.884
311.137
311.309
311.667
311.761
311.816
311.93
312.021
312.074
312.174
312.15
312.126
312.128
312.05
311.91
311.771
311.571
311.413
311.31
311.193
306.502
306.668
306.787
306.988
307.082
307.111
307.15
307.206
307.238
307.282
307.297
307.242
307.271
307.193
307.132
307.07
306.957
306.832
306.796
306.71
302.161
302.217
302.266
302.337
302.378
302.369
302.394
302.409
302.434
302.411
302.436
302.432
302.43
302.389
302.38
302.362
302.343
302.288
302.299
302.255
334.167
334.926
335.648
336.321
336.738
337.161
337.674
337.776
338.054
338.106
338.078
338.001
337.954
337.779
337.383
336.766
336.444
335.919
335.172
334.677
329.418
330.059
330.684
331.27
331.613
331.936
332.408
332.524
332.771
332.86
332.771
332.712
332.736
332.557
332.236
331.681
331.411
330.938
330.334
329.944
324.753
325.268
325.825
326.325
326.564
326.832
327.274
327.375
327.606
327.661
327.519
327.505
327.547
327.426
327.176
326.654
326.481
326.057
325.522
325.262
320.169
320.58
321.03
321.473
321.61
321.85
322.215
322.305
322.463
322.545
322.371
322.402
322.443
322.309
322.185
321.67
321.582
321.241
320.795
320.603
315.637
315.917
316.346
316.645
316.746
316.939
317.186
317.286
317.42
317.472
317.349
317.386
317.414
317.273
317.28
316.773
316.731
316.497
316.102
315.991
311.124
311.309
311.67
311.881
311.91
312.072
312.243
312.315
312.455
312.465
312.403
312.393
312.387
312.292
312.342
311.932
311.937
311.736
311.435
311.428
306.663
306.772
306.984
307.1
307.11
307.236
307.33
307.365
307.482
307.48
307.47
307.442
307.415
307.364
307.412
307.157
307.134
307.032
306.826
306.857
302.241
302.252
302.366
302.372
302.37
302.419
302.451
302.465
302.506
302.498
302.501
302.465
302.469
302.47
302.488
302.381
302.399
302.354
302.287
302.309
334.809
335.664
336.128
336.786
337.484
337.685
338.237
338.376
338.803
339.002
338.804
338.886
338.808
338.546
338.352
337.755
337.364
336.516
335.915
335.253
329.938
330.69
331.159
331.663
332.277
332.409
332.948
333.04
333.43
333.556
333.449
333.505
333.441
333.193
333.082
332.531
332.236
331.484
330.961
330.427
325.182
325.824
326.266
326.676
327.162
327.26
327.764
327.813
328.152
328.21
328.139
328.174
328.142
327.92
327.871
327.334
327.173
326.558
326.109
325.675
320.505
321.033
321.434
321.746
322.118
322.216
322.66
322.651
322.945
323
322.882
322.882
322.904
322.716
322.714
322.245
322.175
321.677
321.315
320.965
315.861
316.282
316.619
316.878
317.131
317.219
317.601
317.53
317.826
317.819
317.725
317.686
317.724
317.596
317.586
317.223
317.217
316.796
316.536
316.277
311.287
311.602
311.821
312.056
312.186
312.295
312.532
312.526
312.746
312.709
312.643
312.581
312.621
312.549
312.581
312.25
312.26
311.969
311.783
311.588
306.781
306.955
307.091
307.26
307.3
307.413
307.513
307.536
307.652
307.629
307.586
307.524
307.561
307.517
307.546
307.316
307.335
307.196
307.075
306.952
302.272
302.34
302.395
302.407
302.457
302.502
302.529
302.524
302.576
302.579
302.552
302.53
302.517
302.55
302.535
302.451
302.434
302.393
302.396
302.329
335.404
335.995
336.636
337.325
338.015
338.525
339.088
338.878
339.297
339.569
339.596
339.659
339.368
339.067
338.669
338.446
337.717
337.034
336.39
335.667
330.471
330.996
331.556
332.128
332.744
333.172
333.678
333.449
333.817
334.085
334.126
334.187
333.938
333.666
333.344
333.114
332.552
331.886
331.366
330.788
325.604
326.084
326.546
327.012
327.548
327.924
328.318
328.161
328.462
328.715
328.696
328.807
328.578
328.324
328.058
327.872
327.43
326.808
326.38
325.991
320.846
321.258
321.615
321.957
322.455
322.743
323.063
322.942
323.181
323.391
323.323
323.494
323.301
323.023
322.838
322.673
322.337
321.853
321.494
321.199
316.11
316.465
316.718
317.01
317.39
317.644
317.862
317.806
317.999
318.101
318.062
318.246
318.061
317.8
317.681
317.587
317.269
316.978
316.661
316.471
311.467
311.747
311.871
312.115
312.36
312.537
312.741
312.669
312.852
312.855
312.865
313.008
312.884
312.665
312.641
312.494
312.306
312.07
311.876
311.742
306.856
307.067
307.1
307.26
307.406
307.505
307.648
307.586
307.723
307.672
307.68
307.842
307.741
307.592
307.575
307.505
307.362
307.25
307.115
307.078
302.283
302.374
302.373
302.439
302.494
302.522
302.567
302.545
302.601
302.559
302.555
302.625
302.597
302.536
302.551
302.519
302.45
302.411
302.358
302.367
335.792
336.536
337.172
337.961
338.366
338.858
339.411
339.623
339.884
340.222
340.208
340.126
339.897
339.661
339.142
338.892
338.23
337.577
336.893
336.353
330.836
331.426
331.975
332.673
333.03
333.492
333.97
334.113
334.347
334.651
334.633
334.573
334.379
334.155
333.798
333.515
332.967
332.398
331.802
331.398
325.938
326.452
326.881
327.478
327.819
328.213
328.597
328.694
328.87
329.162
329.173
329.134
328.923
328.749
328.548
328.219
327.784
327.276
326.798
326.531
321.106
321.545
321.865
322.37
322.674
323.041
323.289
323.32
323.511
323.775
323.746
323.767
323.553
323.442
323.326
322.974
322.64
322.195
321.827
321.653
316.349
316.708
316.918
317.359
317.606
317.846
318.015
318.039
318.22
318.474
318.418
318.42
318.224
318.187
318.075
317.779
317.519
317.192
316.943
316.8
311.632
311.941
312.02
312.362
312.58
312.678
312.831
312.824
312.994
313.15
313.108
313.125
312.956
312.976
312.828
312.688
312.498
312.262
312.082
311.994
306.978
307.176
307.205
307.396
307.547
307.576
307.722
307.649
307.808
307.873
307.863
307.859
307.754
307.787
307.694
307.624
307.509
307.354
307.239
307.206
302.333
302.418
302.414
302.468
302.529
302.546
302.613
302.565
302.633
302.62
302.649
302.631
302.582
302.616
302.58
302.57
302.524
302.459
302.442
302.435
335.998
336.693
337.494
338.476
338.79
339.428
339.977
340.113
340.349
340.529
340.543
340.72
340.426
340.146
339.744
339.189
338.677
338.017
337.548
336.868
330.992
331.604
332.278
333.156
333.403
333.95
334.462
334.53
334.774
334.892
334.905
335.115
334.832
334.556
334.321
333.768
333.348
332.812
332.419
331.867
326.103
326.625
327.135
327.899
328.123
328.553
328.976
329.069
329.252
329.395
329.353
329.609
329.303
329.078
328.908
328.409
328.123
327.651
327.298
326.893
321.283
321.716
322.093
322.741
322.951
323.268
323.568
323.662
323.806
323.963
323.896
324.164
323.816
323.701
323.534
323.158
322.908
322.585
322.237
321.926
316.543
316.845
317.098
317.605
317.786
318.03
318.23
318.318
318.455
318.598
318.514
318.757
318.46
318.346
318.249
317.923
317.741
317.552
317.22
316.992
311.843
312.003
312.16
312.549
312.678
312.829
312.966
313.039
313.184
313.246
313.205
313.375
313.144
313.095
312.992
312.803
312.636
312.557
312.266
312.122
307.122
307.208
307.301
307.518
307.621
307.696
307.781
307.845
307.926
307.95
307.926
308.011
307.851
307.853
307.765
307.654
307.535
307.563
307.344
307.268
302.408
302.409
302.448
302.535
302.547
302.562
302.605
302.657
302.663
302.692
302.68
302.684
302.613
302.635
302.594
302.57
302.535
302.532
302.473
302.435
336.493
337.26
337.926
338.668
339.293
339.796
340.219
340.42
340.732
340.917
340.864
341.058
340.944
340.587
340.178
339.449
339.067
338.382
337.826
337.009
331.429
332.079
332.644
333.301
333.836
334.237
334.593
334.794
335.082
335.24
335.18
335.384
335.255
334.972
334.638
333.998
333.7
333.108
332.638
331.981
326.471
326.97
327.419
328.003
328.473
328.814
329.083
329.294
329.54
329.65
329.595
329.789
329.703
329.433
329.151
328.614
328.417
327.858
327.546
326.987
321.605
321.924
322.342
322.808
323.199
323.465
323.658
323.806
324.094
324.15
324.113
324.251
324.194
323.985
323.757
323.325
323.205
322.696
322.504
322.017
316.75
316.977
317.262
317.654
317.973
318.167
318.334
318.429
318.71
318.722
318.685
318.818
318.741
318.602
318.407
318.062
318.006
317.589
317.486
317.08
311.92
312.109
312.307
312.572
312.78
312.921
313.044
313.121
313.328
313.351
313.339
313.413
313.35
313.265
313.138
312.858
312.838
312.552
312.483
312.179
307.141
307.27
307.375
307.566
307.676
307.744
307.815
307.876
307.959
308.006
308.022
308.05
307.968
307.952
307.876
307.696
307.727
307.525
307.486
307.312
302.402
302.442
302.464
302.547
302.58
302.587
302.608
302.651
302.665
302.656
302.691
302.696
302.684
302.663
302.621
302.565
302.605
302.524
302.489
302.432
336.668
337.55
338.112
338.679
339.473
339.983
340.15
340.666
340.855
341.074
341.257
341.223
341.34
341.062
340.496
339.731
339.232
338.631
337.889
337.161
331.597
332.36
332.821
333.301
334.04
334.413
334.522
335.028
335.188
335.378
335.514
335.495
335.618
335.453
334.995
334.2
333.771
333.309
332.671
332.08
326.597
327.231
327.598
328.059
328.668
328.907
329.024
329.496
329.567
329.797
329.88
329.864
329.951
329.876
329.485
328.759
328.408
328.142
327.597
327.078
321.658
322.194
322.482
322.949
323.358
323.491
323.58
324.084
324.09
324.31
324.33
324.311
324.388
324.37
324.034
323.395
323.13
323.029
322.543
322.105
316.811
317.199
317.382
317.832
318.098
318.195
318.211
318.725
318.654
318.863
318.826
318.878
318.922
318.921
318.612
318.142
317.923
317.896
317.49
317.154
311.992
312.239
312.382
312.719
312.89
312.978
312.915
313.377
313.3
313.479
313.4
313.506
313.491
313.492
313.199
312.949
312.784
312.799
312.477
312.196
307.175
307.336
307.423
307.62
307.715
307.78
307.719
308.015
307.979
308.075
308.044
308.11
308.093
308.085
307.897
307.76
307.691
307.694
307.504
307.269
302.404
302.457
302.484
302.555
302.588
302.605
302.574
302.692
302.685
302.696
302.699
302.715
302.746
302.705
302.638
302.59
302.588
302.61
302.512
302.427
)
;

boundaryField
{
    hotSide
    {
        type            fixedGradient;
        gradient        nonuniform List<scalar> 
400
(
261.889
273.302
284.608
295.757
306.699
317.383
327.759
337.775
347.383
356.534
365.181
373.279
380.787
387.664
393.873
399.383
404.163
408.189
411.438
413.895
266.797
278.539
290.177
301.66
312.935
323.951
334.654
344.994
354.919
364.378
373.324
381.71
389.493
396.63
403.085
408.823
413.814
418.03
421.451
424.057
271.029
283.072
295.014
306.801
318.382
329.702
340.708
351.346
361.563
371.308
380.531
389.184
397.223
404.604
411.288
417.241
422.43
426.827
430.41
433.161
274.59
286.903
299.118
311.181
323.037
334.633
345.912
356.82
367.302
377.307
386.783
395.681
403.954
411.559
418.456
424.606
429.979
434.545
438.281
441.167
277.491
290.041
302.496
314.802
326.902
338.742
350.263
361.412
372.132
382.369
392.072
401.189
409.673
417.48
424.568
430.899
436.439
441.16
445.036
448.048
279.744
292.498
305.159
317.674
329.985
342.035
353.767
365.125
376.051
386.491
396.391
405.701
414.371
422.356
429.613
436.104
441.794
446.653
450.656
453.783
281.367
294.288
307.121
319.81
332.296
344.522
356.431
367.964
379.064
389.675
399.743
409.216
418.045
426.182
433.585
440.214
446.034
451.014
455.128
458.355
282.376
295.43
308.398
321.223
333.849
346.215
358.265
369.938
381.178
391.928
402.132
411.738
420.696
428.958
436.481
443.225
449.153
454.234
458.442
461.756
282.79
295.939
309.004
321.93
334.657
347.127
359.281
371.059
382.403
393.257
403.564
413.272
422.329
430.687
438.304
445.136
451.15
456.312
460.596
463.979
282.626
295.831
308.956
321.943
334.734
347.27
359.49
371.336
382.749
393.672
404.048
413.824
422.949
431.374
439.055
445.952
452.026
457.247
461.588
465.025
281.896
295.12
308.267
321.277
334.093
346.655
358.904
370.781
382.225
393.181
403.591
413.402
422.562
431.023
438.741
445.674
451.786
457.043
461.42
464.892
280.614
293.818
306.947
319.941
332.744
345.294
357.533
369.402
380.84
391.792
402.201
412.013
421.176
429.643
437.368
444.31
450.433
455.704
460.096
463.586
278.786
291.933
305.005
317.945
330.694
343.194
355.384
367.207
378.603
389.515
399.886
409.665
418.798
427.239
434.942
441.866
447.975
453.236
457.623
461.111
276.42
289.471
302.448
315.294
327.951
340.361
352.465
364.204
375.519
386.355
396.654
406.365
415.436
423.82
431.471
438.35
444.42
449.648
454.008
457.477
273.517
286.434
299.278
311.992
324.519
336.801
348.78
360.398
371.596
382.319
392.512
402.122
411.099
419.394
426.966
433.772
439.777
444.95
449.263
452.694
270.078
282.824
295.497
308.042
320.401
332.518
344.335
355.795
366.841
377.416
387.468
396.944
405.795
413.973
421.436
428.144
434.061
439.156
443.402
446.778
266.103
278.642
291.108
303.446
315.601
327.517
339.136
350.402
361.26
371.654
381.532
390.843
399.537
407.569
414.897
421.481
427.286
432.283
436.444
439.748
261.591
273.888
286.112
298.209
310.124
321.802
333.189
344.227
354.864
365.045
374.717
383.832
392.342
400.2
407.367
413.803
419.475
424.353
428.411
431.628
256.543
268.564
280.512
292.333
303.975
315.383
326.504
337.283
347.666
357.602
367.04
375.931
384.228
391.888
398.869
405.136
410.654
415.395
419.333
422.45
250.962
262.675
274.315
285.828
297.165
308.271
319.095
329.584
339.685
349.347
358.523
367.163
375.222
382.659
389.434
395.51
400.856
405.443
409.248
412.251
)
;
    }
    coldSide
    {
        type            mixed;
        refValue        uniform 300;
        refGradient     uniform 0;
        valueFraction   uniform 0.991591;
        source          uniform 0;
        value           nonuniform List<scalar> 
400
(
300.013
300.013
300.014
300.014
300.015
300.015
300.016
300.016
300.016
300.017
300.017
300.018
300.018
300.019
300.019
300.019
300.02
300.02
300.02
300.02
300.013
300.014
300.014
300.014
300.015
300.015
300.016
300.016
300.017
300.017
300.018
300.018
300.019
300.019
300.02
300.02
300.02
300.02
300.021