/*--------------------------------*- C++ -*----------------------------------*\
| =========                 |                                                 |
| \\      /  F ield         | OpenFOAM: The Open Source CFD Toolbox           |
|  \\    /   O peration     | Version:  2212                                  |
|   \\  /    A nd           | Website:  www.openfoam.com                      |
|    \\/     M anipulation  |                                                 |
\*---------------------------------------------------------------------------*/
FoamFile
{
    version     2.0;
    format      ascii;
    arch        "LSB;label=32;scalar=64";
    class       volScalarField;
    location    "0";
    object      Tdirect;
}
// * * * * * * * * * * * * * * * * * * * * * * * * * * * * * * * * * * * * * //

dimensions      [0 0 0 1 0 0 0];

internalField   nonuniform List<scalar> 
3200
(
343.184
344.12
345.315
346.618
347.96
349.276
350.492
351.518
352.265
352.66
352.66
352.265
351.518
350.492
349.276
347.96
346.618
345.315
344.12
343.184
337.455
338.247
339.278
340.405
341.566
342.705
343.756
344.642
345.288
345.629
345.629
345.288
344.642
343.756
342.705
341.566
340.405
339.278
338.247
337.455
331.714
332.372
333.24
334.192
335.173
336.136
337.023
337.771
338.316
338.603
338.603
338.316
337.771
337.023
336.136
335.173
334.192
333.24
332.372
331.714
325.965
326.494
327.202
327.98
328.782
329.568
330.293
330.904
331.348
331.583
331.583
331.348
330.904
330.293
329.568
328.782
327.98
327.202
326.494
325.965
320.208
320.614
321.163
321.768
322.391
323.002
323.565
324.04
324.385
324.567
324.567
324.385
324.04
323.565
323.002
322.391
321.768
321.163
320.614
320.208
314.445
314.733
315.124
315.556
316.001
316.437
316.839
317.178
317.424
317.554
317.554
317.424
317.178
316.839
316.437
316.001
315.556
315.124
314.733
314.445
308.678
308.85
309.085
309.344
309.611
309.873
310.114
310.318
310.465
310.543
310.543
310.465
310.318
310.114
309.873
309.611
309.344
309.085
308.85
308.678
302.909
302.967
303.045
303.132
303.222
303.31
303.39
303.458
303.508
303.534
303.534
303.508
303.458
303.39
303.31
303.222
303.132
303.045
302.967
302.909
343.292
344.22
345.405
346.696
348.024
349.326
350.527
351.54
352.278
352.668
352.668
352.278
351.54
350.527
349.326
348.024
346.696
345.405
344.22
343.292
337.548
338.334
339.356
340.472
341.621
342.748
343.786
344.662
345.299
345.635
345.635
345.299
344.662
343.786
342.748
341.621
340.472
339.356
338.334
337.548
331.793
332.445
333.306
334.249
335.22
336.172
337.049
337.788
338.326
338.609
338.609
338.326
337.788
337.049
336.172
335.22
334.249
333.306
332.445
331.793
326.029
326.554
327.256
328.026
328.82
329.598
330.314
330.918
331.357
331.588
331.588
331.357
330.918
330.314
329.598
328.82
328.026
327.256
326.554
326.029
320.258
320.661
321.205
321.804
322.421
323.025
323.582
324.051
324.391
324.571
324.571
324.391
324.051
323.582
323.025
322.421
321.804
321.205
320.661
320.258
314.481
314.766
315.154
315.582
316.022
316.454
316.851
317.186
317.429
317.557
317.557
317.429
317.186
316.851
316.454
316.022
315.582
315.154
314.766
314.481
308.7
308.87
309.103
309.36
309.624
309.883
310.122
310.322
310.468
310.545
310.545
310.468
310.322
310.122
309.883
309.624
309.36
309.103
308.87
308.7
302.917
302.973
303.051
303.137
303.226
303.313
303.393
303.46
303.509
303.535
303.535
303.509
303.46
303.393
303.313
303.226
303.137
303.051
302.973
302.917
343.508
344.422
345.587
346.853
348.154
349.428
350.602
351.59
352.309
352.689
352.689
352.309
351.59
350.602
349.428
348.154
346.853
345.587
344.422
343.508
337.735
338.508
339.513
340.609
341.735
342.837
343.852
344.706
345.327
345.654
345.654
345.327
344.706
343.852
342.837
341.735
340.609
339.513
338.508
337.735
331.95
332.592
333.439
334.364
335.316
336.248
337.104
337.825
338.349
338.626
338.626
338.349
337.825
337.104
336.248
335.316
334.364
333.439
332.592
331.95
326.157
326.674
327.364
328.121
328.899
329.66
330.36
330.949
331.376
331.602
331.602
331.376
330.949
330.36
329.66
328.899
328.121
327.364
326.674
326.157
320.357
320.754
321.289
321.877
322.482
323.074
323.617
324.075
324.407
324.582
324.582
324.407
324.075
323.617
323.074
322.482
321.877
321.289
320.754
320.357
314.552
314.833
315.214
315.634
316.066
316.488
316.877
317.203
317.44
317.565
317.565
317.44
317.203
316.877
316.488
316.066
315.634
315.214
314.833
314.552
308.743
308.91
309.139
309.391
309.65
309.904
310.137
310.333
310.475
310.55
310.55
310.475
310.333
310.137
309.904
309.65
309.391
309.139
308.91
308.743
302.931
302.987
303.064
303.148
303.235
303.32
303.398
303.464
303.511
303.536
303.536
303.511
303.464
303.398
303.32
303.235
303.148
303.064
302.987
302.931
343.835
344.727
345.863
347.094
348.357
349.591
350.724
351.677
352.369
352.734
352.734
352.369
351.677
350.724
349.591
348.357
347.094
345.863
344.727
343.835
338.017
338.772
339.752
340.818
341.91
342.978
343.958
344.781
345.379
345.694
345.694
345.379
344.781
343.958
342.978
341.91
340.818
339.752
338.772
338.017
332.189
332.815
333.641
334.541
335.465
336.367
337.195
337.89
338.395
338.66
338.66
338.395
337.89
337.195
336.367
335.465
334.541
333.641
332.815
332.189
326.352
326.857
327.529
328.265
329.021
329.758
330.434
331.002
331.414
331.631
331.631
331.414
331.002
330.434
329.758
329.021
328.265
327.529
326.857
326.352
320.508
320.896
321.418
321.99
322.577
323.15
323.675
324.116
324.436
324.605
324.605
324.436
324.116
323.675
323.15
322.577
321.99
321.418
320.896
320.508
314.66
314.934
315.306
315.714
316.134
316.543
316.918
317.233
317.461
317.581
317.581
317.461
317.233
316.918
316.543
316.134
315.714
315.306
314.934
314.66
308.807
308.971
309.194
309.439
309.691
309.937
310.162
310.351
310.488
310.56
310.56
310.488
310.351
310.162
309.937
309.691
309.439
309.194
308.971
308.807
302.953
303.007
303.082
303.164
303.249
303.331
303.406
303.47
303.516
303.54
303.54
303.516
303.47
303.406
303.331
303.249
303.164
303.082
303.007
302.953
344.274
345.14
346.238
347.426
348.639
349.822
350.905
351.813
352.471
352.818
352.818
352.471
351.813
350.905
349.822
348.639
347.426
346.238
345.14
344.274
338.397
339.129
340.076
341.104
342.155
343.178
344.115
344.9
345.469
345.769
345.769
345.469
344.9
344.115
343.178
342.155
341.104
340.076
339.129
338.397
332.509
333.117
333.915
334.784
335.672
336.536
337.328
337.991
338.471
338.724
338.724
338.471
337.991
337.328
336.536
335.672
334.784
333.915
333.117
332.509
326.614
327.103
327.754
328.464
329.19
329.896
330.543
331.085
331.477
331.683
331.683
331.477
331.085
330.543
329.896
329.19
328.464
327.754
327.103
326.614
320.712
321.087
321.592
322.144
322.708
323.258
323.76
324.181
324.486
324.646
324.646
324.486
324.181
323.76
323.258
322.708
322.144
321.592
321.087
320.712
314.805
315.071
315.43
315.824
316.228
316.62
316.979
317.279
317.497
317.611
317.611
317.497
317.279
316.979
316.62
316.228
315.824
315.43
315.071
314.805
308.894
309.053
309.269
309.505
309.747
309.983
310.198
310.379
310.509
310.578
310.578
310.509
310.379
310.198
309.983
309.747
309.505
309.269
309.053
308.894
302.982
303.035
303.107
303.186
303.267
303.346
303.419
303.479
303.523
303.546
303.546
303.523
303.479
303.419
303.346
303.267
303.186
303.107
303.035
302.982
344.831
345.664
346.718
347.854
349.01
350.133
351.158
352.014
352.634
352.96
352.96
352.634
352.014
351.158
350.133
349.01
347.854
346.718
345.664
344.831
338.878
339.583
340.492
341.475
342.476
343.448
344.334
345.075
345.611
345.893
345.893
345.611
345.075
344.334
343.448
342.476
341.475
340.492
339.583
338.878
332.915
333.5
334.266
335.097
335.944
336.765
337.514
338.14
338.592
338.83
338.83
338.592
338.14
337.514
336.765
335.944
335.097
334.266
333.5
332.915
326.945
327.416
328.041
328.72
329.412
330.083
330.696
331.207
331.576
331.77
331.77
331.576
331.207
330.696
330.083
329.412
328.72
328.041
327.416
326.945
320.969
321.331
321.815
322.343
322.881
323.403
323.879
324.276
324.563
324.714
324.714
324.563
324.276
323.879
323.403
322.881
322.343
321.815
321.331
320.969
314.989
315.244
315.59
315.967
316.351
316.724
317.064
317.347
317.552
317.66
317.66
317.552
317.347
317.064
316.724
316.351
315.967
315.59
315.244
314.989
309.005
309.157
309.364
309.591
309.822
310.045
310.249
310.42
310.543
310.607
310.607
310.543
310.42
310.249
310.045
309.822
309.591
309.364
309.157
309.005
303.019
303.07
303.139
303.215
303.292
303.367
303.436
303.493
303.534
303.556
303.556
303.534
303.493
303.436
303.367
303.292
303.215
303.139
303.07
303.019
345.508
346.304
347.308
348.387
349.48
350.536
351.497
352.298
352.875
353.178
353.178
352.875
352.298
351.497
350.536
349.48
348.387
347.308
346.304
345.508
339.463
340.137
341.003
341.936
342.883
343.798
344.629
345.322
345.821
346.083
346.083
345.821
345.322
344.629
343.798
342.883
341.936
341.003
340.137
339.463
333.409
333.968
334.698
335.487
336.288
337.061
337.763
338.348
338.77
338.991
338.991
338.77
338.348
337.763
337.061
336.288
335.487
334.698
333.968
333.409
327.349
327.799
328.394
329.039
329.693
330.325
330.9
331.378
331.722
331.903
331.903
331.722
331.378
330.9
330.325
329.693
329.039
328.394
327.799
327.349
321.283
321.628
322.09
322.591
323.1
323.591
324.038
324.409
324.677
324.818
324.818
324.677
324.409
324.038
323.591
323.1
322.591
322.09
321.628
321.283
315.212
315.457
315.786
316.144
316.507
316.859
317.177
317.443
317.634
317.734
317.734
317.634
317.443
317.177
316.859
316.507
316.144
315.786
315.457
315.212
309.139
309.285
309.482
309.697
309.915
310.126
310.318
310.477
310.592
310.652
310.652
310.592
310.477
310.318
310.126
309.915
309.697
309.482
309.285
309.139
303.064
303.112
303.179
303.251
303.324
303.394
303.459
303.512
303.55
303.571
303.571
303.55
303.512
303.459
303.394
303.324
303.251
303.179
303.112
303.064
346.31
347.066
348.017
349.033
350.059
351.045
351.938
352.68
353.213
353.493
353.493
353.213
352.68
351.938
351.045
350.059
349.033
348.017
347.066
346.31
340.156
340.796
341.616
342.496
343.384
344.238
345.012
345.653
346.115
346.356
346.356
346.115
345.653
345.012
344.238
343.384
342.496
341.616
340.796
340.156
333.995
334.526
335.217
335.96
336.711
337.434
338.087
338.63
339.019
339.223
339.223
339.019
338.63
338.087
337.434
336.711
335.96
335.217
334.526
333.995
327.827
328.254
328.818
329.425
330.04
330.63
331.165
331.608
331.927
332.093
332.093
331.927
331.608
331.165
330.63
330.04
329.425
328.818
328.254
327.827
321.654
321.982
322.419
322.892
323.369
323.829
324.244
324.589
324.836
324.966
324.966
324.836
324.589
324.244
323.829
323.369
322.892
322.419
321.982
321.654
315.477
315.71
316.021
316.359
316.7
317.028
317.325
317.571
317.747
317.84
317.84
317.747
317.571
317.325
317.028
316.7
316.359
316.021
315.71
315.477
309.298
309.437
309.623
309.826
310.031
310.228
310.406
310.554
310.66
310.716
310.716
310.66
310.554
310.406
310.228
310.031
309.826
309.623
309.437
309.298
303.117
303.163
303.226
303.294
303.362
303.429
303.488
303.538
303.573
303.592
303.592
303.573
303.538
303.488
303.429
303.362
303.294
303.226
303.163
303.117
347.241
347.956
348.85
349.801
350.757
351.672
352.496
353.178
353.667
353.923
353.923
353.667
353.178
352.496
351.672
350.757
349.801
348.85
347.956
347.241
340.961
341.566
342.337
343.161
343.989
344.781
345.495
346.085
346.508
346.729
346.729
346.508
346.085
345.495
344.781
343.989
343.161
342.337
341.566
340.961
334.674
335.176
335.826
336.522
337.222
337.892
338.496
338.995
339.352
339.539
339.539
339.352
338.995
338.496
337.892
337.222
336.522
335.826
335.176
334.674
328.382
328.786
329.316
329.885
330.458
331.006
331.499
331.907
332.199
332.352
332.352
332.199
331.907
331.499
331.006
330.458
329.885
329.316
328.786
328.382
322.085
322.395
322.807
323.249
323.694
324.121
324.504
324.821
325.048
325.167
325.167
325.048
324.821
324.504
324.121
323.694
323.249
322.807
322.395
322.085
315.785
316.005
316.298
316.614
316.932
317.236
317.511
317.737
317.899
317.984
317.984
317.899
317.737
317.511
317.236
316.932
316.614
316.298
316.005
315.785
309.483
309.614
309.79
309.979
310.17
310.353
310.518
310.654
310.751
310.802
310.802
310.751
310.654
310.518
310.353
310.17
309.979
309.79
309.614
309.483
303.179
303.223
303.282
303.345
303.409
303.47
303.526
303.571
303.604
303.621
303.621
303.604
303.571
303.526
303.47
303.409
303.345
303.282
303.223
303.179
348.306
348.978
349.814
350.7
351.585
352.428
353.184
353.807
354.252
354.484
354.484
354.252
353.807
353.184
352.428
351.585
350.7
349.814
348.978
348.306
341.882
342.45
343.172
343.939
344.706
345.436
346.09
346.63
347.015
347.216
347.216
347.015
346.63
346.09
345.436
344.706
343.939
343.172
342.45
341.882
335.452
335.923
336.531
337.18
337.828
338.446
339
339.456
339.781
339.951
339.951
339.781
339.456
339
338.446
337.828
337.18
336.531
335.923
335.452
329.017
329.396
329.892
330.423
330.953
331.458
331.911
332.284
332.55
332.689
332.689
332.55
332.284
331.911
331.458
330.953
330.423
329.892
329.396
329.017
322.579
322.87
323.255
323.667
324.08
324.472
324.825
325.115
325.322
325.43
325.43
325.322
325.115
324.825
324.472
324.08
323.667
323.255
322.87
322.579
316.138
316.344
316.618
316.912
317.207
317.488
317.74
317.947
318.094
318.171
318.171
318.094
317.947
317.74
317.488
317.207
316.912
316.618
316.344
316.138
309.694
309.817
309.982
310.159
310.336
310.504
310.655
310.78
310.868
310.915
310.915
310.868
310.78
310.655
310.504
310.336
310.159
309.982
309.817
309.694
303.25
303.291
303.346
303.405
303.465
303.521
303.572
303.613
303.643
303.659
303.659
303.643
303.613
303.572
303.521
303.465
303.405
303.346
303.291
303.25
349.509
350.137
350.916
351.736
352.552
353.324
354.014
354.579
354.982
355.192
355.192
354.982
354.579
354.014
353.324
352.552
351.736
350.916
350.137
349.509
342.922
343.453
344.125
344.836
345.542
346.211
346.809
347.299
347.648
347.829
347.829
347.648
347.299
346.809
346.211
345.542
344.836
344.125
343.453
342.922
336.33
336.771
337.337
337.938
338.536
339.102
339.607
340.021
340.316
340.47
340.47
340.316
340.021
339.607
339.102
338.536
337.938
337.337
336.771
336.33
329.735
330.089
330.551
331.043
331.532
331.995
332.408
332.747
332.988
333.114
333.114
332.988
332.747
332.408
331.995
331.532
331.043
330.551
330.089
329.735
323.136
323.409
323.767
324.149
324.529
324.889
325.211
325.474
325.662
325.76
325.76
325.662
325.474
325.211
324.889
324.529
324.149
323.767
323.409
323.136
316.536
316.728
316.984
317.257
317.528
317.786
318.015
318.204
318.338
318.407
318.407
318.338
318.204
318.015
317.786
317.528
317.257
316.984
316.728
316.536
309.933
310.048
310.201
310.365
310.528
310.683
310.821
310.934
311.014
311.056
311.056
311.014
310.934
310.821
310.683
310.528
310.365
310.201
310.048
309.933
303.33
303.368
303.42
303.474
303.529
303.581
303.627
303.665
303.692
303.706
303.706
303.692
303.665
303.627
303.581
303.529
303.474
303.42
303.368
303.33
350.854
351.439
352.161
352.917
353.665
354.369
354.995
355.506
355.869
356.058
356.058
355.869
355.506
354.995
354.369
353.665
352.917
352.161
351.439
350.854
344.085
344.58
345.203
345.858
346.506
347.116
347.659
348.102
348.416
348.579
348.579
348.416
348.102
347.659
347.116
346.506
345.858
345.203
344.58
344.085
337.313
337.723
338.248
338.802
339.35
339.867
340.326
340.7
340.966
341.104
341.104
340.966
340.7
340.326
339.867
339.35
338.802
338.248
337.723
337.313
330.537
330.867
331.296
331.749
332.197
332.62
332.995
333.302
333.519
333.632
333.632
333.519
333.302
332.995
332.62
332.197
331.749
331.296
330.867
330.537
323.76
324.013
324.345
324.698
325.047
325.376
325.668
325.906
326.075
326.163
326.163
326.075
325.906
325.668
325.376
325.047
324.698
324.345
324.013
323.76
316.981
317.16
317.397
317.649
317.898
318.133
318.342
318.512
318.633
318.696
318.696
318.633
318.512
318.342
318.133
317.898
317.649
317.397
317.16
316.981
310.2
310.307
310.449
310.601
310.75
310.892
311.017
311.119
311.192
311.229
311.229
311.192
311.119
311.017
310.892
310.75
310.601
310.449
310.307
310.2
303.419
303.455
303.503
303.553
303.604
303.651
303.693
303.727
303.752
303.764
303.764
303.752
303.727
303.693
303.651
303.604
303.553
303.503
303.455
303.419
352.344
352.886
353.553
354.248
354.931
355.571
356.137
356.597
356.923
357.092
357.092
356.923
356.597
356.137
355.571
354.931
354.248
353.553
352.886
352.344
345.373
345.832
346.407
347.009
347.601
348.156
348.647
349.046
349.328
349.475
349.475
349.328
349.046
348.647
348.156
347.601
347.009
346.407
345.832
345.373
338.401
338.781
339.266
339.775
340.276
340.746
341.161
341.498
341.737
341.861
341.861
341.737
341.498
341.161
340.746
340.276
339.775
339.266
338.781
338.401
331.426
331.733
332.128
332.544
332.954
333.339
333.678
333.954
334.15
334.251
334.251
334.15
333.954
333.678
333.339
332.954
332.544
332.128
331.733
331.426
324.451
324.686
324.992
325.316
325.635
325.934
326.198
326.413
326.565
326.644
326.644
326.565
326.413
326.198
325.934
325.635
325.316
324.992
324.686
324.451
317.474
317.64
317.859
318.09
318.318
318.532
318.721
318.874
318.983
319.039
319.039
318.983
318.874
318.721
318.532
318.318
318.09
317.859
317.64
317.474
310.496
310.596
310.727
310.866
311.003
311.131
311.244
311.337
311.402
311.436
311.436
311.402
311.337
311.244
311.131
311.003
310.866
310.727
310.596
310.496
303.519
303.552
303.596
303.642
303.688
303.731
303.769
303.8
303.822
303.833
303.833
303.822
303.8
303.769
303.731
303.688
303.642
303.596
303.552
303.519
353.98
354.482
355.096
355.732
356.354
356.934
357.444
357.857
358.149
358.3
358.3
358.149
357.857
357.444
356.934
356.354
355.732
355.096
354.482
353.98
346.789
347.213
347.742
348.294
348.833
349.336
349.778
350.136
350.389
350.52
350.52
350.389
350.136
349.778
349.336
348.833
348.294
347.742
347.213
346.789
339.596
339.948
340.394
340.86
341.317
341.742
342.117
342.42
342.634
342.745
342.745
342.634
342.42
342.117
341.742
341.317
340.86
340.394
339.948
339.596
332.403
332.686
333.05
333.431
333.805
334.153
334.459
334.708
334.883
334.973
334.973
334.883
334.708
334.459
334.153
333.805
333.431
333.05
332.686
332.403
325.209
325.427
325.709
326.006
326.296
326.567
326.806
326.999
327.135
327.205
327.205
327.135
326.999
326.806
326.567
326.296
326.006
325.709
325.427
325.209
318.016
318.169
318.371
318.583
318.79
318.984
319.154
319.292
319.39
319.44
319.44
319.39
319.292
319.154
318.984
318.79
318.583
318.371
318.169
318.016
310.822
310.913
311.034
311.161
311.286
311.402
311.505
311.588
311.646
311.676
311.676
311.646
311.588
311.505
311.402
311.286
311.161
311.034
310.913
310.822
303.628
303.658
303.699
303.741
303.783
303.822
303.856
303.884
303.904
303.914
303.914
303.904
303.884
303.856
303.822
303.783
303.741
303.699
303.658
303.628
355.763
356.226
356.789
357.37
357.935
358.459
358.918
359.289
359.549
359.684
359.684
359.549
359.289
358.918
358.459
357.935
357.37
356.789
356.226
355.763
348.33
348.721
349.208
349.711
350.201
350.655
351.053
351.374
351.6
351.717
351.717
351.6
351.374
351.053
350.655
350.201
349.711
349.208
348.721
348.33
340.898
341.222
341.632
342.058
342.472
342.857
343.194
343.466
343.657
343.756
343.756
343.657
343.466
343.194
342.857
342.472
342.058
341.632
341.222
340.898
333.466
333.727
334.061
334.41
334.749
335.064
335.34
335.562
335.719
335.8
335.8
335.719
335.562
335.34
335.064
334.749
334.41
334.061
333.727
333.466
326.035
326.236
326.495
326.766
327.03
327.275
327.49
327.663
327.784
327.847
327.847
327.784
327.663
327.49
327.275
327.03
326.766
326.495
326.236
326.035
318.605
318.747
318.932
319.125
319.314
319.489
319.643
319.766
319.853
319.898
319.898
319.853
319.766
319.643
319.489
319.314
319.125
318.932
318.747
318.605
311.176
311.26
311.371
311.487
311.601
311.706
311.798
311.872
311.925
311.952
311.952
311.925
311.872
311.798
311.706
311.601
311.487
311.371
311.26
311.176
303.746
303.774
303.812
303.851
303.889
303.924
303.955
303.98
303.997
304.006
304.006
303.997
303.98
303.955
303.924
303.889
303.851
303.812
303.774
303.746
357.686
358.112
358.628
359.158
359.67
360.143
360.556
360.887
361.12
361.24
361.24
361.12
360.887
360.556
360.143
359.67
359.158
358.628
358.112
357.686
349.991
350.352
350.797
351.256
351.7
352.111
352.468
352.756
352.957
353.061
353.061
352.957
352.756
352.468
352.111
351.7
351.256
350.797
350.352
349.991
342.3
342.598
342.974
343.362
343.738
344.086
344.388
344.632
344.802
344.89
344.89
344.802
344.632
344.388
344.086
343.738
343.362
342.974
342.598
342.3
334.611
334.851
335.157
335.475
335.783
336.067
336.315
336.514
336.654
336.726
336.726
336.654
336.514
336.315
336.067
335.783
335.475
335.157
334.851
334.611
326.924
327.108
327.346
327.593
327.833
328.054
328.247
328.402
328.511
328.567
328.567
328.511
328.402
328.247
328.054
327.833
327.593
327.346
327.108
326.924
319.239
319.37
319.539
319.716
319.887
320.045
320.183
320.294
320.372
320.412
320.412
320.372
320.294
320.183
320.045
319.887
319.716
319.539
319.37
319.239
311.556
311.634
311.736
311.842
311.944
312.04
312.122
312.189
312.236
312.26
312.26
312.236
312.189
312.122
312.04
311.944
311.842
311.736
311.634
311.556
303.874
303.9
303.934
303.969
304.004
304.036
304.063
304.086
304.101
304.109
304.109
304.101
304.086
304.063
304.036
304.004
303.969
303.934
303.9
303.874
359.73
360.121
360.594
361.076
361.541
361.967
362.338
362.634
362.842
362.949
362.949
362.842
362.634
362.338
361.967
361.541
361.076
360.594
360.121
359.73
351.754
352.085
352.493
352.911
353.314
353.684
354.005
354.263
354.443
354.535
354.535
354.443
354.263
354.005
353.684
353.314
352.911
352.493
352.085
351.754
343.784
344.059
344.403
344.757
345.098
345.411
345.684
345.901
346.054
346.132
346.132
346.054
345.901
345.684
345.411
345.098
344.757
344.403
344.059
343.784
335.821
336.042
336.322
336.612
336.891
337.148
337.371
337.549
337.674
337.738
337.738
337.674
337.549
337.371
337.148
336.891
336.612
336.322
336.042
335.821
327.863
328.032
328.25
328.475
328.693
328.892
329.066
329.205
329.302
329.352
329.352
329.302
329.205
329.066
328.892
328.693
328.475
328.25
328.032
327.863
319.909
320.029
320.184
320.345
320.5
320.643
320.767
320.866
320.936
320.972
320.972
320.936
320.866
320.767
320.643
320.5
320.345
320.184
320.029
319.909
311.957
312.029
312.122
312.219
312.312
312.398
312.472
312.532
312.574
312.595
312.595
312.574
312.532
312.472
312.398
312.312
312.219
312.122
312.029
311.957
304.008
304.032
304.063
304.096
304.127
304.156
304.181
304.201
304.215
304.222
304.222
304.215
304.201
304.181
304.156
304.127
304.096
304.063
304.032
304.008
361.841
362.201
362.634
363.074
363.496
363.882
364.215
364.482
364.667
364.763
364.763
364.667
364.482
364.215
363.882
363.496
363.074
362.634
362.201
361.841
353.566
353.871
354.245
354.627
354.993
355.328
355.617
355.848
356.009
356.092
356.092
356.009
355.848
355.617
355.328
354.993
354.627
354.245
353.871
353.566
345.305
345.558
345.873
346.196
346.507
346.79
347.036
347.231
347.368
347.438
347.438
347.368
347.231
347.036
346.79
346.507
346.196
345.873
345.558
345.305
337.056
337.26
337.517
337.782
338.036
338.268
338.469
338.629
338.741
338.799
338.799
338.741
338.629
338.469
338.268
338.036
337.782
337.517
337.26
337.056
328.818
328.974
329.174
329.38
329.577
329.758
329.915
330.04
330.127
330.172
330.172
330.127
330.04
329.915
329.758
329.577
329.38
329.174
328.974
328.818
320.588
320.698
320.841
320.988
321.13
321.259
321.371
321.46
321.523
321.555
321.555
321.523
321.46
321.371
321.259
321.13
320.988
320.841
320.698
320.588
312.364
312.43
312.516
312.604
312.689
312.767
312.834
312.888
312.925
312.944
312.944
312.925
312.888
312.834
312.767
312.689
312.604
312.516
312.43
312.364
304.144
304.166
304.195
304.224
304.253
304.279
304.302
304.32
304.332
304.339
304.339
304.332
304.32
304.302
304.279
304.253
304.224
304.195
304.166
304.144
363.883
364.216
364.615
365.02
365.406
365.757
366.06
366.301
366.469
366.555
366.555
366.469
366.301
366.06
365.757
365.406
365.02
364.615
364.216
363.883
355.298
355.58
355.925
356.276
356.612
356.917
357.181
357.39
357.536
357.611
357.611
357.536
357.39
357.181
356.917
356.612
356.276
355.925
355.58
355.298
346.742
346.976
347.268
347.566
347.85
348.109
348.333
348.511
348.634
348.698
348.698
348.634
348.511
348.333
348.109
347.85
347.566
347.268
346.976
346.742
338.213
338.401
338.639
338.883
339.117
339.329
339.513
339.658
339.76
339.812
339.812
339.76
339.658
339.513
339.329
339.117
338.883
338.639
338.401
338.213
329.705
329.85
330.035
330.225
330.407
330.573
330.716
330.829
330.908
330.949
330.949
330.908
330.829
330.716
330.573
330.407
330.225
330.035
329.85
329.705
321.216
321.318
321.45
321.586
321.716
321.835
321.937
322.018
322.075
322.104
322.104
322.075
322.018
321.937
321.835
321.716
321.586
321.45
321.318
321.216
312.739
312.8
312.879
312.961
313.039
313.11
313.172
313.221
313.255
313.272
313.272
313.255
313.221
313.172
313.11
313.039
312.961
312.879
312.8
312.739
304.269
304.29
304.316
304.344
304.37
304.394
304.414
304.431
304.442
304.448
304.448
304.442
304.431
304.414
304.394
304.37
304.344
304.316
304.29
304.269
365.494
365.807
366.182
366.562
366.923
367.25
367.532
367.756
367.911
367.991
367.991
367.911
367.756
367.532
367.25
366.923
366.562
366.182
365.807
365.494
356.611
356.877
357.203
357.534
357.848
358.134
358.38
358.575
358.711
358.78
358.78
358.711
358.575
358.38
358.134
357.848
357.534
357.203
356.877
356.611
347.799
348.02
348.295
348.576
348.844
349.087
349.296
349.462
349.578
349.637
349.637
349.578
349.462
349.296
349.087
348.844
348.576
348.295
348.02
347.799
339.042
339.22
339.446
339.676
339.896
340.096
340.268
340.405
340.5
340.548
340.548
340.5
340.405
340.268
340.096
339.896
339.676
339.446
339.22
339.042
330.33
330.467
330.642
330.822
330.994
331.15
331.284
331.391
331.465
331.503
331.503
331.465
331.391
331.284
331.15
330.994
330.822
330.642
330.467
330.33
321.651
321.748
321.874
322.002
322.125
322.237
322.333
322.41
322.463
322.49
322.49
322.463
322.41
322.333
322.237
322.125
322.002
321.874
321.748
321.651
312.996
313.054
313.129
313.207
313.281
313.348
313.406
313.452
313.484
313.5
313.5
313.484
313.452
313.406
313.348
313.281
313.207
313.129
313.054
312.996
304.355
304.374
304.399
304.425
304.45
304.473
304.492
304.508
304.518
304.524
304.524
304.518
304.508
304.492
304.473
304.45
304.425
304.399
304.374
304.355
)
;

boundaryField
{
    hotSide
    {
        type            fixedGradient;
        gradient        nonuniform List<scalar> 
400
(
457.311
458.495
460.872
464.462
469.293
475.399
482.821
491.601
501.785
513.417
526.542
541.199
557.428
575.261
594.727
615.854
638.66
663.165
689.381
717.318
469.629
470.715
472.901
476.212
480.686
486.368
493.311
501.572
511.209
522.277
534.833
548.926
564.601
581.9
600.855
621.497
643.847
667.925
693.743
721.314
482.959
483.929
485.886
488.866
492.918
498.102
504.486
512.144
521.148
531.572
543.482
556.939
571.998
588.706
607.101
627.215
649.074
672.695
698.093
725.277
497.081
497.916
499.608
502.204
505.769
510.38
516.126
523.101
531.396
541.101
552.297
565.059
579.449
595.521
613.318
632.875
654.218
677.366
702.33
729.118
511.601
512.283
513.677
515.844
518.865
522.843
527.887
534.115
541.642
550.574
561.01
573.036
586.725
602.137
619.32
638.309
659.13
681.801
706.333
732.73
525.913
526.431
527.508
529.216
531.662
534.971
539.28
544.731
551.464
559.604
569.269
580.555
593.545
608.304
624.883
643.319
663.636
685.851
709.971
735.998
539.196
539.552
540.311
541.565
543.441
546.091
549.681
554.378
560.344
567.728
576.658
587.247
599.583
613.737
629.76
647.689
667.549
689.352
713.104
738.801
550.471
550.679
551.152
551.998
553.365
555.429
558.381
562.414
567.71
574.435
582.733
592.723
604.502
618.143
633.699
651.205
670.685
692.148
715.597
741.025
558.722
558.817
559.072
559.606
560.584
562.204
564.675
568.208
573.003
579.238
587.067
596.617
607.988
621.255
636.472
653.674
672.88
694.1
717.332
742.569
563.094
563.128
563.263
563.627
564.396
565.774
567.985
571.25
575.775
581.748
589.327
598.643
609.798
622.868
637.906
654.948
674.011
695.104
718.223
743.361
563.094
563.128
563.263
563.627
564.396
565.774
567.985
571.25
575.775
581.748
589.327
598.643
609.798
622.868
637.906
654.948
674.011
695.104
718.223
743.361
558.722
558.817
559.072
559.606
560.584
562.204
564.675
568.208
573.003
579.238
587.067
596.617
607.988
621.255
636.472
653.674
672.88
694.1
717.332
742.569
550.471
550.679
551.152
551.998
553.365
555.429
558.381
562.414
567.71
574.435
582.733
592.723
604.502
618.143
633.699
651.205
670.685
692.148
715.597
741.025
539.196
539.552
540.311
541.565
543.441
546.091
549.681
554.378
560.344
567.728
576.658
587.247
599.583
613.737
629.76
647.689
667.549
689.352
713.104
738.801
525.913
526.431
527.508
529.216
531.662
534.971
539.28
544.731
551.464
559.604
569.269
580.555
593.545
608.304
624.883
643.319
663.636
685.851
709.971
735.998
511.601
512.283
513.677
515.844
518.865
522.843
527.887
534.115
541.642
550.574
561.01
573.036
586.725
602.137
619.32
638.309
659.13
681.801
706.333
732.73
497.081
497.916
499.608
502.204
505.769
510.38
516.126
523.101
531.396
541.101
552.297
565.059
579.449
595.521
613.318
632.875
654.218
677.366
702.33
729.118
482.959
483.929
485.886
488.866
492.918
498.102
504.486
512.144
521.148
531.572
543.482
556.939
571.998
588.706
607.101
627.215
649.074
672.695
698.093
725.277
469.629
470.715
472.901
476.212
480.686
486.368
493.311
501.572
511.209
522.277
534.833
548.926
564.601
581.9
600.855
621.497
643.847
667.925
693.743
721.314
457.311
458.495
460.872
464.462
469.293
475.399
482.821
491.601
501.785
513.417
526.542
541.199
557.428
575.261
594.727
615.854
638.66
663.165
689.381
717.318
)
;
    }
    coldSide
    {
        type            mixed;
        refValue        uniform 300;
        refGradient     uniform 0;
        valueFraction   uniform 0.991591;
        source          uniform 0;
        value           nonuniform List<scalar> 
400
(
300.024
300.025
300.025
300.025
300.025
300.025
300.026
300.026
300.027
300.027
300.028
300.029
300.03
300.031
300.032
300.033
300.034
300.035
300.036
300.037
300.025
300.025
300.025
300.025
300.026
300.026
300.026
300.027
300.027
300.028
300.028
300.029
300.03
300.031
300.032
300.033
300.034
300.035
300.036