/*--------------------------------*- C++ -*----------------------------------*\
| =========                 |                                                 |
| \\      /  F ield         | OpenFOAM: The Open Source CFD Toolbox           |
|  \\    /   O peration     | Version:  2212                                  |
|   \\  /    A nd           | Website:  www.openfoam.com                      |
|    \\/     M anipulation  |                                                 |
\*---------------------------------------------------------------------------*/
FoamFile
{
    version     2.0;
    format      ascii;
    arch        "LSB;label=32;scalar=64";
    class       volScalarField;
    location    "0";
    object      stateMean;
}
// * * * * * * * * * * * * * * * * * * * * * * * * * * * * * * * * * * * * * //

dimensions      [0 0 0 1 0 0 0];

internalField   nonuniform List<scalar> 
3200
(
362.058
361.365
360.952
360.979
361.484
362.154
363.022
363.739
364.359
364.751
364.81
364.57
364.02
363.197
362.321
361.324
360.589
360.19
360.296
360.858
355.12
354.548
354.236
354.246
354.649
355.254
355.885
356.593
357.121
357.435
357.416
357.295
356.783
356.164
355.333
354.541
353.818
353.585
353.651
354.12
347.673
347.204
346.897
347.055
347.388
347.814
348.436
349.03
349.394
349.653
349.752
349.601
349.137
348.592
347.882
347.253
346.729
346.447
346.533
346.913
339.865
339.493
339.32
339.337
339.647
340.037
340.472
340.9
341.239
341.591
341.628
341.447
341.113
340.605
340.039
339.581
339.096
338.901
338.905
339.166
331.634
331.338
331.17
331.238
331.411
331.781
332.107
332.36
332.674
332.833
332.903
332.83
332.514
332.162
331.828
331.382
331.008
330.862
330.969
331.056
322.872
322.738
322.693
322.641
322.765
323.086
323.354
323.527
323.719
323.838
323.807
323.793
323.562
323.352
323.132
322.785
322.434
322.373
322.492
322.603
313.939
313.798
313.798
313.736
313.901
314.022
314.206
314.222
314.359
314.481
314.501
314.416
314.33
314.237
314.016
313.87
313.662
313.645
313.656
313.745
304.749
304.707
304.642
304.614
304.696
304.694
304.781
304.787
304.887
304.834
304.903
304.883
304.859
304.821
304.742
304.718
304.565
304.615
304.68
304.625
361.989
361.248
360.904
361.038
361.535
362.312
363.217
364.069
364.678
365.097
365.254
364.874
364.368
363.58
362.483
361.448
360.688
360.272
360.298
360.889
355.036
354.477
354.186
354.242
354.688
355.352
356.03
356.846
357.354
357.743
357.818
357.623
357.126
356.367
355.522
354.639
353.996
353.607
353.691
354.16
347.654
347.24
346.97
347.066
347.448
347.93
348.619
349.23
349.622
349.918
349.982
349.808
349.412
348.842
348.13
347.335
346.781
346.513
346.604
346.868
339.802
339.512
339.332
339.26
339.633
340.096
340.53
341.016
341.45
341.728
341.763
341.618
341.243
340.759
340.252
339.667
339.192
338.827
338.974
339.212
331.563
331.284
331.193
331.269
331.403
331.828
332.205
332.572
332.778
333.04
333.056
332.899
332.727
332.276
331.891
331.373
331.038
330.932
330.907
331.112
322.957
322.679
322.626
322.739
322.864
323.058
323.352
323.609
323.815
323.901
324.015
323.865
323.711
323.349
323.108
322.767
322.561
322.427
322.47
322.561
313.993
313.809
313.781
313.802
313.915
313.998
314.184
314.327
314.447
314.562
314.535
314.489
314.444
314.257
314.039
313.85
313.762
313.648
313.627
313.756
304.748
304.656
304.643
304.711
304.664
304.756
304.872
304.825
304.961
304.904
304.931
304.916
304.852
304.746
304.78
304.675
304.647
304.616
304.632
304.581
361.993
361.332
360.983
361.293
361.764
362.644
363.517
364.451
365.243
365.707
365.751
365.56
364.877
364.001
362.826
361.796
360.86
360.441
360.4
360.941
355.058
354.538
354.298
354.426
354.883
355.57
356.41
357.171
357.83
358.243
358.337
358.114
357.552
356.761
355.86
354.948
354.216
353.773
353.747
354.166
347.679
347.261
347.071
347.167
347.489
348.105
348.841
349.44
350.024
350.306
350.421
350.254
349.795
349.078
348.367
347.569
347.05
346.592
346.576
346.924
339.951
339.537
339.331
339.448
339.789
340.234
340.77
341.263
341.682
341.991
342.045
341.983
341.534
341.042
340.399
339.812
339.318
339.027
339.041
339.252
331.564
331.313
331.21
331.328
331.539
331.915
332.278
332.696
333.043
333.237
333.309
333.125
332.898
332.481
332.064
331.58
331.111
330.927
331
331.059
322.916
322.804
322.728
322.723
322.867
323.245
323.463
323.656
323.911
324.082
324.162
324.188
323.85
323.648
323.26
322.868
322.631
322.543
322.554
322.608
313.961
313.825
313.822
313.852
313.935
314.086
314.27
314.426
314.527
314.62
314.72
314.662
314.433
314.34
314.083
313.975
313.82
313.675
313.659
313.714
304.668
304.695
304.667
304.61
304.786
304.667
304.796
304.928
304.964
304.892
304.965
304.929
304.917
304.794
304.788
304.735
304.706
304.557
304.679
304.644
362.173
361.524
361.301
361.497
362.111
363.017
363.999
364.927
365.856
366.38
366.599
366.285
365.566
364.598
363.413
362.309
361.334
360.727
360.838
361.153
355.179
354.706
354.512
354.705
355.14
355.971
356.816
357.581
358.312
358.817
358.899
358.737
358.241
357.366
356.365
355.282
354.461
353.957
354.009
354.398
347.851
347.386
347.218
347.323
347.815
348.391
349.111
349.873
350.446
350.736
350.908
350.713
350.313
349.554
348.726
347.864
347.161
346.843
346.885
347.124
339.986
339.661
339.521
339.627
339.974
340.365
341.003
341.595
342.117
342.396
342.513
342.376
341.877
341.396
340.697
340.067
339.503
339.246
339.163
339.381
331.715
331.557
331.358
331.377
331.686
332.092
332.597
332.948
333.326
333.578
333.607
333.562
333.197
332.735
332.27
331.79
331.356
331.154
331.031
331.227
323.006
322.892
322.777
322.851
323.052
323.271
323.514
323.897
324.247
324.307
324.368
324.337
324.102
323.783
323.432
323.107
322.75
322.563
322.59
322.683
313.97
313.878
313.857
313.918
313.931
314.131
314.339
314.561
314.629
314.802
314.764
314.761
314.539
314.454
314.211
313.972
313.877
313.67
313.711
313.783
304.707
304.66
304.655
304.707
304.775
304.755
304.891
304.924
304.99
304.946
304.968
304.948
304.979
304.891
304.819
304.773
304.664
304.596
304.628
304.668
362.512
361.942
361.683
361.868
362.539
363.445
364.556
365.642
366.584
367.164
367.388
367.155
366.422
365.348
364.085
362.846
361.835
361.353
361.246
361.519
355.594
355.04
354.775
355.075
355.53
356.472
357.248
358.172
358.924
359.494
359.695
359.45
358.842
357.905
356.871
355.81
354.966
354.486
354.406
354.779
348.086
347.609
347.428
347.686
348.168
348.695
349.504
350.2
350.893
351.355
351.546
351.349
350.908
350.101
349.186
348.34
347.664
347.262
347.125
347.404
340.168
339.822
339.685
339.89
340.268
340.746
341.399
341.934
342.436
342.792
342.998
342.814
342.445
341.767
341.092
340.462
339.87
339.511
339.488
339.578
331.874
331.632
331.546
331.662
331.907
332.256
332.858
333.2
333.65
333.885
333.971
333.84
333.526
333.077
332.534
331.965
331.558
331.301
331.312
331.513
323.088
322.972
322.823
323
323.205
323.396
323.758
324.004
324.321
324.575
324.652
324.512
324.327
323.936
323.619
323.28
322.998
322.747
322.758
322.787
314.088
314
313.924
314.017
314.101
314.192
314.429
314.602
314.772
314.911
314.876
314.897
314.732
314.58
314.388
314.054
313.935
313.831
313.864
313.923
304.735
304.803
304.655
304.733
304.789
304.777
304.881
304.898
305.008
305.083
305.059
304.991
305.024
304.896
304.806
304.709
304.738
304.672
304.667
304.698
363.072
362.374
362.127
362.415
363.129
364.072
365.157
366.272
367.337
368.079
368.294
368.011
367.148
366.094
364.846
363.491
362.501
361.875
361.812
362.081
355.914
355.444
355.269
355.429
356.14
356.814
357.825
358.743
359.554
360.129
360.403
360.16
359.533
358.555
357.467
356.388
355.498
354.966
354.909
355.129
348.458
348.03
347.886
348.08
348.487
349.186
349.944
350.78
351.37
352.004
352.127
351.879
351.407
350.666
349.72
348.813
348.026
347.637
347.603
347.701
340.433
340.136
340.03
340.156
340.509
341.05
341.764
342.382
342.892
343.285
343.462
343.281
342.893
342.204
341.436
340.728
340.151
339.847
339.723
339.966
332
331.819
331.674
331.864
332.096
332.6
333.093
333.494
333.926
334.23
334.343
334.239
333.935
333.452
332.88
332.321
331.961
331.6
331.449
331.676
323.281
323.103
322.978
323.108
323.294
323.625
323.966
324.277
324.557
324.871
324.917
324.749
324.598
324.256
323.79
323.425
323.163
322.979
322.908
322.98
314.14
314.062
314.076
314.105
314.176
314.281
314.607
314.749
314.901
315.089
315.153
315.004
314.977
314.693
314.434
314.269
314.031
313.958
313.907
313.975
304.765
304.737
304.743
304.76
304.832
304.903
304.846
304.898
305.084
305.099
305.144
304.974
305.023
304.906
304.905
304.778
304.717
304.787
304.634
304.708
363.455
362.962
362.743
362.99
363.683
364.696
365.886
367.057
368.089
368.901
369.142
368.8
368.079
366.882
365.506
364.241
363.219
362.504
362.484
362.666
356.394
355.961
355.839
355.976
356.598
357.408
358.362
359.368
360.344
360.973
361.091
360.876
360.196
359.198
358.112
357.06
356.159
355.544
355.402
355.701
348.771
348.392
348.326
348.529
349.009
349.618
350.521
351.31
352.036
352.445
352.748
352.531
351.981
351.174
350.272
349.307
348.509
348.119
347.998
348.171
340.703
340.441
340.386
340.507
340.909
341.441
342.036
342.72
343.4
343.745
343.879
343.812
343.323
342.652
341.951
341.183
340.706
340.184
340.077
340.298
332.265
332.089
331.935
332.087
332.347
332.837
333.261
333.72
334.321
334.612
334.724
334.673
334.261
333.753
333.173
332.617
332.176
331.817
331.834
331.905
323.439
323.336
323.166
323.276
323.492
323.819
324.181
324.569
324.821
325.113
325.123
324.999
324.855
324.52
324.095
323.643
323.34
323.201
323.085
323.194
314.224
314.179
314.184
314.163
314.291
314.492
314.707
314.889
315.112
315.206
315.33
315.143
315.012
314.784
314.614
314.38
314.15
314.106
314.028
314.055
304.812
304.768
304.719
304.739
304.825
304.842
304.975
305.102
305.073
305.116
305.091
305.221
305.136
305.037
304.957
304.828
304.823
304.73
304.755
304.753
364.227
363.673
363.483
363.726
364.42
365.376
366.544
367.802
368.817
369.661
369.977
369.661
368.834
367.74
366.354
365.014
363.997
363.199
363.162
363.321
356.861
356.435
356.361
356.608
357.184
357.988
358.924
359.949
360.913
361.53
361.892
361.667
360.849
359.976
358.807
357.676
356.769
356.252
356.004
356.225
349.213
348.883
348.841
349.01
349.361
350.139
350.894
351.785
352.612
353.091
353.321
353.177
352.594
351.739
350.878
349.848
349.106
348.652
348.546
348.677
341.119
340.827
340.828
340.88
341.286
341.893
342.468
343.142
343.778
344.207
344.415
344.26
343.832
343.179
342.353
341.612
340.986
340.637
340.512
340.713
332.605
332.388
332.361
332.509
332.79
333.114
333.6
334.062
334.589
335.006
335.09
335.007
334.572
334.138
333.516
332.933
332.519
332.189
332.159
332.183
323.592
323.46
323.398
323.58
323.752
324.027
324.35
324.761
325.109
325.304
325.425
325.447
325.11
324.76
324.348
323.911
323.636
323.385
323.234
323.402
314.304
314.282
314.17
314.287
314.463
314.657
314.809
314.994
315.122
315.355
315.438
315.323
315.202
315.038
314.743
314.512
314.302
314.203
314.127
314.158
304.768
304.856
304.835
304.855
304.825
304.9
305.034
305.087
305.125
305.242
305.171
305.116
305.02
305.084
304.934
304.851
304.926
304.759
304.706
304.844
364.819
364.306
364.287
364.548
365.188
366.048
367.143
368.42
369.543
370.368
370.774
370.533
369.688
368.456
367.061
365.829
364.73
364.086
363.765
364.128
357.448
357.075
356.956
357.203
357.727
358.574
359.572
360.505
361.549
362.244
362.502
362.246
361.606
360.578
359.384
358.27
357.485
356.788
356.694
356.886
349.657
349.301
349.188
349.487
349.959
350.589
351.431
352.22
353.061
353.587
353.895
353.703
353.142
352.252
351.35
350.361
349.58
349.144
348.982
349.168
341.49
341.199
341.151
341.249
341.686
342.22
342.913
343.583
344.136
344.568
344.77
344.728
344.22
343.539
342.767
342.096
341.447
341.087
340.982
341.135
332.81
332.677
332.64
332.795
332.98
333.383
333.927
334.483
334.94
335.298
335.419
335.321
335.045
334.565
333.845
333.314
332.763
332.512
332.525
332.542
323.819
323.666
323.64
323.723
323.862
324.25
324.556
325.005
325.324
325.557
325.654
325.572
325.393
324.96
324.562
324.198
323.905
323.568
323.531
323.591
314.492
314.357
314.402
314.443
314.539
314.817
314.921
315.194
315.319
315.533
315.459
315.556
315.325
315.262
314.844
314.771
314.446
314.345
314.255
314.333
304.919
304.918
304.815
304.924
304.915
304.972
305.016
305.134
305.219
305.23
305.255
305.26
305.159
305.091
305.018
304.948
304.912
304.866
304.813
304.837
365.544
365.065
364.918
365.127
365.802
366.713
367.917
369.11
370.138
370.978
371.395
371.181
370.329
369.12
367.673
366.48
365.513
364.791
364.532
364.847
358.051
357.745
357.6
357.801
358.345
359.134
360.058
361.017
361.978
362.768
363.055
362.773
362.138
361.175
359.978
358.853
358.034
357.512
357.371
357.511
350.184
349.867
349.824
349.982
350.445
351.108
351.879
352.691
353.451
354.058
354.298
354.123
353.546
352.756
351.808
350.852
350.212
349.735
349.531
349.639
341.843
341.708
341.512
341.691
342.062
342.685
343.249
343.94
344.488
345.012
345.258
345.076
344.665
343.925
343.247
342.416
341.857
341.461
341.36
341.454
333.162
333.025
332.896
333.007
333.385
333.675
334.278
334.755
335.195
335.497
335.682
335.542
335.267
334.77
334.152
333.603
333.142
332.792
332.815
332.793
324.045
323.97
323.883
323.913
324.139
324.412
324.788
325.067
325.506
325.716
325.85
325.816
325.539
325.177
324.757
324.397
324.023
323.85
323.789
323.811
314.595
314.542
314.519
314.53
314.659
314.82
315.031
315.194
315.447
315.657
315.697
315.57
315.558
315.343
315.031
314.807
314.681
314.459
314.448
314.435
304.982
304.87
304.954
304.911
304.916
305.057
305.041
305.122
305.197
305.258
305.3
305.297
305.229
305.195
305.072
305.08
304.916
304.894
304.858
304.81
366.317
365.816
365.641
365.884
366.509
367.424
368.484
369.685
370.711
371.479
371.879
371.646
370.869
369.739
368.4
367.19
366.128
365.518
365.35
365.52
358.689
358.358
358.21
358.516
358.923
359.685
360.609
361.551
362.397
363.132
363.447
363.291
362.654
361.696
360.492
359.531
358.731
358.104
357.925
358.177
350.736
350.391
350.297
350.501
350.936
351.496
352.37
353.085
353.807
354.406
354.666
354.543
353.908
353.237
352.265
351.405
350.652
350.282
350.08
350.189
342.25
342.058
342.01
342.167
342.486
342.957
343.578
344.16
344.827
345.256
345.487
345.342
344.883
344.204
343.535
342.848
342.304
341.901
341.765
341.932
333.527
333.371
333.206
333.393
333.633
333.99
334.564
334.997
335.421
335.752
335.878
335.812
335.438
334.956
334.425
333.89
333.411
333.24
333.105
333.19
324.25
324.097
324.054
324.193
324.417
324.691
324.929
325.341
325.622
325.967
325.983
325.953
325.681
325.331
324.971
324.561
324.312
324.115
324.073
324.129
314.653
314.61
314.693
314.626
314.788
314.996
315.09
315.44
315.536
315.737
315.791
315.691
315.522
315.442
315.138
314.868
314.665
314.602
314.648
314.693
304.968
304.926
304.996
304.986
305.034
305.07
305.112
305.194
305.141
305.283
305.322
305.398
305.248
305.191
305.055
305.011
305.022
304.907
304.977
304.99
367.078
366.566
366.392
366.622
367.17
368.076
369.08
370.161
371.165
371.939
372.259
371.956
371.344
370.135
368.944
367.784
366.836
366.24
366.07
366.268
359.305
358.946
358.87
359.088
359.52
360.23
361.102
361.987
362.907
363.566
363.768
363.653
363.022
362.068
361.054
359.968
359.151
358.809
358.573
358.697
351.276
350.93
350.837
351.027
351.355
351.984
352.745
353.46
354.22
354.685
354.911
354.803
354.269
353.464
352.64
351.818
351.144
350.73
350.616
350.705
342.604
342.479
342.348
342.549
342.897
343.358
343.902
344.567
345.087
345.546
345.667
345.547
345.174
344.64
343.801
343.194
342.646
342.341
342.255
342.278
333.795
333.645
333.544
333.681
333.881
334.271
334.706
335.177
335.586
335.988
336.097
335.997
335.724
335.189
334.674
334.164
333.747
333.486
333.422
333.453
324.484
324.362
324.363
324.382
324.604
324.89
325.168
325.475
325.8
326.085
326.085
326.026
325.793
325.525
325.162
324.801
324.416
324.259
324.287
324.267
314.943
314.824
314.794
314.857
314.972
315.106
315.261
315.434
315.65
315.772
315.851
315.788
315.712
315.545
315.299
315.031
314.861
314.763
314.719
314.752
304.989
304.968
304.911
304.986
305.047
305.062
305.046
305.19
305.251
305.345
305.305
305.397
305.236
305.221
305.118
305.074
304.992
304.958
305
304.912
367.805
367.31
367.148
367.341
367.94
368.649
369.544
370.671
371.524
372.212
372.566
372.257
371.699
370.581
369.497
368.389
367.504
366.977
366.83
367.072
359.974
359.642
359.503
359.669
360.102
360.787
361.636
362.455
363.152
363.815
364.026
363.882
363.286
362.438
361.452
360.59
359.784
359.332
359.124
359.326
351.751
351.426
351.329
351.534
351.861
352.434
353.085
353.799
354.495
355.058
355.217
354.941
354.581
353.817
353.015
352.285
351.536
351.244
351.191
351.172
343.156
342.929
342.829
342.927
343.257
343.665
344.278
344.819
345.344
345.695
345.844
345.725
345.394
344.807
344.145
343.547
342.992
342.703
342.675
342.744
334.122
334.014
333.881
333.983
334.248
334.555
334.978
335.45
335.795
336.133
336.199
336.18
335.839
335.41
334.894
334.507
334.016
333.767
333.753
333.742
324.718
324.524
324.564
324.717
324.785
325.01
325.301
325.626
325.929
326.12
326.181
326.099
325.953
325.736
325.293
324.911
324.619
324.505
324.449
324.581
314.954
314.951
314.901
314.898
315.024
315.322
315.374
315.564
315.69
315.864
315.883
315.911
315.798
315.525
315.411
315.202
314.98
314.817
314.815
314.923
305.091
305.084
305.092
305.033
305.076
305.162
305.212
305.223
305.289
305.417
305.304
305.418
305.258
305.221
305.098
305.128
305.075
305.064
305.041
305.074
368.6
368.091
367.902
368.049
368.57
369.32
370.138
370.983
371.894
372.528
372.795
372.535
372.003
371.014
369.926
368.953
368.179
367.561
367.423
367.832
360.626
360.282
360.144
360.212
360.649
361.26
362.076
362.8
363.551
364.021
364.21
364.132
363.588
362.762
361.889
361.001
360.387
359.898
359.777
359.981
352.321
352.019
351.937
352.059
352.347
352.821
353.489
354.111
354.756
355.086
355.245
355.261
354.781
354.018
353.366
352.617
352.094
351.714
351.645
351.733
343.597
343.379
343.269
343.409
343.661
344.039
344.488
345.069
345.529
345.858
345.993
345.914
345.577
344.975
344.432
343.859
343.465
343.144
343.017
343.049
334.467
334.323
334.291
334.247
334.482
334.812
335.197
335.536
335.947
336.241
336.331
336.209
335.942
335.537
335.142
334.712
334.329
334.124
334.064
334.1
324.943
324.829
324.892
324.881
324.997
325.242
325.552
325.789
326.038
326.234
326.275
326.254
326.014
325.718
325.492
325.144
324.924
324.744
324.675
324.746
315.166
315.081
315.133
315.154
315.22
315.281
315.431
315.65
315.89
315.899
315.943
315.902
315.851
315.656
315.424
315.296
315.134
315.056
315.051
314.996
305.135
305.121
305.055
305.118
305.147
305.189
305.192
305.328
305.368
305.329
305.325
305.419
305.332
305.248
305.215
305.119
305.097
305.034
305.045
305.124
369.359
368.93
368.681
368.84
369.221
369.911
370.667
371.576
372.297
372.792
372.999
372.8
372.19
371.387
370.416
369.566
368.779
368.399
368.27
368.512
361.325
360.988
360.821
360.825
361.206
361.856
362.507
363.245
363.876
364.27
364.375
364.22
363.745
362.999
362.261
361.52
360.911
360.367
360.434
360.527
352.982
352.608
352.468
352.541
352.825
353.28
353.832
354.401
354.917
355.4
355.445
355.303
355
354.377
353.679
353.099
352.546
352.305
352.187
352.357
344.04
343.873
343.765
343.824
344.02
344.388
344.843
345.369
345.758
346.027
346.104
345.954
345.816
345.197
344.775
344.122
343.775
343.566
343.362
343.587
334.817
334.673
334.564
334.543
334.804
335.046
335.413
335.814
336.139
336.317
336.329
336.335
336.111
335.644
335.28
335.037
334.581
334.402
334.361
334.356
325.186
325.048
325.029
324.956
325.177
325.431
325.656
325.954
326.133
326.27
326.346
326.319
326.14
325.835
325.592
325.337
325.049
324.948
324.937
325.016
315.353
315.264
315.16
315.293
315.347
315.379
315.508
315.768
315.798
315.976
315.921
315.996
315.845
315.711
315.483
315.316
315.273
315.112
315.169
315.129
305.199
305.156
305.221
305.124
305.145
305.174
305.278
305.286
305.428
305.419
305.468
305.377
305.44
305.312
305.222
305.124
305.105
305.182
305.16
305.147
370.213
369.728
369.441
369.533
369.954
370.576
371.257
371.965
372.614
373.04
373.187
373.031
372.534
371.733
370.861
370.084
369.406
369.026
368.953
369.276
362.018
361.658
361.434
361.498
361.868
362.375
362.926
363.648
364.13
364.471
364.717
364.474
364.066
363.486
362.703
361.919
361.482
361.044
361.125
361.201
353.445
353.251
352.996
352.98
353.363
353.78
354.219
354.772
355.249
355.549
355.664
355.465
355.166
354.588
354.134
353.474
352.909
352.626
352.635
352.81
344.552
344.23
344.128
344.299
344.415
344.741
345.097
345.548
345.926
346.164
346.342
346.19
345.884
345.403
344.957
344.496
344.093
343.839
343.841
344.001
335.169
334.999
334.812
334.932
335.137
335.343
335.68
335.947
336.292
336.411
336.578
336.419
336.217
335.895
335.566
335.186
334.846
334.66
334.63
334.78
325.477
325.327
325.309
325.304
325.452
325.655
325.864
326.07
326.252
326.461
326.552
326.398
326.202
325.998
325.733
325.491
325.317
325.175
325.148
325.255
315.494
315.386
315.295
315.293
315.413
315.557
315.703
315.824
315.919
316.078
316.036
315.999
315.911
315.722
315.643
315.405
315.315
315.222
315.191
315.271
305.192
305.202
305.286
305.25
305.275
305.18
305.261
305.315
305.424
305.28
305.314
305.382
305.427
305.271
305.251
305.112
305.18
305.102
305.25
305.132
371.104
370.574
370.254
370.394
370.65
371.051
371.843
372.43
373.014
373.347
373.442
373.262
372.898
372.193
371.401
370.695
370.072
369.677
369.69
370.017
362.783
362.35
362.092
362.167
362.371
362.972
363.465
363.973
364.368
364.728
364.859
364.713
364.295
363.812
363.07
362.386
361.952
361.692
361.683
361.878
354.062
353.75
353.569
353.622
353.829
354.088
354.617
355.166
355.405
355.733
355.798
355.74
355.421
355.021
354.353
353.834
353.456
353.202
353.178
353.392
345.089
344.756
344.607
344.617
344.862
345.146
345.499
345.842
346.113
346.351
346.439
346.314
346.124
345.7
345.254
344.811
344.465
344.298
344.274
344.475
335.566
335.463
335.254
335.295
335.357
335.611
335.824
336.139
336.466
336.568
336.642
336.609
336.402
336.103
335.723
335.46
335.088
335.096
334.979
335.16
325.735
325.678
325.508
325.633
325.621
325.767
326.011
326.193
326.42
326.544
326.509
326.48
326.405
326.162
325.906
325.673
325.407
325.35
325.403
325.37
315.557
315.513
315.49
315.503
315.536
315.713
315.795
315.943
316.052
316.045
316.109
316.121
315.988
315.809
315.732
315.641
315.427
315.41
315.429
315.433
305.253
305.26
305.241
305.291
305.282
305.27
305.326
305.4
305.4
305.388
305.387
305.418
305.316
305.263
305.276
305.248
305.26
305.159
305.165
305.226
371.935
371.459
371.074
371.166
371.298
371.812
372.326
372.979
373.347
373.691
373.766
373.581
373.192
372.605
371.881
371.151
370.733
370.421
370.51
370.828
363.568
363.089
362.825
362.858
363.063
363.5
363.84
364.436
364.716
364.988
365.071
364.939
364.64
364.095
363.441
362.92
362.561
362.21
362.369
362.681
354.658
354.347
354.119
354.096
354.347
354.648
354.993
355.402
355.743
355.964
356.051
355.976
355.633
355.216
354.761
354.222
353.873
353.673
353.765
353.939
345.56
345.199
345.036
345.101
345.181
345.413
345.815
346.068
346.322
346.466
346.558
346.487
346.249
345.949
345.54
345.203
344.792
344.681
344.797
344.932
335.955
335.764
335.616
335.636
335.728
335.922
336.155
336.413
336.551
336.814
336.832
336.74
336.511
336.265
335.973
335.678
335.448
335.389
335.33
335.417
326.031
325.816
325.835
325.828
325.879
325.962
326.156
326.34
326.517
326.599
326.662
326.54
326.425
326.216
326.024
325.87
325.686
325.548
325.615
325.668
315.745
315.608
315.653
315.628
315.69
315.686
315.831
315.971
316.076
316.101
316.147
316.099
316.071
315.927
315.768
315.719
315.581
315.571
315.454
315.519
305.304
305.307
305.284
305.28
305.328
305.317
305.355
305.396
305.358
305.401
305.38
305.45
305.332
305.421
305.344
305.314
305.263
305.227
305.233
305.326
372.795
372.228
371.924
371.845
372.082
372.412
372.836
373.403
373.883
374.061
374.147
373.917
373.595
373.001
372.496
371.905
371.382
371.196
371.256
371.688
364.219
363.826
363.604
363.416
363.726
363.888
364.341
364.799
365.051
365.359
365.382
365.173
364.888
364.485
363.96
363.475
363.081
362.951
362.961
363.324
355.349
354.903
354.679
354.616
354.799
355.125
355.398
355.761
356.024
356.243
356.274
356.171
355.855
355.475
355.059
354.702
354.367
354.208
354.279
354.512
345.941
345.658
345.585
345.432
345.606
345.849
346.124
346.378
346.551
346.769
346.832
346.704
346.566
346.133
345.831
345.455
345.203
345.079
345.106
345.366
336.256
336.064
335.902
335.899
335.936
336.137
336.43
336.513
336.753
336.9
337.009
336.89
336.782
336.446
336.196
335.934
335.731
335.635
335.663
335.841
326.228
326.168
325.979
326.003
326.086
326.205
326.301
326.466
326.606
326.734
326.655
326.739
326.562
326.352
326.241
326.007
325.891
325.805
325.861
325.951
315.945
315.83
315.743
315.76
315.796
315.882
315.967
316.044
316.176
316.134
316.241
316.164
316.156
316.001
315.923
315.751
315.724
315.645
315.674
315.654
305.344
305.378
305.287
305.257
305.326
305.396
305.394
305.354
305.385
305.479
305.494
305.525
305.376
305.405
305.377
305.29
305.354
305.265
305.244
305.302
373.495
372.959
372.542
372.436
372.624
372.926
373.415
373.808
374.105
374.396
374.45
374.21
373.914
373.479
372.877
372.307
371.934
371.864
371.966
372.366
364.754
364.37
363.988
363.971
364.02
364.358
364.732
365.061
365.389
365.58
365.569
365.479
365.178
364.838
364.363
363.827
363.499
363.36
363.439
363.868
355.718
355.357
355.093
355.07
355.229
355.4
355.709
356.031
356.244
356.352
356.445
356.336
356.176
355.795
355.325
355.043
354.625
354.598
354.701
354.889
346.345
346.044
345.823
345.769
345.863
346.071
346.364
346.585
346.809
346.924
346.939
346.856
346.589
346.367
345.981
345.715
345.523
345.397
345.639
345.725
336.59
336.35
336.129
336.172
336.282
336.348
336.557
336.678
336.949
336.997
337.047
336.981
336.794
336.603
336.314
336.051
335.898
335.865
335.92
336.125
326.482
326.298
326.099
326.174
326.189
326.34
326.501
326.582
326.68
326.713
326.784
326.786
326.616
326.43
326.299
326.133
326.074
325.992
326.01
326.084
316.055
315.966
315.93
315.811
315.9
315.947
316.016
316.156
316.185
316.212
316.245
316.257
316.096
316.117
315.981
315.835
315.754
315.739
315.708
315.773
305.458
305.346
305.351
305.318
305.357
305.278
305.393
305.495
305.41
305.509
305.405
305.389
305.396
305.516
305.333
305.305
305.35
305.331
305.323
305.295
)
;

boundaryField
{
    hotSide
    {
        type            fixedGradient;
        gradient        nonuniform List<scalar> 
400
(
321.511
322.87
325.591
329.677
335.133
341.965
350.181
359.788
370.794
383.208
397.037
412.289
428.971
447.088
466.647
487.651
510.105
534.011
559.372
586.191
323.738
325.08
327.767
331.802
337.194
343.949
352.078
361.591
372.498
384.81
398.537
413.687
430.268
448.289
467.755
488.672
511.043
534.872
560.161
586.913
326.149
327.47
330.116
334.091
339.406
346.071
354.099
363.503
374.296
386.491
400.101
415.136
431.606
449.52
468.885
489.706
511.988
535.735
560.948
587.63
328.704
330
332.597
336.503
341.73
348.292
356.205
365.485
376.15
388.215
401.695
416.604
432.954
450.753
470.009
490.73
512.919
536.579
561.714
588.325
331.33
332.599
335.142
338.97
344.099
350.546
358.332
367.477
378.003
389.928
403.271
418.047
434.27
451.949
471.095
491.712
513.807
537.382
562.439
588.978
333.918
335.158
337.643
341.389
346.414
352.74
360.392
369.397
379.779
391.562
404.765
419.407
435.503
453.065
472.101
492.618
514.622
538.114
563.096
589.569
336.321
337.531
339.959
343.622
348.544
354.751
362.274
371.142
381.385
393.031
406.101
420.618
436.595
454.047
472.983
493.409
515.33
538.747
563.663
590.076
338.36
339.543
341.92
345.509
350.339
356.44
363.847
372.595
382.718
394.244
407.2
421.608
437.485
454.844
473.695
494.045
515.897
539.253
564.114
590.478
339.852
341.015
343.352
346.885
351.645
357.665
364.985
373.643
383.675
395.113
407.984
422.312
438.116
455.407
474.197
494.491
516.294
539.606
564.428
590.758
340.643
341.795
344.11
347.613
352.334
358.311
365.584
374.193
384.176
395.567
408.393
422.679
438.443
455.699
474.456
494.722
516.498
539.788
564.589
590.901
340.643
341.795
344.11
347.613
352.334
358.311
365.584
374.193
384.176
395.567
408.393
422.679
438.443
455.699
474.456
494.722
516.498
539.788
564.589
590.901
339.852
341.015
343.352
346.885
351.645
357.665
364.985
373.643
383.675
395.113
407.984
422.312
438.116
455.407
474.197
494.491
516.294
539.606
564.428
590.758
338.36
339.543
341.92
345.509
350.339
356.44
363.847
372.595
382.718
394.244
407.2
421.608
437.485
454.844
473.695
494.045
515.897
539.253
564.114
590.478
336.321
337.531
339.959
343.622
348.544
354.751
362.274
371.142
381.385
393.031
406.101
420.618
436.595
454.047
472.983
493.409
515.33
538.747
563.663
590.076
333.918
335.158
337.643
341.389
346.414
352.74
360.392
369.397
379.779
391.562
404.765
419.407
435.503
453.065
472.101
492.618
514.622
538.114
563.096
589.569
331.33
332.599
335.142
338.97
344.099
350.546
358.332
367.477
378.003
389.928
403.271
418.047
434.27
451.949
471.095
491.712
513.807
537.382
562.439
588.978
328.704
330
332.597
336.503
341.73
348.292
356.205
365.485
376.15
388.215
401.695
416.604
432.954
450.753
470.009
490.73
512.919
536.579
561.714
588.325
326.149
327.47
330.116
334.091
339.406
346.071
354.099
363.503
374.296
386.491
400.101
415.136
431.606
449.52
468.885
489.706
511.988
535.735
560.948
587.63
323.738
325.08
327.767
331.802
337.194
343.949
352.078
361.591
372.498
384.81
398.537
413.687
430.268
448.289
467.755
488.672
511.043
534.872
560.161
586.913
321.511
322.87
325.591
329.677
335.133
341.965
350.181
359.788
370.794
383.208
397.037
412.289
428.971
447.088
466.647
487.651
510.105
534.011
559.372
586.191
)
;
    }
    coldSide
    {
        type            mixed;
        refValue        uniform 300;
        refGradient     uniform 0;
        valueFraction   uniform 0.991591;
        source          uniform 0;
        value           nonuniform List<scalar> 
400
(
300.04
300.04
300.039
300.04
300.04
300.04
300.04
300.04
300.041
300.042
300.042
300.042
300.043
300.043
300.044
300.044
300.044
300.045
300.045
300.046
300.04
300.039
300.039
300.039
300.04
300.04
300.04
300.041
300.041
300.041
300.041
300.042
300.043
300.043
300.043
300.044
300.044
300.045
300.045
300.045