/*--------------------------------*- C++ -*----------------------------------*\
| =========                 |                                                 |
| \\      /  F ield         | OpenFOAM: The Open Source CFD Toolbox           |
|  \\    /   O peration     | Version:  2212                                  |
|   \\  /    A nd           | Website:  www.openfoam.com                      |
|    \\/     M anipulation  |                                                 |
\*---------------------------------------------------------------------------*/
FoamFile
{
    version     2.0;
    format      ascii;
    arch        "LSB;label=32;scalar=64";
    class       volScalarField;
    location    "./ITHACAoutput/true/14.2";
    object      error;
}
// * * * * * * * * * * * * * * * * * * * * * * * * * * * * * * * * * * * * * //

dimensions      [0 0 0 1 0 0 0];

internalField   nonuniform List<scalar> 
3200
(
3.76923
3.69493
3.54936
3.48959
3.59613
3.7505
3.84176
4.06728
4.27917
4.27309
4.32636
4.28528
4.18088
4.15176
4.00717
3.96417
3.84316
3.98617
4.08862
4.13895
3.49797
3.33416
3.25416
3.28068
3.29489
3.33933
3.53956
3.66216
3.81356
3.86893
3.90835
3.83112
3.73022
3.76369
3.56506
3.51309
3.48783
3.52882
3.59489
3.79586
2.99513
2.91106
2.82754
2.83478
2.85921
2.98142
3.10346
3.15615
3.30018
3.37611
3.34944
3.3497
3.24466
3.19482
3.15653
3.04131
2.97904
3.09858
3.05809
3.16308
2.46333
2.47186
2.32951
2.34777
2.31521
2.48908
2.53515
2.67971
2.75206
2.84196
2.80205
2.75191
2.75933
2.63367
2.62548
2.5352
2.44686
2.51197
2.55265
2.65601
1.89501
1.90235
1.89302
1.83886
1.91923
1.98527
2.07716
2.09596
2.14049
2.2464
2.13742
2.18167
2.09138
2.16195
2.05219
2.00397
2.01233
2.03072
2.08331
2.12278
1.41694
1.36141
1.37872
1.36725
1.29883
1.39867
1.43494
1.47173
1.56303
1.57147
1.62248
1.56548
1.54308
1.49597
1.46745
1.40502
1.316
1.41841
1.46139
1.54261
0.861553
0.719524
0.757848
0.773817
0.839516
0.81378
0.858635
0.933665
1.00953
0.963296
0.992747
0.976465
0.929314
0.95067
0.878657
0.907774
0.849115
0.758706
0.866727
0.857011
0.27028
0.254817
0.226702
0.264143
0.268793
0.302646
0.226571
0.324381
0.339853
0.298222
0.328183
0.288905
0.384642
0.38911
0.306366
0.341879
0.303818
0.321592
0.304512
0.325786
3.17901
3.05219
2.97829
2.87481
2.94545
3.04221
3.22724
3.37084
3.46507
3.61508
3.54005
3.52412
3.47984
3.29204
3.21818
3.20819
3.13967
3.23018
3.39529
3.62636
2.94421
2.79249
2.67799
2.60637
2.77626
2.82703
2.94174
2.96622
3.1834
3.26142
3.22668
3.23126
3.16851
3.06465
2.98851
2.95555
2.87621
2.90143
3.06247
3.19461
2.58735
2.41466
2.35815
2.36459
2.45993
2.4861
2.57583
2.726
2.80685
2.81799
2.84447
2.89086
2.72375
2.70041
2.64547
2.51305
2.5376
2.58483
2.69904
2.76159
2.14922
2.06082
2.01134
2.03309
2.04863
2.14027
2.13939
2.25812
2.34147
2.38279
2.41906
2.35661
2.34725
2.24915
2.24621
2.16267
2.15086
2.15021
2.20856
2.33406
1.70199
1.6364
1.60381
1.59081
1.67719
1.63611
1.74968
1.77259
1.876
1.92181
1.91446
1.84157
1.88855
1.83444
1.79622
1.77477
1.68002
1.73144
1.80346
1.83608
1.2665
1.15211
1.13941
1.16374
1.22314
1.19318
1.26634
1.30057
1.3023
1.40935
1.34708
1.37188
1.34789
1.34072
1.23156
1.29839
1.24458
1.26516
1.27602
1.33391
0.75042
0.786445
0.71061
0.706473
0.768445
0.718869
0.800797
0.828857
0.837385
0.797561
0.830752
0.824305
0.805596
0.764771
0.772657
0.76469
0.695054
0.743598
0.718243
0.78592
0.24393
0.188747
0.251544
0.17263
0.307358
0.244423
0.209196
0.179517
0.300053
0.297662
0.349454
0.275814
0.240859
0.223822
0.230316
0.233264
0.20378
0.279333
0.251227
0.298703
2.47371
2.26165
2.13351
1.98815
2.0738
2.11398
2.24238
2.33139
2.50158
2.63061
2.56265
2.55703
2.49952
2.46432
2.30006
2.2367
2.2685
2.42655
2.58836
2.83638
2.28437
2.17687
2.02871
2.05248
1.99445
2.08397
2.13184
2.3063
2.31401
2.44069
2.536
2.43036
2.4099
2.31063
2.20423
2.11543
2.18733
2.27763
2.36354
2.54544
2.04465
1.92307
1.87099
1.77718
1.79753
1.85243
1.99261
2.08079
2.07433
2.19219
2.21725
2.17116
2.09696
2.07368
1.98672
1.93008
1.9522
1.95399
2.10781
2.28754
1.79467
1.66357
1.56937
1.58357
1.5461
1.60295
1.74714
1.84473
1.79326
1.92805
1.92368
1.91812
1.79849
1.78369
1.75969
1.59226
1.65018
1.69554
1.85773
1.8912
1.47355
1.33855
1.26696
1.23017
1.28849
1.33652
1.43111
1.47512
1.45061
1.55783
1.53833
1.50891
1.43847
1.44104
1.31236
1.40638
1.3756
1.31459
1.41105
1.51744
1.02087
1.02669
0.920588
0.96079
0.94195
1.0313
1.00638
0.97971
1.09168
1.19278
1.19239
1.10991
1.09152
1.03047
1.02322
1.01442
1.00765
1.00925
1.07702
1.10856
0.661044
0.608877
0.557444
0.552438
0.519834
0.581077
0.67016
0.677764
0.658524
0.704403
0.755771
0.645112
0.68666
0.636001
0.633584
0.598632
0.559944
0.596322
0.65886
0.585914
0.187311
0.13369
0.221341
0.187421
0.191617
0.241326
0.266786
0.211502
0.223763
0.258955
0.223697
0.177783
0.218262
0.204464
0.259666
0.192033
0.169945
0.203592
0.167506
0.248105
1.7534
1.49009
1.34817
1.2169
1.19393
1.25221
1.35124
1.42104
1.56744
1.64578
1.65942
1.59179
1.51359
1.50219
1.40849
1.46011
1.51431
1.64448
1.88579
2.0638
1.70328
1.5268
1.36216
1.34151
1.32185
1.30899
1.39754
1.55877
1.54811
1.58735
1.69269
1.63378
1.56676
1.53069
1.44911
1.4244
1.44945
1.53672
1.76121
1.97351
1.62403
1.42593
1.30934
1.23685
1.21778
1.2578
1.28614
1.39034
1.52911
1.47187
1.51895
1.48761
1.46534
1.43765
1.35985
1.31934
1.28952
1.39692
1.58436
1.73947
1.34602
1.17201
1.16531
1.13683
1.07542
1.12225
1.18641
1.21408
1.24667
1.33739
1.37119
1.36512
1.35491
1.26117
1.12745
1.17656
1.2391
1.21768
1.41146
1.45703
1.09483
0.978777
0.898541
0.905835
0.943824
0.849615
1.00415
1.02892
1.11133
1.06653
1.07009
1.01058
1.01401
1.04483
0.961083
0.925593
0.979052
1.01619
1.14291
1.18559
0.776654
0.755127
0.674644
0.609822
0.723666
0.754227
0.738083
0.791815
0.76246
0.805357
0.818278
0.830981
0.779857
0.674077
0.673727
0.74282
0.629174
0.76135
0.870281
0.870046
0.559875
0.401224
0.464343
0.359416
0.473486
0.428641
0.455268
0.475741
0.43971
0.507454
0.559674
0.482667
0.455487
0.466783
0.400694
0.368931
0.399727
0.433189
0.488942
0.531758
0.175181
0.135079
0.104667
0.157208
0.186602
0.100121
0.131327
0.205075
0.213076
0.152554
0.219303
0.190497
0.189951
0.133935
0.175994
0.141647
0.152065
0.221782
0.24602
0.112698
1.22224
0.872386
0.712038
0.471211
0.499994
0.438351
0.551631
0.572524
0.711766
0.672398
0.831274
0.725529
0.715432
0.613665
0.630709
0.700225
0.718658
0.87322
1.14238
1.45149
1.22404
0.93257
0.767537
0.626789
0.53765
0.599303
0.713517
0.788563
0.777226
0.883732
0.908014
0.864404
0.828485
0.716789
0.757891
0.789747
0.794547
0.891554
1.1801
1.4059
1.1647
0.990943
0.839917
0.72457
0.679566
0.712476
0.731769
0.80283
0.837931
0.841317
0.821336
0.813581
0.82407
0.821813
0.784929
0.803971
0.879413
0.901355
1.13714
1.2759
1.0181
0.897945
0.722386
0.738501
0.666173
0.636926
0.691052
0.669059
0.872851
0.821725
0.837717
0.820207
0.813666
0.720498
0.623393
0.735967
0.703906
0.836306
0.983826
1.01487
0.849075
0.743049
0.585418
0.555334
0.534074
0.614623
0.652372
0.655981
0.663914
0.716002
0.72126
0.718723
0.692431
0.596933
0.589367
0.618911
0.631913
0.748999
0.769625
0.85665
0.580486
0.565589
0.473031
0.449663
0.481826
0.380936
0.440296
0.517259
0.481472
0.497834
0.500342
0.563217
0.487321
0.454085
0.445349
0.500679
0.478682
0.498792
0.589433
0.58826
0.291702
0.309569
0.237152
0.241824
0.265507
0.329311
0.339691
0.309734
0.361039
0.314903
0.329301
0.313582
0.317281
0.258219
0.234083
0.323616
0.297797
0.283316
0.407627
0.467991
0.0861683
0.18505
0.0761249
0.122263
0.103449
0.0687067
0.0761907
0.0714393
0.164101
0.149805
0.101024
0.111987
0.0852207
0.125686
0.042525
0.0747734
0.11988
0.100665
0.174643
0.106925
0.726924
0.459525
0.138975
-0.0701352
-0.169105
-0.245562
-0.197315
-0.125414
-0.0865128
-0.118232
-0.0415153
-0.0574316
-0.0768493
-0.059813
-0.153274
0.0382772
0.128018
0.346212
0.59213
0.925133
0.773868
0.569344
0.397675
0.169029
0.117377
0.121644
0.0227581
0.164985
0.18957
0.192203
0.166219
0.247099
0.0930681
0.168049
0.130687
0.183292
0.313575
0.470671
0.638721
1.02414
0.798354
0.57687
0.393708
0.242482
0.250662
0.230244
0.200301
0.363093
0.272597
0.369767
0.339483
0.306915
0.256345
0.250305
0.290538
0.319168
0.389203
0.480824
0.72785
0.875055
0.760246
0.518685
0.384289
0.360474
0.190921
0.272841
0.276761
0.37956
0.306656
0.348656
0.363276
0.299802
0.370592
0.356707
0.349971
0.360709
0.358216
0.528647
0.668535
0.834502
0.647183
0.491979
0.351081
0.338689
0.302381
0.289976
0.288858
0.246584
0.325686
0.38843
0.409108
0.323117
0.392026
0.332204
0.305886
0.33109
0.339315
0.423928
0.546689
0.612057
0.505536
0.351917
0.290922
0.197281
0.241405
0.229789
0.209487
0.261796
0.203914
0.266397
0.224677
0.224765
0.268799
0.196034
0.242129
0.343941
0.295347
0.312247
0.43268
0.478478
0.241366
0.239738
0.183737
0.0877876
0.143223
0.0928913
0.219408
0.158486
0.244208
0.232245
0.156224
0.180598
0.172124
0.157307
0.161622
0.194411
0.225377
0.186282
0.258018
0.252452
0.0431719
0.0917519
0.0940248
0.0647078
0.0745966
0.0476768
0.0744275
0.101736
-0.0171674
0.0798768
0.0599228
0.0762591
0.0245699
-0.0194206
0.0183532
-0.0178688
0.0444002
0.112596
0.0456966
0.062146
0.394408
0.0506901
-0.282161
-0.478157
-0.642754
-0.740222
-0.700671
-0.747563
-0.709357
-0.636574
-0.695946
-0.687794
-0.599439
-0.629282
-0.629107
-0.449437
-0.372057
-0.125245
0.217155
0.562248
0.57829
0.269429
-0.0452387
-0.19655
-0.306004
-0.39453
-0.36942
-0.423736
-0.409796
-0.484874
-0.318721
-0.321684
-0.358294
-0.329526
-0.365786
-0.200063
-0.164433
0.0705115
0.420398
0.64623
0.609527
0.358863
0.17119
-0.01256
-0.128508
-0.189106
-0.175866
-0.168627
-0.200853
-0.119635
-0.11882
-0.174307
-0.165366
-0.192606
-0.146373
-0.106897
0.0600376
0.205718
0.444967
0.655895
0.546814
0.336625
0.245186
0.100213
0.0541174
-0.0388328
0.0263256
-0.0757491
-0.0074954
-0.0323398
-0.012115
-0.0360442
0.029365
-0.0288315
-0.0575337
0.0611545
0.109917
0.281535
0.426152
0.603043
0.406363
0.314112
0.222572
0.105586
0.0832512
-0.0130383
0.054933
0.00313842
0.059495
0.0817345
0.0544728
0.0389161
0.0312723
0.0233641
0.102449
0.0842123
0.118982
0.250453
0.37664
0.520185
0.369212
0.304174
0.160138
0.118489
0.103422
0.0175239
0.0276643
0.0499161
0.041918
0.0309567
0.06596
0.0422615
0.0290938
0.0151707
0.0857707
0.0864175
0.169132
0.184401
0.262736
0.33688
0.166213
0.158171
0.180571
0.0710162
0.0420604
-0.0581636
-0.00776998
0.00975412
0.023019
0.054217
0.0618739
0.0252099
0.0628227
0.109619
0.0329216
0.0430546
0.0963916
0.0524337
0.169364
0.225977
0.141261
0.0378942
0.133859
0.0830329
0.0339521
-0.0159606
0.0499884
0.0192483
-0.00653822
-0.00186418
0.0301813
0.0583666
0.0197504
0.0631786
0.0650527
0.0627267
0.134885
0.0652321
0.0633001
0.0969794
0.261632
-0.138325
-0.484987
-0.84278
-1.01994
-1.08595
-1.0912
-1.23414
-1.24298
-1.16589
-1.15393
-1.09834
-1.07342
-1.12891
-1.08263
-0.814185
-0.634143
-0.394373
-0.0304209
0.369417
0.361719
0.148294
-0.158615
-0.491827
-0.610845
-0.689099
-0.786606
-0.830829
-0.70929
-0.780593
-0.797899
-0.750549
-0.780311
-0.675306
-0.668332
-0.519347
-0.38071
-0.130028
0.132775
0.492713
0.454778
0.237595
-0.0150077
-0.235776
-0.392967
-0.441635
-0.421438
-0.536087
-0.493353
-0.484527
-0.530652
-0.471884
-0.42763
-0.490969
-0.398976
-0.32766
-0.171966
0.00843366
0.287305
0.504363
0.497022
0.267806
-0.0480479
-0.168195
-0.163921
-0.289229
-0.253804
-0.313689
-0.321707
-0.281981
-0.353962
-0.288898
-0.273953
-0.214526
-0.182599
-0.196124
-0.0917403
0.0692586
0.268112
0.468192
0.421719
0.300951
0.0778499
0.0355929
-0.0197681
-0.140104
-0.135876
-0.186412
-0.167113
-0.200993
-0.155993
-0.189841
-0.181542
-0.179126
-0.0822362
-0.221105
0.0125173
0.10683
0.295171
0.355222
0.330298
0.225959
0.124251
0.01041
-0.0556674
-0.0830106
-0.0795094
-0.0603595
-0.131595
-0.078605
-0.105056
-0.0748604
-0.139842
-0.0400881
-0.0751142
-0.0783189
0.0464637
0.109553
0.197689
0.254912
0.221573
0.18276
0.107036
0.0140139
0.00570425
0.00741274
-0.0511575
-0.0786809
-0.0602182
-0.0632346
-0.0652329
0.00724891
-0.0531623
-0.0216397
-0.00206629
-0.0203084
0.0162846
0.0518157
0.160328
0.277961
0.0945989
-0.00451122
0.0489559
0.021451
-0.0224479
0.0761781
-0.0328406
-0.00396125
-0.0243879
-0.0311395
0.058845
-0.0223521
0.0275208
0.0395666
-0.015935
0.0460779
0.0148828
0.0676078
0.00726679
0.0722906
0.260747
-0.151142
-0.574562
-0.929096
-1.09757
-1.2652
-1.42394
-1.44676
-1.44178
-1.50049
-1.52353
-1.45931
-1.47625
-1.35556
-1.30954
-1.07295
-0.920807
-0.475766
-0.127653
0.329952
0.398098
0.0701208
-0.241255
-0.586588
-0.770654
-0.898673
-0.990177
-1.02972
-1.04879
-1.00829
-1.11376
-0.982865
-1.00031
-0.920935
-0.879758
-0.748051
-0.506397
-0.290737
0.0468408
0.378571
0.525641
0.237894
-0.0654171
-0.282486
-0.50313
-0.597945
-0.685348
-0.702559
-0.701671
-0.751915
-0.707461
-0.699702
-0.695034
-0.703175
-0.567622
-0.482354
-0.331475
-0.0333593
0.200477
0.425704
0.429596
0.271872
0.102686
-0.138781
-0.324934
-0.36488
-0.438209
-0.508204
-0.49427
-0.470453
-0.51166
-0.461651
-0.481992
-0.424618
-0.442473
-0.273369
-0.132775
-0.0162257
0.294486
0.35881
0.42062
0.248087
0.130022
-0.0474689
-0.198079
-0.171299
-0.334603
-0.352736
-0.288565
-0.216079
-0.336429
-0.356892
-0.285437
-0.170588
-0.187577
-0.185671
-0.0824668
0.013464
0.180927
0.360712
0.299625
0.194523
0.111096
-0.021494
-0.0812921
-0.221958
-0.195308
-0.207968
-0.183011
-0.175529
-0.16246
-0.144518
-0.216029
-0.170462
-0.132901
-0.0897006
0.0229867
0.0104241
0.201436
0.311059
0.233745
0.165061
0.0578605
-0.017109
-0.0251077
-0.00954289
-0.108302
-0.113971
-0.0447679
-0.144588
-0.0520788
-0.0788507
-0.128886
-0.0442202
-0.0777551
-0.0150368
-0.0394565
0.0550802
0.118182
0.155852
0.134124
0.0454934
-0.0193469
-0.0403007
-0.0318924
-0.0157754
-0.0464302
-0.00811615
-0.0783699
-0.0285042
-0.075931
-0.0984904
-0.0243875
-0.0165171
-0.096859
0.0337244
0.0133027
0.0452431
0.0254499
0.0459265
0.453115
0.0262175
-0.473846
-0.812645
-1.10135
-1.3625
-1.45158
-1.56916
-1.64355
-1.56013
-1.6511
-1.58222
-1.53061
-1.43707
-1.40296
-1.07535
-0.851869
-0.549668
0.0229367
0.453307
0.607351
0.201897
-0.201898
-0.480796
-0.801337
-0.911505
-0.99322
-1.06641
-1.09448
-1.17096
-1.12724
-1.14193
-1.10457
-1.06374
-0.899767
-0.768499
-0.515098
-0.192465
0.114425
0.550389
0.666913
0.283638
-0.000678904
-0.221927
-0.468047
-0.520182
-0.726725
-0.784483
-0.793746
-0.818158
-0.879141
-0.755998
-0.826534
-0.722915
-0.629552
-0.46418
-0.308086
-0.0842515
0.256084
0.551697
0.571903
0.329
0.0706038
-0.0995242
-0.300976
-0.429683
-0.409237
-0.495418
-0.52589
-0.562375
-0.58191
-0.524663
-0.534673
-0.494218
-0.438263
-0.327536
-0.124798
0.0844445
0.268731
0.527258
0.513387
0.328797
0.114233
-0.0174563
-0.239843
-0.17856
-0.311285
-0.389164
-0.358067
-0.326889
-0.387039
-0.368461
-0.273022
-0.274399
-0.297313
-0.148449
-0.0222622
0.115945
0.263014
0.435478
0.402251
0.251368
0.0885084
-0.0220466
-0.0516814
-0.142676
-0.117374
-0.230847
-0.192071
-0.194415
-0.278255
-0.239048
-0.24587
-0.258596
-0.136865
-0.108581
-0.057472
0.0334344
0.193615
0.317408
0.209945
0.201226
0.0668587
-0.00636901
-0.00623296
-0.118083
-0.142903
-0.0176943
-0.0269566
-0.176579
-0.127005
-0.162505
-0.0764139
-0.13089
-0.0595445
0.0176551
0.0161368
0.0145533
0.082071
0.277254
0.0951845
0.0154976
0.083325
0.0558633
-0.0137224
-0.0804759
-0.0724303
-0.00284338
0.0459518
-0.0199386
-0.0390677
-0.0549375
-0.0874239
-0.0173579
-0.010095
-0.0193736
0.0422018
-0.0202517
0.0709842
0.0727376
0.837871
0.331315
-0.181315
-0.593519
-0.966411
-1.14547
-1.37748
-1.48765
-1.47748
-1.60636
-1.59966
-1.54932
-1.45018
-1.35194
-1.22092
-0.949881
-0.502949
-0.20869
0.252728
0.750811
0.891719
0.45535
0.106871
-0.269819
-0.617698
-0.793736
-0.987115
-1.00869
-1.02839
-1.06145
-1.12764
-1.09821
-0.95637
-0.986273
-0.858557
-0.608408
-0.320385
-0.00141005
0.418259
0.858569
0.970487
0.553421
0.211687
-0.0987074
-0.313175
-0.513207
-0.601898
-0.721759
-0.733992
-0.774884
-0.836654
-0.774191
-0.72386
-0.66813
-0.472174
-0.400413
-0.0546231
0.0462175
0.484767
0.774314
0.843112
0.542208
0.274866
-0.0231062
-0.201979
-0.329836
-0.370033
-0.553357
-0.552788
-0.533347
-0.57213
-0.506167
-0.493513
-0.46445
-0.310831
-0.244488
-0.0950132
0.130327
0.467651
0.688348
0.6373
0.490497
0.26925
0.0550669
-0.0518753
-0.187105
-0.264752
-0.3331
-0.372297
-0.381276
-0.406599
-0.432617
-0.294453
-0.222459
-0.213238
-0.140481
-0.0159292
0.158242
0.389182
0.608676
0.540106
0.367433
0.213543
0.132316
-0.00554823
-0.0849169
-0.190876
-0.138661
-0.220591
-0.223889
-0.275489
-0.159816
-0.193359
-0.215553
-0.168956
-0.0873795
0.0825726
0.190607
0.290268
0.461181
0.318763
0.188458
0.111676
0.0300951
-0.0214045
-0.0917952
-0.0393106
-0.0835129
-0.184113
-0.14971
-0.107097
-0.0687829
-0.115232
-0.025623
-0.124855
-0.0197093
0.00944844
0.0947961
0.262464
0.289332
0.0704762
0.14007
0.0357502
-0.00638562
-0.000756434
-0.0192459
-0.014399
-0.0172841
-0.0726404
-0.0339672
-0.0114955
-0.0236047
-0.0620763
-0.0309158
0.0365401
-0.0597772
0.0270563
0.0617561
0.0197144
0.0470233
1.38595
0.895945
0.327628
-0.199784
-0.528245
-0.790638
-1.0565
-1.19187
-1.30156
-1.35466
-1.376
-1.33933
-1.23482
-1.01157
-0.85994
-0.61619
-0.242
0.225573
0.708694
1.24977
1.38813
0.964343
0.502874
0.086064
-0.229845
-0.434958
-0.668666
-0.839138
-0.914114
-0.879693
-0.942027
-0.867204
-0.811639
-0.713556
-0.522178
-0.285803
-0.0173964
0.340555
0.822287
1.22553
1.26252
0.956248
0.59372
0.222563
-0.118886
-0.232864
-0.429999
-0.532885
-0.578412
-0.664999
-0.594263
-0.5741
-0.534094
-0.418553
-0.329551
-0.106602
0.203666
0.412537
0.78234
1.11869
1.18146
0.820571
0.547253
0.283478
0.0479975
-0.126736
-0.221777
-0.314468
-0.381851
-0.421279
-0.420747
-0.37843
-0.324217
-0.241872
-0.132867
-0.0127326
0.170742
0.41433
0.738055
0.981444
0.901372
0.73488
0.453597
0.257016
0.0409502
-0.0487359
-0.0839574
-0.17684
-0.204846
-0.254673
-0.28142
-0.211516
-0.150816
-0.149812
-0.122014
0.0398776
0.168554
0.357257
0.602737
0.777143
0.680115
0.470681
0.326336
0.209442
0.121878
-0.0177897
-0.042331
-0.083682
-0.155885
-0.160151
-0.124088
-0.145092
-0.0889882
-0.0619124
-0.0195183
0.115379
0.155934
0.300358
0.393624
0.563771
0.417178
0.318422
0.239088
0.201585
0.0423424
-0.0178072
-0.0212733
-0.0721784
-0.0174279
-0.129258
-0.0810637
-0.0773725
-0.0831931
-0.0190323
-0.00991667
0.050276
0.171412
0.206529
0.280197
0.357574
0.0936815
0.120493
0.120838
0.107036
0.00312236
-0.0486803
0.037386
-0.0153128
0.0133801
-0.0158943
0.0081729
-0.0173166
-0.0294072
-0.00162366
-0.000177018
0.0212562
0.0459408
0.0192373
0.0544192
0.130785
2.10824
1.50891
0.966593
0.436493
0.0514145
-0.255821
-0.519714
-0.746027
-0.800812
-0.880575
-0.953807
-0.864955
-0.77346
-0.588686
-0.326962
0.0510792
0.334858
0.874304
1.45681
1.91189
2.0675
1.52546
1.04333
0.608265
0.237056
-0.0413768
-0.278676
-0.387163
-0.496339
-0.577826
-0.548997
-0.525255
-0.496998
-0.297213
-0.024583
0.184789
0.461963
0.880927
1.38289
1.78985
1.81798
1.43809
1.00424
0.68491
0.326438
0.110941
-0.113586
-0.194164
-0.240382
-0.333799
-0.302758
-0.282071
-0.213176
-0.137147
-0.00584581
0.264701
0.537226
0.855345
1.24443
1.70468
1.57035
1.26444
0.928326
0.649736
0.448632
0.187281
0.0299983
-0.00656956
-0.0814255
-0.122039
-0.157069
-0.195861
-0.14235
0.00781116
0.167532
0.227401
0.437775
0.783037
1.05625
1.40386
1.23116
1.02103
0.757983
0.537245
0.398572
0.253773
0.102234
0.0340272
0.0204798
-0.0968095
-0.0677912
0.00658318
0.0934194
0.0937315
0.116125
0.27478
0.441464
0.711728
0.86607
1.13803
0.890951
0.746421
0.613122
0.429855
0.267961
0.158521
0.0754108
0.0754422
0.0189324
0.00900078
-0.0775731
-0.022086
0.038391
0.135067
0.130026
0.252293
0.365245
0.493626
0.716076
0.84144
0.538576
0.417782
0.355555
0.321667
0.152165
0.119941
0.0437532
-0.0191471
0.0374351
-0.00153696
0.00658703
0.0184485
0.0415122
-0.0249877
0.0855411
0.156921
0.286317
0.26149
0.379234
0.518858
0.219522
0.11244
0.0742754
0.0295925
-0.00855271
0.0177348
0.0989101
-0.0644866
-0.00703586
-0.0583951
-0.0574292
0.0108026
0.0474551
0.0119208
-0.00250929
0.079649
0.0446228
0.150182
0.137972
0.156418
3.07394
2.45677
1.88135
1.24294
0.775807
0.432581
0.124123
-0.0729995
-0.177217
-0.252638
-0.204692
-0.174616
-0.0744464
0.0753413
0.339322
0.731088
1.09525
1.63415
2.23646
2.86228
2.77918
2.40073
1.76609
1.31952
0.882173
0.579079
0.399529
0.189656
0.0422514
-0.00751554
-0.0443673
0.0162251
0.131858
0.26742
0.439804
0.772914
1.09918
1.6454
2.0863
2.60184
2.57179
2.11634
1.59394
1.32027
0.957679
0.771435
0.437261
0.271241
0.259668
0.131186
0.171332
0.18776
0.288447
0.326085
0.550166
0.721681
1.1409
1.44938
1.88886
2.27997
2.04603
1.77719
1.40565
1.15381
0.86766
0.653373
0.497647
0.357434
0.326959
0.210843
0.265253
0.236695
0.280638
0.467621
0.488992
0.72024
1.00027
1.29437
1.56518
1.9013
1.64694
1.39504
1.12398
0.89951
0.721701
0.53362
0.399068
0.271749
0.278683
0.266161
0.191219
0.212776
0.344013
0.407271
0.445966
0.59309
0.819982
1.00407
1.26655
1.53387
1.2107
1.08945
0.911868
0.65452
0.605703
0.416224
0.306287
0.319149
0.215582
0.189313
0.192759
0.242219
0.248748
0.317462
0.338649
0.374493
0.61752
0.78539
0.93751
1.1711
0.737508
0.63834
0.496299
0.399742
0.297545
0.281638
0.202347
0.203704
0.138868
0.162163
0.0839102
0.13159
0.146127
0.168957
0.250655
0.2769
0.415787
0.449814
0.590612
0.698209
0.297494
0.266498
0.186308
0.136144
0.150563
0.0453671
0.0626785
0.0412093
0.0370042
0.0769728
0.0828787
0.0657609
0.0600842
0.115563
0.0658635
0.0890202
0.182044
0.18472
0.143657
0.264566
4.18943
3.53154
2.89156
2.29814
1.75637
1.39357
1.02365
0.808619
0.747015
0.604736
0.615263
0.688268
0.721754
1.02085
1.16002
1.66375
2.04972
2.6939
3.26997
3.92449
3.67807
3.26313
2.68297
2.23356
1.71623
1.4409
1.16366
0.936298
0.811708
0.725566
0.795
0.748996
0.885872
1.04671
1.32348
1.66711
2.00178
2.45984
3.04991
3.44723
3.24728
2.8785
2.44345
1.962
1.68446
1.34917
1.08569
0.974246
0.84298
0.797112
0.747858
0.789686
0.852189
0.98858
1.1975
1.45462
1.81087
2.17619
2.5968
3.06513
2.78831
2.33258
2.01211
1.70901
1.5125
1.2115
0.942239
0.8935
0.710522
0.708712
0.651484
0.777638
0.771607
0.917212
1.06907
1.29086
1.53291
1.86085
2.23054
2.44742
2.24883
1.97529
1.68953
1.39848
1.20425
0.957646
0.805386
0.80592
0.737756
0.578744
0.637562
0.629486
0.694005
0.734139
0.885279
1.0089
1.23573
1.57128
1.74877
1.98925
1.57594
1.40501
1.18193
0.993703
0.773114
0.803994
0.57801
0.562864
0.546173
0.502648
0.435377
0.460697
0.501615
0.595961
0.601387
0.7975
0.92616
1.06836
1.26846
1.52402
0.961793
0.958123
0.746316
0.587195
0.510932
0.457795
0.359373
0.377038
0.277673
0.306668
0.274927
0.285908
0.313108
0.376541
0.419482
0.442613
0.529869
0.651551
0.786677
0.854095
0.364258
0.325289
0.260553
0.21459
0.160953
0.140403
0.12549
0.190798
0.0537286
0.111346
0.105535
0.124006
0.0780191
0.11657
0.127319
0.130199
0.172424
0.231717
0.26199
0.249704
5.39317
4.8386
4.03813
3.50203
2.96737
2.55598
2.20371
1.96796
1.85182
1.66823
1.65027
1.66396
1.88096
2.07361
2.41834
2.77354
3.22181
3.9107
4.5362
5.08942
4.91105
4.34142
3.76901
3.20814
2.8132
2.42629
2.13282
1.8909
1.79379
1.74087
1.62356
1.67358
1.8562
2.03065
2.26786
2.62106
2.97645
3.53756
4.08823
4.58798
4.23604
3.77565
3.33928
2.94716
2.47671
2.20682
1.91631
1.78435
1.61312
1.47144
1.52036
1.53853
1.65086
1.78233
2.03978
2.29946
2.65042
3.13158
3.55012
3.97781
3.56448
3.16295
2.77465
2.37796
2.11546
1.90293
1.69196
1.51843
1.36525
1.41281
1.3603
1.32101
1.42913
1.57803
1.65294
1.92331
2.19368
2.58124
2.94767
3.28646
2.81314
2.54016
2.21231
1.9608
1.69556
1.52939
1.39751
1.18832
1.19273
1.1713
1.12644
1.08518
1.23159
1.18322
1.36909
1.52615
1.76106
2.01527
2.27322
2.56613
2.07715
1.79538
1.6
1.38718
1.25438
1.08271
0.982644
0.947927
0.8239
0.790947
0.808832
0.824489
0.927174
0.958663
1.04603
1.20878
1.30673
1.47205
1.66005
1.84595
1.18978
1.10723
0.953125
0.836977
0.770422
0.648437
0.544035
0.616504
0.52933
0.465122
0.474509
0.503204
0.526218
0.59171
0.613531
0.690432
0.792763
0.877346
1.01629
1.11862
0.358137
0.410635
0.324713
0.289813
0.197982
0.27422
0.171859
0.219878
0.170457
0.211032
0.17073
0.20752
0.176833
0.189204
0.220325
0.203829
0.226229
0.290289
0.321157
0.429182
7.01312
6.29347
5.52201
4.93763
4.38121
3.86907
3.49225
3.17704
3.01535
2.91955
2.90156
2.93801
3.20271
3.3474
3.74302
4.11233
4.59345
5.24156
5.98583
6.64729
6.21515
5.59563
4.9348
4.41577
3.95077
3.63966
3.20984
3.07556
2.88183
2.81324
2.76093
2.80897
2.91389
3.05411
3.42751
3.78361
4.17292
4.72045
5.35964
5.83846
5.35158
4.8485
4.30626
3.85021
3.45862
3.19195
2.86224
2.65159
2.62359
2.43743
2.46806
2.52323
2.54393
2.7888
2.88808
3.28467
3.66417
4.10548
4.55198
5.01549
4.4085
4.01891
3.67466
3.30518
2.96674
2.68438
2.41919
2.31866
2.18123
2.12011
2.08532
2.03928
2.20214
2.33658
2.52212
2.77163
2.98245
3.36653
3.73486
4.1137
3.49672
3.09181
2.85421
2.59619
2.26916
2.13961
1.90498
1.82731
1.74112
1.68829
1.7153
1.6581
1.78687
1.86746
2.05064
2.08646
2.38455
2.60932
2.99897
3.23033
2.54044
2.31502
2.02831
1.84836
1.7732
1.5424
1.51091
1.31173
1.29728
1.26998
1.20277
1.28421
1.25784
1.3632
1.40173
1.55122
1.69885
1.9364
2.15196
2.31722
1.49039
1.40605
1.21583
1.1536
0.934336
0.986053
0.862074
0.818305
0.74557
0.800598
0.760523
0.839595
0.731588
0.833311
0.833016
0.910264
1.03665
1.17297
1.24162
1.40911
0.535246
0.439464
0.423168
0.399835
0.325832
0.285267
0.272279
0.265138
0.26644
0.286374
0.208882
0.199354
0.226018
0.254993
0.2482
0.20187
0.334142
0.378375
0.4272
0.510973
8.55712
7.94442
7.12616
6.49072
5.8168
5.43833
5.0577
4.81499
4.49046
4.43133
4.45219
4.52837
4.57702
4.8656
5.19609
5.56603
6.22032
6.84863
7.5464
8.25634
7.56863
6.96059
6.32732
5.78187
5.25076
4.84347
4.50291
4.32202
4.06334
3.96533
4.01398
3.97241
4.17591
4.41193
4.66058
4.93585
5.48255
6.00455
6.6371
7.19612
6.44522
5.97175
5.46349
4.93024
4.52731
4.21832
3.82656
3.73517
3.60744
3.57066
3.49728
3.52886
3.60761
3.77185
4.0299
4.34348
4.63542
5.10393
5.69715
6.12661
5.32834
4.9729
4.58171
4.15112
3.8454
3.57115
3.27962
3.07899
3.06708
2.87477
2.95531
2.95589
2.99561
3.196
3.27897
3.6158
3.93291
4.31509
4.62851
5.0335
4.09402
3.94628
3.61606
3.27466
2.98958
2.76498
2.58538
2.43411
2.37076
2.28305
2.30894
2.30997
2.32371
2.42374
2.71554
2.86311
3.08202
3.3458
3.66519
3.91708
2.99611
2.78507
2.54734
2.34838
2.18623
2.06961
1.84556
1.74419
1.7202
1.61456
1.64838
1.64897
1.75169
1.83347
1.95136
2.06638
2.17079
2.38398
2.64082
2.81202
1.84853
1.68477
1.581
1.44889
1.30472
1.21639
1.09938
1.07175
1.0422
0.959377
1.03707
0.993049
1.11128
1.12096
1.12538
1.21728
1.30022
1.44248
1.55607
1.74849
0.518815
0.596292
0.589097
0.479459
0.530327
0.35761
0.355662
0.364962
0.358313
0.346127
0.302676
0.31685
0.400106
0.407376
0.393392
0.4396
0.456427
0.504861
0.539304
0.518
10.2444
9.4909
8.68785
8.02448
7.46027
6.97039
6.51883
6.21913
6.05511
5.91493
5.88292
5.93134
6.09446
6.36145
6.7368
7.15604
7.65593
8.33309
9.02583
9.83736
8.98309
8.35478
7.71892
7.10733
6.62048
6.11591
5.7877
5.54631
5.39107
5.28371
5.17177
5.21503
5.38572
5.66366
5.99833
6.30603
6.78036
7.32588
8.01435
8.50739
7.63251
7.16635
6.63488
6.12195
5.61308
5.26692
4.93888
4.78376
4.58341
4.55057
4.49909
4.53524
4.64153
4.77285
5.00877
5.40163
5.77228
6.24849
6.76359
7.31113
6.1818
5.82578
5.41735
5.02951
4.65876
4.37236
4.13486
3.98785
3.81489
3.78492
3.78921
3.68681
3.8063
4.03812
4.23039
4.44835
4.81739
5.12909
5.58978
5.9306
4.86361
4.56483
4.31998
3.9044
3.70582
3.42706
3.25953
3.10125
2.94447
2.97034
2.90699
2.96264
2.9995
3.14336
3.25038
3.47447
3.75218
3.99512
4.32175
4.54618
3.52441
3.28017
3.08833
2.83418
2.66254
2.48951
2.26406
2.27293
2.11368
2.12194
2.14658
2.09965
2.09486
2.27364
2.41157
2.47095
2.63764
2.88906
3.13514
3.32084
2.11825
1.96865
1.84869
1.70152
1.6112
1.50686
1.43792
1.3309
1.3201
1.27928
1.2967
1.30504
1.34061
1.32626
1.42905
1.44795
1.64631
1.70542
1.88577
2.00323
0.778264
0.633099
0.593062
0.57119
0.520225
0.4842
0.469788
0.42184
0.386326
0.429074
0.456174
0.475149
0.416552
0.471333
0.49501
0.548438
0.492884
0.548367
0.650268
0.635409
11.5871
10.8967
10.1472
9.35519
8.75151
8.21136
7.75134
7.42374
7.27899
7.11192
7.11509
7.17056
7.353
7.58452
7.88012
8.42747
9.06493
9.71719
10.4588
11.1647
10.09
9.4645
8.75037
8.11819
7.65103
7.18292
6.80157
6.53882
6.30881
6.22723
6.2221
6.23515
6.41577
6.62239
6.93381
7.43852
7.78985
8.36285
9.06232
9.61096
8.49996
7.98682
7.4953
7.04708
6.4939
6.0966
5.80642
5.58758
5.40183
5.36291
5.29441
5.3674
5.39236
5.60671
5.86785
6.20904
6.67625
7.07095
7.67601
8.10399
6.91854
6.61245
6.04647
5.71644
5.33988
5.03279
4.79213
4.57644
4.48492
4.42273
4.38078
4.38805
4.49149
4.56178
4.84589
5.11586
5.44006
5.81669
6.24771
6.68423
5.47076
5.07259
4.77898
4.44467
4.15769
3.8393
3.68401
3.50431
3.50172
3.43152
3.3942
3.45247
3.4905
3.64042
3.75701
3.96562
4.15536
4.48993
4.83956
5.07404
3.84019
3.64757
3.38075
3.13031
3.04385
2.78818
2.66
2.53378
2.52474
2.47483
2.46509
2.38108
2.47128
2.56434
2.76246
2.81425
3.08349
3.26532
3.44867
3.61631
2.3209
2.21109
2.00219
1.96515
1.76325
1.65315
1.64012
1.55325
1.47257
1.49087
1.51056
1.48091
1.47414
1.56887
1.59244
1.66544
1.76374
1.86581
2.11572
2.15941
0.744561
0.696981
0.658562
0.669472
0.531963
0.508558
0.522888
0.49946
0.475303
0.43479
0.461486
0.514943
0.47661
0.491845
0.529588
0.600859
0.657244
0.636677
0.701621
0.727985
)
;

boundaryField
{
    hotSide
    {
        type            calculated;
        value           nonuniform List<scalar> 
400
(
3.92234
3.33195
2.62633
1.90557
1.37384
0.877872
0.544665
0.411184
0.409628
0.601404
0.985671
1.53341
2.25554
3.22129
4.33707
5.54136
7.16214
8.70726
10.396
11.7404
3.85897
3.21599
2.42496
1.6527
1.03411
0.620224
0.21027
0.020086
0.00611728
0.182378
0.486479
1.05027
1.66259
2.61003
3.68464
4.99181
6.4471
8.09879
9.64635
11.0536
3.72525
3.15383
2.30836
1.52202
0.884632
0.310098
-0.112657
-0.317182
-0.408469
-0.30943
-0.0184648
0.489073
1.12684
2.04065
3.0502
4.19642
5.68028
7.28477
8.84716
10.3076
3.67803
3.06278
2.1752
1.4026
0.655222
0.111896
-0.298305
-0.665236
-0.7539
-0.639763
-0.422834
-0.031125
0.603364
1.4083
2.4623
3.66535
5.10047
6.65348
8.18756
9.51898
3.79747
3.14618
2.27334
1.39175
0.695644
0.024