/*--------------------------------*- C++ -*----------------------------------*\
| =========                 |                                                 |
| \\      /  F ield         | OpenFOAM: The Open Source CFD Toolbox           |
|  \\    /   O peration     | Version:  2212                                  |
|   \\  /    A nd           | Website:  www.openfoam.com                      |
|    \\/     M anipulation  |                                                 |
\*---------------------------------------------------------------------------*/
FoamFile
{
    version     2.0;
    format      ascii;
    arch        "LSB;label=32;scalar=64";
    class       volScalarField;
    location    "0";
    object      stateMean;
}
// * * * * * * * * * * * * * * * * * * * * * * * * * * * * * * * * * * * * * //

dimensions      [0 0 0 1 0 0 0];

internalField   nonuniform List<scalar> 
3200
(
327.503
327.88
328.412
328.892
329.219
329.489
329.791
329.897
329.927
330.06
330.007
329.921
329.783
329.481
329.233
328.851
328.539
327.975
327.486
327.133
323.502
323.922
324.335
324.672
325.033
325.357
325.495
325.659
325.716
325.771
325.732
325.699
325.591
325.271
325.131
324.815
324.465
324.06
323.661
323.204
319.777
320.073
320.437
320.737
321.03
321.219
321.384
321.572
321.604
321.621
321.648
321.554
321.483
321.292
321.043
320.848
320.593
320.166
319.926
319.609
316.119
316.281
316.652
316.885
317.178
317.258
317.446
317.498
317.57
317.555
317.595
317.57
317.419
317.347
317.122
316.958
316.786
316.47
316.2
315.926
312.529
312.654
312.84
313.089
313.211
313.342
313.432
313.566
313.634
313.587
313.696
313.592
313.571
313.347
313.275
313.126
312.916
312.702
312.473
312.301
308.874
309.023
309.131
309.283
309.494
309.535
309.629
309.701
309.69
309.724
309.673
309.688
309.63
309.568
309.467
309.388
309.334
309.092
308.923
308.748
305.312
305.51
305.548
305.615
305.636
305.746
305.779
305.77
305.742
305.814
305.784
305.776
305.775
305.687
305.681
305.568
305.54
305.547
305.363
305.317
301.799
301.832
301.885
301.877
301.9
301.895
301.997
301.922
301.922
301.972
301.942
301.973
301.861
301.835
301.892
301.827
301.837
301.79
301.782
301.743
328.211
328.638
329.095
329.614
329.973
330.297
330.5
330.683
330.828
330.804
330.879
330.769
330.574
330.435
330.121
329.71
329.349
328.843
328.295
327.764
324.157
324.563
325.007
325.439
325.641
325.954
326.174
326.433
326.422
326.452
326.486
326.374
326.23
326.051
325.792
325.461
325.169
324.784
324.293
323.906
320.27
320.653
320.988
321.285
321.504
321.786
321.979
322.068
322.16
322.241
322.215
322.076
322.07
321.855
321.627
321.451
321.112
320.761
320.369
320.095
316.503
316.76
317.037
317.264
317.505
317.665
317.897
317.973
318.032
318.065
318.029
318.016
317.884
317.787
317.559
317.391
317.146
316.898
316.612
316.318
312.776
312.972
313.18
313.387
313.5
313.736
313.802
313.93
313.937
313.95
313.958
313.971
313.814
313.718
313.576
313.402
313.298
313.053
312.805
312.642
309.063
309.269
309.408
309.521
309.604
309.773
309.829
309.902
309.979
309.914
309.976
309.909
309.855
309.754
309.734
309.529
309.44
309.282
309.145
308.995
305.447
305.466
305.617
305.704
305.728
305.861
305.856
305.893
305.932
305.995
305.962
305.945
305.916
305.892
305.807
305.731
305.715
305.584
305.534
305.411
301.832
301.906
301.868
301.975
301.869
301.96
302.021
302.072
301.968
301.978
301.927
301.992
302.011
302.006
301.974
301.943
301.944
301.841
301.844
301.777
329.151
329.658
330.163
330.718
331.052
331.424
331.675
331.905
331.966
331.96
332.028
331.911
331.736
331.453
331.238
330.889
330.437
329.87
329.332
328.789
325.019
325.376
325.849
326.18
326.602
326.868
327.147
327.249
327.442
327.421
327.326
327.326
327.145
326.968
326.748
326.481
326.045
325.6
325.189
324.758
320.982
321.312
321.637
322.03
322.317
322.564
322.699
322.844
323.021
322.992
322.967
322.924
322.828
322.618
322.429
322.185
321.855
321.554
321.127
320.739
316.996
317.294
317.611
317.841
318.13
318.319
318.401
318.493
318.684
318.621
318.625
318.559
318.54
318.364
318.162
318.084
317.775
317.484
317.1
316.9
313.112
313.375
313.62
313.847
313.984
314.126
314.208
314.312
314.443
314.392
314.412
314.385
314.349
314.198
314.151
313.866
313.701
313.572
313.303
313.069
309.385
309.469
309.699
309.794
309.953
310
310.151
310.282
310.247
310.186
310.187
310.229
310.17
310.127
310.008
309.881
309.747
309.611
309.419
309.297
305.582
305.688
305.814
305.901
306.017
306.037
306.024
306.079
306.144
306.123
306.071
306.158
306.07
306.058
305.984
305.938
305.893
305.775
305.638
305.657
301.905
301.976
301.913
301.975
301.998
301.976
301.976
302.052
302.055
302.028
302.063
302.101
302.046
302.039
301.957
301.998
301.992
301.93
301.942
301.844
330.226
330.777
331.286
331.815
332.246
332.586
332.854
333.091
333.169
333.208
333.195
333.144
332.998
332.703
332.43
331.98
331.518
330.99
330.381
329.915
325.905
326.325
326.806
327.171
327.544
327.901
328.129
328.234
328.438
328.501
328.395
328.352
328.226
327.996
327.761
327.442
327.064
326.631
326.091
325.634
321.66
322.06
322.444
322.807
323.124
323.375
323.615
323.736
323.76
323.902
323.855
323.801
323.661
323.463
323.273
323.023
322.754
322.356
321.902
321.545
317.653
317.99
318.215
318.48
318.786
318.978
319.132
319.287
319.388
319.368
319.334
319.27
319.146
319.057
318.973
318.684
318.378
318.162
317.751
317.542
313.653
313.894
314.142
314.32
314.472
314.751
314.766
314.884
314.905
315.004
315.001
315.005
314.899
314.725
314.64
314.49
314.247
314.025
313.73
313.562
309.744
309.855
310.055
310.252
310.273
310.375
310.512
310.56
310.664
310.66
310.647
310.595
310.572
310.576
310.455
310.254
310.233
309.969
309.74
309.651
305.752
305.964
305.973
306.158
306.125
306.248
306.295
306.335
306.415
306.372
306.319
306.372
306.356
306.283
306.276
306.229
306.117
306.004
305.876
305.78
301.94
301.997
302.052
302.026
302.023
302.137
302.13
302.077
302.084
302.151
302.085
302.107
302.092
302.127
302.061
302.068
302.031
301.935
301.886
302.002
331.23
331.86
332.374
332.999
333.362
333.806
334.042
334.314
334.388
334.54
334.381
334.374
334.172
333.98
333.613
333.162
332.751
332.213
331.59
331.001
326.791
327.319
327.79
328.263
328.691
328.961
329.148
329.327
329.523
329.513
329.489
329.436
329.288
329.145
328.802
328.439
328.095
327.666
327.072
326.609
322.462
322.832
323.241
323.636
323.968
324.215
324.451
324.594
324.714
324.793
324.813
324.738
324.573
324.361
324.142
323.844
323.482
323.18
322.686
322.351
318.261
318.539
318.925
319.137
319.445
319.702
319.857
320.054
319.977
320.094
320.078
320.03
319.909
319.828
319.716
319.375
319.172
318.811
318.453
318.264
314.115
314.342
314.663
314.871
315.075
315.171
315.297
315.429
315.519
315.519
315.514
315.464
315.393
315.352
315.197
314.99
314.794
314.499
314.315
314.107
310.095
310.195
310.404
310.554
310.653
310.88
310.937
310.957
311.064
311.084
311.082
310.982
310.987
310.923
310.816
310.634
310.525
310.378
310.172
310.087
306.113
306.146
306.289
306.36
306.414
306.428
306.486
306.574
306.566
306.634
306.62
306.613
306.567
306.568
306.523
306.356
306.304
306.243
306.048
305.937
302.06
301.978
302.11
302.09
302.135
302.195
302.211
302.235
302.156
302.178
302.227
302.208
302.221
302.161
302.221
302.163
302.092
302.085
301.988
302.039
332.319
332.855
333.516
334.092
334.565
335.004
335.286
335.491
335.653
335.789
335.713
335.623
335.443
335.149
334.911
334.358
333.894
333.309
332.723
332.121
327.752
328.185
328.65
329.196
329.572
329.881
330.266
330.363
330.511
330.6
330.626
330.454
330.435
330.121
329.872
329.506
329.051
328.577
328.115
327.502
323.259
323.669
324.099
324.519
324.784
325.07
325.342
325.381
325.617
325.597
325.628
325.583
325.488
325.292
325.009
324.716
324.372
324.012
323.518
323.182
318.869
319.262
319.599
319.842
320.235
320.37
320.563
320.625
320.818
320.838
320.824
320.825
320.634
320.483
320.293
320.065
319.844
319.454
319.112
318.794
314.588
314.86
315.158
315.34
315.551
315.732
315.886
316.057
316.07
316.057
316.036
316.073
315.912
315.843
315.716
315.522
315.34
315.085
314.805
314.623
310.363
310.599
310.772
310.988
311.068
311.199
311.33
311.369
311.493
311.465
311.506
311.472
311.362
311.343
311.187
310.965
310.89
310.751
310.518
310.391
306.28
306.33
306.453
306.622
306.642
306.764
306.704
306.82
306.774
306.807
306.883
306.837
306.806
306.766
306.695
306.591
306.485
306.451
306.312
306.269
302.142
302.109
302.129
302.183
302.198
302.249
302.245
302.236
302.368
302.278
302.298
302.275
302.313
302.338
302.279
302.291
302.204
302.11
302.155
302.123
333.367
333.967
334.624
335.169
335.687
336.125
336.396
336.702
336.85
336.875
336.934
336.829
336.553
336.324
336.014
335.493
335.063
334.467
333.801
333.199
328.564
329.091
329.685
330.138
330.553
330.937
331.18
331.459
331.606
331.766
331.6
331.518
331.393
331.141
330.908
330.447
330.105
329.569
328.94
328.496
323.965
324.396
324.82
325.259
325.634
325.943
326.157
326.339
326.508
326.498
326.497
326.481
326.335
326.174
325.9
325.612
325.186
324.785
324.31
323.919
319.504
319.859
320.144
320.497
320.754
321.052
321.172
321.429
321.471
321.554
321.534
321.5
321.324
321.227
321.071
320.747
320.487
320.107
319.77
319.448
315.157
315.36
315.6
315.879
316.067
316.321
316.398
316.57
316.6
316.622
316.65
316.62
316.542
316.43
316.206
316.066
315.866
315.573
315.297
315.043
310.733
310.877
311.127
311.285
311.417
311.616
311.709
311.772
311.842
311.885
311.85
311.842
311.793
311.722
311.548
311.434
311.234
311.103
310.918
310.765
306.495
306.55
306.591
306.77
306.87
307.038
307.049
307.083
307.107
307.095
307.087
307.105
307.03
306.931
306.947
306.869
306.745
306.72
306.539
306.435
302.09
302.209
302.135
302.209
302.281
302.354
302.309
302.357
302.396
302.397
302.365
302.331
302.356
302.296
302.273
302.252
302.157
302.204
302.184
302.134
334.337
334.981
335.635
336.322
336.83
337.215
337.508
337.891
338.072
338.085
338.073
337.927
337.73
337.546
337.212
336.624
336.113
335.544
334.873
334.23
329.502
329.923
330.495
331.112
331.518
331.872
332.22
332.471
332.498
332.648
332.665
332.54
332.42
332.108
331.851
331.426
331.001
330.466
329.938
329.371
324.727
325.116
325.592
326.053
326.453
326.735
326.926
327.216
327.299
327.357
327.403
327.278
327.108
326.996
326.692
326.388
325.989
325.569
325.067
324.678
320.049
320.416
320.914
321.23
321.425
321.741
321.878
322.081
322.192
322.206
322.278
322.159
322.041
321.839
321.635
321.457
321.154
320.797
320.416
320.078
315.524
315.751
316.115
316.31
316.52
316.789
316.919
317.08
317.141
317.217
317.172
317.164
317.076
316.962
316.731
316.721
316.333
316.086
315.757
315.591
311.045
311.224
311.427
311.65
311.826
311.959
312.052
312.111
312.24
312.217
312.243
312.183
312.191
312.012
311.951
311.848
311.614
311.441
311.252
311.12
306.603
306.686
306.823
306.981
307.055
307.118
307.234
307.309
307.325
307.345
307.347
307.258
307.283
307.205
307.127
307.081
306.979
306.878
306.709
306.547
302.191
302.306
302.272
302.322
302.388
302.311
302.439
302.426
302.458
302.471
302.381
302.456
302.394
302.366
302.403
302.32
302.328
302.253
302.294
302.214
335.301
335.944
336.656
337.318
337.795
338.258
338.683
338.927
339.079
339.22
339.244
339.096
338.956
338.615
338.303
337.77
337.31
336.557
335.921
335.232
330.295
330.819
331.379
331.991
332.442
332.826
333.148
333.378
333.534
333.565
333.671
333.468
333.348
333.079
332.807
332.419
331.91
331.429
330.842
330.314
325.354
325.804
326.317
326.759
327.206
327.518
327.8
327.979
328.093
328.204
328.159
328.091
327.971
327.818
327.488
327.185
326.808
326.285
325.842
325.454
320.684
320.973
321.313
321.739
322.11
322.327
322.559
322.761
322.841
322.867
322.909
322.809
322.735
322.546
322.404
322.058
321.733
321.432
320.951
320.755
315.966
316.239
316.49
316.81
317.105
317.215
317.503
317.624
317.633
317.598
317.718
317.701
317.556
317.339
317.232
317.093
316.845
316.607
316.306
316.026
311.389
311.565
311.744
311.978
312.141
312.38
312.441
312.528
312.555
312.575
312.561
312.517
312.536
312.416
312.291
312.15
311.934
311.845
311.559
311.378
306.779
306.89
307.054
307.19
307.26
307.304
307.455
307.505
307.468
307.584
307.491
307.502
307.52
307.391
307.372
307.25
307.212
307.057
306.937
306.857
302.215
302.318
302.402
302.443
302.456
302.46
302.507
302.484
302.565
302.521
302.568
302.585
302.5
302.478
302.541
302.39
302.39
302.338
302.338
302.303
336.198
336.841
337.612
338.237
338.811
339.345
339.678
339.996
340.215
340.206
340.297
340.153
339.958
339.663
339.385
338.785
338.276
337.688
336.844
336.198
331.024
331.613
332.25
332.776
333.344
333.691
333.983
334.231
334.383
334.525
334.481
334.431
334.27
334.054
333.679
333.311
332.81
332.24
331.701
331.081
326.003
326.538
327.019
327.45
327.905
328.157
328.543
328.747
328.862
328.941
329.002
328.824
328.79
328.539
328.267
327.901
327.536
327.102
326.566
326.118
321.185
321.551
321.969
322.311
322.684
322.976
323.101
323.308
323.425
323.505
323.525
323.424
323.348
323.186
322.984
322.711
322.336
321.956
321.611
321.23
316.372
316.65
316.99
317.254
317.61
317.676
317.922
318.093
318.129
318.133
318.193
318.139
317.977
317.885
317.794
317.518
317.259
316.988
316.716
316.45
311.642
311.86
312.111
312.317
312.442
312.624
312.679
312.86
312.868
312.895
312.979
312.915
312.875
312.821
312.618
312.499
312.352
312.167
311.917
311.727
307.016
307.065
307.252
307.382
307.439
307.605
307.679
307.594
307.632
307.797
307.747
307.768
307.652
307.667
307.547
307.415
307.36
307.304
307.184
306.949
302.326
302.419
302.369
302.415
302.504
302.588
302.597
302.541
302.502
302.573
302.592
302.603
302.625
302.542
302.518
302.509
302.429
302.472
302.363
302.348
337.028
337.738
338.502
339.18
339.815
340.244
340.698
340.992
341.111
341.308
341.302
341.183
340.954
340.673
340.32
339.799
339.089
338.53
337.816
337.115
331.786
332.395
332.96
333.566
334.143
334.535
334.921
335.101
335.233
335.324
335.391
335.303
335.048
334.92
334.6
334.133
333.616
333.068
332.432
331.819
326.581
327.14
327.664
328.169
328.576
328.959
329.212
329.465
329.573
329.663
329.725
329.613
329.467
329.278
328.918
328.663
328.125
327.83
327.208
326.777
321.632
322.048
322.464
322.921
323.258
323.535
323.709
324.001
324.079
324.1
324.139
324.032
323.942
323.803
323.516
323.3
322.993
322.609
322.122
321.787
316.805
317.04
317.377
317.714
317.944
318.195
318.377
318.53
318.63
318.67
318.696
318.691
318.491
318.334
318.221
318.032
317.785
317.488
317.141
316.833
311.901
312.136
312.372
312.542
312.768
312.93
313.11
313.119
313.244
313.27
313.321
313.183
313.173
313.135
313.014
312.849
312.591
312.395
312.213
311.98
307.145
307.313
307.438
307.573
307.677
307.798
307.789
307.871
307.997
307.976
307.933
307.882
307.902
307.776
307.831
307.676
307.594
307.455
307.239
307.175
302.43
302.373
302.493
302.553
302.566
302.6
302.61
302.626
302.69
302.656
302.633
302.641
302.671
302.627
302.544
302.625
302.52
302.467
302.493
302.453
337.825
338.504
339.305
340.077
340.647
341.137
341.605
341.906
342.133
342.247
342.268
342.17
341.949
341.561
341.206
340.735
340.119
339.407
338.691
337.961
332.448
333.032
333.694
334.323
334.848
335.25
335.66
335.973
336.149
336.168
336.23
336.102
335.946
335.705
335.337
334.904
334.426
333.856
333.174
332.61
327.263
327.702
328.234
328.784
329.303
329.584
329.929
330.153
330.284
330.416
330.345
330.28
330.154
329.918
329.681
329.291
328.803
328.415
327.876
327.407
322.088
322.555
322.967
323.378
323.758
324.069
324.285
324.476
324.615
324.69
324.69
324.611
324.486
324.305
324.075
323.819
323.49
323.1
322.638
322.288
317.156
317.404
317.793
318.103
318.432
318.628
318.758
318.928
319.01
319.089
319.115
319.017
318.902
318.824
318.701
318.433
318.191
317.89
317.536
317.28
312.2
312.467
312.688
312.886
313.054
313.27
313.361
313.458
313.569
313.594
313.558
313.558
313.463
313.381
313.272
313.061
312.939
312.714
312.544
312.316
307.31
307.443
307.568
307.654
307.862
307.968
308.011
308.095
308.064
308.188
308.14
308.124
308.106
308.009
307.96
307.854
307.685
307.6
307.481
307.369
302.494
302.48
302.494
302.525
302.645
302.712
302.64
302.703
302.683
302.716
302.692
302.713
302.717
302.679
302.663
302.627
302.586
302.596
302.546
302.457
338.576
339.35
340.108
340.863
341.469
341.983
342.43
342.804
342.965
343.099
343.172
343.029
342.831
342.499
342.054
341.469
340.964
340.201
339.402
338.772
333.038
333.729
334.397
335.026
335.588
336.045
336.442
336.679
336.879
337.008
336.979
336.908
336.789
336.46
336.029
335.64
335.172
334.559
333.871
333.315
327.776
328.279
328.87
329.353
329.874
330.241
330.6
330.789
330.912
331.046
331.015
330.954
330.808
330.623
330.358
329.935
329.501
329.019
328.473
327.889
322.57
322.975
323.438
323.851
324.184
324.57
324.837
324.963
325.101
325.174
325.209
325.216
325.098
324.859
324.589
324.406
324.063
323.583
323.183
322.736
317.501
317.787
318.149
318.475
318.716
318.957
319.195
319.332
319.395
319.538
319.509
319.408
319.273
319.203
319.095
318.84
318.571
318.195
317.942
317.594
312.47
312.668
312.872
313.13
313.365
313.543
313.688
313.738
313.829
313.857
313.944
313.87
313.775
313.628
313.572
313.381
313.195
312.991
312.698
312.52
307.476
307.629
307.733
307.812
308.027
308.1
308.213
308.305
308.271
308.32
308.311
308.29
308.244
308.282
308.134
308.022
307.848
307.828
307.668
307.496
302.465
302.584
302.636
302.695
302.749
302.736
302.667
302.84
302.79
302.845
302.844
302.772
302.729
302.754
302.757
302.66
302.68
302.56
302.558
302.529
339.213
339.992
340.766
341.61
342.277
342.808
343.282
343.612
343.81
343.935
343.887
343.808
343.613
343.331
342.902
342.322
341.758
341.013
340.213
339.425
333.707
334.222
335.028
335.652
336.264
336.729
337.051
337.377
337.607
337.699
337.735
337.633
337.435
337.184
336.868
336.373
335.873
335.149
334.537
333.884
328.184
328.753
329.42
329.844
330.354
330.678
331.133
331.397
331.477
331.642
331.602
331.549
331.38
331.244
330.899
330.59
330.023
329.565
328.98
328.476
323.04
323.401
323.889
324.264
324.671
324.998
325.252
325.474
325.56
325.705
325.651
325.65
325.55
325.282
325.162
324.819
324.418
324.001
323.613
323.185
317.819
318.141
318.503
318.823
319.095
319.37
319.582
319.772
319.809
319.844
319.919
319.875
319.7
319.574
319.458
319.224
318.903
318.623
318.269
317.932
312.672
312.844
313.086
313.412
313.528
313.78
313.945
313.977
314.111
314.154
314.15
314.085
314.047
313.934
313.857
313.76
313.449
313.213
312.995
312.712
307.59
307.72
307.901
308.038
308.181
308.234
308.347
308.372
308.456
308.443
308.521
308.463
308.43
308.38
308.265
308.202
308.022
307.947
307.767
307.63
302.493
302.534
302.627
302.691
302.689
302.808
302.801
302.832
302.842
302.805
302.799
302.813
302.813
302.748
302.787
302.751
302.645
302.628
302.656
302.525
339.827
340.634
341.456
342.238
342.962
343.493
344.012
344.346
344.492
344.678
344.668
344.551
344.433
344.015
343.727
343.054
342.486
341.654
340.896
340.092
334.297
334.839
335.576
336.187
336.863
337.285
337.691
338.023
338.219
338.343
338.274
338.282
338.073
337.808
337.403
336.912
336.419
335.799
335.052
334.528
328.762
329.235
329.803
330.422
330.834
331.293
331.665
331.865
332.057
332.135
332.184
332.11
331.987
331.762
331.444
331.063
330.573
330.07
329.517
328.944
323.319
323.858
324.287
324.703
325.009
325.411
325.77
325.891
326.124
326.152
326.21
326.057
326.012
325.795
325.554
325.23
324.879
324.438
323.96
323.66
318.008
318.346
318.715
319.095
319.374
319.699
319.921
319.976
320.084
320.263
320.204
320.193
320.088
319.992
319.772
319.569
319.257
318.834
318.572
318.268
312.871
313.088
313.371
313.621
313.903
313.929
314.204
314.259
314.304
314.362
314.43
314.389
314.32
314.186
314.132
313.878
313.689
313.485
313.225
312.923
307.704
307.736
307.984
308.18
308.293
308.38
308.509
308.515
308.63
308.61
308.642
308.622
308.579
308.491
308.419
308.361
308.237
308.078
307.907
307.812
302.539
302.587
302.663
302.722
302.788
302.821
302.846
302.788
302.93
302.876
302.881
302.86
302.901
302.854
302.834
302.819
302.765
302.692
302.65
302.653
340.474
341.165
342.133
342.84
343.541
344.104
344.589
344.933
345.124
345.346
345.364
345.312
345.02
344.719
344.242
343.734
343.12
342.26
341.468
340.778
334.656
335.343
336.058
336.768
337.306
337.826
338.234
338.569
338.731
338.818
338.935
338.851
338.604
338.336
337.984
337.498
337
336.289
335.596
334.979
329.112
329.668
330.227
330.744
331.336
331.718
332.107
332.317
332.543
332.714
332.665
332.617
332.45
332.241
331.885
331.514
331.041
330.434
329.894
329.37
323.633
324.111
324.598
325.098
325.46
325.764
326.055
326.294
326.492
326.467
326.52
326.536
326.383
326.169
326.014
325.652
325.282
324.792
324.326
323.911
318.288
318.621
319.025
319.356
319.699
319.937
320.13
320.39
320.421
320.461
320.506
320.529
320.346
320.345
320.097
319.869
319.556
319.222
318.888
318.535
312.971
313.296
313.545
313.815
314.004
314.226
314.37
314.441
314.59
314.636
314.618
314.59
314.462
314.394
314.263
314.049
313.895
313.673
313.431
313.202
307.837
307.945
308.132
308.282
308.382
308.535
308.666
308.614
308.717
308.789
308.779
308.743
308.705
308.618
308.569
308.462
308.326
308.208
308.036
307.908
302.666
302.621
302.718
302.765
302.868
302.802
302.913
302.872
302.927
302.889
302.929
302.889
302.915
302.896
302.856
302.862
302.829
302.753
302.711
302.595
340.806
341.653
342.576
343.316
344.023
344.673
345.17
345.58
345.809
345.939
345.957
345.886
345.554
345.315
344.799
344.292
343.661
342.856
341.96
341.172
335.029
335.755
336.548
337.202
337.797
338.228
338.762
338.979
339.231
339.33
339.382
339.304
339.141
338.918
338.44
337.964
337.445
336.763
335.991
335.406
329.404
329.996
330.65
331.22
331.721
332.09
332.508
332.788
332.865
333.078
333.047
332.966
332.896
332.581
332.394
331.895
331.406
330.851
330.293
329.741
323.933
324.394
324.828
325.292
325.72
326.086
326.423
326.581
326.759
326.841
326.876
326.901
326.698
326.505
326.248
325.915
325.615
325.136
324.678
324.227
318.49
318.949
319.258
319.589
319.986
320.179
320.47
320.593
320.711
320.78
320.753
320.794
320.633
320.508
320.268
320.169
319.8
319.503
319.042
318.757
313.139
313.403
313.74
313.972
314.097
314.374
314.445
314.676
314.714
314.752
314.819
314.727
314.73
314.593
314.514
314.319
314.121
313.832
313.566
313.362
307.914
308.022
308.242
308.335
308.585
308.561
308.709
308.772
308.858
308.81
308.85
308.764
308.858
308.738
308.714
308.609
308.452
308.285
308.186
307.995
302.615
302.719
302.745
302.779
302.863
302.913
302.934
302.947
302.951
302.933
303.01
303.018
302.986
302.951
302.95
302.987
302.845
302.79
302.731
302.639
341.269
341.998
342.956
343.733
344.544
345.047
345.535
345.864
346.249
346.339
346.318
346.211
346.102
345.727
345.289
344.795
344.004
343.233
342.396
341.57
335.392
336.098
336.853
337.521
338.17
338.687
339.12
339.376
339.687
339.812
339.763
339.778
339.522
339.211
338.869
338.485
337.82
337.175
336.422
335.765
329.746
330.301
330.912
331.549
332.052
332.453
332.923
333.079
333.251
333.309
333.383
333.329
333.206
332.978
332.641
332.236
331.844
331.271
330.576
330.064
324.176
324.597
325.071
325.587
325.975
326.324
326.68
326.933
326.981
327.192
327.112
327.092
327.016
326.764
326.616
326.204
325.805
325.338
324.941
324.471
318.79
318.988
319.383
319.79
320.139
320.422
320.653
320.844
320.936
321.038
321.012
320.997
320.954
320.814
320.471
320.266
319.983
319.653
319.269
318.967
313.32
313.566
313.85
314.097
314.305
314.462
314.723
314.853
314.898
315.013
314.98
314.969
314.845
314.736
314.581
314.425
314.274
314.013
313.71
313.504
307.936
308.122
308.253
308.414
308.585
308.699
308.838
308.883
308.925
309.014
308.936
308.974
308.844
308.816
308.79
308.673
308.563
308.392
308.251
308.037
302.759
302.689
302.705
302.825
302.783
302.963
302.972
302.969
302.98
302.994
303.037
303.021
302.934
302.921
302.928
302.873
302.848
302.789
302.746
302.76
341.518
342.379
343.311
344.105
344.794
345.398
345.946
346.324
346.542
346.71
346.742
346.666
346.449
346.104
345.631
345.098
344.473
343.666
342.844
341.925
335.614
336.333
337.08
337.806
338.401
339.004
339.417
339.726
339.928
340.06
340.172
340.104
339.886
339.541
339.122
338.715
338.133
337.473
336.674
336.09
329.912
330.454
331.08
331.689
332.29
332.719
333.119
333.332
333.573
333.625
333.677
333.621
333.474
333.285
332.977
332.501
332.039
331.467
330.856
330.234
324.408
324.825
325.311
325.777
326.223
326.579
326.875
327.069
327.275
327.322
327.318
327.403
327.251
326.972
326.721
326.434
325.99
325.599
325.061
324.659
318.851
319.197
319.502
319.979
320.236
320.568
320.782
320.977
321.16
321.147
321.21
321.141
321.079
320.899
320.745
320.468
320.131
319.827
319.44
319.169
313.379
313.656
313.891
314.189
314.402
314.613
314.872
314.889
315.066
315.068
315.043
315.08
315.067
314.862
314.691
314.594
314.385
314.09
313.801
313.582
308.017
308.186
308.332
308.505
308.621
308.748
308.837
308.96
308.982
309.029
309.011
308.997
308.95
308.949
308.826
308.784
308.561
308.476
308.269
308.132
302.616
302.768
302.817
302.847
302.907
302.951
302.971
303.025
303.064
303.023
302.996
302.975
303.03
302.97
302.94
302.879
302.925
302.862
302.751
302.759
341.703
342.494
343.366
344.28
345
345.647
346.198
346.597
346.792
346.985
346.982
346.9
346.668
346.364
345.978
345.325
344.57
343.796
342.932
342.125
335.748
336.46
337.279
338.018
338.587
339.147
339.608
339.934
340.207
340.312
340.317
340.281
340.057
339.788
339.396
338.799
338.346
337.666
336.862
336.227
330.04
330.624
331.206
331.744
332.384
332.859
333.218
333.49
333.713
333.771
333.84
333.748
333.686
333.417
333.088
332.669
332.115
331.63
330.935
330.436
324.45
324.815
325.454
325.858
326.305
326.677
326.973
327.233
327.355
327.433
327.475
327.452
327.318
327.203
326.864
326.529
326.134
325.683
325.179
324.685
318.829
319.272
319.622
320.014
320.357
320.726
320.925
321.139
321.165
321.247
321.285
321.215
321.152
320.969
320.808
320.549
320.304
319.911
319.505
319.226
313.47
313.694
314.001
314.294
314.419
314.712
314.871
315.021
315.047
315.106
315.116
315.191
315.084
314.967
314.738
314.649
314.341
314.117
313.893
313.694
308.055
308.183
308.417
308.479
308.705
308.836
308.868
308.97
309.06
309.048
309.028
309.052
309.049
308.939
308.897
308.803
308.68
308.553
308.278
308.217
302.729
302.784
302.83
302.828
302.973
303.003
302.996
303.025
303.052
303.094
303.068
303.012
303.047
303.027
302.982
302.904
302.84
302.852
302.779
302.746
)
;

boundaryField
{
    hotSide
    {
        type            fixedGradient;
        gradient        nonuniform List<scalar> 
400
(
321.511
322.87
325.591
329.677
335.133
341.965
350.181
359.788
370.794
383.208
397.037
412.289
428.971
447.088
466.647
487.651
510.105
534.011
559.372
586.191
323.738
325.08
327.767
331.802
337.194
343.949
352.078
361.591
372.498
384.81
398.537
413.687
430.268
448.289
467.755
488.672
511.043
534.872
560.161
586.913
326.149
327.47
330.116
334.091
339.406
346.071
354.099
363.503
374.296
386.491
400.101
415.136
431.606
449.52
468.885
489.706
511.988
535.735
560.948
587.63
328.704
330
332.597
336.503
341.73
348.292
356.205
365.485
376.15
388.215
401.695
416.604
432.954
450.753
470.009
490.73
512.919
536.579
561.714
588.325
331.33
332.599
335.142
338.97
344.099
350.546
358.332
367.477
378.003
389.928
403.271
418.047
434.27
451.949
471.095
491.712
513.807
537.382
562.439
588.978
333.918
335.158
337.643
341.389
346.414
352.74
360.392
369.397
379.779
391.562
404.765
419.407
435.503
453.065
472.101
492.618
514.622
538.114
563.096
589.569
336.321
337.531
339.959
343.622
348.544
354.751
362.274
371.142
381.385
393.031
406.101
420.618
436.595
454.047
472.983
493.409
515.33
538.747
563.663
590.076
338.36
339.543
341.92
345.509
350.339
356.44
363.847
372.595
382.718
394.244
407.2
421.608
437.485
454.844
473.695
494.045
515.897
539.253
564.114
590.478
339.852
341.015
343.352
346.885
351.645
357.665
364.985
373.643
383.675
395.113
407.984
422.312
438.116
455.407
474.197
494.491
516.294
539.606
564.428
590.758
340.643
341.795
344.11
347.613
352.334
358.311
365.584
374.193
384.176
395.567
408.393
422.679
438.443
455.699
474.456
494.722
516.498
539.788
564.589
590.901
340.643
341.795
344.11
347.613
352.334
358.311
365.584
374.193
384.176
395.567
408.393
422.679
438.443
455.699
474.456
494.722
516.498
539.788
564.589
590.901
339.852
341.015
343.352
346.885
351.645
357.665
364.985
373.643
383.675
395.113
407.984
422.312
438.116
455.407
474.197
494.491
516.294
539.606
564.428
590.758
338.36
339.543
341.92
345.509
350.339
356.44
363.847
372.595
382.718
394.244
407.2
421.608
437.485
454.844
473.695
494.045
515.897
539.253
564.114
590.478
336.321
337.531
339.959
343.622
348.544
354.751
362.274
371.142
381.385
393.031
406.101
420.618
436.595
454.047
472.983
493.409
515.33
538.747
563.663
590.076
333.918
335.158
337.643
341.389
346.414
352.74
360.392
369.397
379.779
391.562
404.765
419.407
435.503
453.065
472.101
492.618
514.622
538.114
563.096
589.569
331.33
332.599
335.142
338.97
344.099
350.546
358.332
367.477
378.003
389.928
403.271
418.047
434.27
451.949
471.095
491.712
513.807
537.382
562.439
588.978
328.704
330
332.597
336.503
341.73
348.292
356.205
365.485
376.15
388.215
401.695
416.604
432.954
450.753
470.009
490.73
512.919
536.579
561.714
588.325
326.149
327.47
330.116
334.091
339.406
346.071
354.099
363.503
374.296
386.491
400.101
415.136
431.606
449.52
468.885
489.706
511.988
535.735
560.948
587.63
323.738
325.08
327.767
331.802
337.194
343.949
352.078
361.591
372.498
384.81
398.537
413.687
430.268
448.289
467.755
488.672
511.043
534.872
560.161
586.913
321.511
322.87
325.591
329.677
335.133
341.965
350.181
359.788
370.794
383.208
397.037
412.289
428.971
447.088
466.647
487.651
510.105
534.011
559.372
586.191
)
;
    }
    coldSide
    {
        type            mixed;
        refValue        uniform 300;
        refGradient     uniform 0;
        valueFraction   uniform 0.991591;
        source          uniform 0;
        value           nonuniform List<scalar> 
400
(
300.015
300.015
300.016
300.016
300.017
300.018
300.018
300.018
300.019
300.02
300.02
300.021
300.021
300.021
300.021
300.022
300.022
300.023
300.022
300.023
300.015
300.016
300.017
300.017
300.017
300.018
300.019
300.019
300.019
300.02
300.02
300.021
300.022
300.021
300.022
300.022
300.023
300.023
300.023
300.023
300.016