/*--------------------------------*- C++ -*----------------------------------*\
| =========                 |                                                 |
| \\      /  F ield         | OpenFOAM: The Open Source CFD Toolbox           |
|  \\    /   O peration     | Version:  2212                                  |
|   \\  /    A nd           | Website:  www.openfoam.com                      |
|    \\/     M anipulation  |                                                 |
\*---------------------------------------------------------------------------*/
FoamFile
{
    version     2.0;
    format      ascii;
    arch        "LSB;label=32;scalar=64";
    class       volScalarField;
    location    "0";
    object      T;
}
// * * * * * * * * * * * * * * * * * * * * * * * * * * * * * * * * * * * * * //

dimensions      [0 0 0 1 0 0 0];

internalField   nonuniform List<scalar> 
3200
(
316.763
316.206
315.707
315.507
315.651
315.88
316.135
316.271
316.331
316.594
316.563
316.285
316.314
316.049
315.807
315.387
315.243
315.053
315.493
316.035
314.479
314.014
313.587
313.418
313.55
313.748
313.969
314.119
314.164
314.373
314.372
314.116
314.141
313.93
313.714
313.348
313.225
313.036
313.468
313.928
312.222
311.842
311.463
311.361
311.451
311.614
311.793
311.977
312.003
312.175
312.181
311.944
311.971
311.8
311.604
311.302
311.19
311.053
311.441
311.799
309.956
309.682
309.345
309.311
309.35
309.5
309.613
309.836
309.848
309.966
309.972
309.774
309.812
309.653
309.487
309.255
309.144
309.036
309.404
309.649
307.707
307.54
307.28
307.263
307.29
307.38
307.446
307.689
307.686
307.768
307.733
307.607
307.635
307.498
307.371
307.204
307.122
307.02
307.352
307.499
305.471
305.394
305.224
305.19
305.242
305.268
305.308
305.518
305.511
305.567
305.531
305.433
305.465
305.367
305.241
305.138
305.101
305.029
305.278
305.343
303.269
303.23
303.134
303.123
303.173
303.176
303.178
303.337
303.317
303.359
303.299
303.265
303.286
303.246
303.155
303.062
303.067
303.024
303.179
303.209
301.092
301.083
301.053
301.044
301.066
301.067
301.065
301.124
301.12
301.12
301.103
301.081
301.099
301.091
301.059
301.019
301.025
301.007
301.071
301.069
316.838
316.333
315.961
315.719
315.734
316.104
316.284
316.474
316.652
316.83
316.759
316.604
316.534
316.336
315.871
315.624
315.448
315.328
315.572
315.983
314.546
314.112
313.81
313.629
313.618
313.945
314.103
314.253
314.399
314.599
314.546
314.384
314.345
314.172
313.768
313.588
313.41
313.311
313.531
313.871
312.274
311.922
311.677
311.527
311.505
311.776
311.932
312.044
312.17
312.355
312.334
312.177
312.124
312.006
311.665
311.523
311.363
311.276
311.487
311.751
310.016
309.743
309.556
309.431
309.413
309.628
309.752
309.839
309.944
310.125
310.1
309.961
309.92
309.817
309.557
309.463
309.312
309.232
309.422
309.617
307.764
307.579
307.413
307.328
307.326
307.496
307.581
307.643
307.741
307.892
307.854
307.761
307.743
307.641
307.422
307.377
307.248
307.173
307.352
307.492
305.526
305.408
305.294
305.218
305.246
305.364
305.418
305.468
305.528
305.646
305.606
305.546
305.539
305.454
305.316
305.273
305.171
305.123
305.272
305.369
303.301
303.229
303.165
303.129
303.157
303.225
303.246
303.297
303.329
303.399
303.355
303.324
303.315
303.274
303.184
303.185
303.104
303.096
303.169
303.234
301.111
301.072
301.076
301.059
301.061
301.095
301.086
301.102
301.123
301.153
301.122
301.115
301.118
301.088
301.056
301.055
301.037
301.031
301.083
301.089
317.103
316.595
316.237
316
316.095
316.391
316.577
316.743
316.929
317.226
317.145
317.017
316.869
316.578
316.131
315.858
315.577
315.609
315.776
316.037
314.739
314.37
314.024
313.823
313.903
314.205
314.353
314.498
314.667
314.929
314.844
314.757
314.645
314.378
314.006
313.775
313.54
313.563
313.683
313.888
312.433
312.152
311.838
311.656
311.711
312.044
312.141
312.264
312.416
312.615
312.559
312.483
312.409
312.177
311.849
311.678
311.484
311.495
311.585
311.732
310.16
309.946
309.676
309.519
309.544
309.886
309.945
310.029
310.154
310.325
310.285
310.219
310.147
309.963
309.678
309.565
309.433
309.4
309.467
309.612
307.902
307.739
307.522
307.382
307.424
307.705
307.742
307.805
307.889
308.054
308.011
307.952
307.888
307.781
307.535
307.447
307.337
307.314
307.352
307.499
305.66
305.531
305.385
305.258
305.291
305.518
305.53
305.573
305.644
305.765
305.722
305.68
305.63
305.56
305.387
305.329
305.253
305.214
305.242
305.366
303.401
303.342
303.238
303.145
303.181
303.337
303.311
303.346
303.393
303.453
303.45
303.427
303.364
303.343
303.238
303.205
303.176
303.104
303.146
303.236
301.148
301.125
301.085
301.054
301.071
301.116
301.106
301.12
301.124
301.16
301.159
301.149
301.125
301.121
301.084
301.076
301.061
301.03
301.06
301.092
317.424
316.92
316.68
316.508
316.549
316.801
316.875
317.202
317.404
317.572
317.643
317.572
317.289
316.866
316.443
316.119
315.879
315.937
316.011
316.428
315.053
314.625
314.444
314.273
314.319
314.556
314.618
314.884
315.063
315.21
315.261
315.238
314.985
314.624
314.268
313.991
313.795
313.837
313.893
314.249
312.712
312.374
312.19
312.069
312.093
312.319
312.389
312.606
312.754
312.871
312.893
312.888
312.682
312.377
312.069
311.856
311.691
311.702
311.784
312.079
310.393
310.131
309.957
309.851
309.9
310.098
310.141
310.319
310.435
310.531
310.53
310.545
310.385
310.136
309.877
309.724
309.589
309.568
309.665
309.903
308.08
307.872
307.768
307.649
307.694
307.869
307.909
308.023
308.094
308.176
308.196
308.205
308.081
307.886
307.678
307.571
307.474
307.431
307.506
307.724
305.765
305.599
305.56
305.471
305.48
305.626
305.67
305.703
305.785
305.848
305.854
305.873
305.765
305.645
305.485
305.421
305.358
305.302
305.35
305.542
303.466
303.35
303.328
303.281
303.284
303.383
303.417
303.427
303.475
303.516
303.519
303.523
303.459
303.392
303.286
303.261
303.238
303.188
303.211
303.333
301.169
301.126
301.11
301.101
301.1
301.129
301.144
301.146
301.16
301.184
301.179
301.179
301.164
301.14
301.088
301.086
301.092
301.074
301.087
301.115
317.798
317.505
317.226
316.97
317.075
317.186
317.508
317.765
317.893
318.015
318.059
318.01
317.743
317.388
316.842
316.552
316.366
316.419
316.51
316.802
315.352
315.12
314.903
314.657
314.776
314.879
315.133
315.355
315.483
315.607
315.643
315.601
315.378
315.084
314.621
314.363
314.218
314.301
314.345
314.602
312.953
312.776
312.573
312.383
312.495
312.606
312.812
312.989
313.105
313.196
313.229
313.212
313.027
312.771
312.393
312.177
312.051
312.125
312.161
312.395
310.573
310.444
310.271
310.122
310.209
310.331
310.485
310.628
310.716
310.803
310.819
310.801
310.659
310.462
310.179
309.972
309.872
309.928
309.95
310.184
308.19
308.12
307.98
307.857
307.943
308.05
308.148
308.272
308.343
308.396
308.401
308.389
308.277
308.161
307.95
307.759
307.691
307.722
307.747
307.958
305.828
305.801
305.695
305.604
305.696
305.75
305.829
305.908
305.955
305.996
305.999
305.967
305.882
305.838
305.697
305.54
305.502
305.531
305.533
305.695
303.5
303.506
303.416
303.348
303.432
303.465
303.5
303.548
303.584
303.601
303.609
303.58
303.524
303.511
303.42
303.323
303.306
303.325
303.327
303.428
301.171
301.181
301.147
301.12
301.157
301.164
301.175
301.183
301.192
301.207
301.198
301.202
301.171
301.165
301.158
301.115
301.11
301.125
301.122
301.144
318.488
318.15
317.756
317.674
317.605
317.836
317.986
318.181
318.435
318.641
318.712
318.45
318.375
317.868
317.355
317.08
316.935
316.931
316.979
317.153
315.97
315.706
315.357
315.276
315.231
315.44
315.584
315.716
315.95
316.111
316.207
315.971
315.92
315.504
315.051
314.811
314.701
314.73
314.737
314.863
313.493
313.287
312.971
312.886
312.854
313.074
313.192
313.289
313.482
313.599
313.705
313.52
313.47
313.125
312.758
312.533
312.455
312.488
312.486
312.589
310.999
310.873
310.59
310.514
310.503
310.692
310.803
310.867
311.01
311.098
311.204
311.073
311.051
310.73
310.456
310.262
310.206
310.227
310.243
310.296
308.538
308.454
308.204
308.161
308.166
308.327
308.418
308.443
308.543
308.639
308.718
308.628
308.597
308.36
308.161
307.985
307.959
307.993
307.973
308.009
306.102
306.049
305.846
305.812
305.839
305.97
306.016
306.026
306.095
306.169
306.236
306.183
306.158
305.98
305.848
305.705
305.684
305.735
305.704
305.733
303.666
303.636
303.518
303.491
303.5
303.599
303.612
303.615
303.658
303.713
303.737
303.721
303.708
303.578
303.526
303.44
303.416
303.448
303.428
303.449
301.227
301.218
301.179
301.174
301.168
301.213
301.209
301.219
301.213
301.251
301.248
301.245
301.25
301.198
301.185
301.161
301.149
301.157
301.147
301.163
319.129
318.725
318.285
318.295
318.237
318.432
318.736
318.863
319.104
319.195
319.215
319.08
318.875
318.469
317.999
317.675
317.419
317.407
317.477
317.646
316.49
316.191
315.798
315.815
315.768
315.963
316.199
316.316
316.521
316.611
316.6
316.524
316.352
315.993
315.598
315.342
315.117
315.112
315.151
315.289
313.895
313.647
313.315
313.357
313.307
313.506
313.691
313.776
313.975
314.065
313.999
313.981
313.847
313.527
313.208
313.016
312.813
312.812
312.83
312.938
311.347
311.122
310.862
310.906
310.861
311.057
311.199
311.256
311.415
311.507
311.422
311.428
311.349
311.09
310.825
310.647
310.485
310.506
310.527
310.602
308.8
308.633
308.446
308.457
308.468
308.593
308.719
308.762
308.851
308.947
308.883
308.873
308.849
308.653
308.403
308.281
308.135
308.218
308.195
308.243
306.278
306.15
306.049
306.045
306.06
306.127
306.238
306.258
306.315
306.404
306.341
306.322
306.346
306.215
305.982
305.901
305.815
305.894
305.875
305.876
303.764
303.703
303.635
303.633
303.623
303.673
303.754
303.74
303.784
303.847
303.812
303.808
303.829
303.742
303.577
303.531
303.492
303.555
303.545
303.511
301.268
301.246
301.213
301.21
301.21
301.241
301.256
301.252
301.264
301.279
301.281
301.287
301.296
301.259
301.186
301.177
301.173
301.197
301.194
301.159
319.96
319.462
319.056
318.954
318.963
319.151
319.272
319.5
319.733
319.878
319.781
319.753
319.448
319.032
318.571
318.287
317.914
317.855
318.091
318.258
317.241
316.819
316.47
316.391
316.389
316.568
316.663
316.869
317.091
317.2
317.11
317.108
316.859
316.505
316.107
315.871
315.536
315.516
315.729
315.846
314.532
314.201
313.905
313.818
313.835
313.995
314.069
314.269
314.467
314.542
314.442
314.468
314.25
313.974
313.635
313.456
313.166
313.143
313.347
313.411
311.839
311.595
311.357
311.274
311.333
311.455
311.491
311.665
311.838
311.888
311.798
311.814
311.65
311.444
311.16
311.024
310.801
310.78
310.946
310.964
309.212
309.008
308.808
308.754
308.813
308.904
308.927
309.067
309.2
309.246
309.17
309.179
309.032
308.909
308.664
308.589
308.421
308.415
308.529
308.524
306.602
306.417
306.276
306.239
306.286
306.343
306.363
306.484
306.569
306.631
306.544
306.537
306.443
306.377
306.189
306.159
306.031
306.027
306.101
306.105
303.978
303.857
303.756
303.722
303.772
303.803
303.812
303.897
303.93
304.006
303.929
303.921
303.859
303.834
303.702
303.727
303.633
303.618
303.687
303.665
301.331
301.285
301.251
301.244
301.261
301.277
301.271
301.302
301.314
301.335
301.315
301.311
301.288
301.285
301.243
301.259
301.222
301.203
301.233
301.242
320.746
320.177
319.908
319.761
319.663
319.741
319.89
320.246
320.38
320.389
320.465
320.347
320.138
319.671
319.242
318.872
318.595
318.476
318.621
318.951
317.897
317.435
317.22
317.094
317.01
317.079
317.213
317.536
317.635
317.639
317.702
317.605
317.441
317.01
316.67
316.364
316.135
316.033
316.194
316.422
315.073
314.697
314.55
314.458
314.375
314.438
314.542
314.831
314.913
314.903
314.947
314.897
314.744
314.404
314.099
313.863
313.7
313.59
313.744
313.881
312.284
311.995
311.892
311.814
311.752
311.776
311.887
312.132
312.177
312.194
312.186
312.198
312.023
311.801
311.507
311.341
311.246
311.156
311.288
311.357
309.538
309.323
309.257
309.168
309.161
309.149
309.261
309.454
309.462
309.488
309.468
309.475
309.32
309.171
308.929
308.827
308.766
308.687
308.81
308.814
306.808
306.643
306.627
306.54
306.535
306.529
306.616
306.766
306.751
306.781
306.78
306.741
306.656
306.556
306.352
306.301
306.286
306.22
306.316
306.276
304.068
303.975
303.965
303.924
303.921
303.903
303.993
304.067
304.063
304.085
304.079
304.031
303.985
303.92
303.806
303.781
303.775
303.747
303.79
303.759
301.366
301.33
301.328
301.321
301.316
301.308
301.35
301.366
301.37
301.371
301.365
301.35
301.333
301.312
301.272
301.265
301.257
301.257
301.259
301.251
321.506
320.849
320.683
320.552
320.462
320.596
320.771
320.794
321.016
321.135
321.037
320.97
320.676
320.199
319.801
319.52
319.211
318.978
319.244
319.472
318.566
317.996
317.869
317.744
317.694
317.828
317.99
318.003
318.177
318.284
318.186
318.14
317.913
317.506
317.137
316.95
316.671
316.447
316.713
316.881
315.671
315.182
315.096
314.994
314.963
315.073
315.228
315.221
315.375
315.442
315.366
315.339
315.144
314.8
314.489
314.354
314.133
313.946
314.173
314.311
312.804
312.404
312.341
312.253
312.244
312.315
312.479
312.453
312.558
312.624
312.55
312.54
312.384
312.081
311.83
311.766
311.593
311.403
311.596
311.724
309.955
309.643
309.605
309.517
309.522
309.58
309.732
309.682
309.742
309.789
309.745
309.742
309.632
309.357
309.173
309.174
309.048
308.876
309.018
309.12
307.107
306.898
306.879
306.792
306.815
306.853
306.968
306.907
306.951
306.985
306.951
306.965
306.884
306.669
306.541
306.564
306.498
306.346
306.451
306.511
304.268
304.141
304.148
304.072
304.082
304.11
304.199
304.149
304.177
304.181
304.169
304.192
304.144
303.99
303.927
303.958
303.925
303.816
303.887
303.91
301.442
301.388
301.395
301.355
301.37
301.38
301.408
301.396
301.402
301.397
301.396
301.405
301.381
301.339
301.312
301.332
301.325
301.281
301.302
301.303
322.343
321.77
321.473
321.285
321.226
321.344
321.416
321.533
321.616
321.757
321.691
321.588
321.298
320.875
320.4
320.142
319.765
319.627
319.871
320.079
319.324
318.801
318.533
318.404
318.364
318.474
318.554
318.615
318.687
318.828
318.782
318.688
318.449
318.067
317.68
317.46
317.136
317.011
317.229
317.397
316.334
315.85
315.655
315.528
315.523
315.617
315.701
315.733
315.791
315.92
315.865
315.788
315.607
315.267
314.99
314.783
314.528
314.41
314.579
314.73
313.361
312.928
312.795
312.693
312.686
312.769
312.846
312.876
312.88
313.033
312.95
312.904
312.768
312.468
312.306
312.11
311.905
311.808
311.965
312.081
310.4
310.015
309.972
309.865
309.855
309.915
309.964
310.032
309.997
310.131
310.068
310.032
309.933
309.679
309.576
309.438
309.27
309.204
309.325
309.406
307.452
307.13
307.133
307.061
307.049
307.082
307.098
307.169
307.128
307.258
307.191
307.178
307.11
306.898
306.862
306.733
306.625
306.58
306.672
306.714
304.487
304.27
304.301
304.233
304.221
304.253
304.258
304.305
304.28
304.36
304.323
304.321
304.275
304.134
304.119
304.046
303.973
303.942
303.995
304.025
301.511
301.434
301.449
301.423
301.404
301.427
301.426
301.44
301.432
301.464
301.458
301.449
301.429
301.387
301.386
301.353
301.338
301.321
301.34
301.357
323.162
322.632
322.278
322.046
322.037
322.031
322.162
322.153
322.314
322.292
322.191
322.077
321.891
321.396
320.977
320.685
320.385
320.381
320.466
320.66
320.011
319.568
319.251
319.053
319.058
319.065
319.193
319.159
319.297
319.283
319.204
319.13
318.962
318.522
318.164
317.929
317.687
317.684
317.735
317.917
316.878
316.531
316.261
316.105
316.093
316.118
316.241
316.203
316.286
316.284
316.223
316.177
316.041
315.676
315.37
315.164
314.999
314.982
315.008
315.171
313.804
313.508
313.311
313.166
313.148
313.198
313.292
313.266
313.293
313.301
313.268
313.229
313.114
312.821
312.586
312.421
312.285
312.277
312.287
312.408
310.727
310.467
310.371
310.239
310.231
310.263
310.342
310.327
310.32
310.341
310.322
310.275
310.201
309.965
309.794
309.682
309.574
309.559
309.573
309.623
307.669
307.467
307.434
307.309
307.308
307.33
307.398
307.376
307.364
307.388
307.367
307.33
307.294
307.114
307.001
306.961
306.849
306.824
306.859
306.862
304.605
304.479
304.471
304.409
304.377
304.403
304.437
304.436
304.431
304.437
304.421
304.392
304.39
304.261
304.212
304.194
304.114
304.09
304.114
304.114
301.535
301.506
301.507
301.488
301.463
301.474
301.488
301.494
301.478
301.492
301.481
301.482
301.475
301.42
301.412
301.406
301.377
301.359
301.382
301.393
323.962
323.613
323.212
322.859
322.781
322.753
322.846
322.809
322.934
322.908
322.873
322.545
322.468
322.012
321.472
321.292
321.071
321.064
321.167
321.286
320.689
320.406
320.081
319.771
319.685
319.66
319.799
319.74
319.842
319.817
319.804
319.51
319.475
319.07
318.615
318.442
318.266
318.282
318.343
318.45
317.463
317.247
316.961
316.717
316.625
316.599
316.772
316.679
316.751
316.757
316.752
316.51
316.492
316.139
315.751
315.6
315.463
315.469
315.517
315.631
314.258
314.094
313.851
313.68
313.591
313.556
313.727
313.61
313.65
313.697
313.701
313.522
313.515
313.215
312.877
312.782
312.656
312.636
312.706
312.791
311.088
310.955
310.767
310.657
310.573
310.524
310.659
310.575
310.597
310.672
310.65
310.526
310.534
310.27
310.012
309.933
309.849
309.799
309.889
309.96
307.894
307.8
307.677
307.626
307.555
307.502
307.601
307.573
307.574
307.611
307.609
307.515
307.548
307.328
307.165
307.087
307.043
306.981
307.068
307.136
304.727
304.663
304.597
304.592
304.531
304.491
304.562
304.559
304.546
304.573
304.568
304.526
304.563
304.387
304.311
304.243
304.227
304.178
304.241
304.291
301.571
301.57
301.537
301.549
301.524
301.496
301.526
301.532
301.522
301.53
301.528
301.522
301.536
301.463
301.45
301.413
301.41
301.395
301.424
301.436
324.83
324.451
324.009
323.754
323.54
323.512
323.577
323.477
323.466
323.509
323.316
323.132
322.961
322.596
322.134
321.824
321.703
321.653
321.688
321.92
321.419
321.134
320.748
320.53
320.356
320.344
320.418
320.281
320.304
320.352
320.189
320.038
319.907
319.603
319.175
318.916
318.819
318.741
318.795
318.997
318.056
317.831
317.525
317.314
317.214
317.209
317.287
317.131
317.173
317.208
317.065
316.954
316.857
316.599
316.238
316.002
315.919
315.849
315.92
316.072
314.733
314.56
314.338
314.123
314.086
314.056
314.144
313.998
314.044
314.079
313.955
313.874
313.814
313.611
313.323
313.086
313.041
312.955
313.038
313.141
311.453
311.323
311.169
310.985
310.966
310.93
310.994
310.873
310.924
310.962
310.859
310.795
310.762
310.601
310.396
310.189
310.158
310.063
310.16
310.213
308.198
308.092
307.977
307.876
307.838
307.827
307.856
307.745
307.808
307.854
307.754
307.711
307.703
307.574
307.43
307.271
307.276
307.192
307.257
307.287
304.919
304.853
304.791
304.751
304.709
304.695
304.707
304.641
304.677
304.719
304.649
304.624
304.629
304.538
304.469
304.374
304.378
304.326
304.35
304.379
301.643
301.625
301.608
301.595
301.578
301.57
301.575
301.564
301.563
301.583
301.547
301.551
301.555
301.527
301.507
301.463
301.47
301.447
301.458
301.476
325.587
325.195
324.845
324.575
324.373
324.292
324.266
324.127
324.138
324.129
323.858
323.608
323.468
323.13
322.792
322.504
322.342
322.195
322.33
322.568
322.095
321.763
321.457
321.233
321.081
321.007
320.998
320.88
320.898
320.865
320.645
320.42
320.332
320.04
319.767
319.511
319.37
319.247
319.343
319.548
318.631
318.376
318.107
317.936
317.825
317.756
317.756
317.657
317.651
317.638
317.482
317.265
317.228
316.953
316.713
316.516
316.406
316.299
316.365
316.535
315.195
315.02
314.791
314.645
314.562
314.531
314.518
314.445
314.442
314.417
314.308
314.099
314.112
313.861
313.691
313.52
313.453
313.338
313.386
313.52
311.778
311.67
311.488
311.38
311.328
311.316
311.297
311.217
311.227
311.203
311.124
310.956
310.964
310.778
310.648
310.518
310.47
310.363
310.412
310.518
308.39
308.33
308.205
308.115
308.093
308.071
308.069
308.008
308.009
307.994
307.954
307.834
307.843
307.712
307.612
307.522
307.463
307.397
307.421
307.516
305.026
305.01
304.926
304.86
304.862
304.834
304.836
304.822
304.801
304.806
304.779
304.686
304.724
304.655
304.573
304.522
304.489
304.435
304.44
304.506
301.684
301.682
301.658
301.634
301.642
301.614
301.626
301.615
301.607
301.618
301.578
301.56
301.586
301.563
301.529
301.521
301.507
301.489
301.495
301.513
326.289
325.942
325.606
325.406
325.218
325.085
324.843
324.817
324.707
324.668
324.418
324.122
323.984
323.645
323.451
323.207
322.883
322.908
323.052
323.243
322.705
322.418
322.14
321.986
321.812
321.703
321.499
321.494
321.373
321.354
321.133
320.88
320.794
320.495
320.289
320.095
319.814
319.861
319.974
320.146
319.155
318.946
318.689
318.579
318.428
318.357
318.181
318.178
318.063
318.045
317.856
317.659
317.581
317.342
317.144
316.987
316.748
316.823
316.905
317.047
315.645
315.487
315.264
315.187
315.05
315.015
314.882
314.861
314.765
314.757
314.6
314.427
314.372
314.198
314.017
313.876
313.703
313.761
313.824
313.934
312.14
312.033
311.859
311.792
311.694
311.682
311.573
311.538
311.478
311.485
311.36
311.2
311.168
311.046
310.916
310.773
310.659
310.691
310.742
310.844
308.648
308.582
308.46
308.428
308.379
308.33
308.282
308.22
308.215
308.205
308.117
308.01
307.985
307.893
307.8
307.69
307.618
307.646
307.666
307.752
305.193
305.153
305.056
305.071
305.033
304.999
304.98
304.921
304.938
304.92
304.892
304.813
304.795
304.757
304.703
304.608
304.575
304.591
304.604
304.659
301.741
301.738
301.69
301.703
301.681
301.672
301.676
301.644
301.662
301.639
301.634
301.608
301.614
301.594
301.579
301.545
301.532
301.534
301.545
301.556
327.098
326.849
326.501
326.265
325.901
325.799
325.544
325.44
325.192
325.188
324.988
324.8
324.444
324.209
324.088
323.855
323.575
323.661
323.758
323.865
323.417
323.187
322.899
322.725
322.407
322.305
322.106
322.016
321.793
321.812
321.63
321.459
321.145
320.967
320.874
320.681
320.423
320.511
320.584
320.672
319.754
319.572
319.328
319.217
318.937
318.83
318.697
318.591
318.432
318.442
318.284
318.15
317.87
317.725
317.669
317.495
317.276
317.34
317.406
317.507
316.115
316
315.796
315.716
315.468
315.378
315.305
315.194
315.088
315.075
314.952
314.833
314.641
314.495
314.466
314.295
314.117
314.182
314.241
314.328
312.518
312.421
312.275
312.217
312.042
311.915
311.9
311.8
311.742
311.733
311.648
311.532
311.412
311.266
311.251
311.105
310.963
311.019
311.095
311.148
308.914
308.847
308.764
308.724
308.607
308.483
308.492
308.424
308.402
308.407
308.322
308.246
308.173
308.066
308.042
307.918
307.842
307.865
307.931
307.98
305.335
305.294
305.288
305.241
305.173
305.096
305.093
305.056
305.069
305.064
305.005
304.955
304.93
304.853
304.84
304.762
304.708
304.741
304.767
304.812
301.786
301.767
301.773
301.756
301.735
301.71
301.704
301.696
301.712
301.696
301.693
301.653
301.651
301.629
301.631
301.6
301.581
301.585
301.598
301.618
327.877
327.547
327.268
327.006
326.518
326.308
326.061
326.034
325.801
325.646
325.487
325.294
324.977
324.762
324.473
324.273
324.194
324.291
324.362
324.393
324.078
323.795
323.552
323.359
322.938
322.748
322.538
322.52
322.337
322.182
322.047
321.901
321.627
321.442
321.204
321.045
320.965
321.021
321.107
321.121
320.311
320.101
319.892
319.715
319.357
319.221
319.042
319.014
318.878
318.727
318.639
318.505
318.257
318.148
317.933
317.803
317.733
317.761
317.847
317.86
316.594
316.41
316.242
316.106
315.794
315.705
315.544
315.529
315.445
315.283
315.248
315.137
314.945
314.861
314.668
314.565
314.504
314.512
314.61
314.616
312.881
312.745
312.594
312.513
312.258
312.182
312.063
312.049
312.029
311.855
311.855
311.771
311.629
311.559
311.42
311.349
311.289
311.254
311.359
311.381
309.185
309.109
308.985
308.934
308.746
308.685
308.6
308.584
308.601
308.48
308.457
308.4
308.309
308.252
308.153
308.122
308.07
308.027
308.116
308.154
305.508
305.47
305.393
305.371
305.246
305.227
305.144
305.141
305.173
305.091
305.093
305.04
305.005
304.942
304.895
304.877
304.837
304.824
304.867
304.913
301.845
301.844
301.802
301.8
301.76
301.752
301.732
301.723
301.738
301.712
301.706
301.678
301.677
301.652
301.637
301.647
301.616
301.615
301.635
301.647
328.429
328.359
327.902
327.494
327.123
326.901
326.663
326.575
326.33
326.118
325.982
325.855
325.595
325.245
325.016
324.824
324.732
324.831
324.93
324.991
324.546
324.494
324.121
323.737
323.426
323.249
323.039
322.986
322.76
322.539
322.473
322.367
322.149
321.851
321.659
321.492
321.417
321.503
321.616
321.626
320.714
320.649
320.36
320.047
319.783
319.626
319.45
319.427
319.227
319.011
318.984
318.895
318.711
318.464
318.31
318.189
318.116
318.198
318.305
318.289
316.914
316.839
316.624
316.372
316.143
316.038
315.89
315.878
315.718
315.502
315.518
315.462
315.301
315.079
314.986
314.87
314.839
314.882
314.997
314.953
313.139
313.071
312.916
312.725
312.533
312.464
312.34
312.335
312.206
312.027
312.062
312.022
311.882
311.712
311.643
311.565
311.545
311.572
311.674
311.64
309.37
309.341
309.23
309.089
308.939
308.876
308.803
308.795
308.703
308.584
308.617
308.585
308.476
308.353
308.325
308.261
308.266
308.286
308.33
308.328
305.608
305.608
305.539
305.469
305.372
305.319
305.272
305.276
305.228
305.153
305.172
305.172
305.089
304.997
305.005
304.957
304.966
304.991
304.974
305.017
301.868
301.885
301.858
301.833
301.809
301.778
301.753
301.77
301.749
301.726
301.745
301.738
301.715
301.68
301.672
301.659
301.675
301.678
301.671
301.691
328.983
328.819
328.321
328.04
327.763
327.426
327.17
327.016
326.83
326.509
326.265
326.251
326.003
325.686
325.402
325.237
325.16
325.274
325.337
325.55
324.986
324.858
324.45
324.211
323.965
323.692
323.47
323.333
323.191
322.904
322.697
322.678
322.483
322.198
321.989
321.832
321.755
321.877
321.923
322.087
321.055
320.957
320.595
320.441
320.204
319.991
319.818
319.701
319.57
319.31
319.171
319.126
318.972
318.76
318.592
318.469
318.392
318.503
318.542
318.66
317.181
317.092
316.795
316.722
316.515
316.31
316.181
316.085
315.982
315.74
315.667
315.61
315.472
315.361
315.19
315.123
315.026
315.114
315.133
315.253
313.339
313.252
313.039
313
312.847
312.629
312.58
312.484
312.414
312.207
312.183
312.137
311.986
311.967
311.792
311.783
311.69
311.756
311.758
311.852
309.524
309.428
309.33
309.273
309.183
309.002
308.975
308.897
308.858
308.731
308.677
308.681
308.552
308.556
308.433
308.419
308.357
308.381
308.405
308.474
305.708
305.628
305.608
305.558
305.527
305.386
305.378
305.333
305.334
305.24
305.2
305.233
305.147
305.133
305.073
305.036
305.034
305.041
305.035
305.095
301.908
301.893
301.878
301.866
301.85
301.794
301.806
301.792
301.781
301.758
301.743
301.762
301.727
301.703
301.714
301.683
301.697
301.7
301.689
301.71
)
;

boundaryField
{
    hotSide
    {
        type            fixedGradient;
        gradient        nonuniform List<scalar> 
400
(
186.062
187.594
190.482
194.691
200.093
206.496
213.697
221.507
229.767
238.349
247.154
256.102
265.127
274.176
283.201
292.155
300.998
309.693
318.217
326.563
177.111
178.717
181.773
186.24
191.961
198.711
206.258
214.394
222.951
231.796
240.828
249.97
259.16
268.346
277.484
286.529
295.44
304.18
312.725
321.068
171.571
173.355
176.573
181.18
187.021
193.875
201.511
209.721
218.333
227.215
236.265
245.404
254.571
263.719
272.802
281.783
290.624
299.292
307.766
316.045
169.232
171.29
174.666
179.316
185.108
191.853
199.348
207.4
215.845
224.553
233.419
242.363
251.326
260.26
269.126
277.891
286.525
295.005
303.318
311.467
169.217
171.596
175.142
179.811
185.496
192.044
199.284
207.05
215.189
223.576
232.109
240.71
249.321
257.899
266.413
274.837
283.154
291.351
299.425
307.38
170.537
173.244
176.983
181.706
187.317
193.692
200.682
208.142
215.932
223.935
232.054
240.218
248.378
256.5
264.565
272.56
280.48
288.323
296.094
303.8
172.399
175.423
179.377
184.207
189.821
196.104
202.919
210.128
217.6
225.22
232.902
240.587
248.239
255.844
263.398
270.907
278.379
285.824
293.25
300.67
174.218
177.534
181.714
186.698
192.393
198.68
205.422
212.473
219.696
226.979
234.241
241.439
248.562
255.621
262.637
269.637
276.642
283.673
290.745
297.869
175.559
179.115
183.504
188.661
194.488
200.858
207.619
214.608
221.669
228.68
235.563
242.298
248.905
255.429
261.922
268.432
274.995
281.64
288.383
295.236
176.089
179.799
184.335
189.631
195.585
202.06
208.887
215.878
222.85
229.658
236.23
242.567
248.726
254.789
260.839
266.94
273.142
279.477
285.962
292.608
175.586
179.322
183.892
189.227
195.224
201.741
208.597
215.582
222.492
229.166
235.53
241.601
247.466
253.232
259
264.848
270.83
276.982
283.321
289.858
173.966
177.576
182.03
187.26
193.16
199.587
206.356
213.259
220.09
226.688
232.98
238.983
244.781
250.484
256.194
261.991
267.933
274.059
280.388
286.931
171.321
174.656
178.851
183.838
189.511
195.725
202.306
209.058
215.796
222.377
228.725
234.842
240.787
246.646
252.506
258.443
264.515
270.762
277.211
283.874
167.924
170.868
174.705
179.371
184.757
190.721
197.096
203.705
210.384
217.005
223.493
229.828
236.037
242.176
248.312
254.51
260.824
267.298
273.962
280.832
164.226
166.706
170.144
174.479
179.6
185.36
191.592
198.127
204.811
211.524
218.186
224.764
231.26
237.705
244.148
250.642
257.24
263.984
270.91
278.037
160.856
162.843
165.887
169.931
174.855
180.495
186.671
193.207
199.95
206.78
213.615
220.41
227.155
233.866
240.579
247.339
254.199
261.204
268.391
275.784
158.651
160.156
162.839
166.642
171.429
177.009
183.177
189.743
196.55
203.477
210.441
217.393
224.316
231.218
238.128
245.089
252.153
259.371
266.784
274.415
158.619
159.706
162.065
165.644
170.285
175.775
181.887
188.423
195.223
202.167
209.174
216.194
223.207
230.216
237.244
244.333
251.534
258.902
266.482
274.294
161.655
162.439
164.509
167.817
172.208
177.467
183.372
189.729
196.38
203.212
210.144
217.125
224.133
231.166
238.243
245.398
252.679
260.138
267.815
275.729
168.027
168.639
170.45
173.422
177.427
182.285
187.802
193.805
200.15
206.728
213.459
220.294
227.205
234.185
241.245
248.411
255.72
263.21
270.914
278.843
)
;
    }
    coldSide
    {
        type            mixed;
        refValue        uniform 300;
        refGradient     uniform 0;
        valueFraction   uniform 0.991591;
        source          uniform 0;
        value           nonuniform List<scalar> 
400
(
300.009
300.009
300.01
300.01
300.01
300.01
300.011
300.011
300.011
300.012
300.013
300.013
300.013
300.014
300.014
300.015
300.015
300.016
300.016
300.016
300.009
300.009
300.009
300.009
300.01
300.01
300.01
300.011
300.011
300.012
300.012
300.013
300.013
300.014
300.014
300.015
300.015
300.016
300.016
300.016