/*--------------------------------*- C++ -*----------------------------------*\
| =========                 |                                                 |
| \\      /  F ield         | OpenFOAM: The Open Source CFD Toolbox           |
|  \\    /   O peration     | Version:  2212                                  |
|   \\  /    A nd           | Website:  www.openfoam.com                      |
|    \\/     M anipulation  |                                                 |
\*---------------------------------------------------------------------------*/
FoamFile
{
    version     2.0;
    format      ascii;
    arch        "LSB;label=32;scalar=64";
    class       volScalarField;
    location    "0";
    object      T;
}
// * * * * * * * * * * * * * * * * * * * * * * * * * * * * * * * * * * * * * //

dimensions      [0 0 0 1 0 0 0];

internalField   nonuniform List<scalar> 
3200
(
324.479
324.536
325.082
325.533
325.716
326.193
326.552
326.486
326.185
326.138
325.999
326.148
325.968
325.688
325.436
325.156
324.945
324.326
323.721
323.444
321.369
321.388
321.915
322.318
322.463
322.892
323.207
323.119
322.834
322.806
322.676
322.839
322.665
322.48
322.189
321.979
321.78
321.261
320.688
320.495
318.194
318.179
318.619
319.009
319.109
319.52
319.802
319.654
319.416
319.42
319.328
319.439
319.306
319.208
318.887
318.744
318.593
318.111
317.592
317.503
314.939
314.984
315.255
315.631
315.728
316.069
316.293
316.169
315.961
315.958
315.94
316
315.875
315.855
315.543
315.425
315.338
314.904
314.525
314.448
311.668
311.732
311.874
312.192
312.293
312.597
312.747
312.633
312.457
312.457
312.471
312.502
312.384
312.435
312.121
312.034
311.971
311.661
311.384
311.305
308.388
308.423
308.49
308.718
308.797
309.023
309.125
309.055
308.898
308.948
308.94
309.005
308.888
308.969
308.643
308.593
308.553
308.368
308.192
308.148
305.1
305.046
305.104
305.226
305.29
305.439
305.459
305.462
305.341
305.392
305.335
305.435
305.374
305.404
305.189
305.156
305.12
305.059
304.943
304.92
301.72
301.688
301.712
301.765
301.765
301.817
301.806
301.823
301.795
301.809
301.774
301.845
301.793
301.833
301.736
301.743
301.702
301.698
301.677
301.649
325.179
325.476
325.962
326.427
326.606
326.992
327.265
327.244
327.06
327.337
327.062
327.093
326.899
326.47
326.273
325.968
325.637
325.018
324.442
324.186
321.926
322.173
322.582
323.045
323.124
323.527
323.761
323.724
323.552
323.842
323.581
323.63
323.463
323.093
322.909
322.674
322.424
321.853
321.295
321.058
318.631
318.828
319.198
319.577
319.643
319.996
320.219
320.196
320.03
320.274
320.063
320.084
319.966
319.674
319.495
319.328
319.135
318.569
318.096
317.908
315.282
315.451
315.736
316.075
316.146
316.419
316.596
316.643
316.478
316.675
316.528
316.499
316.423
316.148
316.074
315.906
315.75
315.248
314.813
314.697
311.896
312.007
312.259
312.53
312.559
312.829
312.977
313.07
312.852
312.983
312.895
312.928
312.864
312.665
312.564
312.44
312.323
311.937
311.571
311.482
308.522
308.571
308.738
308.985
309.037
309.166
309.31
309.361
309.202
309.289
309.241
309.273
309.241
309.123
308.982
308.899
308.841
308.551
308.285
308.236
305.144
305.138
305.213
305.412
305.43
305.496
305.58
305.623
305.515
305.547
305.542
305.606
305.569
305.467
305.409
305.327
305.32
305.136
304.942
304.968
301.724
301.724
301.742
301.817
301.827
301.847
301.873
301.862
301.855
301.865
301.866
301.886
301.877
301.826
301.826
301.776
301.783
301.75
301.641
301.668
326.169
326.494
327.112
327.486
327.799
328.065
328.287
328.385
328.319
328.46
328.345
328.256
328.243
327.741
327.402
327.134
326.887
326.171
325.431
325.308
322.753
323.047
323.597
323.933
324.166
324.423
324.594
324.726
324.632
324.778
324.693
324.631
324.606
324.215
323.922
323.617
323.481
322.853
322.19
322.115
319.282
319.577
320.067
320.361
320.553
320.756
320.93
320.991
320.932
321.093
321.02
320.906
320.917
320.599
320.351
320.108
319.991
319.458
318.88
318.837
315.843
316.154
316.46
316.714
316.901
317.036
317.187
317.239
317.182
317.341
317.291
317.152
317.149
316.962
316.752
316.519
316.46
315.998
315.561
315.448
312.357
312.652
312.8
313.006
313.207
313.248
313.409
313.438
313.423
313.562
313.521
313.343
313.368
313.278
313.097
312.874
312.85
312.511
312.147
312.057
308.853
309.079
309.143
309.312
309.465
309.486
309.655
309.638
309.653
309.698
309.63
309.489
309.563
309.543
309.404
309.24
309.237
308.968
308.716
308.617
305.319
305.454
305.477
305.598
305.697
305.696
305.835
305.816
305.835
305.873
305.768
305.658
305.76
305.766
305.652
305.567
305.612
305.389
305.244
305.145
301.782
301.825
301.832
301.87
301.914
301.933
301.965
301.973
301.971
301.984
301.94
301.889
301.935
301.935
301.891
301.882
301.888
301.797
301.75
301.718
327.3
327.664
328.344
328.69
328.966
329.288
329.688
329.529
329.637
329.944
329.719
329.434
329.325
328.988
328.851
328.522
328.06
327.594
326.609
326.513
323.76
324.098
324.701
324.927
325.211
325.467
325.836
325.684
325.822
326.087
325.878
325.62
325.588
325.217
325.123
324.868
324.46
324.05
323.201
323.158
320.21
320.448
320.961
321.156
321.442
321.591
321.97
321.81
321.951
322.176
321.972
321.746
321.803
321.393
321.316
321.16
320.8
320.492
319.717
319.687
316.602
316.748
317.186
317.381
317.651
317.697
318.039
317.891
318.04
318.21
318.028
317.834
317.966
317.587
317.491
317.386
317.105
316.871
316.185
316.146
312.953
313.076
313.372
313.55
313.788
313.801
314.074
313.95
314.075
314.192
314.069
313.9
314.045
313.744
313.691
313.608
313.328
313.222
312.623
312.533
309.267
309.345
309.574
309.686
309.865
309.893
310.068
310.012
310.091
310.139
310.05
309.947
310.065
309.857
309.797
309.78
309.545
309.494
309.012
308.933
305.604
305.622
305.754
305.835
305.949
305.974
306.051
306.04
306.085
306.101
306.025
305.985
306.052
305.926
305.922
305.89
305.755
305.726
305.404
305.377
301.882
301.87
301.937
301.955
301.999
302.015
302.011
302.025
302.044
302.046
302.01
302.001
302.027
301.965
302.002
301.963
301.935
301.931
301.808
301.809
328.405
328.708
329.239
329.913
330.112
330.695
330.828
330.83
330.669
331.008
330.957
330.614
330.642
330.186
330.08
329.815
329.225
328.835
327.861
327.526
324.693
324.952
325.446
326.036
326.197
326.758
326.839
326.783
326.697
326.987
326.977
326.661
326.697
326.288
326.201
325.979
325.469
325.135
324.254
324.039
320.961
321.157
321.605
322.083
322.249
322.733
322.774
322.729
322.663
322.898
322.93
322.669
322.699
322.368
322.255
322.057
321.629
321.398
320.635
320.429
317.231
317.341
317.753
318.085
318.274
318.638
318.651
318.647
318.632
318.815
318.826
318.67
318.66
318.373
318.292
318.102
317.768
317.597
316.979
316.785
313.411
313.473
313.822
314.051
314.29
314.578
314.487
314.531
314.542
314.729
314.665
314.593
314.528
314.325
314.298
314.145
313.874
313.717
313.263
313.087
309.59
309.653
309.847
310.009
310.221
310.452
310.381
310.393
310.406
310.571
310.508
310.447
310.371
310.275
310.233
310.148
309.96
309.841
309.491
309.35
305.774
305.837
305.967
306.003
306.124
306.266
306.231
306.264
306.243
306.353
306.298
306.266
306.22
306.179
306.167
306.111
305.995
305.953
305.696
305.646
301.943
301.968
302.021
301.996
302.043
302.103
302.063
302.118
302.078
302.148
302.093
302.088
302.076
302.065
302.068
302.048
302.003
302.003
301.916
301.905
329.391
329.984
330.65
331.129
331.317
332.03
332.068
332.061
332.028
331.989
332.372
332.063
331.949
331.421
331.143
330.996
330.423
329.847
329.205
328.719
325.551
326.098
326.644
327.071
327.213
327.869
327.902
327.869
327.846
327.877
328.201
327.938
327.811
327.357
327.132
327.034
326.532
326.004
325.435
325.069
321.704
322.135
322.604
322.979
323.113
323.633
323.674
323.622
323.646
323.715
323.995
323.803
323.67
323.243
323.084
323.029
322.585
322.113
321.583
321.358
317.816
318.147
318.519
318.847
318.964
319.397
319.42
319.379
319.422
319.485
319.693
319.612
319.439
319.118
318.962
318.939
318.54
318.182
317.701
317.593
313.914
314.129
314.425
314.71
314.814
315.157
315.137
315.121
315.171
315.205
315.334
315.296
315.154
314.937
314.828
314.786
314.443
314.187
313.808
313.783
309.955
310.11
310.333
310.547
310.613
310.844
310.843
310.806
310.886
310.925
310.965
310.977
310.849
310.732
310.608
310.6
310.338
310.15
309.858
309.854
306.013
306.072
306.237
306.331
306.384
306.5
306.532
306.52
306.549
306.582
306.568
306.598
306.522
306.463
306.375
306.373
306.222
306.112
305.929
305.902
302.023
302.031
302.096
302.111
302.148
302.183
302.177
302.211
302.194
302.217
302.189
302.218
302.189
302.176
302.122
302.16
302.083
302.058
302
301.971
330.497
330.979
331.575
332.353
332.652
333.107
333.379
333.351
333.434
333.586
333.495
333.373
333.019
332.723
332.302
332.076
331.724
330.726
330.16
329.732
326.508
326.895
327.493
328.175
328.411
328.858
329.037
329.016
329.066
329.206
329.122
329.083
328.748
328.485
328.126
327.958
327.627
326.76
326.264
325.894
322.513
322.85
323.325
323.885
324.167
324.562
324.676
324.649
324.661
324.796
324.721
324.747
324.427
324.223
323.917
323.783
323.456
322.75
322.324
322.065
318.454
318.786
319.15
319.578
319.892
320.198
320.295
320.212
320.247
320.352
320.294
320.352
320.094
319.906
319.666
319.56
319.235
318.684
318.369
318.175
314.401
314.621
314.917
315.254
315.559
315.794
315.839
315.788
315.819
315.886
315.844
315.868
315.705
315.497
315.367
315.294
315.025
314.617
314.364
314.24
310.347
310.469
310.66
310.904
311.16
311.301
311.355
311.309
311.335
311.386
311.349
311.376
311.273
311.071
311.027
310.96
310.773
310.475
310.316
310.247
306.199
306.307
306.369
306.512
306.678
306.793
306.845
306.804
306.803
306.82
306.83
306.834
306.782
306.652
306.649
306.602
306.481
306.248
306.214
306.163
302.082
302.098
302.145
302.181
302.204
302.263
302.29
302.278
302.264
302.267
302.295
302.309
302.271
302.224
302.241
302.203
302.183
302.098
302.089
302.083
331.516
332.129
332.929
333.425
333.847
334.383
334.591
334.675
334.601
335.015
334.7
334.437
334.332
334.049
333.55
333.25
332.779
331.758
331.295
330.703
327.381
327.915
328.601
329.031
329.412
329.881
330.097
330.159
330.091
330.45
330.185
329.942
329.872
329.644
329.226
328.931
328.536
327.655
327.279
326.774
323.234
323.679
324.247
324.603
324.939
325.37
325.551
325.572
325.554
325.818
325.629
325.443
325.342
325.179
324.831
324.589
324.289
323.49
323.215
322.783
319.028
319.435
319.9
320.19
320.492
320.849
320.983
320.958
320.967
321.135
321.05
320.881
320.806
320.688
320.38
320.169
319.963
319.326
319.126
318.74
314.831
315.165
315.518
315.755
315.944
316.297
316.428
316.315
316.367
316.448
316.433
316.284
316.244
316.169
315.904
315.773
315.579
315.082
314.987
314.637
310.628
310.836
311.11
311.254
311.358
311.686
311.763
311.68
311.706
311.755
311.795
311.655
311.614
311.591
311.386
311.34
311.175
310.805
310.74
310.472
306.394
306.535
306.66
306.743
306.832
307.031
307.063
307.018
307.057
307.018
307.113
307.013
306.958
306.97
306.842
306.858
306.751
306.495
306.456
306.285
302.151
302.2
302.249
302.258
302.28
302.358
302.36
302.339
302.359
302.338
302.404
302.344
302.327
302.337
302.286
302.312
302.271
302.167
302.161
302.09
332.816
333.447
334.199
334.628
335.014
335.414
335.773
335.881
336.003
336.105
335.839
335.634
335.587
335.361
334.782
334.477
334.071
333.22
332.597
331.923
328.569
329.041
329.742
330.107
330.417
330.797
331.085
331.217
331.294
331.391
331.205
331.035
330.953
330.773
330.264
329.995
329.631
328.93
328.419
327.811
324.262
324.69
325.284
325.58
325.771
326.146
326.376
326.551
326.563
326.661
326.535
326.404
326.279
326.139
325.685
325.476
325.134
324.606
324.164
323.622
319.908
320.305
320.726
320.997
321.087
321.446
321.639
321.844
321.793
321.876
321.819
321.682
321.592
321.475
321.071
320.937
320.608
320.215
319.861
319.393
315.514
315.862
316.153
316.351
316.422
316.697
316.873
317.032
317.01
317.027
317.025
316.928
316.844
316.775
316.397
316.372
316.039
315.792
315.498
315.137
311.072
311.37
311.543
311.68
311.761
311.962
312.117
312.172
312.202
312.117
312.197
312.136
312.099
312.052
311.723
311.761
311.469
311.333
311.092
310.829
306.637
306.816
306.926
307.035
307.089
307.195
307.316
307.296
307.342
307.255
307.375
307.309
307.281
307.27
307.06
307.078
306.877
306.847
306.683
306.494
302.226
302.291
302.325
302.371
302.381
302.399
302.448
302.453
302.476
302.423
302.472
302.458
302.415
302.442
302.368
302.377
302.297
302.298
302.25
302.165
333.9
334.466
334.973
335.664
336.272
336.353
336.671
337.122
337.359
337.244
337.164
336.945
336.678
336.5
335.955
335.748
335.182
334.467
333.457
332.897
329.488
329.98
330.442
331.025
331.528
331.593
331.904
332.296
332.488
332.39
332.31
332.155
331.915
331.765
331.326
331.138
330.635
330.036
329.11
328.645
325.012
325.439
325.897
326.392
326.734
326.795
327.043
327.441
327.618
327.518
327.444
327.296
327.112
326.988
326.633
326.438
326.012
325.47
324.724
324.348
320.54
320.87
321.254
321.651
321.941
321.996
322.228
322.547
322.703
322.602
322.534
322.385
322.26
322.165
321.838
321.714
321.333
320.847
320.301
320.002
316.002
316.236
316.597
316.881
317.124
317.159
317.343
317.621
317.723
317.609
317.601
317.437
317.357
317.285
317.011
316.928
316.635
316.222
315.837
315.583
311.479
311.605
311.895
312.066
312.247
312.296
312.453
312.662
312.708
312.617
312.652
312.458
312.411
312.346
312.169
312.112
311.887
311.576
311.35
311.125
306.886
306.991
307.149
307.283
307.344
307.418
307.491
307.609
307.675
307.585
307.6
307.477
307.463
307.407
307.313
307.271
307.13
306.951
306.849
306.689
302.327
302.354
302.411
302.434
302.459
302.515
302.521
302.571
302.569
302.532
302.535
302.517
302.503
302.486
302.459
302.445
302.393
302.351
302.301
302.249
334.632
335.474
335.99
336.627
337.393
337.485
337.897
338.316
338.46
338.386
338.186
338.133
337.733
337.646
337.063
336.806
336.027
335.324
334.496
333.962
330.117
330.837
331.258
331.827
332.52
332.604
332.942
333.301
333.464
333.394
333.238
333.165
332.816
332.808
332.243
332.072
331.412
330.749
330.021
329.567
325.59
326.192
326.489
327.027
327.642
327.656
327.935
328.241
328.413
328.376
328.256
328.16
327.876
327.935
327.4
327.295
326.723
326.106
325.544
325.122
321.008
321.507
321.772
322.157
322.691
322.7
322.926
323.151
323.343
323.311
323.22
323.12
322.903
322.955
322.481
322.44
321.977
321.352
321.011
320.653
316.394
316.768
316.955
317.258
317.708
317.709
317.878
318.027
318.214
318.165
318.137
318.061
317.873
317.906
317.547
317.519
317.136
316.624
316.359
316.129
311.75
311.989
312.119
312.353
312.682
312.694
312.808
312.876
313.041
313.001
312.994
312.911
312.814
312.843
312.571
312.523
312.242
311.914
311.704
311.55
307.071
307.184
307.298
307.422
307.66
307.634
307.711
307.723
307.853
307.814
307.831
307.695
307.733
307.725
307.559
307.52
307.348
307.168
307.022
306.946
302.372
302.41
302.437
302.484
302.575
302.563
302.604
302.589
302.644
302.606
302.618
302.57
302.595
302.601
302.539
302.525
302.478
302.397
302.339
302.341
335.642
336.365
336.972
337.549
338.258
338.504
339.019
339.113
339.308
339.358
339.261
339.208
338.744
338.65
338.194
337.604
337.084
336.4
335.551
334.829
330.959
331.635
332.169
332.632
333.276
333.479
333.969
334.015
334.172
334.211
334.139
334.114
333.703
333.662
333.225
332.717
332.313
331.707
330.94
330.376
326.274
326.877
327.348
327.701
328.257
328.386
328.858
328.843
329.047
329.032
329.024
328.964
328.636
328.636
328.216
327.794
327.49
326.949
326.273
325.813
321.56
322.033
322.471
322.702
323.222
323.268
323.707
323.625
323.845
323.78
323.847
323.8
323.541
323.556
323.193
322.828
322.6
322.136
321.577
321.193
316.815
317.167
317.558
317.708
318.1
318.158
318.51
318.392
318.604
318.488
318.594
318.567
318.41
318.431
318.12
317.789
317.618
317.282
316.846
316.57
312.014
312.279
312.597
312.66
312.955
313.011
313.233
313.117
313.345
313.187
313.3
313.289
313.226
313.185
313.022
312.728
312.587
312.389
312.046
311.884
307.204
307.375
307.566
307.626
307.8
307.831
307.967
307.858
307.999
307.929
308.011
307.969
307.984
307.937
307.838
307.681
307.572
307.461
307.287
307.138
302.421
302.46
302.545
302.563
302.611
302.644
302.672
302.624
302.684
302.664
302.678
302.676
302.675
302.644
302.626
302.564
302.524
302.515
302.441
302.413
336.475
337.028
337.974
338.63
339.017
339.488
340.013
340.172
340.409
340.353
340.257
340.252
339.864
339.481
339.225
338.464
337.892
337.502
336.464
335.622
331.703
332.157
333.05
333.541
333.948
334.342
334.792
334.943
335.135
335.127
334.975
335.001
334.68
334.363
334.139
333.467
333.013
332.685
331.746
330.988
326.893
327.271
328.058
328.461
328.806
329.137
329.582
329.651
329.825
329.831
329.74
329.725
329.455
329.253
328.989
328.398
328.045
327.793
326.922
326.382
322.064
322.349
323.027
323.359
323.655
323.911
324.297
324.302
324.475
324.506
324.416
324.389
324.169
324.039
323.798
323.297
323.035
322.821
322.083
321.69
317.175
317.414
317.988
318.222
318.44
318.635
318.95
318.913
319.084
319.141
319.029
319.074
318.86
318.717
318.555
318.205
318.029
317.793
317.195
316.969
312.259
312.484
312.885
313.064
313.178
313.357
313.553
313.499
313.644
313.713
313.627
313.659
313.525
313.388
313.272
313.035
312.906
312.726
312.314
312.133
307.394
307.511
307.76
307.831
307.953
308.053
308.155
308.071
308.169
308.254
308.207
308.201
308.108
308.077
307.962
307.812
307.755
307.668
307.378
307.277
302.485
302.515
302.613
302.624
302.688
302.712
302.733
302.679
302.75
302.775
302.751
302.759
302.728
302.71
302.671
302.627
302.611
302.568
302.497
302.442
337.362
337.982
338.769
339.475
339.971
340.336
340.756
341.112
341.159
341.316
341.197
341.018
340.734
340.554
340.04
339.65
338.956
338.191
337.208
336.485
332.448
333.006
333.701
334.368
334.744
335.075
335.407
335.704
335.794
335.895
335.88
335.69
335.442
335.317
334.898
334.547
333.923
333.285
332.393
331.79
327.531
327.984
328.583
329.188
329.515
329.748
330.071
330.287
330.425
330.457
330.479
330.329
330.116
330.002
329.633
329.318
328.815
328.33
327.512
327.038
322.599
322.965
323.433
323.959
324.227
324.391
324.694
324.832
325.035
324.993
324.999
324.888
324.765
324.657
324.354
324.059
323.612
323.301
322.593
322.229
317.601
317.896
318.229
318.664
318.909
319.033
319.266
319.349
319.561
319.443
319.502
319.367
319.341
319.269
318.997
318.778
318.406
318.166
317.591
317.376
312.624
312.816
313.018
313.361
313.521
313.659
313.755
313.849
314.01
313.877
313.953
313.876
313.84
313.815
313.603
313.44
313.149
313.006
312.567
312.481
307.583
307.697
307.789
308.034
308.127
308.233
308.249
308.338
308.42
308.348
308.405
308.376
308.34
308.306
308.169
308.039
307.893
307.804
307.523
307.522
302.558
302.584
302.61
302.705
302.742
302.768
302.767
302.803
302.813
302.793
302.816
302.828
302.795
302.786
302.729
302.682
302.633
302.622
302.525
302.511
338.061
338.793
339.447
340.265
340.948
341.321
341.699
341.879
342.158
342.05
342.036
341.707
341.576
341.337
340.932
340.482
339.662
339.032
338.141
337.306
333.1
333.746
334.292
334.97
335.597
335.876
336.22
336.404
336.631
336.542
336.582
336.299
336.197
336.008
335.642
335.239
334.558
333.93
333.208
332.499
328.116
328.643
329.088
329.669
330.199
330.394
330.735
330.873
331.073
331.008
331.067
330.841
330.739
330.616
330.254
329.923
329.395
328.814
328.274
327.607
323.067
323.501
323.836
324.349
324.787
324.907
325.23
325.314
325.492
325.4
325.508
325.343
325.223
325.184
324.797
324.53
324.179
323.645
323.219
322.658
317.931
318.315
318.559
318.997
319.315
319.418
319.651
319.739
319.876
319.802
319.87
319.783
319.647
319.636
319.3
319.101
318.897
318.486
318.129
317.623
312.802
313.071
313.325
313.559
313.826
313.896
314.088
314.129
314.218
314.188
314.21
314.177
314.06
314.08
313.755
313.64
313.569
313.262
312.972
312.577
307.703
307.835
308.015
308.127
308.331
308.341
308.45
308.488
308.548
308.557
308.525
308.521
308.443
308.457
308.241
308.17
308.175
307.972
307.814
307.556
302.573
302.64
302.683
302.723
302.82
302.815
302.837
302.843
302.881
302.869
302.873
302.857
302.823
302.839
302.757
302.754
302.75
302.66
302.613
302.54
338.64
339.376
339.993
341.09
341.564
341.959
342.393
342.579
343.027
342.808
342.68
342.591
342.324
342.128
341.506
341.057
340.277
339.558
338.766
338.061
333.605
334.245
334.721
335.719
336.099
336.406
336.848
336.973
337.424
337.214
337.124
337.043
336.777
336.687
336.134
335.691
335.059
334.4
333.789
333.158
328.526
329.065
329.454
330.31
330.619
330.856
331.284
331.396
331.8
331.607
331.492
331.502
331.214
331.178
330.702
330.288
329.76
329.182
328.766
328.185
323.42
323.827
324.152
324.866
325.138
325.314
325.711
325.741
326.101
325.956
325.819
325.877
325.62
325.616
325.211
324.85
324.454
323.905
323.616
323.18
318.241
318.564
318.851
319.373
319.622
319.739
320.086
320.08
320.339
320.256
320.12
320.208
319.967
319.975
319.677
319.389
319.071
318.688
318.405
318.13
313.05
313.324
313.479
313.868
314.117
314.135
314.378
314.399
314.535
314.52
314.367
314.51
314.276
314.303
314.125
313.916
313.612
313.399
313.176
313.043
307.846
308.009
308.1
308.373
308.536
308.471
308.66
308.681
308.735
308.769
308.663
308.788
308.598
308.587
308.478
308.39
308.169
308.08
307.919
307.855
302.632
302.673
302.701
302.8
302.871
302.819
302.905
302.9
302.913
302.955
302.913
302.962
302.89
302.887
302.834
302.801
302.744
302.708
302.642
302.649
339.2
340.022
340.479
341.333
342.031
342.546
343.177
343.52
343.739
343.767
343.3
343.521
343.312
342.842
342.328
341.578
341.076
340.421
339.379
338.538
334.07
334.756
335.179
335.933
336.541
336.971
337.522
337.855
338.004
338.073
337.677
337.848
337.702
337.333
336.854
336.162
335.773
335.173
334.276
333.567
328.939
329.474
329.827
330.468
331.022
331.379
331.866
332.11
332.216
332.304
331.977
332.143
332.025
331.745
331.337
330.708
330.388
329.864
329.119
328.53
323.728
324.114
324.47
324.996
325.418
325.752
326.162
326.336
326.393
326.511
326.234
326.415
326.276
326.067
325.766
325.218
324.972
324.524
323.902
323.462
318.449
318.784
319.103
319.502
319.805
320.056
320.445
320.5
320.532
320.685
320.484
320.622
320.484
320.332
320.117
319.709
319.488
319.143
318.631
318.322
313.206
313.447
313.691
313.964
314.167
314.381
314.629
314.667
314.675
314.802
314.645
314.772
314.669
314.564
314.407
314.117
313.949
313.734
313.353
313.109
307.923
308.079
308.234
308.375
308.518
308.638
308.817
308.808
308.823
308.911
308.806
308.923
308.854
308.771
308.632
308.511
308.406
308.276
308.045
307.871
302.65
302.72
302.751
302.801
302.872
302.912
302.957
302.955
302.971
302.999
302.926
303.004
302.975
302.931
302.9
302.85
302.822
302.753
302.68
302.654
339.585
340.562
341.055
341.822
342.534
343.26
343.682
344.012
344.021
344.237
344.018
343.941
343.728
343.26
342.811
342.28
341.568
340.862
339.875
338.914
334.421
335.203
335.716
336.338
336.935
337.615
337.99
338.268
338.237
338.45
338.268
338.207
338.036
337.661
337.233
336.815
336.167
335.597
334.732
333.907
329.199
329.844
330.319
330.875
331.36
331.919
332.238
332.494
332.454
332.621
332.438
332.417
332.295
331.959
331.665
331.271
330.72
330.274
329.541
328.805
323.976
324.482
324.858
325.341
325.719
326.225
326.459
326.671
326.641
326.742
326.618
326.556
326.513
326.214
326.002
325.681
325.289
324.882
324.304
323.661
318.746
319.097
319.388
319.761
320.031
320.471
320.624
320.766
320.772
320.816
320.703
320.715
320.688
320.408
320.251
320.011
319.747
319.46
318.975
318.482
313.463
313.656
313.893
314.138
314.313
314.694
314.759
314.839
314.857
314.901
314.834
314.807
314.818
314.58
314.494
314.343
314.152
313.953
313.556
313.257
308.138
308.208
308.371
308.514
308.608
308.846
308.893
308.917
308.937
308.966
308.889
308.892
308.88
308.764
308.701
308.657
308.519
308.408
308.145
307.96
302.724
302.733
302.825
302.831
302.897
302.95
302.994
302.988
302.999
303.008
302.986
302.967
302.97
302.939
302.923
302.916
302.858
302.806
302.729
302.678
340.205
340.969
341.692
342.298
343.074
343.615
344.275
344.339
344.543
344.802
344.629
344.478
344.094
343.725
343.282
342.7
342.035
341.446
340.51
339.468
334.925
335.604
336.221
336.77
337.412
337.93
338.523
338.495
338.725
338.961
338.798
338.698
338.329
338.017
337.648
337.157
336.521
336.055
335.26
334.369
329.618
330.201
330.706
331.176
331.734
332.2
332.708
332.65
332.862
333.053
332.92
332.83
332.492
332.243
331.949
331.593
331.019
330.614
329.975
329.195
324.291
324.783
325.165
325.535
325.999
326.441
326.783
326.77
326.924
327.123
326.944
326.901
326.635
326.404
326.25
325.942
325.475
325.161
324.583
323.945
318.936
319.307
319.631
319.887
320.253
320.604
320.825
320.883
320.96
321.17
320.981
320.931
320.759
320.544
320.511
320.222
319.889
319.658
319.136
318.658
313.571
313.818
314.078
314.212
314.476
314.781
314.875
314.976
314.961
315.194
315.018
314.926
314.808
314.686
314.689
314.479
314.237
314.098
313.687
313.316
308.168
308.309
308.494
308.532
308.716
308.918
308.924
308.994
308.984
309.159
309.016
308.956
308.892
308.816
308.819
308.696
308.548
308.527
308.242
307.999
302.758
302.793
302.857
302.87
302.922
303.001
303.007
303.02
303.009
303.067
302.993
302.992
302.979
302.951
302.967
302.922
302.872
302.863
302.758
302.707
340.49
341.302
342.102
342.75
343.407
343.868
344.658
344.718
344.603
345.159
344.982
344.814
344.782
344.054
343.516
343.194
342.483
341.684
340.736
339.931
335.157
335.876
336.561
337.137
337.713
338.12
338.823
338.885
338.676
339.274
339.106
338.96
338.92
338.306
337.817
337.588
336.929
336.328
335.411
334.767
329.809
330.426
330.989
331.504
331.994
332.347
332.944
333.028
332.766
333.324
333.251
333.073
333
332.478
332.1
331.923
331.317
330.859
330.067
329.503
324.442
324.949
325.41
325.824
326.205
326.536
326.981
327.118
326.848
327.332
327.366
327.142
327.069
326.646
326.358
326.193
325.641
325.343
324.692
324.207
319.039
319.423
319.794
320.117
320.409
320.684
320.986
321.145
320.914
321.312
321.37
321.17
321.106
320.751
320.532
320.409
319.983
319.768
319.257
318.898
313.64
313.878
314.188
314.409
314.596
314.796
314.984
315.118
314.964
315.294
315.308
315.206
315.085
314.841
314.693
314.6
314.29
314.171
313.795
313.542
308.188
308.345
308.548
308.629
308.784
308.916
308.988
309.096
308.967
309.242
309.234
309.169
309.063
308.917
308.832
308.752
308.586
308.509
308.276
308.173
302.757
302.794
302.868
302.901
302.969
302.998
302.996
303.048
302.994
303.122
303.084
303.074
303.037
302.987
302.964
302.921
302.869
302.837
302.776
302.726
)
;

boundaryField
{
    hotSide
    {
        type            fixedGradient;
        gradient        nonuniform List<scalar> 
400
(
244.477
257
269.477
281.851
294.068
306.068
317.796
329.194
340.205
350.773
360.845
370.367
379.291
387.57
395.16
402.021
408.118
413.418
417.895
421.526
248.866
261.736
274.563
287.291
299.861
312.215
324.293
336.037
347.388
358.289
368.683
378.518
387.742
396.306
404.165
411.279
417.609
423.123
427.794
431.597
252.592
265.775
278.918
291.965
304.856
317.53
329.927
341.986
353.647
364.851
375.542
385.663
395.162
403.989
412.097
419.444
425.991
431.705
436.557
440.522
255.657
269.117
282.541
295.872
309.047
322.006
334.687
347.028
358.967
370.445
381.401
391.78
401.527
410.591
418.925
426.485
433.231
439.128
444.146
448.261
258.073
271.771
285.438
299.014
312.437
325.645
338.574
351.16
363.343
375.059
386.249
396.855
406.822
416.097
424.631
432.38
439.303
445.365
450.534
454.784
259.852
273.75
287.62
301.402
315.034
328.451
341.589
354.384
366.773
378.693
390.082
400.883
411.038
420.494
429.202
437.115
444.193
450.398
455.699
460.071
261.013
275.069
289.102
303.05
316.849
330.435
343.742
356.707
369.264
381.35
392.903
403.864
414.174
423.781
432.633
440.684
447.891
454.218
459.632
464.107
261.574
275.748
289.902
303.973
317.898
331.611
345.047
358.141
370.827
383.04
394.72
405.804
416.236
425.96
434.926
443.086
450.397
456.822
462.328
466.888
261.557
275.807
290.038
304.19
318.198
331.996
345.519
358.7
371.474
383.776
395.543
406.714
417.232
427.04
436.088
444.327
451.715
458.214
463.789
468.415
260.981
275.263
289.531
303.72
317.768
331.608
345.174
358.4
371.22
383.57
395.386
406.607
417.174
427.032
436.129
444.418
451.854
458.4
464.022
468.692
259.864
274.137
288.396
302.58
316.625
330.463
344.03
357.259
370.084
382.44
394.265
405.497
416.076
425.949
435.063
443.369
450.825
457.392
463.036
467.731
258.223
272.444
286.653
300.788
314.785
328.579
342.103
355.292
368.08
380.403
392.197
403.4
413.956
423.808
432.905
441.198
448.644
455.206
460.849
465.545
256.072
270.198
284.314
298.358
312.265
325.971
339.411
352.518
365.227
377.475
389.198
400.336
410.83
420.627
429.673
437.922
445.33
451.859
457.476
462.154
253.422
267.413
281.394
295.304
309.079
322.655
335.967
348.95
361.54
373.673
385.287
396.321
406.718
416.424
425.387
433.561
440.902
447.373
452.94
457.577
250.283
264.098
277.904
291.638
305.239
318.644
331.788
344.607
357.037
369.016
380.482
391.375
401.64
411.221
420.069
428.138
435.384
441.771
447.266
451.841
246.661
260.262
273.851
287.371
300.758
313.951
326.887
339.502
351.734
363.521
374.802
385.519
395.617
405.042
413.744
421.678
428.802
435.08
440.48
444.974
242.564
255.911
269.247
282.513
295.648
308.591
321.28
333.654
345.65
357.208
368.269
378.776
388.674
397.91
406.437
414.209
421.186
427.332
432.615
437.01
237.995
251.054
264.099
277.074
289.92
302.576
314.982
327.079
338.804
350.099
360.907
371.171
380.838
389.857
398.18
405.765
412.57
418.561
423.709
427.986
232.962
245.697
258.418
271.067
283.589
295.924
308.013
319.798
331.219
342.219
352.742
362.733
372.141
380.914
389.009
396.381
402.993
408.81
413.802
417.946
227.472
239.851
252.214
264.506
276.671
288.653
300.393
311.835
322.921
333.597
343.806
353.496
362.617
371.121
378.962
386.101
392.498
398.123
402.945
406.941
)
;
    }
    coldSide
    {
        type            mixed;
        refValue        uniform 300;
        refGradient     uniform 0;
        valueFraction   uniform 0.991591;
        source          uniform 0;
        value           nonuniform List<scalar> 
400
(
300.014
300.014
300.015
300.016
300.016
300.017
300.018
300.018
300.019
300.02
300.02
300.02
300.021
300.022
300.022
300.022
300.022
300.023
300.023
300.023
300.014
300.015
300.015
300.016
300.017
300.017
300.018
300.019
300.019
300.02
300.02
300.021
300.021
300.022
300.022
300.022
300.023
300.023