/*--------------------------------*- C++ -*----------------------------------*\
| =========                 |                                                 |
| \\      /  F ield         | OpenFOAM: The Open Source CFD Toolbox           |
|  \\    /   O peration     | Version:  2212                                  |
|   \\  /    A nd           | Website:  www.openfoam.com                      |
|    \\/     M anipulation  |                                                 |
\*---------------------------------------------------------------------------*/
FoamFile
{
    version     2.0;
    format      ascii;
    arch        "LSB;label=32;scalar=64";
    class       volScalarField;
    location    "0";
    object      T;
}
// * * * * * * * * * * * * * * * * * * * * * * * * * * * * * * * * * * * * * //

dimensions      [0 0 0 1 0 0 0];

internalField   nonuniform List<scalar> 
3200
(
347.165
348.179
349.311
350.006
350.91
351.485
352.153
352.481
352.409
352.688
352.467
352.351
351.747
351.229
350.598
349.337
348.374
347.043
345.995
344.825
340.932
341.823
342.785
343.347
344.111
344.651
345.195
345.533
345.453
345.746
345.519
345.472
344.914
344.483
343.909
342.83
342.016
340.859
339.945
338.928
334.677
335.453
336.23
336.693
337.331
337.813
338.259
338.6
338.475
338.745
338.551
338.57
338.029
337.695
337.23
336.265
335.621
334.629
333.85
333.012
328.46
329.058
329.661
330.022
330.551
330.948
331.293
331.593
331.475
331.743
331.603
331.622
331.144
330.913
330.515
329.708
329.183
328.367
327.764
327.103
322.175
322.583
323.088
323.392
323.743
324.046
324.348
324.595
324.453
324.709
324.633
324.64
324.22
324.048
323.783
323.127
322.729
322.065
321.659
321.136
315.843
316.14
316.519
316.727
316.923
317.174
317.451
317.611
317.456
317.652
317.627
317.653
317.296
317.169
317.061
316.566
316.272
315.762
315.504
315.161
309.53
309.711
309.939
310.071
310.143
310.303
310.518
310.594
310.471
310.586
310.591
310.618
310.4
310.291
310.268
309.965
309.833
309.475
309.355
309.133
303.206
303.246
303.338
303.393
303.4
303.459
303.526
303.535
303.516
303.572
303.537
303.545
303.504
303.461
303.426
303.339
303.29
303.168
303.127
303.07
348.252
349.22
350.068
350.893
352.05
352.604
353.2
353.498
353.692
353.867
353.51
353.3
352.655
352.057
351.419
350.331
349.358
348.199
347.029
345.727
341.864
342.656
343.368
344.095
345.141
345.545
346.109
346.347
346.551
346.736
346.366
346.198
345.677
345.181
344.604
343.664
342.827
341.8
340.79
339.637
335.459
336.132
336.662
337.318
338.22
338.557
338.982
339.195
339.401
339.55
339.24
339.105
338.678
338.227
337.747
336.952
336.278
335.417
334.508
333.582
328.991
329.573
329.954
330.513
331.28
331.551
331.866
332.062
332.188
332.341
332.128
332.004
331.649
331.277
330.911
330.261
329.684
328.985
328.267
327.495
322.547
323.01
323.323
323.764
324.303
324.524
324.806
324.928
325.053
325.15
325.035
324.876
324.654
324.346
324.051
323.545
323.107
322.532
322.015
321.418
316.118
316.45
316.683
317.027
317.346
317.528
317.743
317.81
317.89
317.984
317.921
317.773
317.658
317.417
317.204
316.82
316.48
316.149
315.708
315.311
309.675
309.858
310.054
310.237
310.394
310.519
310.675
310.656
310.726
310.828
310.774
310.672
310.624
310.44
310.359
310.12
309.889
309.727
309.459
309.212
303.238
303.298
303.359
303.422
303.478
303.499
303.572
303.569
303.604
303.642
303.599
303.58
303.547
303.485
303.49
303.41
303.331
303.228
303.176
303.089
349.33
350.586
351.354
352.634
353.341
353.926
354.455
354.889
355.182
355.176
354.798
354.828
353.894
353.462
352.642
351.684
350.649
349.408
348.14
346.871
342.754
343.783
344.441
345.593
346.234
346.707
347.137
347.552
347.818
347.829
347.454
347.529
346.678
346.347
345.61
344.819
343.934
342.804
341.73
340.692
336.195
337.015
337.551
338.499
339.12
339.48
339.874
340.202
340.47
340.498
340.166
340.238
339.503
339.233
338.587
337.928
337.179
336.227
335.362
334.446
329.617
330.275
330.728
331.42
332.006
332.279
332.652
332.914
333.141
333.15
332.861
332.908
332.328
332.12
331.598
331.059
330.422
329.628
328.945
328.266
323.049
323.54
323.895
324.411
324.858
325.112
325.428
325.6
325.788
325.791
325.595
325.567
325.167
324.995
324.584
324.16
323.675
323.054
322.58
322.017
316.474
316.839
317.065
317.438
317.735
317.931
318.178
318.288
318.438
318.44
318.342
318.213
317.979
317.867
317.558
317.296
316.923
316.451
316.154
315.77
309.878
310.114
310.231
310.455
310.654
310.78
310.946
310.973
311.078
311.103
311.055
310.919
310.776
310.78
310.538
310.42
310.163
309.863
309.702
309.47
303.31
303.376
303.433
303.515
303.57
303.607
303.664
303.661
303.717
303.738
303.726
303.678
303.606
303.635
303.534
303.513
303.39
303.294
303.254
303.186
350.85
351.982
352.73
353.852
354.715
355.408
356.039
356.394
356.565
356.673
356.347
356.06
355.37
354.857
354.123
353.185
352.035
350.572
349.369
348.242
344.056
345.041
345.684
346.609
347.387
348.004
348.565
348.854
348.981
349.054
348.825
348.583
347.952
347.519
346.93
346.095
345.102
343.843
342.781
341.824
337.272
338.113
338.629
339.425
340.058
340.574
341.089
341.341
341.395
341.471
341.309
341.115
340.57
340.194
339.705
339.023
338.154
337.092
336.257
335.439
330.512
331.199
331.605
332.211
332.735
333.184
333.626
333.776
333.843
333.924
333.783
333.626
333.19
332.894
332.449
331.901
331.196
330.333
329.717
329.061
323.76
324.324
324.54
325.027
325.429
325.78
326.104
326.263
326.308
326.397
326.246
326.153
325.84
325.599
325.217
324.763
324.253
323.584
323.122
322.67
316.973
317.403
317.529
317.917
318.176
318.426
318.677
318.774
318.76
318.863
318.691
318.686
318.482
318.277
318.022
317.695
317.304
316.842
316.513
316.222
310.174
310.457
310.525
310.764
310.927
311.077
311.199
311.26
311.277
311.332
311.197
311.194
311.08
310.979
310.81
310.633
310.411
310.135
309.954
309.756
303.388
303.501
303.529
303.628
303.662
303.718
303.754
303.783
303.783
303.792
303.752
303.74
303.706
303.668
303.61
303.561
303.507
303.377
303.343
303.264
352.218
353.327
354.194
355.324
356.164
356.673
357.402
357.71
357.97
358
357.57
357.472
356.682
356.195
355.384
354.462
353.311
352.088
350.719
349.711
345.295
346.184
346.934
347.928
348.631
349.063
349.705
349.985
350.208
350.21
349.86
349.774
349.086
348.672
347.986
347.186
346.183
345.091
343.932
343.131
338.302
339.037
339.693
340.529
341.1
341.453
341.954
342.292
342.415
342.42
342.191
342.12
341.528
341.186
340.533
339.938
339.11
338.076
337.198
336.555
331.364
331.939
332.46
333.096
333.581
333.922
334.252
334.577
334.655
334.686
334.54
334.477
334.002
333.7
333.112
332.698
331.99
331.101
330.451
329.947
324.457
324.856
325.212
325.665
326.103
326.388
326.555
326.89
326.966
326.968
326.862
326.819
326.443
326.184
325.771
325.413
324.863
324.177
323.675
323.296
317.485
317.77
317.984
318.355
318.649
318.845
318.951
319.232
319.271
319.247
319.158
319.153
318.865
318.682
318.437
318.13
317.771
317.267
316.906
316.651
310.497
310.704
310.785
311.024
311.209
311.341
311.386
311.54
311.576
311.557
311.495
311.495
311.285
311.225
311.071
310.871
310.665
310.373
310.163
310.018
303.525
303.593
303.599
303.709
303.758
303.791
303.833
303.873
303.877
303.864
303.846
303.836
303.764
303.749
303.722
303.64
303.577
303.469
303.419
303.349
353.273
354.42
355.6
356.705
357.474
358.096
358.743
359.248
359.492
359.521
359.058
358.72
358.03
357.521
356.834
355.674
354.432
353.11
351.947
350.824
346.127
347.123
348.118
349.112
349.803
350.3
350.871
351.356
351.515
351.536
351.121
350.877
350.215
349.808
349.229
348.214
347.15
346.005
344.993
344.127
339
339.82
340.63
341.52
342.105
342.549
343.017
343.42
343.513
343.613
343.18
343.02
342.478
342.126
341.594
340.826
339.885
338.883
338.068
337.394
331.888
332.563
333.169
333.944
334.405
334.795
335.169
335.486
335.553
335.712
335.28
335.154
334.776
334.431
333.988
333.447
332.646
331.809
331.172
330.613
324.778
325.334
325.768
326.382
326.757
327.054
327.388
327.605
327.636
327.767
327.452
327.346
327.062
326.748
326.433
326.031
325.399
324.752
324.256
323.83
317.655
318.09
318.407
318.831
319.089
319.343
319.594
319.737
319.76
319.82
319.617
319.544
319.318
319.1
318.887
318.621
318.129
317.696
317.345
317.012
310.553
310.875
311.039
311.308
311.443
311.635
311.783
311.857
311.83
311.88
311.8
311.764
311.591
311.506
311.327
311.188
310.876
310.65
310.447
310.204
303.53
303.627
303.691
303.778
303.854
303.919
303.95
303.963
303.955
304.001
303.95
303.942
303.875
303.871
303.797
303.75
303.656
303.578
303.478
303.401
354.585
355.549
356.69
357.802
358.933
359.551
360.072
360.53
360.934
360.737
360.42
360.019
359.543
359.017
358.054
357.077
355.935
354.243
353.036
351.707
347.235
348.087
349.073
350.03
351.018
351.572
352.038
352.405
352.764
352.618
352.311
352.01
351.552
351.143
350.275
349.46
348.442
347.011
345.961
344.826
339.902
340.686
341.465
342.299
343.137
343.595
344
344.367
344.593
344.544
344.217
343.986
343.604
343.248
342.5
341.855
340.967
339.846
338.851
337.97
332.591
333.274
333.896
334.572
335.291
335.624
335.969
336.348
336.473
336.421
336.185
335.957
335.658
335.343
334.769
334.247
333.546
332.637
331.713
331.1
325.297
325.873
326.335
326.864
327.499
327.696
327.982
328.334
328.383
328.314
328.136
327.964
327.692
327.483
327.078
326.61
326.057
325.41
324.608
324.195
318.029
318.46
318.755
319.181
319.661
319.798
319.973
320.262
320.271
320.194
320.117
319.983
319.816
319.636
319.387
318.978
318.594
318.153
317.525
317.29
310.808
311.089
311.242
311.521
311.816
311.873
312.003
312.159
312.173
312.096
312.092
312.039
311.917
311.806
311.658
311.39
311.142
310.905
310.492
310.396
303.62
303.712
303.778
303.875
303.966
303.957
304.023
304.068
304.077
304.048
304.052
304.041
304.014
303.954
303.897
303.801
303.725
303.656
303.513
303.477
355.573
356.652
357.877
359.069
360.211
360.695
361.285
361.697
361.96
361.917
361.864
361.487
361.002
360.143
359.318
358.142
356.969
355.454
354.069
352.931
348.109
349.039
350.094
351.138
352.133
352.53
353.042
353.401
353.638
353.579
353.594
353.274
352.876
352.151
351.342
350.378
349.356
348.023
346.836
345.921
340.681
341.47
342.329
343.223
344.034
344.423
344.847
345.122
345.337
345.303
345.331
345.016
344.668
344.088
343.399
342.613
341.789
340.609
339.62
338.825
333.25
333.91
334.633
335.373
335.974
336.289
336.68
336.869
337.033
337.074
337.071
336.839
336.487
336.053
335.5
334.846
334.232
333.226
332.412
331.749
325.873
326.373
326.938
327.513
327.918
328.202
328.534
328.657
328.737
328.87
328.828
328.63
328.395
328.002
327.605
327.081
326.635
325.906
325.166
324.654
318.46
318.853
319.234
319.69
319.921
320.153
320.416
320.445
320.52
320.66
320.557
320.475
320.289
319.996
319.726
319.31
319.045
318.536
317.97
317.61
311.073
311.327
311.531
311.816
311.946
312.097
312.277
312.291
312.314
312.401
312.344
312.329
312.187
311.998
311.88
311.568
311.426
311.121
310.787
310.577
303.689
303.818
303.872
303.992
304.004
304.055
304.121
304.126
304.128
304.156
304.127
304.116
304.079
304.012
303.977
303.865
303.84
303.724
303.609
303.534
356.654
357.942
358.987
360.124
361.307
361.793
362.547
362.855
362.978
363.223
362.986
362.761
362.167
361.384
360.33
359.467
358.146
356.495
355.207
353.976
349.041
350.104
351.05
352.03
353.063
353.473
354.189
354.429
354.505
354.726
354.544
354.367
353.823
353.223
352.28
351.461
350.383
348.949
347.853
346.797
341.477
342.319
343.186
343.968
344.851
345.199
345.852
346.023
346.039
346.289
346.098
345.977
345.51
345.042
344.205
343.47
342.585
341.408
340.502
339.554
333.937
334.626
335.325
335.916
336.651
336.959
337.458
337.65
337.656
337.882
337.712
337.565
337.214
336.862
336.182
335.504
334.755
333.921
333.19
332.324
326.375
326.92
327.494
327.867
328.453
328.772
329.116
329.282
329.266
329.535
329.326
329.168
328.946
328.625
328.118
327.584
326.992
326.377
325.844
325.117
318.843
319.255
319.63
319.873
320.299
320.548
320.807
320.915
320.862
321.148
320.941
320.832
320.705
320.452
320.096
319.69
319.245
318.868
318.474
317.896
311.308
311.559
311.762
311.918
312.206
312.357
312.492
312.554
312.512
312.687
312.57
312.522
312.445
312.284
312.061
311.818
311.537
311.32
311.075
310.724
303.783
303.862
303.944
304.001
304.095
304.145
304.187
304.213
304.216
304.247
304.205
304.187
304.182
304.116
304.036
303.94
303.861
303.79
303.712
303.614
357.6
358.745
360.082
361.23
362.115
363.102
363.692
363.961
364.355
364.387
364.373
363.894
363.306
362.504
361.428
360.44
359.12
357.553
356.096
354.996
349.851
350.834
351.999
353.004
353.799
354.636
355.128
355.39
355.7
355.755
355.739
355.368
354.841
354.159
353.254
352.349
351.217
349.908
348.601
347.738
342.105
342.945
343.983
344.778
345.532
346.193
346.632
346.813
347.089
347.137
347.064
346.782
346.406
345.829
345.065
344.231
343.342
342.26
341.099
340.408
334.389
335.092
335.975
336.539
337.231
337.771
338.157
338.267
338.507
338.56
338.409
338.25
337.982
337.491
336.861
336.153
335.449
334.617
333.584
333.047
326.742
327.281
327.991
328.349
328.9
329.352
329.657
329.749
329.976
329.94
329.822
329.758
329.531
329.152
328.695
328.126
327.578
326.942
326.105
325.697
319.119
319.492
319.995
320.219
320.647
320.924
321.192
321.23
321.408
321.382
321.287
321.236
321.121
320.839
320.514
320.081
319.715
319.254
318.648
318.359
311.474
311.703
312.031
312.144
312.396
312.563
312.714
312.755
312.898
312.849
312.795
312.775
312.695
312.494
312.332
312.054
311.861
311.571
311.2
311.031
303.835
303.922
304.029
304.05
304.149
304.206
304.258
304.274
304.33
304.291
304.292
304.298
304.257
304.208
304.148
304.046
303.955
303.89
303.756
303.712
358.497
359.594
361.101
362.194
363.465
364.145
364.778
365.209
365.38
365.428
365.242
364.738
364.205
363.434
362.336
361.353
360.065
358.435
357.091
355.993
350.66
351.621
352.875
353.846
354.958
355.553
356.056
356.439
356.608
356.678
356.483
356.099
355.602
354.955
353.998
353.136
352.05
350.631
349.487
348.578
342.887
343.63
344.687
345.511
346.471
346.941
347.399
347.73
347.859
347.936
347.752
347.436
347.043
346.483
345.658
344.952
344.053
342.86
341.875
341.148
335.084
335.652
336.508
337.253
338.041
338.368
338.75
338.989
339.151
339.205
339.029
338.795
338.467
338.013
337.326
336.769
336.02
335.093
334.255
333.689
327.266
327.705
328.385
329.003
329.578
329.774
330.109
330.289
330.438
330.495
330.345
330.173
329.89
329.521
329.034
328.61
328.004
327.323
326.633
326.23
319.464
319.804
320.291
320.753
321.137
321.277
321.492
321.634
321.748
321.799
321.654
321.55
321.337
321.085
320.727
320.434
320.003
319.568
319.02
318.749
311.672
311.904
312.208
312.496
312.72
312.795
312.921
312.993
313.083
313.09
313.008
312.917
312.779
312.701
312.451
312.309
312.02
311.79
311.437
311.247
303.912
303.993
304.089
304.186
304.273
304.281
304.358
304.358
304.399
304.397
304.371
304.316
304.285
304.26
304.15
304.141
304.023
303.974
303.832
303.792
359.321
360.464
361.792
362.987
364.391
364.875
365.516
366.26
366.259
366.39
366.071
365.714
365.06
364.277
363.367
362.263
360.91
359.49
357.923
356.725
351.366
352.372
353.464
354.543
355.731
356.122
356.718
357.368
357.398
357.516
357.258
356.914
356.315
355.688
354.885
354
352.77
351.541
350.204
349.19
343.44
344.279
345.171
346.103
347.136
347.442
347.943
348.496
348.553
348.627
348.427
348.118
347.633
347.104
346.471
345.671
344.668
343.614
342.455
341.68
335.524
336.176
336.906
337.689
338.527
338.804
339.178
339.622
339.674
339.743
339.597
339.353
338.941
338.518
338.024
337.346
336.498
335.631
334.727
334.192
327.662
328.111
328.658
329.314
329.981
330.221
330.446
330.759
330.865
330.885
330.776
330.594
330.28
329.918
329.548
328.99
328.347
327.727
327.054
326.613
319.754
320.067
320.481
320.939
321.439
321.59
321.764
321.959
322.015
322.028
321.96
321.885
321.637
321.333
321.096
320.693
320.272
319.82
319.299
319.019
311.897
312.044
312.332
312.556
312.869
312.975
313.057
313.185
313.241
313.196
313.162
313.139
312.977
312.782
312.666
312.412
312.188
311.949
311.553
311.439
303.969
304.032
304.147
304.189
304.293
304.36
304.38
304.4
304.449
304.418
304.414
304.409
304.357
304.28
304.256
304.158
304.075
304.027
303.872
303.81
360.211
361.349
362.714
364.016
365.052
365.656
366.464
366.882
366.906
367.152
366.624
366.409
365.842
365.121
363.941
362.871
361.663
360.44
358.477
357.268
352.168
353.119
354.259
355.414
356.311
356.776
357.556
357.938
357.971
358.133
357.67
357.448
357.012
356.429
355.412
354.48
353.443
352.372
350.673
349.666
344.09
344.934
345.809
346.848
347.576
347.974
348.653
348.977
349.028
349.144
348.734
348.568
348.235
347.729
346.9
346.109
345.194
344.281
342.857
342.076
336.021
336.721
337.431
338.292
338.87
339.23
339.783
340.013
340.064
340.184
339.803
339.726
339.493
339.042
338.388
337.725
336.985
336.198
335.074
334.445
328.016
328.548
329.082
329.757
330.225
330.538
330.959
331.101
331.102
331.218
330.92
330.877
330.721
330.392
329.869
329.33
328.786
328.187
327.262
326.799
319.979
320.393
320.779
321.252
321.6
321.792
322.08
322.216
322.171
322.276
322.064
322.058
321.974
321.712
321.369
320.937
320.566
320.158
319.47
319.157
311.983
312.226
312.464
312.762
313.006
313.097
313.267
313.348
313.314
313.353
313.231
313.242
313.233
313.025
312.815
312.539
312.359
312.101
311.686
311.515
304.003
304.097
304.189
304.269
304.355
304.38
304.464
304.472
304.459
304.461
304.417
304.434
304.438
304.354
304.296
304.198
304.161
304.063
303.904
303.852
360.891
361.942
363.416
364.579
365.538
366.334
367.179
367.415
367.714
367.77
367.461
367.106
366.504
365.855
364.766
363.557
362.299
360.871
359.226
358.064
352.762
353.603
354.938
355.901
356.714
357.4
358.169
358.407
358.606
358.653
358.389
358.041
357.548
357.042
356.101
355.097
353.98
352.733
351.335
350.359
344.642
345.306
346.44
347.22
347.92
348.497
349.163
349.432
349.549
349.58
349.325
349.036
348.639
348.233
347.438
346.616
345.705
344.594
343.472
342.602
336.512
336.995
337.953
338.588
339.16
339.692
340.218
340.428
340.533
340.51
340.276
340.063
339.735
339.423
338.779
338.127
337.388
336.466
335.599
334.858
328.43
328.751
329.534
329.993
330.46
330.865
331.286
331.442
331.512
331.48
331.296
331.167
330.893
330.648
330.166
329.661
329.068
328.354
327.691
327.115
320.323
320.546
321.11
321.39
321.749
322.014
322.337
322.473
322.516
322.498
322.33
322.257
322.097
321.888
321.598
321.168
320.774
320.27
319.765
319.355
312.211
312.361
312.684
312.819
313.043
313.179
313.422
313.512
313.51
313.523
313.408
313.355
313.302
313.112
312.993
312.682
312.452
312.18
311.843
311.618
304.087
304.137
304.257
304.284
304.366
304.4
304.498
304.542
304.526
304.545
304.479
304.483
304.457
304.378
304.346
304.257
304.168
304.078
303.974
303.875
361.188
362.511
363.946
365.08
366.091
367.228
367.632
368.14
368.25
368.328
368.025
367.802
367.368
366.376
365.17
364.265
362.74
361.108
359.568
358.413
352.975
354.095
355.344
356.374
357.155
358.234
358.516
358.982
359.108
359.169
358.891
358.75
358.327
357.479
356.416
355.72
354.351
352.956
351.605
350.623
344.807
345.701
346.75
347.692
348.282
349.243
349.441
349.898
349.982
349.998
349.766
349.673
349.297
348.595
347.71
347.175
346.005
344.824
343.668
342.847
336.671
337.337
338.147
338.991
339.448
340.243
340.399
340.823
340.883
340.885
340.641
340.626
340.291
339.739
339.024
338.623
337.623
336.666
335.753
335.053
328.491
329.008
329.632
330.276
330.625
331.298
331.396
331.717
331.787
331.789
331.599
331.584
331.29
330.913
330.378
330.05
329.283
328.547
327.847
327.254
320.349
320.672
321.151
321.6
321.9
322.349
322.401
322.623
322.727
322.697
322.605
322.512
322.335
322.146
321.7
321.469
320.952
320.422
319.909
319.481
312.245
312.389
312.701
312.966
313.18
313.437
313.47
313.532
313.654
313.665
313.603
313.528
313.411
313.331
312.992
312.912
312.611
312.261
312.016
311.699
304.112
304.136
304.243
304.35
304.438
304.498
304.527
304.522
304.595
304.592
304.565
304.537
304.487
304.478
304.356
304.331
304.228
304.107
304.031
303.91
361.461
362.924
364.41
365.542
366.549
367.367
368.085
368.727
368.667
368.678
368.565
368.336
367.795
366.859
365.672
364.477
363.254
361.611
359.912
358.799
353.287
354.456
355.764
356.753
357.594
358.32
358.925
359.505
359.485
359.459
359.357
359.2
358.745
357.89
356.866
355.877
354.819
353.374
351.871
350.993
345.152
345.99
347.124
347.966
348.655
349.329
349.741
350.266
350.275
350.286
350.159
350.067
349.665
348.947
348.082
347.245
346.381
345.188
343.87
343.147
336.962
337.598
338.511
339.164
339.75
340.321
340.67
341.087
341.102
341.105
341
340.955
340.561
340.021
339.343
338.661
337.984
336.977
335.875
335.315
328.783
329.259
329.923
330.382
330.884
331.357
331.623
331.909
331.95
331.936
331.854
331.808
331.493
331.129
330.603
330.058
329.569
328.737
327.888
327.5
320.592
320.868
321.353
321.687
322.094
322.427
322.6
322.809
322.835
322.801
322.713
322.709
322.47
322.23
321.855
321.447
321.161
320.483
319.914
319.685
312.368
312.551
312.767
312.999
313.262
313.502
313.557
313.716
313.715
313.696
313.613
313.616
313.488
313.344
313.092
312.856
312.718
312.291
311.981
311.849
304.134
304.196
304.277
304.344
304.442
304.527
304.544
304.608
304.611
304.596
304.542
304.555
304.517
304.459
304.383
304.272
304.288
304.119
304.035
303.964
362.066
363.298
364.603
365.794
366.746
367.785
368.467
368.939
368.941
369.127
368.887
368.544
368.022
367.113
366.102
364.782
363.604
361.872
360.368
359.221
353.761
354.78
355.939
356.978
357.706
358.675
359.197
359.682
359.687
359.829
359.642
359.328
358.931
358.108
357.214
356.102
355.135
353.634
352.335
351.43
345.465
346.32
347.325
348.199
348.735
349.592
350.007
350.458
350.43
350.588
350.434
350.142
349.86
349.115
348.365
347.458
346.648
345.361
344.245
343.538
337.195
337.858
338.698
339.45
339.814
340.505
340.836
341.257
341.236
341.371
341.25
340.954
340.825
340.2
339.566
338.816
338.18
337.122
336.188
335.637
328.92
329.436
330.065
330.692
330.927
331.47
331.698
332.061
332.103
332.179
332.083
331.875
331.713
331.277
330.75
330.146
329.698
328.881
328.187
327.71
320.66
321.013
321.497
321.926
322.059
322.45
322.604
322.892
322.964
323.003
322.888
322.766
322.648
322.379
321.948
321.491
321.238
320.658
320.171
319.784
312.444
312.596
312.921
313.134
313.221
313.472
313.576
313.723
313.766
313.851
313.73
313.634
313.578
313.424
313.167
312.864
312.765
312.453
312.125
311.868
304.182
304.21
304.317
304.406
304.409
304.52
304.543
304.608
304.607
304.642
304.602
304.547
304.549
304.473
304.396
304.311
304.287
304.181
304.068
303.98
362.112
363.414
364.803
366.048
367.049
368.229
368.759
369.12
369.361
369.107
369.054
368.709
368.102
367.163
366.326
365.099
363.799
362.129
360.498
359.153
353.82
354.875
356.07
357.175
358.039
359.072
359.517
359.798
360.06
359.828
359.799
359.507
358.975
358.18
357.476
356.381
355.249
353.831
352.399
351.311
345.509
346.409
347.383
348.315
349.026
349.918
350.28
350.555
350.803
350.57
350.583
350.31
349.841
349.205
348.622
347.678
346.683
345.526
344.322
343.392
337.244
337.965
338.775
339.48
340.042
340.786
341.126
341.342
341.54
341.336
341.377
341.157
340.735
340.215
339.784
339.004
338.138
337.202
336.227
335.475
328.953
329.55
330.166
330.687
331.09
331.709
331.96
332.108
332.322
332.143
332.2
331.996
331.677
331.24
330.922
330.339
329.616
328.914
328.159
327.578
320.707
321.114
321.561
321.954
322.193
322.632
322.859
322.949
323.102
322.931
322.998
322.87
322.633
322.273
322.075
321.632
321.133
320.649
320.111
319.711
312.433
312.697
312.975
313.216
313.341
313.58
313.756
313.799
313.855
313.75
313.815
313.712
313.6
313.345
313.233
312.959
312.714
312.397
312.097
311.803
304.156
304.261
304.353
304.436
304.45
304.554
304.584
304.626
304.626
304.599
304.653
304.588
304.552
304.445
304.414
304.33
304.276
304.141
304.079
303.962
362.207
363.62
364.859
366.148
367.284
368.365
368.921
369.36
369.531
369.426
369.348
368.708
368.138
367.324
366.633
365.26
363.91
362.297
360.653
359.271
353.881
355.07
356.103
357.249
358.214
359.18
359.672
360.033
360.232
360.108
360.069
359.525
358.936
358.279
357.702
356.529
355.361
353.932
352.565
351.397
345.571
346.538
347.385
348.368
349.163
350.072
350.472
350.747
350.934
350.784
350.817
350.355
349.796
349.294
348.825
347.823
346.818
345.601
344.482
343.525
337.291
338.085
338.743
339.546
340.14
340.942
341.28
341.493
341.667
341.509
341.554
341.186
340.679
340.33
339.947
339.106
338.293
337.32
336.394
335.624
328.967
329.616
330.134
330.747
331.175
331.78
332.116
332.24
332.435
332.286
332.308
332.043
331.657
331.346
331.068
330.434
329.772
329.055
328.315
327.693
320.663
321.203
321.5
321.948
322.223
322.686
322.983
323.03
323.203
323.049
323.047
322.861
322.624
322.368
322.197
321.737
321.321
320.793
320.25
319.774
312.396
312.705
312.885
313.191
313.311
313.572
313.835
313.823
313.938
313.812
313.853
313.761
313.622
313.409
313.345
313.053
312.805
312.513
312.203
311.901
304.164
304.243
304.323
304.409
304.465
304.549
304.635
304.632
304.68
304.617
304.67
304.608
304.581
304.482
304.474
304.393
304.31
304.202
304.105
304.007
361.98
363.462
364.896
365.952
367.121
368.426
369.205
369.399
369.719
369.627
369.345
368.792
368.106
367.427
366.682
365.415
363.765
362.231
360.68
359.253
353.726
354.943
356.159
357.015
358.11
359.234
359.9
360.105
360.335
360.294
360.078
359.602
358.947
358.375
357.733
356.677
355.227
353.905
352.582
351.4
345.46
346.423
347.467
348.143
349.107
350.021
350.616
350.833
351.02
350.92
350.824
350.433
349.837
349.39
348.802
347.934
346.714
345.588
344.457
343.51
337.197
337.956
338.786
339.291
340.173
340.848
341.353
341.538
341.726
341.592
341.571
341.301
340.774
340.427
339.879
339.16
338.177
337.28
336.389
335.659
328.941
329.506
330.116
330.485
331.235
331.714
332.121
332.292
332.46
332.308
332.325
332.131
331.712
331.452
330.994
330.443
329.618
328.981
328.323
327.727
320.609
321.083
321.521
321.748
322.275
322.597
322.889
323.054
323.17
323.048
323.07
322.955
322.664
322.505
322.193
321.762
321.14
320.697
320.227
319.794
312.37
312.639
312.929
313.049
313.323
313.547
313.72
313.84
313.905
313.84
313.878
313.774
313.639
313.528
313.351
313.085
312.687
312.433
312.158
311.921
304.157
304.223
304.341
304.395
304.455
304.53
304.589
304.648
304.665
304.659
304.658
304.606
304.585
304.534
304.477
304.376
304.258
304.165
304.082
303.977
)
;

boundaryField
{
    hotSide
    {
        type            fixedGradient;
        gradient        nonuniform List<scalar> 
400
(
495.623
511.588
527.128
542.173
556.654
570.503
583.654
596.043
607.608
618.291
628.037
636.796
644.522
651.175
656.718
661.122
664.363
666.423
667.291
666.962
508.26
524.657
540.619
556.074
570.952
585.183
598.699
611.434
623.324
634.31
644.335
653.348
661.302
668.155
673.869
678.415
681.767
683.907
684.823
684.511
519.444
536.225
552.563
568.385
583.617
598.189
612.03
625.073
637.254
648.512
658.787
668.029
676.187
683.219
689.088
693.762
697.215
699.429
700.39
700.095
529.102
546.217
562.882
579.021
594.562
609.431
623.556
636.869
649.304
660.799
671.293
680.735
689.072
696.263
702.268
707.055
710.598
712.878
713.882
713.603
537.172
554.569
571.509
587.917
603.718
618.838
633.203
646.744
659.395
671.09
681.771
691.382
699.873
707.199
713.321
718.206
721.827
724.165
725.206
724.944
543.609
561.232
578.395
595.02
611.031
626.354
640.913
654.64
667.465
679.324
690.156
699.906
708.523
715.96
722.178
727.144
730.83
733.217
734.291
734.045
548.38
566.174
583.504
600.293
616.463
631.939
646.646
660.513
673.471
685.455
696.403
706.26
714.972
722.495
728.788
733.817
737.555
739.982
741.083
740.853
551.465
569.373
586.816
603.714
619.991
635.569
650.376
664.338
677.386
689.455
700.483
710.412
719.191
726.774
733.12
738.194
741.97
744.426
745.549
745.332
552.859
570.823
588.321
605.274
621.604
637.236
652.093
666.104
679.199
691.312
702.382
712.351
721.167
728.783
735.159
740.26
744.059
746.534
747.673
747.468
552.567
570.529
588.026
604.979
621.309
636.942
651.801
665.815
678.913
691.031
702.106
712.08
720.902
728.525
734.908
740.017
743.824
746.309
747.456
747.26
550.604
568.507
585.947
602.845
619.124
634.706
649.519
663.49
676.548
688.63
699.672
709.618
718.416
726.019
732.387
737.485
741.285
743.768
744.918
744.729
546.998
564.786
582.113
598.903
615.077
630.56
645.279
659.16
672.136
684.142
695.115
704.999
713.743
721.3
727.629
732.697
736.477
738.946
740.092
739.908
541.786
559.403
576.564
593.192
609.211
624.545
639.123
652.871
665.723
677.613
688.481
698.271
706.931
714.416
720.685
725.704
729.448
731.894
733.03
732.848
535.013
552.406
569.348
585.764
601.578
616.716
631.107
644.679
657.365
669.103
679.831
689.494
698.042
705.429
711.616
716.57
720.263
722.676
723.794
723.612
526.737
543.853
560.525
576.679
592.241
607.137
621.297
634.651
647.134
658.681
669.236
678.741
687.149
694.415
700.499
705.37
708.999
711.369
712.464
712.28
517.019
533.81
550.164
566.009
581.273
595.883
609.771
622.867
635.108
646.431
656.78
666.099
674.341
681.462
687.424
692.194
695.748
698.064
699.131
698.942
505.933
522.351
538.341
553.834
568.756
583.039
596.615
609.416
621.38
632.446
642.558
651.664
659.715
666.67
672.491
677.146
680.611
682.866
683.899
683.704
493.558
509.559
525.143
540.241
554.782
568.7
581.926
594.397
606.051
616.83
626.677
635.543
643.381
650.149
655.812
660.338
663.703
665.889
666.883
666.68
479.981
495.526
510.664
525.328
539.451
552.967
565.81
577.919
589.233
599.695
609.253
617.855
625.458
632.022
637.51
641.894
645.15
647.259
648.211
647.998
465.298
480.349
495.005
509.201
522.872
535.953
548.383
560.1
571.046
581.167
590.41
598.728
606.078
612.419
617.72
621.95
625.087
627.114
628.019
627.797
)
;
    }
    coldSide
    {
        type            mixed;
        refValue        uniform 300;
        refGradient     uniform 0;
        valueFraction   uniform 0.991591;
        source          uniform 0;
        value           nonuniform List<scalar> 
400
(
300.027
300.027
300.028
300.028
300.03
300.03
300.03
300.031
300.032
300.032
300.033
300.033
300.034
300.034
300.035
300.035
300.035
300.035
300.035
300.035
300.027
300.028
300.028
300.029
300.03
300.03
300.031
300.032
300.032
300.033
300.034
300.034
300.034
300.035
300.035
300.035
300.035
300.036
300.036
300.036
300.028
300.028
300.029
300.03
300.03
300.031
300.032
300.033