/*--------------------------------*- C++ -*----------------------------------*\
| =========                 |                                                 |
| \\      /  F ield         | OpenFOAM: The Open Source CFD Toolbox           |
|  \\    /   O peration     | Version:  2212                                  |
|   \\  /    A nd           | Website:  www.openfoam.com                      |
|    \\/     M anipulation  |                                                 |
\*---------------------------------------------------------------------------*/
FoamFile
{
    version     2.0;
    format      ascii;
    arch        "LSB;label=32;scalar=64";
    class       volScalarField;
    location    "./ITHACAoutput/true/11.6";
    object      error;
}
// * * * * * * * * * * * * * * * * * * * * * * * * * * * * * * * * * * * * * //

dimensions      [0 0 0 1 0 0 0];

internalField   nonuniform List<scalar> 
3200
(
1.99448
2.08882
2.32871
2.63444
3.00802
3.36645
3.81006
4.19266
4.44498
4.62751
4.73617
4.64221
4.43398
4.15756
3.90132
3.55474
3.23223
2.97739
2.76793
2.642
1.66542
1.69135
1.97655
2.19596
2.495
2.92547
3.22789
3.61795
3.81945
3.98567
4.00842
4.00055
3.80707
3.6014
3.28247
2.99641
2.74346
2.55627
2.40199
2.30209
1.27757
1.42899
1.61283
1.9071
2.10278
2.42675
2.70229
2.95892
3.18312
3.30678
3.30211
3.28996
3.18195
3.023
2.76474
2.52507
2.23811
2.11338
1.98786
1.88579
1.11452
1.0514
1.25009
1.50192
1.66248
1.90115
2.13964
2.37263
2.58872
2.65343
2.75377
2.66287
2.53713
2.42358
2.24659
2.03386
1.82905
1.68101
1.61283
1.4742
0.739332
0.852818
0.947684
1.11222
1.25913
1.46526
1.63043
1.85928
1.99759
1.9842
2.02232
2.08856
2.01992
1.80979
1.71298
1.54763
1.45618
1.2161
1.21228
1.18776
0.595823
0.668735
0.68007
0.822576
0.925206
1.03792
1.2001
1.36038
1.38531
1.4356
1.50382
1.49063
1.41293
1.37099
1.20658
1.1142
0.989375
0.933734
0.881885
0.820105
0.272173
0.390697
0.431232
0.509069
0.524667
0.6035
0.623366
0.83721
0.844059
0.920149
0.843495
0.878776
0.833387
0.745273
0.738183
0.700358
0.577547
0.492337
0.47429
0.448881
0.182235
0.0996119
0.137115
0.160706
0.223321
0.199543
0.239097
0.273326
0.326234
0.185015
0.33967
0.323703
0.27948
0.289105
0.276775
0.308698
0.216061
0.187759
0.115291
0.122589
1.36113
1.45612
1.70629
2.00128
2.3914
2.74222
3.15884
3.43391
3.75696
3.94375
4.03134
3.92276
3.75158
3.54469
3.17088
2.87694
2.64234
2.27376
2.15692
2.04873
1.14223
1.28024
1.39855
1.7483
2.04517
2.34829
2.67144
3.03242
3.24038
3.44132
3.50949
3.42808
3.20487
3.01158
2.74683
2.5344
2.16947
1.99266
1.92883
1.83167
0.960055
1.0215
1.18081
1.35273
1.6637
1.98292
2.27184
2.51587
2.64848
2.79977
2.87517
2.88344
2.74797
2.53009
2.28695
2.01964
1.84258
1.73634
1.52678
1.5332
0.77592
0.824934
0.958135
1.18044
1.33082
1.56807
1.85108
2.03721
2.18799
2.3362
2.36737
2.34384
2.1672
1.96262
1.82027
1.68512
1.50793
1.36663
1.28641
1.26487
0.587932
0.654189
0.769495
0.853877
1.05752
1.20679
1.37546
1.61273
1.66749
1.7636
1.75655
1.78789
1.70499
1.57757
1.39735
1.27465
1.16366
1.08549
0.977313
0.940488
0.42872
0.491699
0.424753
0.628297
0.744739
0.860528
0.941891
1.17065
1.1854
1.30139
1.26629
1.21907
1.20661
1.09386
0.990041
0.83615
0.818037
0.736044
0.626795
0.604791
0.264884
0.307236
0.318272
0.379578
0.400051
0.531147
0.649082
0.711914
0.782711
0.788206
0.780508
0.779628
0.716649
0.640386
0.64349
0.544436
0.543899
0.438171
0.411809
0.36032
0.119147
0.080311
0.17364
0.0875919
0.129993
0.203243
0.175456
0.226698
0.244442
0.269545
0.320235
0.222325
0.278903
0.250746
0.187722
0.174221
0.202368
0.196238
0.114013
0.14434
0.576094
0.665729
0.903083
1.16526
1.4996
1.88745
2.24262
2.5513
2.86249
3.02026
3.08575
2.99537
2.86391
2.55202
2.35504
2.02044
1.74033
1.46893
1.43336
1.31909
0.419009
0.553776
0.748513
1.01311
1.22885
1.68246
1.90625
2.18131
2.49798
2.6447
2.55696
2.52542
2.46504
2.20515
1.96819
1.71179
1.46989
1.35855
1.20025
1.18651
0.411584
0.472686
0.647537
0.844393
1.04216
1.34562
1.53409
1.79348
2.05866
2.17508
2.18072
2.13495
2.04314
1.85646
1.63209
1.49923
1.23515
1.11992
1.05888
1.02049
0.304573
0.395651
0.48973
0.674112
0.775231
1.05782
1.34846
1.51953
1.66403
1.72582
1.83807
1.81438
1.59507
1.5682
1.34101
1.1583
1.039
0.944022
0.850882
0.881002
0.22377
0.35126
0.373127
0.519641
0.703375
0.851766
1.02646
1.19144
1.28654
1.34663
1.43718
1.30682
1.30532
1.23745
1.08053
0.888217
0.786438
0.670669
0.637296
0.636761
0.221984
0.229043
0.309862
0.321863
0.420438
0.562377
0.684127
0.827225
0.887548
0.953215
1.0045
1.02816
0.964039
0.879608
0.697581
0.720584
0.529374
0.532795
0.468106
0.404295
0.1512
0.0853277
0.201845
0.27821
0.212474
0.294007
0.452035
0.518357
0.469193
0.6348
0.585836
0.536635
0.543443
0.550126
0.433555
0.430004
0.332532
0.280586
0.379042
0.264338
-0.000470251
0.0789421
0.0351195
0.0610771
0.11751
0.108703
0.0892734
0.117517
0.185772
0.162055
0.181337
0.173388
0.182412
0.134584
0.157429
0.158625
0.15206
0.119923
0.103904
0.148088
-0.129042
-0.139374
0.122585
0.270334
0.556461
0.815145
1.26323
1.57457
1.79652
1.94496
1.98317
1.95904
1.79046
1.74011
1.30126
1.06255
0.898844
0.64363
0.574653
0.590791
-0.0538509
-0.058554
0.0924683
0.274664
0.511965
0.845774
1.05102
1.38264
1.53408
1.73655
1.78992
1.6407
1.51997
1.42929
1.06744
0.953485
0.673644
0.624461
0.493897
0.557176
-0.147765
-0.0507704
0.0456938
0.19124
0.420839
0.636593
0.91765
1.10842
1.35139
1.40166
1.48909
1.42367
1.23876
1.16605
0.995851
0.798242
0.623049
0.527402
0.412461
0.375726
-0.151925
-0.055363
0.0129346
0.150251
0.323066
0.644296
0.753162
0.923925
1.02383
1.16626
1.20561
1.1713
1.10191
0.961296
0.790024
0.685507
0.510327
0.369378
0.317986
0.356345
-0.0901936
-0.112877
0.0434572
0.071767
0.20324
0.397688
0.59287
0.774317
0.82427
0.903629
0.901591
0.861473
0.80542
0.706208
0.614617
0.489374
0.401391
0.365669
0.255278
0.271308
-0.0137179
-0.066989
-0.0184882
0.0552963
0.242257
0.255402
0.320601
0.471522
0.546913
0.67576
0.648889
0.603262
0.61209
0.480009
0.441732
0.340239
0.339752
0.26271
0.175921
0.20067
0.00270926
0.00556615
-0.00106254
-0.00330997
0.131958
0.213752
0.241662
0.251503
0.320072
0.437665
0.438047
0.432842
0.33242
0.324918
0.266636
0.253958
0.155715
0.116251
0.19655
0.0585097
0.0229501
-0.0201723
0.0122634
0.00450343
0.0334056
0.0411455
0.101403
0.145599
0.141927
0.170126
0.0444394
0.137411
0.0721744
0.0542549
0.0314332
0.10048
0.0131591
0.00447502
0.0600662
0.053275
-0.890215
-0.877317
-0.727443
-0.555163
-0.309869
0.0314525
0.441154
0.571207
0.843141
1.00211
1.06018
0.929081
0.79119
0.694241
0.47785
0.15684
0.039461
-0.163285
-0.166577
-0.18924
-0.823535
-0.76379
-0.585561
-0.485425
-0.316429
0.00773965
0.266159
0.467396
0.756865
0.814415
0.860105
0.897552
0.680544
0.520119
0.336478
0.177255
-0.0303158
-0.105718
-0.146082
-0.199743
-0.660363
-0.655955
-0.48247
-0.383137
-0.218468
-0.0488217
0.25014
0.43463
0.514017
0.656669
0.750902
0.677923
0.5912
0.353185
0.356016
0.174918
0.00941898
-0.0769163
-0.105869
-0.183081
-0.538409
-0.511244
-0.441448
-0.340367
-0.184852
-0.0129421
0.15287
0.28568
0.385197
0.563954
0.601299
0.60852
0.5098
0.346592
0.239737
0.113018
0.0423342
-0.103124
-0.107995
-0.111989
-0.40088
-0.432986
-0.378583
-0.256463
-0.191987
0.0353849
0.14715
0.244045
0.281811
0.430571
0.429724
0.379357
0.355381
0.282742
0.193047
0.0477981
-0.0265119
-0.0864193
-0.0811194
-0.00756254
-0.210332
-0.376998
-0.206032
-0.18464
-0.125396
-0.0345273
0.113176
0.193933
0.215503
0.351646
0.329323
0.270152
0.26141
0.237559
0.133358
0.0348465
-0.0270868
-0.0744028
-0.0603114
-0.0571024
-0.18869
-0.208609
-0.151399
-0.138606
-0.0969679
0.00167068
0.0702415
0.103636
0.1102
0.185915
0.195388
0.165666
0.22413
0.108922
0.0647595
0.0270562
0.0415775
-0.0544459
-0.0577706
-0.0267614
-0.0751508
-0.0653308
-0.0108056
-0.0260391
-0.0446114
-0.0197371
0.0237515
0.0188864
0.0927792
0.0538461
0.00536568
0.102483
0.0317374
0.0241441
-0.0224369
0.0716698
0.0138292
-0.0225343
0.00052258
0.0595199
-1.52073
-1.54452
-1.4475
-1.29553
-1.14397
-0.864037
-0.67562
-0.312199
-0.221007
-0.00597668
0.0851274
0.0285774
-0.141504
-0.274053
-0.519427
-0.659886
-0.752512
-0.855942
-0.841307
-0.858538
-1.31621
-1.31383
-1.27409
-1.13114
-0.94741
-0.781093
-0.466811
-0.365474
-0.183275
0.019132
0.0574839
-0.0890541
-0.115767
-0.295718
-0.44052
-0.574661
-0.669915
-0.752085
-0.735269
-0.723022
-1.12875
-1.14382
-1.03392
-0.978374
-0.877994
-0.657207
-0.505636
-0.246842
-0.125047
-0.00671819
0.0580099
-0.0167169
-0.114849
-0.161133
-0.326135
-0.449334
-0.598405
-0.628711
-0.662831
-0.647646
-0.942025
-0.953003
-0.832234
-0.917666
-0.719638
-0.542304
-0.348283
-0.235571
-0.0943776
-0.0531124
0.0758972
-0.0153643
-0.139153
-0.172547
-0.272948
-0.399435
-0.446222
-0.472134
-0.529606
-0.47783
-0.73679
-0.726265
-0.630198
-0.657876
-0.548895
-0.34547
-0.237633
-0.186302
-0.058532
-0.0593187
-0.0099505
-0.0613176
-0.127681
-0.177203
-0.21621
-0.274895
-0.395703
-0.401948
-0.425336
-0.345358
-0.509361
-0.53838
-0.520171
-0.495448
-0.38944
-0.356173
-0.264901
-0.173384
-0.10492
-0.0288338
0.0231397
-0.058387
-0.00160681
-0.101258
-0.153043
-0.183686
-0.314445
-0.309019
-0.323759
-0.327533
-0.325617
-0.274122
-0.361648
-0.26959
-0.217975
-0.139392
-0.118466
-0.0743987
-0.0196792
-0.00599674
-0.0519294
-0.00332273
-0.0444257
-0.0429134
-0.0665185
-0.17679
-0.20275
-0.217181
-0.151576
-0.173049
-0.0702245
-0.0245949
-0.134171
-0.0728939
-0.0710856
-0.0246773
-0.0808107
-0.0175374
-0.0475577
-0.0239729
-0.0133442
-0.0549277
-0.0157295
-0.0300856
-0.0270607
-0.0994066
-0.105109
-0.014437
-0.00643977
-0.0365986
-2.1202
-2.1214
-2.13002
-1.98114
-1.89723
-1.61549
-1.46178
-1.25849
-1.0518
-0.986736
-0.891433
-0.888732
-1.03009
-1.16753
-1.29019
-1.37616
-1.48732
-1.51895
-1.46642
-1.44168
-1.80436
-1.87143
-1.88794
-1.78402
-1.63906
-1.45146
-1.24644
-1.11798
-0.979646
-0.787181
-0.718652
-0.817874
-0.833363
-0.957734
-1.06258
-1.2028
-1.29522
-1.3102
-1.29963
-1.29298
-1.56983
-1.59198
-1.59853
-1.48095
-1.44712
-1.21975
-1.12123
-0.952667
-0.808498
-0.728503
-0.723743
-0.641934
-0.732186
-0.865349
-0.915578
-1.02216
-1.11411
-1.0977
-1.09698
-1.05338
-1.19675
-1.31789
-1.29811
-1.23973
-1.19111
-0.975037
-0.861176
-0.804087
-0.654169
-0.563665
-0.548166
-0.568386
-0.6119
-0.691628
-0.705949
-0.888738
-0.956431
-0.878989
-0.887803
-0.919914
-1.00111
-1.06536
-1.06897
-1.06682
-0.891217
-0.821138
-0.759135
-0.57114
-0.542249
-0.468007
-0.368714
-0.516915
-0.484058
-0.520527
-0.62849
-0.583756
-0.772134
-0.716048
-0.744145
-0.646087
-0.719712
-0.690887
-0.701504
-0.731965
-0.594356
-0.531497
-0.49003
-0.390414
-0.335218
-0.384156
-0.318252
-0.283496
-0.401492
-0.453894
-0.370616
-0.456628
-0.534547
-0.571389
-0.538022
-0.537831
-0.470609
-0.392512
-0.466013
-0.406662
-0.446824
-0.304759
-0.279619
-0.222477
-0.205857
-0.204573
-0.159686
-0.154626
-0.286435
-0.206532
-0.227959
-0.260807
-0.320328
-0.278465
-0.325949
-0.363937
-0.103391
-0.150002
-0.117643
-0.181631
-0.191569
-0.131965
-0.085657
-0.0993307
-0.0431836
-0.0645805
-0.0502209
-0.0409523
-0.0996819
-0.0830497
-0.0278506
-0.0171694
-0.112855
-0.106317
-0.0456988
-0.115763
-2.63976
-2.68352
-2.74122
-2.67129
-2.54186
-2.33768
-2.16573
-2.03447
-1.89973
-1.79193
-1.7241
-1.74155
-1.77909
-1.93951
-1.95233
-2.1245
-2.10323
-2.10921
-1.98775
-1.98748
-2.28456
-2.36777
-2.32722
-2.26795
-2.2509
-2.07902
-1.98038
-1.75457
-1.67267
-1.56476
-1.48374
-1.50334
-1.6335
-1.65464
-1.74523
-1.85168
-1.83962
-1.83386
-1.75005
-1.71974
-1.95522
-2.00035
-1.99169
-2.00161
-1.83593
-1.78301
-1.63382
-1.49947
-1.44369
-1.34283
-1.30102
-1.30371
-1.35441
-1.35062
-1.43313
-1.52324
-1.53267
-1.58091
-1.49842
-1.51804
-1.57837
-1.56795
-1.68205
-1.59155
-1.46255
-1.44656
-1.35444
-1.19932
-1.14492
-1.14457
-1.06512
-1.08015
-1.11567
-1.15578
-1.19495
-1.26113
-1.35497
-1.27502
-1.31469
-1.15349
-1.2196
-1.27897
-1.27466
-1.23748
-1.17401
-1.0963
-1.06351
-0.966534
-0.912533
-0.896247
-0.867784
-0.827913
-0.876565
-0.927828
-0.94514
-0.960343
-1.01833
-0.932533
-0.946719
-0.905865
-0.878485
-0.863624
-0.920815
-1.01234
-0.854286
-0.77528
-0.735021
-0.659952
-0.641533
-0.625654
-0.618702
-0.536997
-0.589077
-0.656024
-0.741797
-0.685274
-0.678261
-0.715721
-0.67933
-0.630893
-0.524276
-0.565068
-0.60426
-0.503705
-0.531179
-0.508936
-0.467603
-0.406481
-0.447072
-0.40339
-0.299626
-0.397953
-0.364465
-0.321258
-0.47032
-0.47352
-0.427079
-0.393549
-0.467052
-0.364631
-0.175994
-0.190846
-0.185495
-0.165852
-0.155969
-0.178856
-0.0964473
-0.117753
-0.133544
-0.14735
-0.0986876
-0.176733
-0.0693137
-0.106644
-0.133058
-0.155471
-0.158169
-0.12596
-0.177712
-0.137524
-3.02625
-3.16339
-3.23243
-3.21737
-3.21431
-3.02587
-2.88572
-2.78106
-2.64715
-2.55547
-2.46596
-2.48124
-2.44422
-2.52765
-2.65734
-2.6865
-2.63674
-2.65008
-2.53692
-2.31703
-2.61278
-2.75834
-2.74815
-2.76997
-2.78324
-2.65206
-2.51804
-2.41709
-2.27564
-2.21973
-2.13874
-2.13422
-2.26077
-2.27653
-2.27619
-2.32373
-2.30231
-2.18945
-2.12037
-1.99098
-2.21003
-2.3216
-2.38868
-2.42373
-2.30178
-2.18574
-2.17052
-1.99481
-1.96762
-1.9119
-1.89243
-1.84376
-1.78886
-1.88827
-2.04027
-1.96206
-1.99675
-1.91236
-1.87504
-1.76767
-1.8761
-1.85943
-1.91554
-1.93588
-1.87798
-1.76481
-1.79913
-1.64689
-1.60657
-1.57368
-1.49881
-1.49805
-1.54964
-1.54407
-1.57215
-1.63809
-1.54633
-1.58287
-1.48134
-1.44347
-1.36594
-1.4168
-1.53371
-1.48793
-1.49829
-1.33328
-1.37844
-1.31339
-1.23502
-1.21088
-1.20485
-1.18337
-1.22379
-1.22223
-1.226
-1.25289
-1.20765
-1.19907
-1.09195
-1.0478
-1.0136
-1.07607
-1.08291
-1.08584
-1.01197
-1.07911
-0.983805
-0.854654
-0.94144
-0.863973
-0.850643
-0.822986
-0.832384
-0.914698
-0.835529
-0.889543
-0.861786
-0.862648
-0.872831
-0.78539
-0.612051
-0.692662
-0.569702
-0.699975
-0.588279
-0.60218
-0.584188
-0.609347
-0.524568
-0.48878
-0.506723
-0.551809
-0.515995
-0.548614
-0.548555
-0.523552
-0.471454
-0.575935
-0.473744
-0.499844
-0.210247
-0.153061
-0.211397
-0.198874
-0.22317
-0.196795
-0.129747
-0.218814
-0.159079
-0.134315
-0.159036
-0.171273
-0.176582
-0.154959
-0.177337
-0.155083
-0.155204
-0.144863
-0.177483
-0.0988862
-3.35249
-3.41137
-3.53654
-3.64153
-3.6604
-3.46519
-3.46182
-3.27555
-3.18022
-3.17991
-3.1192
-3.10118
-3.1304
-3.11834
-3.22219
-3.11668
-3.12141
-3.08028
-2.90483
-2.71629
-2.89361
-2.98335
-3.06873
-3.16628
-3.0784
-3.04194
-3.0054
-2.95999
-2.8228
-2.85322
-2.65407
-2.7513
-2.71086
-2.69855
-2.71191
-2.76166
-2.69511
-2.58753
-2.45885
-2.3175
-2.47478
-2.47562
-2.61006
-2.6571
-2.67866
-2.66541
-2.58524
-2.52542
-2.40756
-2.42864
-2.3573
-2.24599
-2.31495
-2.35924
-2.3306
-2.33789
-2.29839
-2.18836
-2.12949
-2.02055
-1.97169
-2.10578
-2.17463
-2.14413
-2.16326
-2.18394
-2.08715
-2.02206
-2.05009
-1.92007
-1.92181
-1.92625
-1.90086
-1.96815
-1.9882
-1.93274
-1.79982
-1.78601
-1.6927
-1.6125
-1.56455
-1.61179
-1.64868
-1.69931
-1.60682
-1.72213
-1.66671
-1.57853
-1.57061
-1.52671
-1.45162
-1.44984
-1.45229
-1.5368
-1.45235
-1.48109
-1.50733
-1.33542
-1.31139
-1.26919
-1.09784
-1.21309
-1.23287
-1.1361
-1.28534
-1.21504
-1.16336
-1.13544
-1.20209
-1.06427
-1.13923
-0.990689
-1.04159
-1.09984
-1.05058
-1.02399
-1.08128
-1.006
-0.987215
-0.864561
-0.69252
-0.707505
-0.71044
-0.648545
-0.742783
-0.725916
-0.772529
-0.670731
-0.647737
-0.66041
-0.630494
-0.632959
-0.627606
-0.657288
-0.625485
-0.625657
-0.661045
-0.553553
-0.536698
-0.553493
-0.167805
-0.197075
-0.176469
-0.193522
-0.251108
-0.230476
-0.328574
-0.247644
-0.275245
-0.221807
-0.267281
-0.22022
-0.24145
-0.232879
-0.20689
-0.211613
-0.219707
-0.226539
-0.185945
-0.22116
-3.50617
-3.67052
-3.76978
-3.94879
-3.9184
-3.9314
-3.9088
-3.80451
-3.82528
-3.62054
-3.6588
-3.68468
-3.64254
-3.62747
-3.60913
-3.58279
-3.46213
-3.38089
-3.13205
-2.92929
-3.03736
-3.2696
-3.25221
-3.40003
-3.38744
-3.47659
-3.40818
-3.34053
-3.26845
-3.21726
-3.18443
-3.19958
-3.1095
-3.15783
-3.16466
-3.05871
-2.97504
-2.85732
-2.6557
-2.48796
-2.5994
-2.68763
-2.79603
-2.8732
-2.91366
-2.89918
-2.84076
-2.81556
-2.76523
-2.73592
-2.70847
-2.69002
-2.69386
-2.6524
-2.71958
-2.58009
-2.52642
-2.51423
-2.28768
-2.12953
-2.09568
-2.23472
-2.32413
-2.31012
-2.3501
-2.36295
-2.37257
-2.30002
-2.25823
-2.21491
-2.22404
-2.19265
-2.16747
-2.1365
-2.17696
-2.10368
-2.06524
-1.99272
-1.86203
-1.68596
-1.61207
-1.75864
-1.77446
-1.80722
-1.81364
-1.9498
-1.81965
-1.81092
-1.77375
-1.76168
-1.75891
-1.7461
-1.63375
-1.74499
-1.66728
-1.69089
-1.57247
-1.46355
-1.43002
-1.39142
-1.17613
-1.24232
-1.31317
-1.30465
-1.37548
-1.37796
-1.39638
-1.33
-1.21872
-1.24651
-1.20612
-1.24239
-1.18702
-1.1779
-1.25526
-1.20127
-1.11493
-1.08241
-1.06913
-0.979486
-0.656995
-0.762049
-0.789615
-0.774013
-0.810487
-0.797498
-0.844675
-0.724346
-0.774189
-0.824855
-0.750851
-0.776697
-0.707614
-0.681453
-0.713524
-0.708821
-0.681621
-0.658148
-0.664693
-0.619765
-0.2229
-0.222365
-0.302857
-0.225277
-0.300687
-0.301142
-0.211522
-0.255557
-0.272789
-0.213195
-0.197255
-0.220218
-0.164397
-0.206668
-0.168045
-0.237511
-0.21227
-0.24758
-0.213948
-0.248199
-3.56051
-3.71952
-4.04176
-4.2193
-4.18564
-4.22062
-4.29236
-4.21096
-4.10451
-4.12982
-4.08101
-4.00272
-4.03001
-4.0019
-3.98464
-3.88167
-3.6996
-3.45114
-3.17205
-3.00753
-3.02885
-3.31508
-3.48434
-3.57026
-3.69143
-3.68113
-3.70305
-3.58577
-3.65756
-3.6341
-3.53946
-3.48077
-3.50092
-3.45758
-3.39993
-3.29705
-3.16754
-2.96535
-2.78088
-2.53262
-2.70717
-2.74271
-2.93311
-3.0693
-3.03319
-3.13496
-3.09517
-3.01135
-3.06637
-3.07111
-3.01904
-3.0067
-2.9793
-2.92051
-2.87486
-2.8403
-2.6884
-2.51365
-2.39331
-2.18594
-2.16803
-2.28007
-2.38269
-2.41934
-2.50059
-2.54064
-2.56434
-2.52817
-2.52659
-2.48801
-2.42639
-2.38537
-2.39643
-2.38594
-2.36898
-2.31358
-2.16686
-2.04678
-1.8893
-1.78948
-1.6426
-1.79753
-1.86216
-1.89214
-1.94573
-2.05437
-2.01768
-1.91583
-2.03563
-1.97031
-1.90253
-1.89964
-1.87078
-1.83731
-1.89769
-1.78879
-1.76691
-1.59865
-1.55043
-1.4043
-1.18715
-1.31959
-1.3317
-1.42566
-1.37031
-1.39452
-1.39945
-1.40556
-1.39432
-1.43313
-1.24901
-1.2881
-1.39043
-1.3006
-1.36367
-1.28098
-1.20207
-1.11306
-1.0211
-0.990787
-0.768738
-0.770915
-0.774623
-0.797809
-0.794793
-0.841003
-0.845604
-0.86788
-0.892357
-0.835818
-0.862357
-0.79522
-0.809476
-0.82099
-0.758758
-0.835565
-0.67335
-0.694997
-0.70593
-0.587373
-0.255782
-0.233466
-0.28649
-0.301382
-0.27677
-0.327005
-0.255065
-0.277682
-0.279906
-0.359427
-0.307607
-0.247622
-0.352105
-0.208681
-0.260795
-0.282502
-0.219608
-0.179334
-0.165899
-0.188642
-3.41991
-3.75868
-3.99446
-4.20843
-4.35095
-4.45944
-4.39327
-4.39454
-4.41241
-4.4112
-4.33116
-4.28713
-4.2387
-4.17344
-4.01599
-4.00949
-3.82395
-3.50623
-3.18023
-2.87606
-2.99782
-3.17944
-3.44805
-3.65019
-3.78781
-3.79794
-3.82096
-3.85747
-3.76705
-3.81779
-3.71209
-3.76724
-3.62976
-3.64848
-3.54881
-3.36996
-3.27437
-3.02065
-2.73927
-2.5746
-2.56058
-2.77696
-2.9228
-3.03378
-3.1825
-3.2514
-3.21503
-3.33759
-3.18343
-3.20732
-3.17854
-3.22184
-3.06147
-3.01404
-3.01944
-2.87789
-2.76129
-2.51898
-2.34627
-2.18121
-2.08477
-2.2182
-2.44408
-2.51173
-2.5632
-2.6721
-2.68478
-2.65311
-2.65588
-2.69155
-2.54731
-2.57369
-2.57328
-2.51024
-2.4596
-2.29625
-2.24213
-2.08239
-1.93769
-1.75659
-1.59995
-1.79153
-1.85018
-2.01362
-2.07258
-2.10343
-2.04735
-2.09314
-1.97857
-2.04729
-2.03407
-2.05024
-1.96457
-1.99723
-1.88505
-1.7526
-1.77236
-1.66474
-1.47446
-1.29742
-1.11145
-1.26954
-1.28682
-1.35912
-1.4247
-1.43215
-1.48388
-1.48108
-1.463
-1.4941
-1.47345
-1.42431
-1.50094
-1.43838
-1.31371
-1.37634
-1.275
-1.14732
-1.09365
-1.01247
-0.723702
-0.714081
-0.780647
-0.829116
-0.933171
-0.901615
-0.82845
-0.841231
-0.861245
-0.867436
-0.904589
-0.856086
-0.85683
-0.855385
-0.803882
-0.772133
-0.715493
-0.727854
-0.663445
-0.587672
-0.277432
-0.215545
-0.245299
-0.266127
-0.359725
-0.295093
-0.348777
-0.216447
-0.372512
-0.293578
-0.258714
-0.273038
-0.276439
-0.295177
-0.309718
-0.27222
-0.2101
-0.184517
-0.242959
-0.128519
-3.34835
-3.58713
-3.87036
-4.06364
-4.3253
-4.45776
-4.47827
-4.52146
-4.58642
-4.51397
-4.40531
-4.48027
-4.37804
-4.24625
-4.13555
-3.95848
-3.72548
-3.39342
-3.13693
-2.81241
-2.87849
-3.13578
-3.343
-3.59854
-3.84823
-3.83445
-3.91482
-3.89004
-3.919
-3.8581
-3.8478
-3.81966
-3.67615
-3.67869
-3.60763
-3.42265
-3.2061
-3.04819
-2.68968
-2.43323
-2.45116
-2.68437
-2.84171
-3.07763
-3.19338
-3.24194
-3.33074
-3.32765
-3.33758
-3.32244
-3.31659
-3.18881
-3.12843
-3.15136
-3.02569
-2.85465
-2.63537
-2.48284
-2.27067
-2.07474
-1.9597
-2.16752
-2.34056
-2.50061
-2.58672
-2.6143
-2.70335
-2.74072
-2.76849
-2.64207
-2.67116
-2.64853
-2.63408
-2.55865
-2.50259
-2.32402
-2.1828
-2.03359
-1.83207
-1.70882
-1.51924
-1.63165
-1.85761
-1.90593
-2.01656
-2.10552
-2.1675
-2.08816
-2.06572
-2.10972
-2.04295
-2.09552
-2.05354
-1.9866
-1.92889
-1.87457
-1.75595
-1.56581
-1.40159
-1.3265
-1.09356
-1.2152
-1.31507
-1.39962
-1.43436
-1.48964
-1.55492
-1.51581
-1.54242
-1.54228
-1.58083
-1.46585
-1.45605
-1.40014
-1.38027
-1.32381
-1.22837
-1.16039
-1.03356
-0.904046
-0.692461
-0.659297
-0.761183
-0.862883
-0.938537
-0.878545
-0.843425
-0.930998
-0.916467
-0.882688
-0.926932
-0.893258
-0.884685
-0.850999
-0.771114
-0.759551
-0.681939
-0.69245
-0.622112
-0.55813
-0.226442
-0.203038
-0.277303
-0.33002
-0.323563
-0.289171
-0.293732
-0.31674
-0.321355
-0.286645
-0.334927
-0.298678
-0.342349
-0.275866
-0.301884
-0.206042
-0.255264
-0.277479
-0.23214
-0.187784
-2.99048
-3.31527
-3.71019
-3.90173
-4.12161
-4.23433
-4.39952
-4.54027
-4.44512
-4.45682
-4.40816
-4.32813
-4.3677
-4.21963
-4.03861
-3.81807
-3.65437
-3.23038
-2.90446
-2.48626
-2.59626
-2.95033
-3.17003
-3.44134
-3.60896
-3.71476
-3.80974
-3.85842
-3.89013
-3.82084
-3.84926
-3.73535
-3.73536
-3.56358
-3.46288
-3.38332
-3.04337
-2.75823
-2.47677
-2.11414
-2.23667
-2.35479
-2.63937
-2.81691
-3.03034
-3.16882
-3.22079
-3.15162
-3.2708
-3.29454
-3.23583
-3.22921
-3.15259
-3.03986
-2.98294
-2.67798
-2.63348
-2.30225
-2.14523
-1.80481
-1.87242
-2.0109
-2.20077
-2.38497
-2.55294
-2.65654
-2.60778
-2.61785
-2.65298
-2.64511
-2.66746
-2.56981
-2.65294
-2.4769
-2.38176
-2.25561
-2.15798
-1.88767
-1.69176
-1.51401
-1.39525
-1.55388
-1.6481
-1.84787
-1.93805
-2.00659
-2.04277
-2.07491
-2.08722
-2.09598
-2.00843
-2.03176
-2.00404
-1.95392
-1.86216
-1.76513
-1.63467
-1.4957
-1.31253
-1.16958
-1.03582
-1.07461
-1.19212
-1.33994
-1.3513
-1.43825
-1.47486
-1.45791
-1.50791
-1.50832
-1.49576
-1.47518
-1.42784
-1.43952
-1.34371
-1.34321
-1.19118
-1.02141
-0.938353
-0.876754
-0.627424
-0.684542
-0.719542
-0.789755
-0.819771
-0.833101
-0.882201
-0.917229
-0.926612
-0.90939
-0.928618
-0.888876
-0.829908
-0.822039
-0.853139
-0.738723
-0.732238
-0.605242
-0.633925
-0.506335
-0.201356
-0.234619
-0.29309
-0.284173
-0.266026
-0.248194
-0.26258
-0.304906
-0.239517
-0.321957
-0.26846
-0.29525
-0.286866
-0.29253
-0.241446
-0.214372
-0.269823
-0.250253
-0.170733
-0.122216
-2.55017
-2.94053
-3.29325
-3.62595
-3.85725
-4.08371
-4.12828
-4.28297
-4.28905
-4.2806
-4.20964
-4.1298
-4.11157
-4.0157
-3.79338
-3.53102
-3.22992
-2.9149
-2.54219
-2.14629
-2.25519
-2.49382
-2.80401
-3.08538
-3.27992
-3.49538
-3.61216
-3.7094
-3.77005
-3.66282
-3.64751
-3.63715
-3.56211
-3.44775
-3.19311
-3.10629
-2.80807
-2.5138
-2.10441
-1.81236
-1.8478
-2.16407
-2.36586
-2.65117
-2.7397
-2.93954
-3.06553
-3.13809
-3.13275
-3.11398
-3.04313
-3.05951
-3.03281
-2.86368
-2.79637
-2.63876
-2.36045
-2.08988
-1.79828
-1.53084
-1.5352
-1.73861
-1.9859
-2.16076
-2.25513
-2.35048
-2.50337
-2.50386
-2.57926
-2.57295
-2.55559
-2.51718
-2.45548
-2.35546
-2.26185
-2.14069
-1.89818
-1.73325
-1.46235
-1.28151
-1.17627
-1.38378
-1.51272
-1.62508
-1.71721
-1.89536
-1.95038
-1.95022
-2.02343
-1.99249
-1.972
-1.99456
-1.9391
-1.82823
-1.69796
-1.62136
-1.53807
-1.33008
-1.17893
-0.950282
-0.900677
-0.949394
-1.09553
-1.19895
-1.27273
-1.37647
-1.39081
-1.42391
-1.45386
-1.4264
-1.45725
-1.42594
-1.3641
-1.31996
-1.25557
-1.11104
-1.08793
-0.916026
-0.834926
-0.768044
-0.508671
-0.562234
-0.680024
-0.761527
-0.783257
-0.810002
-0.749815
-0.825899
-0.823737
-0.870996
-0.81588
-0.789357
-0.747044
-0.750467
-0.689992
-0.639709
-0.600576
-0.528739
-0.537922
-0.452282
-0.130295
-0.198977
-0.231519
-0.247
-0.310843
-0.323737
-0.30956
-0.244325
-0.315801
-0.246308
-0.288287
-0.268349
-0.296178
-0.215492
-0.224897
-0.235347
-0.222353
-0.220876
-0.129267
-0.171887
-1.98307
-2.3706
-2.7581
-3.23184
-3.42902
-3.58343
-3.73275
-3.9028
-3.98193
-3.99096
-3.87908
-3.82267
-3.76271
-3.57198
-3.42223
-3.10319
-2.82311
-2.48786
-1.92316
-1.55307
-1.6676
-2.09084
-2.4561
-2.7597
-2.86086
-3.11804
-3.2288
-3.41139
-3.44687
-3.41861
-3.40034
-3.42598
-3.24918
-3.11546
-2.89322
-2.70404
-2.46249
-2.10976
-1.67704
-1.22294
-1.47365
-1.73029
-1.98416
-2.26555
-2.42327
-2.68122
-2.78509
-2.84148
-2.93637
-2.91982
-2.89226
-2.84594
-2.71325
-2.67929
-2.46702
-2.2716
-2.01524
-1.78312
-1.4094
-1.10645
-1.16992
-1.40893
-1.64245
-1.93481
-2.06731
-2.2265
-2.38515
-2.31684
-2.35363
-2.38718
-2.34817
-2.34711
-2.32173
-2.22028
-1.99794
-1.85214
-1.62952
-1.41239
-1.11393
-0.871357
-0.89732
-1.13843
-1.26917
-1.57008
-1.55964
-1.70193
-1.78707
-1.84187
-1.79821
-1.83367
-1.82893
-1.80203
-1.74215
-1.68144
-1.61905
-1.39325
-1.30816
-1.09721
-0.855901
-0.72325
-0.690483
-0.819815
-0.915816
-1.00249
-1.10214
-1.19662
-1.28184
-1.30498
-1.27537
-1.42525
-1.35101
-1.242
-1.33675
-1.22339
-1.14632
-1.0073
-0.899476
-0.774226
-0.65262
-0.513859
-0.40551
-0.469224
-0.588966
-0.670699
-0.701728
-0.637473
-0.824863
-0.795802
-0.793306
-0.79694
-0.722958
-0.736054
-0.775607
-0.727311
-0.644147
-0.603597
-0.625143
-0.514215
-0.342632
-0.30911
-0.104961
-0.199234
-0.180322
-0.210418
-0.240662
-0.294766
-0.187684
-0.280972
-0.307125
-0.272144
-0.306549
-0.286623
-0.188111
-0.260961
-0.212726
-0.190972
-0.172364
-0.112486
-0.0994311
-0.0454945
-1.35169
-1.73492
-2.16453
-2.54449
-2.95953
-3.12086
-3.40373
-3.44157
-3.53142
-3.57885
-3.50456
-3.42786
-3.31263
-3.0989
-2.84401
-2.58883
-2.35321
-1.87381
-1.30246
-0.90072
-1.09363
-1.46292
-1.86197
-2.20632
-2.47956
-2.65246
-2.86043
-2.94895
-3.07784
-2.99483
-2.98695
-2.98365
-2.8546
-2.76448
-2.484
-2.26065
-1.89417
-1.53806
-1.12186
-0.743695
-0.948098
-1.24858
-1.56853
-1.77242
-2.11083
-2.27317
-2.43479
-2.4814
-2.57092
-2.58514
-2.55537
-2.57045
-2.41318
-2.2748
-2.10251
-1.9227
-1.62088
-1.36164
-0.981313
-0.619097
-0.726641
-1.01902
-1.24703
-1.4818
-1.72567
-1.80719
-1.95818
-2.14306
-2.20877
-2.09398
-2.17499
-2.06757
-2.00542
-1.86405
-1.83565
-1.53377
-1.29971
-1.09924
-0.773658
-0.54075
-0.598171
-0.777593
-0.965636
-1.24652
-1.29528
-1.47602
-1.46927
-1.56907
-1.62345
-1.61602
-1.64132
-1.61752
-1.49521
-1.45965
-1.3724
-1.17636
-1.04824
-0.866572
-0.561983
-0.392654
-0.402577
-0.596849
-0.719163
-0.890135
-0.956896
-1.05172
-1.11668
-1.14877
-1.16481
-1.15384
-1.24233
-1.16208
-1.12017
-1.01827
-0.976313
-0.819095
-0.738194
-0.548072
-0.45176
-0.303296
-0.234506
-0.348804
-0.43207
-0.457757
-0.599303
-0.649118
-0.675023
-0.698014
-0.728215
-0.660373
-0.726661
-0.63482
-0.649051
-0.613521
-0.57171
-0.556459
-0.463984
-0.311941
-0.248597
-0.139979
-0.141424
-0.0641142
-0.150066
-0.143001
-0.234711
-0.211126
-0.274333
-0.264276
-0.227192
-0.242889
-0.326295
-0.234171
-0.213134
-0.203054
-0.165747
-0.156364
-0.130221
-0.100847
-0.138933
-0.066281
-0.508884
-1.06264
-1.51458
-1.92379
-2.24995
-2.56285
-2.79277
-2.91805
-2.90354
-3.07277
-2.99079
-2.87965
-2.76751
-2.6114
-2.3072
-2.05305
-1.62775
-1.17055
-0.640898
-0.179502
-0.505178
-0.862919
-1.286
-1.66654
-1.97921
-2.2752
-2.46909
-2.55535
-2.57248
-2.61687
-2.59032
-2.51828
-2.43431
-2.23365
-2.00276
-1.76314
-1.39852
-0.994748
-0.624919
-0.116241
-0.454501
-0.715483
-1.11361
-1.42182
-1.68763
-1.86838
-1.96451
-2.20732
-2.19518
-2.17812
-2.18312
-2.19057
-2.02654
-1.9427
-1.68489
-1.48407
-1.12421
-0.837223
-0.480468
-0.157418
-0.368952
-0.605195
-0.862931
-1.17558
-1.35101
-1.57842
-1.70887
-1.75208
-1.78004
-1.84228
-1.7577
-1.74877
-1.72129
-1.55001
-1.43694
-1.15053
-0.997592
-0.645755
-0.439992
-0.137157
-0.33635
-0.472917
-0.696099
-0.927917
-1.05261
-1.21883
-1.25825
-1.32968
-1.38813
-1.38036
-1.45604
-1.30252
-1.28364
-1.24836
-1.09439
-0.920078
-0.75948
-0.532683
-0.294393
-0.141441
-0.156209
-0.314148
-0.573839
-0.637803
-0.752825
-0.831634
-0.923296
-1.00506
-0.970237
-1.02741
-0.972586
-1.0237
-0.957242
-0.861614
-0.752919
-0.685485
-0.508976
-0.358269
-0.260505
-0.110838
-0.136434
-0.205411
-0.279936
-0.420969
-0.414404
-0.48063
-0.535879
-0.661257
-0.611698
-0.643945
-0.632763
-0.592366
-0.580663
-0.493693
-0.465686
-0.496725
-0.306638
-0.199112
-0.215004
-0.0124057
-0.0524035
-0.00793086
-0.158633
-0.119301
-0.15095
-0.224266
-0.22829
-0.21234
-0.172386
-0.186922
-0.217097
-0.251497
-0.143072
-0.13928
-0.149272
-0.132615
-0.1422
-0.0676161
0.00753425
-0.0498035
0.0140522
-0.453512
-1.00774
-1.41297
-1.72064
-2.05337
-2.33641
-2.40359
-2.51907
-2.57425
-2.44432
-2.39055
-2.3032
-2.13373
-1.84505
-1.53398
-1.08542
-0.62346
-0.14516
0.358394
-0.0257772
-0.353507
-0.863983
-1.237
-1.57922
-1.81313
-1.95777
-2.12702
-2.15861
-2.14676
-2.21681
-2.18026
-1.99281
-1.80005
-1.6359
-1.30955
-1.03703
-0.549881
-0.145771
0.25426
-0.064556
-0.376266
-0.801086
-1.06418
-1.32244
-1.59952
-1.72775
-1.76645
-1.95493
-1.85548
-1.87301
-1.86376
-1.73412
-1.60554
-1.36919
-1.19116
-0.870936
-0.571207
-0.161096
0.236203
-0.0371257
-0.328907
-0.597047
-0.939866
-1.08559
-1.29601
-1.42111
-1.51722
-1.58114
-1.57438
-1.55768
-1.53226
-1.41799
-1.35868
-1.12288
-0.956049
-0.718308
-0.402886
-0.0662855
0.162519
-0.0101224
-0.282823
-0.460698
-0.68627
-0.854249
-0.978757
-1.15982
-1.22639
-1.21301
-1.23568
-1.20697
-1.18327
-1.18099
-1.03162
-0.914639
-0.726853
-0.546343
-0.420791
-0.130139
0.207466
-0.0941896
-0.238453
-0.410401
-0.561925
-0.555602
-0.737395
-0.836035
-0.865001
-0.873086
-0.881808
-0.925223
-0.868608
-0.791001
-0.694602
-0.655392
-0.623025
-0.461008
-0.300682
-0.121452
0.0808909
-0.0239903
-0.127889
-0.176841
-0.311324
-0.410706
-0.46692
-0.458529
-0.540811
-0.552173
-0.562295
-0.573838