/*--------------------------------*- C++ -*----------------------------------*\
| =========                 |                                                 |
| \\      /  F ield         | OpenFOAM: The Open Source CFD Toolbox           |
|  \\    /   O peration     | Version:  2212                                  |
|   \\  /    A nd           | Website:  www.openfoam.com                      |
|    \\/     M anipulation  |                                                 |
\*---------------------------------------------------------------------------*/
FoamFile
{
    version     2.0;
    format      ascii;
    arch        "LSB;label=32;scalar=64";
    class       volScalarField;
    location    "./ITHACAoutput/true/11.6";
    object      trueState;
}
// * * * * * * * * * * * * * * * * * * * * * * * * * * * * * * * * * * * * * //

dimensions      [0 0 0 1 0 0 0];

internalField   nonuniform List<scalar> 
3200
(
321.276
321.668
322.169
322.715
323.277
323.829
324.338
324.768
325.081
325.246
325.246
325.081
324.768
324.338
323.829
323.277
322.715
322.169
321.668
321.276
318.525
318.857
319.289
319.761
320.247
320.725
321.165
321.536
321.807
321.95
321.95
321.807
321.536
321.165
320.725
320.247
319.761
319.289
318.857
318.525
315.738
316.013
316.377
316.776
317.187
317.59
317.962
318.276
318.504
318.624
318.624
318.504
318.276
317.962
317.59
317.187
316.776
316.377
316.013
315.738
312.921
313.142
313.439
313.765
314.101
314.43
314.734
314.99
315.176
315.274
315.274
315.176
314.99
314.734
314.43
314.101
313.765
313.439
313.142
312.921
310.078
310.248
310.478
310.732
310.993
311.249
311.485
311.683
311.828
311.904
311.904
311.828
311.683
311.485
311.249
310.993
310.732
310.478
310.248
310.078
307.216
307.337
307.501
307.682
307.868
308.051
308.219
308.361
308.464
308.519
308.519
308.464
308.361
308.219
308.051
307.868
307.682
307.501
307.337
307.216
304.34
304.412
304.51
304.619
304.731
304.841
304.942
305.027
305.089
305.121
305.121
305.089
305.027
304.942
304.841
304.731
304.619
304.51
304.412
304.34
301.456
301.48
301.513
301.549
301.587
301.623
301.657
301.686
301.707
301.718
301.718
301.707
301.686
301.657
301.623
301.587
301.549
301.513
301.48
301.456
321.337
321.726
322.222
322.763
323.319
323.865
324.368
324.792
325.101
325.265
325.265
325.101
324.792
324.368
323.865
323.319
322.763
322.222
321.726
321.337
318.578
318.907
319.335
319.803
320.284
320.756
321.191
321.558
321.825
321.966
321.966
321.825
321.558
321.191
320.756
320.284
319.803
319.335
318.907
318.578
315.783
316.056
316.417
316.812
317.219
317.617
317.985
318.294
318.52
318.638
318.638
318.52
318.294
317.985
317.617
317.219
316.812
316.417
316.056
315.783
312.957
313.177
313.471
313.794
314.127
314.453
314.753
315.005
315.189
315.286
315.286
315.189
315.005
314.753
314.453
314.127
313.794
313.471
313.177
312.957
310.107
310.276
310.504
310.755
311.013
311.266
311.499
311.696
311.838
311.914
311.914
311.838
311.696
311.499
311.266
311.013
310.755
310.504
310.276
310.107
307.237
307.356
307.519
307.698
307.882
308.063
308.23
308.37
308.472
308.525
308.525
308.472
308.37
308.23
308.063
307.882
307.698
307.519
307.356
307.237
304.352
304.424
304.521
304.629
304.74
304.848
304.948
305.032
305.093
305.126
305.126
305.093
305.032
304.948
304.848
304.74
304.629
304.521
304.424
304.352
301.46
301.484
301.516
301.552
301.59
301.626
301.659
301.688
301.708
301.719
301.719
301.708
301.688
301.659
301.626
301.59
301.552
301.516
301.484
301.46
321.458
321.84
322.328
322.859
323.404
323.938
324.429
324.844
325.145
325.304
325.304
325.145
324.844
324.429
323.938
323.404
322.859
322.328
321.84
321.458
318.683
319.007
319.428
319.887
320.359
320.82
321.246
321.603
321.864
322.001
322.001
321.864
321.603
321.246
320.82
320.359
319.887
319.428
319.007
318.683
315.872
316.141
316.495
316.883
317.282
317.672
318.031
318.333
318.553
318.669
318.669
318.553
318.333
318.031
317.672
317.282
316.883
316.495
316.141
315.872
313.031
313.247
313.536
313.853
314.179
314.498
314.791
315.038
315.217
315.311
315.311
315.217
315.038
314.791
314.498
314.179
313.853
313.536
313.247
313.031
310.164
310.33
310.554
310.801
311.054
311.302
311.53
311.721
311.86
311.934
311.934
311.86
311.721
311.53
311.302
311.054
310.801
310.554
310.33
310.164
307.278
307.395
307.555
307.731
307.912
308.089
308.251
308.388
308.487
308.54
308.54
308.487
308.388
308.251
308.089
307.912
307.731
307.555
307.395
307.278
304.377
304.447
304.543
304.649
304.757
304.864
304.961
305.043
305.103
305.134
305.134
305.103
305.043
304.961
304.864
304.757
304.649
304.543
304.447
304.377
301.468
301.492
301.524
301.559
301.596
301.631
301.664
301.691
301.711
301.722
301.722
301.711
301.691
301.664
301.631
301.596
301.559
301.524
301.492
301.468
321.64
322.014
322.49
323.006
323.535
324.051
324.526
324.925
325.215
325.368
325.368
325.215
324.925
324.526
324.051
323.535
323.006
322.49
322.014
321.64
318.842
319.158
319.568
320.015
320.473
320.92
321.331
321.676
321.926
322.058
322.058
321.926
321.676
321.331
320.92
320.473
320.015
319.568
319.158
318.842
316.007
316.269
316.615
316.992
317.379
317.757
318.104
318.395
318.607
318.718
318.718
318.607
318.395
318.104
317.757
317.379
316.992
316.615
316.269
316.007
313.141
313.353
313.634
313.943
314.259
314.568
314.851
315.089
315.262
315.353
315.353
315.262
315.089
314.851
314.568
314.259
313.943
313.634
313.353
313.141
310.25
310.412
310.631
310.871
311.117
311.357
311.577
311.762
311.896
311.966
311.966
311.896
311.762
311.577
311.357
311.117
310.871
310.631
310.412
310.25
307.339
307.454
307.61
307.781
307.957
308.128
308.285
308.417
308.513
308.563
308.563
308.513
308.417
308.285
308.128
307.957
307.781
307.61
307.454
307.339
304.414
304.483
304.576
304.679
304.784
304.887
304.982
305.061
305.118
305.149
305.149
305.118
305.061
304.982
304.887
304.784
304.679
304.576
304.483
304.414
301.481
301.504
301.535
301.569
301.605
301.639
301.671
301.697
301.717
301.727
301.727
301.717
301.697
301.671
301.639
301.605
301.569
301.535
301.504
301.481
321.885
322.247
322.707
323.205
323.714
324.209
324.663
325.043
325.319
325.464
325.464
325.319
325.043
324.663
324.209
323.714
323.205
322.707
322.247
321.885
319.055
319.362
319.758
320.189
320.629
321.058
321.45
321.779
322.018
322.143
322.143
322.018
321.779
321.45
321.058
320.629
320.189
319.758
319.362
319.055
316.188
316.442
316.777
317.141
317.513
317.875
318.207
318.484
318.686
318.792
318.792
318.686
318.484
318.207
317.875
317.513
317.141
316.777
316.442
316.188
313.29
313.495
313.767
314.065
314.369
314.665
314.936
315.163
315.327
315.414
315.414
315.327
315.163
314.936
314.665
314.369
314.065
313.767
313.495
313.29
310.366
310.523
310.735
310.966
311.203
311.433
311.643
311.819
311.947
312.014
312.014
311.947
311.819
311.643
311.433
311.203
310.966
310.735
310.523
310.366
307.422
307.534
307.684
307.849
308.018
308.183
308.333
308.459
308.55
308.598
308.598
308.55
308.459
308.333
308.183
308.018
307.849
307.684
307.534
307.422
304.464
304.531
304.621
304.72
304.822
304.92
305.01
305.086
305.141
305.169
305.169
305.141
305.086
305.01
304.92
304.822
304.72
304.621
304.531
304.464
301.497
301.52
301.55
301.583
301.617
301.65
301.68
301.706
301.724
301.734
301.734
301.724
301.706
301.68
301.65
301.617
301.583
301.55
301.52
301.497
322.194
322.543
322.984
323.46
323.945
324.415
324.844
325.203
325.463
325.6
325.6
325.463
325.203
324.844
324.415
323.945
323.46
322.984
322.543
322.194
319.324
319.619
320
320.412
320.831
321.238
321.61
321.92
322.145
322.263
322.263
322.145
321.92
321.61
321.238
320.831
320.412
320
319.619
319.324
316.416
316.661
316.982
317.33
317.685
318.029
318.343
318.605
318.795
318.894
318.894
318.795
318.605
318.343
318.029
317.685
317.33
316.982
316.661
316.416
313.477
313.675
313.936
314.221
314.511
314.792
315.048
315.263
315.417
315.499
315.499
315.417
315.263
315.048
314.792
314.511
314.221
313.936
313.675
313.477
310.512
310.664
310.867
311.088
311.313
311.532
311.731
311.898
312.018
312.081
312.081
312.018
311.898
311.731
311.532
311.313
311.088
310.867
310.664
310.512
307.527
307.634
307.779
307.937
308.098
308.254
308.396
308.515
308.601
308.646
308.646
308.601
308.515
308.396
308.254
308.098
307.937
307.779
307.634
307.527
304.527
304.591
304.678
304.773
304.869
304.963
305.049
305.12
305.171
305.199
305.199
305.171
305.12
305.049
304.963
304.869
304.773
304.678
304.591
304.527
301.519
301.54
301.569
301.601
301.633
301.665
301.693
301.717
301.734
301.743
301.743
301.734
301.717
301.693
301.665
301.633
301.601
301.569
301.54
301.519
322.569
322.902
323.323
323.775
324.233
324.675
325.078
325.413
325.655
325.782
325.782
325.655
325.413
325.078
324.675
324.233
323.775
323.323
322.902
322.569
319.65
319.932
320.295
320.686
321.083
321.466
321.814
322.104
322.314
322.423
322.423
322.314
322.104
321.814
321.466
321.083
320.686
320.295
319.932
319.65
316.693
316.928
317.233
317.564
317.899
318.223
318.517
318.763
318.939
319.032
319.032
318.939
318.763
318.517
318.223
317.899
317.564
317.233
316.928
316.693
313.705
313.893
314.143
314.413
314.687
314.952
315.192
315.393
315.537
315.613
315.613
315.537
315.393
315.192
314.952
314.687
314.413
314.143
313.893
313.705
310.69
310.834
311.028
311.238
311.451
311.657
311.844
312
312.112
312.171
312.171
312.112
312
311.844
311.657
311.451
311.238
311.028
310.834
310.69
307.654
307.756
307.894
308.044
308.197
308.344
308.477
308.588
308.668
308.71
308.71
308.668
308.588
308.477
308.344
308.197
308.044
307.894
307.756
307.654
304.603
304.665
304.747
304.837
304.929
305.017
305.097
305.164
305.212
305.237
305.237
305.212
305.164
305.097
305.017
304.929
304.837
304.747
304.665
304.603
301.544
301.565
301.592
301.622
301.653
301.683
301.71
301.732
301.748
301.756
301.756
301.748
301.732
301.71
301.683
301.653
301.622
301.592
301.565
301.544
323.011
323.328
323.726
324.152
324.581
324.995
325.369
325.68
325.903
326.02
326.02
325.903
325.68
325.369
324.995
324.581
324.152
323.726
323.328
323.011
320.035
320.303
320.647
321.015
321.387
321.745
322.069
322.338
322.531
322.632
322.632
322.531
322.338
322.069
321.745
321.387
321.015
320.647
320.303
320.035
317.02
317.243
317.532
317.844
318.158
318.461
318.735
318.962
319.125
319.211
319.211
319.125
318.962
318.735
318.461
318.158
317.844
317.532
317.243
317.02
313.973
314.152
314.388
314.643
314.9
315.148
315.371
315.557
315.691
315.76
315.76
315.691
315.557
315.371
315.148
314.9
314.643
314.388
314.152
313.973
310.899
311.036
311.219
311.417
311.618
311.81
311.984
312.128
312.232
312.286
312.286
312.232
312.128
311.984
311.81
311.618
311.417
311.219
311.036
310.899
307.804
307.901
308.032
308.173
308.316
308.453
308.578
308.681
308.755
308.794
308.794
308.755
308.681
308.578
308.453
308.316
308.173
308.032
307.901
307.804
304.694
304.752
304.83
304.915
305.001
305.083
305.158
305.22
305.264
305.287
305.287
305.264
305.22
305.158
305.083
305.001
304.915
304.83
304.752
304.694
301.574
301.594
301.62
301.648
301.677
301.705
301.73
301.751
301.766
301.773
301.773
301.766
301.751
301.73
301.705
301.677
301.648
301.62
301.594
301.574
323.523
323.822
324.196
324.595
324.995
325.379
325.724
326.01
326.215
326.322
326.322
326.215
326.01
325.724
325.379
324.995
324.595
324.196
323.822
323.523
320.48
320.733
321.057
321.402
321.748
322.08
322.379
322.627
322.804
322.897
322.897
322.804
322.627
322.379
322.08
321.748
321.402
321.057
320.733
320.48
317.398
317.609
317.881
318.173
318.466
318.747
319
319.209
319.358
319.437
319.437
319.358
319.209
319
318.747
318.466
318.173
317.881
317.609
317.398
314.283
314.453
314.675
314.913
315.153
315.383
315.589
315.76
315.883
315.947
315.947
315.883
315.76
315.589
315.383
315.153
314.913
314.675
314.453
314.283
311.141
311.271
311.443
311.629
311.815
311.994
312.154
312.287
312.382
312.432
312.432
312.382
312.287
312.154
311.994
311.815
311.629
311.443
311.271
311.141
307.977
308.069
308.192
308.324
308.458
308.585
308.7
308.795
308.863
308.898
308.898
308.863
308.795
308.7
308.585
308.458
308.324
308.192
308.069
307.977
304.798
304.853
304.926
305.006
305.086
305.162
305.231
305.288
305.329
305.351
305.351
305.329
305.288
305.231
305.162
305.086
305.006
304.926
304.853
304.798
301.609
301.628
301.652
301.679
301.706
301.731
301.755
301.774
301.787
301.795
301.795
301.787
301.774
301.755
301.731
301.706
301.679
301.652
301.628
301.609
324.105
324.387
324.737
325.108
325.479
325.832
326.149
326.41
326.596
326.693
326.693
326.596
326.41
326.149
325.832
325.479
325.108
324.737
324.387
324.105
320.987
321.225
321.528
321.849
322.17
322.476
322.75
322.976
323.138
323.222
323.222
323.138
322.976
322.75
322.476
322.17
321.849
321.528
321.225
320.987
317.829
318.027
318.281
318.553
318.825
319.084
319.316
319.507
319.643
319.714
319.714
319.643
319.507
319.316
319.084
318.825
318.553
318.281
318.027
317.829
314.637
314.796
315.004
315.226
315.448
315.66
315.849
316.006
316.117
316.175
316.175
316.117
316.006
315.849
315.66
315.448
315.226
315.004
314.796
314.637
311.417
311.539
311.7
311.873
312.045
312.21
312.358
312.479
312.566
312.611
312.611
312.566
312.479
312.358
312.21
312.045
311.873
311.7
311.539
311.417
308.175
308.261
308.376
308.499
308.623
308.74
308.846
308.932
308.994
309.027
309.027
308.994
308.932
308.846
308.74
308.623
308.499
308.376
308.261
308.175
304.917
304.968
305.037
305.111
305.185
305.256
305.319
305.371
305.408
305.428
305.428
305.408
305.371
305.319
305.256
305.185
305.111
305.037
304.968
304.917
301.649
301.666
301.689
301.714
301.739
301.763
301.784
301.801
301.814
301.82
301.82
301.814
301.801
301.784
301.763
301.739
301.714
301.689
301.666
301.649
324.761
325.024
325.35
325.694
326.036
326.359
326.648
326.885
327.054
327.142
327.142
327.054
326.885
326.648
326.359
326.036
325.694
325.35
325.024
324.761
321.558
321.781
322.062
322.36
322.656
322.936
323.186
323.392
323.538
323.614
323.614
323.538
323.392
323.186
322.936
322.656
322.36
322.062
321.781
321.558
318.314
318.499
318.736
318.987
319.238
319.475
319.687
319.86
319.984
320.048
320.048
319.984
319.86
319.687
319.475
319.238
318.987
318.736
318.499
318.314
315.035
315.183
315.377
315.583
315.788
315.982
316.155
316.297
316.398
316.45
316.45
316.398
316.297
316.155
315.982
315.788
315.583
315.377
315.183
315.035
311.727
311.841
311.991
312.151
312.311
312.461
312.596
312.707
312.785
312.826
312.826
312.785
312.707
312.596
312.461
312.311
312.151
311.991
311.841
311.727
308.397
308.477
308.584
308.699
308.813
308.92
309.017
309.095
309.152
309.181
309.181
309.152
309.095
309.017
308.92
308.813
308.699
308.584
308.477
308.397
305.05
305.098
305.163
305.231
305.3
305.364
305.422
305.469
305.503
305.521
305.521
305.503
305.469
305.422
305.364
305.3
305.231
305.163
305.098
305.05
301.694
301.71
301.732
301.755
301.777
301.799
301.819
301.834
301.846
301.852
301.852
301.846
301.834
301.819
301.799
301.777
301.755
301.732
301.71
301.694
325.491
325.736
326.039
326.355
326.669
326.964
327.226
327.44
327.592
327.671
327.671
327.592
327.44
327.226
326.964
326.669
326.355
326.039
325.736
325.491
322.194
322.401
322.662
322.936
323.208
323.463
323.691
323.876
324.008
324.076
324.076
324.008
323.876
323.691
323.463
323.208
322.936
322.662
322.401
322.194
318.854
319.026
319.246
319.478
319.707
319.924
320.116
320.273
320.384
320.442
320.442
320.384
320.273
320.116
319.924
319.707
319.478
319.246
319.026
318.854
315.478
315.616
315.796
315.985
316.173
316.35
316.508
316.636
316.727
316.775
316.775
316.727
316.636
316.508
316.35
316.173
315.985
315.796
315.616
315.478
312.072
312.179
312.318
312.465
312.612
312.749
312.872
312.972
313.042
313.079
313.079
313.042
312.972
312.872
312.749
312.612
312.465
312.318
312.179
312.072
308.644
308.719
308.818
308.924
309.028
309.127
309.214
309.285
309.336
309.362
309.362
309.336
309.285
309.214
309.127
309.028
308.924
308.818
308.719
308.644
305.199
305.244
305.303
305.367
305.429
305.488
305.541
305.584
305.614
305.63
305.63
305.614
305.584
305.541
305.488
305.429
305.367
305.303
305.244
305.199
301.744
301.759
301.779
301.8
301.821
301.841
301.858
301.873
301.883
301.888
301.888
301.883
301.873
301.858
301.841
301.821
301.8
301.779
301.759
301.744
326.297
326.524
326.804
327.095
327.381
327.649
327.886
328.079
328.216
328.286
328.286
328.216
328.079
327.886
327.649
327.381
327.095
326.804
326.524
326.297
322.895
323.087
323.328
323.58
323.828
324.061
324.266
324.433
324.552
324.613
324.613
324.552
324.433
324.266
324.061
323.828
323.58
323.328
323.087
322.895
319.449
319.609
319.812
320.025
320.235
320.432
320.606
320.747
320.847
320.899
320.899
320.847
320.747
320.606
320.432
320.235
320.025
319.812
319.609
319.449
315.967
316.095
316.261
316.435
316.607
316.768
316.91
317.026
317.108
317.15
317.15
317.108
317.026
316.91
316.768
316.607
316.435
316.261
316.095
315.967
312.454
312.552
312.681
312.816
312.95
313.075
313.186
313.276
313.34
313.373
313.373
313.34
313.276
313.186
313.075
312.95
312.816
312.681
312.552
312.454
308.917
308.987
309.078
309.175
309.271
309.36
309.439
309.504
309.549
309.573
309.573
309.549
309.504
309.439
309.36
309.271
309.175
309.078
308.987
308.917
305.363
305.405
305.46
305.518
305.575
305.629
305.676
305.715
305.742
305.757
305.757
305.742
305.715
305.676
305.629
305.575
305.518
305.46
305.405
305.363
301.799
301.813
301.831
301.851
301.87
301.888
301.904
301.917
301.926
301.931
301.931
301.926
301.917
301.904
301.888
301.87
301.851
301.831
301.813
301.799
327.179
327.389
327.646
327.913
328.173
328.416
328.63
328.803
328.926
328.989
328.989
328.926
328.803
328.63
328.416
328.173
327.913
327.646
327.389
327.179
323.662
323.84
324.062
324.293
324.519
324.73
324.915
325.065
325.171
325.226
325.226
325.171
325.065
324.915
324.73
324.519
324.293
324.062
323.84
323.662
320.101
320.248
320.435
320.631
320.822
321
321.157
321.284
321.374
321.42
321.42
321.374
321.284
321.157
321
320.822
320.631
320.435
320.248
320.101
316.502
316.62
316.773
316.932
317.089
317.235
317.363
317.467
317.54
317.578
317.578
317.54
317.467
317.363
317.235
317.089
316.932
316.773
316.62
316.502
312.871
312.962
313.08
313.204
313.326
313.44
313.539
313.62
313.677
313.707
313.707
313.677
313.62
313.539
313.44
313.326
313.204
313.08
312.962
312.871
309.215
309.28
309.364
309.453
309.54
309.621
309.693
309.75
309.791
309.812
309.812
309.791
309.75
309.693
309.621
309.54
309.453
309.364
309.28
309.215
305.543
305.581
305.632
305.685
305.737
305.786
305.829
305.864
305.888
305.901
305.901
305.888
305.864
305.829
305.786
305.737
305.685
305.632
305.581
305.543
301.859
301.872
301.889
301.907
301.924
301.941
301.955
301.967
301.975
301.979
301.979
301.975
301.967
301.955
301.941
301.924
301.907
301.889
301.872
301.859
328.136
328.33
328.566
328.81
329.046
329.266
329.458
329.614
329.723
329.779
329.779
329.723
329.614
329.458
329.266
329.046
328.81
328.566
328.33
328.136
324.495
324.659
324.863
325.074
325.279
325.469
325.636
325.771
325.865
325.914
325.914
325.865
325.771
325.636
325.469
325.279
325.074
324.863
324.659
324.495
320.808
320.944
321.116
321.294
321.468
321.629
321.77
321.884
321.964
322.005
322.005
321.964
321.884
321.77
321.629
321.468
321.294
321.116
320.944
320.808
317.082
317.191
317.331
317.477
317.619
317.751
317.867
317.96
318.025
318.059
318.059
318.025
317.96
317.867
317.751
317.619
317.477
317.331
317.191
317.082
313.323
313.407
313.515
313.629
313.74
313.842
313.932
314.005
314.056
314.082
314.082
314.056
314.005
313.932
313.842
313.74
313.629
313.515
313.407
313.323
309.539
309.598
309.676
309.757
309.836
309.909
309.974
310.026
310.062
310.081
310.081
310.062
310.026
309.974
309.909
309.836
309.757
309.676
309.598
309.539
305.737
305.773
305.819
305.868
305.915
305.959
305.998
306.029
306.051
306.062
306.062
306.051
306.029
305.998
305.959
305.915
305.868
305.819
305.773
305.737
301.924
301.936
301.952
301.968
301.984
301.999
302.012
302.022
302.03
302.033
302.033
302.03
302.022
302.012
301.999
301.984
301.968
301.952
301.936
301.924
329.165
329.343
329.56
329.782
329.996
330.194
330.367
330.506
330.603
330.654
330.654
330.603
330.506
330.367
330.194
329.996
329.782
329.56
329.343
329.165
325.389
325.54
325.727
325.919
326.105
326.277
326.427
326.547
326.632
326.675
326.675
326.632
326.547
326.427
326.277
326.105
325.919
325.727
325.54
325.389
321.566
321.691
321.849
322.011
322.169
322.314
322.441
322.543
322.615
322.652
322.652
322.615
322.543
322.441
322.314
322.169
322.011
321.849
321.691
321.566
317.703
317.804
317.932
318.065
318.194
318.313
318.417
318.501
318.559
318.589
318.589
318.559
318.501
318.417
318.313
318.194
318.065
317.932
317.804
317.703
313.807
313.885
313.984
314.088
314.188
314.281
314.362
314.426
314.472
314.495
314.495
314.472
314.426
314.362
314.281
314.188
314.088
313.984
313.885
313.807
309.886
309.94
310.011
310.085
310.157
310.223
310.281
310.327
310.36
310.377
310.377
310.36
310.327
310.281
310.223
310.157
310.085
310.011
309.94
309.886
305.945
305.978
306.021
306.065
306.108
306.148
306.183
306.211
306.23
306.24
306.24
306.23
306.211
306.183
306.148
306.108
306.065
306.021
305.978
305.945
301.994
302.005
302.019
302.034
302.049
302.062
302.074
302.083
302.09
302.093
302.093
302.09
302.083
302.074
302.062
302.049
302.034
302.019
302.005
301.994
330.253
330.417
330.615
330.817
331.012
331.191
331.346
331.47
331.557
331.602
331.602
331.557
331.47
331.346
331.191
331.012
330.817
330.615
330.417
330.253
326.333
326.472
326.643
326.818
326.987
327.142
327.276
327.384
327.46
327.498
327.498
327.46
327.384
327.276
327.142
326.987
326.818
326.643
326.472
326.333
322.365
322.48
322.625
322.773
322.916
323.047
323.161
323.252
323.316
323.349
323.349
323.316
323.252
323.161
323.047
322.916
322.773
322.625
322.48
322.365
318.357
318.45
318.568
318.689
318.806
318.913
319.007
319.082
319.134
319.161
319.161
319.134
319.082
319.007
318.913
318.806
318.689
318.568
318.45
318.357
314.316
314.387
314.479
314.573
314.664
314.748
314.82
314.879
314.919
314.94
314.94
314.919
314.879
314.82
314.748
314.664
314.573
314.479
314.387
314.316
310.249
310.3
310.365
310.432
310.497
310.557
310.609
310.651
310.68
310.695
310.695
310.68
310.651
310.609
310.557
310.497
310.432
310.365
310.3
310.249
306.164
306.194
306.233
306.274
306.313
306.349
306.38
306.405
306.422
306.431
306.431
306.422
306.405
306.38
306.349
306.313
306.274
306.233
306.194
306.164
302.068
302.078
302.091
302.104
302.117
302.129
302.14
302.148
302.154
302.157
302.157
302.154
302.148
302.14
302.129
302.117
302.104
302.091
302.078
302.068
331.371
331.522
331.703
331.888
332.065
332.226
332.366
332.477
332.555
332.595
332.595
332.555
332.477
332.366
332.226
332.065
331.888
331.703
331.522
331.371
327.298
327.426
327.583
327.743
327.896
328.036
328.157
328.254
328.322
328.357
328.357
328.322
328.254
328.157
328.036
327.896
327.743
327.583
327.426
327.298
323.179
323.285
323.417
323.553
323.683
323.801
323.904
323.986
324.044
324.073
324.073
324.044
323.986
323.904
323.801
323.683
323.553
323.417
323.285
323.179
319.021
319.106
319.214
319.325
319.432
319.529
319.613
319.68
319.727
319.751
319.751
319.727
319.68
319.613
319.529
319.432
319.325
319.214
319.106
319.021
314.831
314.897
314.98
315.067
315.15
315.225
315.291
315.343
315.38
315.399
315.399
315.38
315.343
315.291
315.225
315.15
315.067
314.98
314.897
314.831
310.617
310.663
310.723
310.784
310.844
310.898
310.945
310.982
311.008
311.022
311.022
311.008
310.982
310.945
310.898
310.844
310.784
310.723
310.663
310.617
306.384
306.412
306.448
306.485
306.52
306.553
306.581
306.604
306.619
306.627
306.627
306.619
306.604
306.581
306.553
306.52
306.485
306.448
306.412
306.384
302.141
302.151
302.163
302.175
302.187
302.198
302.207
302.215
302.22
302.223
302.223
302.22
302.215
302.207
302.198
302.187
302.175
302.163
302.151
302.141
332.445
332.584
332.751
332.921
333.083
333.23
333.357
333.458
333.528
333.564
333.564
333.528
333.458
333.357
333.23
333.083
332.921
332.751
332.584
332.445
328.214
328.332
328.476
328.624
328.764
328.892
329.002
329.09
329.151
329.183
329.183
329.151
329.09
329.002
328.892
328.764
328.624
328.476
328.332
328.214
323.943
324.041
324.163
324.288
324.407
324.515
324.609
324.683
324.735
324.762
324.762
324.735
324.683
324.609
324.515
324.407
324.288
324.163
324.041
323.943
319.638
319.717
319.817
319.919
320.017
320.106
320.183
320.244
320.286
320.308
320.308
320.286
320.244
320.183
320.106
320.017
319.919
319.817
319.717
319.638
315.306
315.367
315.445
315.524
315.6
315.67
315.73
315.777
315.81
315.827
315.827
315.81
315.777
315.73
315.67
315.6
315.524
315.445
315.367
315.306
310.954
310.996
311.052
311.109
311.163
311.213
311.256
311.29
311.313
311.326
311.326
311.313
311.29
311.256
311.213
311.163
311.109
311.052
310.996
310.954
306.586
306.611
306.644
306.679
306.711
306.741
306.767
306.787
306.802
306.809
306.809
306.802
306.787
306.767
306.741
306.711
306.679
306.644
306.611
306.586
302.209
302.217
302.228
302.24
302.251
302.261
302.269
302.276
302.281
302.283
302.283
302.281
302.276
302.269
302.261
302.251
302.24
302.228
302.217
302.209
333.282
333.414
333.571
333.73
333.881
334.018
334.136
334.23
334.295
334.329
334.329
334.295
334.23
334.136
334.018
333.881
333.73
333.571
333.414
333.282
328.901
329.013
329.149
329.287
329.419
329.539
329.642
329.724
329.781
329.81
329.81
329.781
329.724
329.642
329.539
329.419
329.287
329.149
329.013
328.901
324.498
324.591
324.707
324.824
324.936
325.038
325.126
325.196
325.244
325.269
325.269
325.244
325.196
325.126
325.038
324.936
324.824
324.707
324.591
324.498
320.076
320.151
320.246
320.342
320.434
320.518
320.59
320.647
320.687
320.708
320.708
320.687
320.647
320.59
320.518
320.434
320.342
320.246
320.151
320.076
315.638
315.695
315.769
315.844
315.916
315.981
316.038
316.082
316.113
316.129
316.129
316.113
316.082
316.038
315.981
315.916
315.844
315.769
315.695
315.638
311.185
311.226
311.278
311.332
311.384
311.431
311.471
311.503
311.525
311.537
311.537
311.525
311.503
311.471
311.431
311.384
311.332
311.278
311.226
311.185
306.723
306.747
306.779
306.811
306.842
306.87
306.895
306.914
306.927
306.934
306.934
306.927
306.914
306.895
306.87
306.842
306.811
306.779
306.747
306.723
302.254
302.262
302.273
302.284
302.294
302.304
302.312
302.318
302.323
302.325
302.325
302.323
302.318
302.312
302.304
302.294
302.284
302.273
302.262
302.254
)
;

boundaryField
{
    hotSide
    {
        type            fixedGradient;
        gradient        nonuniform List<scalar> 
400
(
216.813
217.43
218.668
220.535
223.043
226.206
230.041
234.566
239.801
245.763
252.472
259.943
268.194
277.238
287.088
297.754
309.244
321.567
334.728
348.732
221.973
222.549
223.707
225.457
227.816
230.801
234.436
238.744
243.749
249.475
255.945
263.18
271.2
280.02
289.655
300.118
311.417
323.561
336.556
350.406
227.558
228.085
229.148
230.759
232.94
235.717
239.118
243.173
247.913
253.369
259.569
266.538
274.299
282.871
292.272
302.513
313.607
325.56
338.379
352.066
233.475
233.945
234.896
236.347
238.324
240.861
243.994
247.763
252.207
257.361
263.262
269.939
277.42
285.726
294.876
304.885
315.762
327.517
340.153
353.675
239.558
239.964
240.791
242.061
243.811
246.082
248.922
252.378
256.499
261.33
266.912
273.281
280.468
288.498
297.391
307.161
317.82
329.375
341.831
355.189
245.554
245.892
246.585
247.664
249.172
251.163
253.695
256.826
260.614
265.113
270.372
276.431
283.326
291.082
299.721
309.26
319.708
331.072
343.355
356.558
251.119
251.389
251.949
252.837
254.107
255.822
258.052
260.867
264.334
268.517
273.468
279.235
285.855
293.358
301.765
311.091
321.347
332.539
344.667
357.732
255.842
256.051
256.491
257.208
258.265
259.734
261.697
264.234
267.42
271.327
276.013
281.529
287.916
295.204
303.415
312.564
322.661
333.71
345.712
358.664
259.299
259.46
259.809
260.395
261.289
262.573
264.334
266.661
269.638
273.339
277.829
283.161
289.377
296.508
304.577
313.598
323.581
334.528
346.439
359.311
261.131
261.266
261.565
262.08
262.886
264.069
265.721
267.935
270.799
274.391
278.776
284.01
290.135
297.183
305.178
314.132
324.055
334.948
346.812
359.642
261.131
261.266
261.565
262.08
262.886
264.069
265.721
267.935
270.799
274.391
278.776
284.01
290.135
297.183
305.178
314.132
324.055
334.948
346.812
359.642
259.299
259.46
259.809
260.395
261.289
262.573
264.334
266.661
269.638
273.339
277.829
283.161
289.377
296.508
304.577
313.598
323.581
334.528
346.439
359.311
255.842
256.051
256.491
257.208
258.265
259.734
261.697
264.234
267.42
271.327
276.013
281.529
287.916
295.204
303.415
312.564
322.661
333.71
345.712
358.664
251.119
251.389
251.949
252.837
254.107
255.822
258.052
260.867
264.334
268.517
273.468
279.235
285.855
293.358
301.765
311.091
321.347
332.539
344.667
357.732
245.554
245.892
246.585
247.664
249.172
251.163
253.695
256.826
260.614
265.113
270.372
276.431
283.326
291.082
299.721
309.26
319.708
331.072
343.355
356.558
239.558
239.964
240.791
242.061
243.811
246.082
248.922
252.378
256.499
261.33
266.912
273.281
280.468
288.498
297.391
307.161
317.82
329.375
341.831
355.189
233.475
233.945
234.896
236.347
238.324
240.861
243.994
247.763
252.207
257.361
263.262
269.939
277.42
285.726
294.876
304.885
315.762
327.517
340.153
353.675
227.558
228.085
229.148
230.759
232.94
235.717
239.118
243.173
247.913
253.369
259.569
266.538
274.299
282.871
292.272
302.513
313.607
325.56
338.379
352.066
221.973
222.549
223.707
225.457
227.816
230.801
234.436
238.744
243.749
249.475
255.945
263.18
271.2
280.02
289.655
300.118
311.417
323.561
336.556
350.406
216.813
217.43
218.668
220.535
223.043
226.206
230.041
234.566
239.801
245.763
252.472
259.943
268.194
277.238
287.088
297.754
309.244
321.567
334.728
348.732
)
;
    }
    coldSide
    {
        type            mixed;
        refValue        uniform 300;
        refGradient     uniform 0;
        valueFraction   uniform 0.991591;
        source          uniform 0;
        value           nonuniform List<scalar> 
400
(
300.012
300.012
300.012
300.012
300.013
300.013
300.013
300.013
300.014
300.014
300.014
300.015
300.015
300.016
300.016
300.017
300.017
300.018
300.019
300.019
300.012
300.012
300.013
300.013
300.013
300.013
300.013
300.013
300.014
300.014