/*--------------------------------*- C++ -*----------------------------------*\
| =========                 |                                                 |
| \\      /  F ield         | OpenFOAM: The Open Source CFD Toolbox           |
|  \\    /   O peration     | Version:  2212                                  |
|   \\  /    A nd           | Website:  www.openfoam.com                      |
|    \\/     M anipulation  |                                                 |
\*---------------------------------------------------------------------------*/
FoamFile
{
    version     2.0;
    format      ascii;
    arch        "LSB;label=32;scalar=64";
    class       volScalarField;
    location    "0";
    object      T;
}
// * * * * * * * * * * * * * * * * * * * * * * * * * * * * * * * * * * * * * //

dimensions      [0 0 0 1 0 0 0];

internalField   nonuniform List<scalar> 
3200
(
320.726
320.459
320.088
319.809
320.089
320.247
320.601
320.794
321.057
321.089
321.271
321.047
320.879
320.449
319.971
319.649
319.094
319.32
319.54
319.913
317.917
317.722
317.41
317.165
317.421
317.539
317.853
318.013
318.244
318.294
318.435
318.235
318.107
317.702
317.315
317.011
316.528
316.725
316.906
317.216
315.137
314.987
314.732
314.527
314.728
314.836
315.099
315.205
315.443
315.486
315.603
315.44
315.349
314.965
314.662
314.392
313.973
314.136
314.277
314.567
312.365
312.246
312.057
311.895
312.038
312.137
312.358
312.393
312.649
312.67
312.766
312.637
312.562
312.248
311.98
311.79
311.451
311.542
311.669
311.922
309.597
309.517
309.377
309.279
309.364
309.43
309.598
309.592
309.848
309.878
309.959
309.83
309.787
309.527
309.325
309.183
308.914
308.96
309.055
309.266
306.821
306.795
306.698
306.628
306.681
306.725
306.877
306.841
307.045
307.087
307.133
307.017
307.006
306.792
306.662
306.556
306.374
306.391
306.455
306.613
304.085
304.085
304.024
303.99
304.006
304.023
304.147
304.107
304.234
304.268
304.291
304.224
304.211
304.065
304.008
303.938
303.834
303.838
303.888
303.969
301.372
301.374
301.353
301.347
301.347
301.344
301.387
301.373
301.417
301.436
301.435
301.427
301.424
301.353
301.346
301.311
301.282
301.285
301.307
301.336
320.768
320.427
320.099
319.944
320.133
320.459
320.756
320.93
321.331
321.372
321.486
321.369
321.002
320.613
320.117
319.781
319.41
319.349
319.517
319.997
317.946
317.707
317.437
317.28
317.464
317.701
318.003
318.145
318.473
318.541
318.656
318.498
318.21
317.872
317.44
317.133
316.808
316.764
316.899
317.304
315.179
314.997
314.782
314.622
314.778
314.943
315.238
315.362
315.638
315.676
315.804
315.624
315.415
315.108
314.758
314.482
314.202
314.177
314.298
314.623
312.431
312.272
312.108
311.966
312.088
312.215
312.487
312.581
312.831
312.797
312.947
312.775
312.609
312.356
312.061
311.835
311.619
311.613
311.711
311.954
309.667
309.571
309.443
309.308
309.405
309.483
309.719
309.778
309.977
309.958
310.093
309.933
309.825
309.594
309.382
309.205
309.034
309.03
309.119
309.304
306.882
306.854
306.768
306.651
306.696
306.788
306.954
306.989
307.136
307.116
307.236
307.069
307.019
306.854
306.714
306.565
306.466
306.436
306.516
306.659
304.128
304.122
304.059
303.988
304.005
304.081
304.176
304.201
304.293
304.281
304.361
304.234
304.204
304.124
304.03
303.932
303.89
303.868
303.931
303.998
301.382
301.392
301.364
301.334
301.337
301.382
301.405
301.401
301.434
301.426
301.479
301.416
301.408
301.371
301.349
301.312
301.299
301.299
301.317
301.343
320.954
320.564
320.27
320.188
320.307
320.525
320.913
321.271
321.572
321.63
321.791
321.633
321.361
320.832
320.438
319.92
319.643
319.455
319.65
320.158
318.138
317.794
317.579
317.498
317.592
317.779
318.125
318.442
318.711
318.748
318.882
318.751
318.51
318.067
317.697
317.259
316.996
316.851
317.016
317.438
315.336
315.054
314.877
314.823
314.884
315.042
315.349
315.602
315.857
315.872
315.971
315.869
315.662
315.308
314.973
314.597
314.366
314.244
314.373
314.727
312.535
312.33
312.167
312.142
312.193
312.306
312.565
312.773
312.985
312.984
313.046
313.015
312.823
312.559
312.245
311.942
311.758
311.645
311.762
312
309.742
309.614
309.455
309.456
309.523
309.568
309.764
309.932
310.096
310.101
310.121
310.158
309.971
309.804
309.518
309.292
309.136
309.054
309.157
309.321
306.972
306.893
306.752
306.787
306.819
306.849
306.962
307.102
307.209
307.224
307.218
307.247
307.113
307.028
306.802
306.624
306.513
306.469
306.548
306.654
304.185
304.154
304.044
304.073
304.102
304.109
304.177
304.267
304.326
304.353
304.339
304.34
304.262
304.235
304.088
303.969
303.904
303.87
303.926
304
301.395
301.4
301.353
301.364
301.368
301.371
301.393
301.43
301.447
301.459
301.455
301.453
301.431
301.425
301.365
301.324
301.313
301.297
301.315
301.342
321.257
320.826
320.507
320.542
320.491
320.8
321.19
321.575
321.956
322.037
322.031
322.189
321.742
321.312
320.796
320.207
320.049
319.753
319.929
320.204
318.4
318.035
317.78
317.799
317.752
318.032
318.356
318.672
319.035
319.095
319.084
319.235
318.842
318.472
318.023
317.534
317.391
317.096
317.271
317.48
315.546
315.271
315.052
315.053
315.051
315.265
315.527
315.791
316.115
316.151
316.161
316.284
315.927
315.646
315.232
314.826
314.727
314.453
314.599
314.755
312.702
312.5
312.319
312.31
312.342
312.494
312.699
312.935
313.186
313.224
313.231
313.315
313.025
312.799
312.44
312.121
312.064
311.802
311.959
312.028
309.86
309.711
309.594
309.572
309.598
309.707
309.861
310.052
310.25
310.277
310.293
310.351
310.123
309.943
309.656
309.422
309.386
309.167
309.308
309.325
307.06
306.96
306.857
306.842
306.841
306.937
307.019
307.187
307.322
307.339
307.353
307.398
307.23
307.089
306.905
306.751
306.709
306.526
306.653
306.663
304.254
304.184
304.131
304.108
304.091
304.18
304.214
304.311
304.406
304.395
304.403
304.424
304.343
304.243
304.157
304.071
304.04
303.908
304.001
303.994
301.431
301.408
301.377
301.385
301.37
301.397
301.413
301.451
301.48
301.474
301.476
301.487
301.456
301.42
301.401
301.363
301.366
301.31
301.339
301.334
321.475
321.097
320.854
320.846
321.003
321.204
321.655
321.987
322.411
322.531
322.607
322.498
322.295
321.741
321.198
320.621
320.349
320.115
320.211
320.599
318.578
318.283
318.072
318.081
318.218
318.377
318.795
319.06
319.412
319.506
319.598
319.502
319.344
318.871
318.369
317.864
317.637
317.433
317.507
317.812
315.716
315.502
315.289
315.296
315.44
315.573
315.935
316.143
316.445
316.492
316.584
316.486
316.371
315.973
315.548
315.105
314.916
314.757
314.816
315.05
312.843
312.701
312.509
312.513
312.634
312.743
313.054
313.233
313.471
313.496
313.56
313.465
313.404
313.069
312.727
312.369
312.22
312.081
312.11
312.298
309.979
309.886
309.739
309.737
309.816
309.918
310.157
310.3
310.497
310.515
310.558
310.463
310.419
310.182
309.913
309.616
309.524
309.389
309.411
309.545
307.137
307.064
306.968
306.97
307.011
307.084
307.259
307.369
307.52
307.527
307.555
307.468
307.442
307.268
307.08
306.862
306.834
306.698
306.718
306.822
304.293
304.256
304.191
304.18
304.212
304.269
304.365
304.442
304.518
304.527
304.532
304.481
304.483
304.349
304.261
304.128
304.115
304.024
304.029
304.11
301.436
301.424
301.404
301.407
301.409
301.442
301.461
301.494
301.516
301.506
301.512
301.498
301.499
301.456
301.429
301.381
301.385
301.355
301.361
301.38
321.901
321.517
321.295
321.175
321.536
321.631
322.076
322.452
322.778
323.06
323.27
323.087
322.909
322.317
321.713
321.094
320.753
320.613
320.723
320.99
318.958
318.648
318.47
318.349
318.665
318.724
319.132
319.472
319.72
319.985
320.175
320.004
319.866
319.357
318.822
318.258
317.984
317.874
317.95
318.163
316.017
315.788
315.604
315.508
315.816
315.828
316.185
316.48
316.676
316.922
317.068
316.935
316.807
316.374
315.936
315.435
315.234
315.146
315.195
315.366
313.101
312.924
312.75
312.709
312.928
312.938
313.224
313.495
313.661
313.856
313.944
313.865
313.745
313.374
313.061
312.627
312.473
312.412
312.448
312.582
310.187
310.047
309.924
309.9
310.054
310.062
310.303
310.503
310.622
310.782
310.841
310.776
310.691
310.391
310.166
309.814
309.687
309.676
309.696
309.801
307.259
307.178
307.089
307.1
307.186
307.2
307.372
307.515
307.575
307.707
307.719
307.687
307.631
307.436
307.267
307.025
306.924
306.941
306.945
307.001
304.361
304.302
304.253
304.285
304.317
304.33
304.433
304.52
304.54
304.623
304.607
304.628
304.589
304.455
304.353
304.218
304.165
304.178
304.165
304.205
301.463
301.44
301.427
301.445
301.45
301.45
301.485
301.515
301.521
301.55
301.541
301.551
301.541
301.489
301.454
301.409
301.399
301.4
301.387
301.411
322.293
321.935
321.753
321.684
321.922
322.149
322.499
322.943
323.412
323.61
323.762
323.504
323.426
322.828
322.229
321.611
321.154
321.026
321.138
321.341
319.29
319.014
318.849
318.79
319.015
319.205
319.484
319.882
320.295
320.472
320.587
320.37
320.313
319.765
319.267
318.729
318.336
318.22
318.339
318.478
316.29
316.102
315.98
315.909
316.105
316.254
316.468
316.842
317.183
317.302
317.413
317.218
317.193
316.723
316.315
315.862
315.523
315.438
315.507
315.628
313.315
313.214
313.113
313.019
313.179
313.301
313.475
313.786
314.053
314.151
314.24
314.076
314.066
313.673
313.345
312.98
312.705
312.664
312.686
312.792
310.346
310.313
310.213
310.12
310.265
310.347
310.473
310.72
310.913
311.001
311.062
310.941
310.953
310.633
310.382
310.121
309.89
309.872
309.879
309.935
307.382
307.375
307.296
307.245
307.34
307.392
307.485
307.66
307.801
307.857
307.889
307.833
307.825
307.59
307.42
307.232
307.071
307.054
307.045
307.09
304.431
304.426
304.369
304.356
304.415
304.419
304.488
304.596
304.701
304.725
304.729
304.714
304.689
304.546
304.452
304.34
304.261
304.24
304.217
304.242
301.488
301.485
301.475
301.455
301.48
301.474
301.499
301.537
301.582
301.59
301.59
301.586
301.57
301.527
301.502
301.44
301.431
301.425
301.402
301.425
322.907
322.5
322.283
322.289
322.384
322.786
323.165
323.527
323.935
324.107
324.284
324.021
323.765
323.273
322.702
322.119
321.762
321.538
321.644
321.853
319.829
319.487
319.307
319.338
319.396
319.761
320.078
320.396
320.747
320.918
321.043
320.805
320.598
320.19
319.682
319.161
318.849
318.679
318.755
318.916
316.762
316.485
316.348
316.382
316.418
316.712
317.003
317.269
317.568
317.722
317.807
317.596
317.445
317.115
316.662
316.219
315.949
315.831
315.843
316
313.711
313.455
313.384
313.415
313.445
313.662
313.896
314.125
314.386
314.508
314.602
314.371
314.297
313.998
313.647
313.279
313.037
312.939
312.939
313.094
310.657
310.454
310.436
310.438
310.452
310.629
310.819
310.977
311.201
311.296
311.383
311.191
311.156
310.896
310.629
310.34
310.144
310.077
310.061
310.175
307.624
307.46
307.468
307.469
307.47
307.6
307.725
307.833
307.997
308.078
308.155
308.003
307.994
307.799
307.602
307.38
307.245
307.221
307.19
307.261
304.587
304.468
304.502
304.488
304.473
304.566
304.66
304.696
304.81
304.846
304.916
304.823
304.801
304.686
304.58
304.431
304.335
304.346
304.334
304.358
301.547
301.491
301.512
301.505
301.499
301.521
301.557
301.569
301.609
301.62
301.653
301.624
301.614
301.574
301.551
301.478
301.444
301.455
301.459
301.454
323.591
323.128
322.913
322.779
323.08
323.332
323.74
324.067
324.324
324.703
324.825
324.586
324.306
323.736
323.242
322.702
322.354
322.094
322.154
322.351
320.403
320.056
319.861
319.75
320.009
320.239
320.611
320.887
321.095
321.429
321.52
321.289
321.072
320.555
320.163
319.671
319.407
319.161
319.198
319.35
317.223
316.993
316.804
316.703
316.929
317.122
317.452
317.702
317.872
318.148
318.231
318.003
317.838
317.398
317.082
316.637
316.432
316.203
316.233
316.348
314.091
313.918
313.746
313.667
313.84
314.019
314.292
314.528
314.634
314.851
314.921
314.745
314.623
314.267
313.981
313.637
313.437
313.243
313.265
313.378
310.962
310.804
310.699
310.639
310.748
310.894
311.138
311.338
311.401
311.543
311.599
311.48
311.396
311.138
310.883
310.594
310.444
310.296
310.323
310.432
307.83
307.715
307.661
307.624
307.663
307.785
307.948
308.132
308.171
308.245
308.286
308.211
308.176
307.987
307.78
307.55
307.438
307.353
307.366
307.458
304.701
304.645
304.598
304.57
304.593
304.693
304.774
304.883
304.906
304.948
304.968
304.924
304.916
304.798
304.686
304.525
304.456
304.408
304.42
304.476
301.566
301.564
301.538
301.533
301.533
301.58
301.606
301.639
301.635
301.656
301.665
301.651
301.655
301.596
301.574
301.518
301.488
301.474
301.472
301.506
324.225
323.788
323.485
323.497
323.658
323.923
324.323
324.638
324.739
325.188
325.358
325.103
324.76
324.31
323.736
323.294
322.872
322.779
322.664
322.878
320.984
320.611
320.359
320.36
320.52
320.737
321.109
321.366
321.427
321.832
321.986
321.782
321.451
321.084
320.565
320.2
319.832
319.759
319.664
319.809
317.763
317.462
317.221
317.228
317.365
317.551
317.898
318.101
318.123
318.47
318.607
318.465
318.172
317.859
317.413
317.103
316.794
316.771
316.658
316.753
314.52
314.29
314.093
314.102
314.216
314.365
314.667
314.823
314.836
315.117
315.222
315.143
314.905
314.63
314.263
314.003
313.76
313.748
313.652
313.722
311.297
311.11
310.969
310.989
311.055
311.175
311.418
311.544
311.555
311.766
311.853
311.78
311.62
311.383
311.106
310.872
310.715
310.714
310.615
310.682
308.074
307.941
307.834
307.861
307.905
307.986
308.169
308.24
308.251
308.429
308.481
308.427
308.338
308.131
307.937
307.764
307.678
307.674
307.582
307.63
304.857
304.762
304.699
304.721
304.75
304.804
304.916
304.948
304.937
305.064
305.106
305.074
305.012
304.87
304.774
304.668
304.611
304.621
304.547
304.582
301.623
301.594
301.576
301.576
301.587
301.612
301.636
301.663
301.649
301.698
301.714
301.704
301.668
301.631
301.61
301.565
301.54
301.549
301.516
301.531
324.794
324.408
324.118
323.989
324.133
324.362
324.648
325.014
325.279
325.596
325.761
325.584
325.265
324.735
324.216
323.85
323.49
323.272
323.321
323.427
321.484
321.176
320.897
320.799
320.938
321.11
321.345
321.673
321.916
322.18
322.32
322.184
321.902
321.433
320.996
320.691
320.391
320.184
320.229
320.286
318.179
317.929
317.677
317.615
317.727
317.877
318.068
318.345
318.522
318.749
318.858
318.795
318.54
318.151
317.783
317.518
317.271
317.079
317.117
317.181
314.861
314.676
314.46
314.413
314.508
314.646
314.777
314.997
315.154
315.345
315.433
315.391
315.197
314.852
314.578
314.332
314.15
313.971
314.004
314.058
311.54
311.41
311.251
311.203
311.303
311.402
311.485
311.633
311.817
311.941
312.02
311.996
311.841
311.564
311.34
311.148
311.027
310.877
310.896
310.939
308.232
308.16
308.038
308.008
308.074
308.147
308.188
308.299
308.445
308.531
308.586
308.582
308.487
308.262
308.104
307.971
307.895
307.77
307.783
307.829
304.94
304.887
304.83
304.813
304.84
304.886
304.9
304.978
305.076
305.122
305.158
305.15
305.102
304.959
304.865
304.777
304.752
304.652
304.686
304.717
301.648
301.638
301.616
301.601
301.615
301.64
301.635
301.669
301.692
301.719
301.731
301.727
301.699
301.655
301.62
301.605
301.602
301.564
301.57
301.579
325.387
324.963
324.801
324.586
324.647
324.853
325.149
325.581
325.904
326.051
326.08
326.033
325.764
325.169
324.775
324.402
323.973
323.81
323.801
323.952
321.979
321.643
321.502
321.313
321.372
321.541
321.805
322.2
322.466
322.585
322.595
322.586
322.358
321.843
321.513
321.164
320.793
320.662
320.625
320.759
318.584
318.312
318.19
318.056
318.097
318.229
318.482
318.804
319.015
319.112
319.089
319.111
318.953
318.503
318.207
317.931
317.616
317.517
317.436
317.55
315.197
314.976
314.897
314.775
314.791
314.93
315.136
315.385
315.571
315.649
315.607
315.641
315.511
315.163
314.894
314.684
314.437
314.354
314.258
314.365
311.81
311.654
311.578
311.478
311.506
311.637
311.775
311.969
312.129
312.185
312.126
312.148
312.06
311.814
311.579
311.436
311.262
311.196
311.091
311.198
308.436
308.334
308.283
308.205
308.219
308.326
308.396
308.558
308.658
308.714
308.653
308.664
308.603
308.448
308.278
308.16
308.055
308.008
307.925
308.016
305.065
304.999
304.981
304.932
304.913
304.997
305.041
305.121
305.204
305.238
305.203
305.181
305.168
305.077
304.975
304.901
304.839
304.805
304.756
304.822
301.698
301.668
301.659
301.658
301.644
301.683
301.684
301.717
301.741
301.758
301.743
301.739
301.743
301.705
301.67
301.639
301.625
301.607
301.599
301.617
325.945
325.572
325.286
325.211
325.302
325.451
325.65
326.011
326.352
326.363
326.521
326.409
326.122
325.673
325.221
324.67
324.529
324.344
324.348
324.493
322.472
322.156
321.907
321.849
321.952
322.061
322.233
322.58
322.864
322.851
323.011
322.922
322.666
322.261
321.891
321.401
321.271
321.09
321.125
321.212
319.025
318.754
318.537
318.504
318.604
318.677
318.835
319.143
319.325
319.338
319.484
319.395
319.208
318.849
318.568
318.131
318.009
317.829
317.869
317.927
315.569
315.344
315.175
315.155
315.227
315.288
315.436
315.674
315.816
315.829
315.953
315.887
315.746
315.429
315.204
314.858
314.736
314.585
314.594
314.656
312.121
311.943
311.82
311.79
311.85
311.9
312.025
312.21
312.292
312.32
312.41
312.355
312.275
312.023
311.818
311.571
311.477
311.353
311.336
311.411
308.665
308.525
308.45
308.434
308.442
308.49
308.578
308.75
308.768
308.81
308.848
308.818
308.773
308.587
308.441
308.27
308.18
308.121
308.092
308.171
305.192
305.128
305.095
305.06
305.084
305.112
305.141
305.258
305.259
305.296
305.31
305.291
305.277
305.161
305.068
304.975
304.922
304.886
304.841
304.915
301.738
301.718
301.71
301.704
301.705
301.722
301.722
301.769
301.768
301.774
301.794
301.778
301.767
301.732
301.697
301.67
301.652
301.638
301.621
301.651
326.684
326.198
325.961
325.915
325.822
326.086
326.116
326.577
326.744
326.852
326.851
326.822
326.494
326.121
325.7
325.269
325.021
324.906
324.835
325.059
323.103
322.701
322.515
322.46
322.4
322.629
322.67
323.065
323.179
323.3
323.3
323.251
322.969
322.674
322.298
321.91
321.706
321.613
321.524
321.727
319.531
319.201
319.077
319.003
318.986
319.151
319.208
319.543
319.618
319.755
319.738
319.674
319.447
319.189
318.885
318.536
318.377
318.299
318.213
318.381
315.988
315.724
315.647
315.561
315.539
315.665
315.732
316.002
316.068
316.191
316.151
316.117
315.917
315.712
315.466
315.152
315.051
314.966
314.918
315.035
312.446
312.227
312.198
312.099
312.091
312.179
312.233
312.466
312.528
312.614
312.563
312.544
312.385
312.239
312.035
311.804
311.731
311.65
311.619
311.703
308.892
308.753
308.724
308.634
308.647
308.688
308.725
308.916
308.955
309.026
308.973
308.965
308.844
308.737
308.597
308.448
308.386
308.325
308.305
308.38
305.35
305.278
305.241
305.202
305.204
305.219
305.229
305.363
305.376
305.422
305.387
305.389
305.301
305.254
305.147
305.094
305.053
304.993
305.01
305.049
301.788
301.766
301.762
301.757
301.74
301.756
301.756
301.796
301.796
301.819
301.807
301.811
301.775
301.752
301.723
301.717
301.69
301.68
301.683
301.698
327.288
326.871
326.556
326.366
326.447
326.583
326.704
326.961
327.16
327.287
327.259
327.162
326.821
326.465
326.088
325.731
325.508
325.241
325.319
325.626
323.628
323.282
323.025
322.872
322.929
323.068
323.163
323.375
323.542
323.675
323.646
323.554
323.248
322.931
322.634
322.318
322.141
321.9
321.924
322.202
319.986
319.691
319.501
319.36
319.401
319.521
319.608
319.786
319.92
320.065
320.017
319.946
319.657
319.393
319.176
318.882
318.765
318.536
318.554
318.75
316.349
316.115
315.944
315.86
315.869
315.981
316.048
316.208
316.3
316.445
316.374
316.305
316.086
315.864
315.697
315.451
315.367
315.162
315.178
315.341
312.727
312.533
312.382
312.349
312.35
312.429
312.482
312.608
312.687
312.815
312.735
312.693
312.499
312.326
312.219
312.033
311.943
311.789
311.812
311.937
309.109
308.95
308.834
308.832
308.825
308.878
308.908
309.003
309.063
309.169
309.085
309.057
308.93
308.812
308.728
308.597
308.539
308.428
308.436
308.537
305.482
305.38
305.287
305.299
305.298
305.347
305.329
305.403
305.432
305.523
305.452
305.408
305.357
305.301
305.239
305.16
305.121
305.069
305.065
305.139
301.84
301.791
301.778
301.781
301.779
301.788
301.788
301.809
301.813
301.864
301.833
301.815
301.804
301.78
301.761
301.731
301.717
301.698
301.687
301.716
327.897
327.456
327.21
327.001
326.968
327.06
327.342
327.388
327.532
327.69
327.598
327.464
327.216
326.866
326.59
326.362
326.044
325.916
325.948
326.152
324.177
323.79
323.576
323.411
323.377
323.477
323.701
323.744
323.889
324.017
323.943
323.813
323.583
323.291
323.058
322.858
322.585
322.446
322.492
322.663
320.471
320.094
319.942
319.83
319.78
319.892
320.069
320.146
320.221
320.359
320.277
320.167
319.95
319.688
319.509
319.352
319.125
318.973
319.053
319.199
316.748
316.422
316.31
316.216
316.207
316.295
316.436
316.499
316.544
316.663
316.602
316.513
316.323
316.099
315.972
315.837
315.647
315.51
315.601
315.742
313.003
312.758
312.672
312.613
312.596
312.674
312.783
312.844
312.871
312.958
312.914
312.835
312.711
312.552
312.419
312.334
312.182
312.034
312.151
312.25
309.281
309.105
309.058
309.008
308.98
309.051
309.143
309.196
309.197
309.265
309.229
309.143
309.082
308.999
308.862
308.818
308.694
308.611
308.698
308.761
305.577
305.468
305.442
305.418
305.382
305.439
305.495
305.516
305.527
305.578
305.533
305.505
305.424
305.411
305.309
305.301
305.213
305.17
305.242
305.267
301.874
301.84
301.826
301.819
301.807
301.821
301.84
301.851
301.852
301.878
301.849
301.846
301.815
301.813
301.78
301.786
301.747
301.736
301.751
301.765
328.428
328.074
327.884
327.612
327.574
327.555
327.748
327.866
328.051
328.14
328.148
327.835
327.577
327.248
327.072
326.793
326.496
326.451
326.531
326.839
324.636
324.31
324.16
323.931
323.889
323.874
324.067
324.166
324.337
324.408
324.426
324.157
323.924
323.629
323.487
323.242
322.995
322.919
323.001
323.253
320.859
320.563
320.438
320.251
320.192
320.204
320.367
320.459
320.599
320.67
320.679
320.459
320.277
319.995
319.876
319.687
319.469
319.406
319.468
319.677
317.071
316.818
316.742
316.58
316.512
316.541
316.643
316.748
316.858
316.919
316.913
316.751
316.624
316.371
316.277
316.118
315.923
315.878
315.927
316.07
313.264
313.081
313.022
312.892
312.852
312.883
312.937
313.011
313.127
313.191
313.15
313.055
312.968
312.751
312.666
312.547
312.376
312.357
312.381
312.478
309.479
309.348
309.301
309.213
309.18
309.22
309.241
309.308
309.378
309.448
309.393
309.333
309.296
309.13
309.046
308.987
308.824
308.823
308.848
308.933
305.706
305.621
305.577
305.543
305.496
305.535
305.554
305.591
305.617
305.697
305.649
305.602
305.583
305.51
305.425
305.426
305.303
305.294
305.309
305.365
301.911
301.892
301.87
301.859
301.848
301.852
301.87
301.877
301.872
301.902
301.899
301.878
301.87
301.842
301.818
301.832
301.775
301.769
301.782
301.798
329.098
328.714
328.462
328.23
328.201
328.136
328.3
328.382
328.34
328.376
328.368
328.091
327.954
327.653
327.506
327.361
326.948
326.993
327.098
327.373
325.18
324.902
324.67
324.47
324.431
324.376
324.544
324.641
324.577
324.604
324.593
324.361
324.224
323.985
323.857
323.732
323.349
323.406
323.5
323.726
321.27
321.08
320.876
320.724
320.633
320.645
320.785
320.874
320.806
320.839
320.814
320.623
320.497
320.308
320.194
320.1
319.748
319.82
319.881
320.052
317.364
317.261
317.091
316.944
316.847
316.91
317.017
317.098
317.041
317.078
317.033
316.89
316.781
316.658
316.548
316.451
316.164
316.233
316.254
316.374
313.5
313.442
313.301
313.188
313.096
313.157
313.249
313.318
313.267
313.296
313.246
313.16
313.066
312.971
312.893
312.823
312.549
312.655
312.643
312.724
309.658
309.599
309.5
309.421
309.363
309.404
309.472
309.525
309.492
309.524
309.46
309.397
309.348
309.281
309.215
309.164
308.976
309.032
309.016
309.091
305.801
305.759
305.709
305.668
305.607
305.654
305.7
305.73
305.702
305.736
305.681
305.634
305.627
305.593
305.53
305.517
305.417
305.423
305.414
305.471
301.939
301.937
301.917
301.901
301.863
301.895
301.908
301.92
301.907
301.924
301.892
301.891
301.89
301.868
301.861
301.859
301.823
301.808
301.817
301.833
329.599
329.299
329.059
328.797
328.643
328.761
328.747
328.701
328.817
328.692
328.624
328.544
328.401
328.189
327.975
327.684
327.455
327.564
327.71
327.905
325.636
325.379
325.153
324.975
324.808
324.932
324.914
324.896
324.982
324.85
324.817
324.748
324.613
324.452
324.254
324.003
323.813
323.902
324.022
324.146
321.683
321.487
321.259
321.151
320.977
321.103
321.095
321.087
321.164
321.007
321.006
320.944
320.829
320.704
320.528
320.314
320.159
320.221
320.321
320.409
317.718
317.581
317.389
317.314
317.169
317.262
317.274
317.244
317.331
317.189
317.194
317.111
317.049
316.93
316.805
316.629
316.509
316.535
316.616
316.674
313.764
313.678
313.537
313.468
313.342
313.427
313.453
313.435
313.51
313.363
313.389
313.28
313.252
313.187
313.078
312.941
312.854
312.869
312.906
312.956
309.847
309.754
309.669
309.618
309.541
309.596
309.611
309.623
309.669
309.536
309.577
309.471
309.485
309.42
309.343
309.244
309.18
309.207
309.21
309.262
305.926
305.844
305.818
305.773
305.732
305.747
305.766
305.79
305.809
305.721
305.76
305.677
305.711
305.654
305.617
305.562
305.5
305.546
305.522
305.561
301.994
301.957
301.957
301.935
301.919
301.915
301.924
301.942
301.947
301.92
301.926
301.896
301.921
301.894
301.889
301.859
301.847
301.85
301.844
301.872
330.069
329.775
329.45
329.165
329.088
329.028
328.963
329.018
329.193
329.005
329.001
328.843
328.748
328.526
328.308
328.029
327.868
327.971
327.983
328.232
326.014
325.779
325.497
325.25
325.178
325.15
325.078
325.154
325.301
325.116
325.123
324.992
324.917
324.723
324.528
324.287
324.13
324.244
324.237
324.416
321.98
321.791
321.566
321.346
321.28
321.262
321.204
321.289
321.423
321.247
321.253
321.142
321.089
320.926
320.749
320.549
320.404
320.514
320.5
320.62
317.993
317.836
317.635
317.464
317.394
317.415
317.334
317.447
317.552
317.374
317.376
317.287
317.256
317.14
316.963
316.83
316.682
316.789
316.759
316.844
313.992
313.866
313.718
313.578
313.499
313.561
313.457
313.573
313.675
313.501
313.503
313.426
313.436
313.341
313.19
313.121
312.962
313.057
313.041
313.085
309.994
309.912
309.82
309.698
309.637
309.706
309.584
309.702
309.766
309.632
309.637
309.575
309.622
309.529
309.421
309.382
309.258
309.342
309.332
309.345
305.999
305.96
305.9
305.813
305.769
305.841
305.732
305.825
305.861
305.776
305.789
305.76
305.78
305.73
305.674
305.624
305.56
305.61
305.596
305.616
302.004
302.009
301.98
301.955
301.927
301.969
301.916
301.956
301.962
301.94
301.939
301.931
301.933
301.927
301.908
301.879
301.854
301.876
301.856
301.89
)
;

boundaryField
{
    hotSide
    {
        type            fixedGradient;
        gradient        nonuniform List<scalar> 
400
(
226.886
226.655
227.652
229.844
233.108
237.267
242.131
247.529
253.318
259.389
265.661
272.08
278.609
285.232
291.946
298.76
305.692
312.762
319.989
327.382
218.815
218.688
219.875
222.333
225.914
230.407
235.594
241.285
247.327
253.605
260.038
266.572
273.176
279.835
286.554
293.348
300.243
307.268
314.449
321.799
214.178
214.28
215.676
218.321
222.065
226.699
232.006
237.793
243.904
250.224
256.669
263.187
269.748
276.341
282.972
289.663
296.443
303.345
310.399
317.62
212.756
213.201
214.833
217.605
221.387
225.999
231.248
236.954
242.967
249.174
255.489
261.861
268.26
274.679
281.127
287.627
294.209
300.906
307.749
314.756
213.694
214.549
216.456
219.364
223.162
227.704
232.824
238.363
244.183
250.174
256.253
262.371
268.502
274.642
280.805
287.018
293.312
299.72
306.273
312.993
216.015
217.312
219.539
222.64
226.518
231.042
236.067
241.45
247.062
252.798
258.581
264.369
270.143
275.91
281.693
287.525
293.444
299.486
305.683
312.058
218.911
220.654
223.243
226.612
230.663
235.271
240.297
245.598
251.046
256.538
262.005
267.415
272.766
278.082
283.404
288.779
294.254
299.872
305.668
311.668
221.753
223.925
226.896
230.591
234.906
239.709
244.848
250.169
255.529
260.82
265.978
270.985
275.869
280.682
285.49
290.361
295.357
300.527
305.911
311.536
224.038
226.586
229.919
233.958
238.59
243.667
249.016
254.454
259.809
264.955
269.829
274.437
278.843
283.141
287.43
291.803
296.336
301.085
306.091
311.382
225.36
228.179
231.794
236.123
241.047
246.405
251.997
257.604
263.015
268.074
272.716
276.976
280.961
284.809
288.657
292.616
296.774
301.193
305.911
310.955
225.43
228.36
232.105
236.584
241.675
247.206
252.962
258.695
264.164
269.187
273.696
277.746
281.478
285.06
288.65
292.375
296.328
300.57
305.143
310.068
224.124
226.969
230.647
235.076
240.13
245.637
251.378
257.104
262.572
267.601
272.12
276.183
279.927
283.52
287.121
290.856
294.822
299.083
303.682
308.643
221.533
224.101
227.52
231.707
236.535
241.834
247.397
252.994
258.411
263.486
268.152
272.436
276.441
280.306
284.167
288.143
292.33
296.796
301.587
306.73
217.968
220.11
223.135
226.964
231.469
236.486
241.82
247.268
252.646
257.816
262.706
267.32
271.717
275.996
280.264
284.626
289.171
293.97
299.075
304.518
213.945
215.569
218.142
221.587
225.778
230.548
235.709
241.073
246.471
251.778
256.92
261.877
266.68
271.392
276.096
280.881
285.831
291.018
296.499
302.307
210.176
211.247
213.369
216.471
220.419
225.033
230.116
235.476
240.951
246.417
251.796
257.057
262.21
267.297
272.384
277.55
282.877
288.44
294.299
300.491
207.587
208.12
209.828
212.646
216.424
220.954
226.018
231.413
236.974
242.577
248.143
253.635
259.051
264.422
269.804
275.27
280.904
286.787
292.983
299.531
207.275
207.342
208.686
211.248
214.857
219.284
224.292
229.669
235.248
240.91
246.575
252.203
257.787
263.35
268.939
274.626
280.492
286.624
293.092
299.93
210.208
209.94
210.967
213.235
216.578
220.768
225.572
230.786
236.247
241.839
247.486
253.144
258.803
264.477
270.208
276.057
282.101
288.421
295.082
302.116
216.689
216.232
216.984
218.901
221.849
225.636
230.059
234.938
240.125
245.508
251.015
256.599
262.245
267.96
273.775
279.738
285.913
292.363
299.138
306.262
)
;
    }
    coldSide
    {
        type            mixed;
        refValue        uniform 300;
        refGradient     uniform 0;
        valueFraction   uniform 0.991591;
        source          uniform 0;
        value           nonuniform List<scalar> 
400
(
300.012
300.012
300.012
300.012
300.012
300.012
300.013
300.013
300.013
300.014
300.014
300.014
300.015
300.015
300.015
300.016
300.016
300.016
300.017
300.017
300.012
300.012
300.012
300.012
300.012
300.012
300.012
300.013
300.013
300.013
300.014
300.014
300.014
300.015
300.015
300.015
300.016
300.016