/*--------------------------------*- C++ -*----------------------------------*\
| =========                 |                                                 |
| \\      /  F ield         | OpenFOAM: The Open Source CFD Toolbox           |
|  \\    /   O peration     | Version:  2212                                  |
|   \\  /    A nd           | Website:  www.openfoam.com                      |
|    \\/     M anipulation  |                                                 |
\*---------------------------------------------------------------------------*/
FoamFile
{
    version     2.0;
    format      ascii;
    arch        "LSB;label=32;scalar=64";
    class       volScalarField;
    location    "./ITHACAoutput/true/7.4";
    object      trueState;
}
// * * * * * * * * * * * * * * * * * * * * * * * * * * * * * * * * * * * * * //

dimensions      [0 0 0 1 0 0 0];

internalField   nonuniform List<scalar> 
3200
(
349.649
350.246
351.008
351.838
352.694
353.533
354.308
354.963
355.439
355.691
355.691
355.439
354.963
354.308
353.533
352.694
351.838
351.008
350.246
349.649
343.078
343.583
344.241
344.959
345.7
346.426
347.096
347.661
348.073
348.29
348.29
348.073
347.661
347.096
346.426
345.7
344.959
344.241
343.583
343.078
336.488
336.907
337.461
338.068
338.693
339.307
339.873
340.35
340.697
340.88
340.88
340.697
340.35
339.873
339.307
338.693
338.068
337.461
336.907
336.488
329.881
330.218
330.67
331.166
331.677
332.179
332.641
333.03
333.314
333.463
333.463
333.314
333.03
332.641
332.179
331.677
331.166
330.67
330.218
329.881
323.261
323.52
323.87
324.255
324.653
325.042
325.401
325.704
325.924
326.04
326.04
325.924
325.704
325.401
325.042
324.653
324.255
323.87
323.52
323.261
316.63
316.813
317.063
317.338
317.622
317.9
318.157
318.372
318.529
318.612
318.612
318.529
318.372
318.157
317.9
317.622
317.338
317.063
316.813
316.63
309.992
310.102
310.251
310.417
310.587
310.754
310.908
311.037
311.132
311.181
311.181
311.132
311.037
310.908
310.754
310.587
310.417
310.251
310.102
309.992
303.35
303.387
303.437
303.492
303.549
303.605
303.657
303.7
303.732
303.748
303.748
303.732
303.7
303.657
303.605
303.549
303.492
303.437
303.387
303.35
349.823
350.415
351.171
351.993
352.84
353.67
354.436
355.082
355.553
355.801
355.801
355.553
355.082
354.436
353.67
352.84
351.993
351.171
350.415
349.823
343.229
343.73
344.382
345.094
345.827
346.545
347.207
347.765
348.172
348.386
348.386
348.172
347.765
347.207
346.545
345.827
345.094
344.382
343.73
343.229
336.615
337.031
337.58
338.182
338.801
339.408
339.967
340.438
340.781
340.962
340.962
340.781
340.438
339.967
339.408
338.801
338.182
337.58
337.031
336.615
329.985
330.32
330.767
331.259
331.765
332.261
332.718
333.103
333.382
333.53
333.53
333.382
333.103
332.718
332.261
331.765
331.259
330.767
330.32
329.985
323.342
323.599
323.946
324.328
324.721
325.107
325.462
325.76
325.978
326.092
326.092
325.978
325.76
325.462
325.107
324.721
324.328
323.946
323.599
323.342
316.688
316.87
317.117
317.39
317.671
317.946
318.2
318.413
318.568
318.65
318.65
318.568
318.413
318.2
317.946
317.671
317.39
317.117
316.87
316.688
310.027
310.136
310.284
310.448
310.616
310.782
310.934
311.062
311.155
311.204
311.204
311.155
311.062
310.934
310.782
310.616
310.448
310.284
310.136
310.027
303.362
303.398
303.448
303.503
303.559
303.614
303.665
303.708
303.739
303.756
303.756
303.739
303.708
303.665
303.614
303.559
303.503
303.448
303.398
303.362
350.172
350.755
351.497
352.305
353.135
353.947
354.695
355.325
355.784
356.026
356.026
355.784
355.325
354.695
353.947
353.135
352.305
351.497
350.755
350.172
343.531
344.025
344.665
345.364
346.082
346.785
347.432
347.976
348.372
348.581
348.581
348.372
347.976
347.432
346.785
346.082
345.364
344.665
344.025
343.531
336.871
337.28
337.82
338.41
339.017
339.611
340.157
340.617
340.951
341.127
341.127
340.951
340.617
340.157
339.611
339.017
338.41
337.82
337.28
336.871
330.194
330.524
330.964
331.446
331.942
332.428
332.874
333.249
333.522
333.666
333.666
333.522
333.249
332.874
332.428
331.942
331.446
330.964
330.524
330.194
323.504
323.757
324.099
324.474
324.859
325.236
325.583
325.875
326.086
326.198
326.198
326.086
325.875
325.583
325.236
324.859
324.474
324.099
323.757
323.504
316.804
316.983
317.227
317.494
317.77
318.039
318.286
318.495
318.646
318.725
318.725
318.646
318.495
318.286
318.039
317.77
317.494
317.227
316.983
316.804
310.097
310.204
310.35
310.51
310.676
310.837
310.986
311.111
311.201
311.249
311.249
311.201
311.111
310.986
310.837
310.676
310.51
310.35
310.204
310.097
303.385
303.421
303.47
303.523
303.579
303.633
303.683
303.725
303.755
303.771
303.771
303.755
303.725
303.683
303.633
303.579
303.523
303.47
303.421
303.385
350.697
351.266
351.99
352.776
353.581
354.367
355.09
355.697
356.139
356.371
356.371
356.139
355.697
355.09
354.367
353.581
352.776
351.99
351.266
350.697
343.986
344.468
345.092
345.772
346.469
347.149
347.774
348.299
348.681
348.882
348.882
348.681
348.299
347.774
347.149
346.469
345.772
345.092
344.468
343.986
337.256
337.655
338.181
338.756
339.345
339.92
340.448
340.891
341.213
341.382
341.382
341.213
340.891
340.448
339.92
339.345
338.756
338.181
337.655
337.256
330.509
330.831
331.26
331.729
332.211
332.68
333.112
333.474
333.736
333.875
333.875
333.736
333.474
333.112
332.68
332.211
331.729
331.26
330.831
330.509
323.749
323.996
324.329
324.694
325.068
325.433
325.768
326.049
326.253
326.361
326.361
326.253
326.049
325.768
325.433
325.068
324.694
324.329
323.996
323.749
316.979
317.154
317.391
317.652
317.919
318.18
318.419
318.62
318.765
318.842
318.842
318.765
318.62
318.419
318.18
317.919
317.652
317.391
317.154
316.979
310.202
310.306
310.448
310.605
310.765
310.922
311.065
311.186
311.273
311.319
311.319
311.273
311.186
311.065
310.922
310.765
310.605
310.448
310.306
310.202
303.42
303.455
303.503
303.555
303.609
303.661
303.71
303.75
303.779
303.795
303.795
303.779
303.75
303.71
303.661
303.609
303.555
303.503
303.455
303.42
351.4
351.951
352.652
353.409
354.183
354.937
355.627
356.207
356.626
356.847
356.847
356.626
356.207
355.627
354.937
354.183
353.409
352.652
351.951
351.4
344.595
345.062
345.666
346.321
346.991
347.644
348.241
348.742
349.104
349.295
349.295
349.104
348.742
348.241
347.644
346.991
346.321
345.666
345.062
344.595
337.771
338.158
338.667
339.221
339.787
340.338
340.843
341.266
341.572
341.733
341.733
341.572
341.266
340.843
340.338
339.787
339.221
338.667
338.158
337.771
330.93
331.242
331.657
332.11
332.573
333.023
333.436
333.781
334.031
334.163
334.163
334.031
333.781
333.436
333.023
332.573
332.11
331.657
331.242
330.93
324.077
324.316
324.638
324.99
325.35
325.7
326.02
326.289
326.483
326.585
326.585
326.483
326.289
326.02
325.7
325.35
324.99
324.638
324.316
324.077
317.213
317.383
317.612
317.863
318.12
318.37
318.599
318.791
318.929
319.002
319.002
318.929
318.791
318.599
318.37
318.12
317.863
317.612
317.383
317.213
310.342
310.443
310.581
310.732
310.886
311.036
311.174
311.289
311.372
311.416
311.416
311.372
311.289
311.174
311.036
310.886
310.732
310.581
310.443
310.342
303.467
303.501
303.547
303.598
303.65
303.7
303.746
303.784
303.812
303.827
303.827
303.812
303.784
303.746
303.7
303.65
303.598
303.547
303.501
303.467
352.282
352.813
353.485
354.21
354.947
355.663
356.317
356.863
357.258
357.466
357.466
357.258
356.863
356.317
355.663
354.947
354.21
353.485
352.813
352.282
345.36
345.809
346.389
347.016
347.654
348.274
348.839
349.311
349.653
349.832
349.832
349.653
349.311
348.839
348.274
347.654
347.016
346.389
345.809
345.36
338.417
338.79
339.279
339.808
340.348
340.872
341.35
341.749
342.037
342.189
342.189
342.037
341.749
341.35
340.872
340.348
339.808
339.279
338.79
338.417
331.459
331.759
332.158
332.591
333.032
333.46
333.85
334.176
334.412
334.536
334.536
334.412
334.176
333.85
333.46
333.032
332.591
332.158
331.759
331.459
324.488
324.719
325.027
325.364
325.707
326.04
326.343
326.597
326.78
326.876
326.876
326.78
326.597
326.343
326.04
325.707
325.364
325.027
324.719
324.488
317.507
317.67
317.89
318.131
318.376
318.613
318.83
319.011
319.142
319.21
319.21
319.142
319.011
318.83
318.613
318.376
318.131
317.89
317.67
317.507
310.519
310.616
310.748
310.893
311.04
311.183
311.313
311.421
311.5
311.541
311.541
311.5
311.421
311.313
311.183
311.04
310.893
310.748
310.616
310.519
303.527
303.559
303.603
303.652
303.701
303.749
303.792
303.829
303.855
303.869
303.869
303.855
303.829
303.792
303.749
303.701
303.652
303.603
303.559
303.527
353.348
353.855
354.496
355.183
355.88
356.554
357.166
357.677
358.045
358.238
358.238
358.045
357.677
357.166
356.554
355.88
355.183
354.496
353.855
353.348
346.282
346.712
347.264
347.859
348.463
349.046
349.576
350.018
350.336
350.503
350.503
350.336
350.018
349.576
349.046
348.463
347.859
347.264
346.712
346.282
339.198
339.554
340.02
340.523
341.033
341.526
341.974
342.347
342.616
342.757
342.757
342.616
342.347
341.974
341.526
341.033
340.523
340.02
339.554
339.198
332.098
332.385
332.764
333.175
333.593
333.996
334.362
334.667
334.886
335.002
335.002
334.886
334.667
334.362
333.996
333.593
333.175
332.764
332.385
332.098
324.985
325.205
325.499
325.819
326.143
326.457
326.741
326.978
327.149
327.239
327.239
327.149
326.978
326.741
326.457
326.143
325.819
325.499
325.205
324.985
317.862
318.018
318.228
318.456
318.688
318.911
319.115
319.284
319.406
319.47
319.47
319.406
319.284
319.115
318.911
318.688
318.456
318.228
318.018
317.862
310.732
310.825
310.951
311.088
311.227
311.362
311.484
311.585
311.658
311.697
311.697
311.658
311.585
311.484
311.362
311.227
311.088
310.951
310.825
310.732
303.598
303.629
303.671
303.717
303.764
303.809
303.85
303.884
303.908
303.921
303.921
303.908
303.884
303.85
303.809
303.764
303.717
303.671
303.629
303.598
354.598
355.08
355.686
356.334
356.988
357.617
358.187
358.66
359
359.178
359.178
359
358.66
358.187
357.617
356.988
356.334
355.686
355.08
354.598
347.365
347.774
348.297
348.857
349.424
349.968
350.461
350.871
351.165
351.319
351.319
351.165
350.871
350.461
349.968
349.424
348.857
348.297
347.774
347.365
340.114
340.453
340.893
341.367
341.846
342.307
342.724
343.07
343.318
343.448
343.448
343.318
343.07
342.724
342.307
341.846
341.367
340.893
340.453
340.114
332.847
333.12
333.479
333.867
334.258
334.635
334.976
335.258
335.461
335.568
335.568
335.461
335.258
334.976
334.635
334.258
333.867
333.479
333.12
332.847
325.568
325.777
326.056
326.357
326.661
326.954
327.219
327.439
327.597
327.679
327.679
327.597
327.439
327.219
326.954
326.661
326.357
326.056
325.777
325.568
318.278
318.426
318.625
318.84
319.058
319.267
319.456
319.613
319.726
319.785
319.785
319.726
319.613
319.456
319.267
319.058
318.84
318.625
318.426
318.278
310.982
311.071
311.19
311.319
311.45
311.575
311.689
311.783
311.851
311.886
311.886
311.851
311.783
311.689
311.575
311.45
311.319
311.19
311.071
310.982
303.682
303.711
303.751
303.795
303.838
303.88
303.919
303.95
303.973
303.985
303.985
303.973
303.95
303.919
303.88
303.838
303.795
303.751
303.711
303.682
356.036
356.492
357.062
357.669
358.278
358.861
359.387
359.822
360.134
360.297
360.297
360.134
359.822
359.387
358.861
358.278
357.669
357.062
356.492
356.036
348.612
348.997
349.489
350.014
350.542
351.047
351.502
351.879
352.148
352.289
352.289
352.148
351.879
351.502
351.047
350.542
350.014
349.489
348.997
348.612
341.168
341.488
341.903
342.347
342.793
343.22
343.605
343.923
344.151
344.27
344.27
344.151
343.923
343.605
343.22
342.793
342.347
341.903
341.488
341.168
333.71
333.967
334.305
334.668
335.033
335.382
335.697
335.957
336.144
336.241
336.241
336.144
335.957
335.697
335.382
335.033
334.668
334.305
333.967
333.71
326.238
326.436
326.698
326.98
327.264
327.536
327.781
327.983
328.128
328.203
328.203
328.128
327.983
327.781
327.536
327.264
326.98
326.698
326.436
326.238
318.758
318.897
319.084
319.286
319.489
319.683
319.858
320.002
320.105
320.16
320.16
320.105
320.002
319.858
319.683
319.489
319.286
319.084
318.897
318.758
311.27
311.353
311.466
311.587
311.708
311.825
311.93
312.017
312.079
312.111
312.111
312.079
312.017
311.93
311.825
311.708
311.587
311.466
311.353
311.27
303.778
303.806
303.844
303.884
303.925
303.964
303.999
304.028
304.049
304.06
304.06
304.049
304.028
303.999
303.964
303.925
303.884
303.844
303.806
303.778
357.666
358.094
358.627
359.192
359.756
360.294
360.776
361.173
361.457
361.605
361.605
361.457
361.173
360.776
360.294
359.756
359.192
358.627
358.094
357.666
350.023
350.385
350.846
351.335
351.824
352.289
352.707
353.05
353.296
353.424
353.424
353.296
353.05
352.707
352.289
351.824
351.335
350.846
350.385
350.023
342.362
342.663
343.051
343.464
343.878
344.271
344.625
344.915
345.123
345.231
345.231
345.123
344.915
344.625
344.271
343.878
343.464
343.051
342.663
342.362
334.686
334.928
335.244
335.582
335.921
336.243
336.532
336.769
336.939
337.028
337.028
336.939
336.769
336.532
336.243
335.921
335.582
335.244
334.928
334.686
326.998
327.184
327.429
327.692
327.955
328.206
328.43
328.615
328.747
328.816
328.816
328.747
328.615
328.43
328.206
327.955
327.692
327.429
327.184
326.998
319.3
319.432
319.607
319.794
319.982
320.161
320.322
320.454
320.548
320.597
320.597
320.548
320.454
320.322
320.161
319.982
319.794
319.607
319.432
319.3
311.596
311.674
311.779
311.892
312.005
312.112
312.209
312.288
312.345
312.374
312.374
312.345
312.288
312.209
312.112
312.005
311.892
311.779
311.674
311.596
303.888
303.914
303.949
303.987
304.025
304.061
304.093
304.119
304.138
304.148
304.148
304.138
304.119
304.093
304.061
304.025
303.987
303.949
303.914
303.888
359.488
359.889
360.385
360.908
361.428
361.921
362.36
362.721
362.978
363.112
363.112
362.978
362.721
362.36
361.921
361.428
360.908
360.385
359.889
359.488
351.602
351.941
352.369
352.822
353.273
353.7
354.08
354.393
354.615
354.731
354.731
354.615
354.393
354.08
353.7
353.273
352.822
352.369
351.941
351.602
343.698
343.979
344.34
344.723
345.104
345.465
345.788
346.052
346.24
346.338
346.338
346.24
346.052
345.788
345.465
345.104
344.723
344.34
343.979
343.698
335.779
336.005
336.3
336.613
336.925
337.22
337.484
337.7
337.853
337.934
337.934
337.853
337.7
337.484
337.22
336.925
336.613
336.3
336.005
335.779
327.848
328.022
328.25
328.494
328.736
328.966
329.171
329.339
329.458
329.521
329.521
329.458
329.339
329.171
328.966
328.736
328.494
328.25
328.022
327.848
319.908
320.031
320.193
320.367
320.541
320.705
320.851
320.971
321.057
321.101
321.101
321.057
320.971
320.851
320.705
320.541
320.367
320.193
320.031
319.908
311.961
312.034
312.132
312.236
312.34
312.439
312.527
312.599
312.65
312.677
312.677
312.65
312.599
312.527
312.439
312.34
312.236
312.132
312.034
311.961
304.01
304.034
304.067
304.102
304.137
304.17
304.199
304.224
304.241
304.25
304.25
304.241
304.224
304.199
304.17
304.137
304.102
304.067
304.034
304.01
361.506
361.879
362.34
362.822
363.299
363.748
364.147
364.473
364.705
364.825
364.825
364.705
364.473
364.147
363.748
363.299
362.822
362.34
361.879
361.506
353.351
353.666
354.063
354.481
354.894
355.284
355.629
355.912
356.112
356.217
356.217
356.112
355.912
355.629
355.284
354.894
354.481
354.063
353.666
353.351
345.177
345.439
345.774
346.127
346.477
346.806
347.099
347.337
347.507
347.595
347.595
347.507
347.337
347.099
346.806
346.477
346.127
345.774
345.439
345.177
336.989
337.2
337.473
337.762
338.048
338.317
338.557
338.752
338.891
338.963
338.963
338.891
338.752
338.557
338.317
338.048
337.762
337.473
337.2
336.989
328.789
328.951
329.163
329.387
329.61
329.82
330.006
330.158
330.266
330.322
330.322
330.266
330.158
330.006
329.82
329.61
329.387
329.163
328.951
328.789
320.58
320.695
320.846
321.006
321.165
321.315
321.448
321.557
321.634
321.674
321.674
321.634
321.557
321.448
321.315
321.165
321.006
320.846
320.695
320.58
312.365
312.433
312.523
312.62
312.715
312.805
312.885
312.95
312.997
313.021
313.021
312.997
312.95
312.885
312.805
312.715
312.62
312.523
312.433
312.365
304.145
304.168
304.198
304.231
304.263
304.293
304.32
304.341
304.357
304.365
304.365
304.357
304.341
304.32
304.293
304.263
304.231
304.198
304.168
304.145
363.722
364.068
364.493
364.936
365.372
365.78
366.141
366.434
366.642
366.75
366.75
366.642
366.434
366.141
365.78
365.372
364.936
364.493
364.068
363.722
355.27
355.563
355.93
356.313
356.691
357.045
357.358
357.612
357.792
357.885
357.885
357.792
357.612
357.358
357.045
356.691
356.313
355.93
355.563
355.27
346.801
347.044
347.353
347.678
347.997
348.296
348.561
348.776
348.929
349.008
349.008
348.929
348.776
348.561
348.296
347.997
347.678
347.353
347.044
346.801
338.318
338.513
338.765
339.03
339.292
339.537
339.753
339.93
340.054
340.119
340.119
340.054
339.93
339.753
339.537
339.292
339.03
338.765
338.513
338.318
329.823
329.972
330.168
330.374
330.578
330.768
330.937
331.074
331.171
331.221
331.221
331.171
331.074
330.937
330.768
330.578
330.374
330.168
329.972
329.823
321.318
321.424
321.564
321.711
321.857
321.993
322.113
322.211
322.281
322.316
322.316
322.281
322.211
322.113
321.993
321.857
321.711
321.564
321.424
321.318
312.808
312.871
312.955
313.044
313.131
313.213
313.285
313.344
313.385
313.407
313.407
313.385
313.344
313.285
313.213
313.131
313.044
312.955
312.871
312.808
304.294
304.315
304.343
304.373
304.402
304.429
304.454
304.473
304.487
304.495
304.495
304.487
304.473
304.454
304.429
304.402
304.373
304.343
304.315
304.294
366.135
366.455
366.846
367.252
367.648
368.018
368.343
368.607
368.793
368.889
368.889
368.793
368.607
368.343
368.018
367.648
367.252
366.846
366.455
366.135
357.36
357.631
357.969
358.32
358.664
358.984
359.267
359.495
359.656
359.74
359.74
359.656
359.495
359.267
358.984
358.664
358.32
357.969
357.631
357.36
348.569
348.793
349.078
349.375
349.666
349.938
350.176
350.37
350.506
350.577
350.577
350.506
350.37
350.176
349.938
349.666
349.375
349.078
348.793
348.569
339.764
339.944
340.176
340.42
340.658
340.88
341.075
341.233
341.345
341.403
341.403
341.345
341.233
341.075
340.88
340.658
340.42
340.176
339.944
339.764
330.947
331.086
331.266
331.455
331.64
331.813
331.965
332.088
332.175
332.22
332.22
332.175
332.088
331.965
331.813
331.64
331.455
331.266
331.086
330.947
322.122
322.22
322.348
322.484
322.616
322.739
322.848
322.936
322.998
323.03
323.03
322.998
322.936
322.848
322.739
322.616
322.484
322.348
322.22
322.122
313.291
313.349
313.426
313.507
313.587
313.661
313.726
313.779
313.816
313.836
313.836
313.816
313.779
313.726
313.661
313.587
313.507
313.426
313.349
313.291
304.456
304.475
304.501
304.528
304.555
304.58
304.602
304.619
304.632
304.638
304.638
304.632
304.619
304.602
304.58
304.555
304.528
304.501
304.475
304.456
368.742
369.037
369.396
369.767
370.127
370.461
370.754
370.99
371.156
371.242
371.242
371.156
370.99
370.754
370.461
370.127
369.767
369.396
369.037
368.742
359.618
359.868
360.178
360.499
360.811
361.101
361.355
361.559
361.703
361.778
361.778
361.703
361.559
361.355
361.101
360.811
360.499
360.178
359.868
359.618
350.478
350.685
350.947
351.218
351.482
351.728
351.943
352.116
352.238
352.301
352.301
352.238
352.116
351.943
351.728
351.482
351.218
350.947
350.685
350.478
341.325
341.492
341.705
341.927
342.143
342.344
342.52
342.662
342.761
342.813
342.813
342.761
342.662
342.52
342.344
342.143
341.927
341.705
341.492
341.325
332.161
332.289
332.454
332.627
332.796
332.952
333.089
333.199
333.277
333.317
333.317
333.277
333.199
333.089
332.952
332.796
332.627
332.454
332.289
332.161
322.989
323.08
323.198
323.321
323.441
323.553
323.651
323.73
323.785
323.814
323.814
323.785
323.73
323.651
323.553
323.441
323.321
323.198
323.08
322.989
313.811
313.865
313.936
314.01
314.082
314.15
314.208
314.256
314.289
314.306
314.306
314.289
314.256
314.208
314.15
314.082
314.01
313.936
313.865
313.811
304.63
304.648
304.672
304.697
304.721
304.743
304.763
304.779
304.79
304.796
304.796
304.79
304.779
304.763
304.743
304.721
304.697
304.672
304.648
304.63
371.532
371.804
372.133
372.47
372.797
373.099
373.362
373.573
373.721
373.798
373.798
373.721
373.573
373.362
373.099
372.797
372.47
372.133
371.804
371.532
362.033
362.262
362.546
362.839
363.122
363.384
363.612
363.795
363.924
363.99
363.99
363.924
363.795
363.612
363.384
363.122
362.839
362.546
362.262
362.033
352.519
352.709
352.949
353.196
353.436
353.657
353.851
354.006
354.114
354.171
354.171
354.114
354.006
353.851
353.657
353.436
353.196
352.949
352.709
352.519
342.993
343.146
343.341
343.544
343.74
343.921
344.08
344.207
344.296
344.342
344.342
344.296
344.207
344.08
343.921
343.74
343.544
343.341
343.146
342.993
333.457
333.575
333.726
333.884
334.037
334.178
334.301
334.4
334.469
334.505
334.505
334.469
334.4
334.301
334.178
334.037
333.884
333.726
333.575
333.457
323.915
323.998
324.106
324.219
324.328
324.429
324.517
324.587
324.637
324.662
324.662
324.637
324.587
324.517
324.429
324.328
324.219
324.106
323.998
323.915
314.367
314.417
314.482
314.549
314.615
314.675
314.728
314.771
314.8
314.816
314.816
314.8
314.771
314.728
314.675
314.615
314.549
314.482
314.417
314.367
304.816
304.833
304.855
304.877
304.899
304.92
304.937
304.952
304.962
304.967
304.967
304.962
304.952
304.937
304.92
304.899
304.877
304.855
304.833
304.816
374.476
374.725
375.027
375.334
375.63
375.902
376.139
376.328
376.46
376.528
376.528
376.46
376.328
376.139
375.902
375.63
375.334
375.027
374.725
374.476
364.575
364.786
365.047
365.313
365.57
365.806
366.011
366.175
366.29
366.349
366.349
366.29
366.175
366.011
365.806
365.57
365.313
365.047
364.786
364.575
354.664
354.839
355.058
355.284
355.501
355.701
355.875
356.014
356.111
356.161
356.161
356.111
356.014
355.875
355.701
355.501
355.284
355.058
354.839
354.664
344.743
344.884
345.063
345.248
345.426
345.59
345.732
345.845
345.925
345.966
345.966
345.925
345.845
345.732
345.59
345.426
345.248
345.063
344.884
344.743
334.816
334.924
335.063
335.207
335.345
335.473
335.583
335.672
335.734
335.766
335.766
335.734
335.672
335.583
335.473
335.345
335.207
335.063
334.924
334.816
324.884
324.961
325.06
325.162
325.261
325.353
325.432
325.495
325.539
325.562
325.562
325.539
325.495
325.432
325.353
325.261
325.162
325.06
324.961
324.884
314.949
314.994
315.054
315.115
315.175
315.23
315.277
315.315
315.342
315.356
315.356
315.342
315.315
315.277
315.23
315.175
315.115
315.054
314.994
314.949
305.011
305.026
305.046
305.067
305.087
305.105
305.121
305.134
305.143
305.148
305.148
305.143
305.134
305.121
305.105
305.087
305.067
305.046
305.026
305.011
377.496
377.726
378.002
378.283
378.551
378.797
379.01
379.18
379.298
379.359
379.359
379.298
379.18
379.01
378.797
378.551
378.283
378.002
377.726
377.496
367.172
367.367
367.605
367.849
368.082
368.295
368.48
368.627
368.73
368.783
368.783
368.73
368.627
368.48
368.295
368.082
367.849
367.605
367.367
367.172
356.846
357.007
357.208
357.414
357.612
357.793
357.949
358.074
358.161
358.206
358.206
358.161
358.074
357.949
357.793
357.612
357.414
357.208
357.007
356.846
346.518
346.647
346.812
346.98
347.142
347.29
347.419
347.521
347.592
347.629
347.629
347.592
347.521
347.419
347.29
347.142
346.98
346.812
346.647
346.518
336.19
336.289
336.417
336.548
336.674
336.789
336.889
336.969
337.024
337.053
337.053
337.024
336.969
336.889
336.789
336.674
336.548
336.417
336.289
336.19
325.862
325.932
326.023
326.117
326.207
326.29
326.361
326.418
326.458
326.478
326.478
326.458
326.418
326.361
326.29
326.207
326.117
326.023
325.932
325.862
315.534
315.576
315.631
315.687
315.741
315.791
315.834
315.868
315.892
315.904
315.904
315.892
315.868
315.834
315.791
315.741
315.687
315.631
315.576
315.534
305.207
305.221
305.24
305.258
305.277
305.293
305.308
305.319
305.327
305.331
305.331
305.327
305.319
305.308
305.293
305.277
305.258
305.24
305.221
305.207
380.399
380.611
380.866
381.124
381.37
381.594
381.787
381.941
382.048
382.102
382.102
382.048
381.941
381.787
381.594
381.37
381.124
380.866
380.611
380.399
369.638
369.818
370.038
370.262
370.476
370.671
370.838
370.972
371.065
371.113
371.113
371.065
370.972
370.838
370.671
370.476
370.262
370.038
369.818
369.638
358.895
359.044
359.23
359.42
359.601
359.767
359.909
360.022
360.101
360.142
360.142
360.101
360.022
359.909
359.767
359.601
359.42
359.23
359.044
358.895
348.169
348.289
348.441
348.597
348.745
348.881
348.998
349.091
349.155
349.189
349.189
349.155
349.091
348.998
348.881
348.745
348.597
348.441
348.289
348.169
337.458
337.55
337.668
337.789
337.905
338.011
338.102
338.175
338.225
338.251
338.251
338.225
338.175
338.102
338.011
337.905
337.789
337.668
337.55
337.458
326.759
326.825
326.909
326.996
327.079
327.154
327.219
327.271
327.307
327.326
327.326
327.307
327.271
327.219
327.154
327.079
326.996
326.909
326.825
326.759
316.07
316.109
316.16
316.212
316.262
316.307
316.346
316.377
316.399
316.41
316.41
316.399
316.377
316.346
316.307
316.262
316.212
316.16
316.109
316.07
305.386
305.399
305.416
305.434
305.45
305.466
305.479
305.489
305.497
305.5
305.5
305.497
305.489
305.479
305.466
305.45
305.434
305.416
305.399
305.386
382.673
382.873
383.112
383.354
383.584
383.793
383.973
384.116
384.215
384.266
384.266
384.215
384.116
383.973
383.793
383.584
383.354
383.112
382.873
382.673
371.496
371.666
371.874
372.084
372.285
372.467
372.624
372.749
372.835
372.88
372.88
372.835
372.749
372.624
372.467
372.285
372.084
371.874
371.666
371.496
360.392
360.533
360.709
360.888
361.059
361.214
361.347
361.453
361.527
361.564
361.564
361.527
361.453
361.347
361.214
361.059
360.888
360.709
360.533
360.392
349.346
349.46
349.603
349.75
349.891
350.018
350.128
350.215
350.275
350.306
350.306
350.275
350.215
350.128
350.018
349.891
349.75
349.603
349.46
349.346
338.345
338.433
338.544
338.659
338.769
338.868
338.954
339.022
339.069
339.093
339.093
339.069
339.022
338.954
338.868
338.769
338.659
338.544
338.433
338.345
327.379
327.441
327.521
327.603
327.681
327.752
327.814
327.862
327.896
327.914
327.914
327.896
327.862
327.814
327.752
327.681
327.603
327.521
327.441
327.379
316.436
316.473
316.521
316.571
316.618
316.661
316.698
316.727
316.747
316.758
316.758
316.747
316.727
316.698
316.661
316.618
316.571
316.521
316.473
316.436
305.508
305.52
305.537
305.553
305.569
305.583
305.596
305.606
305.612
305.616
305.616
305.612
305.606
305.596
305.583
305.569
305.553
305.537
305.52
305.508
)
;

boundaryField
{
    hotSide
    {
        type            fixedGradient;
        gradient        nonuniform List<scalar> 
400
(
523.794
525.663
529.406
535.037
542.573
552.036
563.451
576.847
592.252
609.694
629.201
650.8
674.515
700.366
728.373
758.552
790.917
825.478
862.244
901.221
531.648
533.455
537.076
542.529
549.837
559.03
570.141
583.205
598.261
615.344
634.488
655.727
679.089
704.6
732.281
762.15
794.224
828.513
865.025
903.769
540.148
541.88
545.356
550.598
557.637
566.512
577.266
589.946
604.599
621.27
640.003
660.837
683.805
708.939
736.263
765.797
797.557
831.554
867.799
906.296
549.153
550.799
554.106
559.103
565.831
574.341
584.688
596.933
611.133
627.346
645.624
666.014
688.556
713.285
740.227
769.406
800.837
834.532
870.5
908.745
558.411
559.96
563.077
567.8
574.182
582.287
592.187
603.956
617.666
633.386
651.179
671.1
693.196
717.504
744.054
772.87
803.969
837.361
873.053
911.048
567.536
568.981
571.895
576.326
582.341
590.021
599.451
610.725
623.929
639.144
656.445
675.895
697.544
721.436
747.601
776.065
806.842
839.943
875.373
913.132
576.007
577.347
580.059
584.2
589.852
597.111
606.084
616.876
629.591
644.324
661.157
680.162
701.394
724.899
750.711
778.852
809.337
842.176
877.37
914.92
583.195
584.442
586.972
590.853
596.18
603.065
611.631
622
634.287
648.601
665.03
683.653
704.531
727.709
753.222
781.094
811.337
843.958
878.96
916.337
588.456
589.631
592.021
595.703
600.783
607.385
615.644
625.694
637.663
651.663
667.794
686.137
706.754
729.694
754.991
782.667
812.736
845.203
880.066
917.322
591.244
592.38
594.694
598.268
603.213
609.662
617.755
627.634
639.43
653.264
669.236
687.428
707.908
730.722
755.905
783.48
813.457
845.843
880.635
917.827
591.244
592.38
594.694
598.268
603.213
609.662
617.755
627.634
639.43
653.264
669.236
687.428
707.908
730.722
755.905
783.48
813.457
845.843
880.635
917.827
588.456
589.631
592.021
595.703
600.783
607.385
615.644
625.694
637.663
651.663
667.794
686.137
706.754
729.694
754.991
782.667
812.736
845.203
880.066
917.322
583.195
584.442
586.972
590.853
596.18
603.065
611.631
622
634.287
648.601
665.03
683.653
704.531
727.709
753.222
781.094
811.337
843.958
878.96
916.337
576.007
577.347
580.059
584.2
589.852
597.111
606.084
616.876
629.591
644.324
661.157
680.162
701.394
724.899
750.711
778.852
809.337
842.176
877.37
914.92
567.536
568.981
571.895
576.326
582.341
590.021
599.451
610.725
623.929
639.144
656.445
675.895
697.544
721.436
747.601
776.065
806.842
839.943
875.373
913.132
558.411
559.96
563.077
567.8
574.182
582.287
592.187
603.956
617.666
633.386
651.179
671.1
693.196
717.504
744.054
772.87
803.969
837.361
873.053
911.048
549.153
550.799
554.106
559.103
565.831
574.341
584.688
596.933
611.133
627.346
645.624
666.014
688.556
713.285
740.227
769.406
800.837
834.532
870.5
908.745
540.148
541.88
545.356
550.598
557.637
566.512
577.266
589.946
604.599
621.27
640.003
660.837
683.805
708.939
736.263
765.797
797.557
831.554
867.799
906.296
531.648
533.455
537.076
542.529
549.837
559.03
570.141
583.205
598.261
615.344
634.488
655.727
679.089
704.6
732.281
762.15
794.224
828.513
865.025
903.769
523.794
525.663
529.406
535.037
542.573
552.036
563.451
576.847
592.252
609.694
629.201
650.8
674.515
700.366
728.373
758.552
790.917
825.478
862.244
901.221
)
;
    }
    coldSide
    {
        type            mixed;
        refValue        uniform 300;
        refGradient     uniform 0;
        valueFraction   uniform 0.991591;
        source          uniform 0;
        value           nonuniform List<scalar> 
400
(
300.028
300.028
300.028
300.029
300.029
300.03
300.03
300.031
300.032
300.033
300.034
300.035
300.036
300.037
300.039
300.04
300.042
300.044
300.045
300.046
300.028
300.029
300.029
300.029
300.029
300.03
300.031
300.031
300.032
300.033
300.034
300.035
300.036
300.038
300.039
300.041
300.042
300.044
300.045
300.046
300.029