/*--------------------------------*- C++ -*----------------------------------*\
| =========                 |                                                 |
| \\      /  F ield         | OpenFOAM: The Open Source CFD Toolbox           |
|  \\    /   O peration     | Version:  2212                                  |
|   \\  /    A nd           | Website:  www.openfoam.com                      |
|    \\/     M anipulation  |                                                 |
\*---------------------------------------------------------------------------*/
FoamFile
{
    version     2.0;
    format      ascii;
    arch        "LSB;label=32;scalar=64";
    class       volScalarField;
    location    "0";
    object      Tdirect;
}
// * * * * * * * * * * * * * * * * * * * * * * * * * * * * * * * * * * * * * //

dimensions      [0 0 0 1 0 0 0];

internalField   nonuniform List<scalar> 
3200
(
347.442
348.193
349.152
350.197
351.274
352.331
353.306
354.13
354.729
355.046
355.046
354.729
354.13
353.306
352.331
351.274
350.197
349.152
348.193
347.442
341.132
341.768
342.595
343.499
344.431
345.345
346.188
346.9
347.418
347.691
347.691
347.418
346.9
346.188
345.345
344.431
343.499
342.595
341.768
341.132
334.817
335.344
336.041
336.805
337.593
338.365
339.077
339.677
340.114
340.345
340.345
340.114
339.677
339.077
338.365
337.593
336.805
336.041
335.344
334.817
328.497
328.922
329.49
330.114
330.758
331.389
331.97
332.461
332.817
333.005
333.005
332.817
332.461
331.97
331.389
330.758
330.114
329.49
328.922
328.497
322.174
322.5
322.94
323.426
323.926
324.416
324.868
325.249
325.526
325.672
325.672
325.526
325.249
324.868
324.416
323.926
323.426
322.94
322.5
322.174
315.848
316.079
316.393
316.739
317.096
317.447
317.769
318.041
318.238
318.343
318.343
318.238
318.041
317.769
317.447
317.096
316.739
316.393
316.079
315.848
309.52
309.658
309.846
310.054
310.269
310.479
310.673
310.836
310.954
311.017
311.017
310.954
310.836
310.673
310.479
310.269
310.054
309.846
309.658
309.52
303.191
303.237
303.301
303.37
303.442
303.513
303.577
303.632
303.672
303.693
303.693
303.672
303.632
303.577
303.513
303.442
303.37
303.301
303.237
303.191
347.589
348.334
349.285
350.321
351.386
352.432
353.396
354.209
354.801
355.113
355.113
354.801
354.209
353.396
352.432
351.386
350.321
349.285
348.334
347.589
341.259
341.89
342.71
343.606
344.528
345.433
346.266
346.969
347.48
347.75
347.75
347.48
346.969
346.266
345.433
344.528
343.606
342.71
341.89
341.259
334.924
335.448
336.139
336.895
337.675
338.439
339.142
339.735
340.167
340.395
340.395
340.167
339.735
339.142
338.439
337.675
336.895
336.139
335.448
334.924
328.585
329.006
329.569
330.188
330.825
331.449
332.024
332.508
332.86
333.046
333.046
332.86
332.508
332.024
331.449
330.825
330.188
329.569
329.006
328.585
322.242
322.565
323.002
323.483
323.978
324.463
324.91
325.286
325.559
325.704
325.704
325.559
325.286
324.91
324.463
323.978
323.483
323.002
322.565
322.242
315.897
316.126
316.437
316.78
317.134
317.48
317.799
318.067
318.263
318.365
318.365
318.263
318.067
317.799
317.48
317.134
316.78
316.437
316.126
315.897
309.549
309.686
309.873
310.079
310.291
310.499
310.691
310.852
310.969
311.03
311.03
310.969
310.852
310.691
310.499
310.291
310.079
309.873
309.686
309.549
303.201
303.247
303.309
303.378
303.45
303.519
303.583
303.637
303.677
303.697
303.697
303.677
303.637
303.583
303.519
303.45
303.378
303.309
303.247
303.201
347.885
348.618
349.553
350.569
351.614
352.636
353.578
354.371
354.948
355.252
355.252
354.948
354.371
353.578
352.636
351.614
350.569
349.553
348.618
347.885
341.515
342.136
342.942
343.821
344.725
345.61
346.424
347.109
347.608
347.871
347.871
347.608
347.109
346.424
345.61
344.725
343.821
342.942
342.136
341.515
335.14
335.655
336.334
337.077
337.841
338.589
339.276
339.855
340.275
340.497
340.497
340.275
339.855
339.276
338.589
337.841
337.077
336.334
335.655
335.14
328.761
329.176
329.729
330.337
330.961
331.572
332.134
332.606
332.949
333.13
333.13
332.949
332.606
332.134
331.572
330.961
330.337
329.729
329.176
328.761
322.379
322.697
323.127
323.599
324.084
324.559
324.995
325.362
325.629
325.769
325.769
325.629
325.362
324.995
324.559
324.084
323.599
323.127
322.697
322.379
315.994
316.22
316.526
316.863
317.209
317.548
317.86
318.122
318.312
318.412
318.412
318.312
318.122
317.86
317.548
317.209
316.863
316.526
316.22
315.994
309.608
309.743
309.926
310.129
310.337
310.54
310.727
310.884
310.998
311.059
311.059
310.998
310.884
310.727
310.54
310.337
310.129
309.926
309.743
309.608
303.221
303.266
303.327
303.395
303.465
303.533
303.596
303.648
303.687
303.707
303.707
303.687
303.648
303.596
303.533
303.465
303.395
303.327
303.266
303.221
348.33
349.046
349.958
350.946
351.959
352.949
353.859
354.624
355.179
355.472
355.472
355.179
354.624
353.859
352.949
351.959
350.946
349.958
349.046
348.33
341.9
342.506
343.292
344.148
345.025
345.881
346.668
347.329
347.809
348.061
348.061
347.809
347.329
346.668
345.881
345.025
344.148
343.292
342.506
341.9
335.465
335.968
336.63
337.353
338.095
338.818
339.483
340.041
340.446
340.659
340.659
340.446
340.041
339.483
338.818
338.095
337.353
336.63
335.968
335.465
329.027
329.432
329.972
330.562
331.168
331.76
332.303
332.758
333.089
333.263
333.263
333.089
332.758
332.303
331.76
331.168
330.562
329.972
329.432
329.027
322.585
322.896
323.315
323.774
324.245
324.705
325.127
325.481
325.737
325.873
325.873
325.737
325.481
325.127
324.705
324.245
323.774
323.315
322.896
322.585
316.142
316.362
316.66
316.988
317.325
317.653
317.954
318.207
318.39
318.486
318.486
318.39
318.207
317.954
317.653
317.325
316.988
316.66
316.362
316.142
309.697
309.828
310.007
310.204
310.406
310.603
310.784
310.935
311.045
311.103
311.103
311.045
310.935
310.784
310.603
310.406
310.204
310.007
309.828
309.697
303.251
303.294
303.354
303.42
303.488
303.554
303.615
303.665
303.702
303.722
303.722
303.702
303.665
303.615
303.554
303.488
303.42
303.354
303.294
303.251
348.927
349.622
350.503
351.456
352.43
353.379
354.248
354.977
355.505
355.784
355.784
355.505
354.977
354.248
353.379
352.43
351.456
350.503
349.622
348.927
342.416
343.004
343.764
344.589
345.432
346.253
347.005
347.636
348.092
348.332
348.332
348.092
347.636
347.005
346.253
345.432
344.589
343.764
343.004
342.416
335.901
336.389
337.029
337.727
338.439
339.133
339.768
340.3
340.686
340.889
340.889
340.686
340.3
339.768
339.133
338.439
337.727
337.029
336.389
335.901
329.383
329.776
330.298
330.867
331.45
332.017
332.536
332.971
333.286
333.451
333.451
333.286
332.971
332.536
332.017
331.45
330.867
330.298
329.776
329.383
322.862
323.164
323.569
324.011
324.464
324.905
325.309
325.646
325.891
326.019
326.019
325.891
325.646
325.309
324.905
324.464
324.011
323.569
323.164
322.862
316.339
316.553
316.841
317.158
317.481
317.796
318.084
318.325
318.5
318.591
318.591
318.5
318.325
318.084
317.796
317.481
317.158
316.841
316.553
316.339
309.815
309.943
310.116
310.306
310.5
310.689
310.862
311.006
311.111
311.166
311.166
311.111
311.006
310.862
310.689
310.5
310.306
310.116
309.943
309.815
303.29
303.333
303.391
303.454
303.52
303.583
303.641
303.689
303.724
303.743
303.743
303.724
303.689
303.641
303.583
303.52
303.454
303.391
303.333
303.29
349.679
350.347
351.193
352.105
353.033
353.934
354.756
355.444
355.941
356.203
356.203
355.941
355.444
354.756
353.934
353.033
352.105
351.193
350.347
349.679
343.067
343.632
344.362
345.151
345.955
346.734
347.446
348.04
348.47
348.696
348.696
348.47
348.04
347.446
346.734
345.955
345.151
344.362
343.632
343.067
336.451
336.92
337.535
338.201
338.881
339.54
340.141
340.643
341.006
341.197
341.197
341.006
340.643
340.141
339.54
338.881
338.201
337.535
336.92
336.451
329.832
330.21
330.711
331.256
331.811
332.35
332.841
333.252
333.548
333.704
333.704
333.548
333.252
332.841
332.35
331.811
331.256
330.711
330.21
329.832
323.211
323.501
323.89
324.313
324.745
325.164
325.546
325.865
326.095
326.216
326.216
326.095
325.865
325.546
325.164
324.745
324.313
323.89
323.501
323.211
316.588
316.794
317.071
317.373
317.682
317.981
318.254
318.481
318.646
318.732
318.732
318.646
318.481
318.254
317.981
317.682
317.373
317.071
316.794
316.588
309.965
310.087
310.253
310.435
310.62
310.8
310.964
311.1
311.199
311.251
311.251
311.199
311.1
310.964
310.8
310.62
310.435
310.253
310.087
309.965
303.34
303.381
303.437
303.498
303.56
303.62
303.675
303.721
303.754
303.771
303.771
303.754
303.721
303.675
303.62
303.56
303.498
303.437
303.381
303.34
350.589
351.228
352.034
352.899
353.776
354.624
355.395
356.038
356.501
356.744
356.744
356.501
356.038
355.395
354.624
353.776
352.899
352.034
351.228
350.589
343.853
344.394
345.089
345.838
346.598
347.332
347.999
348.555
348.956
349.166
349.166
348.956
348.555
347.999
347.332
346.598
345.838
345.089
344.394
343.853
337.115
337.564
338.149
338.782
339.425
340.045
340.609
341.079
341.417
341.595
341.595
341.417
341.079
340.609
340.045
339.425
338.782
338.149
337.564
337.115
330.375
330.736
331.213
331.731
332.256
332.763
333.224
333.608
333.885
334.03
334.03
333.885
333.608
333.224
332.763
332.256
331.731
331.213
330.736
330.375
323.633
323.91
324.28
324.683
325.091
325.486
325.844
326.142
326.357
326.469
326.469
326.357
326.142
325.844
325.486
325.091
324.683
324.28
323.91
323.633
316.89
317.086
317.35
317.637
317.929
318.211
318.466
318.679
318.833
318.913
318.913
318.833
318.679
318.466
318.211
317.929
317.637
317.35
317.086
316.89
310.145
310.263
310.421
310.593
310.769
310.938
311.091
311.219
311.311
311.36
311.36
311.311
311.219
311.091
310.938
310.769
310.593
310.421
310.263
310.145
303.401
303.44
303.493
303.551
303.61
303.666
303.718
303.761
303.792
303.808
303.808
303.792
303.761
303.718
303.666
303.61
303.551
303.493
303.44
303.401
351.66
352.267
353.03
353.845
354.668
355.46
356.177
356.772
357.2
357.424
357.424
357.2
356.772
356.177
355.46
354.668
353.845
353.03
352.267
351.66
344.78
345.293
345.951
346.657
347.37
348.056
348.676
349.191
349.561
349.755
349.755
349.561
349.191
348.676
348.056
347.37
346.657
345.951
345.293
344.78
337.897
338.324
338.878
339.475
340.078
340.657
341.182
341.617
341.93
342.094
342.094
341.93
341.617
341.182
340.657
340.078
339.475
338.878
338.324
337.897
331.014
331.357
331.809
332.297
332.79
333.264
333.693
334.049
334.304
334.438
334.438
334.304
334.049
333.693
333.264
332.79
332.297
331.809
331.357
331.014
324.129
324.393
324.744
325.123
325.506
325.875
326.208
326.485
326.683
326.787
326.787
326.683
326.485
326.208
325.875
325.506
325.123
324.744
324.393
324.129
317.244
317.431
317.681
317.951
318.225
318.489
318.727
318.924
319.066
319.14
319.14
319.066
318.924
318.727
318.489
318.225
317.951
317.681
317.431
317.244
310.358
310.47
310.62
310.782
310.947
311.105
311.248
311.366
311.451
311.496
311.496
311.451
311.366
311.248
311.105
310.947
310.782
310.62
310.47
310.358
303.472
303.509
303.56
303.614
303.669
303.722
303.77
303.81
303.838
303.853
303.853
303.838
303.81
303.77
303.722
303.669
303.614
303.56
303.509
303.472
352.895
353.469
354.186
354.95
355.717
356.451
357.113
357.66
358.052
358.257
358.257
358.052
357.66
357.113
356.451
355.717
354.95
354.186
353.469
352.895
345.848
346.334
346.953
347.614
348.278
348.914
349.487
349.96
350.3
350.477
350.477
350.3
349.96
349.487
348.914
348.278
347.614
346.953
346.334
345.848
338.8
339.203
339.725
340.284
340.845
341.383
341.867
342.268
342.555
342.705
342.705
342.555
342.268
341.867
341.383
340.845
340.284
339.725
339.203
338.8
331.752
332.076
332.501
332.958
333.418
333.857
334.253
334.581
334.815
334.938
334.938
334.815
334.581
334.253
333.857
333.418
332.958
332.501
332.076
331.752
324.703
324.952
325.282
325.637
325.994
326.336
326.644
326.898
327.081
327.176
327.176
327.081
326.898
326.644
326.336
325.994
325.637
325.282
324.952
324.703
317.654
317.83
318.065
318.319
318.574
318.818
319.038
319.22
319.35
319.418
319.418
319.35
319.22
319.038
318.818
318.574
318.319
318.065
317.83
317.654
310.604
310.709
310.85
311.003
311.156
311.303
311.435
311.544
311.622
311.663
311.663
311.622
311.544
311.435
311.303
311.156
311.003
310.85
310.709
310.604
303.555
303.59
303.637
303.688
303.739
303.789
303.833
303.869
303.896
303.909
303.909
303.896
303.869
303.833
303.789
303.739
303.688
303.637
303.59
303.555
354.3
354.838
355.51
356.221
356.931
357.607
358.214
358.714
359.071
359.257
359.257
359.071
358.714
358.214
357.607
356.931
356.221
355.51
354.838
354.3
347.063
347.519
348.098
348.714
349.329
349.915
350.44
350.873
351.182
351.344
351.344
351.182
350.873
350.44
349.915
349.329
348.714
348.098
347.519
347.063
339.826
340.205
340.693
341.213
341.734
342.229
342.674
343.04
343.301
343.437
343.437
343.301
343.04
342.674
342.229
341.734
341.213
340.693
340.205
339.826
332.59
332.895
333.293
333.718
334.144
334.549
334.913
335.212
335.426
335.537
335.537
335.426
335.212
334.913
334.549
334.144
333.718
333.293
332.895
332.59
325.354
325.588
325.897
326.228
326.559
326.874
327.157
327.389
327.555
327.642
327.642
327.555
327.389
327.157
326.874
326.559
326.228
325.897
325.588
325.354
318.119
318.284
318.504
318.741
318.977
319.202
319.404
319.571
319.689
319.751
319.751
319.689
319.571
319.404
319.202
318.977
318.741
318.504
318.284
318.119
310.883
310.982
311.114
311.256
311.398
311.533
311.655
311.754
311.826
311.863
311.863
311.826
311.754
311.655
311.533
311.398
311.256
311.114
310.982
310.883
303.648
303.681
303.725
303.773
303.821
303.866
303.907
303.94
303.964
303.976
303.976
303.964
303.94
303.907
303.866
303.821
303.773
303.725
303.681
303.648
355.875
356.379
357.004
357.663
358.317
358.937
359.49
359.944
360.267
360.436
360.436
360.267
359.944
359.49
358.937
358.317
357.663
357.004
356.379
355.875
348.426
348.853
349.392
349.962
350.529
351.066
351.545
351.938
352.218
352.364
352.364
352.218
351.938
351.545
351.066
350.529
349.962
349.392
348.853
348.426
340.978
341.332
341.786
342.268
342.748
343.202
343.608
343.94
344.177
344.3
344.3
344.177
343.94
343.608
343.202
342.748
342.268
341.786
341.332
340.978
333.531
333.816
334.187
334.581
334.973
335.345
335.677
335.949
336.142
336.243
336.243
336.142
335.949
335.677
335.345
334.973
334.581
334.187
333.816
333.531
326.086
326.304
326.592
326.898
327.204
327.493
327.751
327.962
328.113
328.191
328.191
328.113
327.962
327.751
327.493
327.204
326.898
326.592
326.304
326.086
318.641
318.796
319.001
319.22
319.438
319.644
319.829
319.98
320.087
320.143
320.143
320.087
319.98
319.829
319.644
319.438
319.22
319.001
318.796
318.641
311.197
311.289
311.412
311.544
311.675
311.799
311.909
312
312.065
312.098
312.098
312.065
312
311.909
311.799
311.675
311.544
311.412
311.289
311.197
303.753
303.784
303.825
303.869
303.913
303.955
303.992
304.022
304.044
304.055
304.055
304.044
304.022
303.992
303.955
303.913
303.869
303.825
303.784
303.753
357.626
358.095
358.674
359.282
359.882
360.447
360.949
361.36
361.651
361.802
361.802
361.651
361.36
360.949
360.447
359.882
359.282
358.674
358.095
357.626
349.94
350.337
350.837
351.363
351.883
352.373
352.808
353.164
353.416
353.547
353.547
353.416
353.164
352.808
352.373
351.883
351.363
350.837
350.337
349.94
342.258
342.587
343.008
343.453
343.893
344.307
344.676
344.976
345.19
345.301
345.301
345.19
344.976
344.676
344.307
343.893
343.453
343.008
342.587
342.258
334.577
334.842
335.185
335.549
335.909
336.248
336.55
336.796
336.97
337.061
337.061
336.97
336.796
336.55
336.248
335.909
335.549
335.185
334.842
334.577
326.898
327.102
327.368
327.651
327.931
328.195
328.429
328.621
328.756
328.827
328.827
328.756
328.621
328.429
328.195
327.931
327.651
327.368
327.102
326.898
319.221
319.365
319.555
319.757
319.957
320.146
320.313
320.45
320.547
320.597
320.597
320.547
320.45
320.313
320.146
319.957
319.757
319.555
319.365
319.221
311.545
311.631
311.745
311.866
311.987
312.1
312.2
312.283
312.341
312.371
312.371
312.341
312.283
312.2
312.1
311.987
311.866
311.745
311.631
311.545
303.87
303.899
303.937
303.978
304.018
304.056
304.09
304.117
304.137
304.147
304.147
304.137
304.117
304.09
304.056
304.018
303.978
303.937
303.899
303.87
359.553
359.989
360.524
361.081
361.629
362.143
362.597
362.967
363.228
363.364
363.364
363.228
362.967
362.597
362.143
361.629
361.081
360.524
359.989
359.553
351.608
351.976
352.438
352.921
353.396
353.841
354.235
354.555
354.782
354.899
354.899
354.782
354.555
354.235
353.841
353.396
352.921
352.438
351.976
351.608
343.666
343.972
344.361
344.769
345.171
345.548
345.881
346.152
346.344
346.443
346.443
346.344
346.152
345.881
345.548
345.171
344.769
344.361
343.972
343.666
335.728
335.974
336.291
336.625
336.954
337.263
337.535
337.757
337.914
337.995
337.995
337.914
337.757
337.535
337.263
336.954
336.625
336.291
335.974
335.728
327.793
327.982
328.228
328.488
328.744
328.984
329.196
329.368
329.49
329.553
329.553
329.49
329.368
329.196
328.984
328.744
328.488
328.228
327.982
327.793
319.86
319.994
320.169
320.355
320.538
320.709
320.861
320.984
321.071
321.116
321.116
321.071
320.984
320.861
320.709
320.538
320.355
320.169
319.994
319.86
311.929
312.008
312.114
312.225
312.335
312.438
312.529
312.603
312.655
312.683
312.683
312.655
312.603
312.529
312.438
312.335
312.225
312.114
312.008
311.929
303.999
304.025
304.06
304.098
304.135
304.169
304.2
304.224
304.242
304.251
304.251
304.242
304.224
304.2
304.169
304.135
304.098
304.06
304.025
303.999
361.659
362.061
362.554
363.064
363.563
364.029
364.438
364.77
365.004
365.125
365.125
365.004
364.77
364.438
364.029
363.563
363.064
362.554
362.061
361.659
353.429
353.77
354.195
354.637
355.07
355.473
355.828
356.116
356.318
356.424
356.424
356.318
356.116
355.828
355.473
355.07
354.637
354.195
353.77
353.429
345.205
345.487
345.845
346.22
346.586
346.927
347.228
347.471
347.643
347.732
347.732
347.643
347.471
347.228
346.927
346.586
346.22
345.845
345.487
345.205
336.985
337.213
337.505
337.811
338.111
338.39
338.636
338.835
338.976
339.048
339.048
338.976
338.835
338.636
338.39
338.111
337.811
337.505
337.213
336.985
328.77
328.944
329.171
329.409
329.642
329.86
330.051
330.206
330.315
330.372
330.372
330.315
330.206
330.051
329.86
329.642
329.409
329.171
328.944
328.77
320.558
320.681
320.843
321.013
321.179
321.335
321.472
321.582
321.66
321.701
321.701
321.66
321.582
321.472
321.335
321.179
321.013
320.843
320.681
320.558
312.348
312.421
312.518
312.62
312.72
312.814
312.896
312.962
313.009
313.034
313.034
313.009
312.962
312.896
312.814
312.72
312.62
312.518
312.421
312.348
304.139
304.164
304.196
304.23
304.264
304.295
304.323
304.345
304.361
304.369
304.369
304.361
304.345
304.323
304.295
304.264
304.23
304.196
304.164
304.139
363.94
364.311
364.763
365.23
365.683
366.104
366.472
366.769
366.978
367.086
367.086
366.978
366.769
366.472
366.104
365.683
365.23
364.763
364.311
363.94
355.402
355.716
356.106
356.51
356.903
357.268
357.587
357.845
358.026
358.12
358.12
358.026
357.845
357.587
357.268
356.903
356.51
356.106
355.716
355.402
346.871
347.132
347.46
347.802
348.135
348.444
348.714
348.932
349.086
349.165
349.165
349.086
348.932
348.714
348.444
348.135
347.802
347.46
347.132
346.871
338.347
338.556
338.825
339.104
339.376
339.629
339.85
340.029
340.155
340.219
340.219
340.155
340.029
339.85
339.629
339.376
339.104
338.825
338.556
338.347
329.828
329.989
330.197
330.414
330.626
330.823
330.995
331.134
331.231
331.282
331.282
331.231
331.134
330.995
330.823
330.626
330.414
330.197
329.989
329.828
321.313
321.427
321.575
321.73
321.882
322.022
322.145
322.245
322.314
322.351
322.351
322.314
322.245
322.145
322.022
321.882
321.73
321.575
321.427
321.313
312.801
312.869
312.958
313.051
313.142
313.226
313.3
313.36
313.402
313.424
313.424
313.402
313.36
313.3
313.226
313.142
313.051
312.958
312.869
312.801
304.291
304.313
304.343
304.375
304.405
304.433
304.458
304.478
304.492
304.499
304.499
304.492
304.478
304.458
304.433
304.405
304.375
304.343
304.313
304.291
366.388
366.73
367.144
367.569
367.98
368.36
368.691
368.957
369.143
369.24
369.24
369.143
368.957
368.691
368.36
367.98
367.569
367.144
366.73
366.388
357.518
357.807
358.164
358.533
358.889
359.218
359.505
359.736
359.898
359.981
359.981
359.898
359.736
359.505
359.218
358.889
358.533
358.164
357.807
357.518
348.657
348.897
349.198
349.51
349.812
350.09
350.333
350.528
350.665
350.736
350.736
350.665
350.528
350.333
350.09
349.812
349.51
349.198
348.897
348.657
339.805
339.998
340.244
340.498
340.746
340.974
341.173
341.333
341.445
341.502
341.502
341.445
341.333
341.173
340.974
340.746
340.498
340.244
339.998
339.805
330.96
331.108
331.299
331.497
331.689
331.867
332.022
332.146
332.233
332.278
332.278
332.233
332.146
332.022
331.867
331.689
331.497
331.299
331.108
330.96
322.121
322.226
322.362
322.503
322.641
322.768
322.878
322.967
323.03
323.062
323.062
323.03
322.967
322.878
322.768
322.641
322.503
322.362
322.226
322.121
313.286
313.348
313.43
313.515
313.598
313.674
313.74
313.794
313.831
313.851
313.851
313.831
313.794
313.74
313.674
313.598
313.515
313.43
313.348
313.286
304.453
304.474
304.501
304.53
304.558
304.583
304.606
304.623
304.636
304.642
304.642
304.636
304.623
304.606
304.583
304.558
304.53
304.501
304.474
304.453
368.978
369.292
369.671
370.059
370.431
370.774
371.071
371.309
371.475
371.561
371.561
371.475
371.309
371.071
370.774
370.431
370.059
369.671
369.292
368.978
359.752
360.017
360.345
360.68
361.004
361.301
361.559
361.765
361.91
361.984
361.984
361.91
361.765
361.559
361.301
361.004
360.68
360.345
360.017
359.752
350.54
350.76
351.036
351.32
351.594
351.845
352.064
352.238
352.361
352.424
352.424
352.361
352.238
352.064
351.845
351.594
351.32
351.036
350.76
350.54
341.34
341.517
341.742
341.975
342.199
342.405
342.584
342.727
342.827
342.879
342.879
342.827
342.727
342.584
342.405
342.199
341.975
341.742
341.517
341.34
332.151
332.287
332.461
332.642
332.817
332.977
333.116
333.228
333.306
333.346
333.346
333.306
333.228
333.116
332.977
332.817
332.642
332.461
332.287
332.151
322.97
323.066
323.191
323.32
323.444
323.559
323.659
323.738
323.794
323.823
323.823
323.794
323.738
323.659
323.559
323.444
323.32
323.191
323.066
322.97
313.795
313.852
313.927
314.005
314.08
314.149
314.208
314.256
314.29
314.307
314.307
314.29
314.256
314.208
314.149
314.08
314.005
313.927
313.852
313.795
304.624
304.643
304.668
304.694
304.719
304.742
304.762
304.778
304.79
304.795
304.795
304.79
304.778
304.762
304.742
304.719
304.694
304.668
304.643
304.624
371.643
371.932
372.279
372.633
372.971
373.281
373.548
373.762
373.911
373.987
373.987
373.911
373.762
373.548
373.281
372.971
372.633
372.279
371.932
371.643
362.04
362.284
362.585
362.891
363.185
363.453
363.686
363.871
364
364.067
364.067
364
363.871
363.686
363.453
363.185
362.891
362.585
362.284
362.04
352.46
352.663
352.916
353.175
353.424
353.652
353.849
354.006
354.115
354.172
354.172
354.115
354.006
353.849
353.652
353.424
353.175
352.916
352.663
352.46
342.9
343.063
343.27
343.482
343.686
343.872
344.034
344.162
344.252
344.298
344.298
344.252
344.162
344.034
343.872
343.686
343.482
343.27
343.063
342.9
333.357
333.482
333.643
333.808
333.967
334.112
334.238
334.338
334.408
334.444
334.444
334.408
334.338
334.238
334.112
333.967
333.808
333.643
333.482
333.357
323.828
323.917
324.031
324.149
324.263
324.367
324.456
324.528
324.578
324.604
324.604
324.578
324.528
324.456
324.367
324.263
324.149
324.031
323.917
323.828
314.309
314.362
314.43
314.501
314.57
314.632
314.686
314.729
314.759
314.775
314.775
314.759
314.729
314.686
314.632
314.57
314.501
314.43
314.362
314.309
304.796
304.814
304.836
304.86
304.883
304.904
304.922
304.937
304.947
304.952
304.952
304.947
304.937
304.922
304.904
304.883
304.86
304.836
304.814
304.796
374.211
374.479
374.799
375.124
375.433
375.715
375.958
376.152
376.286
376.355
376.355
376.286
376.152
375.958
375.715
375.433
375.124
374.799
374.479
374.211
364.219
364.445
364.722
365.004
365.273
365.518
365.73
365.898
366.015
366.075
366.075
366.015
365.898
365.73
365.518
365.273
365.004
364.722
364.445
364.219
354.269
354.456
354.69
354.929
355.157
355.366
355.545
355.687
355.787
355.838
355.838
355.787
355.687
355.545
355.366
355.157
354.929
354.69
354.456
354.269
344.356
344.507
344.698
344.894
345.081
345.252
345.399
345.516
345.597
345.639
345.639
345.597
345.516
345.399
345.252
345.081
344.894
344.698
344.507
344.356
334.475
334.591
334.739
334.892
335.038
335.171
335.285
335.376
335.44
335.472
335.472
335.44
335.376
335.285
335.171
335.038
334.892
334.739
334.591
334.475
324.618
324.701
324.807
324.916
325.02
325.115
325.197
325.263
325.308
325.331
325.331
325.308
325.263
325.197
325.115
325.02
324.916
324.807
324.701
324.618
314.78
314.83
314.893
314.959
315.021
315.079
315.128
315.167
315.194
315.209
315.209
315.194
315.167
315.128
315.079
315.021
314.959
314.893
314.83
314.78
304.953
304.97
304.991
305.013
305.034
305.053
305.07
305.083
305.092
305.097
305.097
305.092
305.083
305.07
305.053
305.034
305.013
304.991
304.97
304.953
376.231
376.482
376.783
377.088
377.377
377.64
377.866
378.046
378.171
378.235
378.235
378.171
378.046
377.866
377.64
377.377
377.088
376.783
376.482
376.231
365.866
366.08
366.341
366.606
366.859
367.088
367.286
367.442
367.551
367.607
367.607
367.551
367.442
367.286
367.088
366.859
366.606
366.341
366.08
365.866
355.594
355.772
355.993
356.218
356.433
356.628
356.796
356.929
357.022
357.069
357.069
357.022
356.929
356.796
356.628
356.433
356.218
355.993
355.772
355.594
345.396
345.54
345.721
345.906
346.082
346.243
346.381
346.49
346.566
346.605
346.605
346.566
346.49
346.381
346.243
346.082
345.906
345.721
345.54
345.396
335.258
335.369
335.509
335.654
335.791
335.917
336.024
336.11
336.169
336.2
336.2
336.169
336.11
336.024
335.917
335.791
335.654
335.509
335.369
335.258
325.165
325.243
325.344
325.447
325.546
325.636
325.713
325.774
325.817
325.839
325.839
325.817
325.774
325.713
325.636
325.546
325.447
325.344
325.243
325.165
315.104
315.15
315.211
315.273
315.332
315.386
315.433
315.469
315.495
315.508
315.508
315.495
315.469
315.433
315.386
315.332
315.273
315.211
315.15
315.104
305.061
305.076
305.097
305.118
305.137
305.156
305.171
305.183
305.192
305.197
305.197
305.192
305.183
305.171
305.156
305.137
305.118
305.097
305.076
305.061
)
;

boundaryField
{
    hotSide
    {
        type            fixedGradient;
        gradient        nonuniform List<scalar> 
400
(
504.269
505.877
509.102
513.959
520.469
528.662
538.569
550.225
563.666
578.927
596.045
615.051
635.977
658.848
683.69
710.521
739.36
770.22
803.111
838.043
514.154
515.684
518.755
523.388
529.612
537.465
546.988
558.227
571.228
586.038
602.699
621.252
641.734
664.177
688.608
715.05
743.522
774.039
806.613
841.25
524.852
526.289
529.177
533.544
539.429
546.881
555.956
566.711
579.205
593.497
609.64
627.683
647.67
669.639
693.62
719.639
747.717
777.868
810.103
844.43
536.185
537.513
540.189
544.247
549.742
556.735
565.298
575.504
587.429
601.144
616.714
634.199
653.649
675.108
698.609
724.182
751.846
781.616
813.503
847.513
547.838
549.043
551.479
555.194
560.252
566.737
574.736
584.344
595.651
608.746
623.706
640.601
659.489
680.418
703.426
728.542
755.787
785.176
816.716
850.412
559.323
560.398
562.578
565.925
570.522
576.47
583.879
592.863
603.534
615.993
630.334
646.635
664.961
685.366
707.89
732.562
759.403
788.426
819.635
853.034
569.983
570.927
572.853
575.835
579.975
585.394
592.226
600.605
610.661
622.512
636.265
652.006
669.807
689.726
711.804
736.07
762.544
791.236
822.15
855.284
579.031
579.857
581.554
584.208
587.939
592.888
599.208
607.054
616.572
627.895
641.139
656.4
673.755
693.262
714.965
738.892
765.061
793.48
824.15
857.068
585.653
586.388
587.909
590.313
593.733
598.325
604.259
611.704
620.819
631.75
644.618
659.525
676.553
695.76
717.191
740.873
766.822
795.046
825.543
858.307
589.161
589.847
591.273
593.541
596.791
601.19
606.915
614.144
623.044
633.764
646.432
661.151
678.005
697.054
718.342
741.895
767.73
795.851
826.258
858.943
589.161
589.847
591.273
593.541
596.791
601.19
606.915
614.144
623.044
633.764
646.432
661.151
678.005
697.054
718.342
741.895
767.73
795.851
826.258
858.943
585.653
586.388
587.909
590.313
593.733
598.325
604.259
611.704
620.819
631.75
644.618
659.525
676.553
695.76
717.191
740.873
766.822
795.046
825.543
858.307
579.031
579.857
581.554
584.208
587.939
592.888
599.208
607.054
616.572
627.895
641.139
656.4
673.755
693.262
714.965
738.892
765.061
793.48
824.15
857.068
569.983
570.927
572.853
575.835
579.975
585.394
592.226
600.605
610.661
622.512
636.265
652.006
669.807
689.726
711.804
736.07
762.544
791.236
822.15
855.284
559.323
560.398
562.578
565.925
570.522
576.47
583.879
592.863
603.534
615.993
630.334
646.635
664.961
685.366
707.89
732.562
759.403
788.426
819.635
853.034
547.838
549.043
551.479
555.194
560.252
566.737
574.736
584.344
595.651
608.746
623.706
640.601
659.489
680.418
703.426
728.542
755.787
785.176
816.716
850.412
536.185
537.513
540.189
544.247
549.742
556.735
565.298
575.504
587.429
601.144
616.714
634.199
653.649
675.108
698.609
724.182
751.846
781.616
813.503
847.513
524.852
526.289
529.177
533.544
539.429
546.881
555.956
566.711
579.205
593.497
609.64
627.683
647.67
669.639
693.62
719.639
747.717
777.868
810.103
844.43
514.154
515.684
518.755
523.388
529.612
537.465
546.988
558.227
571.228
586.038
602.699
621.252
641.734
664.177
688.608
715.05
743.522
774.039
806.613
841.25
504.269
505.877
509.102
513.959
520.469
528.662
538.569
550.225
563.666
578.927
596.045
615.051
635.977
658.848
683.69
710.521
739.36
770.22
803.111
838.043
)
;
    }
    coldSide
    {
        type            mixed;
        refValue        uniform 300;
        refGradient     uniform 0;
        valueFraction   uniform 0.991591;
        source          uniform 0;
        value           nonuniform List<scalar> 
400
(
300.027
300.027
300.027
300.027
300.028
300.028
300.029
300.029
300.03
300.031
300.032
300.033
300.034
300.035
300.036
300.037
300.039
300.04
300.042
300.043
300.027
300.027
300.027
300.028
300.028
300.028
300.029
300.03
300.03
300.031
300.032
300.033
300.034
300.035
300.036
300.038
300.039
300.04
300.042
300.043
300.028
300.028
300.028