/*--------------------------------*- C++ -*----------------------------------*\
| =========                 |                                                 |
| \\      /  F ield         | OpenFOAM: The Open Source CFD Toolbox           |
|  \\    /   O peration     | Version:  2212                                  |
|   \\  /    A nd           | Website:  www.openfoam.com                      |
|    \\/     M anipulation  |                                                 |
\*---------------------------------------------------------------------------*/
FoamFile
{
    version     2.0;
    format      ascii;
    arch        "LSB;label=32;scalar=64";
    class       volScalarField;
    location    "./ITHACAoutput/true/8.4";
    object      trueState;
}
// * * * * * * * * * * * * * * * * * * * * * * * * * * * * * * * * * * * * * //

dimensions      [0 0 0 1 0 0 0];

internalField   nonuniform List<scalar> 
3200
(
346.663
347.203
347.893
348.644
349.418
350.178
350.879
351.471
351.902
352.13
352.13
351.902
351.471
350.879
350.178
349.418
348.644
347.893
347.203
346.663
340.523
340.98
341.575
342.225
342.895
343.552
344.158
344.669
345.042
345.239
345.239
345.042
344.669
344.158
343.552
342.895
342.225
341.575
340.98
340.523
334.349
334.728
335.229
335.778
336.344
336.9
337.412
337.843
338.157
338.323
338.323
338.157
337.843
337.412
336.9
336.344
335.778
335.229
334.728
334.349
328.147
328.452
328.86
329.309
329.772
330.226
330.644
330.996
331.253
331.388
331.388
331.253
330.996
330.644
330.226
329.772
329.309
328.86
328.452
328.147
321.921
322.156
322.473
322.821
323.181
323.534
323.858
324.132
324.331
324.436
324.436
324.331
324.132
323.858
323.534
323.181
322.821
322.473
322.156
321.921
315.678
315.844
316.07
316.319
316.576
316.828
317.06
317.255
317.397
317.472
317.472
317.397
317.255
317.06
316.828
316.576
316.319
316.07
315.844
315.678
309.423
309.522
309.657
309.807
309.961
310.112
310.251
310.368
310.454
310.499
310.499
310.454
310.368
310.251
310.112
309.961
309.807
309.657
309.522
309.423
303.159
303.193
303.238
303.288
303.34
303.39
303.437
303.476
303.505
303.52
303.52
303.505
303.476
303.437
303.39
303.34
303.288
303.238
303.193
303.159
346.829
347.365
348.048
348.793
349.559
350.31
351.003
351.588
352.013
352.238
352.238
352.013
351.588
351.003
350.31
349.559
348.793
348.048
347.365
346.829
340.667
341.12
341.71
342.354
343.017
343.667
344.266
344.771
345.139
345.333
345.333
345.139
344.771
344.266
343.667
343.017
342.354
341.71
341.12
340.667
334.471
334.847
335.344
335.888
336.448
336.997
337.503
337.93
338.24
338.403
338.403
338.24
337.93
337.503
336.997
336.448
335.888
335.344
334.847
334.471
328.246
328.549
328.954
329.399
329.857
330.306
330.719
331.067
331.32
331.454
331.454
331.32
331.067
330.719
330.306
329.857
329.399
328.954
328.549
328.246
321.999
322.231
322.546
322.891
323.247
323.596
323.917
324.187
324.384
324.488
324.488
324.384
324.187
323.917
323.596
323.247
322.891
322.546
322.231
321.999
315.734
315.898
316.122
316.369
316.623
316.872
317.101
317.294
317.435
317.509
317.509
317.435
317.294
317.101
316.872
316.623
316.369
316.122
315.898
315.734
309.456
309.554
309.688
309.837
309.989
310.139
310.276
310.392
310.476
310.521
310.521
310.476
310.392
310.276
310.139
309.989
309.837
309.688
309.554
309.456
303.171
303.203
303.248
303.298
303.349
303.399
303.445
303.484
303.512
303.527
303.527
303.512
303.484
303.445
303.399
303.349
303.298
303.248
303.203
303.171
347.161
347.688
348.361
349.091
349.842
350.577
351.254
351.824
352.239
352.458
352.458
352.239
351.824
351.254
350.577
349.842
349.091
348.361
347.688
347.161
340.955
341.401
341.981
342.613
343.263
343.899
344.484
344.977
345.335
345.524
345.524
345.335
344.977
344.484
343.899
343.263
342.613
341.981
341.401
340.955
334.715
335.085
335.573
336.107
336.657
337.194
337.688
338.104
338.406
338.566
338.566
338.406
338.104
337.688
337.194
336.657
336.107
335.573
335.085
334.715
328.446
328.744
329.142
329.579
330.028
330.467
330.871
331.21
331.457
331.587
331.587
331.457
331.21
330.871
330.467
330.028
329.579
329.142
328.744
328.446
322.154
322.383
322.692
323.031
323.38
323.721
324.035
324.299
324.491
324.592
324.592
324.491
324.299
324.035
323.721
323.38
323.031
322.692
322.383
322.154
315.845
316.007
316.227
316.469
316.718
316.962
317.186
317.374
317.511
317.583
317.583
317.511
317.374
317.186
316.962
316.718
316.469
316.227
316.007
315.845
309.523
309.619
309.751
309.897
310.046
310.193
310.327
310.44
310.522
310.566
310.566
310.522
310.44
310.327
310.193
310.046
309.897
309.751
309.619
309.523
303.193
303.225
303.27
303.318
303.368
303.417
303.462
303.5
303.528
303.542
303.542
303.528
303.5
303.462
303.417
303.368
303.318
303.27
303.225
303.193
347.661
348.176
348.831
349.542
350.27
350.982
351.636
352.186
352.585
352.795
352.795
352.585
352.186
351.636
350.982
350.27
349.542
348.831
348.176
347.661
341.388
341.824
342.389
343.004
343.635
344.251
344.816
345.291
345.636
345.818
345.818
345.636
345.291
344.816
344.251
343.635
343.004
342.389
341.824
341.388
335.082
335.443
335.919
336.439
336.972
337.492
337.97
338.371
338.662
338.816
338.816
338.662
338.371
337.97
337.492
336.972
336.439
335.919
335.443
335.082
328.747
329.038
329.426
329.85
330.286
330.711
331.102
331.429
331.667
331.792
331.792
331.667
331.429
331.102
330.711
330.286
329.85
329.426
329.038
328.747
322.388
322.612
322.913
323.243
323.582
323.912
324.215
324.47
324.654
324.752
324.752
324.654
324.47
324.215
323.912
323.582
323.243
322.913
322.612
322.388
316.012
316.17
316.385
316.621
316.862
317.098
317.315
317.497
317.628
317.698
317.698
317.628
317.497
317.315
317.098
316.862
316.621
316.385
316.17
316.012
309.623
309.718
309.846
309.988
310.133
310.275
310.405
310.514
310.593
310.634
310.634
310.593
310.514
310.405
310.275
310.133
309.988
309.846
309.718
309.623
303.227
303.258
303.301
303.349
303.397
303.445
303.488
303.525
303.551
303.565
303.565
303.551
303.525
303.488
303.445
303.397
303.349
303.301
303.258
303.227
348.33
348.829
349.463
350.148
350.849
351.531
352.156
352.68
353.059
353.259
353.259
353.059
352.68
352.156
351.531
350.849
350.148
349.463
348.829
348.33
341.969
342.391
342.938
343.531
344.137
344.727
345.268
345.721
346.049
346.222
346.222
346.049
345.721
345.268
344.727
344.137
343.531
342.938
342.391
341.969
335.573
335.924
336.384
336.885
337.398
337.896
338.353
338.736
339.013
339.159
339.159
339.013
338.736
338.353
337.896
337.398
336.885
336.384
335.924
335.573
329.149
329.431
329.806
330.216
330.635
331.043
331.416
331.728
331.955
332.074
332.074
331.955
331.728
331.416
331.043
330.635
330.216
329.806
329.431
329.149
322.701
322.918
323.209
323.527
323.853
324.17
324.46
324.703
324.879
324.971
324.971
324.879
324.703
324.46
324.17
323.853
323.527
323.209
322.918
322.701
316.236
316.389
316.597
316.824
317.057
317.283
317.49
317.663
317.789
317.855
317.855
317.789
317.663
317.49
317.283
317.057
316.824
316.597
316.389
316.236
309.758
309.849
309.974
310.11
310.25
310.386
310.51
310.614
310.689
310.729
310.729
310.689
310.614
310.51
310.386
310.25
310.11
309.974
309.849
309.758
303.272
303.302
303.344
303.39
303.437
303.482
303.524
303.559
303.584
303.597
303.597
303.584
303.559
303.524
303.482
303.437
303.39
303.344
303.302
303.272
349.17
349.651
350.259
350.914
351.582
352.229
352.821
353.315
353.672
353.86
353.86
353.672
353.315
352.821
352.229
351.582
350.914
350.259
349.651
349.17
342.697
343.104
343.629
344.196
344.774
345.334
345.846
346.273
346.582
346.745
346.745
346.582
346.273
345.846
345.334
344.774
344.196
343.629
343.104
342.697
336.19
336.527
336.969
337.449
337.937
338.411
338.843
339.204
339.465
339.602
339.602
339.465
339.204
338.843
338.411
337.937
337.449
336.969
336.527
336.19
329.654
329.925
330.286
330.678
331.077
331.464
331.818
332.113
332.326
332.438
332.438
332.326
332.113
331.818
331.464
331.077
330.678
330.286
329.925
329.654
323.094
323.303
323.582
323.887
324.198
324.499
324.773
325.002
325.168
325.255
325.255
325.168
325.002
324.773
324.499
324.198
323.887
323.582
323.303
323.094
316.517
316.664
316.864
317.081
317.303
317.518
317.714
317.878
317.996
318.058
318.058
317.996
317.878
317.714
317.518
317.303
317.081
316.864
316.664
316.517
309.926
310.015
310.134
310.265
310.398
310.527
310.645
310.743
310.814
310.851
310.851
310.814
310.743
310.645
310.527
310.398
310.265
310.134
310.015
309.926
303.328
303.358
303.398
303.442
303.486
303.529
303.569
303.602
303.626
303.638
303.638
303.626
303.602
303.569
303.529
303.486
303.442
303.398
303.358
303.328
350.184
350.643
351.223
351.845
352.475
353.085
353.639
354.101
354.434
354.609
354.609
354.434
354.101
353.639
353.085
352.475
351.845
351.223
350.643
350.184
343.576
343.965
344.465
345.003
345.55
346.077
346.557
346.957
347.245
347.396
347.396
347.245
346.957
346.557
346.077
345.55
345.003
344.465
343.965
343.576
336.934
337.257
337.678
338.133
338.595
339.041
339.446
339.784
340.027
340.155
340.155
340.027
339.784
339.446
339.041
338.595
338.133
337.678
337.257
336.934
330.263
330.523
330.866
331.238
331.616
331.981
332.312
332.588
332.787
332.891
332.891
332.787
332.588
332.312
331.981
331.616
331.238
330.866
330.523
330.263
323.569
323.768
324.034
324.324
324.617
324.901
325.158
325.373
325.527
325.608
325.608
325.527
325.373
325.158
324.901
324.617
324.324
324.034
323.768
323.569
316.856
316.997
317.187
317.393
317.603
317.806
317.99
318.143
318.253
318.311
318.311
318.253
318.143
317.99
317.806
317.603
317.393
317.187
316.997
316.856
310.13
310.214
310.328
310.452
310.578
310.7
310.81
310.902
310.968
311.003
311.003
310.968
310.902
310.81
310.7
310.578
310.452
310.328
310.214
310.13
303.397
303.425
303.463
303.504
303.547
303.587
303.624
303.655
303.677
303.689
303.689
303.677
303.655
303.624
303.587
303.547
303.504
303.463
303.425
303.397
351.373
351.81
352.358
352.944
353.536
354.105
354.621
355.049
355.356
355.518
355.518
355.356
355.049
354.621
354.105
353.536
352.944
352.358
351.81
351.373
344.608
344.977
345.451
345.958
346.47
346.963
347.409
347.78
348.046
348.185
348.185
348.046
347.78
347.409
346.963
346.47
345.958
345.451
344.977
344.608
337.808
338.114
338.513
338.942
339.375
339.792
340.169
340.482
340.707
340.825
340.825
340.707
340.482
340.169
339.792
339.375
338.942
338.513
338.114
337.808
330.979
331.225
331.55
331.901
332.255
332.596
332.904
333.16
333.344
333.44
333.44
333.344
333.16
332.904
332.596
332.255
331.901
331.55
331.225
330.979
324.125
324.315
324.567
324.839
325.115
325.38
325.62
325.818
325.961
326.036
326.036
325.961
325.818
325.62
325.38
325.115
324.839
324.567
324.315
324.125
317.254
317.388
317.568
317.762
317.959
318.148
318.32
318.462
318.564
318.617
318.617
318.564
318.462
318.32
318.148
317.959
317.762
317.568
317.388
317.254
310.369
310.449
310.557
310.674
310.792
310.906
311.009
311.094
311.155
311.187
311.187
311.155
311.094
311.009
310.906
310.792
310.674
310.557
310.449
310.369
303.477
303.503
303.54
303.579
303.618
303.657
303.691
303.72
303.74
303.751
303.751
303.74
303.72
303.691
303.657
303.618
303.579
303.54
303.503
303.477
352.741
353.153
353.669
354.218
354.77
355.297
355.773
356.166
356.448
356.596
356.596
356.448
356.166
355.773
355.297
354.77
354.218
353.669
353.153
352.741
345.794
346.143
346.588
347.064
347.541
347.998
348.41
348.751
348.995
349.122
349.122
348.995
348.751
348.41
347.998
347.541
347.064
346.588
346.143
345.794
338.813
339.102
339.477
339.879
340.283
340.669
341.017
341.305
341.511
341.619
341.619
341.511
341.305
341.017
340.669
340.283
339.879
339.477
339.102
338.813
331.801
332.034
332.34
332.668
332.999
333.315
333.6
333.835
334.003
334.092
334.092
334.003
333.835
333.6
333.315
332.999
332.668
332.34
332.034
331.801
324.766
324.944
325.182
325.437
325.694
325.94
326.161
326.344
326.475
326.544
326.544
326.475
326.344
326.161
325.94
325.694
325.437
325.182
324.944
324.766
317.711
317.838
318.007
318.19
318.373
318.549
318.707
318.838
318.931
318.98
318.98
318.931
318.838
318.707
318.549
318.373
318.19
318.007
317.838
317.711
310.644
310.72
310.821
310.931
311.041
311.146
311.241
311.32
311.376
311.405
311.405
311.376
311.32
311.241
311.146
311.041
310.931
310.821
310.72
310.644
303.569
303.594
303.628
303.665
303.702
303.737
303.769
303.795
303.814
303.824
303.824
303.814
303.795
303.769
303.737
303.702
303.665
303.628
303.594
303.569
354.29
354.677
355.16
355.671
356.182
356.668
357.104
357.463
357.72
357.854
357.854
357.72
357.463
357.104
356.668
356.182
355.671
355.16
354.677
354.29
347.138
347.466
347.882
348.325
348.767
349.188
349.566
349.877
350.099
350.215
350.215
350.099
349.877
349.566
349.188
348.767
348.325
347.882
347.466
347.138
339.95
340.222
340.573
340.947
341.321
341.677
341.997
342.26
342.448
342.546
342.546
342.448
342.26
341.997
341.677
341.321
340.947
340.573
340.222
339.95
332.732
332.951
333.237
333.543
333.849
334.141
334.402
334.617
334.771
334.851
334.851
334.771
334.617
334.402
334.141
333.849
333.543
333.237
332.951
332.732
325.49
325.658
325.88
326.118
326.356
326.583
326.786
326.953
327.073
327.135
327.135
327.073
326.953
326.786
326.583
326.356
326.118
325.88
325.658
325.49
318.23
318.349
318.507
318.677
318.847
319.009
319.154
319.273
319.359
319.403
319.403
319.359
319.273
319.154
319.009
318.847
318.677
318.507
318.349
318.23
310.955
311.026
311.121
311.223
311.326
311.423
311.51
311.582
311.633
311.66
311.66
311.633
311.582
311.51
311.423
311.326
311.223
311.121
311.026
310.955
303.673
303.697
303.729
303.763
303.797
303.83
303.859
303.883
303.9
303.909
303.909
303.9
303.883
303.859
303.83
303.797
303.763
303.729
303.697
303.673
356.022
356.384
356.834
357.307
357.777
358.223
358.621
358.947
359.18
359.301
359.301
359.18
358.947
358.621
358.223
357.777
357.307
356.834
356.384
356.022
348.64
348.947
349.334
349.744
350.152
350.538
350.883
351.165
351.367
351.471
351.471
351.367
351.165
350.883
350.538
350.152
349.744
349.334
348.947
348.64
341.222
341.476
341.803
342.15
342.495
342.821
343.113
343.352
343.522
343.611
343.611
343.522
343.352
343.113
342.821
342.495
342.15
341.803
341.476
341.222
333.774
333.979
334.245
334.528
334.811
335.078
335.316
335.512
335.651
335.723
335.723
335.651
335.512
335.316
335.078
334.811
334.528
334.245
333.979
333.774
326.301
326.458
326.665
326.885
327.105
327.313
327.498
327.65
327.758
327.815
327.815
327.758
327.65
327.498
327.313
327.105
326.885
326.665
326.458
326.301
318.809
318.92
319.068
319.225
319.382
319.53
319.663
319.772
319.849
319.889
319.889
319.849
319.772
319.663
319.53
319.382
319.225
319.068
318.92
318.809
311.304
311.37
311.458
311.553
311.647
311.736
311.816
311.881
311.928
311.952
311.952
311.928
311.881
311.816
311.736
311.647
311.553
311.458
311.37
311.304
303.79
303.812
303.842
303.873
303.905
303.935
303.962
303.983
303.999
304.007
304.007
303.999
303.983
303.962
303.935
303.905
303.873
303.842
303.812
303.79
357.939
358.277
358.693
359.13
359.561
359.967
360.329
360.624
360.833
360.942
360.942
360.833
360.624
360.329
359.967
359.561
359.13
358.693
358.277
357.939
350.303
350.589
350.948
351.326
351.7
352.052
352.365
352.621
352.802
352.896
352.896
352.802
352.621
352.365
352.052
351.7
351.326
350.948
350.589
350.303
342.631
342.867
343.17
343.49
343.806
344.104
344.369
344.585
344.739
344.818
344.818
344.739
344.585
344.369
344.104
343.806
343.49
343.17
342.867
342.631
334.927
335.118
335.365
335.626
335.885
336.129
336.345
336.522
336.648
336.713
336.713
336.648
336.522
336.345
336.129
335.885
335.626
335.365
335.118
334.927
327.199
327.345
327.536
327.74
327.941
328.131
328.299
328.437
328.534
328.585
328.585
328.534
328.437
328.299
328.131
327.941
327.74
327.536
327.345
327.199
319.451
319.554
319.691
319.836
319.98
320.115
320.236
320.334
320.404
320.44
320.44
320.404
320.334
320.236
320.115
319.98
319.836
319.691
319.554
319.451
311.689
311.751
311.833
311.92
312.006
312.088
312.16
312.219
312.261
312.283
312.283
312.261
312.219
312.16
312.088
312.006
311.92
311.833
311.751
311.689
303.919
303.94
303.967
303.997
304.026
304.053
304.077
304.097
304.111
304.118
304.118
304.111
304.097
304.077
304.053
304.026
303.997
303.967
303.94
303.919
360.043
360.356
360.741
361.142
361.536
361.905
362.232
362.497
362.685
362.783
362.783
362.685
362.497
362.232
361.905
361.536
361.142
360.741
360.356
360.043
352.128
352.393
352.725
353.072
353.414
353.734
354.017
354.247
354.41
354.494
354.494
354.41
354.247
354.017
353.734
353.414
353.072
352.725
352.393
352.128
344.176
344.395
344.675
344.969
345.258
345.529
345.768
345.963
346.101
346.172
346.172
346.101
345.963
345.768
345.529
345.258
344.969
344.675
344.395
344.176
336.192
336.369
336.597
336.837
337.074
337.295
337.491
337.651
337.764
337.822
337.822
337.764
337.651
337.491
337.295
337.074
336.837
336.597
336.369
336.192
328.183
328.319
328.496
328.683
328.867
329.039
329.192
329.316
329.403
329.449
329.449
329.403
329.316
329.192
329.039
328.867
328.683
328.496
328.319
328.183
320.155
320.251
320.377
320.51
320.642
320.765
320.874
320.962
321.025
321.058
321.058
321.025
320.962
320.874
320.765
320.642
320.51
320.377
320.251
320.155
312.112
312.169
312.245
312.325
312.404
312.478
312.544
312.597
312.634
312.654
312.654
312.634
312.597
312.544
312.478
312.404
312.325
312.245
312.169
312.112
304.061
304.08
304.106
304.132
304.159
304.184
304.206
304.223
304.236
304.243
304.243
304.236
304.223
304.206
304.184
304.159
304.132
304.106
304.08
304.061
362.334
362.623
362.977
363.344
363.703
364.038
364.332
364.571
364.739
364.826
364.826
364.739
364.571
364.332
364.038
363.703
363.344
362.977
362.623
362.334
354.115
354.36
354.665
354.983
355.294
355.584
355.839
356.046
356.192
356.268
356.268
356.192
356.046
355.839
355.584
355.294
354.983
354.665
354.36
354.115
345.858
346.061
346.318
346.587
346.851
347.096
347.312
347.487
347.61
347.674
347.674
347.61
347.487
347.312
347.096
346.851
346.587
346.318
346.061
345.858
337.569
337.732
337.942
338.162
338.378
338.579
338.756
338.899
339
339.052
339.052
339
338.899
338.756
338.579
338.378
338.162
337.942
337.732
337.569
329.255
329.38
329.543
329.714
329.882
330.038
330.176
330.287
330.366
330.406
330.406
330.366
330.287
330.176
330.038
329.882
329.714
329.543
329.38
329.255
320.921
321.009
321.125
321.248
321.367
321.479
321.578
321.657
321.713
321.742
321.742
321.713
321.657
321.578
321.479
321.367
321.248
321.125
321.009
320.921
312.572
312.625
312.695
312.768
312.84
312.907
312.966
313.014
313.048
313.065
313.065
313.048
313.014
312.966
312.907
312.84
312.768
312.695
312.625
312.572
304.215
304.233
304.256
304.281
304.305
304.328
304.347
304.363
304.375
304.381
304.381
304.375
304.363
304.347
304.328
304.305
304.281
304.256
304.233
304.215
364.808
365.075
365.4
365.735
366.061
366.363
366.628
366.842
366.992
367.07
367.07
366.992
366.842
366.628
366.363
366.061
365.735
365.4
365.075
364.808
356.26
356.485
356.766
357.056
357.339
357.601
357.831
358.016
358.146
358.214
358.214
358.146
358.016
357.831
357.601
357.339
357.056
356.766
356.485
356.26
347.673
347.86
348.097
348.343
348.582
348.804
348.998
349.155
349.265
349.322
349.322
349.265
349.155
348.998
348.804
348.582
348.343
348.097
347.86
347.673
339.055
339.206
339.398
339.599
339.795
339.977
340.136
340.264
340.355
340.401
340.401
340.355
340.264
340.136
339.977
339.795
339.599
339.398
339.206
339.055
330.411
330.527
330.676
330.832
330.985
331.126
331.25
331.35
331.42
331.456
331.456
331.42
331.35
331.25
331.126
330.985
330.832
330.676
330.527
330.411
321.747
321.829
321.935
322.047
322.156
322.257
322.345
322.417
322.467
322.493
322.493
322.467
322.417
322.345
322.257
322.156
322.047
321.935
321.829
321.747
313.069
313.117
313.181
313.248
313.314
313.374
313.428
313.471
313.501
313.516
313.516
313.501
313.471
313.428
313.374
313.314
313.248
313.181
313.117
313.069
304.382
304.398
304.419
304.442
304.464
304.484
304.502
304.516
304.526
304.532
304.532
304.526
304.516
304.502
304.484
304.464
304.442
304.419
304.398
304.382
367.455
367.7
367.998
368.304
368.599
368.872
369.11
369.301
369.435
369.505
369.505
369.435
369.301
369.11
368.872
368.599
368.304
367.998
367.7
367.455
358.552
358.76
359.017
359.282
359.538
359.775
359.981
360.147
360.264
360.324
360.324
360.264
360.147
359.981
359.775
359.538
359.282
359.017
358.76
358.552
349.613
349.785
350.002
350.226
350.443
350.643
350.818
350.958
351.057
351.107
351.107
351.057
350.958
350.818
350.643
350.443
350.226
350.002
349.785
349.613
340.641
340.78
340.957
341.14
341.318
341.482
341.625
341.74
341.82
341.862
341.862
341.82
341.74
341.625
341.482
341.318
341.14
340.957
340.78
340.641
331.645
331.751
331.888
332.031
332.169
332.297
332.408
332.497
332.56
332.592
332.592
332.56
332.497
332.408
332.297
332.169
332.031
331.888
331.751
331.645
322.628
322.703
322.801
322.903
323.002
323.093
323.173
323.237
323.281
323.305
323.305
323.281
323.237
323.173
323.093
323.002
322.903
322.801
322.703
322.628
313.598
313.643
313.701
313.763
313.822
313.877
313.924
313.963
313.99
314.004
314.004
313.99
313.963
313.924
313.877
313.822
313.763
313.701
313.643
313.598
304.559
304.574
304.594
304.614
304.634
304.653
304.669
304.681
304.69
304.695
304.695
304.69
304.681
304.669
304.653
304.634
304.614
304.594
304.574
304.559
370.245
370.471
370.744
371.022
371.29
371.536
371.75
371.921
372.041
372.102
372.102
372.041
371.921
371.75
371.536
371.29
371.022
370.744
370.471
370.245
360.966
361.157
361.392
361.633
361.866
362.079
362.265
362.413
362.517
362.57
362.57
362.517
362.413
362.265
362.079
361.866
361.633
361.392
361.157
360.966
351.65
351.809
352.007
352.211
352.408
352.589
352.746
352.872
352.96
353.005
353.005
352.96
352.872
352.746
352.589
352.408
352.211
352.007
351.809
351.65
342.306
342.433
342.595
342.762
342.923
343.071
343.2
343.303
343.375
343.412
343.412
343.375
343.303
343.2
343.071
342.923
342.762
342.595
342.433
342.306
332.937
333.035
333.161
333.291
333.416
333.531
333.631
333.712
333.768
333.796
333.796
333.768
333.712
333.631
333.531
333.416
333.291
333.161
333.035
332.937
323.551
323.62
323.71
323.802
323.892
323.975
324.046
324.103
324.143
324.164
324.164
324.143
324.103
324.046
323.975
323.892
323.802
323.71
323.62
323.551
314.152
314.193
314.247
314.302
314.356
314.406
314.449
314.483
314.507
314.52
314.52
314.507
314.483
314.449
314.406
314.356
314.302
314.247
314.193
314.152
304.745
304.758
304.776
304.795
304.813
304.83
304.844
304.856
304.864
304.868
304.868
304.864
304.856
304.844
304.83
304.813
304.795
304.776
304.758
304.745
373.106
373.314
373.564
373.818
374.061
374.284
374.476
374.63
374.737
374.792
374.792
374.737
374.63
374.476
374.284
374.061
373.818
373.564
373.314
373.106
363.428
363.604
363.82
364.04
364.251
364.445
364.612
364.745
364.838
364.886
364.886
364.838
364.745
364.612
364.445
364.251
364.04
363.82
363.604
363.428
353.721
353.867
354.049
354.236
354.415
354.578
354.72
354.833
354.912
354.952
354.952
354.912
354.833
354.72
354.578
354.415
354.236
354.049
353.867
353.721
343.991
344.108
344.257
344.41
344.556
344.69
344.806
344.899
344.963
344.997
344.997
344.963
344.899
344.806
344.69
344.556
344.41
344.257
344.108
343.991
334.243
334.333
334.448
334.567
334.681
334.785
334.876
334.948
334.998
335.024
335.024
334.998
334.948
334.876
334.785
334.681
334.567
334.448
334.333
334.243
324.48
324.544
324.626
324.711
324.793
324.867
324.932
324.984
325.02
325.038
325.038
325.02
324.984
324.932
324.867
324.793
324.711
324.626
324.544
324.48
314.709
314.747
314.796
314.847
314.896
314.941
314.98
315.011
315.032
315.043
315.043
315.032
315.011
314.98
314.941
314.896
314.847
314.796
314.747
314.709
304.931
304.944
304.96
304.977
304.994
305.009
305.022
305.032
305.04
305.043
305.043
305.04
305.032
305.022
305.009
304.994
304.977
304.96
304.944
304.931
375.853
376.045
376.276
376.509
376.732
376.934
377.109
377.248
377.345
377.395
377.395
377.345
377.248
377.109
376.934
376.732
376.509
376.276
376.045
375.853
365.764
365.927
366.126
366.328
366.522
366.698
366.85
366.971
367.055
367.098
367.098
367.055
366.971
366.85
366.698
366.522
366.328
366.126
365.927
365.764
355.664
355.799
355.967
356.139
356.303
356.453
356.582
356.684
356.756
356.792
356.792
356.756
356.684
356.582
356.453
356.303
356.139
355.967
355.799
355.664
345.558
345.667
345.804
345.945
346.079
346.202
346.308
346.392
346.45
346.48
346.48
346.45
346.392
346.308
346.202
346.079
345.945
345.804
345.667
345.558
335.447
335.53
335.637
335.747
335.852
335.947
336.03
336.095
336.141
336.164
336.164
336.141
336.095
336.03
335.947
335.852
335.747
335.637
335.53
335.447
325.333
325.392
325.468
325.547
325.622
325.69
325.749
325.796
325.829
325.846
325.846
325.829
325.796
325.749
325.69
325.622
325.547
325.468
325.392
325.333
315.218
315.253
315.299
315.346
315.391
315.432
315.467
315.496
315.515
315.525
315.525
315.515
315.496
315.467
315.432
315.391
315.346
315.299
315.253
315.218
305.101
305.113
305.128
305.144
305.159
305.173
305.185
305.194
305.201
305.204
305.204
305.201
305.194
305.185
305.173
305.159
305.144
305.128
305.113
305.101
378.001
378.182
378.398
378.617
378.826
379.015
379.177
379.306
379.396
379.442
379.442
379.396
379.306
379.177
379.015
378.826
378.617
378.398
378.182
378.001
367.521
367.675
367.863
368.053
368.235
368.4
368.542
368.654
368.732
368.773
368.773
368.732
368.654
368.542
368.4
368.235
368.053
367.863
367.675
367.521
357.081
357.209
357.368
357.53
357.684
357.825
357.945
358.041
358.108
358.142
358.142
358.108
358.041
357.945
357.825
357.684
357.53
357.368
357.209
357.081
346.673
346.776
346.906
347.039
347.166
347.281
347.38
347.459
347.514
347.542
347.542
347.514
347.459
347.38
347.281
347.166
347.039
346.906
346.776
346.673
336.288
336.367
336.468
336.572
336.671
336.761
336.838
336.9
336.943
336.965
336.965
336.943
336.9
336.838
336.761
336.671
336.572
336.468
336.367
336.288
325.92
325.977
326.049
326.123
326.194
326.259
326.314
326.358
326.389
326.405
326.405
326.389
326.358
326.314
326.259
326.194
326.123
326.049
325.977
325.92
315.565
315.599
315.642
315.687
315.729
315.768
315.802
315.828
315.847
315.856
315.856
315.847
315.828
315.802
315.768
315.729
315.687
315.642
315.599
315.565
305.217
305.228
305.243
305.258
305.272
305.285
305.296
305.305
305.311
305.314
305.314
305.311
305.305
305.296
305.285
305.272
305.258
305.243
305.228
305.217
)
;

boundaryField
{
    hotSide
    {
        type            fixedGradient;
        gradient        nonuniform List<scalar> 
400
(
488.078
489.836
493.359
498.657
505.747
514.649
525.384
537.98
552.461
568.853
587.182
607.471
629.742
654.014
680.305
708.629
738.998
771.422
805.91
842.466
495.184
496.887
500.299
505.436
512.32
520.977
531.437
543.733
557.898
573.965
591.966
611.929
633.881
657.845
683.841
711.885
741.99
774.168
808.427
844.771
502.875
504.51
507.791
512.738
519.378
527.747
537.884
549.832
563.633
579.328
596.956
616.552
638.149
661.772
687.444
715.184
745.006
776.921
810.936
847.058
511.023
512.58
515.708
520.433
526.792
534.831
544.6
556.154
569.545
584.825
602.042
621.237
642.447
665.704
691.031
718.45
747.974
779.615
813.38
849.274
519.4
520.869
523.825
528.302
534.348
542.021
551.386
562.509
575.456
590.291
607.068
625.839
646.645
669.521
694.494
721.585
750.808
782.175
815.69
851.358
527.657
529.032
531.804
536.017
541.731
549.018
557.959
568.634
581.123
595.501
611.833
630.177
650.58
673.079
697.703
724.475
753.408
784.511
817.789
853.243
535.321
536.602
539.191
543.142
548.527
555.434
563.96
574.199
586.247
600.188
616.097
634.038
654.064
676.213
700.517
726.997
755.665
786.531
819.597
854.861
541.826
543.022
545.446
549.161
554.252
560.822
568.979
578.835
590.496
604.057
619.601
637.198
656.902
678.755
702.79
729.025
757.475
788.144
821.035
856.143
546.586
547.717
550.015
553.551
558.418
564.731
572.61
582.178
593.55
606.828
622.102
639.445
658.913
680.551
704.39
730.449
758.741
789.27
822.036
857.034
549.109
550.204
552.434
555.871
560.617
566.79
574.52
583.933
595.15
608.277
623.406
640.614
659.957
681.482
705.217
731.184
759.394
789.849
822.55
857.491
549.109
550.204
552.434
555.871
560.617
566.79
574.52
583.933
595.15
608.277
623.406
640.614
659.957
681.482
705.217
731.184
759.394
789.849
822.55
857.491
546.586
547.717
550.015
553.551
558.418
564.731
572.61
582.178
593.55
606.828
622.102
639.445
658.913
680.551
704.39
730.449
758.741
789.27
822.036
857.034
541.826
543.022
545.446
549.161
554.252
560.822
568.979
578.835
590.496
604.057
619.601
637.198
656.902
678.755
702.79
729.025
757.475
788.144
821.035
856.143
535.321
536.602
539.191
543.142
548.527
555.434
563.96
574.199
586.247
600.188
616.097
634.038
654.064
676.213
700.517
726.997
755.665
786.531
819.597
854.861
527.657
529.032
531.804
536.017
541.731
549.018
557.959
568.634
581.123
595.501
611.833
630.177
650.58
673.079
697.703
724.475
753.408
784.511
817.789
853.243
519.4
520.869
523.825
528.302
534.348
542.021
551.386
562.509
575.456
590.291
607.068
625.839
646.645
669.521
694.494
721.585
750.808
782.175
815.69
851.358
511.023
512.58
515.708
520.433
526.792
534.831
544.6
556.154
569.545
584.825
602.042
621.237
642.447
665.704
691.031
718.45
747.974
779.615
813.38
849.274
502.875
504.51
507.791
512.738
519.378
527.747
537.884
549.832
563.633
579.328
596.956
616.552
638.149
661.772
687.444
715.184
745.006
776.921
810.936
847.058
495.184
496.887
500.299
505.436
512.32
520.977
531.437
543.733
557.898
573.965
591.966
611.929
633.881
657.845
683.841
711.885
741.99
774.168
808.427
844.771
488.078
489.836
493.359
498.657
505.747
514.649
525.384
537.98
552.461
568.853
587.182
607.471
629.742
654.014
680.305
708.629
738.998
771.422
805.91
842.466
)
;
    }
    coldSide
    {
        type            mixed;
        refValue        uniform 300;
        refGradient     uniform 0;
        valueFraction   uniform 0.991591;
        source          uniform 0;
        value           nonuniform List<scalar> 
400
(
300.027
300.027
300.027
300.027
300.028
300.028
300.029
300.029
300.03
300.031
300.032
300.033
300.034
300.035
300.037
300.038
300.04
300.041
300.043
300.044
300.027
300.027
300.027
300.027
300.028
300.028
300.029
300.029
300.03
300.031
300.032
300.033