/*--------------------------------*- C++ -*----------------------------------*\
| =========                 |                                                 |
| \\      /  F ield         | OpenFOAM: The Open Source CFD Toolbox           |
|  \\    /   O peration     | Version:  2212                                  |
|   \\  /    A nd           | Website:  www.openfoam.com                      |
|    \\/     M anipulation  |                                                 |
\*---------------------------------------------------------------------------*/
FoamFile
{
    version     2.0;
    format      ascii;
    arch        "LSB;label=32;scalar=64";
    class       volScalarField;
    location    "./ITHACAoutput/true/12.9";
    object      trueState;
}
// * * * * * * * * * * * * * * * * * * * * * * * * * * * * * * * * * * * * * //

dimensions      [0 0 0 1 0 0 0];

internalField   nonuniform List<scalar> 
3200
(
319.724
320.069
320.508
320.988
321.481
321.966
322.413
322.79
323.065
323.21
323.21
323.065
322.79
322.413
321.966
321.481
320.988
320.508
320.069
319.724
317.074
317.365
317.745
318.159
318.586
319.005
319.392
319.718
319.955
320.081
320.081
319.955
319.718
319.392
319.005
318.586
318.159
317.745
317.365
317.074
314.433
314.675
314.994
315.345
315.706
316.06
316.386
316.661
316.862
316.967
316.967
316.862
316.661
316.386
316.06
315.706
315.345
314.994
314.675
314.433
311.8
311.995
312.256
312.542
312.837
313.126
313.393
313.617
313.781
313.867
313.867
313.781
313.617
313.393
313.126
312.837
312.542
312.256
311.995
311.8
309.174
309.324
309.526
309.748
309.977
310.202
310.409
310.584
310.711
310.778
310.778
310.711
310.584
310.409
310.202
309.977
309.748
309.526
309.324
309.174
306.553
306.659
306.803
306.961
307.125
307.286
307.433
307.558
307.649
307.696
307.696
307.649
307.558
307.433
307.286
307.125
306.961
306.803
306.659
306.553
303.935
303.998
304.084
304.18
304.278
304.374
304.463
304.538
304.592
304.621
304.621
304.592
304.538
304.463
304.374
304.278
304.18
304.084
303.998
303.935
301.319
301.34
301.369
301.401
301.434
301.466
301.496
301.521
301.539
301.549
301.549
301.539
301.521
301.496
301.466
301.434
301.401
301.369
301.34
301.319
319.782
320.124
320.56
321.035
321.523
322.002
322.444
322.817
323.088
323.232
323.232
323.088
322.817
322.444
322.002
321.523
321.035
320.56
320.124
319.782
317.124
317.413
317.789
318.2
318.622
319.037
319.419
319.741
319.975
320.099
320.099
319.975
319.741
319.419
319.037
318.622
318.2
317.789
317.413
317.124
314.475
314.715
315.032
315.379
315.736
316.086
316.409
316.681
316.878
316.983
316.983
316.878
316.681
316.409
316.086
315.736
315.379
315.032
314.715
314.475
311.835
312.028
312.286
312.57
312.862
313.148
313.411
313.633
313.795
313.88
313.88
313.795
313.633
313.411
313.148
312.862
312.57
312.286
312.028
311.835
309.201
309.349
309.549
309.77
309.997
310.219
310.424
310.596
310.721
310.788
310.788
310.721
310.596
310.424
310.219
309.997
309.77
309.549
309.349
309.201
306.572
306.677
306.819
306.977
307.139
307.298
307.444
307.567
307.656
307.703
307.703
307.656
307.567
307.444
307.298
307.139
306.977
306.819
306.677
306.572
303.946
304.009
304.094
304.189
304.286
304.381
304.469
304.543
304.597
304.625
304.625
304.597
304.543
304.469
304.381
304.286
304.189
304.094
304.009
303.946
301.323
301.343
301.372
301.404
301.436
301.468
301.498
301.523
301.54
301.55
301.55
301.54
301.523
301.498
301.468
301.436
301.404
301.372
301.343
301.323
319.899
320.235
320.663
321.129
321.608
322.077
322.508
322.872
323.136
323.276
323.276
323.136
322.872
322.508
322.077
321.608
321.129
320.663
320.235
319.899
317.224
317.509
317.878
318.281
318.696
319.101
319.474
319.789
320.017
320.137
320.137
320.017
319.789
319.474
319.101
318.696
318.281
317.878
317.509
317.224
314.56
314.796
315.107
315.448
315.798
316.14
316.456
316.721
316.914
317.015
317.015
316.914
316.721
316.456
316.14
315.798
315.448
315.107
314.796
314.56
311.904
312.094
312.347
312.626
312.912
313.192
313.449
313.666
313.823
313.906
313.906
313.823
313.666
313.449
313.192
312.912
312.626
312.347
312.094
311.904
309.254
309.4
309.597
309.813
310.036
310.253
310.453
310.622
310.744
310.808
310.808
310.744
310.622
310.453
310.253
310.036
309.813
309.597
309.4
309.254
306.61
306.713
306.853
307.008
307.167
307.322
307.465
307.585
307.672
307.718
307.718
307.672
307.585
307.465
307.322
307.167
307.008
306.853
306.713
306.61
303.969
304.031
304.115
304.207
304.303
304.396
304.482
304.554
304.606
304.634
304.634
304.606
304.554
304.482
304.396
304.303
304.207
304.115
304.031
303.969
301.33
301.351
301.379
301.41
301.442
301.473
301.502
301.526
301.544
301.553
301.553
301.544
301.526
301.502
301.473
301.442
301.41
301.379
301.351
301.33
320.074
320.402
320.82
321.273
321.737
322.191
322.608
322.959
323.213
323.347
323.347
323.213
322.959
322.608
322.191
321.737
321.273
320.82
320.402
320.074
317.375
317.653
318.013
318.405
318.807
319.2
319.561
319.864
320.084
320.199
320.199
320.084
319.864
319.561
319.2
318.807
318.405
318.013
317.653
317.375
314.687
314.917
315.221
315.552
315.892
316.224
316.528
316.784
316.97
317.068
317.068
316.97
316.784
316.528
316.224
315.892
315.552
315.221
314.917
314.687
312.007
312.193
312.44
312.711
312.989
313.26
313.509
313.718
313.869
313.949
313.949
313.869
313.718
313.509
313.26
312.989
312.711
312.44
312.193
312.007
309.335
309.477
309.669
309.879
310.095
310.306
310.499
310.662
310.779
310.841
310.841
310.779
310.662
310.499
310.306
310.095
309.879
309.669
309.477
309.335
306.667
306.768
306.905
307.055
307.209
307.36
307.498
307.614
307.698
307.742
307.742
307.698
307.614
307.498
307.36
307.209
307.055
306.905
306.768
306.667
304.003
304.064
304.146
304.236
304.328
304.419
304.502
304.571
304.622
304.648
304.648
304.622
304.571
304.502
304.419
304.328
304.236
304.146
304.064
304.003
301.342
301.362
301.389
301.42
301.451
301.481
301.509
301.532
301.549
301.558
301.558
301.549
301.532
301.509
301.481
301.451
301.42
301.389
301.362
301.342
320.309
320.627
321.031
321.468
321.915
322.35
322.748
323.082
323.324
323.452
323.452
323.324
323.082
322.748
322.35
321.915
321.468
321.031
320.627
320.309
317.578
317.847
318.196
318.574
318.96
319.337
319.681
319.97
320.18
320.29
320.29
320.18
319.97
319.681
319.337
318.96
318.574
318.196
317.847
317.578
314.858
315.081
315.375
315.694
316.021
316.339
316.63
316.874
317.051
317.144
317.144
317.051
316.874
316.63
316.339
316.021
315.694
315.375
315.081
314.858
312.146
312.326
312.566
312.827
313.094
313.354
313.592
313.791
313.936
314.011
314.011
313.936
313.791
313.592
313.354
313.094
312.827
312.566
312.326
312.146
309.443
309.581
309.766
309.969
310.177
310.379
310.564
310.719
310.831
310.89
310.89
310.831
310.719
310.564
310.379
310.177
309.969
309.766
309.581
309.443
306.744
306.842
306.974
307.119
307.268
307.412
307.544
307.654
307.734
307.776
307.776
307.734
307.654
307.544
307.412
307.268
307.119
306.974
306.842
306.744
304.05
304.108
304.187
304.274
304.363
304.45
304.529
304.596
304.644
304.669
304.669
304.644
304.596
304.529
304.45
304.363
304.274
304.187
304.108
304.05
301.357
301.377
301.403
301.432
301.462
301.491
301.518
301.54
301.556
301.565
301.565
301.556
301.54
301.518
301.491
301.462
301.432
301.403
301.377
301.357
320.605
320.912
321.299
321.717
322.143
322.556
322.933
323.248
323.476
323.596
323.596
323.476
323.248
322.933
322.556
322.143
321.717
321.299
320.912
320.605
317.833
318.093
318.427
318.789
319.157
319.515
319.841
320.113
320.31
320.414
320.414
320.31
320.113
319.841
319.515
319.157
318.789
318.427
318.093
317.833
315.073
315.288
315.57
315.876
316.187
316.489
316.765
316.995
317.161
317.249
317.249
317.161
316.995
316.765
316.489
316.187
315.876
315.57
315.288
315.073
312.322
312.495
312.725
312.975
313.23
313.476
313.702
313.89
314.026
314.097
314.097
314.026
313.89
313.702
313.476
313.23
312.975
312.725
312.495
312.322
309.579
309.712
309.89
310.084
310.282
310.474
310.649
310.795
310.901
310.956
310.956
310.901
310.795
310.649
310.474
310.282
310.084
309.89
309.712
309.579
306.841
306.935
307.062
307.201
307.343
307.48
307.605
307.709
307.784
307.824
307.824
307.784
307.709
307.605
307.48
307.343
307.201
307.062
306.935
306.841
304.108
304.164
304.24
304.323
304.408
304.491
304.566
304.628
304.674
304.697
304.697
304.674
304.628
304.566
304.491
304.408
304.323
304.24
304.164
304.108
301.377
301.395
301.421
301.449
301.477
301.505
301.53
301.551
301.566
301.574
301.574
301.566
301.551
301.53
301.505
301.477
301.449
301.421
301.395
301.377
320.964
321.257
321.627
322.023
322.425
322.814
323.168
323.462
323.674
323.786
323.786
323.674
323.462
323.168
322.814
322.425
322.023
321.627
321.257
320.964
318.143
318.391
318.71
319.053
319.401
319.738
320.043
320.298
320.482
320.578
320.578
320.482
320.298
320.043
319.738
319.401
319.053
318.71
318.391
318.143
315.334
315.54
315.808
316.098
316.393
316.677
316.936
317.151
317.306
317.387
317.387
317.306
317.151
316.936
316.677
316.393
316.098
315.808
315.54
315.334
312.535
312.7
312.919
313.157
313.397
313.63
313.841
314.017
314.144
314.21
314.21
314.144
314.017
313.841
313.63
313.397
313.157
312.919
312.7
312.535
309.744
309.871
310.041
310.225
310.412
310.593
310.757
310.894
310.993
311.044
311.044
310.993
310.894
310.757
310.593
310.412
310.225
310.041
309.871
309.744
306.959
307.049
307.17
307.302
307.435
307.565
307.682
307.779
307.85
307.887
307.887
307.85
307.779
307.682
307.565
307.435
307.302
307.17
307.049
306.959
304.178
304.232
304.305
304.384
304.464
304.542
304.612
304.671
304.713
304.735
304.735
304.713
304.671
304.612
304.542
304.464
304.384
304.305
304.232
304.178
301.4
301.418
301.443
301.469
301.496
301.522
301.546
301.565
301.579
301.587
301.587
301.579
301.565
301.546
301.522
301.496
301.469
301.443
301.418
301.4
321.388
321.666
322.016
322.389
322.767
323.13
323.458
323.731
323.927
324.03
324.03
323.927
323.731
323.458
323.13
322.767
322.389
322.016
321.666
321.388
318.508
318.744
319.045
319.369
319.696
320.01
320.294
320.53
320.7
320.789
320.789
320.7
320.53
320.294
320.01
319.696
319.369
319.045
318.744
318.508
315.642
315.837
316.091
316.365
316.641
316.907
317.147
317.347
317.49
317.565
317.565
317.49
317.347
317.147
316.907
316.641
316.365
316.091
315.837
315.642
312.786
312.943
313.15
313.374
313.6
313.817
314.014
314.177
314.294
314.355
314.355
314.294
314.177
314.014
313.817
313.6
313.374
313.15
312.943
312.786
309.939
310.059
310.22
310.394
310.57
310.739
310.891
311.018
311.109
311.157
311.157
311.109
311.018
310.891
310.739
310.57
310.394
310.22
310.059
309.939
307.098
307.183
307.298
307.422
307.548
307.668
307.777
307.868
307.933
307.967
307.967
307.933
307.868
307.777
307.668
307.548
307.422
307.298
307.183
307.098
304.262
304.313
304.381
304.456
304.531
304.604
304.669
304.724
304.763
304.783
304.783
304.763
304.724
304.669
304.604
304.531
304.456
304.381
304.313
304.262
301.428
301.445
301.468
301.493
301.519
301.543
301.565
301.583
301.596
301.603
301.603
301.596
301.583
301.565
301.543
301.519
301.493
301.468
301.445
301.428
321.877
322.14
322.469
322.819
323.17
323.507
323.81
324.061
324.241
324.335
324.335
324.241
324.061
323.81
323.507
323.17
322.819
322.469
322.14
321.877
318.93
319.153
319.436
319.739
320.044
320.335
320.598
320.815
320.971
321.052
321.052
320.971
320.815
320.598
320.335
320.044
319.739
319.436
319.153
318.93
315.997
316.182
316.421
316.677
316.935
317.181
317.403
317.587
317.718
317.787
317.787
317.718
317.587
317.403
317.181
316.935
316.677
316.421
316.182
315.997
313.076
313.224
313.419
313.629
313.839
314.041
314.223
314.373
314.48
314.536
314.536
314.48
314.373
314.223
314.041
313.839
313.629
313.419
313.224
313.076
310.164
310.278
310.429
310.592
310.756
310.912
311.053
311.17
311.254
311.297
311.297
311.254
311.17
311.053
310.912
310.756
310.592
310.429
310.278
310.164
307.258
307.339
307.447
307.563
307.68
307.792
307.893
307.976
308.036
308.067
308.067
308.036
307.976
307.893
307.792
307.68
307.563
307.447
307.339
307.258
304.358
304.406
304.471
304.541
304.611
304.678
304.739
304.789
304.825
304.843
304.843
304.825
304.789
304.739
304.678
304.611
304.541
304.471
304.406
304.358
301.461
301.477
301.498
301.522
301.545
301.568
301.588
301.605
301.617
301.623
301.623
301.617
301.605
301.588
301.568
301.545
301.522
301.498
301.477
301.461
322.434
322.681
322.988
323.314
323.64
323.95
324.228
324.457
324.621
324.706
324.706
324.621
324.457
324.228
323.95
323.64
323.314
322.988
322.681
322.434
319.41
319.619
319.885
320.167
320.449
320.718
320.959
321.157
321.299
321.373
321.373
321.299
321.157
320.959
320.718
320.449
320.167
319.885
319.619
319.41
316.402
316.575
316.799
317.038
317.276
317.504
317.707
317.875
317.995
318.057
318.057
317.995
317.875
317.707
317.504
317.276
317.038
316.799
316.575
316.402
313.406
313.546
313.728
313.923
314.118
314.304
314.471
314.608
314.706
314.757
314.757
314.706
314.608
314.471
314.304
314.118
313.923
313.728
313.546
313.406
310.42
310.527
310.668
310.82
310.972
311.116
311.246
311.353
311.429
311.469
311.469
311.429
311.353
311.246
311.116
310.972
310.82
310.668
310.527
310.42
307.441
307.517
307.618
307.726
307.835
307.938
308.03
308.107
308.161
308.189
308.189
308.161
308.107
308.03
307.938
307.835
307.726
307.618
307.517
307.441
304.468
304.513
304.573
304.638
304.704
304.766
304.821
304.867
304.9
304.917
304.917
304.9
304.867
304.821
304.766
304.704
304.638
304.573
304.513
304.468
301.497
301.512
301.533
301.554
301.576
301.597
301.616
301.631
301.642
301.648
301.648
301.642
301.631
301.616
301.597
301.576
301.554
301.533
301.512
301.497
323.059
323.29
323.577
323.879
324.179
324.463
324.716
324.925
325.073
325.15
325.15
325.073
324.925
324.716
324.463
324.179
323.879
323.577
323.29
323.059
319.95
320.146
320.393
320.654
320.914
321.16
321.38
321.56
321.689
321.756
321.756
321.689
321.56
321.38
321.16
320.914
320.654
320.393
320.146
319.95
316.857
317.019
317.228
317.449
317.669
317.877
318.063
318.215
318.324
318.38
318.38
318.324
318.215
318.063
317.877
317.669
317.449
317.228
317.019
316.857
313.777
313.908
314.078
314.258
314.438
314.609
314.761
314.885
314.974
315.02
315.02
314.974
314.885
314.761
314.609
314.438
314.258
314.078
313.908
313.777
310.708
310.808
310.94
311.08
311.22
311.353
311.471
311.568
311.637
311.673
311.673
311.637
311.568
311.471
311.353
311.22
311.08
310.94
310.808
310.708
307.647
307.717
307.811
307.912
308.012
308.106
308.191
308.26
308.309
308.335
308.335
308.309
308.26
308.191
308.106
308.012
307.912
307.811
307.717
307.647
304.591
304.633
304.69
304.75
304.81
304.867
304.917
304.959
304.989
305.004
305.004
304.989
304.959
304.917
304.867
304.81
304.75
304.69
304.633
304.591
301.539
301.553
301.572
301.592
301.612
301.631
301.648
301.662
301.672
301.677
301.677
301.672
301.662
301.648
301.631
301.612
301.592
301.572
301.553
301.539
323.756
323.971
324.236
324.515
324.79
325.049
325.279
325.467
325.601
325.67
325.67
325.601
325.467
325.279
325.049
324.79
324.515
324.236
323.971
323.756
320.551
320.733
320.962
321.203
321.442
321.666
321.866
322.029
322.144
322.204
322.204
322.144
322.029
321.866
321.666
321.442
321.203
320.962
320.733
320.551
317.364
317.515
317.708
317.912
318.113
318.303
318.472
318.61
318.708
318.759
318.759
318.708
318.61
318.472
318.303
318.113
317.912
317.708
317.515
317.364
314.19
314.312
314.469
314.636
314.801
314.957
315.095
315.207
315.287
315.329
315.329
315.287
315.207
315.095
314.957
314.801
314.636
314.469
314.312
314.19
311.028
311.122
311.244
311.374
311.502
311.623
311.73
311.818
311.88
311.913
311.913
311.88
311.818
311.73
311.623
311.502
311.374
311.244
311.122
311.028
307.875
307.941
308.028
308.121
308.213
308.299
308.376
308.439
308.483
308.506
308.506
308.483
308.439
308.376
308.299
308.213
308.121
308.028
307.941
307.875
304.728
304.767
304.82
304.875
304.93
304.982
305.028
305.066
305.093
305.107
305.107
305.093
305.066
305.028
304.982
304.93
304.875
304.82
304.767
304.728
301.584
301.598
301.615
301.634
301.652
301.67
301.685
301.698
301.707
301.711
301.711
301.707
301.698
301.685
301.67
301.652
301.634
301.615
301.598
301.584
324.524
324.723
324.968
325.224
325.475
325.711
325.919
326.088
326.208
326.27
326.27
326.208
326.088
325.919
325.711
325.475
325.224
324.968
324.723
324.524
321.214
321.382
321.594
321.815
322.033
322.237
322.418
322.565
322.669
322.722
322.722
322.669
322.565
322.418
322.237
322.033
321.815
321.594
321.382
321.214
317.922
318.062
318.241
318.428
318.612
318.785
318.938
319.062
319.15
319.195
319.195
319.15
319.062
318.938
318.785
318.612
318.428
318.241
318.062
317.922
314.646
314.759
314.904
315.057
315.208
315.349
315.474
315.576
315.648
315.685
315.685
315.648
315.576
315.474
315.349
315.208
315.057
314.904
314.759
314.646
311.382
311.469
311.581
311.7
311.818
311.928
312.025
312.104
312.16
312.189
312.189
312.16
312.104
312.025
311.928
311.818
311.7
311.581
311.469
311.382
308.127
308.189
308.269
308.354
308.438
308.517
308.586
308.643
308.683
308.703
308.703
308.683
308.643
308.586
308.517
308.438
308.354
308.269
308.189
308.127
304.879
304.916
304.964
305.015
305.066
305.113
305.155
305.188
305.212
305.225
305.225
305.212
305.188
305.155
305.113
305.066
305.015
304.964
304.916
304.879
301.635
301.647
301.664
301.681
301.698
301.713
301.727
301.739
301.747
301.751
301.751
301.747
301.739
301.727
301.713
301.698
301.681
301.664
301.647
301.635
325.363
325.548
325.774
326.008
326.237
326.45
326.638
326.79
326.897
326.953
326.953
326.897
326.79
326.638
326.45
326.237
326.008
325.774
325.548
325.363
321.938
322.094
322.289
322.492
322.69
322.875
323.038
323.17
323.263
323.311
323.311
323.263
323.17
323.038
322.875
322.69
322.492
322.289
322.094
321.938
318.533
318.663
318.827
318.998
319.166
319.323
319.46
319.572
319.651
319.691
319.691
319.651
319.572
319.46
319.323
319.166
318.998
318.827
318.663
318.533
315.144
315.249
315.382
315.523
315.66
315.788
315.901
315.992
316.057
316.09
316.09
316.057
315.992
315.901
315.788
315.66
315.523
315.382
315.249
315.144
311.769
311.849
311.953
312.062
312.169
312.268
312.356
312.427
312.477
312.503
312.503
312.477
312.427
312.356
312.268
312.169
312.062
311.953
311.849
311.769
308.403
308.46
308.534
308.612
308.688
308.759
308.822
308.873
308.909
308.927
308.927
308.909
308.873
308.822
308.759
308.688
308.612
308.534
308.46
308.403
305.045
305.079
305.123
305.17
305.216
305.259
305.296
305.327
305.348
305.359
305.359
305.348
305.327
305.296
305.259
305.216
305.17
305.123
305.079
305.045
301.691
301.702
301.717
301.732
301.748
301.762
301.775
301.785
301.792
301.796
301.796
301.792
301.785
301.775
301.762
301.748
301.732
301.717
301.702
301.691
326.275
326.445
326.652
326.866
327.074
327.267
327.436
327.572
327.668
327.717
327.717
327.668
327.572
327.436
327.267
327.074
326.866
326.652
326.445
326.275
322.724
322.868
323.047
323.233
323.413
323.58
323.726
323.844
323.928
323.97
323.97
323.928
323.844
323.726
323.58
323.413
323.233
323.047
322.868
322.724
319.196
319.315
319.466
319.623
319.775
319.917
320.041
320.141
320.211
320.247
320.247
320.211
320.141
320.041
319.917
319.775
319.623
319.466
319.315
319.196
315.685
315.781
315.904
316.032
316.157
316.273
316.374
316.456
316.513
316.543
316.543
316.513
316.456
316.374
316.273
316.157
316.032
315.904
315.781
315.685
312.188
312.262
312.357
312.457
312.554
312.644
312.723
312.787
312.832
312.855
312.855
312.832
312.787
312.723
312.644
312.554
312.457
312.357
312.262
312.188
308.702
308.754
308.822
308.894
308.963
309.028
309.084
309.129
309.161
309.178
309.178
309.161
309.129
309.084
309.028
308.963
308.894
308.822
308.754
308.702
305.224
305.255
305.296
305.339
305.381
305.419
305.453
305.481
305.5
305.51
305.51
305.5
305.481
305.453
305.419
305.381
305.339
305.296
305.255
305.224
301.751
301.761
301.775
301.789
301.803
301.816
301.827
301.837
301.843
301.846
301.846
301.843
301.837
301.827
301.816
301.803
301.789
301.775
301.761
301.751
327.254
327.411
327.601
327.796
327.984
328.158
328.31
328.432
328.517
328.562
328.562
328.517
328.432
328.31
328.158
327.984
327.796
327.601
327.411
327.254
323.569
323.701
323.865
324.034
324.198
324.348
324.48
324.586
324.66
324.698
324.698
324.66
324.586
324.48
324.348
324.198
324.034
323.865
323.701
323.569
319.907
320.017
320.155
320.298
320.436
320.564
320.675
320.765
320.828
320.86
320.86
320.828
320.765
320.675
320.564
320.436
320.298
320.155
320.017
319.907
316.265
316.353
316.466
316.582
316.696
316.8
316.891
316.965
317.016
317.043
317.043
317.016
316.965
316.891
316.8
316.696
316.582
316.466
316.353
316.265
312.638
312.706
312.793
312.884
312.972
313.053
313.124
313.181
313.221
313.242
313.242
313.221
313.181
313.124
313.053
312.972
312.884
312.793
312.706
312.638
309.023
309.071
309.133
309.198
309.261
309.319
309.37
309.411
309.439
309.454
309.454
309.439
309.411
309.37
309.319
309.261
309.198
309.133
309.071
309.023
305.416
305.445
305.482
305.521
305.559
305.594
305.625
305.649
305.666
305.675
305.675
305.666
305.649
305.625
305.594
305.559
305.521
305.482
305.445
305.416
301.815
301.825
301.837
301.85
301.863
301.875
301.885
301.893
301.899
301.902
301.902
301.899
301.893
301.885
301.875
301.863
301.85
301.837
301.825
301.815
328.292
328.436
328.61
328.788
328.958
329.115
329.252
329.361
329.437
329.476
329.476
329.437
329.361
329.252
329.115
328.958
328.788
328.61
328.436
328.292
324.462
324.584
324.734
324.888
325.036
325.172
325.29
325.385
325.451
325.485
325.485
325.451
325.385
325.29
325.172
325.036
324.888
324.734
324.584
324.462
320.658
320.759
320.885
321.016
321.141
321.256
321.357
321.437
321.493
321.522
321.522
321.493
321.437
321.357
321.256
321.141
321.016
320.885
320.759
320.658
316.876
316.957
317.06
317.167
317.27
317.364
317.446
317.512
317.557
317.581
317.581
317.557
317.512
317.446
317.364
317.27
317.167
317.06
316.957
316.876
313.111
313.174
313.254
313.336
313.416
313.49
313.554
313.605
313.641
313.659
313.659
313.641
313.605
313.554
313.49
313.416
313.336
313.254
313.174
313.111
309.36
309.404
309.461
309.521
309.578
309.63
309.676
309.712
309.738
309.751
309.751
309.738
309.712
309.676
309.63
309.578
309.521
309.461
309.404
309.36
305.619
305.645
305.679
305.715
305.749
305.781
305.808
305.83
305.845
305.853
305.853
305.845
305.83
305.808
305.781
305.749
305.715
305.679
305.645
305.619
301.883
301.892
301.903
301.915
301.926
301.937
301.946
301.954
301.959
301.961
301.961
301.959
301.954
301.946
301.937
301.926
301.915
301.903
301.892
301.883
329.362
329.495
329.654
329.816
329.971
330.113
330.236
330.334
330.402
330.437
330.437
330.402
330.334
330.236
330.113
329.971
329.816
329.654
329.495
329.362
325.378
325.491
325.628
325.769
325.903
326.026
326.133
326.218
326.277
326.308
326.308
326.277
326.218
326.133
326.026
325.903
325.769
325.628
325.491
325.378
321.426
321.518
321.635
321.753
321.868
321.972
322.062
322.134
322.184
322.21
322.21
322.184
322.134
322.062
321.972
321.868
321.753
321.635
321.518
321.426
317.498
317.573
317.668
317.765
317.859
317.944
318.018
318.077
318.118
318.139
318.139
318.118
318.077
318.018
317.944
317.859
317.765
317.668
317.573
317.498
313.592
313.649
313.723
313.799
313.871
313.938
313.996
314.042
314.074
314.09
314.09
314.074
314.042
313.996
313.938
313.871
313.799
313.723
313.649
313.592
309.702
309.742
309.795
309.849
309.901
309.949
309.99
310.023
310.046
310.057
310.057
310.046
310.023
309.99
309.949
309.901
309.849
309.795
309.742
309.702
305.823
305.847
305.879
305.911
305.943
305.971
305.996
306.016
306.029
306.037
306.037
306.029
306.016
305.996
305.971
305.943
305.911
305.879
305.847
305.823
301.951
301.959
301.97
301.981
301.991
302.001
302.009
302.016
302.02
302.023
302.023
302.02
302.016
302.009
302.001
301.991
301.981
301.97
301.959
301.951
330.396
330.519
330.666
330.814
330.956
331.086
331.197
331.286
331.347
331.379
331.379
331.347
331.286
331.197
331.086
330.956
330.814
330.666
330.519
330.396
326.254
326.357
326.484
326.613
326.737
326.849
326.946
327.023
327.077
327.104
327.104
327.077
327.023
326.946
326.849
326.737
326.613
326.484
326.357
326.254
322.15
322.236
322.344
322.453
322.558
322.653
322.735
322.801
322.846
322.87
322.87
322.846
322.801
322.735
322.653
322.558
322.453
322.344
322.236
322.15
318.081
318.15
318.238
318.327
318.413
318.491
318.559
318.612
318.65
318.669
318.669
318.65
318.612
318.559
318.491
318.413
318.327
318.238
318.15
318.081
314.038
314.092
314.16
314.23
314.296
314.357
314.41
314.452
314.481
314.496
314.496
314.481
314.452
314.41
314.357
314.296
314.23
314.16
314.092
314.038
310.017
310.055
310.103
310.153
310.201
310.245
310.283
310.312
310.333
310.344
310.344
310.333
310.312
310.283
310.245
310.201
310.153
310.103
310.055
310.017
306.011
306.034
306.063
306.093
306.122
306.148
306.17
306.188
306.201
306.207
306.207
306.201
306.188
306.17
306.148
306.122
306.093
306.063
306.034
306.011
302.014
302.021
302.031
302.041
302.051
302.06
302.067
302.073
302.078
302.08
302.08
302.078
302.073
302.067
302.06
302.051
302.041
302.031
302.021
302.014
331.212
331.328
331.466
331.605
331.738
331.859
331.962
332.045
332.102
332.131
332.131
332.102
332.045
331.962
331.859
331.738
331.605
331.466
331.328
331.212
326.918
327.016
327.135
327.257
327.373
327.478
327.568
327.64
327.69
327.716
327.716
327.69
327.64
327.568
327.478
327.373
327.257
327.135
327.016
326.918
322.683
322.765
322.866
322.97
323.068
323.158
323.234
323.296
323.338
323.36
323.36
323.338
323.296
323.234
323.158
323.068
322.97
322.866
322.765
322.683
318.498
318.564
318.647
318.732
318.813
318.886
318.95
319
319.035
319.053
319.053
319.035
319
318.95
318.886
318.813
318.732
318.647
318.564
318.498
314.352
314.403
314.467
314.534
314.597
314.654
314.704
314.743
314.77
314.784
314.784
314.77
314.743
314.704
314.654
314.597
314.534
314.467
314.403
314.352
310.236
310.272
310.318
310.365
310.411
310.452
310.487
310.515
310.535
310.545
310.545
310.535
310.515
310.487
310.452
310.411
310.365
310.318
310.272
310.236
306.14
306.162
306.189
306.218
306.245
306.27
306.291
306.308
306.32
306.326
306.326
306.32
306.308
306.291
306.27
306.245
306.218
306.189
306.162
306.14
302.057
302.064
302.073
302.083
302.092
302.1
302.107
302.113
302.117
302.119
302.119
302.117
302.113
302.107
302.1
302.092
302.083
302.073
302.064
302.057
)
;

boundaryField
{
    hotSide
    {
        type            fixedGradient;
        gradient        nonuniform List<scalar> 
400
(
212.984
213.634
214.937
216.902
219.538
222.858
226.876
231.609
237.072
243.284
250.258
258.012
266.558
275.909
286.076
297.068
308.892
321.556
335.064
349.421
217.515
218.129
219.363
221.225
223.729
226.893
230.735
235.277
240.539
246.543
253.309
260.854
269.197
278.351
288.33
299.144
310.8
323.307
336.669
350.891
222.419
222.99
224.14
225.88
228.229
231.209
234.846
239.166
244.196
249.962
256.49
263.802
271.918
280.855
290.628
301.247
312.723
325.062
338.27
352.349
227.614
228.136
229.188
230.787
232.957
235.726
239.128
243.197
247.966
253.468
259.733
266.789
274.659
283.362
292.915
303.33
314.616
326.78
339.828
353.762
232.956
233.421
234.364
235.805
237.775
240.311
243.455
247.249
251.735
256.953
262.939
269.724
277.336
285.796
295.123
305.328
316.423
328.412
341.301
355.09
238.221
238.626
239.451
240.724
242.482
244.773
247.646
251.154
255.348
260.275
265.977
272.49
279.845
288.065
297.169
307.171
318.08
329.902
342.639
356.293
243.107
243.453
244.161
245.267
246.816
248.864
251.472
254.703
258.615
263.263
268.695
274.952
282.066
290.064
298.963
308.779
319.52
331.19
343.792
357.324
247.255
247.546
248.15
249.105
250.466
252.299
254.673
257.659
261.325
265.731
270.93
276.967
283.876
291.685
300.412
310.073
320.674
332.219
344.709
358.142
250.29
250.54
251.063
251.904
253.122
254.791
256.988
259.791
263.272
267.498
272.525
278.399
285.158
292.83
301.433
310.981
321.481
332.937
345.347
358.71
251.899
252.126
252.605
253.383
254.524
256.105
258.206
260.91
264.292
268.421
273.356
279.145
285.824
293.423
301.96
311.449
321.897
333.306
345.675
359.001
251.899
252.126
252.605
253.383
254.524
256.105
258.206
260.91
264.292
268.421
273.356
279.145
285.824
293.423
301.96
311.449
321.897
333.306
345.675
359.001
250.29
250.54
251.063
251.904
253.122
254.791
256.988
259.791
263.272
267.498
272.525
278.399
285.158
292.83
301.433
310.981
321.481
332.937
345.347
358.71
247.255
247.546
248.15
249.105
250.466
252.299
254.673
257.659
261.325
265.731
270.93
276.967
283.876
291.685
300.412
310.073
320.674
332.219
344.709
358.142
243.107
243.453
244.161
245.267
246.816
248.864
251.472
254.703
258.615
263.263
268.695
274.952
282.066
290.064
298.963
308.779
319.52
331.19
343.792
357.324
238.221
238.626
239.451
240.724
242.482
244.773
247.646
251.154
255.348
260.275
265.977
272.49
279.845
288.065
297.169
307.171
318.08
329.902
342.639
356.293
232.956
233.421
234.364
235.805
237.775
240.311
243.455
247.249
251.735
256.953
262.939
269.724
277.336
285.796
295.123
305.328
316.423
328.412
341.301
355.09
227.614
228.136
229.188
230.787
232.957
235.726
239.128
243.197
247.966
253.468
259.733
266.789
274.659
283.362
292.915
303.33
314.616
326.78
339.828
353.762
222.419
222.99
224.14
225.88
228.229
231.209
234.846
239.166
244.196
249.962
256.49
263.802
271.918
280.855
290.628
301.247
312.723
325.062
338.27
352.349
217.515
218.129
219.363
221.225
223.729
226.893
230.735
235.277
240.539
246.543
253.309
260.854
269.197
278.351
288.33
299.144
310.8
323.307
336.669
350.891
212.984
213.634
214.937
216.902
219.538
222.858
226.876
231.609
237.072
243.284
250.258
258.012
266.558
275.909
286.076
297.068
308.892
321.556
335.064
349.421
)
;
    }
    coldSide
    {
        type            mixed;
        refValue        uniform 300;
        refGradient     uniform 0;
        valueFraction   uniform 0.991591;
        source          uniform 0;
        value           nonuniform List<scalar> 
400
(
300.011
300.011
300.011
300.011
300.011
300.012
300.012
300.012
300.012
300.013
300.013
300.013
300.014
300.014
300.015
300.015
300.016
300.016
300.017
300.017
300.011
300.011
300.011
300.011
300.012
300.012
300.012
300.012
300.012
300.013
300.013
300.013
300.014
300.014