/*--------------------------------*- C++ -*----------------------------------*\
| =========                 |                                                 |
| \\      /  F ield         | OpenFOAM: The Open Source CFD Toolbox           |
|  \\    /   O peration     | Version:  2212                                  |
|   \\  /    A nd           | Website:  www.openfoam.com                      |
|    \\/     M anipulation  |                                                 |
\*---------------------------------------------------------------------------*/
FoamFile
{
    version     2.0;
    format      ascii;
    arch        "LSB;label=32;scalar=64";
    class       volScalarField;
    location    "0";
    object      Ttrue;
}
// * * * * * * * * * * * * * * * * * * * * * * * * * * * * * * * * * * * * * //

dimensions      [0 0 0 1 0 0 0];

internalField   nonuniform List<scalar> 
3200
(
342.85
343.814
345.046
346.388
347.77
349.127
350.38
351.437
352.207
352.614
352.614
352.207
351.437
350.38
349.127
347.77
346.388
345.046
343.814
342.85
337.168
337.985
339.047
340.208
341.404
342.578
343.661
344.574
345.239
345.591
345.591
345.239
344.574
343.661
342.578
341.404
340.208
339.047
337.985
337.168
331.474
332.152
333.046
334.028
335.039
336.03
336.944
337.715
338.276
338.573
338.573
338.276
337.715
336.944
336.03
335.039
334.028
333.046
332.152
331.474
325.77
326.315
327.045
327.846
328.673
329.483
330.23
330.859
331.317
331.559
331.559
331.317
330.859
330.23
329.483
328.673
327.846
327.045
326.315
325.77
320.057
320.476
321.042
321.665
322.307
322.937
323.517
324.006
324.361
324.549
324.549
324.361
324.006
323.517
322.937
322.307
321.665
321.042
320.476
320.057
314.338
314.634
315.038
315.483
315.941
316.391
316.805
317.154
317.408
317.541
317.541
317.408
317.154
316.805
316.391
315.941
315.483
315.038
314.634
314.338
308.614
308.791
309.033
309.3
309.576
309.845
310.094
310.303
310.456
310.536
310.536
310.456
310.303
310.094
309.845
309.576
309.3
309.033
308.791
308.614
302.888
302.947
303.028
303.118
303.21
303.3
303.384
303.454
303.505
303.532
303.532
303.505
303.454
303.384
303.3
303.21
303.118
303.028
302.947
302.888
342.953
343.909
345.13
346.46
347.828
349.17
350.408
351.452
352.212
352.614
352.614
352.212
351.452
350.408
349.17
347.828
346.46
345.13
343.909
342.953
337.257
338.067
339.12
340.271
341.455
342.616
343.686
344.588
345.244
345.591
345.591
345.244
344.588
343.686
342.616
341.455
340.271
339.12
338.067
337.257
331.549
332.221
333.108
334.08
335.081
336.062
336.966
337.727
338.281
338.573
338.573
338.281
337.727
336.966
336.062
335.081
334.08
333.108
332.221
331.549
325.831
326.372
327.095
327.89
328.708
329.509
330.247
330.869
331.321
331.56
331.56
331.321
330.869
330.247
329.509
328.708
327.89
327.095
326.372
325.831
320.105
320.52
321.081
321.698
322.334
322.957
323.53
324.013
324.364
324.55
324.55
324.364
324.013
323.53
322.957
322.334
321.698
321.081
320.52
320.105
314.372
314.666
315.066
315.507
315.961
316.405
316.815
317.159
317.41
317.542
317.542
317.41
317.159
316.815
316.405
315.961
315.507
315.066
314.666
314.372
308.635
308.81
309.05
309.315
309.587
309.854
310.1
310.307
310.457
310.536
310.536
310.457
310.307
310.1
309.854
309.587
309.315
309.05
308.81
308.635
302.895
302.953
303.034
303.122
303.214
303.303
303.386
303.455
303.505
303.532
303.532
303.505
303.455
303.386
303.303
303.214
303.122
303.034
302.953
302.895
343.16
344.101
345.302
346.607
347.947
349.26
350.469
351.488
352.229
352.62
352.62
352.229
351.488
350.469
349.26
347.947
346.607
345.302
344.101
343.16
337.436
338.233
339.268
340.397
341.558
342.694
343.739
344.619
345.259
345.597
345.597
345.259
344.619
343.739
342.694
341.558
340.397
339.268
338.233
337.436
331.7
332.362
333.234
334.188
335.169
336.128
337.011
337.754
338.294
338.579
338.579
338.294
337.754
337.011
336.128
335.169
334.188
333.234
332.362
331.7
325.954
326.487
327.198
327.977
328.779
329.563
330.285
330.891
331.332
331.565
331.565
331.332
330.891
330.285
329.563
328.779
327.977
327.198
326.487
325.954
320.2
320.609
321.161
321.767
322.39
322.999
323.56
324.031
324.373
324.554
324.554
324.373
324.031
323.56
322.999
322.39
321.767
321.161
320.609
320.2
314.44
314.73
315.123
315.555
316
316.436
316.836
317.172
317.416
317.545
317.545
317.416
317.172
316.836
316.436
316
315.555
315.123
314.73
314.44
308.676
308.848
309.084
309.344
309.611
309.872
310.113
310.314
310.461
310.538
310.538
310.461
310.314
310.113
309.872
309.611
309.344
309.084
308.848
308.676
302.909
302.966
303.045
303.132
303.222
303.309
303.39
303.457
303.507
303.532
303.532
303.507
303.457
303.39
303.309
303.222
303.132
303.045
302.966
302.909
343.473
344.392
345.562
346.832
348.133
349.404
350.572
351.554
352.267
352.643
352.643
352.267
351.554
350.572
349.404
348.133
346.832
345.562
344.392
343.473
337.706
338.485
339.494
340.592
341.719
342.818
343.828
344.677
345.293
345.618
345.618
345.293
344.677
343.828
342.818
341.719
340.592
339.494
338.485
337.706
331.928
332.574
333.424
334.353
335.305
336.234
337.087
337.803
338.323
338.597
338.597
338.323
337.803
337.087
336.234
335.305
334.353
333.424
332.574
331.928
326.141
326.661
327.354
328.112
328.89
329.65
330.347
330.932
331.357
331.58
331.58
331.357
330.932
330.347
329.65
328.89
328.112
327.354
326.661
326.141
320.345
320.744
321.282
321.871
322.476
323.067
323.608
324.063
324.392
324.566
324.566
324.392
324.063
323.608
323.067
322.476
321.871
321.282
320.744
320.345
314.544
314.826
315.209
315.63
316.062
316.484
316.87
317.195
317.43
317.554
317.554
317.43
317.195
316.87
316.484
316.062
315.63
315.209
314.826
314.544
308.738
308.906
309.136
309.389
309.648
309.901
310.133
310.328
310.469
310.544
310.544
310.469
310.328
310.133
309.901
309.648
309.389
309.136
308.906
308.738
302.929
302.986
303.063
303.147
303.234
303.319
303.397
303.462
303.509
303.534
303.534
303.509
303.462
303.397
303.319
303.234
303.147
303.063
302.986
302.929
343.894
344.786
345.917
347.141
348.392
349.61
350.726
351.662
352.341
352.698
352.698
352.341
351.662
350.726
349.61
348.392
347.141
345.917
344.786
343.894
338.071
338.825
339.801
340.861
341.943
342.998
343.963
344.772
345.358
345.667
345.667
345.358
344.772
343.963
342.998
341.943
340.861
339.801
338.825
338.071
332.236
332.862
333.684
334.579
335.495
336.386
337.201
337.884
338.379
338.64
338.64
338.379
337.884
337.201
336.386
335.495
334.579
333.684
332.862
332.236
326.392
326.896
327.566
328.298
329.046
329.774
330.441
330.999
331.403
331.616
331.616
331.403
330.999
330.441
329.774
329.046
328.298
327.566
326.896
326.392
320.54
320.927
321.447
322.016
322.597
323.163
323.681
324.115
324.429
324.594
324.594
324.429
324.115
323.681
323.163
322.597
322.016
321.447
320.927
320.54
314.683
314.957
315.327
315.733
316.149
316.553
316.923
317.232
317.456
317.574
317.574
317.456
317.232
316.923
316.553
316.149
315.733
315.327
314.957
314.683
308.821
308.985
309.207
309.451
309.7
309.943
310.165
310.351
310.485
310.556
310.556
310.485
310.351
310.165
309.943
309.7
309.451
309.207
308.985
308.821
302.957
303.012
303.086
303.168
303.252
303.333
303.407
303.47
303.515
303.538
303.538
303.515
303.47
303.407
303.333
303.252
303.168
303.086
303.012
302.957
344.428
345.286
346.372
347.543
348.735
349.892
350.948
351.831
352.469
352.805
352.805
352.469
351.831
350.948
349.892
348.735
347.543
346.372
345.286
344.428
338.532
339.259
340.195
341.208
342.24
343.241
344.155
344.919
345.471
345.761
345.761
345.471
344.919
344.155
343.241
342.24
341.208
340.195
339.259
338.532
332.625
333.228
334.017
334.873
335.746
336.592
337.364
338.009
338.475
338.72
338.72
338.475
338.009
337.364
336.592
335.746
334.873
334.017
333.228
332.625
326.71
327.195
327.838
328.538
329.252
329.943
330.574
331.101
331.482
331.682
331.682
331.482
331.101
330.574
329.943
329.252
328.538
327.838
327.195
326.71
320.787
321.16
321.659
322.203
322.757
323.295
323.785
324.195
324.49
324.646
324.646
324.49
324.195
323.785
323.295
322.757
322.203
321.659
321.16
320.787
314.859
315.123
315.478
315.867
316.263
316.647
316.997
317.29
317.501
317.611
317.611
317.501
317.29
316.997
316.647
316.263
315.867
315.478
315.123
314.859
308.927
309.084
309.298
309.531
309.769
309.999
310.21
310.385
310.512
310.578
310.578
310.512
310.385
310.21
309.999
309.769
309.531
309.298
309.084
308.927
302.993
303.045
303.117
303.195
303.275
303.352
303.422
303.481
303.524
303.546
303.546
303.524
303.481
303.422
303.352
303.275
303.195
303.117
303.045
302.993
345.079
345.899
346.934
348.045
349.172
350.26
351.25
352.075
352.67
352.983
352.983
352.67
352.075
351.25
350.26
349.172
348.045
346.934
345.899
345.079
339.094
339.789
340.681
341.643
342.619
343.561
344.418
345.131
345.646
345.916
345.916
345.646
345.131
344.418
343.561
342.619
341.643
340.681
339.789
339.094
333.1
333.676
334.428
335.241
336.066
336.862
337.587
338.189
338.624
338.852
338.852
338.624
338.189
337.587
336.862
336.066
335.241
334.428
333.676
333.1
327.097
327.561
328.174
328.839
329.513
330.165
330.756
331.249
331.604
331.79
331.79
331.604
331.249
330.756
330.165
329.513
328.839
328.174
327.561
327.097
321.088
321.444
321.92
322.436
322.961
323.467
323.927
324.31
324.586
324.731
324.731
324.586
324.31
323.927
323.467
322.961
322.436
321.92
321.444
321.088
315.074
315.326
315.665
316.034
316.408
316.77
317.099
317.372
317.569
317.672
317.672
317.569
317.372
317.099
316.77
316.408
316.034
315.665
315.326
315.074
309.056
309.206
309.41
309.631
309.856
310.073
310.271
310.435
310.553
310.615
310.615
310.553
310.435
310.271
310.073
309.856
309.631
309.41
309.206
309.056
303.036
303.086
303.154
303.229
303.304
303.377
303.443
303.498
303.537
303.558
303.558
303.537
303.498
303.443
303.377
303.304
303.229
303.154
303.086
303.036
345.85
346.629
347.609
348.656
349.713
350.729
351.65
352.414
352.964
353.252
353.252
352.964
352.414
351.65
350.729
349.713
348.656
347.609
346.629
345.85
339.761
340.421
341.266
342.172
343.087
343.967
344.764
345.426
345.901
346.15
346.15
345.901
345.426
344.764
343.967
343.087
342.172
341.266
340.421
339.761
333.663
334.21
334.922
335.688
336.462
337.206
337.88
338.439
338.84
339.051
339.051
338.84
338.439
337.88
337.206
336.462
335.688
334.922
334.21
333.663
327.557
327.997
328.578
329.204
329.837
330.446
330.997
331.453
331.782
331.954
331.954
331.782
331.453
330.997
330.446
329.837
329.204
328.578
327.997
327.557
321.445
321.783
322.234
322.721
323.213
323.686
324.114
324.469
324.724
324.858
324.858
324.724
324.469
324.114
323.686
323.213
322.721
322.234
321.783
321.445
315.329
315.568
315.889
316.237
316.589
316.927
317.232
317.486
317.668
317.763
317.763
317.668
317.486
317.232
316.927
316.589
316.237
315.889
315.568
315.329
309.209
309.352
309.544
309.753
309.964
310.167
310.351
310.503
310.612
310.67
310.67
310.612
310.503
310.351
310.167
309.964
309.753
309.544
309.352
309.209
303.087
303.135
303.199
303.269
303.34
303.408
303.47
303.521
303.557
303.577
303.577
303.557
303.521
303.47
303.408
303.34
303.269
303.199
303.135
303.087
346.747
347.483
348.404
349.385
350.369
351.312
352.162
352.864
353.368
353.631
353.631
353.368
352.864
352.162
351.312
350.369
349.385
348.404
347.483
346.747
340.536
341.159
341.954
342.803
343.656
344.472
345.208
345.816
346.252
346.48
346.48
346.252
345.816
345.208
344.472
343.656
342.803
341.954
341.159
340.536
334.317
334.834
335.504
336.222
336.943
337.633
338.255
338.769
339.138
339.33
339.33
339.138
338.769
338.255
337.633
336.943
336.222
335.504
334.834
334.317
328.092
328.508
329.054
329.64
330.231
330.795
331.304
331.724
332.025
332.182
332.182
332.025
331.724
331.304
330.795
330.231
329.64
329.054
328.508
328.092
321.86
322.18
322.604
323.06
323.519
323.958
324.353
324.68
324.914
325.036
325.036
324.914
324.68
324.353
323.958
323.519
323.06
322.604
322.18
321.86
315.625
315.851
316.153
316.479
316.807
317.121
317.403
317.636
317.803
317.891
317.891
317.803
317.636
317.403
317.121
316.807
316.479
316.153
315.851
315.625
309.387
309.522
309.703
309.899
310.095
310.284
310.453
310.594
310.694
310.746
310.746
310.694
310.594
310.453
310.284
310.095
309.899
309.703
309.522
309.387
303.147
303.192
303.253
303.318
303.384
303.447
303.504
303.551
303.585
303.602
303.602
303.585
303.551
303.504
303.447
303.384
303.318
303.253
303.192
303.147
347.773
348.465
349.327
350.24
351.152
352.02
352.799
353.441
353.9
354.139
354.139
353.9
353.441
352.799
352.02
351.152
350.24
349.327
348.465
347.773
341.423
342.009
342.753
343.543
344.333
345.085
345.76
346.316
346.713
346.92
346.92
346.713
346.316
345.76
345.085
344.333
343.543
342.753
342.009
341.423
335.067
335.552
336.179
336.847
337.516
338.152
338.723
339.192
339.528
339.703
339.703
339.528
339.192
338.723
338.152
337.516
336.847
336.179
335.552
335.067
328.704
329.095
329.606
330.152
330.699
331.219
331.686
332.07
332.344
332.488
332.488
332.344
332.07
331.686
331.219
330.699
330.152
329.606
329.095
328.704
322.336
322.636
323.033
323.457
323.883
324.287
324.65
324.949
325.162
325.274
325.274
325.162
324.949
324.65
324.287
323.883
323.457
323.033
322.636
322.336
315.965
316.177
316.46
316.763
317.067
317.356
317.615
317.829
317.981
318.061
318.061
317.981
317.829
317.615
317.356
317.067
316.763
316.46
316.177
315.965
309.591
309.717
309.887
310.069
310.252
310.425
310.581
310.709
310.801
310.848
310.848
310.801
310.709
310.581
310.425
310.252
310.069
309.887
309.717
309.591
303.215
303.257
303.314
303.375
303.436
303.495
303.547
303.59
303.62
303.636
303.636
303.62
303.59
303.547
303.495
303.436
303.375
303.314
303.257
303.215
348.934
349.581
350.384
351.229
352.069
352.865
353.575
354.158
354.573
354.79
354.79
354.573
354.158
353.575
352.865
352.069
351.229
350.384
349.581
348.934
342.427
342.975
343.667
344.399
345.127
345.817
346.432
346.937
347.297
347.484
347.484
347.297
346.937
346.432
345.817
345.127
344.399
343.667
342.975
342.427
335.914
336.368
336.952
337.571
338.187
338.77
339.291
339.718
340.022
340.18
340.18
340.022
339.718
339.291
338.77
338.187
337.571
336.952
336.368
335.914
329.396
329.762
330.238
330.744
331.248
331.725
332.151
332.5
332.748
332.878
332.878
332.748
332.5
332.151
331.725
331.248
330.744
330.238
329.762
329.396
322.874
323.155
323.524
323.917
324.309
324.681
325.012
325.283
325.477
325.577
325.577
325.477
325.283
325.012
324.681
324.309
323.917
323.524
323.155
322.874
316.349
316.547
316.811
317.092
317.372
317.637
317.874
318.068
318.206
318.278
318.278
318.206
318.068
317.874
317.637
317.372
317.092
316.811
316.547
316.349
309.821
309.94
310.098
310.266
310.435
310.594
310.736
310.853
310.935
310.979
310.979
310.935
310.853
310.736
310.594
310.435
310.266
310.098
309.94
309.821
303.292
303.332
303.385
303.441
303.498
303.551
303.599
303.638
303.666
303.68
303.68
303.666
303.638
303.599
303.551
303.498
303.441
303.385
303.332
303.292
350.233
350.836
351.58
352.359
353.129
353.855
354.5
355.027
355.401
355.596
355.596
355.401
355.027
354.5
353.855
353.129
352.359
351.58
350.836
350.233
343.551
344.06
344.702
345.377
346.045
346.674
347.233
347.69
348.014
348.182
348.182
348.014
347.69
347.233
346.674
346.045
345.377
344.702
344.06
343.551
336.863
337.286
337.827
338.398
338.963
339.495
339.968
340.354
340.628
340.77
340.77
340.628
340.354
339.968
339.495
338.963
338.398
337.827
337.286
336.863
330.171
330.512
330.953
331.42
331.882
332.318
332.704
333.02
333.244
333.361
333.361
333.244
333.02
332.704
332.318
331.882
331.42
330.953
330.512
330.171
323.476
323.738
324.08
324.443
324.802
325.141
325.442
325.688
325.862
325.953
325.953
325.862
325.688
325.442
325.141
324.802
324.443
324.08
323.738
323.476
316.779
316.964
317.208
317.467
317.724
317.966
318.181
318.357
318.481
318.546
318.546
318.481
318.357
318.181
317.966
317.724
317.467
317.208
316.964
316.779
310.079
310.19
310.336
310.492
310.646
310.792
310.921
311.026
311.101
311.14
311.14
311.101
311.026
310.921
310.792
310.646
310.492
310.336
310.19
310.079
303.379
303.416
303.465
303.517
303.569
303.617
303.661
303.696
303.721
303.734
303.734
303.721
303.696
303.661
303.617
303.569
303.517
303.465
303.416
303.379
351.674
352.233
352.92
353.636
354.339
354.999
355.582
356.057
356.393
356.567
356.567
356.393
356.057
355.582
354.999
354.339
353.636
352.92
352.233
351.674
344.796
345.269
345.862
346.482
347.092
347.664
348.17
348.581
348.872
349.023
349.023
348.872
348.581
348.17
347.664
347.092
346.482
345.862
345.269
344.796
337.915
338.308
338.807
339.332
339.848
340.332
340.76
341.107
341.354
341.481
341.481
341.354
341.107
340.76
340.332
339.848
339.332
338.807
338.308
337.915
331.031
331.347
331.754
332.183
332.606
333.002
333.352
333.636
333.838
333.942
333.942
333.838
333.636
333.352
333.002
332.606
332.183
331.754
331.347
331.031
324.144
324.387
324.703
325.036
325.365
325.673
325.945
326.167
326.323
326.405
326.405
326.323
326.167
325.945
325.673
325.365
325.036
324.703
324.387
324.144
317.256
317.427
317.652
317.891
318.126
318.346
318.54
318.699
318.811
318.869
318.869
318.811
318.699
318.54
318.346
318.126
317.891
317.652
317.427
317.256
310.366
310.468
310.603
310.746
310.887
311.02
311.136
311.231
311.299
311.334
311.334
311.299
311.231
311.136
311.02
310.887
310.746
310.603
310.468
310.366
303.475
303.509
303.554
303.602
303.649
303.694
303.733
303.765
303.787
303.799
303.799
303.787
303.765
303.733
303.694
303.649
303.602
303.554
303.509
303.475
353.258
353.775
354.407
355.063
355.704
356.301
356.827
357.253
357.554
357.709
357.709
357.554
357.253
356.827
356.301
355.704
355.063
354.407
353.775
353.258
346.166
346.604
347.149
347.717
348.273
348.791
349.247
349.616
349.877
350.011
350.011
349.877
349.616
349.247
348.791
348.273
347.717
347.149
346.604
346.166
339.073
339.435
339.895
340.375
340.846
341.284
341.67
341.982
342.203
342.317
342.317
342.203
341.982
341.67
341.284
340.846
340.375
339.895
339.435
339.073
331.977
332.268
332.643
333.036
333.421
333.78
334.096
334.351
334.532
334.625
334.625
334.532
334.351
334.096
333.78
333.421
333.036
332.643
332.268
331.977
324.879
325.103
325.394
325.699
325.999
326.278
326.524
326.723
326.863
326.936
326.936
326.863
326.723
326.524
326.278
325.999
325.699
325.394
325.103
324.879
317.78
317.939
318.146
318.364
318.578
318.778
318.953
319.096
319.196
319.248
319.248
319.196
319.096
318.953
318.778
318.578
318.364
318.146
317.939
317.78
310.68
310.775
310.899
311.031
311.159
311.279
311.384
311.47
311.53
311.561
311.561
311.53
311.47
311.384
311.279
311.159
311.031
310.899
310.775
310.68
303.58
303.612
303.654
303.697
303.741
303.781
303.816
303.845
303.865
303.875
303.875
303.865
303.845
303.816
303.781
303.741
303.697
303.654
303.612
303.58
354.985
355.462
356.043
356.641
357.224
357.764
358.237
358.618
358.887
359.026
359.026
358.887
358.618
358.237
357.764
357.224
356.641
356.043
355.462
354.985
347.66
348.063
348.564
349.083
349.588
350.056
350.466
350.797
351.03
351.15
351.15
351.03
350.797
350.466
350.056
349.588
349.083
348.564
348.063
347.66
340.334
340.668
341.09
341.529
341.956
342.353
342.7
342.98
343.177
343.279
343.279
343.177
342.98
342.7
342.353
341.956
341.529
341.09
340.668
340.334
333.007
333.276
333.62
333.979
334.329
334.653
334.937
335.167
335.328
335.411
335.411
335.328
335.167
334.937
334.653
334.329
333.979
333.62
333.276
333.007
325.679
325.886
326.153
326.432
326.704
326.957
327.178
327.356
327.482
327.546
327.546
327.482
327.356
327.178
326.957
326.704
326.432
326.153
325.886
325.679
318.351
318.498
318.688
318.887
319.082
319.262
319.42
319.548
319.638
319.684
319.684
319.638
319.548
319.42
319.262
319.082
318.887
318.688
318.498
318.351
311.023
311.111
311.225
311.345
311.461
311.57
311.665
311.741
311.795
311.823
311.823
311.795
311.741
311.665
311.57
311.461
311.345
311.225
311.111
311.023
303.695
303.724
303.763
303.803
303.842
303.878
303.91
303.936
303.954
303.963
303.963
303.954
303.936
303.91
303.878
303.842
303.803
303.763
303.724
303.695
356.85
357.289
357.821
358.367
358.895
359.382
359.807
360.148
360.388
360.512
360.512
360.388
360.148
359.807
359.382
358.895
358.367
357.821
357.289
356.85
349.271
349.642
350.101
350.574
351.032
351.455
351.823
352.12
352.327
352.434
352.434
352.327
352.12
351.823
351.455
351.032
350.574
350.101
349.642
349.271
341.693
342.001
342.388
342.788
343.176
343.534
343.846
344.096
344.272
344.363
344.363
344.272
344.096
343.846
343.534
343.176
342.788
342.388
342.001
341.693
334.117
334.364
334.68
335.007
335.325
335.618
335.873
336.078
336.222
336.296
336.296
336.222
336.078
335.873
335.618
335.325
335.007
334.68
334.364
334.117
326.541
326.731
326.976
327.231
327.478
327.706
327.904
328.064
328.176
328.234
328.234
328.176
328.064
327.904
327.706
327.478
327.231
326.976
326.731
326.541
318.966
319.101
319.275
319.457
319.634
319.797
319.939
320.053
320.133
320.175
320.175
320.133
320.053
319.939
319.797
319.634
319.457
319.275
319.101
318.966
311.392
311.473
311.577
311.687
311.793
311.891
311.976
312.045
312.093
312.117
312.117
312.093
312.045
311.976
311.891
311.793
311.687
311.577
311.473
311.392
303.819
303.846
303.881
303.917
303.953
303.986
304.014
304.037
304.053
304.062
304.062
304.053
304.037
304.014
303.986
303.953
303.917
303.881
303.846
303.819
358.833
359.237
359.724
360.221
360.7
361.139
361.521
361.826
362.04
362.15
362.15
362.04
361.826
361.521
361.139
360.7
360.221
359.724
359.237
358.833
350.982
351.323
351.743
352.174
352.589
352.971
353.302
353.567
353.752
353.848
353.848
353.752
353.567
353.302
352.971
352.589
352.174
351.743
351.323
350.982
343.134
343.417
343.772
344.136
344.488
344.811
345.091
345.316
345.473
345.554
345.554
345.473
345.316
345.091
344.811
344.488
344.136
343.772
343.417
343.134
335.291
335.519
335.808
336.106
336.394
336.659
336.888
337.072
337.201
337.267
337.267
337.201
337.072
336.888
336.659
336.394
336.106
335.808
335.519
335.291
327.452
327.627
327.851
328.083
328.307
328.513
328.692
328.835
328.935
328.987
328.987
328.935
328.835
328.692
328.513
328.307
328.083
327.851
327.627
327.452
319.616
319.74
319.899
320.065
320.226
320.373
320.501
320.603
320.674
320.711
320.711
320.674
320.603
320.501
320.373
320.226
320.065
319.899
319.74
319.616
311.782
311.856
311.952
312.051
312.147
312.236
312.313
312.374
312.417
312.439
312.439
312.417
312.374
312.313
312.236
312.147
312.051
311.952
311.856
311.782
303.949
303.974
304.006
304.039
304.072
304.101
304.127
304.148
304.162
304.17
304.17
304.162
304.148
304.127
304.101
304.072
304.039
304.006
303.974
303.949
360.884
361.255
361.701
362.154
362.589
362.986
363.33
363.604
363.796
363.894
363.894
363.796
363.604
363.33
362.986
362.589
362.154
361.701
361.255
360.884
352.742
353.055
353.441
353.834
354.211
354.556
354.855
355.093
355.259
355.344
355.344
355.259
355.093
354.855
354.556
354.211
353.834
353.441
353.055
352.742
344.611
344.871
345.196
345.529
345.849
346.141
346.394
346.596
346.737
346.809
346.809
346.737
346.596
346.394
346.141
345.849
345.529
345.196
344.871
344.611
336.491
336.7
336.966
337.238
337.5
337.74
337.947
338.112
338.227
338.287
338.287
338.227
338.112
337.947
337.74
337.5
337.238
336.966
336.7
336.491
328.38
328.541
328.746
328.959
329.162
329.349
329.51
329.639
329.729
329.775
329.775
329.729
329.639
329.51
329.349
329.162
328.959
328.746
328.541
328.38
320.276
320.389
320.536
320.688
320.834
320.967
321.082
321.175
321.239
321.272
321.272
321.239
321.175
321.082
320.967
320.834
320.688
320.536
320.389
320.276
312.177
312.245
312.333
312.424
312.512
312.592
312.661
312.716
312.755
312.775
312.775
312.755
312.716
312.661
312.592
312.512
312.424
312.333
312.245
312.177
304.082
304.104
304.134
304.164
304.194
304.22
304.244
304.262
304.275
304.282
304.282
304.275
304.262
304.244
304.22
304.194
304.164
304.134
304.104
304.082
362.868
363.211
363.622
364.039
364.437
364.799
365.111
365.359
365.532
365.621
365.621
365.532
365.359
365.111
364.799
364.437
364.039
363.622
363.211
362.868
354.424
354.715
355.07
355.432
355.778
356.093
356.364
356.58
356.73
356.807
356.807
356.73
356.58
356.364
356.093
355.778
355.432
355.07
354.715
354.424
346.008
346.249
346.549
346.856
347.149
347.416
347.646
347.829
347.957
348.022
348.022
347.957
347.829
347.646
347.416
347.149
346.856
346.549
346.249
346.008
337.615
337.809
338.054
338.306
338.546
338.765
338.954
339.104
339.209
339.262
339.262
339.209
339.104
338.954
338.765
338.546
338.306
338.054
337.809
337.615
329.242
329.391
329.582
329.778
329.965
330.136
330.283
330.4
330.482
330.523
330.523
330.482
330.4
330.283
330.136
329.965
329.778
329.582
329.391
329.242
320.886
320.991
321.127
321.267
321.401
321.524
321.629
321.713
321.771
321.801
321.801
321.771
321.713
321.629
321.524
321.401
321.267
321.127
320.991
320.886
312.541
312.604
312.685
312.77
312.85
312.924
312.987
313.037
313.072
313.09
313.09
313.072
313.037
312.987
312.924
312.85
312.77
312.685
312.604
312.541
304.203
304.224
304.251
304.28
304.307
304.331
304.353
304.369
304.381
304.387
304.387
304.381
304.369
304.353
304.331
304.307
304.28
304.251
304.224
304.203
364.433
364.756
365.142
365.534
365.905
366.243
366.534
366.764
366.924
367.006
367.006
366.924
366.764
366.534
366.243
365.905
365.534
365.142
364.756
364.433
355.701
355.975
356.31
356.651
356.975
357.27
357.523
357.724
357.864
357.936
357.936
357.864
357.724
357.523
357.27
356.975
356.651
356.31
355.975
355.701
347.034
347.262
347.546
347.835
348.111
348.362
348.578
348.749
348.868
348.929
348.929
348.868
348.749
348.578
348.362
348.111
347.835
347.546
347.262
347.034
338.42
338.604
338.837
339.074
339.301
339.507
339.684
339.825
339.923
339.973
339.973
339.923
339.825
339.684
339.507
339.301
339.074
338.837
338.604
338.42
329.849
329.99
330.171
330.356
330.533
330.694
330.832
330.942
331.019
331.058
331.058
331.019
330.942
330.832
330.694
330.533
330.356
330.171
329.99
329.849
321.309
321.409
321.538
321.671
321.797
321.913
322.012
322.091
322.145
322.173
322.173
322.145
322.091
322.012
321.913
321.797
321.671
321.538
321.409
321.309
312.791
312.851
312.928
313.008
313.084
313.154
313.213
313.261
313.294
313.31
313.31
313.294
313.261
313.213
313.154
313.084
313.008
312.928
312.851
312.791
304.286
304.306
304.332
304.359
304.385
304.408
304.428
304.444
304.455
304.46
304.46
304.455
304.444
304.428
304.408
304.385
304.359
304.332
304.306
304.286
)
;

boundaryField
{
    hotSide
    {
        type            fixedGradient;
        gradient        nonuniform List<scalar> 
400
(
453.343
454.477
456.755
460.197
464.831
470.694
477.827
486.274
496.081
507.295
519.961
534.121
549.813
567.073
585.931
606.413
628.541
652.332
677.801
704.959
466.036
467.07
469.15
472.305
476.571
481.997
488.637
496.549
505.792
516.425
528.505
542.082
557.205
573.915
592.246
612.228
633.885
657.237
682.297
709.076
479.772
480.686
482.531
485.345
489.176
494.088
500.152
507.442
516.034
526.003
537.417
550.34
564.827
580.928
598.681
618.121
639.271
662.153
686.779
713.16
494.325
495.099
496.671
499.089
502.418
506.741
512.147
518.733
526.594
535.822
546.501
558.707
572.505
587.95
605.088
623.953
644.572
666.965
691.144
717.118
509.287
509.903
511.169
513.144
515.914
519.583
524.266
530.083
537.152
545.583
555.479
566.927
580.003
594.768
611.272
629.552
649.634
671.536
695.27
720.84
524.034
524.483
525.42
526.923
529.1
532.08
536.006
541.022
547.273
554.889
563.989
574.675
587.03
601.123
617.005
634.714
654.277
675.709
699.019
724.207
537.722
538.003
538.613
539.648
541.238
543.54
546.724
550.963
556.424
563.26
571.604
581.571
593.252
606.721
622.03
639.218
658.309
679.317
702.247
727.096
549.34
549.469
549.785
550.399
551.464
553.161
555.689
559.243
564.014
570.171
577.863
587.214
598.321
611.261
626.089
642.841
661.541
682.198
704.816
729.387
557.842
557.855
557.946
558.238
558.903
560.143
562.174
565.214
569.468
575.12
582.33
591.226
601.914
614.469
628.947
645.385
663.803
684.21
706.604
730.978
562.347
562.297
562.265
562.382
562.831
563.822
565.585
568.348
572.325
577.707
584.659
593.314
603.779
616.13
630.425
646.697
664.968
685.244
707.522
731.794
562.347
562.297
562.265
562.382
562.831
563.822
565.585
568.348
572.325
577.707
584.659
593.314
603.779
616.13
630.425
646.697
664.968
685.244
707.522
731.794
557.842
557.855
557.946
558.238
558.903
560.143
562.174
565.214
569.468
575.12
582.33
591.226
601.914
614.469
628.947
645.385
663.803
684.21
706.604
730.978
549.34
549.469
549.785
550.399
551.464
553.161
555.689
559.243
564.014
570.171
577.863
587.214
598.321
611.261
626.089
642.841
661.541
682.198
704.816
729.387
537.722
538.003
538.613
539.648
541.238
543.54
546.724
550.963
556.424
563.26
571.604
581.571
593.252
606.721
622.03
639.218
658.309
679.317
702.247
727.096
524.034
524.483
525.42
526.923
529.1
532.08
536.006
541.022
547.273
554.889
563.989
574.675
587.03
601.123
617.005
634.714
654.277
675.709
699.019
724.207
509.287
509.903
511.169
513.144
515.914
519.583
524.266
530.083
537.152
545.583
555.479
566.927
580.003
594.768
611.272
629.552
649.634
671.536
695.27
720.84
494.325
495.099
496.671
499.089
502.418
506.741
512.147
518.733
526.594
535.822
546.501
558.707
572.505
587.95
605.088
623.953
644.572
666.965
691.144
717.118
479.772
480.686
482.531
485.345
489.176
494.088
500.152
507.442
516.034
526.003
537.417
550.34
564.827
580.928
598.681
618.121
639.271
662.153
686.779
713.16
466.036
467.07
469.15
472.305
476.571
481.997
488.637
496.549
505.792
516.425
528.505
542.082
557.205
573.915
592.246
612.228
633.885
657.237
682.297
709.076
453.343
454.477
456.755
460.197
464.831
470.694
477.827
486.274
496.081
507.295
519.961
534.121
549.813
567.073
585.931
606.413
628.541
652.332
677.801
704.959
)
;
    }
    coldSide
    {
        type            mixed;
        refValue        uniform 300;
        refGradient     uniform 0;
        valueFraction   uniform 0.991591;
        source          uniform 0;
        value           nonuniform List<scalar> 
400
(
300.024
300.024
300.024
300.025
300.025
300.025
300.026
300.026
300.026
300.027
300.028
300.028
300.029
300.03
300.031
300.032
300.033
300.034
300.035
300.036
300.025
300.025
300.025
300.025
300.025
300.026
300.026
300.026
300.027
300.027
300.028
300.029
300.03
300.03
300.031
300.032