/*--------------------------------*- C++ -*----------------------------------*\
| =========                 |                                                 |
| \\      /  F ield         | OpenFOAM: The Open Source CFD Toolbox           |
|  \\    /   O peration     | Version:  2212                                  |
|   \\  /    A nd           | Website:  www.openfoam.com                      |
|    \\/     M anipulation  |                                                 |
\*---------------------------------------------------------------------------*/
FoamFile
{
    version     2.0;
    format      ascii;
    arch        "LSB;label=32;scalar=64";
    class       volScalarField;
    location    "0";
    object      Tdirect;
}
// * * * * * * * * * * * * * * * * * * * * * * * * * * * * * * * * * * * * * //

dimensions      [0 0 0 1 0 0 0];

internalField   nonuniform List<scalar> 
3200
(
345.362
345.617
345.942
346.297
346.663
347.022
347.353
347.633
347.836
347.944
347.944
347.836
347.633
347.353
347.022
346.663
346.297
345.942
345.617
345.362
339.33
339.546
339.827
340.134
340.451
340.761
341.048
341.289
341.465
341.558
341.558
341.465
341.289
341.048
340.761
340.451
340.134
339.827
339.546
339.33
333.292
333.472
333.708
333.968
334.235
334.497
334.739
334.943
335.092
335.17
335.17
335.092
334.943
334.739
334.497
334.235
333.968
333.708
333.472
333.292
327.25
327.394
327.587
327.799
328.017
328.232
328.429
328.596
328.717
328.781
328.781
328.717
328.596
328.429
328.232
328.017
327.799
327.587
327.394
327.25
321.203
321.314
321.464
321.628
321.798
321.965
322.118
322.248
322.342
322.391
322.391
322.342
322.248
322.118
321.965
321.798
321.628
321.464
321.314
321.203
315.154
315.233
315.339
315.457
315.578
315.697
315.807
315.899
315.966
316.001
316.001
315.966
315.899
315.807
315.697
315.578
315.457
315.339
315.233
315.154
309.103
309.15
309.214
309.285
309.358
309.429
309.495
309.55
309.59
309.612
309.612
309.59
309.55
309.495
309.429
309.358
309.285
309.214
309.15
309.103
303.052
303.067
303.089
303.112
303.137
303.161
303.183
303.201
303.215
303.222
303.222
303.215
303.201
303.183
303.161
303.137
303.112
303.089
303.067
303.052
345.551
345.804
346.127
346.479
346.841
347.196
347.523
347.799
348
348.107
348.107
348
347.799
347.523
347.196
346.841
346.479
346.127
345.804
345.551
339.495
339.709
339.987
340.292
340.605
340.912
341.195
341.433
341.607
341.699
341.699
341.607
341.433
341.195
340.912
340.605
340.292
339.987
339.709
339.495
333.431
333.609
333.844
334.101
334.366
334.625
334.864
335.065
335.212
335.289
335.289
335.212
335.065
334.864
334.625
334.366
334.101
333.844
333.609
333.431
327.363
327.506
327.698
327.908
328.124
328.336
328.531
328.696
328.815
328.878
328.878
328.815
328.696
328.531
328.336
328.124
327.908
327.698
327.506
327.363
321.292
321.401
321.55
321.713
321.881
322.046
322.198
322.325
322.418
322.467
322.467
322.418
322.325
322.198
322.046
321.881
321.713
321.55
321.401
321.292
315.217
315.295
315.401
315.517
315.638
315.755
315.863
315.955
316.021
316.056
316.056
316.021
315.955
315.863
315.755
315.638
315.517
315.401
315.295
315.217
309.141
309.188
309.251
309.321
309.393
309.464
309.529
309.584
309.623
309.644
309.644
309.623
309.584
309.529
309.464
309.393
309.321
309.251
309.188
309.141
303.064
303.08
303.101
303.125
303.149
303.172
303.194
303.213
303.226
303.233
303.233
303.226
303.213
303.194
303.172
303.149
303.125
303.101
303.08
303.064
345.931
346.18
346.498
346.843
347.197
347.545
347.864
348.134
348.33
348.433
348.433
348.33
348.134
347.864
347.545
347.197
346.843
346.498
346.18
345.931
339.824
340.034
340.308
340.607
340.914
341.214
341.491
341.723
341.893
341.982
341.982
341.893
341.723
341.491
341.214
340.914
340.607
340.308
340.034
339.824
333.71
333.885
334.115
334.368
334.627
334.881
335.114
335.311
335.454
335.529
335.529
335.454
335.311
335.114
334.881
334.627
334.368
334.115
333.885
333.71
327.591
327.732
327.92
328.126
328.338
328.545
328.736
328.897
329.013
329.075
329.075
329.013
328.897
328.736
328.545
328.338
328.126
327.92
327.732
327.591
321.469
321.577
321.722
321.883
322.048
322.209
322.357
322.482
322.572
322.62
322.62
322.572
322.482
322.357
322.209
322.048
321.883
321.722
321.577
321.469
315.344
315.42
315.524
315.639
315.756
315.871
315.977
316.066
316.131
316.165
316.165
316.131
316.066
315.977
315.871
315.756
315.639
315.524
315.42
315.344
309.217
309.263
309.325
309.394
309.465
309.534
309.597
309.651
309.689
309.71
309.71
309.689
309.651
309.597
309.534
309.465
309.394
309.325
309.263
309.217
303.09
303.105
303.126
303.149
303.173
303.196
303.217
303.235
303.248
303.255
303.255
303.248
303.235
303.217
303.196
303.173
303.149
303.126
303.105
303.09
346.501
346.745
347.054
347.39
347.734
348.07
348.379
348.639
348.827
348.927
348.927
348.827
348.639
348.379
348.07
347.734
347.39
347.054
346.745
346.501
340.317
340.523
340.79
341.081
341.379
341.669
341.937
342.161
342.324
342.41
342.41
342.324
342.161
341.937
341.669
341.379
341.081
340.79
340.523
340.317
334.127
334.298
334.523
334.768
335.02
335.266
335.492
335.681
335.819
335.891
335.891
335.819
335.681
335.492
335.266
335.02
334.768
334.523
334.298
334.127
327.932
328.07
328.253
328.454
328.66
328.861
329.045
329.2
329.312
329.371
329.371
329.312
329.2
329.045
328.861
328.66
328.454
328.253
328.07
327.932
321.734
321.84
321.982
322.138
322.298
322.454
322.597
322.717
322.805
322.851
322.851
322.805
322.717
322.597
322.454
322.298
322.138
321.982
321.84
321.734
315.534
315.608
315.71
315.821
315.935
316.047
316.149
316.235
316.297
316.33
316.33
316.297
316.235
316.149
316.047
315.935
315.821
315.71
315.608
315.534
309.331
309.376
309.437
309.503
309.572
309.639
309.7
309.752
309.789
309.809
309.809
309.789
309.752
309.7
309.639
309.572
309.503
309.437
309.376
309.331
303.128
303.143
303.163
303.186
303.209
303.231
303.252
303.269
303.281
303.288
303.288
303.281
303.269
303.252
303.231
303.209
303.186
303.163
303.143
303.128
347.263
347.499
347.798
348.122
348.452
348.775
349.07
349.317
349.497
349.591
349.591
349.497
349.317
349.07
348.775
348.452
348.122
347.798
347.499
347.263
340.977
341.177
341.435
341.715
342.001
342.28
342.535
342.749
342.904
342.986
342.986
342.904
342.749
342.535
342.28
342.001
341.715
341.435
341.177
340.977
334.685
334.851
335.068
335.305
335.547
335.783
335.998
336.179
336.31
336.379
336.379
336.31
336.179
335.998
335.783
335.547
335.305
335.068
334.851
334.685
328.389
328.522
328.699
328.893
329.091
329.283
329.46
329.607
329.714
329.77
329.77
329.714
329.607
329.46
329.283
329.091
328.893
328.699
328.522
328.389
322.089
322.191
322.329
322.479
322.633
322.783
322.92
323.034
323.117
323.161
323.161
323.117
323.034
322.92
322.783
322.633
322.479
322.329
322.191
322.089
315.787
315.859
315.957
316.065
316.175
316.282
316.379
316.461
316.521
316.552
316.552
316.521
316.461
316.379
316.282
316.175
316.065
315.957
315.859
315.787
309.483
309.527
309.585
309.65
309.716
309.78
309.839
309.888
309.924
309.942
309.942
309.924
309.888
309.839
309.78
309.716
309.65
309.585
309.527
309.483
303.179
303.194
303.213
303.235
303.257
303.278
303.298
303.315
303.326
303.333
303.333
303.326
303.315
303.298
303.278
303.257
303.235
303.213
303.194
303.179
348.216
348.443
348.731
349.04
349.355
349.661
349.941
350.174
350.343
350.432
350.432
350.343
350.174
349.941
349.661
349.355
349.04
348.731
348.443
348.216
341.803
341.995
342.243
342.511
342.784
343.048
343.29
343.492
343.638
343.715
343.715
343.638
343.492
343.29
343.048
342.784
342.511
342.243
341.995
341.803
335.384
335.543
335.752
335.978
336.209
336.433
336.637
336.807
336.931
336.995
336.995
336.931
336.807
336.637
336.433
336.209
335.978
335.752
335.543
335.384
328.96
329.088
329.258
329.444
329.632
329.815
329.982
330.121
330.222
330.275
330.275
330.222
330.121
329.982
329.815
329.632
329.444
329.258
329.088
328.96
322.533
322.632
322.764
322.908
323.054
323.197
323.326
323.435
323.513
323.554
323.554
323.513
323.435
323.326
323.197
323.054
322.908
322.764
322.632
322.533
316.104
316.174
316.268
316.371
316.476
316.577
316.67
316.747
316.803
316.832
316.832
316.803
316.747
316.67
316.577
316.476
316.371
316.268
316.174
316.104
309.674
309.716
309.772
309.834
309.897
309.958
310.013
310.06
310.093
310.111
310.111
310.093
310.06
310.013
309.958
309.897
309.834
309.772
309.716
309.674
303.243
303.257
303.276
303.296
303.318
303.338
303.357
303.372
303.383
303.389
303.389
303.383
303.372
303.357
303.338
303.318
303.296
303.276
303.257
303.243
349.363
349.58
349.854
350.148
350.446
350.734
350.996
351.214
351.371
351.454
351.454
351.371
351.214
350.996
350.734
350.446
350.148
349.854
349.58
349.363
342.796
342.98
343.216
343.47
343.728
343.978
344.204
344.393
344.529
344.601
344.601
344.529
344.393
344.204
343.978
343.728
343.47
343.216
342.98
342.796
336.224
336.376
336.575
336.79
337.008
337.219
337.41
337.57
337.685
337.745
337.745
337.685
337.57
337.41
337.219
337.008
336.79
336.575
336.376
336.224
329.647
329.77
329.932
330.108
330.286
330.458
330.615
330.745
330.839
330.888
330.888
330.839
330.745
330.615
330.458
330.286
330.108
329.932
329.77
329.647
323.068
323.162
323.288
323.424
323.563
323.697
323.819
323.92
323.993
324.031
324.031
323.993
323.92
323.819
323.697
323.563
323.424
323.288
323.162
323.068
316.486
316.553
316.642
316.74
316.839
316.935
317.022
317.094
317.146
317.173
317.173
317.146
317.094
317.022
316.935
316.839
316.74
316.642
316.553
316.486
309.903
309.943
309.997
310.055
310.115
310.172
310.225
310.268
310.299
310.316
310.316
310.299
310.268
310.225
310.172
310.115
310.055
309.997
309.943
309.903
303.32
303.333
303.351
303.371
303.391
303.41
303.427
303.442
303.452
303.458
303.458
303.452
303.442
303.427
303.41
303.391
303.371
303.351
303.333
303.32
350.705
350.911
351.17
351.447
351.726
351.995
352.239
352.441
352.586
352.662
352.662
352.586
352.441
352.239
351.995
351.726
351.447
351.17
350.911
350.705
343.958
344.133
344.356
344.596
344.838
345.071
345.281
345.456
345.582
345.648
345.648
345.582
345.456
345.281
345.071
344.838
344.596
344.356
344.133
343.958
337.206
337.351
337.539
337.742
337.947
338.144
338.322
338.47
338.576
338.631
338.631
338.576
338.47
338.322
338.144
337.947
337.742
337.539
337.351
337.206
330.451
330.567
330.721
330.887
331.054
331.215
331.361
331.481
331.568
331.614
331.614
331.568
331.481
331.361
331.215
331.054
330.887
330.721
330.567
330.451
323.693
323.782
323.901
324.03
324.16
324.285
324.399
324.492
324.56
324.595
324.595
324.56
324.492
324.399
324.285
324.16
324.03
323.901
323.782
323.693
316.933
316.996
317.081
317.173
317.266
317.355
317.436
317.503
317.551
317.577
317.577
317.551
317.503
317.436
317.355
317.266
317.173
317.081
316.996
316.933
310.171
310.209
310.26
310.315
310.371
310.425
310.473
310.514
310.543
310.558
310.558
310.543
310.514
310.473
310.425
310.371
310.315
310.26
310.209
310.171
303.41
303.422
303.439
303.458
303.477
303.495
303.511
303.524
303.534
303.539
303.539
303.534
303.524
303.511
303.495
303.477
303.458
303.439
303.422
303.41
352.242
352.436
352.68
352.939
353.2
353.449
353.674
353.86
353.993
354.062
354.062
353.993
353.86
353.674
353.449
353.2
352.939
352.68
352.436
352.242
345.289
345.454
345.664
345.889
346.115
346.33
346.525
346.686
346.801
346.861
346.861
346.801
346.686
346.525
346.33
346.115
345.889
345.664
345.454
345.289
338.332
338.469
338.646
338.836
339.027
339.209
339.374
339.51
339.607
339.658
339.658
339.607
339.51
339.374
339.209
339.027
338.836
338.646
338.469
338.332
331.372
331.482
331.626
331.781
331.938
332.087
332.221
332.333
332.412
332.454
332.454
332.412
332.333
332.221
332.087
331.938
331.781
331.626
331.482
331.372
324.409
324.493
324.605
324.726
324.847
324.964
325.068
325.154
325.216
325.249
325.249
325.216
325.154
325.068
324.964
324.847
324.726
324.605
324.493
324.409
317.444
317.504
317.584
317.67
317.757
317.84
317.915
317.976
318.02
318.044
318.044
318.02
317.976
317.915
317.84
317.757
317.67
317.584
317.504
317.444
310.479
310.514
310.562
310.614
310.666
310.716
310.761
310.798
310.824
310.838
310.838
310.824
310.798
310.761
310.716
310.666
310.614
310.562
310.514
310.479
303.513
303.525
303.541
303.558
303.575
303.592
303.607
303.62
303.628
303.633
303.633
303.628
303.62
303.607
303.592
303.575
303.558
303.541
303.525
303.513
353.975
354.158
354.386
354.628
354.869
355.098
355.305
355.474
355.596
355.659
355.659
355.596
355.474
355.305
355.098
354.869
354.628
354.386
354.158
353.975
346.791
346.946
347.143
347.352
347.561
347.76
347.938
348.085
348.19
348.245
348.245
348.19
348.085
347.938
347.76
347.561
347.352
347.143
346.946
346.791
339.602
339.731
339.897
340.073
340.25
340.418
340.569
340.694
340.782
340.829
340.829
340.782
340.694
340.569
340.418
340.25
340.073
339.897
339.731
339.602
332.411
332.514
332.649
332.794
332.938
333.076
333.199
333.301
333.374
333.411
333.411
333.374
333.301
333.199
333.076
332.938
332.794
332.649
332.514
332.411
325.217
325.296
325.401
325.513
325.626
325.733
325.829
325.908
325.964
325.994
325.994
325.964
325.908
325.829
325.733
325.626
325.513
325.401
325.296
325.217
318.021
318.078
318.152
318.233
318.313
318.389
318.458
318.514
318.555
318.576
318.576
318.555
318.514
318.458
318.389
318.313
318.233
318.152
318.078
318.021
310.825
310.859
310.904
310.952
311
311.046
311.087
311.121
311.145
311.158
311.158
311.145
311.121
311.087
311.046
311
310.952
310.904
310.859
310.825
303.629
303.64
303.655
303.671
303.687
303.703
303.717
303.728
303.736
303.74
303.74
303.736
303.728
303.717
303.703
303.687
303.671
303.655
303.64
303.629
355.907
356.078
356.29
356.514
356.736
356.946
357.134
357.288
357.398
357.455
357.455
357.398
357.288
357.134
356.946
356.736
356.514
356.29
356.078
355.907
348.464
348.609
348.792
348.986
349.178
349.361
349.523
349.657
349.752
349.802
349.802
349.752
349.657
349.523
349.361
349.178
348.986
348.792
348.609
348.464
341.018
341.138
341.292
341.456
341.619
341.773
341.911
342.023
342.104
342.146
342.146
342.104
342.023
341.911
341.773
341.619
341.456
341.292
341.138
341.018
333.568
333.665
333.791
333.924
334.058
334.184
334.297
334.389
334.455
334.489
334.489
334.455
334.389
334.297
334.184
334.058
333.924
333.791
333.665
333.568
326.117
326.191
326.289
326.393
326.496
326.595
326.682
326.754
326.805
326.832
326.832
326.805
326.754
326.682
326.595
326.496
326.393
326.289
326.191
326.117
318.665
318.717
318.787
318.861
318.935
319.005
319.068
319.119
319.156
319.175
319.175
319.156
319.119
319.068
319.005
318.935
318.861
318.787
318.717
318.665
311.212
311.243
311.285
311.329
311.374
311.416
311.453
311.484
311.506
311.518
311.518
311.506
311.484
311.453
311.416
311.374
311.329
311.285
311.243
311.212
303.758
303.769
303.783
303.798
303.813
303.827
303.839
303.85
303.857
303.861
303.861
303.857
303.85
303.839
303.827
303.813
303.798
303.783
303.769
303.758
358.037
358.196
358.393
358.599
358.803
358.995
359.166
359.305
359.404
359.455
359.455
359.404
359.305
359.166
358.995
358.803
358.599
358.393
358.196
358.037
350.309
350.444
350.614
350.792
350.969
351.135
351.283
351.404
351.49
351.534
351.534
351.49
351.404
351.283
351.135
350.969
350.792
350.614
350.444
350.309
342.578
342.69
342.833
342.984
343.133
343.274
343.399
343.501
343.574
343.611
343.611
343.574
343.501
343.399
343.274
343.133
342.984
342.833
342.69
342.578
334.844
334.934
335.051
335.175
335.297
335.412
335.514
335.598
335.657
335.688
335.688
335.657
335.598
335.514
335.412
335.297
335.175
335.051
334.934
334.844
327.109
327.179
327.269
327.365
327.46
327.55
327.629
327.694
327.74
327.764
327.764
327.74
327.694
327.629
327.55
327.46
327.365
327.269
327.179
327.109
319.374
319.423
319.487
319.556
319.624
319.688
319.745
319.791
319.824
319.841
319.841
319.824
319.791
319.745
319.688
319.624
319.556
319.487
319.423
319.374
311.637
311.667
311.705
311.746
311.787
311.826
311.86
311.888
311.908
311.918
311.918
311.908
311.888
311.86
311.826
311.787
311.746
311.705
311.667
311.637
303.901
303.911
303.924
303.938
303.951
303.964
303.976
303.985
303.992
303.995
303.995
303.992
303.985
303.976
303.964
303.951
303.938
303.924
303.911
303.901
360.366
360.514
360.695
360.885
361.071
361.245
361.4
361.525
361.614
361.66
361.66
361.614
361.525
361.4
361.245
361.071
360.885
360.695
360.514
360.366
352.327
352.452
352.608
352.772
352.934
353.085
353.219
353.327
353.404
353.444
353.444
353.404
353.327
353.219
353.085
352.934
352.772
352.608
352.452
352.327
344.284
344.388
344.52
344.659
344.795
344.923
345.036
345.128
345.193
345.227
345.227
345.193
345.128
345.036
344.923
344.795
344.659
344.52
344.388
344.284
336.24
336.323
336.431
336.544
336.656
336.761
336.854
336.929
336.982
337.01
337.01
336.982
336.929
336.854
336.761
336.656
336.544
336.431
336.323
336.24
328.195
328.259
328.342
328.43
328.517
328.599
328.671
328.729
328.771
328.792
328.792
328.771
328.729
328.671
328.599
328.517
328.43
328.342
328.259
328.195
320.149
320.194
320.254
320.317
320.379
320.437
320.489
320.53
320.56
320.575
320.575
320.56
320.53
320.489
320.437
320.379
320.317
320.254
320.194
320.149
312.103
312.13
312.166
312.204
312.241
312.276
312.307
312.332
312.35
312.359
312.359
312.35
312.332
312.307
312.276
312.241
312.204
312.166
312.13
312.103
304.057
304.066
304.078
304.091
304.103
304.115
304.125
304.134
304.14
304.143
304.143
304.14
304.134
304.125
304.115
304.103
304.091
304.078
304.066
304.057
362.893
363.029
363.196
363.37
363.539
363.697
363.836
363.949
364.029
364.07
364.07
364.029
363.949
363.836
363.697
363.539
363.37
363.196
363.029
362.893
354.515
354.63
354.775
354.925
355.072
355.209
355.329
355.427
355.496
355.532
355.532
355.496
355.427
355.329
355.209
355.072
354.925
354.775
354.63
354.515
346.134
346.23
346.352
346.479
346.603
346.719
346.821
346.904
346.962
346.993
346.993
346.962
346.904
346.821
346.719
346.603
346.479
346.352
346.23
346.134
337.753
337.83
337.929
338.033
338.135
338.23
338.314
338.381
338.429
338.454
338.454
338.429
338.381
338.314
338.23
338.135
338.033
337.929
337.83
337.753
329.371
329.43
329.507
329.588
329.667
329.741
329.806
329.859
329.896
329.915
329.915
329.896
329.859
329.806
329.741
329.667
329.588
329.507
329.43
329.371
320.989
321.031
321.086
321.144
321.2
321.253
321.3
321.337
321.364
321.378
321.378
321.364
321.337
321.3
321.253
321.2
321.144
321.086
321.031
320.989
312.608
312.633
312.666
312.7
312.734
312.766
312.794
312.816
312.832
312.841
312.841
312.832
312.816
312.794
312.766
312.734
312.7
312.666
312.633
312.608
304.226
304.235
304.246
304.257
304.269
304.279
304.289
304.296
304.302
304.304
304.304
304.302
304.296
304.289
304.279
304.269
304.257
304.246
304.235
304.226
365.613
365.739
365.892
366.051
366.205
366.347
366.472
366.573
366.644
366.681
366.681
366.644
366.573
366.472
366.347
366.205
366.051
365.892
365.739
365.613
356.87
356.976
357.109
357.246
357.38
357.503
357.612
357.699
357.761
357.793
357.793
357.761
357.699
357.612
357.503
357.38
357.246
357.109
356.976
356.87
348.125
348.214
348.326
348.442
348.555
348.659
348.751
348.825
348.877
348.904
348.904
348.877
348.825
348.751
348.659
348.555
348.442
348.326
348.214
348.125
339.381
339.452
339.543
339.638
339.731
339.816
339.891
339.952
339.995
340.017
340.017
339.995
339.952
339.891
339.816
339.731
339.638
339.543
339.452
339.381
330.637
330.691
330.762
330.836
330.908
330.975
331.033
331.08
331.113
331.131
331.131
331.113
331.08
331.033
330.975
330.908
330.836
330.762
330.691
330.637
321.893
321.932
321.982
322.035
322.086
322.134
322.176
322.21
322.233
322.246
322.246
322.233
322.21
322.176
322.134
322.086
322.035
321.982
321.932
321.893
313.15
313.173
313.204
313.235
313.266
313.295
313.32
313.34
313.355
313.362
313.362
313.355
313.34
313.32
313.295
313.266
313.235
313.204
313.173
313.15
304.408
304.416
304.426
304.437
304.447
304.457
304.465
304.472
304.477
304.479
304.479
304.477
304.472
304.465
304.457
304.447
304.437
304.426
304.416
304.408
368.514
368.63
368.771
368.915
369.055
369.184
369.296
369.386
369.45
369.482
369.482
369.45
369.386
369.296
369.184
369.055
368.915
368.771
368.63
368.514
359.38
359.478
359.599
359.725
359.846
359.957
360.055
360.133
360.188
360.216
360.216
360.188
360.133
360.055
359.957
359.846
359.725
359.599
359.478
359.38
350.246
350.327
350.43
350.536
350.638
350.733
350.815
350.882
350.928
350.952
350.952
350.928
350.882
350.815
350.733
350.638
350.536
350.43
350.327
350.246
341.114
341.179
341.263
341.349
341.433
341.511
341.578
341.632
341.671
341.69
341.69
341.671
341.632
341.578
341.511
341.433
341.349
341.263
341.179
341.114
331.983
332.033
332.098
332.166
332.231
332.291
332.344
332.386
332.416
332.431
332.431
332.416
332.386
332.344
332.291
332.231
332.166
332.098
332.033
331.983
322.855
322.89
322.936
322.984
323.031
323.074
323.112
323.142
323.163
323.174
323.174
323.163
323.142
323.112
323.074
323.031
322.984
322.936
322.89
322.855
313.728
313.749
313.776
313.805
313.833
313.859
313.882
313.9
313.913
313.919
313.919
313.913
313.9
313.882
313.859
313.833
313.805
313.776
313.749
313.728
304.602
304.609
304.618
304.628
304.637
304.646
304.653
304.659
304.664
304.666
304.666
304.664
304.659
304.653
304.646
304.637
304.628
304.618
304.609
304.602
371.566
371.673
371.801
371.933
372.06
372.176
372.277
372.358
372.414
372.443
372.443
372.414
372.358
372.277
372.176
372.06
371.933
371.801
371.673
371.566
362.015
362.106
362.217
362.331
362.44
362.541
362.629
362.699
362.748
362.773
362.773
362.748
362.699
362.629
362.541
362.44
362.331
362.217
362.106
362.015
352.469
352.544
352.637
352.734
352.827
352.912
352.986
353.046
353.087
353.109
353.109
353.087
353.046
352.986
352.912
352.827
352.734
352.637
352.544
352.469
342.927
342.988
343.064
343.143
343.219
343.289
343.35
343.398
343.432
343.45
343.45
343.432
343.398
343.35
343.289
343.219
343.143
343.064
342.988
342.927
333.391
333.437
333.496
333.558
333.617
333.671
333.719
333.757
333.783
333.797
333.797
333.783
333.757
333.719
333.671
333.617
333.558
333.496
333.437
333.391
323.859
323.891
323.934
323.978
324.02
324.059
324.093
324.12
324.139
324.148
324.148
324.139
324.12
324.093
324.059
324.02
323.978
323.934
323.891
323.859
314.33
314.349
314.375
314.401
314.427
314.45
314.47
314.487
314.498
314.504
314.504
314.498
314.487
314.47
314.45
314.427
314.401
314.375
314.349
314.33
304.803
304.81
304.818
304.827
304.836
304.844
304.85
304.856
304.86
304.862
304.862
304.86
304.856
304.85
304.844
304.836
304.827
304.818
304.81
304.803
374.69
374.788
374.906
375.026
375.141
375.246
375.337
375.409
375.46
375.486
375.486
375.46
375.409
375.337
375.246
375.141
375.026
374.906
374.788
374.69
364.7
364.784
364.885
364.989
365.089
365.18
365.259
365.322
365.366
365.389
365.389
365.366
365.322
365.259
365.18
365.089
364.989
364.885
364.784
364.7
354.724
354.793
354.879
354.967
355.052
355.129
355.196
355.249
355.287
355.306
355.306
355.287
355.249
355.196
355.129
355.052
354.967
354.879
354.793
354.724
344.761
344.817
344.887
344.959
345.028
345.091
345.146
345.19
345.22
345.236
345.236
345.22
345.19
345.146
345.091
345.028
344.959
344.887
344.817
344.761
334.81
334.852
334.907
334.963
335.017
335.066
335.109
335.143
335.167
335.179
335.179
335.167
335.143
335.109
335.066
335.017
334.963
334.907
334.852
334.81
324.869
324.899
324.938
324.978
325.016
325.051
325.082
325.106
325.123
325.132
325.132
325.123
325.106
325.082
325.051
325.016
324.978
324.938
324.899
324.869
314.935
314.953
314.976
315
315.023
315.045
315.063
315.078
315.088
315.093
315.093
315.088
315.078
315.063
315.045
315.023
315
314.976
314.953
314.935
305.006
305.012
305.02
305.028
305.035
305.043
305.049
305.054
305.057
305.059
305.059
305.057
305.054
305.049
305.043
305.035
305.028
305.02
305.012
305.006
377.686
377.776
377.885
377.995
378.1
378.196
378.279
378.344
378.39
378.414
378.414
378.39
378.344
378.279
378.196
378.1
377.995
377.885
377.776
377.686
367.245
367.322
367.416
367.511
367.603
367.686
367.758
367.815
367.855
367.875
367.875
367.855
367.815
367.758
367.686
367.603
367.511
367.416
367.322
367.245
356.839
356.902
356.982
357.063
357.141
357.211
357.272
357.321
357.354
357.372
357.372
357.354
357.321
357.272
357.211
357.141
357.063
356.982
356.902
356.839
346.465
346.516
346.581
346.647
346.711
346.769
346.819
346.858
346.886
346.9
346.9
346.886
346.858
346.819
346.769
346.711
346.647
346.581
346.516
346.465
336.118
336.158
336.208
336.26
336.309
336.355
336.394
336.424
336.446
336.457
336.457
336.446
336.424
336.394
336.355
336.309
336.26
336.208
336.158
336.118
325.794
325.822
325.858
325.895
325.931
325.963
325.991
326.013
326.029
326.037
326.037
326.029
326.013
325.991
325.963
325.931
325.895
325.858
325.822
325.794
315.487
315.504
315.526
315.548
315.569
315.589
315.605
315.619
315.628
315.633
315.633
315.628
315.619
315.605
315.589
315.569
315.548
315.526
315.504
315.487
305.19
305.196
305.203
305.211
305.218
305.224
305.23
305.234
305.238
305.239
305.239
305.238
305.234
305.23
305.224
305.218
305.211
305.203
305.196
305.19
380.029
380.114
380.217
380.32
380.418
380.508
380.584
380.645
380.688
380.71
380.71
380.688
380.645
380.584
380.508
380.418
380.32
380.217
380.114
380.029
369.16
369.232
369.321
369.411
369.497
369.575
369.642
369.695
369.732
369.751
369.751
369.732
369.695
369.642
369.575
369.497
369.411
369.321
369.232
369.16
358.381
358.441
358.517
358.593
358.666
358.732
358.789
358.835
358.866
358.882
358.882
358.866
358.835
358.789
358.732
358.666
358.593
358.517
358.441
358.381
347.677
347.726
347.787
347.85
347.91
347.964
348.011
348.048
348.074
348.087
348.087
348.074
348.048
348.011
347.964
347.91
347.85
347.787
347.726
347.677
337.032
337.069
337.117
337.166
337.213
337.256
337.292
337.321
337.341
337.352
337.352
337.341
337.321
337.292
337.256
337.213
337.166
337.117
337.069
337.032
326.432
326.459
326.493
326.528
326.562
326.592
326.618
326.639
326.654
326.661
326.661
326.654
326.639
326.618
326.592
326.562
326.528
326.493
326.459
326.432
315.865
315.88
315.901
315.922
315.942
315.961
315.976
315.989
315.998
316.002
316.002
315.998
315.989
315.976
315.961
315.942
315.922
315.901
315.88
315.865
305.316
305.321
305.328
305.335
305.342
305.348
305.353
305.358
305.36
305.362
305.362
305.36
305.358
305.353
305.348
305.342
305.335
305.328
305.321
305.316
)
;

boundaryField
{
    hotSide
    {
        type            fixedGradient;
        gradient        nonuniform List<scalar> 
400
(
481.827
483.863
487.938
494.057
502.227
512.459
524.763
539.15
555.634
574.225
594.937
617.781
642.765
669.901
699.195
730.656
764.287
800.095
838.083
878.254
485.184
487.193
491.216
497.259
505.332
515.448
527.622
541.868
558.202
576.64
597.197
619.886
644.72
671.71
700.866
732.194
765.701
801.392
839.272
879.342
488.817
490.795
494.755
500.708
508.666
518.646
530.667
544.749
560.911
579.173
599.554
622.07
646.736
673.565
702.568
733.752
767.125
802.693
840.458
880.423
492.666
494.606
498.495
504.343
512.168
521.992
533.84
547.735
563.704
581.77
601.957
624.283
648.767
675.423
704.262
735.295
768.527
803.965
841.612
881.469
496.623
498.522
502.329
508.06
515.737
525.389
537.045
550.737
566.496
584.352
604.331
626.457
650.75
677.226
705.898
736.775
769.866
805.174
842.703
882.454
500.523
502.378
506.098
511.704
519.225
528.694
540.15
553.63
569.173
586.813
606.582
628.506
652.608
678.906
707.414
738.141
771.094
806.278
843.695
883.344
504.143
505.954
509.587
515.07
522.435
531.725
542.984
556.259
571.593
589.027
608.596
630.33
654.254
680.387
708.743
739.332
772.16
807.232
844.548
884.108
507.216
508.986
512.542
517.913
525.14
534.27
545.355
558.449
573.6
590.855
610.251
631.822
655.595
681.588
709.816
740.29
773.015
807.994
845.228
884.714
509.464
511.204
514.7
519.986
527.107
536.116
547.071
560.028
575.043
592.164
611.432
632.884
656.545
682.436
710.572
740.963
773.613
808.526
845.701
885.135
510.656
512.379
515.843
521.082
528.146
537.089
547.973
560.857
575.798
592.848
612.048
633.436
657.038
682.876
710.963
741.31
773.922
808.8
845.944
885.351
510.656
512.379
515.843
521.082
528.146
537.089
547.973
560.857
575.798
592.848
612.048
633.436
657.038
682.876
710.963
741.31
773.922
808.8
845.944
885.351
509.464
511.204
514.7
519.986
527.107
536.116
547.071
560.028
575.043
592.164
611.432
632.884
656.545
682.436
710.572
740.963
773.613
808.526
845.701
885.135
507.216
508.986
512.542
517.913
525.14
534.27
545.355
558.449
573.6
590.855
610.251
631.822
655.595
681.588
709.816
740.29
773.015
807.994
845.228
884.714
504.143
505.954
509.587
515.07
522.435
531.725
542.984
556.259
571.593
589.027
608.596
630.33
654.254
680.387
708.743
739.332
772.16
807.232
844.548
884.108
500.523
502.378
506.098
511.704
519.225
528.694
540.15
553.63
569.173
586.813
606.582
628.506
652.608
678.906
707.414
738.141
771.094
806.278
843.695
883.344
496.623
498.522
502.329
508.06
515.737
525.389
537.045
550.737
566.496
584.352
604.331
626.457
650.75
677.226
705.898
736.775
769.866
805.174
842.703
882.454
492.666
494.606
498.495
504.343
512.168
521.992
533.84
547.735
563.704
581.77
601.957
624.283
648.767
675.423
704.262
735.295
768.527
803.965
841.612
881.469
488.817
490.795
494.755
500.708
508.666
518.646
530.667
544.749
560.911
579.173
599.554
622.07
646.736
673.565
702.568
733.752
767.125
802.693
840.458
880.423
485.184
487.193
491.216
497.259
505.332
515.448
527.622
541.868
558.202
576.64
597.197
619.886
644.72
671.71
700.866
732.194
765.701
801.392
839.272
879.342
481.827
483.863
487.938
494.057
502.227
512.459
524.763
539.15
555.634
574.225
594.937
617.781
642.765
669.901
699.195
730.656
764.287
800.095
838.083
878.254
)
;
    }
    coldSide
    {
        type            mixed;
        refValue        uniform 300;
        refGradient     uniform 0;
        valueFraction   uniform 0.991591;
        source          uniform 0;
        value           nonuniform List<scalar> 
400
(
300.026
300.026
300.026
300.026
300.027
300.027
300.028
300.029
300.03
300.031
300.032
300.033
300.034
300.036
300.037
300.039
300.04
300.042
300.044
300.045
300.026
300.026
300.026
300.026
300.027
300.027
300.028
300.029
300.03
300.031
300.032
300.033
300.034
300.036
300.037
300.039
300.04