/*--------------------------------*- C++ -*----------------------------------*\
| =========                 |                                                 |
| \\      /  F ield         | OpenFOAM: The Open Source CFD Toolbox           |
|  \\    /   O peration     | Version:  2212                                  |
|   \\  /    A nd           | Website:  www.openfoam.com                      |
|    \\/     M anipulation  |                                                 |
\*---------------------------------------------------------------------------*/
FoamFile
{
    version     2.0;
    format      ascii;
    arch        "LSB;label=32;scalar=64";
    class       volScalarField;
    location    "./ITHACAoutput/true/19.8";
    object      error;
}
// * * * * * * * * * * * * * * * * * * * * * * * * * * * * * * * * * * * * * //

dimensions      [0 0 0 1 0 0 0];

internalField   nonuniform List<scalar> 
3200
(
6.81724
6.76197
6.74701
6.80143
6.92416
6.98615
7.12262
7.19313
7.27624
7.28913
7.36073
7.26228
7.14335
7.05154
6.90001
6.75344
6.73705
6.70435
6.61122
6.64828
6.08481
6.0548
6.07075
6.10686
6.13074
6.28515
6.39451
6.40332
6.49913
6.54943
6.69693
6.55365
6.47152
6.31892
6.18486
6.11456
6.13942
5.96175
5.96595
6.0272
5.15941
5.15264
5.17379
5.26812
5.25068
5.49719
5.46439
5.59724
5.70274
5.6948
5.77784
5.72746
5.54561
5.5564
5.37859
5.35073
5.27745
5.19682
5.13234
5.16806
4.38056
4.30215
4.28152
4.38665
4.45717
4.5884
4.64902
4.69615
4.69861
4.83747
4.82002
4.6708
4.6284
4.60074
4.53859
4.47624
4.40118
4.41115
4.2647
4.2746
3.37272
3.37908
3.51977
3.42793
3.55943
3.5167
3.60004
3.69165
3.77079
3.75189
3.77373
3.80887
3.73575
3.64977
3.51182
3.49405
3.47811
3.40555
3.41207
3.39141
2.39761
2.39257
2.44434
2.56951
2.46597
2.58514
2.68008
2.68687
2.75661
2.66694
2.73713
2.79913
2.63825
2.56534
2.52327
2.56618
2.56643
2.52994
2.41615
2.49225
1.47843
1.44635
1.50313
1.52303
1.48759
1.55799
1.59241
1.64764
1.64818
1.64187
1.55098
1.64074
1.57753
1.587
1.58009
1.5494
1.54613
1.53226
1.47547
1.49786
0.436372
0.48601
0.543602
0.468327
0.485224
0.497958
0.520402
0.571383
0.550764
0.535147
0.602083
0.638778
0.538763
0.559567
0.532752
0.501993
0.433976
0.495476
0.479163
0.540744
6.2282
6.14884
6.13242
6.11654
6.21246
6.29809
6.41192
6.53077
6.63681
6.61801
6.64248
6.52203
6.44978
6.31335
6.2408
6.0971
5.95914
5.93565
5.96002
6.00634
5.53416
5.51145
5.43103
5.55235
5.55711
5.71909
5.79755
5.83897
5.99692
5.97597
6.00421
5.88244
5.86776
5.72271
5.62046
5.57031
5.44399
5.42659
5.38645
5.45894
4.85433
4.88211
4.81831
4.82175
4.86247
5.01368
5.08911
5.13995
5.18466
5.27592
5.25916
5.19318
5.19434
5.0738
4.96983
4.84224
4.82114
4.70416
4.73528
4.71725
4.07256
3.93124
3.97215
4.04154
4.18092
4.28636
4.25885
4.3405
4.32742
4.34765
4.41506
4.44747
4.24734
4.23662
4.17036
4.08005
4.06501
3.98721
3.9841
3.96291
3.22656
3.15768
3.20009
3.2078
3.27025
3.26699
3.30487
3.44403
3.49701
3.48747
3.5087
3.47966
3.4062
3.40682
3.34112
3.17016
3.23756
3.15565
3.19562
3.15376
2.29446
2.22114
2.28851
2.28774
2.38998
2.43993
2.44087
2.4295
2.48364
2.52295
2.53881
2.57768
2.50516
2.36205
2.42151
2.336
2.30469
2.2598
2.26315
2.29795
1.39161
1.39805
1.37634
1.48973
1.42519
1.50205
1.46122
1.50056
1.4898
1.54106
1.53989
1.5513
1.50569
1.44138
1.44083
1.45096
1.43325
1.41395
1.40687
1.3589
0.472843
0.417265
0.436785
0.427789
0.452462
0.519655
0.54601
0.456657
0.461164
0.510284
0.597924
0.490599
0.495675
0.49358
0.496819
0.455274
0.516617
0.49939
0.472227
0.413118
5.50256
5.39406
5.35345
5.34551
5.39889
5.45856
5.5157
5.5943
5.65423
5.7086
5.59929
5.54991
5.47969
5.43825
5.28477
5.19179
5.20949
5.06817
5.12527
5.19863
4.92166
4.88616
4.80569
4.93384
4.89394
4.98964
5.08168
5.18422
5.26523
5.21879
5.19672
5.15258
5.11934
5.00521
4.83418
4.79749
4.66977
4.67571
4.72775
4.78274
4.27772
4.30644
4.25407
4.24545
4.38702
4.43562
4.47794
4.5293
4.53163
4.59447
4.61276
4.4919
4.40125
4.37453
4.25988
4.26253
4.26536
4.14536
4.21747
4.19217
3.68013
3.51303
3.565
3.57838
3.63513
3.65712
3.75681
3.92361
3.92824
3.87255
3.91997
3.76237
3.83204
3.70105
3.66557
3.59896
3.50293
3.46365
3.50367
3.55271
2.8404
2.81373
2.94344
2.84236
2.90322
2.93215
3.09767
3.01943
3.05762
3.173
3.09428
2.98632
2.99035
2.95801
2.99078
2.88381
2.81029
2.79944
2.78507
2.83736
2.05265
2.01332
2.10177
2.05577
2.1197
2.17144
2.13492
2.18485
2.20336
2.29199
2.16778
2.28595
2.07402
2.12783
2.11423
1.95774
1.97707
1.93919
2.05145
2.01377
1.25409
1.21798
1.23424
1.26086
1.27572
1.35615
1.251
1.34645
1.4043
1.40585
1.30552
1.42241
1.34879
1.31443
1.23935
1.29245
1.2755
1.23503
1.17767
1.22131
0.361618
0.447517
0.439258
0.411894
0.408825
0.408608
0.445162
0.429612
0.431119
0.439142
0.431178
0.481888
0.501742
0.442825
0.424994
0.409936
0.416023
0.474371
0.40368
0.38896
4.7992
4.71263
4.57961
4.50994
4.52603
4.57404
4.60959
4.7467
4.69639
4.77547
4.66893
4.72811
4.57939
4.47824
4.3413
4.31805
4.28055
4.2751
4.2748
4.45139
4.33037
4.23867
4.18126
4.21683
4.23417
4.24988
4.3097
4.35945
4.45191
4.4298
4.38967
4.34477
4.27418
4.23987
4.08504
4.00957
3.9815
3.97238
4.03997
4.09363
3.85198
3.86967
3.70625
3.73904
3.73696
3.76923
3.85316
3.90126
3.89656
3.96381
3.91926
3.89283
3.79692
3.67486
3.72025
3.58503
3.59879
3.62559
3.51279
3.60282
3.22351
3.22652
3.14577
3.10214
3.26087
3.22982
3.25382
3.30823
3.31759
3.30345
3.28462
3.29679
3.24222
3.21959
3.05339
3.11928
3.09249
2.99038
3.05737
3.04143
2.55154
2.55578
2.5287
2.48547
2.51133
2.50329
2.64828
2.69304
2.72583
2.59586
2.64528
2.63595
2.64231
2.51407
2.50845
2.41614
2.43385
2.43997
2.42191
2.46981
1.83877
1.84244
1.90584
1.87256
1.83693
1.88948
1.84839
1.97381
1.96543
1.93638
1.95319
1.93489
1.89162
1.85322
1.88154
1.82258
1.8003
1.78975
1.82151
1.78337
1.12735
1.09653
1.10782
1.15687
1.08189
1.06781
1.09784
1.16921
1.16492
1.24079
1.09618
1.15952
1.16545
1.14405
1.12392
1.15813
1.05481
1.04537
1.09276
1.11111
0.379416
0.357297
0.316288
0.382815
0.35478
0.378077
0.376088
0.351582
0.394516
0.431292
0.379779
0.415269
0.390367
0.376814
0.370293
0.391629
0.392893
0.352403
0.388474
0.41621
4.26839
4.03787
3.8835
3.79943
3.7377
3.80785
3.85055
3.85419
3.91195
3.87909
3.82044
3.78255
3.60228
3.62179
3.60212
3.48084
3.45323
3.48829
3.64673
3.6982
3.78536
3.71027
3.63651
3.58804
3.57133
3.58315
3.63662
3.709
3.60889
3.69229
3.60297
3.58141
3.61953
3.45391
3.40911
3.34825
3.28122
3.3262
3.41017
3.46862
3.39743
3.29453
3.18106
3.20502
3.23279
3.2004
3.25199
3.27146
3.32607
3.29248
3.25107
3.21799
3.16293
3.14947
3.14235
2.93108
3.04202
3.01435
3.05793
3.16578
2.89788
2.77061
2.76059
2.67453
2.69899
2.78156
2.81986
2.80192
2.80961
2.77483
2.8107
2.75164
2.70514
2.70562
2.63782
2.66396
2.62253
2.55336
2.62902
2.66178
2.34875
2.27631
2.2022
2.22404
2.20157
2.26186
2.1989
2.24764
2.28936
2.26878
2.28137
2.25603
2.21816
2.2149
2.24957
2.1055
2.00915
2.04473
2.13298
2.11962
1.6454
1.67958
1.58573
1.56014
1.54488
1.57561
1.58776
1.66828
1.61334
1.68273
1.67874
1.62239
1.66237
1.56961
1.50011
1.48247
1.52815
1.48483
1.56836
1.47862
1.01437
0.999042
1.02569
0.994956
0.920358
0.989687
0.973354
1.00359
0.970559
1.04514
0.941287
1.02228
1.03676
0.94274
0.995334
0.935221
0.902991
0.947328
0.954921
0.899423
0.362506
0.366248
0.344419
0.237381
0.332004
0.314044
0.32224
0.346606
0.377608
0.303744
0.32474
0.409749
0.379831
0.387504
0.321505
0.330995
0.346156
0.338153
0.285091
0.286829
3.65305
3.52554
3.3266
3.22549
3.13445
3.09283
3.05392
3.04301
3.04861
3.10647
3.07995
3.00568
2.8485
2.84036
2.75958
2.78302
2.71689
2.85048
2.88277
3.13261
3.34847
3.30102
3.15692
3.01115
3.02138
2.98417
2.99241
2.99184
3.03686
3.01578
3.02701
2.82384
2.91022
2.75067
2.69392
2.68388
2.71773
2.67193
2.84655
2.94066
3.05539
2.89558
2.73939
2.67408
2.68313
2.69811
2.69606
2.79351
2.77366
2.79089
2.73263
2.67429
2.61293
2.47832
2.5289
2.43541
2.47359
2.48051
2.56815
2.654
2.53139
2.51236
2.38061
2.37976
2.31438
2.31532
2.40938
2.34014
2.36394
2.39953
2.36864
2.27464
2.29727
2.16432
2.19297
2.20802
2.08602
2.19384
2.26442
2.2753
1.9869
1.98413
1.97376
1.90984
1.80749
1.86505
1.85482
1.90973
1.87249
1.927
1.89619
1.90731
1.85784
1.82635
1.78048
1.798
1.76282
1.76604
1.80601
1.87859
1.54517
1.46169
1.40117
1.34749
1.28975
1.35571
1.42243
1.43313
1.4427
1.34812
1.46807
1.3896
1.31587
1.34212
1.29867
1.26842
1.32363
1.30641
1.3229
1.2972
0.948381
0.844607
0.904745
0.824007
0.80716
0.836582
0.7865
0.829527
0.857336
0.892309
0.834063
0.867576
0.79589
0.790137
0.846284
0.826053
0.756602
0.850723
0.840954
0.828391
0.269682
0.265791
0.176225
0.330483
0.251344
0.257994
0.259804
0.289555
0.349011
0.258778
0.236479
0.268415
0.349761
0.250272
0.201228
0.248432
0.240508
0.290442
0.240853
0.280964
3.25546
3.10404
2.83815
2.70225
2.51612
2.42629
2.46546
2.40943
2.45912
2.36747
2.37124
2.25176
2.25548
2.16476
2.14373
2.10934
2.18506
2.21079
2.38392
2.49144
3.11697
2.77029
2.70856
2.56252
2.44976
2.45748
2.4369
2.39325
2.40718
2.37839
2.29213
2.33857
2.19202
2.14281
2.14849
2.12115
2.17309
2.23327
2.40285
2.47137
2.79281
2.5993
2.51779
2.38022
2.26892
2.29521
2.29825
2.28467
2.24283
2.26065
2.15965
2.16517
2.07799
2.02655
2.05779
2.01808
2.0069
2.09114
2.17329
2.32758
2.36806
2.27327
2.13803
2.04135
2.01011
1.99932
1.93486
2.02524
1.949
1.96662
1.88587
2.01665
1.89059
1.8923
1.79984
1.84278
1.75343
1.81001
1.85827
1.98236
1.88692
1.81928
1.69447
1.72561
1.65872
1.67597
1.56299
1.58417
1.61727
1.52719
1.56526
1.57648
1.56434
1.47948
1.4895
1.49806
1.46853
1.43915
1.51936
1.65364
1.30973
1.39471
1.23922
1.25561
1.22375
1.21622
1.16367
1.2177
1.17038
1.25291
1.1782
1.21662
1.12739
1.16059
1.06731
1.13445
1.0184
1.17496
1.08675
1.28156
0.794235
0.758449
0.78831
0.675268
0.682237
0.681838
0.679996
0.775837
0.695756
0.721873
0.710743
0.705557
0.635687
0.686867
0.696127
0.614859
0.653896
0.637298
0.737132
0.721322
0.336878
0.327722
0.166405
0.204899
0.255981
0.243789
0.205135
0.276352
0.256178
0.244472
0.278748
0.232138
0.218362
0.251504
0.224466
0.243445
0.230851
0.211027
0.0937444
0.217326
3.0341
2.72429
2.49061
2.27986
2.12344
1.97247
1.91013
1.90936
1.88655
1.88937
1.6786
1.72775
1.6913
1.59354
1.61007
1.57035
1.64404
1.7689
1.98701
2.2074
2.79993
2.62861
2.37445
2.30389
2.10093
2.01469
2.01304
1.94534
1.93118
1.91981
1.8417
1.75846
1.72138
1.76856
1.72742
1.76813
1.71114
1.87367
2.06546
2.11754
2.5468
2.3625
2.144
2.04742
1.97054
1.96415
1.88781
1.81334
1.8179
1.82603
1.70795
1.80584
1.70571
1.66836
1.56892
1.66983
1.67733
1.70453
1.89632
1.98404
2.20891
2.05072
1.87888
1.84326
1.74861
1.69934
1.61899
1.64502
1.65214
1.65988
1.60192
1.53785
1.5251
1.45321
1.42972
1.53217
1.48728
1.63933
1.6185
1.78833
1.64648
1.63219
1.52517
1.52639
1.42427
1.41493
1.36196
1.34403
1.32917
1.36035
1.3206
1.24339
1.28666
1.22429
1.2708
1.18275
1.28556
1.28407
1.38963
1.45378
1.32187
1.18182
1.1089
1.12211
1.04072
0.997168
1.03702
1.03762
1.01886
1.01925
0.870564
0.896513
0.986591
0.879327
0.928436
0.944204
0.89698
0.938338
0.983367
1.11428
0.714035
0.772755
0.714739
0.670613
0.61074
0.611756
0.628481
0.605153
0.571298
0.623432
0.621602
0.589689
0.678699
0.578513
0.573755
0.61264
0.629797
0.585448
0.647151
0.679937
0.249779
0.258378
0.264969
0.200322
0.25154
0.167511
0.115841
0.265251
0.231037
0.235505
0.193091
0.287601
0.208634
0.20666
0.17484
0.151267
0.241499
0.187121
0.217325
0.17542
2.8904
2.50733
2.27047
2.04157
1.80448
1.66694
1.60988
1.51219
1.41338
1.36216
1.28708
1.24867
1.24486
1.23577
1.19989
1.20624
1.25069
1.47341
1.69715
1.93594
2.68241
2.48939
2.21541
1.92805
1.81651
1.76273
1.65741
1.60848
1.53351
1.53861
1.45351
1.41656
1.38056
1.33679
1.42247
1.35783
1.42982
1.6013
1.73202
1.97529
2.42049
2.23542
1.99465
1.8473
1.80548
1.61096
1.55682
1.56037
1.51996
1.49522
1.4799
1.3829
1.42753
1.37059
1.29829
1.35031
1.51097
1.45787
1.71112
1.87442
2.03871
1.91279
1.79966
1.70583
1.50337
1.45935
1.43405
1.41107
1.37726
1.3494
1.31587
1.31169
1.30211
1.26999
1.26637
1.2931
1.28107
1.37144
1.54009
1.6332
1.63838
1.54942
1.40537
1.31778
1.26137
1.27927
1.1662
1.25006
1.14203
1.16214
1.08274
1.10745
1.06412
1.00828
1.05509
1.08473
1.05189
1.09942
1.21109
1.31413
1.18653
1.22761
1.09507
0.982341
0.96757
0.954593
0.924427
0.844116
0.806138
0.823971
0.793552
0.823577
0.842642
0.754988
0.831424
0.770277
0.837333
0.825524
0.858
0.960193
0.7029
0.678946
0.657949
0.636412
0.595337
0.507613
0.587433
0.589572
0.507289
0.553286
0.42698
0.527523
0.461016
0.534914
0.50921
0.519793
0.562956
0.549183
0.557753
0.570241
0.239851
0.239104
0.193038
0.18723
0.21097
0.14905
0.127208
0.195323
0.192012
0.132594
0.161694
0.145182
0.174195
0.241691
0.18552
0.136723
0.156633
0.176231
0.193889
0.261888
2.86922
2.52305
2.11803
1.86592
1.61817
1.5218
1.2879
1.16604
1.11615
0.981691
0.959882
0.929017
0.863685
0.889134
0.870709
1.02032
1.05723
1.30117
1.56038
1.8112
2.62647
2.39986
2.13168
1.95195
1.67451
1.49451
1.46648
1.36668
1.28664
1.28895
1.11849
1.20372
1.02796
1.11932
1.11298
1.08628
1.24409
1.46154
1.63505
1.91171
2.4291
2.19409
1.96761
1.79292
1.59241
1.44012
1.42144
1.34408
1.38272
1.24412
1.16209
1.20189
1.21767
1.10485
1.09022
1.19231
1.30271
1.39809
1.56948
1.76958
2.02729
1.85393
1.70519
1.53228
1.45719
1.37574
1.27694
1.18475
1.2244
1.17408
1.06196
1.11803
1.06495
1.0032
1.11158
1.13097
1.18742
1.2315
1.3861
1.57561
1.60295
1.56
1.38556
1.29834
1.15944
1.1734
1.04392
1.02229
0.958647
0.945011
0.968896
0.884597
0.970219
0.902442
0.94885
0.990887
0.928465
1.09813
1.1201
1.27664
1.19464
1.12018
0.961284
0.992618
0.913086
0.819058
0.799389
0.837852
0.758747
0.731084
0.743161
0.722222
0.667261
0.697536
0.761056
0.725854
0.717608
0.781441
0.927501
0.977501
0.700277
0.664497
0.607122
0.538017
0.562327
0.504764
0.559642
0.506138
0.479338
0.47462
0.533356
0.411693
0.427453
0.370352
0.393872
0.447043
0.443085
0.530345
0.495891
0.541193
0.16111
0.199654
0.248219
0.242201
0.138878
0.179682
0.21713
0.172984
0.182
0.180693
0.199592
0.125986
0.164985
0.162639
0.134627
0.18075
0.220722
0.149172
0.196186
0.188647
2.93481
2.53704
2.28953
1.89874
1.59383
1.39928
1.21028
1.11274
0.935609
0.85685
0.807355
0.779962
0.717134
0.801652
0.803586
0.906989
1.08198
1.30665
1.50576
1.85808
2.74552
2.4754
2.14111
1.89395
1.67594
1.57249
1.38752
1.35558
1.19529
1.08198
1.08292
1.01429
1.01393
0.965117
1.07942
1.16365
1.17886
1.40624
1.69334
1.90908
2.43312
2.23589
1.9885
1.80587
1.55134
1.50541
1.37771
1.31736
1.21242
1.063
1.07827
1.03999
1.01281
1.06066
1.06272
1.18994
1.23855
1.33278
1.58195
1.80465
2.13602
1.96415
1.67923
1.56979
1.45371
1.32552
1.27679
1.15068
1.13514
1.07285
1.04591
1.0234
0.951013
0.971316
1.04259
0.995989
1.19712
1.26806
1.4545
1.59407
1.70414
1.54065
1.42655
1.25632
1.19259
1.12256
1.00556
1.00191
0.984367
0.88103
0.886982
0.797929
0.842108
0.77699
0.869355
0.923544
0.919209
1.0893
1.17742
1.23694
1.26926
1.15623
1.05712
0.97117
0.912612
0.83448
0.827472
0.66775
0.695387
0.610427
0.654912
0.68003
0.609896
0.637833
0.710324
0.675261
0.678771
0.861672
0.824689
0.94981
0.75827
0.658841
0.670072
0.654716
0.534778
0.511865
0.473609
0.473265
0.528508
0.410405
0.357591
0.475037
0.448152
0.356764
0.405124
0.477236
0.449951
0.47639
0.561969
0.646553
0.227204
0.246
0.196726
0.203858
0.186802
0.200405
0.150936
0.17152
0.156325
0.109434
0.218926
0.157502
0.0933918
0.0964176
0.154604
0.126569
0.117879
0.16499
0.163096
0.187238
3.23292
2.84784
2.43218
2.01413
1.75332
1.50845
1.28084
1.15549
1.07771
0.896895
0.85436
0.762076
0.756121
0.739478
0.827304
0.931477
1.13359
1.40859
1.70107
2.07982
3.02925
2.67087
2.34066
2.07157
1.72097
1.54619
1.38778
1.2181
1.12141
1.12207
1.03811
0.986481
0.970324
0.95289
1.02577
1.10976
1.27526
1.45393
1.76296
2.05902
2.69863
2.40286
2.12585
1.92288
1.64104
1.51114
1.42828
1.23205
1.14612
1.16751
1.13993
1.06553
1.02579
1.01634
1.03077
1.23235
1.21049
1.54499
1.68195
1.84132
2.24587
2.07388
1.86411
1.65583
1.46312
1.38913
1.18717
1.1443
1.12822
1.01243
0.948296
0.968358
0.954311
0.963758
1.03189
1.0724
1.17769
1.36108
1.47275
1.58188
1.84325
1.70025
1.55721
1.38081
1.2147
1.12941
1.02965
0.946373
0.91047
0.851499
0.835935
0.82373
0.81689
0.878866
0.840669
0.917577
1.02678
1.07975
1.23836
1.34611
1.3387
1.20709
1.14635
1.0099
0.91415
0.902976
0.749003
0.727351
0.688457
0.724136
0.674903
0.627475
0.616164
0.745251
0.659247
0.624548
0.811798
0.81752
0.912313
0.999077
0.863488
0.731071
0.62303
0.573564
0.620883
0.523251
0.476415
0.498983
0.483844
0.462136
0.364723
0.475082
0.376156
0.40827
0.41548
0.486648
0.53339
0.441017
0.49597
0.585505
0.212836
0.304638
0.272967
0.181624
0.19182
0.118363
0.13744
0.18231
0.139886
0.147881
0.125
0.0836127
0.115873
0.132939
0.120663
0.11677
0.11917
0.162041
0.227663
0.191212
3.67983
3.23746
2.81482
2.33135
2.09851
1.76541
1.54169
1.28045
1.16646
1.11301
0.952256
0.898423
0.899918
0.948545
1.10113
1.2156
1.31537
1.68549
1.96892
2.34263
3.40977
3.04606
2.65649
2.32876
2.07107
1.78737
1.61665
1.40464
1.33574
1.12721
1.14945
1.06576
1.10959
1.13402
1.16719
1.26207
1.41746
1.73527
2.02954
2.18485
2.96865
2.64491
2.34967
2.08389
1.85872
1.69419
1.49062
1.38802
1.34164
1.21297
1.18193
1.14128
1.19153
1.15694
1.20371
1.31966
1.48685
1.67968
1.83278
2.10461
2.44464
2.28667
2.08819
1.85192
1.5723
1.6141
1.37039
1.2776
1.24772
1.1421
1.10063
1.12952
1.08978
1.11154
1.13888
1.1128
1.33011
1.47714
1.63181
1.80721
1.96651
1.8258
1.68065
1.46882
1.41514
1.26752
1.0967
1.12895
1.05492
0.978073
1.00736
0.911593
0.864983
0.872157
0.964988
0.985007
1.14859
1.21512
1.37514
1.51696
1.48914
1.28051
1.1675
1.1282
1.04102
0.936813
0.816608
0.7785
0.713812
0.737457
0.707723
0.63387
0.6425
0.650591
0.712403
0.773888
0.847641
0.923563
0.984718
1.05556
0.875852
0.856649
0.775608
0.640265
0.626434
0.521024
0.571595
0.50418
0.537579
0.5066
0.437249
0.39119
0.43684
0.438911
0.454928
0.512809
0.453351
0.524649
0.617975
0.622526
0.25964
0.21333
0.256507
0.281685
0.208121
0.137402
0.211959
0.151836
0.222323
0.0831428
0.186406
0.194994
0.19275
0.12283
0.193796
0.169623
0.147364
0.118269
0.25549
0.218426
4.27159
3.81463
3.32897
2.86374
2.46326
2.21158
1.88738
1.66774
1.52628
1.3691
1.3167
1.28709
1.2592
1.29412
1.39939
1.59446
1.78012
2.09749
2.54921
2.92453
3.82927
3.47879
3.11003
2.70901
2.39871
2.14414
1.96321
1.73857
1.6333
1.5563
1.42698
1.39687
1.35155
1.4994
1.49524
1.6047
1.82238
2.08425
2.39927
2.76967
3.39619
3.10841
2.72574
2.47798
2.23683
1.95546
1.81882
1.71128
1.5132
1.48218
1.42342
1.41323
1.39682
1.45532
1.44783
1.50885
1.75554
1.94879
2.26585
2.40702
2.87718
2.60481
2.31286
2.13589
1.86819
1.74117
1.58414
1.52648
1.342
1.33422
1.24258
1.20994
1.31913
1.31435
1.36996
1.40282
1.50765
1.71375
1.88022
2.07205
2.21291
2.10336
1.93843
1.68432
1.5233
1.43418
1.33803
1.16874
1.10577
1.08426
0.988494
1.05146
1.01231
1.06259
0.974572
1.16121
1.26708
1.40646
1.57565
1.69008
1.64386
1.52674
1.37643
1.24276
1.12897
1.00799
0.997346
0.907509
0.843178
0.818506
0.792282
0.782991
0.762136
0.814808
0.801319
0.865854
1.02481
1.05494
1.14203
1.28677
0.982858
0.900714
0.794875
0.704555
0.667516
0.6161
0.599463
0.555278
0.480153
0.546141
0.513647
0.4194
0.455124
0.425647
0.539012
0.576588
0.579761
0.628614
0.712382
0.697239
0.32626
0.204081
0.247551
0.269126
0.225505
0.200396
0.190574
0.179237
0.176186
0.197687
0.14635
0.16408
0.104757
0.184047
0.154449
0.228812
0.187567
0.228685
0.300034
0.205279
4.9872
4.55127
3.97584
3.5033
3.05979
2.75501
2.43996
2.15865
1.95314
1.92211
1.853
1.72042
1.71941
1.75894
1.95697
2.05106
2.33647
2.6655
3.14029
3.49027
4.53839
4.06841
3.68822
3.25251
2.86248
2.66535
2.39937
2.22201
2.00801
2.01885
1.81835
1.91661
1.76451
1.83271
1.94719
2.12022
2.29472
2.58811
2.95882
3.23309
3.98214
3.60229
3.23788
2.90981
2.59716
2.40023
2.16252
1.95985
1.93746
1.79239
1.70377
1.69911
1.72869
1.74027
1.79766
1.96376
2.21523
2.40265
2.64053
2.93259
3.20763
3.05412
2.7654
2.44645
2.23166
2.03672
1.88225
1.69347
1.68569
1.61714
1.56323
1.5196
1.57533
1.5069
1.62518
1.697
1.86808
2.07186
2.297
2.46842
2.6119
2.42862
2.23808
1.99104
1.77533
1.70639
1.51497
1.45815
1.38604
1.36557
1.29401
1.17308
1.2628
1.31214
1.34877
1.46607
1.53831
1.65027
1.82766
1.9948
1.84732
1.70269
1.57134
1.46867
1.38615
1.17199
1.17123
1.03924
1.02684
0.99505
0.958426
0.913041
0.887242
0.916352
0.95105
1.0528
1.12471
1.1985
1.27412
1.41372
1.03265
0.992448
0.934766
0.832111
0.783151
0.822942
0.686421
0.67081
0.615772
0.556092
0.569636
0.61542
0.566539
0.575586
0.584194
0.616579
0.666036
0.74643
0.754472
0.872513
0.395653
0.281143
0.37103
0.312082
0.251807
0.257396
0.302095
0.195582
0.146223
0.140602
0.144876
0.177227
0.234088
0.168261
0.223111
0.185551
0.240791
0.211069
0.311983
0.3169
5.86718
5.40517
4.80307
4.27089
3.96614
3.52912
3.11837
2.95369
2.75061
2.58
2.48366
2.40415
2.41794
2.48578
2.58095
2.87786
3.12027
3.43003
3.83297
4.30224
5.32613
4.84859
4.38827
4.03402
3.61454
3.30724
3.00887
2.79641
2.63332
2.49741
2.37281
2.36046
2.3897
2.43503
2.52581
2.67063
3.01924
3.26728
3.64411
3.88208
4.60748
4.2765
3.8176
3.49461
3.15282
2.96482
2.74342
2.4997
2.42369
2.31515
2.21716
2.14076
2.20722
2.16123
2.41919
2.49201
2.67765
2.88699
3.24817
3.60103
3.79637
3.53092
3.20865
3.00277
2.70992
2.44201
2.32418
2.19077
2.02221
2.00207
1.88997
1.85396
1.88924
1.89197
1.99026
2.21288
2.30601
2.47928
2.67541
2.89144
2.97374
2.7526
2.54777
2.29643
2.1462
2.08719
1.83228
1.74733
1.71326
1.64486
1.56369
1.60136
1.54047
1.54683
1.70132
1.73621
1.90639
2.01018
2.15083
2.34385
2.15613
1.98669
1.87057
1.72447
1.58125
1.45975
1.34348
1.29136
1.26607
1.13489
1.18509
1.15041
1.1383
1.15552
1.20574
1.25331
1.36236
1.4328
1.54057
1.70344
1.3413
1.2497
1.1738
1.0608
1.00003
0.893595
0.837491
0.846038
0.801128
0.715546
0.681048
0.702435
0.795275
0.720898
0.705049
0.813937
0.813275
0.841923
0.92499
1.03843
0.425774
0.451601
0.348704
0.340942
0.330355
0.269832
0.296785
0.212412
0.288678
0.160711
0.269914
0.259401
0.251877
0.304212
0.212565
0.302292
0.266308
0.347801
0.312678
0.32298
6.96493
6.42292
5.8192
5.28069
4.83856
4.43477
4.06085
3.777
3.61653
3.46976
3.28736
3.24561
3.2737
3.34191
3.50178
3.71692
4.00936
4.41067
4.89903
5.27495
6.22155
5.70716
5.25658
4.7687
4.40955
4.08757
3.77227
3.57462
3.42562
3.20627
3.05068
3.08822
3.07572
3.13284
3.31666
3.46892
3.77549
4.01441
4.41661
4.79534
5.31313
4.95342
4.55467
4.13694
3.84976
3.57359
3.29626
3.12311
2.99331
2.87371
2.81567
2.74314
2.75147
2.85416
2.90409
3.1073
3.27707
3.66329
3.84014
4.2276
4.40805
4.12847
3.84252
3.47557
3.23548
3.04343
2.82074
2.70369
2.45272
2.3906
2.35167
2.38532
2.39558
2.38044
2.52126
2.68971
2.8229
3.03222
3.32286
3.53105
3.44254
3.21528
2.92473
2.74394
2.53182
2.38705
2.23588
2.1707
2.00074
1.8767
1.96971
1.90037
1.93687
1.90885
2.06066
2.20008
2.20165
2.39758
2.58279
2.73671
2.57253
2.32085
2.19207
1.91313
1.83935
1.67738
1.5925
1.56726
1.47686
1.42104
1.41678
1.35735
1.37858
1.45431
1.49512
1.50395
1.66388
1.69597
1.87283
1.94992
1.48639
1.43536
1.28554
1.23184
1.1368
1.07157
1.00536
0.923701
0.828075
0.884249
0.843218
0.878032
0.798159
0.901192
1.01707
0.902395
0.96799
1.09133
1.11451
1.23623
0.492209
0.475475
0.404641
0.447832
0.438039
0.332868
0.356599
0.270265
0.292573
0.248568
0.255498
0.355481
0.287304
0.220259
0.34683
0.300121
0.324064
0.354325
0.406454
0.391754
8.15577
7.58045
6.91164
6.37228
5.86459
5.4905
5.08823
4.82492
4.52872
4.42775
4.33542
4.17176
4.26254
4.29192
4.51294
4.74053
5.07624
5.4837
5.95821
6.45607
7.172
6.67204
6.16661
5.76302
5.37593
4.93135
4.6296
4.42718
4.15653
4.01151
3.95901
3.89239
3.89483
4.01764
4.05905
4.31069
4.60948
4.94898
5.34903
5.64254
6.10421
5.80948
5.36059
4.93478
4.5821
4.33278
4.06728
3.85352
3.71006
3.56895
3.45804
3.44034
3.48725
3.55866
3.67541
3.8653
4.03677
4.38037
4.68747
4.96747
4.99318
4.7859
4.40961
4.15168
3.83154
3.65015
3.39171
3.25653
3.16983
3.01385
2.92741
2.90117
2.97699
3.04691
3.08959
3.2711
3.37167
3.67402
3.79241
4.15638
3.97861
3.77082
3.50594
3.26401
3.08271
2.87251
2.6884
2.59056
2.47394
2.3672
2.37359
2.33748
2.34226
2.36831
2.50614
2.51734
2.68198
2.86469
3.05362
3.19054
2.86734
2.66854
2.47005
2.34552
2.21082
2.04644
1.95885
1.90988
1.77906
1.73944
1.68788
1.71511
1.75959
1.75422
1.7749
1.83914
1.9403
2.11155
2.23377
2.28483
1.71637
1.60911
1.51748
1.33843
1.36988
1.23294
1.20492
1.08197
1.1444
1.05797
1.00374
0.974642
1.11544
1.0839
1.0432
1.12032
1.2544
1.31807
1.36932
1.37938
0.631012
0.552944
0.530182
0.495474
0.396765
0.380364
0.396295
0.359213
0.411042
0.39695
0.363663
0.321654
0.358654
0.413139
0.369678
0.380787
0.354589
0.465473
0.414698
0.455335
9.39269
8.75894
8.16369
7.54709
6.97453
6.5583
6.17756
5.88742
5.66971
5.37021
5.32619
5.31301
5.23773
5.38752
5.56602
5.78707
6.21707
6.59327
7.09389
7.65804
8.23976
7.80161
7.16446
6.70127
6.25809
5.90232
5.55562
5.30025
5.06211
4.8882
4.77555
4.73629
4.82974
4.87872
5.05504
5.29519
5.49678
5.94085
6.31477
6.7392
7.02281
6.59238
6.12805
5.77114
5.37866
5.13387
4.83035
4.52757
4.48065
4.322
4.27547
4.09909
4.23748
4.27692
4.3719
4.60032
4.79105
5.04632
5.44249
5.73702
5.77229
5.46372
5.1209
4.81109
4.39819
4.20624
3.99529
3.84731
3.76056
3.57124
3.5383
3.48882
3.48888
3.53029
3.6612
3.85247
4.00486
4.23968
4.52245
4.7726
4.41972
4.27658
3.99448
3.74508
3.43349
3.31261
3.15678
3.0458
2.90691
2.81342
2.7809
2.79773
2.79662
2.84393
2.85629
2.9982
3.14413
3.34579
3.56754
3.74857
3.20288
2.93423
2.88982
2.75756
2.53564
2.39614
2.24258
2.14386
2.09554
2.05019
2.01355
2.01953
1.98432
2.0299
2.1014
2.20787
2.28467
2.3674
2.50631
2.61163
1.8946
1.81084
1.60013
1.59684
1.50398
1.4354
1.35373
1.35036
1.26615
1.20453
1.17948
1.26126
1.17011
1.28406
1.20378
1.34245
1.37624
1.44835
1.54846
1.65335
0.653832
0.614785
0.520814
0.545672
0.508205
0.457221
0.458497
0.461929
0.426738
0.392097
0.418534
0.37869
0.493044
0.382902
0.372204
0.439815
0.474455
0.437961
0.521936
0.54524
10.4778
9.79138
9.12946
8.50331
8.02901
7.48213
7.11926
6.76439
6.4941
6.32908
6.23321
6.14732
6.23235
6.2827
6.51053
6.78806
7.07981
7.45353
7.92682
8.58022
9.06288
8.56935
8.01169
7.51861
6.98428
6.65437
6.35238
6.04147
5.78413
5.66099
5.65829
5.53375
5.50573
5.63877
5.73376
5.95848
6.32695
6.60948
7.11077
7.52386
7.61348
7.28493
6.75481
6.40228
5.9758
5.64828
5.36864
5.16459
5.05196
4.79998
4.72893
4.72321
4.75884
4.81033
4.95759
5.09346
5.36243
5.6857
6.01747
6.38858
6.19828
5.86409
5.43034
5.27618
4.9554
4.69938
4.49206
4.23169
4.11589
4.02146
3.91888
3.95716
3.97382
3.91872
4.10588
4.27633
4.422
4.67538
4.92871
5.23787
4.86288
4.61093
4.34098
4.09025
3.81176
3.66291
3.44183
3.35976
3.27334
3.15053
3.13672
3.10118
3.06395
3.14736
3.3424
3.32071
3.47046
3.65885
3.99154
4.08694
3.48653
3.3298
3.08795
2.85741
2.74957
2.57401
2.46479
2.48772
2.35207
2.2814
2.27239
2.20227
2.26078
2.30418
2.33274
2.38023
2.53031
2.6197
2.86034
2.88988
2.08675
1.94829
1.87926
1.75376
1.66754
1.53965
1.45142
1.45006
1.43754
1.31881
1.35142
1.37734
1.38283
1.35964
1.35207
1.49571
1.53701
1.57585
1.71251
1.76568
0.730198
0.65893
0.578473
0.61274
0.565926
0.581636
0.476823
0.506717
0.487671
0.415944
0.461719
0.482331
0.461351
0.477319
0.460569
0.436006
0.516631
0.532867
0.589646
0.601325
)
;

boundaryField
{
    hotSide
    {
        type            calculated;
        value           nonuniform List<scalar> 
400
(
6.58778
5.99763
5.26974
4.56301
4.0277
3.40675
3.00243
2.77321
2.62054
2.58927
2.64365
2.92943
3.3629
3.9401
4.64005
5.50326
6.58311
7.75494
8.97175
10.0356
6.5328
5.91854
5.16152
4.47671
3.79745
3.27949
2.85125
2.46363
2.23768
2.2433
2.24606
2.54453
2.9207
3.48329
4.20426
5.04137
6.04122
7.17973
8.3381
9.3493
6.51814
5.90243
5.1212
4.34397
3.64336
3.08082
2.58561
2.23019
2.00105
1.83849
1.99875
2.12905
2.49822
2.99779
3.62897
4.4394
5.43762
6.51104
7.74295
8.68747
6.57288
5.88686
5.11358
4.27461
3.55958
2.97999
2.44998
2.01969
1.77238
1.5866
1.60816
1.71119
2.01493
2.53272
3.15658
3.90735
4.89922
5.97179
7.12644
8.06141
6.69595
5.98311
5.16728
4.29101
3.49814
2.88923
2.26411
1.86352
1.53553
1.33907
1.30345
1.45056
1.78225
2.13239
2.7132
3.60273
4.45721
5.4642
6.55398
7.58719
6.75827
6.06907
5.22725
4.33933
3.56859
2.84789
2.17455
1.7128
1.39821
1.24289
1.10909
1.20586
1.44931
1.88085
2.40855
3.16582
4.05352
5.09019
6.13783
7.04039
6.89504
6.1832
5.2847
4.37516
3.61156
2.80923
2.21395
1.65067
1.34135
1.00918
0.920254
0.978405
1.22573
1.55678
2.09361
2.75517
3.67969
4.688
5.75716
6.67758
6.9658
6.3023
5.36354
4.51251
3.61542
2.79853
2.15812
1.65008
1.24383
0.887483
0.822858
0.853176
0.964594
1.33724
1.81239
2.59057
3.39592
4.42475
5.46708
6.32276
7.0491
6.40853
5.42365
4.46237
3.67335
2.80429
2.20795
1.62741
1.14514
0.837693
0.645828
0.775489
0.850691
1.19585
1.60695
2.38754
3.2355
4.1286
5.24941
6.05251
7.06209
6.38982
5.47812
4.54154
3.64057
2.86223
2.11639
1.6303
1.09399
0.703294
0.56712
0.594715
0.797275
1.03871
1.57594
2.21696
3.08874
4.02766
4.94993
5.8875
7.13369
6.4143
5.3688
4.435
3.58192
2.83572
2.12016
1.41953
1.0189
0.681485
0.517624
0.55218
0.636526
0.986307
1.50683
2.12062
2.90635
3.93533
4.90591
5.79164
7.03515
6.29375
5.31933
4.49409
3.54394
2.76136
2.0006
1.46861
0.980432
0.650563
0.49018
0.459855
0.582651
0.956661
1.37423
2.04109
2.86458
3.77164
4.89271
5.70573
6.91603
6.22131
5.24893
4.34519
3.36352
2.60402
2.00417
1.43202
0.9765
0.585124
0.427252
0.453809
0.584062
0.928697
1.37315
2.05483
2.89261
3.86238
4.81739
5.79073
6.82396
6.08463
5.20725
4.2438
3.3828
2.59567
1.91325
1.33408
0.967239
0.610417
0.51163
0.437043
0.63258
0.963514
1.41259
2.12258
2.96075
3.89169
4.96712
5.84102
6.67213
6.01178
5.05347
4.10659
3.36286
2.51464
1.89199
1.35039
0.931155
0.591806
0.513399
0.524716
0.785026
1.06866
1.61051
2.21765
3.12053
4.11263
5.14555
6.06879
6.52523
5.86776
4.96017
4.08303
3.24128
2.5378
1.85733
1.31043
0.937287
0.741213
0.616613
0.628713
0.899338
1.26359
1.70448
2.51444
3.33557
4.34013
5.36652
6.34624
6.50851
5.72947
4.97755
4.04522
3.21338
2.47139
1.93279
1.38387
0.981496
0.777901
0.791405
0.830638
0.998946
1.44911
1.98975
2.75673
3.62789
4.67575
5.79642
6.63791
6.47549
5.70565
4.83592
4.03946
3.24815
2.60469
1.95825
1.50848
1.20399
1.02163
1.01587
1.10546
1.3689
1.76632
2.31864
3.06636
4.02909
5.0831
6.17253
7.01155
6.38205