/*--------------------------------*- C++ -*----------------------------------*\
| =========                 |                                                 |
| \\      /  F ield         | OpenFOAM: The Open Source CFD Toolbox           |
|  \\    /   O peration     | Version:  2212                                  |
|   \\  /    A nd           | Website:  www.openfoam.com                      |
|    \\/     M anipulation  |                                                 |
\*---------------------------------------------------------------------------*/
FoamFile
{
    version     2.0;
    format      ascii;
    arch        "LSB;label=32;scalar=64";
    class       volScalarField;
    location    "0";
    object      stateMean;
}
// * * * * * * * * * * * * * * * * * * * * * * * * * * * * * * * * * * * * * //

dimensions      [0 0 0 1 0 0 0];

internalField   nonuniform List<scalar> 
3200
(
318.289
318.516
318.752
318.938
319.063
319.244
319.331
319.45
319.505
319.565
319.493
319.519
319.5
319.402
319.33
319.234
319.002
318.795
318.667
318.458
315.532
315.708
315.883
316.055
316.245
316.301
316.385
316.54
316.564
316.576
316.428
316.509
316.471
316.461
316.401
316.261
316.023
315.992
315.797
315.59
313.032
313.159
313.298
313.38
313.578
313.509
313.706
313.711
313.706
313.767
313.684
313.682
313.762
313.614
313.627
313.478
313.371
313.275
313.18
313.023
310.435
310.611
310.762
310.801
310.879
310.893
310.965
311.031
311.11
311.015
311.032
311.138
311.099
311.013
310.942
310.86
310.787
310.633
310.648
310.541
308.11
308.179
308.139
308.343
308.327
308.482
308.503
308.498
308.483
308.535
308.513
308.445
308.454
308.453
308.487
308.392
308.293
308.253
308.146
308.092
305.785
305.843
305.864
305.818
306.004
305.966
305.945
306
305.976
306.09
306.02
305.934
306.049
306.06
306.028
305.904
305.822
305.778
305.82
305.691
303.428
303.492
303.478
303.506
303.59
303.568
303.579
303.56
303.588
303.608
303.699
303.595
303.63
303.584
303.546
303.529
303.483
303.449
303.463
303.408
301.207
301.168
301.124
301.216
301.216
301.219
301.212
301.173
301.202
301.223
301.156
301.114
301.205
301.172
301.184
301.199
301.25
301.173
301.175
301.102
318.979
319.23
319.465
319.718
319.868
320.023
320.13
320.198
320.228
320.319
320.295
320.343
320.279
320.229
320.08
319.983
319.876
319.661
319.419
319.201
316.171
316.339
316.607
316.692
316.899
316.945
317.058
317.178
317.138
317.221
317.193
317.253
317.149
317.133
317.044
316.886
316.8
316.611
316.464
316.246
313.41
313.502
313.725
313.895
314.034
314.058
314.145
314.23
314.284
314.246
314.263
314.276
314.176
314.16
314.102
314.054
313.896
313.839
313.649
313.547
310.802
311.041
311.13
311.202
311.21
311.248
311.407
311.437
311.532
311.553
311.486
311.412
311.531
311.429
311.364
311.311
311.179
311.115
310.988
310.912
308.302
308.446
308.504
308.607
308.658
308.773
308.838
308.785
308.795
308.838
308.816
308.812
308.823
308.736
308.699
308.758
308.577
308.548
308.408
308.375
305.922
306.047
306.051
306.131
306.11
306.14
306.212
306.285
306.276
306.26
306.244
306.182
306.21
306.291
306.158
306.164
306.114
306.08
306.005
305.918
303.534
303.559
303.624
303.557
303.671
303.642
303.727
303.724
303.762
303.725
303.726
303.701
303.719
303.747
303.703
303.645
303.614
303.586
303.55
303.567
301.177
301.243
301.237
301.262
301.255
301.203
301.191
301.293
301.298
301.254
301.166
301.268
301.254
301.243
301.226
301.252
301.173
301.175
301.188
301.237
319.908
320.185
320.441
320.682
320.869
321.044
321.204
321.308
321.381
321.396
321.506
321.485
321.422
321.282
321.218
321.076
320.819
320.726
320.454
320.212
316.958
317.136
317.402
317.476
317.724
317.831
317.926
317.982
318.015
318.122
318.144
318.127
318.047
318.003
317.987
317.821
317.74
317.532
317.294
317.097
314.133
314.223
314.431
314.611
314.645
314.768
314.884
314.966
315.06
315.049
315.03
315.1
315.094
314.987
314.944
314.769
314.591
314.54
314.312
314.219
311.315
311.577
311.652
311.779
311.866
311.984
312.013
311.955
312.03
312.126
312.079
312.196
312.047
312.069
311.975
311.902
311.854
311.753
311.586
311.442
308.782
308.881
308.851
309.06
309.111
309.191
309.125
309.289
309.311
309.228
309.307
309.383
309.318
309.265
309.132
309.13
309.092
308.995
308.91
308.785
306.229
306.32
306.302
306.425
306.441
306.468
306.576
306.586
306.611
306.546
306.67
306.528
306.697
306.583
306.525
306.603
306.504
306.465
306.282
306.268
303.711
303.778
303.804
303.824
303.857
303.823
303.971
303.913
303.881
303.893
303.993
303.863
303.91
303.908
303.94
303.841
303.809
303.803
303.818
303.744
301.301
301.225
301.248
301.291
301.31
301.326
301.304
301.331
301.339
301.336
301.344
301.288
301.259
301.306
301.31
301.309
301.287
301.213
301.269
301.274
320.918
321.168
321.511
321.808
322.025
322.205
322.378
322.417
322.595
322.584
322.69
322.563
322.585
322.51
322.438
322.233
322.037
321.816
321.606
321.266
317.812
318.043
318.281
318.442
318.627
318.808
318.928
319.031
319.049
319.129
319.169
319.156
319.116
318.998
318.973
318.851
318.678
318.49
318.242
318.048
314.779
314.877
315.193
315.327
315.499
315.633
315.702
315.782
315.88
315.862
315.907
315.884
315.886
315.88
315.682
315.651
315.467
315.273
315.234
315.028
311.95
312.04
312.245
312.425
312.406
312.573
312.673
312.724
312.79
312.845
312.863
312.811
312.79
312.707
312.75
312.548
312.435
312.401
312.21
312.133
309.208
309.276
309.399
309.549
309.631
309.745
309.697
309.733
309.759
309.92
309.871
309.849
309.784
309.831
309.74
309.726
309.6
309.488
309.41
309.29
306.541
306.589
306.594
306.702
306.815
306.839
306.949
306.881
306.932
306.983
306.966
306.962
306.963
306.944
306.846
306.829
306.775
306.71
306.609
306.597
303.897
303.958
303.988
303.984
304.105
304.165
304.176
304.14
304.169
304.107
304.252
304.174
304.144
304.13
304.109
304.029
304.086
304.051
303.962
303.913
301.304
301.336
301.39
301.339
301.382
301.374
301.39
301.426
301.391
301.36
301.411
301.371
301.388
301.389
301.382
301.345
301.329
301.354
301.305
301.267
321.857
322.247
322.604
322.908
323.193
323.341
323.498
323.662
323.726
323.823
323.882
323.855
323.914
323.727
323.547
323.45
323.254
323
322.638
322.427
318.708
318.918
319.166
319.405
319.616
319.793
319.911
319.984
320.189
320.162
320.251
320.217
320.073
320.094
319.967
319.839
319.712
319.477
319.218
319.024
315.529
315.743
316.005
316.141
316.277
316.469
316.563
316.667
316.7
316.781
316.822
316.808
316.775
316.666
316.527
316.579
316.304
316.172
315.98
315.76
312.516
312.733
312.863
313.08
313.19
313.238
313.319
313.437
313.501
313.574
313.538
313.559
313.534
313.433
313.382
313.225
313.132
313.071
312.875
312.752
309.597
309.739
309.906
309.986
310.112
310.154
310.309
310.338
310.353
310.403
310.391
310.386
310.368
310.293
310.166
310.208
310.201
310.063
309.882
309.826
306.867
306.881
307.042
307.141
307.23
307.271
307.326
307.301
307.396
307.347
307.351
307.387
307.307
307.344
307.347
307.293
307.173
307.143
306.993
307.033
304.089
304.134
304.147
304.221
304.341
304.314
304.371
304.373
304.43
304.369
304.473
304.379
304.34
304.401
304.309
304.326
304.313
304.226
304.178
304.204
301.346
301.353
301.388
301.51
301.43
301.462
301.468
301.454
301.431
301.509
301.488
301.399
301.421
301.402
301.454
301.431
301.401
301.394
301.434
301.422
322.984
323.265
323.658
323.97
324.275
324.523
324.751
324.92
325.028
325.031
325.057
325.071
325.115
324.965
324.856
324.626
324.478
324.135
323.908
323.504
319.585
319.762
320.074
320.401
320.576
320.792
320.948
321.085
321.139
321.211
321.2
321.352
321.167
321.189
321.082
320.913
320.694
320.559
320.216
319.992
316.241
316.507
316.806
317.024
317.171
317.308
317.448
317.466
317.569
317.596
317.654
317.669
317.647
317.666
317.477
317.419
317.224
317.064
316.835
316.642
313.183
313.289
313.535
313.662
313.855
313.978
313.997
314.161
314.205
314.204
314.235
314.294
314.204
314.242
314.1
313.961
313.956
313.722
313.537
313.439
310.191
310.261
310.36
310.522
310.724
310.762
310.86
310.879
310.97
310.942
310.973
310.935
310.931
310.889
310.847
310.733
310.669
310.568
310.439
310.299
307.133
307.263
307.388
307.511
307.639
307.642
307.639
307.68
307.708
307.823
307.703
307.761
307.797
307.719
307.699
307.661
307.534
307.483
307.402
307.381
304.255
304.386
304.364
304.487
304.546
304.558
304.646
304.634
304.629
304.606
304.664
304.618
304.668
304.642
304.549
304.527
304.554
304.418
304.39
304.375
301.472
301.486
301.588
301.448
301.542
301.549
301.559
301.54
301.488
301.582
301.605
301.569
301.48
301.569
301.606
301.545
301.537
301.474
301.511
301.461
323.999
324.296
324.748
325.083
325.47
325.755
325.894
326.097
326.154
326.302
326.298
326.361
326.251
326.194
326.037
325.877
325.6
325.375
325.016
324.763
320.345
320.817
321.038
321.356
321.643
321.805
321.979
322.15
322.229
322.306
322.392
322.297
322.351
322.273
322.114
321.972
321.746
321.514
321.184
320.991
316.947
317.244
317.46
317.743
318.002
318.119
318.246
318.366
318.486
318.509
318.61
318.564
318.573
318.517
318.356
318.253
318.116
317.887
317.67
317.412
313.708
313.886
314.13
314.346
314.498
314.626
314.796
314.794
314.934
314.949
315.03
314.866
314.928
314.839
314.825
314.665
314.634
314.458
314.301
314.094
310.571
310.703
310.913
310.974
311.134
311.208
311.404
311.451
311.467
311.583
311.545
311.508
311.471
311.488
311.395
311.295
311.231
311.168
311.003
310.804
307.567
307.527
307.744
307.793
307.892
307.965
308.076
308.071
308.154
308.089
308.164
308.107
308.162
308.079
308.114
307.982
308.031
307.808
307.835
307.595
304.528
304.591
304.597
304.75
304.783
304.822
304.859
304.793
304.894
304.879
304.89
304.884
304.933
304.852
304.808
304.85
304.771
304.748
304.612
304.601
301.445
301.463
301.637
301.612
301.574
301.599
301.65
301.589
301.616
301.632
301.597
301.64
301.647
301.603
301.619
301.587
301.586
301.592
301.697
301.565
324.941
325.39
325.798
326.197
326.543
326.876
327.103
327.241
327.361
327.411
327.621
327.52
327.459
327.419
327.238
327.096
326.833
326.52
326.127
325.768
321.282
321.571
321.977
322.21
322.576
322.82
322.965
323.151
323.25
323.306
323.384
323.423
323.375
323.209
323.108
322.909
322.803
322.477
322.135
321.964
317.713
317.995
318.342
318.576
318.791
318.931
319.127
319.303
319.369
319.399
319.517
319.381
319.41
319.347
319.326
319.092
318.946
318.781
318.462
318.276
314.29
314.527
314.802
314.951
315.158
315.317
315.496
315.551
315.603
315.626
315.684
315.717
315.671
315.662
315.586
315.375
315.307
315.042
314.96
314.711
311.14
311.214
311.402
311.488
311.678
311.772
311.901
311.983
312.044
312.037
312.076
312.13
312.04
312.039
311.916
311.919
311.728
311.643
311.456
311.332
307.788
307.971
308.102
308.151
308.295
308.399
308.414
308.458
308.51
308.527
308.675
308.632
308.509
308.572
308.468
308.392
308.376
308.273
308.17
307.996
304.748
304.714
304.807
304.888
304.986
305.021
305.038
305.088
305.142
305.1
305.101
305.123
305.014
305.087
305.059
304.984
304.929
304.937
304.84
304.782
301.579
301.58
301.584
301.662
301.622
301.718
301.781
301.642
301.682
301.681
301.724
301.625
301.698
301.69
301.711
301.723
301.621
301.662
301.621
301.654
325.911
326.426
326.828
327.232
327.646
327.952
328.161
328.385
328.574
328.672
328.747
328.738
328.652
328.535
328.419
328.244
328.023
327.625
327.236
326.865
322.11
322.415
322.831
323.27
323.534
323.734
323.972
324.13
324.282
324.317
324.402
324.399
324.357
324.292
324.075
323.993
323.768
323.445
323.172
322.817
318.437
318.714
319.074
319.351
319.522
319.84
320.005
320.094
320.2
320.26
320.275
320.337
320.226
320.191
320.153
319.977
319.687
319.611
319.238
318.983
314.945
315.145
315.356
315.555
315.864
316.009
316.125
316.223
316.311
316.367
316.4
316.376
316.332
316.289
316.202
316.074
315.98
315.785
315.518
315.351
311.523
311.669
311.889
312.058
312.197
312.258
312.441
312.416
312.566
312.568
312.647
312.601
312.602
312.599
312.482
312.373
312.324
312.195
312.007
311.847
308.19
308.19
308.377
308.548
308.621
308.69
308.772
308.894
308.962
308.959
308.989
308.944
308.895
308.941
308.814
308.819
308.693
308.646
308.56
308.417
304.919
304.967
305.02
305.077
305.154
305.274
305.226
305.248
305.349
305.312
305.438
305.328
305.377
305.278
305.273
305.229
305.15
305.129
305.088
305.052
301.643
301.652
301.709
301.726
301.714
301.787
301.82
301.76
301.769
301.831
301.802
301.816
301.781
301.705
301.75
301.788
301.756
301.726
301.697
301.621
326.866
327.335
327.895
328.31
328.722
328.973
329.347
329.583
329.716
329.892
329.914
329.903
329.885
329.746
329.624
329.32
329.119
328.712
328.298
327.924
322.968
323.299
323.7
324.022
324.44
324.755
324.905
325.103
325.254
325.289
325.46
325.337
325.442
325.252
325.137
325.029
324.73
324.37
324.064
323.682
319.101
319.423
319.762
320.056
320.377
320.643
320.764
320.925
320.946
321.117
321.199
321.127
321.051
321.08
320.993
320.777
320.546
320.332
320.048
319.76
315.504
315.747
315.988
316.259
316.432
316.606
316.788
316.949
316.959
317.035
317.147
317.065
317.069
317.062
316.87
316.758
316.604
316.462
316.215
315.955
311.982
312.079
312.324
312.488
312.703
312.761
312.955
313.031
313.132
313.166
313.142
313.206
313.083
313.097
312.985
312.871
312.858
312.612
312.519
312.308
308.484
308.597
308.807
308.829
308.964
309.109
309.176
309.175
309.281
309.324
309.312
309.318
309.346
309.277
309.167
309.151
309.104
308.987
308.789
308.701
305.103
305.161
305.249
305.35
305.359
305.447
305.42
305.497
305.54
305.553
305.495
305.607
305.576
305.61
305.558
305.474
305.445
305.326
305.329
305.262
301.782
301.751
301.713
301.73
301.844
301.813
301.786
301.837
301.834
301.838
301.819
301.89
301.845
301.84
301.858
301.802
301.751
301.812
301.755
301.754
327.84
328.354
328.745
329.287
329.742
330.08
330.396
330.598
330.849
330.967
331.017
331.005
330.994
330.804
330.675
330.429
330.104
329.728
329.385
328.917
323.742
324.111
324.569
324.947
325.295
325.523
325.817
325.94
326.165
326.311
326.31
326.346
326.282
326.24
326.016
325.807
325.662
325.304
324.893
324.579
319.848
320.127
320.479
320.772
321.137
321.288
321.508
321.645
321.805
321.982
321.967
321.977
321.949
321.825
321.73
321.498
321.339
321.134
320.781
320.476
316.006
316.243
316.614
316.813
317.02
317.233
317.358
317.547
317.607
317.692
317.719
317.719
317.747
317.664
317.516
317.478
317.186
317.025
316.752
316.548
312.354
312.567
312.747
312.988
313.122
313.258
313.434
313.487
313.54
313.661
313.655
313.726
313.647
313.663
313.512
313.391
313.325
313.085
312.931
312.821
308.747
308.895
309.041
309.178
309.286
309.412
309.462
309.656
309.653
309.751
309.706
309.668
309.714
309.651
309.536
309.524
309.47
309.236
309.226
309.066
305.246
305.366
305.384
305.429
305.579
305.631
305.694
305.716
305.675
305.801
305.853
305.729
305.741
305.811
305.738
305.637
305.634
305.578
305.463
305.357
301.784
301.772
301.83
301.833
301.86
301.857
301.915
301.901
301.921
301.971
301.861
301.919
301.98
301.97
301.902
301.92
301.919
301.862
301.855
301.824
328.691
329.183
329.733
330.29
330.689
331.064
331.407
331.627
331.771
331.987
332.03
332.087
332.026
331.949
331.745
331.511
331.17
330.756
330.33
329.844
324.446
324.895
325.34
325.73
326.2
326.488
326.746
326.998
327.153
327.182
327.266
327.288
327.246
327.181
327.008
326.811
326.527
326.227
325.803
325.416
320.411
320.783
321.157
321.462
321.845
322.07
322.238
322.503
322.638
322.642
322.67
322.718
322.709
322.65
322.55
322.254
322.175
321.738
321.504
321.269
316.57
316.803
317.092
317.384
317.659
317.811
318.083
318.182
318.238
318.375
318.439
318.398
318.372
318.306
318.168
318.05
317.862
317.595
317.404
317.234
312.736
312.926
313.13
313.371
313.602
313.749
313.901
314.029
314.097
314.172
314.187
314.183
314.158
314.052
314.037
313.899
313.725
313.607
313.388
313.233
309.048
309.213
309.318
309.5
309.642
309.697
309.889
309.943
310.004
309.98
310.029
310.065
310.054
309.893
309.941
309.931
309.698
309.646
309.508
309.388
305.364
305.515
305.65
305.727
305.707
305.831
305.901
305.897
305.926
305.955
306.052
305.935
306.02
305.969
305.939
305.841
305.768
305.832
305.75
305.641
301.872
301.787
301.828
301.928
301.927
302.01
301.999
301.96
302.006
302.001
302.024
302.062
302.026
302.003
302.007
302.002
301.991
301.939
301.864
301.894
329.5
330.043
330.588
331.2
331.558
332.011
332.338
332.685
332.859
332.943
333.104
333.127
333.065
332.931
332.675
332.441
332.216
331.718
331.311
330.837
325.144
325.593
326.089
326.527
326.895
327.281
327.541
327.827
327.948
328.184
328.162
328.218
328.122
328.024
327.901
327.704
327.439
327.01
326.609
326.369
321.048
321.442
321.827
322.187
322.504
322.756
323.035
323.201
323.291
323.442
323.473
323.492
323.397
323.369
323.246
323.043
322.784
322.497
322.254
321.912
317.109
317.323
317.595
317.908
318.263
318.292
318.599
318.742
318.808
318.933
318.974
318.926
318.93
318.857
318.767
318.722
318.43
318.206
317.978
317.747
313.183
313.368
313.569
313.841
313.954
314.156
314.376
314.383
314.485
314.577
314.548
314.628
314.647
314.601
314.459
314.384
314.161
314.035
313.819
313.633
309.305
309.543
309.698
309.779
309.908
310.052
310.207
310.273
310.358
310.346
310.375
310.438
310.41
310.373
310.277
310.175
310.059
309.941
309.839
309.738
305.594
305.632
305.737
305.898
305.938
306.066
306.036
306.121
306.099
306.137
306.207
306.246
306.188
306.169
306.132
306.051
306.085
305.988
305.871
305.847
301.907
301.96
301.924
301.907
301.99
302.069
302.001
302.067
302.001
302.142
302.039
302.028
302.026
302.09
302.012
302.028
302.042
302.063
301.918
301.949
330.273
330.822
331.421
332.004
332.52
332.878
333.297
333.592
333.788
333.973
334.025
334.027
334.001
333.89
333.691
333.389
333.088
332.653
332.088
331.62
325.898
326.326
326.793
327.295
327.705
328.053
328.315
328.605
328.758
328.859
328.988
328.994
328.992
328.779
328.702
328.499
328.182
327.819
327.406
326.957
321.606
321.958
322.423
322.757
323.082
323.443
323.648
323.812
324.049
324.101
324.16
324.149
324.126
324.012
323.95
323.81
323.479
323.2
322.8
322.595
317.477
317.801
318.161
318.408
318.745
318.936
319.15
319.253
319.47
319.494
319.585
319.602
319.46
319.42
319.307
319.21
319.036
318.76
318.526
318.282
313.557
313.707
313.924
314.233
314.448
314.587
314.727
314.931
315.019
315.054
315.15
315.074
315.088
315.002
315.046
314.81
314.65
314.456
314.234
314.08
309.591
309.736
309.924
310.097
310.249
310.406
310.448
310.562
310.645
310.679
310.706
310.705
310.708
310.63
310.613
310.512
310.315
310.245
310.121
309.948
305.752
305.851
305.979
306.092
306.152
306.226
306.262
306.321
306.407
306.346
306.378
306.468
306.421
306.435
306.303
306.243
306.217
306.145
306.04
306.038
301.929
302.057
302.02
302.007
302.058
302.091
302.106
302.124
302.13
302.11
302.162
302.142
302.198
302.113
302.137
302.055
302.088
302.039
301.961
302.05
331.028
331.55
332.229
332.809
333.356
333.758
334.157
334.507
334.761
334.817
334.886
334.994
334.947
334.838
334.556
334.365
333.976
333.539
332.961
332.525
326.452
326.994
327.464
327.992
328.473
328.754
329.093
329.33
329.585
329.596
329.797
329.676
329.787
329.659
329.472
329.215
328.95
328.564
328.103
327.757
322.08
322.52
322.96
323.366
323.756
324.024
324.323
324.576
324.634
324.798
324.886
324.872
324.807
324.746
324.626
324.389
324.061
323.795
323.481
323.129
318.008
318.211
318.561
318.945
319.221
319.474
319.68
319.91
319.946
320.03
320.084
320.112
320.028
320.055
319.886
319.756
319.523
319.254
318.968
318.748
313.825
314.045
314.284
314.581
314.846
314.96
315.191
315.28
315.374
315.406
315.478
315.587
315.475
315.394
315.317
315.155
315.034
314.872
314.646
314.442
309.863
310.033
310.199
310.337
310.455
310.701
310.73
310.885
310.913
310.954
310.991
311.027
311.037
310.985
310.922
310.788
310.681
310.571
310.462
310.296
305.986
306.043
306.12
306.245
306.315
306.294
306.448
306.477
306.541
306.606
306.592
306.542
306.581
306.558
306.533
306.481
306.411
306.309
306.281
306.146
301.954
302.075
301.992
302.058
302.125
302.126
302.087
302.198
302.251
302.257
302.253
302.22
302.16
302.221
302.16
302.191
302.129
302.152
302.044
302.033
331.719
332.26
332.957
333.587
333.987
334.511
334.998
335.223
335.469
335.662
335.758
335.816
335.759
335.63
335.459
335.075
334.738
334.33
333.832
333.284
327.013
327.556
328.099
328.538
329.039
329.423
329.787
330.053
330.253
330.408
330.532
330.526
330.459
330.361
330.204
329.983
329.553
329.22
328.761
328.457
322.587
322.973
323.5
323.895
324.306
324.559
324.836
325.124
325.232
325.357
325.455
325.515
325.417
325.418
325.105
324.967
324.712
324.431
324.001
323.593
318.34
318.649
319.028
319.293
319.642
319.963
320.127
320.296
320.491
320.524
320.636
320.659
320.598
320.559
320.415
320.139
319.99
319.758
319.505
319.245
314.175
314.43
314.679
314.976
315.17
315.27
315.561
315.675
315.729
315.807
315.888
315.841
315.882
315.846
315.656
315.58
315.366
315.217
315.032
314.805
310.06
310.253
310.4
310.58
310.755
310.905
311.047
311.12
311.159
311.297
311.247
311.275
311.273
311.234
311.159
311.083
310.942
310.838
310.699
310.513
305.981
306.087
306.181
306.314
306.394
306.518
306.59
306.593
306.647
306.736
306.771
306.746
306.644
306.706
306.707
306.58
306.562
306.513
306.412
306.284
302.026
302.005
302.114
302.129
302.146
302.212
302.19
302.279
302.205
302.334
302.225
302.235
302.239
302.183
302.269
302.174
302.204
302.115
302.144
302.129
332.278
332.892
333.584
334.211
334.738
335.221
335.663
336.002
336.2
336.367
336.55
336.571
336.505
336.382
336.154
335.86
335.483
334.992
334.416
333.968
327.536
328.112
328.638
329.203
329.636
330.026
330.402
330.646
330.828
331.066
331.221
331.166
331.145
331.041
330.797
330.577
330.197
329.881
329.402
328.963
323.07
323.481
323.943
324.426
324.776
325.11
325.438
325.651
325.809
325.943
326.001
326.059
326.023
325.88
325.78
325.519
325.286
324.835
324.594
324.155
318.693
319.014
319.351
319.771
320.064
320.303
320.566
320.716
320.99
321.064
321.103
321.058
321.024
321.007
320.825
320.609
320.424
320.162
319.819
319.57
314.452
314.711
315.041
315.264
315.516
315.698
315.881
315.971
316.159
316.292
316.199
316.26
316.205
316.208
316.024
315.848
315.806
315.568
315.343
315.158
310.173
310.447
310.605
310.914
311.016
311.205
311.313
311.356
311.459
311.521
311.525
311.579
311.544
311.451
311.387
311.351
311.163
311.101
310.895
310.796
306.154
306.218
306.384
306.456
306.568
306.649
306.73
306.822
306.925
306.873
306.914
306.875
306.948
306.834
306.704
306.803
306.72
306.579
306.538
306.404
302.066
302.088
302.163
302.126
302.142
302.252
302.233
302.324
302.303
302.349
302.343
302.241
302.307
302.37
302.238
302.28
302.25
302.214
302.157
302.166
332.79
333.432
334.18
334.801
335.386
335.832
336.296
336.608
336.938
337.057
337.15
337.295
337.17
337.092
336.809
336.51
336.097
335.608
335.054
334.49
328.039
328.595
329.169
329.643
330.098
330.605
330.959
331.205
331.505
331.665
331.718
331.77
331.737
331.571
331.477
331.163
330.797
330.387
329.918
329.568
323.492
323.833
324.339
324.825
325.235
325.537
325.848
326.097
326.266
326.42
326.531
326.536
326.464
326.356
326.195
325.952
325.723
325.32
324.955
324.629
319.088
319.333
319.756
320.063
320.43
320.655
320.95
321.115
321.222
321.389
321.476
321.491
321.395
321.295
321.215
320.991
320.843
320.492
320.327
319.925
314.671
314.907
315.209
315.489
315.707
315.95
316.164
316.284
316.417
316.532
316.525
316.554
316.533
316.484
316.317
316.273
316.071
315.85
315.624
315.459
310.415
310.633
310.859
311.01
311.171
311.36
311.467
311.533
311.675
311.721
311.772
311.739
311.683
311.672
311.631
311.543
311.416
311.217
311.068
310.997
306.244
306.363
306.471
306.666
306.65
306.801
306.842
306.974
306.919
307.009
307.063
307.088
306.941
306.963
306.991
306.9
306.75
306.67
306.603
306.581
302.034
302.116
302.145
302.185
302.288
302.31
302.298
302.339
302.289
302.304
302.337
302.378
302.339
302.281
302.32
302.304
302.325
302.21
302.254
302.21
333.197
333.892
334.561
335.253
335.896
336.378
336.814
337.149
337.397
337.713
337.757
337.754
337.798
337.604
337.37
337.084
336.583
336.132
335.557
334.932
328.357
328.847
329.548
330.076
330.581
330.994
331.388
331.683
331.948
332.135
332.247
332.274
332.153
332.065
331.841
331.544
331.28
330.771
330.334
329.858
323.717
324.191
324.709
325.121
325.565
325.858
326.203
326.538
326.608
326.779
326.826
326.99
326.829
326.756
326.62
326.344
326.101
325.791
325.341
325.003
319.226
319.569
319.956
320.311
320.767
320.998
321.243
321.418
321.522
321.722
321.755
321.794
321.776
321.708
321.543
321.313
321.117
320.837
320.511
320.225
314.931
315.1
315.417
315.701
316.047
316.198
316.38
316.512
316.665
316.767
316.799
316.774
316.761
316.693
316.655
316.482
316.302
316.065
315.809
315.602
310.573
310.861
310.929
311.087
311.333
311.494
311.666
311.78
311.839
311.89
311.926
311.915
311.94
311.879
311.789
311.661
311.56
311.452
311.289
311.164
306.359
306.454
306.68
306.698
306.806
306.888
306.98
306.993
307.083
307.148
307.174
307.088
307.173
307.05
307.119
306.968
306.919
306.832
306.717
306.601
302.109
302.152
302.251
302.231
302.274
302.329
302.332
302.331
302.368
302.404
302.377
302.416
302.3
302.407
302.414
302.342
302.303
302.334
302.245
302.218
333.413
334.158
334.889
335.585
336.126
336.733
337.148
337.544
337.843
338.023
338.119
338.19
338.076
337.984
337.704
337.367
337.008
336.564
336.022
335.311
328.588
329.131
329.748
330.302
330.896
331.278
331.626
331.973
332.255
332.391
332.394
332.505
332.508
332.339
332.198
331.922
331.494
331.151
330.589
330.127
323.97
324.339
324.92
325.325
325.8
326.173
326.49
326.725
326.859
327.122
327.193
327.188
327.131
327.049
326.863
326.683
326.365
325.989
325.607
325.194
319.459
319.826
320.301
320.498
320.859
321.152
321.391
321.676
321.81
321.914
322.016
321.969
321.934
321.964
321.745
321.538
321.352
321.056
320.761
320.419
314.982
315.259
315.561
315.845
316.155
316.333
316.579
316.68
316.781
316.91
316.924
316.953
316.976
316.874
316.654
316.646
316.465
316.243
315.878
315.758
310.633
310.808
311.073
311.328
311.457
311.654
311.781
311.772
311.918
311.994
312.003
312.068
311.999
311.942
311.895
311.827
311.655
311.541
311.278
311.23
306.37
306.519
306.602
306.742
306.841
306.982
307.081
307.091
307.109
307.231
307.199
307.17
307.158
307.172
307.17
307.013
306.959
306.905
306.754
306.691
302.101
302.175
302.261
302.231
302.282
302.27
302.379
302.352
302.373
302.446
302.4
302.379
302.398
302.379
302.391
302.412
302.327
302.306
302.244
302.23
)
;

boundaryField
{
    hotSide
    {
        type            fixedGradient;
        gradient        nonuniform List<scalar> 
400
(
321.511
322.87
325.591
329.677
335.133
341.965
350.181
359.788
370.794
383.208
397.037
412.289
428.971
447.088
466.647
487.651
510.105
534.011
559.372
586.191
323.738
325.08
327.767
331.802
337.194
343.949
352.078
361.591
372.498
384.81
398.537
413.687
430.268
448.289
467.755
488.672
511.043
534.872
560.161
586.913
326.149
327.47
330.116
334.091
339.406
346.071
354.099
363.503
374.296
386.491
400.101
415.136
431.606
449.52
468.885
489.706
511.988
535.735
560.948
587.63
328.704
330
332.597
336.503
341.73
348.292
356.205
365.485
376.15
388.215
401.695
416.604
432.954
450.753
470.009
490.73
512.919
536.579
561.714
588.325
331.33
332.599
335.142
338.97
344.099
350.546
358.332
367.477
378.003
389.928
403.271
418.047
434.27
451.949
471.095
491.712
513.807
537.382
562.439
588.978
333.918
335.158
337.643
341.389
346.414
352.74
360.392
369.397
379.779
391.562
404.765
419.407
435.503
453.065
472.101
492.618
514.622
538.114
563.096
589.569
336.321
337.531
339.959
343.622
348.544
354.751
362.274
371.142
381.385
393.031
406.101
420.618
436.595
454.047
472.983
493.409
515.33
538.747
563.663
590.076
338.36
339.543
341.92
345.509
350.339
356.44
363.847
372.595
382.718
394.244
407.2
421.608
437.485
454.844
473.695
494.045
515.897
539.253
564.114
590.478
339.852
341.015
343.352
346.885
351.645
357.665
364.985
373.643
383.675
395.113
407.984
422.312
438.116
455.407
474.197
494.491
516.294
539.606
564.428
590.758
340.643
341.795
344.11
347.613
352.334
358.311
365.584
374.193
384.176
395.567
408.393
422.679
438.443
455.699
474.456
494.722
516.498
539.788
564.589
590.901
340.643
341.795
344.11
347.613
352.334
358.311
365.584
374.193
384.176
395.567
408.393
422.679
438.443
455.699
474.456
494.722
516.498
539.788
564.589
590.901
339.852
341.015
343.352
346.885
351.645
357.665
364.985
373.643
383.675
395.113
407.984
422.312
438.116
455.407
474.197
494.491
516.294
539.606
564.428
590.758
338.36
339.543
341.92
345.509
350.339
356.44
363.847
372.595
382.718
394.244
407.2
421.608
437.485
454.844
473.695
494.045
515.897
539.253
564.114
590.478
336.321
337.531
339.959
343.622
348.544
354.751
362.274
371.142
381.385
393.031
406.101
420.618
436.595
454.047
472.983
493.409
515.33
538.747
563.663
590.076
333.918
335.158
337.643
341.389
346.414
352.74
360.392
369.397
379.779
391.562
404.765
419.407
435.503
453.065
472.101
492.618
514.622
538.114
563.096
589.569
331.33
332.599
335.142
338.97
344.099
350.546
358.332
367.477
378.003
389.928
403.271
418.047
434.27
451.949
471.095
491.712
513.807
537.382
562.439
588.978
328.704
330
332.597
336.503
341.73
348.292
356.205
365.485
376.15
388.215
401.695
416.604
432.954
450.753
470.009
490.73
512.919
536.579
561.714
588.325
326.149
327.47
330.116
334.091
339.406
346.071
354.099
363.503
374.296
386.491
400.101
415.136
431.606
449.52
468.885
489.706
511.988
535.735
560.948
587.63
323.738
325.08
327.767
331.802
337.194
343.949
352.078
361.591
372.498
384.81
398.537
413.687
430.268
448.289
467.755
488.672
511.043
534.872
560.161
586.913
321.511
322.87
325.591
329.677
335.133
341.965
350.181
359.788
370.794
383.208
397.037
412.289
428.971
447.088
466.647
487.651
510.105
534.011
559.372
586.191
)
;
    }
    coldSide
    {
        type            mixed;
        refValue        uniform 300;
        refGradient     uniform 0;
        valueFraction   uniform 0.991591;
        source          uniform 0;
        value           nonuniform List<scalar> 
400
(
300.01
300.01
300.011
300.011
300.011
300.012
300.012
300.013
300.014
300.015
300.015
300.016
300.016
300.016
300.016
300.017
300.017
300.017
300.018
300.018
300.01
300.01
300.01
300.011
300.011
300.012
300.012
300.013
300.014
300.015
300.015
300.015
300.016
300.017
300.017
300.017
300.018
300.018
300.018