/*--------------------------------*- C++ -*----------------------------------*\
| =========                 |                                                 |
| \\      /  F ield         | OpenFOAM: The Open Source CFD Toolbox           |
|  \\    /   O peration     | Version:  2212                                  |
|   \\  /    A nd           | Website:  www.openfoam.com                      |
|    \\/     M anipulation  |                                                 |
\*---------------------------------------------------------------------------*/
FoamFile
{
    version     2.0;
    format      ascii;
    arch        "LSB;label=32;scalar=64";
    class       volScalarField;
    location    "./ITHACAoutput/true/8.9";
    object      error;
}
// * * * * * * * * * * * * * * * * * * * * * * * * * * * * * * * * * * * * * //

dimensions      [0 0 0 1 0 0 0];

internalField   nonuniform List<scalar> 
3200
(
4.40022
0.628964
3.78456
3.83614
3.34615
4.67878
3.78095
6.73495
5.43276
2.89129
1.75054
7.25585
5.02351
3.06486
3.36546
2.14289
1.84465
5.48376
1.20599
4.03402
4.82919
1.62739
4.94899
4.2625
1.22599
2.63143
5.37643
5.04685
2.41267
4.18253
2.93991
5.44223
2.79416
3.44744
4.7332
4.40737
4.15217
5.70143
1.3037
6.25019
2.94933
0.830936
1.55135
1.24574
3.08921
-0.155107
0.741545
4.22942
1.13003
1.49465
2.62861
4.52429
2.05803
2.86756
3.45455
2.39217
2.40928
0.49175
2.95019
4.60067
5.12193
2.79191
0.558991
0.113596
3.9468
0.84678
1.33631
1.61545
0.00166869
3.56738
2.88352
3.24214
1.49522
2.28543
1.65256
3.27408
-1.0788
3.08209
6.53096
4.77912
1.05103
1.43538
1.29946
2.28131
-0.228132
1.28358
2.12331
0.72216
2.04175
-1.60162
1.91436
3.15951
3.53118
2.0199
3.17133
0.7812
1.07021
-2.6088
4.1979
2.40414
-1.47559
2.17199
0.690803
-1.01774
-0.539193
-1.38148
-0.143142
-1.51467
1.78528
-1.96409
2.38475
-0.324614
2.60898
0.937375
0.878215
0.379143
-1.7358
-1.74208
0.818764
0.844373
0.983689
2.40342
1.69938
-1.14599
1.45345
-1.16178
0.249615
-0.667071
1.40128
-0.400627
0.0612657
4.93709
1.86932
1.23323
0.6759
1.3425
-1.29796
-0.0189837
-0.07201
0.813611
0.538731
3.35755
0.349686
0.268795
1.17141
0.574387
2.50386
3.75818
-2.51688
-0.778108
1.46221
1.80202
0.371761
2.10874
-1.67582
0.736205
0.643096
0.450652
-2.24727
-0.458312
3.41381
1.56908
-0.383735
-0.649676
3.25784
2.66791
1.40178
1.51398
2.96635
1.62008
2.31199
4.05274
2.82277
3.06578
4.51023
2.81569
2.34252
-2.18839
0.89208
5.54469
1.55757
0.670885
2.39321
-0.556957
1.2377
0.297477
1.51556
0.726743
5.64071
0.812421
1.08643
2.29111
-1.17145
2.68421
-0.691857
-0.312748
-0.687263
1.70568
-0.714183
2.89567
4.04621
1.71792
0.152749
0.736434
0.769516
3.96678
2.14874
2.50575
2.47566
1.83314
-0.720037
1.04011
0.520685
0.613593
0.892354
1.18958
0.0727022
-0.439017
3.30282
3.44631
4.93964
0.165681
-1.35045
-1.74644
3.65648
3.09098
0.281187
0.853895
0.166678
-1.75206
1.67031
1.07205
1.31754
3.21568
2.87735
2.04138
-0.0237756
3.16274
2.61731
0.084036
2.57561
-0.521514
-0.166047
1.91002
-1.59232
-1.9352
2.6964
1.4793
2.48406
-1.38274
0.0239504
0.736718
4.65824
0.775917
1.66043
0.365474
2.16964
0.865925
-0.553579
3.2597
0.521176
1.11183
-1.77072
1.46736
-1.10124
0.35969
0.445611
0.413532
2.17966
1.25195
-2.38168
-1.60331
-1.90681
1.65395
-0.496406
-1.74165
1.70025
-1.03305
2.01353
2.50417
-2.55761
-1.43564
1.40946
-1.37073
-3.72255
1.17409
-1.6952
-2.26222
0.957223
1.75396
3.67301
0.104414
2.09158
0.348867
0.0424913
0.906476
-0.883818
1.22457
-1.29254
0.799462
0.776983
1.39187
-1.76476
0.493417
1.39259
0.0462618
1.91557
0.726315
1.11346
0.800502
-0.0764353
-0.304836
0.818528
3.60782
4.6801
3.49974
2.15026
-1.94802
1.29549
3.1467
2.32437
2.26434
0.419327
1.53549
1.10155
-0.0522887
1.78175
1.05994
3.89556
2.83193
1.18897
0.495865
1.16762
0.0444509
-0.155536
2.71396
0.882359
2.82973
5.25241
-0.684077
-0.879772
-1.20094
0.307609
1.15737
-3.8492
1.94566
1.50319
0.605185
0.127431
-0.514113
-0.739521
3.06289
0.234785
0.882519
-0.499557
-1.34439
1.76043
-0.693496
6.12717
5.18368
1.34218
1.79249
-0.0170769
-1.249
-2.79065
0.0599041
4.40321
2.64451
4.67525
-1.8552
4.4147
0.581623
-0.723224
2.22701
-2.6009
0.343597
3.23541
3.37271
-0.440505
3.87699
0.00545106
-0.13908
-0.649771
2.61544
0.270022
2.76246
1.45122
-0.943052
0.0964759
0.250813
-0.0553355
-0.0598164
0.784956
0.155173
0.8604
-1.42706
0.0382554
4.86863
0.554572
1.43424
-1.62328
1.78096
-1.58634
1.45903
-1.20261
-1.17804
-1.54071
0.464267
0.311991
1.33901
-1.01156
-0.728016
0.40969
1.93083
0.228867
-3.44736
1.17038
0.999636
1.17577
0.991172
3.2929
-1.942
1.0827
-1.08004
-1.28123
-1.00777
0.0493989
1.01814
-0.254809
1.61123
1.90686
0.782087
0.71974
-1.84216
-1.05021
-0.870073
-0.111237
1.82667
0.800972
2.65381
3.7703
1.59414
0.132289
-0.336926
0.882283
3.01399
-1.53676
-3.01606
2.38755
-0.0627546
0.28221
3.57351
5.58152
-1.91036
0.332463
0.692594
-0.0833369
0.910551
-0.754469
4.4774
-1.75905
0.493273
0.411618
-2.42567
-1.8332
-0.230918
0.673612
-0.740906
-1.85599
1.20716
1.11271
-3.30455
-0.678712
2.36415
1.56519
-1.17596
0.101033
0.945319
-0.873105
1.5701
1.02847
-2.74045
-2.0561
0.569434
-1.57517
0.302998
-2.06534
-4.93337
-0.226475
-0.629641
-0.0482947
-4.17118
1.06937
-1.30072
-1.15354
1.93885
0.492838
-0.179933
-0.352575
2.20705
-2.23009
-1.43912
-1.5886
-1.02771
1.30127
0.205754
2.26372
-0.76515
-1.13116
0.0208007
0.275252
-1.10581
0.477643
0.863833
-0.416976
1.08611
0.0187361
2.35705
-0.630718
1.56398
-0.882127
-0.621927
-0.33289
-1.87461
-0.0863922
-0.518131
-0.243867
-0.243344
0.859441
0.540006
-1.49616
0.311409
-1.22558
-0.475912
-0.0394167
1.10172
5.09997
-2.66597
3.76498
2.59687
0.23947
-1.88795
-0.87821
1.22183
-3.03686
0.106276
-1.32812
0.527479
1.13983
-0.611557
-1.08147
-0.688784
-0.979781
0.724665
1.59533
-0.361055
1.70351
-4.41604
1.72001
-1.45262
0.0140012
-0.802482
0.891216
1.74728
-0.00296734
-0.0985144
-1.64429
0.4018
-0.773986
2.3945
0.960009
0.539829
0.795976
0.399057
-0.106571
1.0015
0.136286
1.53032
0.404545
2.04261
-0.264552
-2.66702
-3.65456
-0.611685
-3.36321
-0.652339
0.129592
0.371328
-2.36142
-2.51579
1.67747
1.5362
2.87047
-1.12801
-0.864499
-2.27032
-0.482437
0.410366
1.62682
4.20024
-0.444274
-1.66164
1.77262
-0.413968
-1.21363
-1.01955
1.7921
0.454828
-0.611196
1.54531
-2.11219
-0.592915
0.747506
-1.04363
-0.955145
-0.847102
-0.0327429
-0.410606
-2.12898
-0.670943
-0.312287
-1.10125
-0.0985343
-1.33962
-1.97412
2.03712
2.50442
1.7527
-1.09471
1.05237
-0.196938
-0.491441
2.35411
-2.50373
3.66586
0.076169
1.76044
1.18174
0.770286
0.150725
-0.243338
-2.03706
0.766096
-1.43411
0.112435
-3.10081
-1.46673
-1.35335
-0.738561
-1.81087
2.70334
-0.456969
2.32041
-3.30215
-2.54563
-1.02313
-4.39417
-1.09214
2.13708
1.15948
0.921043
0.701029
-3.02041
2.03045
-1.55203
-1.23993
1.15748
-2.82775
1.75973
-1.77349
1.86076
-0.0144341
2.29482
0.46949
0.280499
0.344351
0.184672
-0.291996
-2.53527
1.57435
0.185544
-2.09748
-0.588148
1.12187
-0.325974
0.374667
-2.63656
-0.444267
-1.79403
2.47007
-3.62051
-0.304603
1.99598
0.0845578
-1.5286
1.40388
0.785902
-1.99191
3.37641
-0.92394
-1.88508
0.352192
1.42203
2.18504
-2.71092
-0.259439
-0.795755
-0.265928
2.40266
0.299565
1.63878
-4.19259
-1.93198
-0.590078
-0.637027
-1.25396
0.680355
-0.627155
1.32664
3.35399
-0.356264
1.75997
-4.10764
-0.375593
-0.959764
-0.153309
-0.753882
1.35632
-1.53682
-0.367055
-4.65194
-1.14097
-0.136454
1.59655
-0.435607
0.702304
1.91968
1.41612
-2.61836
1.61293
-1.92325
-3.06097
-0.519276
-1.00984
-1.86316
2.21662
0.872229
1.20177
-1.45209
-3.95071
-1.84267
0.0489383
-1.09477
-1.84995
-2.21523
0.608299
-3.57954
0.107986
-0.209834
-1.51061
-0.727613
0.0758639
-0.342984
-3.11558
2.1107
-1.66109
-4.11566
-0.939133
1.79592
0.95924
-4.75122
0.125214
-0.35849
-2.79508
-0.452646
-2.44606
-0.357114
1.0189
-2.17826
-0.00394094
0.111247
-0.788866
-4.58154
-3.50607
0.801833
0.252764
-0.952964
0.837389
1.72743
0.000312623
2.04812
-0.338303
-1.94925
0.807909
-4.32361
-2.29081
-2.65196
2.14331
-0.204211
2.76449
1.85846
1.3161
-1.27793
-1.93669
-6.84699
-0.795711
-3.89645
-6.44944
-3.68712
-3.62743
-1.90789
-3.06422
-1.63032
-1.57378
-2.30894
-2.02837
-1.66546
1.55469
-0.881965
-0.247962
1.97093
-0.671018
0.582452
-2.49532
0.375201
0.0788624
-1.56533
-0.180245
-4.99777
-0.696071
-0.456971
0.705692
0.253905
-1.78635
-0.375805
-0.781238
-0.314135
-0.594166
-0.345833
2.42791
-1.05908
-0.601257
-2.73547
-1.69395
0.601672
0.787322
-1.85136
0.0825512
-5.97524
-1.69512
-3.41512
-0.00111224
-0.919173
0.0949955
-0.922442
-4.04679
-1.5631
-0.533243
-0.675614
0.507045
0.0884855
0.477289
0.260727
-1.02407
-1.42179
0.721405
-2.59251
-1.40689
0.251795
-0.478022
-1.39684
0.789266
-2.82702
1.62071
0.328446
-0.27186
-0.147339
0.113734
0.732994
-0.0139814
-1.07297
-0.492326
1.44492
0.197766
-3.64917
-3.72038
0.259596
-2.21952
-0.677601
0.418621
0.217414
-3.90751
1.76492
-1.84916
-3.38199
-2.26554
0.62579
-1.35226
0.893114
-0.486562
-2.07547
-1.50268
0.299598
-0.514208
-0.0130035
-2.01903
1.77264
1.80262
1.59305
-1.80931
-2.79476
-1.85421
-1.57337
1.15831
-0.457189
-0.602853
-0.649352
-0.105149
-0.677206
1.49336
-0.375441
0.545827
-1.73799
-4.36886
-0.0584756
-0.776433
-0.773004
0.789228
1.8246
-2.67549
-2.51116
-2.24403
-1.74951
-0.642968
1.01979
1.1796
-0.305642
-0.987122
-1.60246
-1.15061
-0.460635
-3.8426
3.45212
1.69965
-2.62009
2.31271
-0.885768
-0.94295
0.754602
0.14449
0.0426321
0.496348
-0.0171123
0.617676
0.747488
-0.546544
0.558228
-1.70229
-0.0621602
-0.533144
-1.42515
-3.54866
0.468454
-1.5247
-1.5592
-3.27196
-3.11942
-0.419558
-3.89462
-2.88544
-8.73494
-4.28812
-0.876945
-0.450103
-1.66605
-5.08557
-4.53513
-3.10575
-1.93384
-1.02309
-0.659005
-2.12382
-1.44298
-0.762745
-1.5134
-1.97528
-2.40546
-3.59093
-2.44969
-1.51774
-4.32301
-3.61046
-3.00503
-4.11092
-1.40056
-1.2031
-2.21522
-0.952637
-1.32924
-0.18708
-1.24614
-0.327996
-2.00133
-0.724222
-3.12266
-0.512545
-1.94442
-2.76703
-3.72001
-2.65126
-1.6254
-2.83965
-2.08214
-2.25806
-0.878351
-2.80322
-1.58532
1.95639
1.70234
2.10854
2.1706
0.148572
0.79135
-0.315143
-4.19878
-3.17825
-2.48103
-2.17506
-1.17932
-1.36835
-3.36528
-0.278246
1.10802
-2.33047
0.445253
-1.90885
-0.291676
0.797434
-2.19292
-0.597801
2.24784
-2.21215
0.437431
-0.624159
-1.53152
-0.00869126
1.15151
-1.47891
-1.57066
-2.83524
-1.43914
-2.48243
-3.9251
0.501421
-1.88979
-0.796971
-1.2778
0.895215
1.36749
3.649
-1.20106
-1.44346
-3.09581
0.914215
-2.96616
0.41088
-4.65917
-3.26836
-1.86047
-1.36235
-3.81455
0.425994
-2.28507
-0.597076
0.930871
0.551899
0.991249
0.781746
-1.4454
0.751049
0.106841
-1.37951
-0.210478
-0.828443
-2.61281
-0.316843
0.471982
-1.46799
-0.776438
-0.303399
0.646723
-0.546121
0.242234
-1.70504
-0.444471
0.540775
-0.646015
-0.952031
-1.00014
-0.276917
-0.857656
0.542394
-2.57075
1.82959
-0.974465
1.0607
-1.54643
-2.2771
1.22844
0.285269
-1.01908
-1.05429
-2.03375
-1.64624
-1.36577
-0.0630361
1.7016
1.78721
0.183101
0.392644
-1.41777
-2.76302
-1.47287
-5.94778
-6.3205
-5.10232
-4.21766
-2.97339
-1.0861
-4.01382
-4.45309
-2.13991
-2.21034
-4.94924
-4.34724
-3.79658
-3.42959
-1.40681
-2.27061
-1.64718
0.905801
-1.09178
-1.8914
-1.4891
-3.63444
0.46991
-4.7879
-0.353348
-1.75014
-0.252228
-0.441324
-3.4481
0.385777
-6.054
-0.236526
-4.37693
0.0875494
-2.45582
0.180887
-0.198328
-0.761693
-0.352764
-5.87246
-4.04851
-1.48811
-2.32955
-2.88442
-1.55555
-4.45464
-2.57115
-3.17758
-3.69711
-2.7345
0.940119
-2.89971
-2.06056
0.136144
-3.02812
-0.25888
2.28193
-4.01227
-2.65801
-2.67348
-1.0967
-0.743753
-3.58938
-0.519737
-3.50245
-0.34826
-1.84234
0.601213
-1.09011
-3.05793
-0.556082
-2.66712
0.933341
1.70389
0.0743513
-3.05932
1.03515
-0.59445
-0.611678
-3.28681
3.07053
-0.904164
-1.75488
0.066563
-0.696375
0.000391769
-1.45619
-0.541039
-1.75053
-3.67866
3.34239
-3.61261
-2.23171
-5.2508
0.909619
-0.705647
-1.22241
0.217024
-1.62442
-0.498717
-2.41272
-0.151389
0.0589314
0.410714
-1.01777
-1.04194
-0.485653
0.343855
0.716305
-0.0110436
-2.38009
-2.58319
-3.05945
-1.6298
0.96842
0.703481
-1.44099
-0.00825276
-0.423319
0.0374295
0.666578
-1.56273
-0.653828
-2.12121
-0.338763
-2.1834
-1.74299
1.35462
-2.57937
1.17302
-1.16083
-1.41314
-1.29068
-3.80418
2.01516
0.356012
3.08042
0.18105
0.88656
0.302562
0.125898
-1.60967
0.0874751
-0.52191
-0.226574
-0.682689
-0.500159
-1.43646
-0.567401
-0.754362
2.01096
-0.89868
-0.352759
-1.02166
2.00275
-1.76366
-0.87196
-3.70776
-2.69369
-3.9631
-3.86059
-4.13986
-2.55995
-4.45797
-6.09649
-5.35338
-2.98963
-3.67744
-3.69588
-4.07127
-3.80027
-3.19373
-3.75773
-2.98456
-1.73358
-0.902561
-1.38332
-1.2643
-4.62714
1.21605
-3.78093
-4.57157
-2.1491
-5.11997
-3.89297
-1.37525
0.177444
-5.65852
-1.82378
-1.41152
-3.52264
-3.74815
0.860321
-0.37988
-4.06744
-1.67473
2.58173
2.02462
-1.29573
-1.87371
-5.77434
-1.1657
-1.6259
-4.63695
-0.468654
-2.95371
-0.373347
-2.55382
-2.4517
-1.21005
-3.46045
-3.27776
-1.77818
-4.47514
-1.9099
-2.62404
0.58062
-1.8385
-2.39816
-2.9069
0.867481
-1.52018
-0.723174
-0.634503
-1.22132
-5.0627
-3.92475
-0.934249
0.700087
-2.55832
0.471737
-1.10812
-0.915231
-1.23852
-2.219
-0.278003
1.01192
0.170325
1.47881
-2.33755
-0.643212
-0.560876
-2.13481
-3.22659
-4.02909
-2.56214
-1.90044
1.09439
-0.491997
-4.50202
-3.22949
-2.21202
0.81783
-2.10343
0.127002
-1.11863
-1.72073
1.3749
0.373286
-0.840925
2.67106
1.19598
-0.674436
-3.87467
1.14977
-2.85278
-1.82493
-1.18449
-0.838465
1.12132
-3.02144
-2.20358
-0.045456
-1.53585
1.40921
3.20133
2.26288
-0.884809
-2.16096
-0.11983
0.169032
2.50042
-0.725274
-2.29273
-1.51123
-0.416523
-1.50665
0.30807
-2.50225
-1.21891
2.65761
0.164909
-0.966022
-0.875567
-0.194497
0.0222375
-1.51339
-0.495297
-4.42667
-0.829006
-0.446417
0.0331785
2.24176
-2.1418
-0.793425
0.759537
-0.59658
-2.39907
7.20403
0.29655
-0.530417
0.192001
-2.448
-1.75802
0.359757
-0.180295
1.52214
-2.40228
-1.57644
-2.76737
-1.23082
-7.65522
-6.16365
-1.93184
-5.03057
-7.66891
-4.99332
-5.93094
-7.60611
-4.4586
-7.43923
-3.56248
-5.40953
-3.5778
4.31036
-0.178645
-2.0881
-0.614188
-0.665539
-2.40312
-2.05884
-3.82203
0.210242
-4.99223
-0.31109
-5.25968
0.277091
0.0808492
-4.67734
-0.717978
-3.96423
-0.336089
-4.75872
-0.365636
-4.32067
0.405738
0.258352
-1.707
-1.95927
-3.21045
-3.15173
-3.82571
-0.14371
-4.86021
-5.37902
-1.86905
-4.32715
-0.0416269
-2.5235
-4.78765
-4.65845
-1.43468
-7.52579
-2.11643
-0.79431
-1.98467
-0.032672
-2.70336
-3.381
0.521167
-3.41274
0.890395
-3.83654
-0.581888
-2.70211
0.761319
-3.61193
-4.09404
-0.333583
-3.75429
-0.193854
-4.98262
0.23737
-2.72853
-1.16157
-0.402887
0.7174
-1.55416
-1.02053
-0.174436
-3.62552
0.630676
-0.735293
-0.734078
-1.44174
0.537024
-4.72366
-0.686997
-3.81498
1.31385
0.957078
-0.680063
-2.05173
-2.30234
2.04862
-2.04642
-1.91381
-0.851005
-1.16895
-1.62682
0.81549
-0.30298
2.88957
-3.76214
-3.00524
-1.56018
-0.979965
-2.65225
-0.631323
-1.20414
-2.71417
-3.05243
-1.37144
-0.218378
-2.6528
0.275549
1.09289
0.24911
2.06254
2.07313
-0.651094
0.213316
-1.64832
-1.88775
2.62469
-0.224711
0.556141
-0.0572886
-0.680471
1.27229
-0.583629
-1.6664
1.07977
-0.166562
-2.48986
-0.659702
-0.733523
2.06673
0.103268
-2.51958
1.21486
-0.646113
-0.690202
-2.22122
-0.373295
0.199518
-2.74637
3.43942
0.831588
0.492128
0.317808
-1.4624
-0.3579
-2.62945
-0.227152
2.95528
-0.92821
-2.49081
-2.94434
-2.23868
-2.56396
-3.7726
-3.17687
-3.86856
-4.40323
-4.5106
-3.5954
-5.45842
-4.4216
-6.92468
-3.87756
-3.42788
-2.07997
0.0636299
2.13686
2.49767
-2.86991
-2.59356
-2.24031
-2.19757
-1.00454
-3.89993
0.589697
-1.83636
-0.231476
-4.45461
0.632998
-0.740805
-2.80579
-0.852432
-6.20174
-0.102858
-4.79185
0.26593
-1.38825
-0.0851793
-0.788546
-3.38566
-3.44423
-1.50411
-3.42576
-2.86702
0.359911
0.569861
-1.34132
-4.02964
-2.08089
-3.81607
-1.99783
-4.68882
-1.24091
-0.0415393
-1.68407
-2.00382
0.111324
0.229704
-4.23115
-4.5793
-0.593525
-2.31014
-1.50007
-3.59943
-3.19994
-3.11339
-0.116749
-2.63738
-6.4422
0.544029
2.67334
-1.7195
-6.22268
-3.92803
-1.58773
-2.20324
-1.65417
-1.69752
-3.03676
-1.36015
-4.04306
3.20544
-1.36332
-0.867527
0.72577
-2.02795
-3.33745
0.0726906
-5.16352
-2.31677
0.612665
-5.70066
-0.393613
-2.61948
0.234644
0.235573
0.583098
2.47764
-1.44997
1.15703
-1.58568
-6.25124
1.7433
-3.38815
4.05231
-4.03539
-1.9312
-1.87924
1.18144
-0.390263
-2.7708
-0.920422
-2.28766
2.99772
-3.34872
-0.750465
2.43557
1.04696
-0.322287
1.13907
-4.23661
-0.5626
-2.33278
-0.0330621
-1.65196
1.98464
0.195343
-1.82769
0.49091
-1.15752
2.23721
-1.55791
2.36184
-2.85658
0.390801
-2.42342
-0.226439
-2.71271
-3.73005
-1.23683
1.16241
2.46064
0.535971
-0.205982
1.81687
0.931525
-1.24179
-1.27104
0.820093
-1.6077
0.849786
-0.236754
1.20644
-0.164386
2.96731
-0.499372
-1.19198
2.19198
-1.96472
-0.957808
-0.85754
0.403488
-2.52024
-3.82803
-5.67875
-0.914579
-3.34172
-4.72787
-3.46184
-1.88412
-1.26301
-6.14028
-3.73293
-2.6082
-0.889293
-2.45902
0.462477
0.304268
0.354522
0.00444803
-1.15247
3.62939
-5.02033
1.35467
-4.90397
-6.54709
-1.67344
-2.38168
-1.72822
-2.36462
-3.55177
-1.58415
-4.41507
0.298159
-0.830609
-1.27762
-5.54042
0.291821
0.479966
2.32808
-2.22364
-0.553535
-4.51857
-1.1901
-0.823048
-3.01321
-4.34702
-2.66573
-4.95544
-4.46393
-1.58091
-1.55985
-2.39289
-5.42199
-0.112611
-2.25523
-3.12211
2.89798
3.34966
-0.933621
1.32619
-0.0145209
0.369478
-2.23081
-2.49398
-2.83986
-3.86508
-4.9656
0.273537
-1.97882
-6.54922
-0.489868
-1.97787
1.00374
-0.138554
-0.477538
0.122076
-0.136605
1.69671
-0.614268
2.72806
0.112718
-0.890043
-0.937436
-1.36791
-3.7645
-2.74427
-1.06195
-4.05829
-5.12415
-1.64012
-3.24974
-3.88413
-4.50154
2.00822
1.71302
-0.376531
2.46699
-1.75881
1.31177
1.14923
2.24718
-1.863
-1.8753
-0.357947
-1.98304
0.630058
-3.48979
-3.69335
-0.552985
-2.44101
0.981074
-1.0604
-3.67465
1.44334
2.09155
1.03352
-0.315274
-2.09091
0.764962
-0.829928
-1.86218
3.07668
0.351994
-2.0504
-0.555203
-2.50308
-2.6974
-1.96968
-3.27388
2.63351
1.51226
1.25571
-0.16201
-2.02508
3.25481
0.669825
1.30853
-1.35959
-0.373929
1.45819
-3.395
2.71119
0.414011
2.50666
-0.97714
-1.09056
-2.1489
-0.331909
0.856038
-1.9807
1.26017
-1.18057
-0.791082
-3.76074
-1.22754
-0.281296
2.98927
-1.56998
-1.80041
-0.341062
-0.0836994
-0.615861
-2.87187
-0.930206
-7.14628
-3.68555
-2.54415
-4.27078
-2.0282
-3.22781
-4.50717
-1.08851
-2.11922
-1.53076
-2.86719
-0.24893
1.08116
1.76234
-0.644518
-0.244088
-1.18363
0.465731
-0.432071
0.512461
-6.62965
-0.132093
-4.98249
-1.09092
-0.913751
-2.77201
0.41786
-3.69543
0.26764
-2.51502
-0.934046
-1.61242
0.156711
2.19604
-1.01754
3.19494
-1.67402
-3.31875
4.27543
-1.07469
0.200413
-3.4036
-2.61568
-3.54611
-3.52849
-3.57974
-2.51379
-0.799353
0.75104
-1.75938
-1.35699
-0.679096
2.76091
1.26946
-0.539031
1.70509
-3.44649
-3.95626
2.09024
-3.97973
-2.05177
-3.2293
-1.18783
0.342291
-1.03643
0.173618
-1.6251
-2.68794
-1.54325
-1.03061
-3.06321
-0.35596
-2.69377
-0.982935
2.29534
-0.401185
1.80119
-3.24971
-0.283924
0.41828
-1.41303
-0.356761
-2.75983
-0.522803
-0.234477
-2.08001
-0.999077
-1.12932
-1.1775
-1.33858
-1.67126
1.5666
0.318876
0.16184
0.267633
1.25896
-0.371062
-0.763421
-2.4378
-1.31157
-1.29794
-4.33479
-3.17257
-0.799103
1.18292
-0.86672
-1.21764
-2.59656
-1.46058
-1.16552
0.314821
2.30614
1.18611
1.80539
-0.858722
-2.05436
-0.131473
0.321617
2.86879
-1.50228
-2.2735
0.401875
-2.41341
-0.0444971
-0.728448
1.52616
-0.617655
-0.816513
-0.864823
0.495724
-0.373234
2.21985
-1.34509
-2.10173
0.404781
0.0785967
-1.93143
0.880024
3.17834
4.16929
-0.264619
-2.81827
-0.528797
2.23719
1.56702
2.5064
-4.28645
1.4446
-1.14172
1.72447
1.55564
-0.0909167
1.16249
-1.44259
1.84447
-0.504675
2.04459
1.04023
-1.68003
-1.34906
-1.86854
-0.337738
-5.44473
-0.242085
-3.22366
-4.04872
-3.12568
-0.375156
-0.931409
-2.02468
-0.956414
1.48219
2.42902
0.855586
0.84619
-4.70276
-2.00116
-0.191919
-2.55525
-2.94474
-3.54804
-1.51415
-2.10006
-3.30811
-2.43851
-4.46162
-3.63111
-1.25689
-2.60132
1.93508
2.78635
3.81077
3.77182
0.781102
4.87478
2.74048
1.45905
-1.06021
-2.1584
-2.12912
-1.52872
-3.90738
-3.00322
-1.6494
-3.1625
-2.08167
0.317921
-4.0124
-1.35594
-0.71101
0.0479096
3.08201
0.928104
2.41381
-1.68073
1.13268
-2.51147
-0.926703
-0.371553
-1.46158
-1.7835
-2.77916
-0.570333
-2.06239
-0.396101
-3.24339
-0.503351
-2.9623
0.0727843
-1.98198
0.450258
-2.86396
1.9644
0.53152
1.21494
2.17205
-1.58326
-2.24474
0.388364
-1.51743
-1.47489
-0.374596
2.39375
-2.23859
2.04984
-2.47101
1.72181
-1.02503
-4.06887
-0.486902
-1.3879
1.21355
1.30105
0.373759
3.59342
1.5469
-2.15403
0.322493
-4.7714
-1.18694
-1.19376
-3.84483
0.703477
-0.994076
0.499723
-1.59679
1.98688
-0.504088
-0.79535
3.51209
2.21739
0.569255
2.74621
3.05407
1.48627
-1.36707
-0.350323
0.696693
0.0593336
-5.01195
-3.77444
0.785503
-0.581925
-1.47846
1.55819
0.422223
-3.42864
-1.55893
2.02845
-2.07516
0.803731
-0.556368
-1.0876
1.48344
-0.0448379
1.64079
2.15198
-1.72819
-1.51976
1.89682
-1.06096
-0.516868
-0.500235
-0.134921
-0.918164
0.820697
-2.011
1.26648
-1.50433
1.38769
1.35054
-1.15443
-1.55105
-1.51962
1.01267
6.81303
-0.310511
0.108347
-0.0611399
-2.04463
-0.0861471
-1.99531
-1.96755
2.36524
0.923134
-1.76838
-1.23754
-0.637802
0.615871
-1.42679
5.88581
1.69466
5.64169
3.72372
5.2858
1.24407
-0.387399
1.13298
-3.50495
-0.310715
-2.15012
-0.512916
-0.858902
-0.332683
0.520429
-0.637746
-0.0948246
-1.40163
-0.489471
0.23065
0.174564
0.00689648
0.631742
2.82958
-1.98301
2.1164
-0.498053
1.20713
-2.20037
-0.329538
-5.55079
1.09439
-2.32008
-0.12117
4.54046
-1.64997
-2.08288
-0.0531354
-0.864882
-1.01081
-1.82139
3.47655
2.18835
3.51468
3.13116
1.22422
0.524319
5.08496
1.88304
1.97001
0.752479
-2.46611
-1.90131
-3.25909
-1.18213
-1.92155
0.289458
1.36259
0.168157
2.00845
3.03617
2.67351
0.230957
1.83146
0.508973
2.63641
-1.0679
-0.35826
3.41901
0.793086
-0.276223
-0.0845599
-3.43206
1.80055
1.22164
0.440854
-1.4646
-0.202431
0.928177
2.53034
2.19055
-1.0514
0.77549
-0.220085
0.750081
-1.42196
0.0316495
1.34684
1.37364
1.37845
-2.57493
-2.95173
-0.50796
-0.780834
-2.76211
1.0391
-3.76141
-1.06152
-0.10381
-1.81929
-0.947813
1.18248
-0.852253
5.34619
0.213257
0.623522
1.31351
2.8689
0.280237
-0.169758
-0.30187
0.927169
0.155654
1.80932
-1.82915
-0.812243
0.350828
2.22549
4.49204
-0.154172
0.675076
1.44848
0.374837
-0.195042
0.443634
-2.50591
0.464652
-0.840152
2.75674
0.319742
-2.69046
0.832566
0.904366
-0.593014
2.80439
-1.51842
1.1322
-0.747694
2.00879
-2.48269
-0.173806
1.50859
1.36395
-1.54767
5.15531
3.53776
3.0599
1.41322
1.74644
5.49091
2.05747
1.28401
3.4176
0.990315
-1.56216
0.461496
-0.903776
-0.757278
1.35863
-2.10659
4.03302
5.16888
5.0034
4.88921
3.58617
2.9516
5.29393
2.49381
1.48973
-2.25169
1.37463
1.47424
0.141609
0.325752
2.29445
1.37072
1.7118
3.89997
0.144511
0.241373
3.98188
4.15676
6.479
3.1915
4.92715
2.0122
0.421518
-0.588425
0.977433
1.38025
1.28397
-2.10481
-0.130581
1.26416
0.104302
1.95272
0.863721
2.83237
0.811391
1.27448
3.30886
1.24947
4.32351
0.712104
1.2155
2.56928
3.03184
1.73642
0.469771
1.5603
0.127749
-0.0709099
-3.694
-1.43793
-0.220036
0.80762
-1.28472
0.118693
-0.0650471
2.42571
3.2056
1.14882
1.91851
3.32501
1.30537
4.10943
2.0036
3.03099
1.34968
1.54429
-1.62578
2.12201
-2.23346
1.24935
-1.02056
2.58685
-3.4947
-2.1096
2.41731
-0.810525
-0.910279
0.465281
3.9438
1.6451
-1.33068
0.369335
1.63759
-0.560735
-1.19959
-0.958524
-1.39657
-1.69118
-1.07847
1.5322
-0.863635
-1.68059
1.90611
-0.461005
1.01345
2.70235
1.76601
2.6516
1.99113
1.34706
2.44536
-1.33614
0.474072
-1.14442
1.90072
-0.655026
-1.49546
2.20757
2.09895
1.80356
1.02666
0.149177
1.46546
1.47004
-2.83848
-2.68941
0.414448
1.08589
2.59569
-0.679326
2.12647
-0.563864
2.16018
0.81013
-0.0823127
1.31797
0.827328
1.20688
-0.511603
-1.66895
-2.5884
0.949561
1.61899
-1.96727
1.14508
2.86926
1.19052
3.61606
0.958394
1.3067
5.9048
6.45024
5.10494
2.68783
2.24118
1.18735
3.3764
2.59976
0.279852
-1.02163
3.89706
-1.56942
3.07411
0.9156
1.86591
0.784734
7.82253
8.08492
9.06007
8.46159
6.69895
1.44614
4.83226
-0.0224741
2.70124
0.536082
4.04322
-0.694608
4.12214
0.636867
-0.535904
0.97968
0.133627
1.11586
-0.170851
4.49704
0.759766
7.89714
0.479795
5.49708
2.00516
4.35831
6.69732
3.14313
-0.731463
1.19141
4.41277
2.74966
2.35201
1.80128
-0.854377
0.862832
2.1191
5.04729
3.59669
-0.0243427
4.81878
4.7523
4.02318
6.4142
3.53558
1.59597
1.68532
1.04493
1.92364
1.83676
2.84692
0.562417
-0.739451
-2.28126
2.2643
0.384526
1.65014
2.51293
1.6994
4.10953
5.98862
5.48761
4.2664
5.72489
2.46767
0.045272
3.26309
2.40085
3.75839
0.0206327
-0.994296
4.05066
1.06926
2.60351
-0.947816
1.63413
-0.224016
1.45328
2.49226
2.59156
1.83868
0.879315
3.15386
5.30072
6.4856
1.55012
3.80053
2.50115
0.598544
0.00540917
1.58355
1.14158
-2.51907
-0.208845
0.896205
0.0213165
0.517384
3.77595
-1.40384
0.203613
3.7275
4.1148
3.775
4.70857
0.0479804
1.99411
2.08334
1.75309
-0.860978
2.42004
1.97719
-2.47271
2.17709
1.15677
-1.67071
-1.33901
1.7681
-0.529465
1.45078
-0.332485
-1.1098
2.01669
4.27222
5.31113
0.0168862
1.27654
1.0737
0.297204
0.987024
-1.09599
-0.586028
0.972191
-1.5593
-0.0476477
0.35746
-4.59986
-2.83851
-0.791424
0.138345
0.146411
-1.48253
3.31834
1.71443
-1.62877
8.5622
8.54476
9.83685
2.97343
6.54992
3.9882
2.85065
1.63306
4.63501
4.12801
3.86522
4.24805
5.70858
5.62368
5.17173
6.02912
7.12077
8.28917
8.12448
11.3663
8.70372
3.97227
7.08645
3.67037
6.44065
3.44352
3.77779
6.68212
5.79282
4.67011
3.21767
-0.0510536
3.71073
5.13137
1.97237
3.99822
7.5867
6.46882
9.15917
8.5513
5.89975
4.01305
6.3465
6.73231
4.22999
1.77754
2.78221
0.439385
3.0589
5.14464
6.32554
1.43656
4.30957
2.65675
3.41319
8.90523
5.5473
5.74173
6.42052
7.0637
4.51547
7.92605
2.64913
3.84056
3.07574
2.76055
3.45105
1.00726
-1.53459
3.38586
3.17382
0.512101
3.04143
2.40586
5.40677
5.1828
2.91408
7.66652
5.17155
5.04338
5.87183
2.48388
2.22841
4.83152
4.64542
-0.822118
-0.657163
2.82515
1.44356
-1.27459
1.571
2.02022
4.31529
1.26525
3.1242
2.89058
2.82729
6.45039
5.97926
3.85703
2.38451
3.97396
3.42543
4.27897
-1.15406
-0.689264
2.93622
2.57064
-0.610003
-0.553205
3.02268
-0.463065
-1.79964
2.54525
3.05999
0.986214
4.3433
0.514977
3.96281
1.9576
2.21107
3.7889
1.93766
3.80588
-1.30762
1.71135
1.80981
2.59311
1.58162
-0.017759
-0.36639
0.961204
1.6519
2.33462
0.608272
1.02085
-0.964893
0.294049
2.85672
0.297697
0.45255
1.68965
-0.975843
0.68938
1.08208
-3.63229
1.35033
0.517566
2.00316
0.617413
-0.227043
0.732714
-0.0632975
1.16485
2.23796
2.73823
-0.988194
-0.173253
2.37885
-3.1836
11.6435
11.0885
9.23694
7.23547
7.14712
4.81779
2.64349
7.11764
8.05847
4.88248
5.10742
3.87281
5.54856
4.482
3.65826
5.94435
12.6799
12.9177
11.5362
12.3297
10.7584
1.00277
7.16388
-1.14708
6.08716
-0.0190182
2.54901
0.537572
6.92522
0.13535
1.09895
3.68381
0.244684
4.3049
0.180336
4.9804
0.32313
12.106
1.09165
11.4345
11.8312
6.6853
2.88794
4.62441
5.8572
7.17375
4.98268
2.89404
4.23127
6.897
4.29169
1.98631
1.74903
2.83121
3.69567
3.87495
6.65261
8.37832
10.4023
10.5471
6.52073
4.3653
6.02672
4.36845
3.6726
3.7799
6.30415
3.84419
6.25787
2.02102
3.3671
0.042303
3.73525
4.10411
6.51509
2.20809
3.49406
5.29389
8.07864
8.64438
3.19755
2.59254
3.97526
-0.174171
5.03629
-0.317086
1.66515
3.25165
3.26772
2.75848
2.52157
0.337211
5.21962
2.86119
5.10374
3.43712
6.79574
3.96342
7.94392
7.16268
5.95878
2.23616
2.2133
5.08207
3.99332
1.87691
0.152632
-0.404243
1.93064
5.46033
1.64628
1.31446
3.46347
3.00668
4.62652
3.75524
4.30751
1.00835
4.20501
3.66494
3.8103
0.257113
0.892812
1.21401
0.527295
1.16933
-0.688878
-0.334956
2.61105
0.757486
-0.340885
3.8045
2.87568
1.39108
0.79081
4.04581
2.8685
4.0933
0.206922
3.50183
3.60301
1.49724
1.65384
3.51374
-1.40816
-0.882696
-1.53843
1.73627
1.603
2.00608
0.975113
-1.08733
1.60579
1.74018
1.80816
1.9974
2.73711
1.23074
0.0404288
1.39589
9.76747
7.72757
11.9529
11.0026
10.8192
8.16253
4.67753
12.856
9.24104
7.49262
7.55346
8.79414
9.06782
6.57264
11.0179
11.5377
10.6733
11.947
12.864
15.7862
10.4153
11.9252
9.51251
9.66581
6.36806
10.9975
4.94565
9.33299
8.29738
9.40856
3.87683
7.22596
5.18619
7.22863
9.76792
6.6
11.0401
12.1579
11.8486
12.0611
10.0024
6.96613
9.07104
8.42269
4.75959
7.28249
3.50953
6.35914
4.20546
5.97068
5.84025
5.36101
3.82948
7.43354
9.76656
8.11259
6.57651
7.39805
11.097
10.8756
8.92702
5.17233
5.81146
4.6137
6.22561
5.53856
2.91568
3.88328
5.40706
3.72104
2.29309
5.87397
6.69273
4.16777
5.79509
7.4816
8.40129
9.03575
9.98015
7.02628
4.46922
3.91313
4.77736
7.86884
2.00157
3.32528
5.74141
2.69524
2.56653
0.712995
1.72258
6.29681
2.96206
4.10321
5.71814
5.86762
5.79694
4.89292
5.9571
4.39666
4.45811
5.6392
0.441789
3.34134
0.423807
2.42069
4.58343
2.53963
2.60885
0.98542
0.417526
3.35877
4.29387
1.50662
3.96087
1.45691
1.98016
3.90711
5.46301
5.59851
3.28751
1.01015
3.0594
1.38034
0.816392
0.846108
-0.557009
4.59985
1.49485
0.874239
3.35549
0.00414131
2.99906
0.105247
0.230503
1.50945
1.98786
3.01597
5.07315
3.09792
1.93896
3.29248
0.838394
2.13873
-2.05453
-0.6534
1.62136
1.33432
1.21457
0.595547
0.345227
-2.75522
2.10975
0.273483
1.3963
-0.711586
0.749782
1.49429
1.05431
0.83885
)
;

boundaryField
{
    hotSide
    {
        type            calculated;
        value           nonuniform List<scalar> 
400
(
5.24147
4.25678
3.17078
1.88011
0.61538
2.72617
-0.546435
-0.525924
-2.80057
-1.47742
-1.54586
0.00974763
-0.807649
2.86512
2.06395
6.24004
7.02583
9.72242
12.8459
11.0149
1.49855
2.44015
3.13841
-1.86178
-1.15215
2.20904
-2.64581
-1.84824
-1.76483
-0.631206
-1.98032
0.127781
0.668199
0.531243
7.87841
4.63547
7.58319
9.71592
12.3009
8.98416
4.68479
0.517726
1.32327
-1.14833
1.67914
-0.358013
1.397
-0.533774
-3.01138
-1.80076
-1.25478
1.40724
0.942568
3.09616
0.769228
4.17076
6.24992
11.019
10.4593
13.2186
4.76885
0.283948
2.47099
1.50787
-0.491512
-0.988529
-0.569387
-4.98349
-2.8853
-0.242291
-1.55979
-1.49782
0.427541
2.10747
1.20238
2.53709
3.84464
4.16631
8.46759
12.2772
4.31225
4.2245
2.0694
-0.60537
1.08515
-5.87018
-0.576835
-5.33088
-3.14101
-6.64491
-2.74839
-2.78726
-1.81173
-0.597575
1.0467
2.88281
3.40928
7.753
8.38845
12.102
5.67779
3.66711
0.947365
1.30355
-2.09866
0.208997
-2.2634
-4.08829
-1.53851
-5.13257
-2.13366
-4.6207
0.145612
-0.252422
-0.923997
6.6388
2.36581
5.20059