/*--------------------------------*- C++ -*----------------------------------*\
| =========                 |                                                 |
| \\      /  F ield         | OpenFOAM: The Open Source CFD Toolbox           |
|  \\    /   O peration     | Version:  2212                                  |
|   \\  /    A nd           | Website:  www.openfoam.com                      |
|    \\/     M anipulation  |                                                 |
\*---------------------------------------------------------------------------*/
FoamFile
{
    version     2.0;
    format      ascii;
    arch        "LSB;label=32;scalar=64";
    class       volScalarField;
    location    "0";
    object      relativeErrorField;
}
// * * * * * * * * * * * * * * * * * * * * * * * * * * * * * * * * * * * * * //

dimensions      [0 0 0 1 0 0 0];

internalField   nonuniform List<scalar> 
3200
(
0.0127967
0.00182643
0.0109689
0.0110954
0.00965768
0.0134758
0.010869
0.0193295
0.0155738
0.00828317
0.00501507
0.0208
0.0144176
0.00881047
0.00969317
0.00618483
0.00533537
0.0158938
0.00350204
0.0117317
0.014283
0.00480706
0.0145942
0.0125469
0.00360199
0.00771708
0.0157406
0.0147547
0.00704624
0.0122085
0.00858136
0.0158941
0.00816884
0.0100931
0.0138808
0.012949
0.0122221
0.0168131
0.00385093
0.0184858
0.00887508
0.00249773
0.00465655
0.00373338
0.00924318
0.00046336
0.00221205
0.0126011
0.0033638
0.00444707
0.00782099
0.0134676
0.00613167
0.008554
0.01032
0.00715757
0.00722041
0.00147604
0.00886802
0.0138443
0.0156878
0.00854366
0.00170856
0.000346754
0.0120315
0.00257795
0.00406338
0.00490717
5.06513e-06
0.0108242
0.00874921
0.0098412
0.00454197
0.00694942
0.00503107
0.00998081
0.00329305
0.00942041
0.0199857
0.0146378
0.00327791
0.00447352
0.0040461
0.00709594
0.000708841
0.00398413
0.00658427
0.00223758
0.00632253
0.00495809
0.00592621
0.00978384
0.0109412
0.0062636
0.00984355
0.00242731
0.00332886
0.00812294
0.0130832
0.00749797
0.00468791
0.00689689
0.00219207
0.00322707
0.00170837
0.00437372
0.000452867
0.00478923
0.00564248
0.00620622
0.00753546
0.00102596
0.00824934
0.00296563
0.00278041
0.00120127
0.00550392
0.00552798
0.00259989
0.00268255
0.00318475
0.00777884
0.00549787
0.00370582
0.00469784
0.00375334
0.000806087
0.0021534
0.00452235
0.00129277
0.000197696
0.0159335
0.00603446
0.00398249
0.00218363
0.00433921
0.00419724
6.14163e-05
0.000233065
0.00263411
0.00177813
0.0110807
0.00115388
0.000886826
0.00386414
0.00189444
0.00825704
0.0123919
0.00829819
0.00256531
0.00482071
0.00594127
0.00122581
0.00695404
0.0055272
0.00242853
0.00212174
0.00148705
0.00741655
0.0015127
0.00992356
0.00455438
0.00111172
0.00187833
0.0093992
0.00768137
0.00402832
0.00434381
0.00850095
0.00463999
0.00662167
0.0116143
0.00809889
0.00881017
0.0129857
0.00812356
0.00677266
0.00634002
0.00258934
0.0161178
0.00460492
0.00198092
0.00705473
0.00163885
0.00363518
0.000872125
0.00443582
0.00212407
0.0164695
0.00237079
0.00317041
0.00668946
0.00342384
0.00785626
0.00202834
0.000918558
0.00202228
0.00502802
0.00210877
0.00856096
0.0121716
0.00516221
0.000458346
0.00220635
0.00230179
0.011847
0.00640813
0.0074638
0.00736769
0.00545299
0.00214187
0.00309542
0.00155095
0.0018299
0.00266506
0.00355828
0.000217815
0.00131734
0.00992469
0.010367
0.0151251
0.000506865
0.00412655
0.00532967
0.0111438
0.00940813
0.000854834
0.0025933
0.000505838
0.00531514
0.00506713
0.00325346
0.00400141
0.00977598
0.00875789
0.00622151
7.2557e-05
0.00966432
0.0080071
0.000257317
0.0080309
0.00162499
0.000516906
0.00593983
0.00494666
0.00600562
0.00835998
0.00458279
0.00769103
0.00427987
7.41317e-05
0.00228099
0.014431
0.00240567
0.00515293
0.00113537
0.0067472
0.00269564
0.00172491
0.010164
0.00165549
0.00352991
0.00561799
0.00465207
0.00348866
0.00113862
0.00140963
0.00130739
0.00688817
0.00395555
0.00752494
0.00506679
0.00602843
0.00523205
0.0015714
0.00551743
0.00539043
0.00327757
0.00639267
0.00795438
0.00827956
0.00464609
0.00455946
0.00443215
0.012031
0.00379283
0.00547391
0.00730227
0.00308904
0.00565941
0.0118515
0.000336952
0.00675144
0.00112651
0.000137265
0.00292965
0.00285776
0.00396135
0.00418296
0.00258804
0.00256441
0.00459335
0.00582313
0.00162786
0.00459365
0.000152577
0.00631685
0.00239483
0.00367099
0.00263908
0.000251991
0.00100502
0.00269887
0.0118972
0.0154355
0.0115444
0.00709403
0.00642781
0.00427531
0.0103856
0.00675056
0.00656666
0.00121381
0.00443581
0.00317566
0.00015044
0.00511681
0.00303917
0.0111572
0.00810606
0.00340327
0.0014202
0.00334794
0.000127654
0.000447494
0.00782411
0.00254901
0.00819113
0.0152322
0.00198674
0.00259895
0.00354326
0.000906099
0.00340314
0.0112977
0.00570053
0.00439698
0.00176781
0.000371868
0.00149949
0.00215693
0.0089381
0.000685831
0.00258146
0.00146364
0.00394588
0.00517638
0.00204278
0.0180777
0.0153132
0.0040347
0.00538267
5.12089e-05
0.0037397
0.00834256
0.000178808
0.0131248
0.00787329
0.0139074
0.00551613
0.0131264
0.00173014
0.0021532
0.00663813
0.00776345
0.00102718
0.00968731
0.0101138
0.00132279
0.0116545
1.66815e-05
0.000425247
0.00198443
0.00797755
0.000822542
0.00840432
0.00440994
0.00286292
0.000292673
0.000760592
0.000167805
0.000181461
0.00238297
0.000471538
0.00261763
0.00434711
0.000116686
0.014869
0.00169565
0.0043891
0.00505917
0.00554684
0.00493621
0.00453548
0.00373454
0.00365454
0.00477523
0.00143781
0.000965679
0.00414328
0.00313006
0.00225336
0.00126879
0.00598435
0.000709998
0.0107053
0.00363821
0.00311056
0.00366197
0.00308913
0.0104563
0.00616362
0.00343404
0.00342309
0.00405772
0.00318929
0.000156228
0.00321814
0.000805068
0.00508957
0.0060234
0.002471
0.00227495
0.005826
0.00332362
0.00275556
0.000352556
0.00579371
0.00254216
0.00842692
0.0122028
0.005158
0.000427861
0.00108923
0.00285098
0.00973491
0.00496155
0.00973418
0.00770377
0.00020246
0.000910471
0.0115304
0.0180141
0.00616775
0.00107383
0.00223802
0.000269415
0.00294499
0.00244117
0.0144914
0.0058053
0.00162776
0.00135812
0.00800217
0.0060467
0.000761552
0.00222121
0.00244282
0.00611881
0.00397957
0.00366821
0.0108944
0.00223776
0.00779568
0.00516187
0.00387884
0.000333304
0.00311904
0.00288117
0.0051817
0.00298289
0.00793688
0.00594416
0.00164301
0.00453585
0.000870812
0.00592516
0.0141319
0.000648047
0.00180065
0.000138114
0.0119356
0.00306327
0.00373156
0.00331525
0.00558307
0.00142201
0.000520184
0.00102113
0.00640116
0.00658004
0.00424104
0.00467417
0.00301865
0.00381543
0.000602253
0.00661561
0.00223317
0.00329824
6.06203e-05
0.000802176
0.00322434
0.00139405
0.00252451
0.00122051
0.00318456
5.50327e-05
0.00693518
0.0018587
0.00461465
0.00264901
0.0018657
0.000997274
0.00560765
0.00025804
0.00154529
0.000726332
0.000723953
0.00255475
0.00160451
0.00444552
0.000925686
0.00364613
0.00141745
0.000117558
0.00329066
0.0152559
0.00798672
0.0112945
0.00779835
0.000732201
0.00576772
0.00267991
0.0037239
0.0092441
0.000323101
0.00403322
0.00160033
0.00345579
0.00185347
0.00327766
0.00208828
0.00297258
0.00220065
0.00485014
0.00109904
0.00519198
0.0134758
0.00525466
0.00444151
4.36071e-05
0.00249769
0.0027714
0.0054282
9.20924e-06
0.000305445
0.00509361
0.00124374
0.00239452
0.00740587
0.00296918
0.00167009
0.00246389
0.00123618
0.000330424
0.0031082
0.000423393
0.0047588
0.00125913
0.00636174
0.000839639
0.00846057
0.0115859
0.00193782
0.0106469
0.00206363
0.00040969
0.00117327
0.00745831
0.00794421
0.00529703
0.00485193
0.00906969
0.00356607
0.00273479
0.00718714
0.00152836
0.00130096
0.00516077
0.0133308
0.00143749
0.00537483
0.00573151
0.00133793
0.00392066
0.00329223
0.00578458
0.00146761
0.00197169
0.00498447
0.00681296
0.00191271
0.002412
0.00336866
0.00308427
0.00273658
0.000105824
0.00132764
0.00688648
0.00217089
0.00103052
0.00363366
0.000325078
0.00441892
0.00651089
0.0067177
0.00825756
0.00577831
0.00360876
0.00346903
0.000649187
0.00162006
0.00776108
0.00825529
0.0120887
0.000251215
0.00580708
0.00389871
0.00254162
0.000497378
0.000704477
0.00588932
0.00221099
0.00413115
0.000323264
0.0088986
0.00420202
0.00387166
0.00211069
0.00517235
0.00772151
0.00130594
0.00663821
0.00946024
0.00730538
0.00294162
0.012658
0.00315197
0.00617847
0.00335676
0.00271325
0.00206268
0.00887355
0.00595533
0.00454444
0.00362462
0.00337852
0.00824344
0.00512531
0.0051629
0.00541695
4.20401e-05
0.00668986
0.00137038
0.000819967
0.00100828
0.000541644
0.000857846
0.00745968
0.00463778
0.000556414
0.00628369
0.00175968
0.00335175
0.000972475
0.00111616
0.00784439
0.00132037
0.00532771
0.00733229
0.0107474
0.000904575
0.00593209
0.000251579
0.00455381
0.00418818
0.002348
0.0059596
0.0101152
0.00277073
0.00575716
0.00107474
0.00433469
0.00665263
0.00824376
0.00078801
0.00241439
0.000806123
0.00727858
0.000907185
0.00496278
0.0127009
0.00585653
0.00179035
0.00193488
0.00381322
0.00207143
0.00191173
0.00404834
0.0102433
0.00110857
0.00547294
0.0127624
0.00116587
0.00297632
0.000474983
0.00233368
0.00419557
0.00475147
0.00113453
0.0143787
0.00352758
0.000422098
0.00494221
0.0013496
0.00217791
0.00595885
0.00439989
0.00814224
0.00501892
0.00609997
0.009704
0.00164519
0.00319722
0.00589478
0.00700832
0.00275602
0.00379531
0.00458411
0.0124696
0.00581598
0.000154494
0.00345741
0.00584538
0.00700393
0.00192458
0.0113331
0.000342126
0.000665223
0.00479121
0.00235329
0.000245294
0.00110856
0.0100657
0.00681624
0.00536203
0.0132804
0.00302942
0.00579185
0.00309319
0.0153209
0.000403817
0.00115641
0.00901916
0.00146115
0.00789924
0.00115375
0.0032932
0.00704306
1.2746e-05
0.000367053
0.00260257
0.0151131
0.0115638
0.00264424
0.00083343
0.00314177
0.00276044
0.00569398
1.03043e-06
0.00675075
0.00111512
0.00642565
0.00266355
0.0142561
0.00755449
0.00874675
0.00707012
0.000673718
0.00912126
0.00536813
0.00379652
0.00368027
0.00556741
0.0196473
0.00227924
0.011143
0.0184193
0.01052
0.0103445
0.00544079
0.0087428
0.00465612
0.00450071
0.00661376
0.00582035
0.00478772
0.00447731
0.00254418
0.000716232
0.0057944
0.00197051
0.00170793
0.00730545
0.0010967
0.000230153
0.0045618
0.000524662
0.0145352
0.0020235
0.00132843
0.00205239
0.000739074
0.00520593
0.00109675
0.00228354
0.000919683
0.00174227
0.00101557
0.0071379
0.00317051
0.00179822
0.00817086
0.00505295
0.00179227
0.00234214
0.00550073
0.000245025
0.0177224
0.00502574
0.0101252
3.29887e-06
0.00272824
0.000282249
0.0027441
0.0120546
0.00466264
0.0015928
0.0020206
0.00151791
0.00026985
0.00145442
0.000793672
0.00311381
0.00431816
0.00218854
0.00785694
0.00426015
0.000761984
0.00144612
0.00422577
0.00238848
0.0085604
0.00491179
0.000996413
0.000825672
0.000448003
0.000346215
0.00223362
4.26385e-05
0.0033349
0.00152926
0.00448448
0.00061324
0.0113051
0.0115155
0.000802864
0.00685981
0.00209322
0.00129286
0.000671455
0.012071
0.00545477
0.00571899
0.0104681
0.00701865
0.00194047
0.0041969
0.00277418
0.00151228
0.00657725
0.00475996
0.000948451
0.00162678
4.11111e-05
0.00637916
0.00559738
0.00568925
0.00502606
0.00570729
0.00881578
0.00585001
0.00496571
0.00365753
0.0014445
0.00190595
0.00205433
0.000332873
0.00214515
0.00473254
0.00121365
0.00176397
0.00561464
0.0141081
0.000188755
0.00250528
0.00249331
0.00254487
0.00588217
0.00862426
0.00809455
0.00723432
0.00564129
0.00207388
0.00329051
0.00380767
0.000986993
0.00318893
0.00517871
0.00371947
0.00151957
0.012675
0.0113856
0.00560494
0.00863903
0.00762451
0.00291982
0.003108
0.00248701
0.00047619
0.000140501
0.00163586
5.64026e-05
0.00203609
0.0024643
0.00180208
0.00184087
0.0056144
0.000205039
0.00175877
0.00410529
0.0102094
0.00134559
0.00437214
0.00446339
0.00935085
0.0089015
0.00119574
0.0110896
0.00821217
0.0248603
0.0122101
0.00249929
0.0012844
0.00476134
0.014558
0.0130047
0.00892101
0.00556359
0.00294711
0.00193275
0.00622206
0.00422155
0.00222813
0.00441427
0.00575302
0.00699664
0.0104332
0.00711177
0.00440435
0.012545
0.0104816
0.00873093
0.0119572
0.00407915
0.00350917
0.00647112
0.00278702
0.0038942
0.000548674
0.00372272
0.000978955
0.00596615
0.00215619
0.00928479
0.00152206
0.00576756
0.0081998
0.0110163
0.00784852
0.00481167
0.00840923
0.0061702
0.0066979
0.00260836
0.00833498
0.0047199
0.0058322
0.00508089
0.00629904
0.00660809
0.000451967
0.00240495
0.000956704
0.0127327
0.00962781
0.00750859
0.00657739
0.00356424
0.00413427
0.0101677
0.000840936
0.00335066
0.00705292
0.0013488
0.00578854
0.000885463
0.00242344
0.006671
0.00181992
0.00697685
0.00686203
0.00135584
0.00193296
0.00473887
2.68703e-05
0.00355737
0.00456592
0.004847
0.00874737
0.00444008
0.0076607
0.0121182
0.00154904
0.00584256
0.00246601
0.00395724
0.00277476
0.00424192
0.0113258
0.00380238
0.00456785
0.00979114
0.0028896
0.00936935
0.00129708
0.0147001
0.0103072
0.00586531
0.00429419
0.0120236
0.00134299
0.0072063
0.00188382
0.0029386
0.00174331
0.00313309
0.00247243
0.00457398
0.00237772
0.000345163
0.0044555
0.000679559
0.00267372
0.00842933
0.00102181
0.00152161
0.00473127
0.00250192
0.00097754
0.00208371
0.00175977
0.000780709
0.00549685
0.0014334
0.00174463
0.00208496
0.00307376
0.00323024
0.000894611
0.00282869
0.00178875
0.00847699
0.00603226
0.00321243
0.00349627
0.00509672
0.00750417
0.00404803
0.000940002
0.00335803
0.00347416
0.00670219
0.0054257
0.00450184
0.000207805
0.00561026
0.00589328
0.000603843
0.00129501
0.00407095
0.00792422
0.00421781
0.0170054
0.018042
0.0145422
0.012004
0.00845288
0.00308505
0.0113962
0.0126434
0.00607835
0.00628364
0.0140862
0.0123901
0.0108374
0.00980558
0.00402864
0.00651202
0.00472969
0.00264905
0.00318967
0.00551854
0.00433864
0.0105743
0.00136533
0.0138942
0.00102434
0.00506987
0.000730386
0.00127796
0.0099886
0.00111835
0.0175683
0.000687229
0.0127346
0.000255084
0.00716536
0.000528468
0.000580019
0.00226992
0.00105036
0.0174656
0.0120263
0.00441511
0.00690348
0.00853872
0.00460081
0.0131671
0.00759731
0.00938922
0.0109279
0.00808778
0.00278302
0.0085931
0.00611352
0.000404424
0.00900611
0.000770819
0.00680039
0.0121899
0.00806968
0.00810902
0.00332308
0.00225132
0.0108543
0.0015703
0.0105743
0.00105088
0.00555774
0.00181367
0.00328942
0.00923224
0.00168011
0.00806539
0.0028252
0.00516292
0.000225517
0.00928804
0.00314493
0.00184207
0.0018944
0.0101719
0.0094949
0.00279366
0.00541794
0.000205359
0.0021472
1.20747e-06
0.00448713
0.00166717
0.00539531
0.0113428
0.0103119
0.0111534
0.00689548
0.0162369
0.00281505
0.00218543
0.00378797
0.000686254
0.00513453
0.00157551
0.00761768
0.000477695
0.000185848
0.00129457
0.00320665
0.00328179
0.00152942
0.00108287
0.00225615
3.47949e-05
0.00750207
0.00814641
0.00965385
0.00514575
0.00305937
0.00222359
0.00455659
2.66421e-05
0.00136625
0.000120763
0.00214988
0.00503837
0.00210726
0.00683443
0.00109119
0.00703162
0.00561273
0.00436212
0.00830685
0.00377842
0.00374014
0.00455448
0.00416126
0.0122694
0.00650174
0.00114902
0.00994441
0.000596986
0.00292306
0.000997455
0.000414995
0.00530527
0.000288273
0.00171976
0.000746526
0.00224921
0.00164778
0.00473243
0.00186938
0.0024855
0.00662638
0.00296159
0.00116265
0.00336768
0.00660246
0.00581491
0.00287516
0.0106074
0.00769763
0.0113093
0.0110004
0.0117785
0.00727305
0.0126492
0.0172801
0.0151623
0.0084641
0.0104114
0.0104678
0.0115398
0.0107831
0.00907369
0.0106913
0.0085042
0.00494703
0.0025792
0.00395748
0.00368551
0.0134754
0.00353706
0.010983
0.0132622
0.00622672
0.0148176
0.011256
0.00397367
0.000512531
0.0163441
0.00526968
0.00408123
0.0101948
0.0108597
0.0024958
0.00110349
0.0118308
0.00487725
0.00752591
0.00601668
0.00384746
0.00555777
0.0171084
0.00344985
0.00480657
0.0136946
0.00138298
0.00871127
0.00110076
0.00752959
0.00723069
0.00357083
0.0102199
0.00968987
0.00526245
0.0132591
0.00566512
0.00779165
0.00172546
0.00557256
0.00726404
0.00879729
0.00262281
0.00459187
0.00218244
0.00191329
0.00368029
0.0152484
0.011818
0.00281317
0.0021086
0.00770917
0.00142248
0.00334416
0.00276456
0.00374464
0.00671544
0.000842074
0.00306717
0.000526821
0.00457159
0.00722126
0.00198555
0.00173008
0.0065803
0.0099391
0.0124044
0.00788511
0.00584751
0.00336736
0.00151414
0.0138605
0.00994803
0.00681828
0.00252268
0.00649314
0.000392338
0.00345812
0.00532225
0.0043417
0.00117832
0.00265314
0.00842266
0.00376922
0.00212441
0.0121991
0.00361853
0.0089757
0.00574094
0.00372623
0.00263806
0.003529
0.00951276
0.00694107
0.000143258
0.00484299
0.00444608
0.0101054
0.0071458
0.00285402
0.00696872
0.000386312
0.000544748
0.0080555
0.00233583
0.00738187
0.00486451
0.00134052
0.00484851
0.00099139
0.00805312
0.00392354
0.00855663
0.000531107
0.00311219
0.00282173
0.000627025
7.17123e-05
0.00488156
0.0016327
0.0145909
0.00273223
0.00147113
0.000109324
0.00738585
0.00705582
0.0026136
0.00250182
0.001965
0.00790201
0.0237291
0.000976857
0.00174737
0.000632578
0.00806625
0.0057934
0.00118569
0.000594278
0.00501757
0.00684417
0.00448662
0.00786579
0.00349356
0.0216988
0.017448
0.00546221
0.0142101
0.0216477
0.0140901
0.0167358
0.0214705
0.0125944
0.0210342
0.0100847
0.0153334
0.0101553
0.0122515
0.000508432
0.00594908
0.00178385
0.00193125
0.00696532
0.00596019
0.011051
0.000607187
0.0144029
0.000896745
0.0151523
0.000798
0.000232839
0.0134747
0.00206964
0.011437
0.00097064
0.0137593
0.00105849
0.0125232
0.00117736
0.000750361
0.00505675
0.00579965
0.00949388
0.00931044
0.0112896
0.000423658
0.0143152
0.0158316
0.00549813
0.0127255
0.000122419
0.0074233
0.0140911
0.0137209
0.00422946
0.0222083
0.00625207
0.00234892
0.00587482
9.67865e-05
0.00817236
0.0102144
0.00157322
0.0102928
0.00268308
0.0115512
0.00175066
0.00812454
0.00228808
0.0108529
0.0123015
0.00100256
0.0112882
0.000583226
0.0150019
0.000715281
0.00822926
0.00350638
0.00121718
0.00216873
0.00479696
0.00314834
0.000537787
0.0111697
0.00194167
0.00226224
0.00225717
0.00443095
0.00164987
0.0145096
0.00211025
0.0117206
0.0040379
0.00294285
0.00209232
0.00631668
0.00709316
0.00631589
0.00631323
0.00590702
0.0026832
0.00368436
0.00512506
0.00256778
0.000953525
0.00908952
0.0118292
0.00944588
0.00490261
0.00307898
0.00833319
0.00198383
0.0037848
0.00853409
0.00960182
0.00431615
0.000687621
0.00835729
0.000868492
0.00344587
0.000802767
0.00664518
0.00667734
0.00209645
0.000686641
0.00530416
0.00607303
0.00844195
0.00072264
0.00178833
0.000184217
0.0021883
0.00409216
0.00187757
0.00536235
0.00347565
0.000536312
0.00801961
0.00212545
0.00236381
0.00681058
0.000340279
0.00830145
0.00400224
0.00212833
0.00227333
0.00731542
0.00122933
0.00065701
0.00904353
0.0113257
0.00273841
0.00162067
0.00104668
0.00481673
0.00117894
0.0086625
0.000748415
0.00973794
0.00305877
0.00706375
0.00834177
0.00633488
0.00724611
0.0106484
0.00895618
0.0108946
0.0123895
0.0126837
0.0101069
0.015344
0.0124334
0.0194841
0.0109199
0.00966383
0.00587085
0.000179827
0.00604675
0.00707629
0.00813887
0.00750209
0.00647481
0.00634452
0.0028969
0.0112341
0.00169688
0.00527926
0.000664943
0.0127893
0.00181685
0.00212628
0.00805552
0.00244871
0.017829
0.000295978
0.0138034
0.000766893
0.00400798
0.00024618
0.00228093
0.00999423
0.0101599
0.00443281
0.0100864
0.00843313
0.00105768
0.00167331
0.00393596
0.0118189
0.00610172
0.0111897
0.00585964
0.0137588
0.00364374
0.000122073
0.00495357
0.00589979
0.000328085
0.000677587
0.0124901
0.0138026
0.00178791
0.00695368
0.00451166
0.010817
0.00960913
0.00934284
0.000350153
0.00790687
0.0193097
0.00163066
0.00801467
0.00515711
0.0186734
0.0117955
0.00477143
0.00662652
0.00497916
0.00511356
0.00915318
0.0041883
0.0124441
0.00985999
0.00419091
0.0026651
0.00222826
0.00622283
0.0102365
0.000222884
0.0158298
0.00710253
0.00187856
0.0174849
0.00120782
0.00804233
0.000720843
0.000724161
0.00179362
0.00762588
0.00446488
0.00364185
0.00498939
0.0196611
0.00548035
0.0106462
0.0127275
0.0126693
0.00606115
0.00589671
0.00370671
0.00122443
0.00869426
0.00288879
0.00718224
0.00941526
0.0105223
0.00235921
0.00766024
0.0032943
0.00101442
0.00366685
0.0136355
0.00181023
0.00750384
0.00010632
0.00531088
0.00637884
0.000627727
0.00587237
0.00157718
0.00371883
0.00718818
0.00500627
0.00759121
0.00918358
0.00125672
0.0077954
0.000728594
0.00873084
0.0120076
0.0040743
0.00382888
0.00810439
0.00176511
0.00067829
0.00598232
0.00306694
0.00408818
0.00418426
0.00269967
0.00529239
0.00279749
0.000779431
0.00397206
0.000541268
0.00977125
0.00164457
0.0039259
0.00722024
0.0064721
0.00270251
0.00241741
0.00113617
0.00708837
0.0107542
0.0159362
0.00256409
0.00936142
0.0132372
0.00968971
0.00527365
0.00353618
0.0172012
0.0104656
0.00731936
0.00249831
0.00691618
0.00130227
0.000857735
0.0010003
1.28085e-05
0.00331606
0.0104327
0.0144161
0.00388602
0.0140541
0.0187471
0.00478844
0.00681166
0.00494147
0.00676113
0.0101581
0.00453293
0.0126422
0.000854482
0.0023827
0.00366875
0.015926
0.000839669
0.00138211
0.00684563
0.00653421
0.0016252
0.0132549
0.00348798
0.00241022
0.00881739
0.0127128
0.00779255
0.0144827
0.0130462
0.00462136
0.00456174
0.00700218
0.0158778
0.000330044
0.00661553
0.00916662
0.00851577
0.00984956
0.00280491
0.00398214
4.35711e-05
0.00110782
0.00668379
0.00746711
0.00849745
0.0115593
0.0148453
0.000817623
0.00591485
0.0195798
0.00146505
0.00591819
0.00300526
0.000415127
0.00143182
0.000366298
0.000410184
0.00509749
0.00188662
0.00837518
0.000345853
0.0027293
0.00287294
0.00418989
0.011525
0.00839818
0.00324893
0.012414
0.0156745
0.00501776
0.00994505
0.0118912
0.0137881
0.00615456
0.00525294
0.00115531
0.00757371
0.00540188
0.00412109
0.00360935
0.00705473
0.00584611
0.00588218
0.00112231
0.0062154
0.0019742
0.0109325
0.0115689
0.00173215
0.00764697
0.00307405
0.00332359
0.0115215
0.00452727
0.00656331
0.00324461
0.000990166
0.00656888
0.00245966
0.00266805
0.00598502
0.00988578
0.0011307
0.00658481
0.00178263
0.00803536
0.0086581
0.00632183
0.0105078
0.00845301
0.00485465
0.0040318
0.000520291
0.00650512
0.0104581
0.00215281
0.00420664
0.00437162
0.00123129
0.00480129
0.0111775
0.00892535
0.00136281
0.00825056
0.00321597
0.00358902
0.00707172
0.00109224
0.00281704
0.00651821
0.00414722
0.00388549
0.00260381
0.0123794
0.00404111
0.000926124
0.00984256
0.00516967
0.00505188
0.000956204
0.000234421
0.00172303
0.00802635
0.00259721
0.0199357
0.0102742
0.00708879
0.0118966
0.00564972
0.00899368
0.0125646
0.00303656
0.00591703
0.0042782
0.00802169
0.000697188
0.00303116
0.00494504
0.00184685
0.000698923
0.00338615
0.00133112
0.00123377
0.00146205
0.0188998
0.000376337
0.014189
0.00310598
0.00260155
0.00789404
0.00119049
0.010535
0.000763576
0.00718156
0.00266962
0.00461285
0.000448729
0.00629269
0.00297935
0.00934903
0.00489471
0.00969587
0.0124808
0.00313488
0.000584216
0.00991636
0.00761784
0.0103256
0.0102743
0.0104256
0.00732392
0.00233016
0.00219078
0.00513598
0.0039645
0.00198563
0.00807898
0.00371696
0.00161367
0.00510189
0.0103057
0.0118219
0.00624178
0.0118766
0.00611966
0.00962743
0.00354012
0.00101997
0.00308837
0.000517437
0.00484487
0.00801711
0.00460549
0.00307756
0.00915336
0.0010644
0.00806016
0.00294257
0.00702978
0.0012282
0.00551136
0.00993823
0.000867828
0.00127785
0.0043149
0.00108904
0.00842242
0.00159527
0.000715479
0.00634775
0.00304975
0.00344854
0.00359727
0.00409143
0.00511103
0.00479357
0.000976215
0.000495658
0.000839063
0.00394586
0.00116255
0.00239087
0.00763168
0.00410445
0.00406047
0.0135574
0.00992061
0.00249856
0.00369865
0.00271023
0.00380826
0.00812308
0.00457076
0.00364874
0.000985953
0.00722524
0.00371753
0.00566012
0.00275761
0.00659599
0.000422029
0.00103214
0.00920434
0.00481886
0.00729129
0.00128863
0.00773786
0.000142657
0.0023354
0.00489316
0.00198054
0.00261861
0.0027741
0.0015905
0.00119779
0.00712569
0.00431872
0.00674927
0.00133229
0.000258677
0.00635622
0.00289585
0.010458
0.0137175
0.000870573
0.00927131
0.00173953
0.00735927
0.00515473
0.00824504
0.0141012
0.00475259
0.00375643
0.00567415
0.00511907
0.000299201
0.00382598
0.00474812
0.00514451
0.00140654
0.00569298
0.0028936
0.00466891
0.00374582
0.00518419
0.000936451
0.01509
0.00067078
0.00893225
0.011221
0.00866661
0.00104085
0.00258616
0.00562672
0.00266046
0.00412701
0.00676973
0.00238637
0.00241187
0.0133952
0.00569534
0.000545735
0.00725994
0.00835998
0.0100658
0.00429327
0.00595221
0.00937428
0.00691007
0.0126456
0.0102957
0.00356581
0.00738504
0.00549792
0.00792321
0.0108455
0.0107436
0.00222635
0.0142077
0.00798271
0.00424702
0.00308379
0.00627345
0.00618416
0.0044376
0.011337
0.00871065
0.00478312
0.009171
0.00603774
0.000922425
0.0116473
0.00393842
0.00206657
0.000139352
0.00897115
0.00270346
0.00703512
0.00501214
0.00337622
0.00748157
0.00275889
0.00110548
0.00434614
0.00530076
0.00825664
0.00169393
0.00612451
0.00117627
0.00963306
0.00149541
0.0088043
0.000216431
0.00589695
0.00134046
0.00853162
0.00585536
0.00158506
0.0037095
0.00662933
0.00483
0.00684459
0.00118361
0.00462255
0.00449116
0.00114031
0.00728516
0.00681213
0.00623777
0.00752029
0.00524138
0.0031213
0.012395
0.00148392
0.00423193
0.00370214
0.00397096
0.00114117
0.0112404
0.00483752
0.00673382
0.0010078
0.0149054
0.00370665
0.00372686
0.0120006
0.00219534
0.00310194
0.00155935
0.0049831
0.00620151
0.00157374
0.00248378
0.0109714
0.00692939
0.00177958
0.00858805
0.00955331
0.00476624
0.00438327
0.00112301
0.00223285
0.000190118
0.0160561
0.0120895
0.0025156
0.00186344
0.00473407
0.00498938
0.00135205
0.0109803
0.00499324
0.00649828
0.00664928
0.0025759
0.00178352
0.0034872
0.00475717
0.000147509
0.00539761
0.00707872
0.00568428
0.00499834
0.006238
0.00348892
0.00169962
0.00164487
0.000443638
0.00301903
0.0026986
0.00661276
0.00416477
0.00494722
0.00456399
0.00444214
0.00379737
0.00510238
0.00499927
0.00280635
0.0188673
0.000859163
0.000299525
0.000168876
0.00564303
0.000237595
0.00550001
0.00542136
0.00651582
0.00254307
0.00487257
0.00341124
0.00175907
0.00169976
0.00394097
0.0162713
0.00468901
0.0156235
0.0103194
0.0149801
0.00352359
0.0010964
0.00320402
0.00990431
0.000877401
0.00606782
0.00144677
0.00242184
0.00093789
0.00146718
0.00179824
0.000267469
0.0039555
0.00138217
0.000651773
0.000493657
1.95182e-05
0.00178928
0.0080191
0.00575098
0.00613466
0.00144273
0.0034944
0.00636542
0.000952733
0.0160394
0.00316096
0.00669911
0.000349819
0.0131083
0.0047642
0.00601605
0.000153539
0.00250048
0.00292417
0.00527255
0.0100707
0.00634322
0.010193
0.00929881
0.00363411
0.0015556
0.0150779
0.00558052
0.00583526
0.00222789
0.00729885
0.0056258
0.00964208
0.00349736
0.00568569
0.000856696
0.00403426
0.000498089
0.00595218
0.00900286
0.00793202
0.000685596
0.00543902
0.00154888
0.00802027
0.00324729
0.00108891
0.0103873
0.00240849
0.000838549
0.00025663
0.0104138
0.0054628
0.0037064
0.00133767
0.00444489
0.000614535
0.00281874
0.0076874
0.00665802
0.00319709
0.00235914
0.000669748
0.00234062
0.00443614
9.87067e-05
0.00419905
0.00428123
0.00429493
0.0080208
0.00919256
0.0015817
0.00243119
0.00860007
0.00323558
0.0117141
0.00330658
0.000323449
0.00567019
0.00295501
0.00368784
0.0026588
0.0166827
0.000682863
0.00199626
0.00420449
0.00918135
0.000896665
0.00054307
0.000965549
0.00296522
0.000497758
0.00578566
0.00584906
0.00259743
0.001122
0.00711836
0.0143704
0.0004933
0.00216045
0.00463654
0.00120007
0.000624537
0.00145873
0.00823932
0.00152765
0.00276201
0.00906221
0.00105102
0.00884326
0.00273643
0.00297233
0.00194899
0.00921686
0.00499051
0.00372127
0.0024576
0.00660306
0.00816133
0.000571391
0.00495986
0.00448463
0.00508893
0.0141891
0.00973087
0.00840991
0.00388103
0.00479244
0.015057
0.00563843
0.00351704
0.00935785
0.00271113
0.00427662
0.00126364
0.00247553
0.00207529
0.00372557
0.00578073
0.0110756
0.0142063
0.0137622
0.0134567
0.0101018
0.00830963
0.0148938
0.00701104
0.00418531
0.006322
0.00385739
0.00413506
0.000397072
0.000913268
0.00643264
0.00384352
0.0048014
0.0109438
0.000405739
0.000678124
0.0111945
0.0116945
0.0182403
0.00899003
0.0142144
0.00580228
0.00121475
0.00169471
0.0028134
0.00397068
0.00369195
0.00604984
0.000375227
0.00363208
0.000299674
0.00561119
0.00248259
0.00814422
0.00233419
0.0036684
0.00952976
0.00360076
0.0124671
0.00205436
0.00359387
0.00759362
0.00895631
0.00512686
0.00138633
0.00460244
0.000376674
0.000209014
0.0108859
0.00423698
0.000648354
0.00237999
0.00378682
0.00034997
0.000191871
0.00715847
0.00946469
0.0033937
0.00567024
0.00983105
0.00395848
0.0124579
0.00607155
0.00918113
0.00408667
0.00467421
0.00491929
0.00641912
0.00675503
0.00377826
0.00308637
0.00782382
0.0105715
0.0063832
0.00731663
0.00245417
0.00275731
0.00140995
0.0119557
0.00498869
0.00414168
0.00114928
0.00509431
0.00174384
0.00372953
0.00297925
0.00433976
0.00525424
0.00335021
0.00475935
0.00268265
0.00522066
0.00592199
0.00143255
0.00314998
0.00840162
0.00549213
0.00824875
0.00619591
0.00419267
0.00781775
0.00427101
0.00151511
0.00365684
0.0060724
0.00209233
0.00477619
0.0070497
0.00670229
0.00575883
0.00327816
0.000476345
0.00467984
0.004695
0.00906687
0.00859213
0.00132432
0.00347046
0.0082972
0.00217178
0.00698829
0.00185296
0.0070983
0.0026619
0.000270443
0.00433001
0.00271794
0.0039647
0.0016806
0.00548238
0.00850273
0.00311929
0.0053185
0.00646287
0.003762
0.00942714
0.00391178
0.0118823
0.00314945
0.00429423
0.0161359
0.0176161
0.0139321
0.00733019
0.00610783
0.0032338
0.00919065
0.00707349
0.000761194
0.00277836
0.0105982
0.00426881
0.00836411
0.00249229
0.00508189
0.00213862
0.0213334
0.0220649
0.0247437
0.0231228
0.0187506
0.00404573
0.0135103
6.27942e-05
0.00754281
0.00149608
0.0112781
0.00193677
0.0114905
0.00177503
0.00149363
0.00273088
0.000372589
0.00311255
0.000476804
0.0125573
0.00212284
0.0220793
0.00134228
0.0153865
0.00575298
0.012499
0.0191966
0.00900415
0.0020943
0.00340954
0.0126229
0.00786281
0.00672413
0.00514902
0.00244226
0.00246673
0.00605971
0.014438
0.0102929
6.96974e-05
0.0138044
0.0136215
0.0115379
0.0184029
0.0104056
0.00469545
0.00495606
0.00307142
0.00565171
0.00539421
0.00835787
0.00165064
0.00216979
0.00669327
0.00664351
0.00112833
0.00484302
0.00737733
0.00499083
0.0120739
0.0176027
0.0161376
0.012552
0.016849
0.00745565
0.000136743
0.00985257
0.0072464
0.0113398
6.22321e-05
0.00299812
0.0122112
0.00322291
0.00784671
0.00285661
0.00492551
0.000675324
0.00438212
0.0075171
0.00781922
0.00554964
0.002655
0.00952619
0.0160152
0.0201318
0.00481072
0.0117916
0.00775799
0.00185606
1.67695e-05
0.00490827
0.00353777
0.00780574
0.000647101
0.00277686
6.60524e-05
0.00160339
0.0117037
0.00435218
0.000631396
0.0115619