/*--------------------------------*- C++ -*----------------------------------*\
| =========                 |                                                 |
| \\      /  F ield         | OpenFOAM: The Open Source CFD Toolbox           |
|  \\    /   O peration     | Version:  2212                                  |
|   \\  /    A nd           | Website:  www.openfoam.com                      |
|    \\/     M anipulation  |                                                 |
\*---------------------------------------------------------------------------*/
FoamFile
{
    version     2.0;
    format      ascii;
    arch        "LSB;label=32;scalar=64";
    class       volScalarField;
    location    "0";
    object      Tdirect;
}
// * * * * * * * * * * * * * * * * * * * * * * * * * * * * * * * * * * * * * //

dimensions      [0 0 0 1 0 0 0];

internalField   nonuniform List<scalar> 
3200
(
328.374
328.543
328.76
328.995
329.238
329.476
329.696
329.881
330.017
330.088
330.088
330.017
329.881
329.696
329.476
329.238
328.995
328.76
328.543
328.374
324.434
324.578
324.764
324.968
325.178
325.384
325.574
325.734
325.851
325.913
325.913
325.851
325.734
325.574
325.384
325.178
324.968
324.764
324.578
324.434
320.563
320.682
320.839
321.011
321.188
321.362
321.523
321.658
321.757
321.809
321.809
321.757
321.658
321.523
321.362
321.188
321.011
320.839
320.682
320.563
316.749
316.844
316.972
317.113
317.258
317.4
317.532
317.642
317.722
317.765
317.765
317.722
317.642
317.532
317.4
317.258
317.113
316.972
316.844
316.749
312.982
313.055
313.154
313.264
313.377
313.487
313.589
313.675
313.737
313.77
313.77
313.737
313.675
313.589
313.487
313.377
313.264
313.154
313.055
312.982
309.251
309.303
309.374
309.452
309.532
309.611
309.684
309.745
309.79
309.813
309.813
309.79
309.745
309.684
309.611
309.532
309.452
309.374
309.303
309.251
305.546
305.578
305.62
305.667
305.715
305.763
305.806
305.843
305.87
305.884
305.884
305.87
305.843
305.806
305.763
305.715
305.667
305.62
305.578
305.546
301.858
301.868
301.882
301.898
301.914
301.93
301.944
301.957
301.966
301.97
301.97
301.966
301.957
301.944
301.93
301.914
301.898
301.882
301.868
301.858
328.492
328.66
328.874
329.107
329.348
329.583
329.8
329.984
330.117
330.188
330.188
330.117
329.984
329.8
329.583
329.348
329.107
328.874
328.66
328.492
324.535
324.678
324.862
325.064
325.272
325.476
325.664
325.822
325.937
325.998
325.998
325.937
325.822
325.664
325.476
325.272
325.064
324.862
324.678
324.535
320.648
320.766
320.921
321.092
321.268
321.44
321.598
321.732
321.829
321.881
321.881
321.829
321.732
321.598
321.44
321.268
321.092
320.921
320.766
320.648
316.818
316.913
317.04
317.179
317.323
317.463
317.593
317.702
317.781
317.823
317.823
317.781
317.702
317.593
317.463
317.323
317.179
317.04
316.913
316.818
313.035
313.108
313.207
313.315
313.426
313.536
313.636
313.721
313.783
313.815
313.815
313.783
313.721
313.636
313.536
313.426
313.315
313.207
313.108
313.035
309.289
309.341
309.411
309.488
309.568
309.646
309.718
309.778
309.822
309.846
309.846
309.822
309.778
309.718
309.646
309.568
309.488
309.411
309.341
309.289
305.569
305.6
305.642
305.689
305.736
305.783
305.826
305.863
305.889
305.903
305.903
305.889
305.863
305.826
305.783
305.736
305.689
305.642
305.6
305.569
301.865
301.875
301.89
301.905
301.921
301.937
301.951
301.963
301.972
301.977
301.977
301.972
301.963
301.951
301.937
301.921
301.905
301.89
301.875
301.865
328.727
328.893
329.103
329.332
329.568
329.798
330.01
330.189
330.319
330.388
330.388
330.319
330.189
330.01
329.798
329.568
329.332
329.103
328.893
328.727
324.738
324.878
325.059
325.258
325.461
325.661
325.844
325.999
326.111
326.17
326.17
326.111
325.999
325.844
325.661
325.461
325.258
325.059
324.878
324.738
320.818
320.934
321.087
321.254
321.426
321.595
321.75
321.88
321.975
322.025
322.025
321.975
321.88
321.75
321.595
321.426
321.254
321.087
320.934
320.818
316.956
317.05
317.174
317.311
317.452
317.59
317.716
317.823
317.9
317.941
317.941
317.9
317.823
317.716
317.59
317.452
317.311
317.174
317.05
316.956
313.142
313.214
313.311
313.417
313.526
313.633
313.732
313.815
313.875
313.906
313.906
313.875
313.815
313.732
313.633
313.526
313.417
313.311
313.214
313.142
309.365
309.416
309.485
309.561
309.639
309.716
309.786
309.845
309.888
309.91
309.91
309.888
309.845
309.786
309.716
309.639
309.561
309.485
309.416
309.365
305.615
305.645
305.687
305.732
305.779
305.825
305.867
305.903
305.928
305.942
305.942
305.928
305.903
305.867
305.825
305.779
305.732
305.687
305.645
305.615
301.88
301.891
301.904
301.92
301.935
301.951
301.965
301.977
301.985
301.99
301.99
301.985
301.977
301.965
301.951
301.935
301.92
301.904
301.891
301.88
329.081
329.243
329.448
329.671
329.899
330.122
330.327
330.5
330.625
330.691
330.691
330.625
330.5
330.327
330.122
329.899
329.671
329.448
329.243
329.081
325.042
325.179
325.356
325.548
325.746
325.939
326.116
326.265
326.373
326.43
326.43
326.373
326.265
326.116
325.939
325.746
325.548
325.356
325.179
325.042
321.073
321.186
321.336
321.499
321.666
321.829
321.979
322.104
322.196
322.244
322.244
322.196
322.104
321.979
321.829
321.666
321.499
321.336
321.186
321.073
317.164
317.255
317.377
317.51
317.646
317.78
317.902
318.005
318.079
318.119
318.119
318.079
318.005
317.902
317.78
317.646
317.51
317.377
317.255
317.164
313.303
313.373
313.467
313.571
313.677
313.781
313.876
313.955
314.013
314.044
314.044
314.013
313.955
313.876
313.781
313.677
313.571
313.467
313.373
313.303
309.48
309.529
309.597
309.671
309.746
309.82
309.888
309.945
309.987
310.008
310.008
309.987
309.945
309.888
309.82
309.746
309.671
309.597
309.529
309.48
305.684
305.713
305.754
305.798
305.843
305.888
305.929
305.963
305.988
306.001
306.001
305.988
305.963
305.929
305.888
305.843
305.798
305.754
305.713
305.684
301.903
301.913
301.927
301.942
301.957
301.972
301.985
301.997
302.005
302.01
302.01
302.005
301.997
301.985
301.972
301.957
301.942
301.927
301.913
301.903
329.554
329.71
329.909
330.124
330.343
330.557
330.753
330.917
331.036
331.099
331.099
331.036
330.917
330.753
330.557
330.343
330.124
329.909
329.71
329.554
325.448
325.58
325.752
325.938
326.128
326.313
326.482
326.624
326.727
326.781
326.781
326.727
326.624
326.482
326.313
326.128
325.938
325.752
325.58
325.448
321.414
321.524
321.668
321.826
321.986
322.143
322.286
322.406
322.492
322.538
322.538
322.492
322.406
322.286
322.143
321.986
321.826
321.668
321.524
321.414
317.441
317.53
317.647
317.776
317.907
318.035
318.152
318.25
318.321
318.358
318.358
318.321
318.25
318.152
318.035
317.907
317.776
317.647
317.53
317.441
313.518
313.586
313.677
313.777
313.879
313.978
314.069
314.145
314.2
314.229
314.229
314.2
314.145
314.069
313.978
313.879
313.777
313.677
313.586
313.518
309.633
309.681
309.746
309.817
309.89
309.961
310.026
310.08
310.12
310.14
310.14
310.12
310.08
310.026
309.961
309.89
309.817
309.746
309.681
309.633
305.775
305.804
305.843
305.886
305.929
305.972
306.011
306.044
306.067
306.08
306.08
306.067
306.044
306.011
305.972
305.929
305.886
305.843
305.804
305.775
301.934
301.944
301.957
301.971
301.986
302
302.013
302.024
302.032
302.036
302.036
302.032
302.024
302.013
302
301.986
301.971
301.957
301.944
301.934
330.145
330.296
330.487
330.692
330.901
331.104
331.29
331.445
331.557
331.616
331.616
331.557
331.445
331.29
331.104
330.901
330.692
330.487
330.296
330.145
325.956
326.084
326.248
326.426
326.607
326.783
326.943
327.077
327.174
327.225
327.225
327.174
327.077
326.943
326.783
326.607
326.426
326.248
326.084
325.956
321.841
321.947
322.086
322.236
322.389
322.538
322.673
322.786
322.868
322.911
322.911
322.868
322.786
322.673
322.538
322.389
322.236
322.086
321.947
321.841
317.789
317.874
317.987
318.11
318.235
318.356
318.467
318.559
318.626
318.661
318.661
318.626
318.559
318.467
318.356
318.235
318.11
317.987
317.874
317.789
313.787
313.852
313.94
314.035
314.133
314.227
314.313
314.385
314.437
314.464
314.464
314.437
314.385
314.313
314.227
314.133
314.035
313.94
313.852
313.787
309.824
309.871
309.933
310.001
310.071
310.138
310.2
310.251
310.288
310.307
310.307
310.288
310.251
310.2
310.138
310.071
310.001
309.933
309.871
309.824
305.89
305.918
305.955
305.996
306.038
306.078
306.115
306.146
306.168
306.18
306.18
306.168
306.146
306.115
306.078
306.038
305.996
305.955
305.918
305.89
301.972
301.982
301.994
302.008
302.022
302.036
302.048
302.058
302.066
302.07
302.07
302.066
302.058
302.048
302.036
302.022
302.008
301.994
301.982
301.972
330.857
331.001
331.183
331.378
331.576
331.767
331.941
332.085
332.19
332.245
332.245
332.19
332.085
331.941
331.767
331.576
331.378
331.183
331.001
330.857
326.568
326.69
326.847
327.016
327.187
327.352
327.503
327.628
327.718
327.766
327.766
327.718
327.628
327.503
327.352
327.187
327.016
326.847
326.69
326.568
322.355
322.456
322.588
322.731
322.876
323.016
323.143
323.249
323.325
323.365
323.365
323.325
323.249
323.143
323.016
322.876
322.731
322.588
322.456
322.355
318.207
318.288
318.396
318.512
318.631
318.745
318.849
318.935
318.998
319.03
319.03
318.998
318.935
318.849
318.745
318.631
318.512
318.396
318.288
318.207
314.11
314.173
314.256
314.347
314.439
314.528
314.609
314.676
314.724
314.75
314.75
314.724
314.676
314.609
314.528
314.439
314.347
314.256
314.173
314.11
310.055
310.099
310.158
310.223
310.289
310.352
310.41
310.458
310.493
310.511
310.511
310.493
310.458
310.41
310.352
310.289
310.223
310.158
310.099
310.055
306.028
306.054
306.09
306.129
306.168
306.207
306.241
306.27
306.291
306.302
306.302
306.291
306.27
306.241
306.207
306.168
306.129
306.09
306.054
306.028
302.019
302.028
302.039
302.053
302.066
302.079
302.09
302.1
302.107
302.11
302.11
302.107
302.1
302.09
302.079
302.066
302.053
302.039
302.028
302.019
331.69
331.827
331.999
332.182
332.368
332.546
332.708
332.842
332.939
332.989
332.989
332.939
332.842
332.708
332.546
332.368
332.182
331.999
331.827
331.69
327.284
327.4
327.548
327.707
327.868
328.022
328.162
328.278
328.362
328.405
328.405
328.362
328.278
328.162
328.022
327.868
327.707
327.548
327.4
327.284
322.957
323.053
323.178
323.312
323.448
323.579
323.697
323.795
323.865
323.902
323.902
323.865
323.795
323.697
323.579
323.448
323.312
323.178
323.053
322.957
318.696
318.773
318.875
318.985
319.096
319.203
319.299
319.38
319.437
319.467
319.467
319.437
319.38
319.299
319.203
319.096
318.985
318.875
318.773
318.696
314.489
314.548
314.627
314.713
314.799
314.882
314.957
315.02
315.064
315.088
315.088
315.064
315.02
314.957
314.882
314.799
314.713
314.627
314.548
314.489
310.324
310.366
310.423
310.484
310.545
310.605
310.658
310.703
310.735
310.752
310.752
310.735
310.703
310.658
310.605
310.545
310.484
310.423
310.366
310.324
306.19
306.215
306.248
306.285
306.322
306.358
306.39
306.417
306.436
306.446
306.446
306.436
306.417
306.39
306.358
306.322
306.285
306.248
306.215
306.19
302.073
302.081
302.092
302.105
302.117
302.129
302.14
302.149
302.155
302.159
302.159
302.155
302.149
302.14
302.129
302.117
302.105
302.092
302.081
302.073
332.644
332.774
332.935
333.107
333.28
333.446
333.595
333.718
333.806
333.853
333.853
333.806
333.718
333.595
333.446
333.28
333.107
332.935
332.774
332.644
328.104
328.213
328.353
328.502
328.652
328.795
328.924
329.031
329.107
329.147
329.147
329.107
329.031
328.924
328.795
328.652
328.502
328.353
328.213
328.104
323.646
323.736
323.854
323.98
324.106
324.228
324.337
324.427
324.492
324.526
324.526
324.492
324.427
324.337
324.228
324.106
323.98
323.854
323.736
323.646
319.256
319.329
319.425
319.528
319.632
319.731
319.82
319.894
319.947
319.974
319.974
319.947
319.894
319.82
319.731
319.632
319.528
319.425
319.329
319.256
314.923
314.979
315.053
315.133
315.214
315.291
315.36
315.418
315.459
315.48
315.48
315.459
315.418
315.36
315.291
315.214
315.133
315.053
314.979
314.923
310.633
310.673
310.726
310.783
310.841
310.896
310.945
310.986
311.015
311.031
311.031
311.015
310.986
310.945
310.896
310.841
310.783
310.726
310.673
310.633
306.375
306.398
306.43
306.464
306.499
306.532
306.562
306.586
306.604
306.613
306.613
306.604
306.586
306.562
306.532
306.499
306.464
306.43
306.398
306.375
302.135
302.143
302.153
302.165
302.176
302.187
302.197
302.206
302.212
302.215
302.215
302.212
302.206
302.197
302.187
302.176
302.165
302.153
302.143
302.135
333.721
333.842
333.994
334.154
334.314
334.466
334.603
334.716
334.796
334.838
334.838
334.796
334.716
334.603
334.466
334.314
334.154
333.994
333.842
333.721
329.029
329.132
329.263
329.402
329.54
329.672
329.791
329.888
329.958
329.994
329.994
329.958
329.888
329.791
329.672
329.54
329.402
329.263
329.132
329.029
324.423
324.508
324.618
324.736
324.853
324.965
325.065
325.147
325.206
325.237
325.237
325.206
325.147
325.065
324.965
324.853
324.736
324.618
324.508
324.423
319.888
319.957
320.047
320.143
320.239
320.33
320.412
320.479
320.528
320.553
320.553
320.528
320.479
320.412
320.33
320.239
320.143
320.047
319.957
319.888
315.412
315.465
315.535
315.609
315.684
315.755
315.819
315.871
315.908
315.928
315.928
315.908
315.871
315.819
315.755
315.684
315.609
315.535
315.465
315.412
310.982
311.019
311.069
311.122
311.175
311.226
311.272
311.309
311.336
311.35
311.35
311.336
311.309
311.272
311.226
311.175
311.122
311.069
311.019
310.982
306.584
306.606
306.636
306.667
306.7
306.73
306.757
306.78
306.796
306.804
306.804
306.796
306.78
306.757
306.73
306.7
306.667
306.636
306.606
306.584
302.205
302.212
302.222
302.233
302.244
302.254
302.263
302.27
302.276
302.279
302.279
302.276
302.27
302.263
302.254
302.244
302.233
302.222
302.212
302.205
334.921
335.034
335.175
335.324
335.471
335.611
335.735
335.838
335.911
335.949
335.949
335.911
335.838
335.735
335.611
335.471
335.324
335.175
335.034
334.921
330.061
330.157
330.278
330.407
330.535
330.656
330.764
330.852
330.915
330.948
330.948
330.915
330.852
330.764
330.656
330.535
330.407
330.278
330.157
330.061
325.29
325.369
325.472
325.58
325.688
325.791
325.882
325.957
326.01
326.038
326.038
326.01
325.957
325.882
325.791
325.688
325.58
325.472
325.369
325.29
320.593
320.657
320.741
320.83
320.918
321.002
321.077
321.138
321.182
321.204
321.204
321.182
321.138
321.077
321.002
320.918
320.83
320.741
320.657
320.593
315.958
316.007
316.072
316.141
316.21
316.275
316.333
316.381
316.415
316.433
316.433
316.415
316.381
316.333
316.275
316.21
316.141
316.072
316.007
315.958
311.37
311.405
311.451
311.501
311.55
311.596
311.638
311.672
311.696
311.709
311.709
311.696
311.672
311.638
311.596
311.55
311.501
311.451
311.405
311.37
306.816
306.837
306.865
306.894
306.924
306.952
306.977
306.997
307.012
307.019
307.019
307.012
306.997
306.977
306.952
306.924
306.894
306.865
306.837
306.816
302.283
302.29
302.299
302.309
302.319
302.328
302.336
302.343
302.348
302.351
302.351
302.348
302.343
302.336
302.328
302.319
302.309
302.299
302.29
302.283
336.244
336.35
336.481
336.617
336.753
336.88
336.993
337.086
337.151
337.185
337.185
337.151
337.086
336.993
336.88
336.753
336.617
336.481
336.35
336.244
331.198
331.288
331.4
331.519
331.636
331.747
331.845
331.925
331.982
332.011
332.011
331.982
331.925
331.845
331.747
331.636
331.519
331.4
331.288
331.198
326.245
326.32
326.414
326.515
326.614
326.707
326.79
326.858
326.906
326.931
326.931
326.906
326.858
326.79
326.707
326.614
326.515
326.414
326.32
326.245
321.371
321.43
321.508
321.59
321.671
321.747
321.815
321.871
321.91
321.931
321.931
321.91
321.871
321.815
321.747
321.671
321.59
321.508
321.43
321.371
316.56
316.606
316.666
316.73
316.793
316.852
316.905
316.948
316.979
316.995
316.995
316.979
316.948
316.905
316.852
316.793
316.73
316.666
316.606
316.56
311.799
311.831
311.874
311.92
311.965
312.007
312.045
312.076
312.098
312.109
312.109
312.098
312.076
312.045
312.007
311.965
311.92
311.874
311.831
311.799
307.073
307.093
307.118
307.146
307.173
307.198
307.221
307.239
307.252
307.259
307.259
307.252
307.239
307.221
307.198
307.173
307.146
307.118
307.093
307.073
302.369
302.375
302.384
302.393
302.402
302.41
302.418
302.424
302.429
302.431
302.431
302.429
302.424
302.418
302.41
302.402
302.393
302.384
302.375
302.369
337.692
337.79
337.91
338.036
338.16
338.275
338.378
338.461
338.52
338.55
338.55
338.52
338.461
338.378
338.275
338.16
338.036
337.91
337.79
337.692
332.442
332.525
332.629
332.738
332.845
332.946
333.034
333.107
333.158
333.184
333.184
333.158
333.107
333.034
332.946
332.845
332.738
332.629
332.525
332.442
327.291
327.359
327.447
327.539
327.63
327.715
327.79
327.851
327.894
327.916
327.916
327.894
327.851
327.79
327.715
327.63
327.539
327.447
327.359
327.291
322.221
322.276
322.348
322.423
322.497
322.567
322.628
322.678
322.714
322.732
322.732
322.714
322.678
322.628
322.567
322.497
322.423
322.348
322.276
322.221
317.218
317.261
317.316
317.375
317.433
317.487
317.534
317.573
317.601
317.615
317.615
317.601
317.573
317.534
317.487
317.433
317.375
317.316
317.261
317.218
312.268
312.298
312.337
312.379
312.42
312.459
312.493
312.521
312.541
312.551
312.551
312.541
312.521
312.493
312.459
312.42
312.379
312.337
312.298
312.268
307.354
307.372
307.396
307.421
307.446
307.469
307.489
307.506
307.518
307.524
307.524
307.518
307.506
307.489
307.469
307.446
307.421
307.396
307.372
307.354
302.463
302.469
302.477
302.485
302.493
302.501
302.508
302.514
302.518
302.52
302.52
302.518
302.514
302.508
302.501
302.493
302.485
302.477
302.469
302.463
339.263
339.353
339.464
339.579
339.692
339.797
339.889
339.964
340.017
340.044
340.044
340.017
339.964
339.889
339.797
339.692
339.579
339.464
339.353
339.263
333.793
333.869
333.965
334.065
334.162
334.253
334.333
334.398
334.444
334.467
334.467
334.444
334.398
334.333
334.253
334.162
334.065
333.965
333.869
333.793
328.425
328.489
328.569
328.654
328.736
328.813
328.881
328.936
328.974
328.994
328.994
328.974
328.936
328.881
328.813
328.736
328.654
328.569
328.489
328.425
323.144
323.195
323.261
323.33
323.397
323.46
323.515
323.56
323.592
323.608
323.608
323.592
323.56
323.515
323.46
323.397
323.33
323.261
323.195
323.144
317.933
317.972
318.023
318.077
318.129
318.178
318.221
318.256
318.281
318.294
318.294
318.281
318.256
318.221
318.178
318.129
318.077
318.023
317.972
317.933
312.776
312.804
312.84
312.879
312.916
312.951
312.982
313.007
313.025
313.034
313.034
313.025
313.007
312.982
312.951
312.916
312.879
312.84
312.804
312.776
307.659
307.675
307.697
307.72
307.743
307.764
307.782
307.797
307.808
307.813
307.813
307.808
307.797
307.782
307.764
307.743
307.72
307.697
307.675
307.659
302.565
302.57
302.578
302.585
302.593
302.6
302.606
302.611
302.615
302.616
302.616
302.615
302.611
302.606
302.6
302.593
302.585
302.578
302.57
302.565
340.955
341.039
341.141
341.246
341.348
341.443
341.526
341.593
341.64
341.664
341.664
341.64
341.593
341.526
341.443
341.348
341.246
341.141
341.039
340.955
335.247
335.318
335.405
335.496
335.585
335.667
335.739
335.797
335.838
335.859
335.859
335.838
335.797
335.739
335.667
335.585
335.496
335.405
335.318
335.247
329.646
329.705
329.779
329.856
329.931
330.001
330.062
330.111
330.145
330.163
330.163
330.145
330.111
330.062
330.001
329.931
329.856
329.779
329.705
329.646
324.137
324.184
324.244
324.307
324.369
324.426
324.476
324.516
324.544
324.559
324.559
324.544
324.516
324.476
324.426
324.369
324.307
324.244
324.184
324.137
318.701
318.738
318.784
318.833
318.881
318.926
318.964
318.996
319.018
319.029
319.029
319.018
318.996
318.964
318.926
318.881
318.833
318.784
318.738
318.701
313.323
313.349
313.383
313.418
313.452
313.483
313.511
313.533
313.549
313.557
313.557
313.549
313.533
313.511
313.483
313.452
313.418
313.383
313.349
313.323
307.987
308.002
308.022
308.043
308.064
308.083
308.099
308.113
308.122
308.127
308.127
308.122
308.113
308.099
308.083
308.064
308.043
308.022
308.002
307.987
302.674
302.68
302.686
302.693
302.7
302.707
302.712
302.717
302.72
302.721
302.721
302.72
302.717
302.712
302.707
302.7
302.693
302.686
302.68
302.674
342.762
342.839
342.933
343.028
343.121
343.207
343.281
343.341
343.383
343.405
343.405
343.383
343.341
343.281
343.207
343.121
343.028
342.933
342.839
342.762
336.799
336.864
336.944
337.027
337.108
337.182
337.247
337.299
337.335
337.354
337.354
337.335
337.299
337.247
337.182
337.108
337.027
336.944
336.864
336.799
330.949
331.003
331.071
331.141
331.209
331.272
331.327
331.371
331.402
331.417
331.417
331.402
331.371
331.327
331.272
331.209
331.141
331.071
331.003
330.949
325.195
325.239
325.294
325.352
325.407
325.459
325.504
325.54
325.565
325.578
325.578
325.565
325.54
325.504
325.459
325.407
325.352
325.294
325.239
325.195
319.52
319.554
319.597
319.641
319.685
319.725
319.76
319.788
319.807
319.818
319.818
319.807
319.788
319.76
319.725
319.685
319.641
319.597
319.554
319.52
313.906
313.93
313.961
313.993
314.024
314.052
314.077
314.097
314.111
314.118
314.118
314.111
314.097
314.077
314.052
314.024
313.993
313.961
313.93
313.906
308.336
308.35
308.368
308.387
308.406
308.423
308.438
308.45
308.459
308.463
308.463
308.459
308.45
308.438
308.423
308.406
308.387
308.368
308.35
308.336
302.791
302.796
302.802
302.809
302.815
302.821
302.826
302.83
302.833
302.834
302.834
302.833
302.83
302.826
302.821
302.815
302.809
302.802
302.796
302.791
344.667
344.738
344.823
344.911
344.995
345.072
345.139
345.192
345.23
345.249
345.249
345.23
345.192
345.139
345.072
344.995
344.911
344.823
344.738
344.667
338.431
338.491
338.565
338.641
338.714
338.781
338.839
338.885
338.918
338.934
338.934
338.918
338.885
338.839
338.781
338.714
338.641
338.565
338.491
338.431
332.317
332.367
332.429
332.493
332.555
332.612
332.661
332.7
332.728
332.742
332.742
332.728
332.7
332.661
332.612
332.555
332.493
332.429
332.367
332.317
326.306
326.346
326.397
326.449
326.5
326.546
326.586
326.619
326.641
326.653
326.653
326.641
326.619
326.586
326.546
326.5
326.449
326.397
326.346
326.306
320.379
320.409
320.449
320.49
320.529
320.565
320.596
320.622
320.639
320.648
320.648
320.639
320.622
320.596
320.565
320.529
320.49
320.449
320.409
320.379
314.517
314.538
314.566
314.596
314.624
314.65
314.672
314.69
314.702
314.709
314.709
314.702
314.69
314.672
314.65
314.624
314.596
314.566
314.538
314.517
308.701
308.714
308.731
308.748
308.765
308.781
308.794
308.805
308.813
308.817
308.817
308.813
308.805
308.794
308.781
308.765
308.748
308.731
308.714
308.701
302.914
302.918
302.924
302.929
302.935
302.94
302.945
302.948
302.951
302.952
302.952
302.951
302.948
302.945
302.94
302.935
302.929
302.924
302.918
302.914
346.624
346.689
346.767
346.847
346.923
346.993
347.053
347.101
347.135
347.152
347.152
347.135
347.101
347.053
346.993
346.923
346.847
346.767
346.689
346.624
340.101
340.156
340.224
340.293
340.359
340.42
340.472
340.514
340.543
340.558
340.558
340.543
340.514
340.472
340.42
340.359
340.293
340.224
340.156
340.101
333.711
333.757
333.814
333.873
333.929
333.98
334.024
334.06
334.084
334.097
334.097
334.084
334.06
334.024
333.98
333.929
333.873
333.814
333.757
333.711
327.434
327.47
327.517
327.565
327.611
327.653
327.689
327.718
327.738
327.749
327.749
327.738
327.718
327.689
327.653
327.611
327.565
327.517
327.47
327.434
321.248
321.276
321.312
321.349
321.385
321.418
321.446
321.469
321.484
321.492
321.492
321.484
321.469
321.446
321.418
321.385
321.349
321.312
321.276
321.248
315.133
315.153
315.179
315.205
315.231
315.254
315.275
315.291
315.302
315.308
315.308
315.302
315.291
315.275
315.254
315.231
315.205
315.179
315.153
315.133
309.07
309.081
309.097
309.113
309.128
309.142
309.155
309.164
309.171
309.175
309.175
309.171
309.164
309.155
309.142
309.128
309.113
309.097
309.081
309.07
303.037
303.041
303.046
303.051
303.056
303.061
303.065
303.069
303.071
303.072
303.072
303.071
303.069
303.065
303.061
303.056
303.051
303.046
303.041
303.037
348.513
348.573
348.645
348.718
348.788
348.852
348.906
348.95
348.98
348.996
348.996
348.98
348.95
348.906
348.852
348.788
348.718
348.645
348.573
348.513
341.694
341.745
341.808
341.871
341.932
341.987
342.035
342.072
342.099
342.112
342.112
342.099
342.072
342.035
341.987
341.932
341.871
341.808
341.745
341.694
335.027
335.069
335.122
335.175
335.227
335.274
335.314
335.346
335.369
335.38
335.38
335.369
335.346
335.314
335.274
335.227
335.175
335.122
335.069
335.027
328.487
328.522
328.565
328.609
328.651
328.689
328.723
328.749
328.767
328.777
328.777
328.767
328.749
328.723
328.689
328.651
328.609
328.565
328.522
328.487
322.054
322.08
322.113
322.148
322.18
322.21
322.236
322.257
322.271
322.278
322.278
322.271
322.257
322.236
322.21
322.18
322.148
322.113
322.08
322.054
315.702
315.72
315.744
315.769
315.792
315.814
315.832
315.847
315.857
315.862
315.862
315.857
315.847
315.832
315.814
315.792
315.769
315.744
315.72
315.702
309.408
309.419
309.433
309.448
309.462
309.475
309.486
309.495
309.501
309.505
309.505
309.501
309.495
309.486
309.475
309.462
309.448
309.433
309.419
309.408
303.15
303.153
303.158
303.163
303.168
303.172
303.176
303.179
303.181
303.182
303.182
303.181
303.179
303.176
303.172
303.168
303.163
303.158
303.153
303.15
350.006
350.063
350.131
350.199
350.265
350.324
350.375
350.415
350.444
350.458
350.458
350.444
350.415
350.375
350.324
350.265
350.199
350.131
350.063
350.006
342.905
342.953
343.012
343.072
343.129
343.181
343.225
343.26
343.285
343.298
343.298
343.285
343.26
343.225
343.181
343.129
343.072
343.012
342.953
342.905
335.995
336.036
336.085
336.136
336.185
336.229
336.266
336.296
336.317
336.328
336.328
336.317
336.296
336.266
336.229
336.185
336.136
336.085
336.036
335.995
329.245
329.277
329.318
329.359
329.399
329.435
329.466
329.491
329.508
329.517
329.517
329.508
329.491
329.466
329.435
329.399
329.359
329.318
329.277
329.245
322.621
322.646
322.678
322.71
322.742
322.77
322.794
322.813
322.827
322.834
322.834
322.827
322.813
322.794
322.77
322.742
322.71
322.678
322.646
322.621
316.096
316.114
316.137
316.16
316.182
316.203
316.22
316.234
316.243
316.248
316.248
316.243
316.234
316.22
316.203
316.182
316.16
316.137
316.114
316.096
309.641
309.652
309.665
309.679
309.693
309.705
309.715
309.724
309.729
309.732
309.732
309.729
309.724
309.715
309.705
309.693
309.679
309.665
309.652
309.641
303.227
303.231
303.235
303.24
303.244
303.249
303.252
303.255
303.257
303.258
303.258
303.257
303.255
303.252
303.249
303.244
303.24
303.235
303.231
303.227
)
;

boundaryField
{
    hotSide
    {
        type            fixedGradient;
        gradient        nonuniform List<scalar> 
400
(
321.511
322.87
325.591
329.677
335.133
341.965
350.181
359.788
370.794
383.208
397.037
412.289
428.971
447.088
466.647
487.651
510.105
534.011
559.372
586.191
323.738
325.08
327.767
331.802
337.194
343.949
352.078
361.591
372.498
384.81
398.537
413.687
430.268
448.289
467.755
488.672
511.043
534.872
560.161
586.913
326.149
327.47
330.116
334.091
339.406
346.071
354.099
363.503
374.296
386.491
400.101
415.136
431.606
449.52
468.885
489.706
511.988
535.735
560.948
587.63
328.704
330
332.597
336.503
341.73
348.292
356.205
365.485
376.15
388.215
401.695
416.604
432.954
450.753
470.009
490.73
512.919
536.579
561.714
588.325
331.33
332.599
335.142
338.97
344.099
350.546
358.332
367.477
378.003
389.928
403.271
418.047
434.27
451.949
471.095
491.712
513.807
537.382
562.439
588.978
333.918
335.158
337.643
341.389
346.414
352.74
360.392
369.397
379.779
391.562
404.765
419.407
435.503
453.065
472.101
492.618
514.622
538.114
563.096
589.569
336.321
337.531
339.959
343.622
348.544
354.751
362.274
371.142
381.385
393.031
406.101
420.618
436.595
454.047
472.983
493.409
515.33
538.747
563.663
590.076
338.36
339.543
341.92
345.509
350.339
356.44
363.847
372.595
382.718
394.244
407.2
421.608
437.485
454.844
473.695
494.045
515.897
539.253
564.114
590.478
339.852
341.015
343.352
346.885
351.645
357.665
364.985
373.643
383.675
395.113
407.984
422.312
438.116
455.407
474.197
494.491
516.294
539.606
564.428
590.758
340.643
341.795
344.11
347.613
352.334
358.311
365.584
374.193
384.176
395.567
408.393
422.679
438.443
455.699
474.456
494.722
516.498
539.788
564.589
590.901
340.643
341.795
344.11
347.613
352.334
358.311
365.584
374.193
384.176
395.567
408.393
422.679
438.443
455.699
474.456
494.722
516.498
539.788
564.589
590.901
339.852
341.015
343.352
346.885
351.645
357.665
364.985
373.643
383.675
395.113
407.984
422.312
438.116
455.407
474.197
494.491
516.294
539.606
564.428
590.758
338.36
339.543
341.92
345.509
350.339
356.44
363.847
372.595
382.718
394.244
407.2
421.608
437.485
454.844
473.695
494.045
515.897
539.253
564.114
590.478
336.321
337.531
339.959
343.622
348.544
354.751
362.274
371.142
381.385
393.031
406.101
420.618
436.595
454.047
472.983
493.409
515.33
538.747
563.663
590.076
333.918
335.158
337.643
341.389
346.414
352.74
360.392
369.397
379.779
391.562
404.765
419.407
435.503
453.065
472.101
492.618
514.622
538.114
563.096
589.569
331.33
332.599
335.142
338.97
344.099
350.546
358.332
367.477
378.003
389.928
403.271
418.047
434.27
451.949
471.095
491.712
513.807
537.382
562.439
588.978
328.704
330
332.597
336.503
341.73
348.292
356.205
365.485
376.15
388.215
401.695
416.604
432.954
450.753
470.009
490.73
512.919
536.579
561.714
588.325
326.149
327.47
330.116
334.091
339.406
346.071
354.099
363.503
374.296
386.491
400.101
415.136
431.606
449.52
468.885
489.706
511.988
535.735
560.948
587.63
323.738
325.08
327.767
331.802
337.194
343.949
352.078
361.591
372.498
384.81
398.537
413.687
430.268
448.289
467.755
488.672
511.043
534.872
560.161
586.913
321.511
322.87
325.591
329.677
335.133
341.965
350.181
359.788
370.794
383.208
397.037
412.289
428.971
447.088
466.647
487.651
510.105
534.011
559.372
586.191
)
;
    }
    coldSide
    {
        type            mixed;
        refValue        uniform 300;
        refGradient     uniform 0;
        valueFraction   uniform 0.991591;
        source          uniform 0;
        value           nonuniform List<scalar> 
400
(
300.016
300.016
300.016
300.016
300.016
300.017
300.017
300.017
300.018
300.019
300.019
300.02
300.021
300.022
300.022
300.023
300.025
300.026
300.026
300.027
300.016
300.016
300.016
300.016
300.016
300.017
300.017
300.018
300.018
300.019
300.019
300.02
300.021
300.022
300.023
300.024
300.025