/*--------------------------------*- C++ -*----------------------------------*\
| =========                 |                                                 |
| \\      /  F ield         | OpenFOAM: The Open Source CFD Toolbox           |
|  \\    /   O peration     | Version:  2212                                  |
|   \\  /    A nd           | Website:  www.openfoam.com                      |
|    \\/     M anipulation  |                                                 |
\*---------------------------------------------------------------------------*/
FoamFile
{
    version     2.0;
    format      ascii;
    arch        "LSB;label=32;scalar=64";
    class       volScalarField;
    location    "0";
    object      T;
}
// * * * * * * * * * * * * * * * * * * * * * * * * * * * * * * * * * * * * * //

dimensions      [0 0 0 1 0 0 0];

internalField   nonuniform List<scalar> 
3200
(
331.98
332.619
333.576
334.234
334.712
334.902
335.127
335.702
335.892
335.994
335.674
335.665
335.439
335.258
335.017
334.474
333.712
333.259
332.677
332.276
327.914
328.45
329.28
329.813
330.295
330.359
330.557
331.087
331.259
331.331
331.051
331.077
330.894
330.683
330.529
330.017
329.407
328.967
328.491
328.16
323.728
324.141
324.956
325.333
325.8
325.745
325.986
326.411
326.575
326.573
326.386
326.413
326.237
326.053
325.946
325.5
325.026
324.634
324.26
323.944
319.446
319.795
320.497
320.768
321.258
321.127
321.368
321.694
321.829
321.799
321.666
321.694
321.518
321.372
321.295
320.92
320.552
320.255
319.878
319.641
315.128
315.451
316.018
316.161
316.609
316.459
316.681
316.985
317.001
317.018
316.904
316.927
316.769
316.632
316.569
316.325
316.009
315.814
315.48
315.324
310.812
311.059
311.498
311.548
311.879
311.781
311.96
312.167
312.151
312.18
312.104
312.12
312.007
311.846
311.82
311.657
311.42
311.305
311.075
310.948
306.515
306.651
306.951
306.952
307.134
307.095
307.2
307.351
307.293
307.349
307.248
307.27
307.242
307.082
307.076
306.985
306.862
306.788
306.655
306.612
302.188
302.233
302.343
302.333
302.401
302.393
302.396
302.491
302.435
302.46
302.419
302.427
302.428
302.379
302.372
302.334
302.306
302.282
302.237
302.242
332.838
333.517
334.341
335.036
335.682
335.799
336.234
336.633
336.825
336.908
336.828
336.698
336.388
336.046
335.794
335.379
334.883
334.415
333.688
333.035
328.56
329.165
329.865
330.469
331.063
331.144
331.483
331.873
332.008
332.07
332.051
331.901
331.636
331.343
331.115
330.72
330.324
329.918
329.314
328.739
324.256
324.781
325.34
325.835
326.364
326.418
326.729
327.051
327.157
327.207
327.225
327.095
326.855
326.576
326.336
326.039
325.68
325.343
324.857
324.44
319.875
320.3
320.786
321.184
321.618
321.646
321.931
322.173
322.286
322.303
322.312
322.261
322.033
321.831
321.57
321.306
321.013
320.735
320.36
320.03
315.466
315.794
316.234
316.504
316.796
316.878
317.11
317.26
317.397
317.355
317.377
317.375
317.167
317.014
316.768
316.604
316.37
316.13
315.804
315.573
311.052
311.291
311.613
311.799
312.013
312.107
312.227
312.342
312.442
312.426
312.437
312.439
312.289
312.201
311.976
311.849
311.685
311.541
311.309
311.122
306.633
306.791
306.978
307.055
307.257
307.29
307.356
307.419
307.445
307.494
307.48
307.472
307.417
307.352
307.207
307.136
307.028
306.935
306.786
306.679
302.214
302.274
302.344
302.335
302.442
302.44
302.457
302.474
302.474
302.524
302.526
302.508
302.49
302.462
302.41
302.407
302.349
302.351
302.292
302.234
334.237
334.719
335.599
336.39
336.962
337.19
337.427
337.857
338.118
338.296
338.291
338.165
337.845
337.465
337.189
336.624
336.124
335.575
334.934
333.985
329.745
330.198
330.96
331.626
332.148
332.296
332.495
332.915
333.139
333.255
333.292
333.142
332.903
332.562
332.278
331.815
331.354
330.903
330.343
329.579
325.241
325.662
326.283
326.785
327.278
327.387
327.563
327.993
328.087
328.172
328.244
328.1
327.877
327.596
327.319
326.993
326.6
326.198
325.772
325.124
320.673
321.063
321.516
321.916
322.353
322.429
322.622
322.999
322.962
323.064
323.143
323.025
322.856
322.582
322.351
322.16
321.787
321.48
321.142
320.604
316.096
316.389
316.762
317.057
317.382
317.443
317.655
317.911
317.88
317.956
318.006
317.957
317.839
317.564
317.384
317.304
316.977
316.746
316.457
316.059
311.512
311.721
311.971
312.191
312.398
312.5
312.661
312.836
312.739
312.864
312.873
312.857
312.802
312.551
312.46
312.423
312.149
311.994
311.743
311.504
306.922
307.076
307.161
307.328
307.435
307.509
307.616
307.726
307.656
307.712
307.749
307.738
307.715
307.519
307.488
307.504
307.302
307.246
307.063
306.915
302.328
302.371
302.408
302.46
302.491
302.53
302.549
302.592
302.572
302.588
302.614
302.583
302.571
302.544
302.513
302.528
302.457
302.44
302.362
302.311
335.335
336.281
336.982
337.741
338.311
338.6
338.912
339.523
339.525
339.71
339.53
339.448
339.396
339.174
338.733
338.133
337.407
337.067
336.266
335.466
330.75
331.523
332.132
332.794
333.284
333.512
333.795
334.346
334.322
334.494
334.319
334.28
334.239
334.055
333.621
333.129
332.476
332.222
331.56
330.87
326.112
326.735
327.242
327.806
328.212
328.421
328.655
329.13
329.073
329.243
329.114
329.068
329.064
328.901
328.515
328.096
327.517
327.304
326.779
326.18
321.412
321.881
322.297
322.805
323.13
323.282
323.514
323.854
323.801
323.929
323.862
323.798
323.874
323.702
323.356
322.994
322.513
322.379
321.922
321.472
316.674
317.017
317.355
317.756
318.022
318.154
318.343
318.589
318.487
318.623
318.559
318.53
318.667
318.439
318.198
317.91
317.539
317.449
316.996
316.757
311.936
312.159
312.372
312.724
312.905
312.984
313.116
313.271
313.167
313.317
313.292
313.262
313.391
313.203
313.017
312.811
312.548
312.46
312.155
311.975
307.197
307.313
307.405
307.633
307.769
307.806
307.87
307.958
307.908
308.007
307.99
307.995
308.064
307.945
307.804
307.683
307.591
307.478
307.292
307.212
302.416
302.449
302.476
302.552
302.615
302.607
302.622
302.689
302.66
302.696
302.698
302.693
302.715
302.67
302.595
302.581
302.564
302.523
302.448
302.398
336.796
337.554
338.358
339.012
339.637
340.074
340.467
340.802
341.153
341.141
341.267
340.942
340.773
340.766
340.07
339.55
338.935
338.306
337.574
336.819
332.02
332.66
333.351
333.91
334.465
334.773
335.159
335.431
335.741
335.717
335.806
335.56
335.458
335.414
334.804
334.322
333.832
333.22
332.621
331.978
327.166
327.713
328.271
328.755
329.208
329.461
329.823
330.026
330.277
330.292
330.334
330.105
330.096
329.987
329.515
329.103
328.668
328.111
327.664
327.094
322.258
322.713
323.15
323.536
323.944
324.148
324.402
324.628
324.784
324.797
324.842
324.638
324.653
324.563
324.188
323.831
323.474
322.983
322.639
322.215
317.354
317.685
317.997
318.291
318.647
318.818
318.944
319.192
319.272
319.268
319.351
319.131
319.173
319.115
318.828
318.578
318.25
317.872
317.631
317.334
312.415
312.637
312.889
313.052
313.341
313.478
313.525
313.72
313.77
313.775
313.849
313.673
313.682
313.685
313.446
313.267
313.021
312.738
312.617
312.463
307.43
307.586
307.758
307.838
308.067
308.126
308.116
308.257
308.271
308.301
308.34
308.243
308.2
308.243
308.089
307.947
307.811
307.646
307.569
307.529
302.488
302.543
302.595
302.65
302.716
302.742
302.717
302.772
302.777
302.808
302.788
302.766
302.727
302.752
302.739
302.666
302.617
302.539
302.534
302.512
338.123
338.845
339.603
340.354
340.995
341.488
341.985
342.394
342.602
342.514
342.783
342.348
342.281
342.007
341.516
341.113
340.263
339.732
339.027
338.162
333.126
333.767
334.386
335.036
335.594
336.005
336.446
336.845
336.978
336.935
337.146
336.776
336.715
336.485
336.037
335.717
334.973
334.484
333.924
333.147
328.145
328.663
329.162
329.649
330.159
330.471
330.861
331.234
331.332
331.322
331.497
331.17
331.152
330.926
330.566
330.235
329.602
329.234
328.759
328.081
323.117
323.531
323.891
324.252
324.681
324.972
325.271
325.607
325.669
325.683
325.85
325.55
325.557
325.362
325.026
324.744
324.198
323.965
323.574
322.986
318.026
318.342
318.627
318.89
319.219
319.453
319.651
319.95
319.973
320.023
320.119
319.87
319.913
319.723
319.435
319.261
318.755
318.65
318.332
317.932
312.921
313.102
313.304
313.501
313.744
313.893
314.045
314.302
314.284
314.357
314.439
314.204
314.254
314.078
313.886
313.736
313.382
313.337
313.079
312.858
307.782
307.88
307.993
308.122
308.253
308.334
308.419
308.593
308.582
308.657
308.687
308.561
308.574
308.438
308.339
308.274
308.025
308.01
307.83
307.726
302.635
302.637
302.676
302.723
302.777
302.802
302.813
302.882
302.892
302.915
302.923
302.875
302.867
302.815
302.812
302.782
302.686
302.682
302.645
302.585
339.542
340.352
341.005
341.701
342.305
342.805
343.373
343.709
344.055
344.205
344.191
343.869
343.9
343.336
342.783
342.315
341.584
340.96
340.21
339.34
334.4
335.089
335.606
336.228
336.697
337.14
337.631
337.973
338.257
338.369
338.375
338.059
338.081
337.643
337.144
336.755
336.115
335.508
334.931
334.211
329.152
329.791
330.142
330.765
331.094
331.472
331.858
332.193
332.416
332.502
332.523
332.258
332.263
331.946
331.477
331.154
330.618
330.102
329.674
329.027
323.891
324.405
324.706
325.21
325.452
325.797
326.049
326.397
326.538
326.603
326.612
326.423
326.403
326.171
325.803
325.528
325.077
324.664
324.364
323.812
318.537
318.985
319.204
319.615
319.86
320.133
320.279
320.55
320.61
320.709
320.726
320.528
320.56
320.394
320.112
319.838
319.469
319.237
319.005
318.554
313.228
313.538
313.716
314.029
314.239
314.409
314.478
314.714
314.687
314.799
314.825
314.636
314.68
314.592
314.425
314.187
313.911
313.77
313.564
313.273
307.921
308.12
308.216
308.417
308.54
308.685
308.682
308.819
308.814
308.891
308.91
308.773
308.815
308.741
308.701
308.517
308.357
308.298
308.135
307.94
302.66
302.735
302.745
302.817
302.872
302.924
302.909
302.943
302.936
302.985
302.986
302.942
302.964
302.918
302.922
302.843
302.789
302.788
302.728
302.661
340.513
341.425
342.246
343.101
343.867
344.287
344.815
345.219
345.435
345.393
345.559
345.377
345.336
344.814
344.439
343.865
343.123
342.432
341.454
340.56
335.196
335.972
336.691
337.41
338.084
338.433
338.916
339.296
339.454
339.37
339.559
339.434
339.366
338.928
338.61
338.124
337.436
336.833
336.006
335.231
329.875
330.48
331.084
331.72
332.249
332.519
333.024
333.331
333.458
333.338
333.527
333.459
333.371
332.975
332.736
332.316
331.687
331.217
330.525
329.886
324.485
324.984
325.428
325.998
326.393
326.633
327.089
327.294
327.412
327.324
327.476
327.439
327.333
326.995
326.879
326.504
325.95
325.583
325.024
324.498
319.071
319.439
319.781
320.273
320.532
320.702
321.116
321.281
321.371
321.254
321.389
321.344
321.298
321.003
320.957
320.644
320.192
319.877
319.482
319.093
313.629
313.917
314.127
314.477
314.661
314.781
315.119
315.258
315.296
315.181
315.256
315.251
315.213
315.008
314.98
314.762
314.459
314.16
313.954
313.654
308.203
308.354
308.494
308.719
308.811
308.886
309.106
309.168
309.177
309.112
309.153
309.17
309.127
309.013
309.003
308.879
308.704
308.499
308.402
308.223
302.772
302.804
302.832
302.912
302.939
302.982
303.082
303.079
303.069
303.04
303.054
303.095
303.062
303.01
303.01
302.987
302.908
302.87
302.814
302.743
341.782
342.586
343.368
344.235
345.125
345.542
346.182
346.546
346.831
346.846
346.871
346.751
346.601
346.029
345.997
345.222
344.421
343.627
342.76
341.81
336.345
336.997
337.633
338.404
339.239
339.55
340.068
340.423
340.699
340.642
340.686
340.575
340.45
339.952
339.938
339.27
338.581
337.866
337.084
336.348
330.861
331.377
331.876
332.571
333.286
333.589
333.933
334.275
334.451
334.423
334.449
334.422
334.263
333.865
333.869
333.259
332.687
332.091
331.393
330.851
325.271
325.728
326.132
326.697
327.258
327.546
327.782
328.086
328.233
328.176
328.193
328.208
328.06
327.739
327.777
327.27
326.756
326.244
325.702
325.272
319.687
320.017
320.409
320.796
321.226
321.462
321.622
321.823
322.022
321.9
321.974
321.987
321.848
321.532
321.659
321.272
320.829
320.443
319.969
319.703
314.078
314.304
314.636
314.887
315.208
315.353
315.44
315.55
315.768
315.666
315.721
315.742
315.578
315.336
315.497
315.245
314.92
314.608
314.276
314.119
308.47
308.599
308.765
308.949
309.118
309.237
309.278
309.318
309.476
309.396
309.442
309.458
309.347
309.195
309.299
309.182
308.967
308.752
308.572
308.48
302.825
302.897
302.949
303.009
303.065
303.103
303.125
303.123
303.188
303.138
303.151
303.181
303.123
303.102
303.119
303.083
303.016
302.946
302.88
302.828
342.783
343.77
344.735
345.448
346.415
346.944
347.501
348.017
348.151
348.296
348.247
348.137
347.874
347.422
346.993
346.544
345.753
344.802
343.897
343.159
337.188
338.044
338.85
339.462
340.316
340.766
341.286
341.663
341.789
341.949
341.896
341.798
341.574
341.152
340.794
340.41
339.697
338.924
338.115
337.493
331.553
332.284
332.894
333.469
334.176
334.558
335.004
335.315
335.393
335.594
335.505
335.449
335.223
334.853
334.554
334.244
333.597
332.978
332.318
331.824
325.865
326.49
326.941
327.433
328.03
328.303
328.644
328.917
329.033
329.173
329.091
329.029
328.867
328.543
328.309
328.013
327.482
327.028
326.489
326.119
320.149
320.655
320.983
321.388
321.874
322.012
322.277
322.522
322.632
322.714
322.638
322.577
322.479
322.241
322.093
321.805
321.365
321.066
320.599
320.348
314.407
314.774
315.027
315.328
315.682
315.766
315.933
316.116
316.188
316.276
316.214
316.131
316.06
315.893
315.763
315.573
315.251
315.076
314.762
314.594
308.628
308.885
309.04
309.238
309.426
309.484
309.564
309.678
309.707
309.811
309.765
309.688
309.644
309.557
309.468
309.357
309.148
309.057
308.9
308.771
302.871
302.97
303.023
303.09
303.154
303.183
303.184
303.252
303.261
303.279
303.302
303.245
303.269
303.209
303.179
303.148
303.053
303.036
302.977
302.935
343.826
344.901
345.959
346.616
347.572
347.912
348.8
349.112
349.229
349.554
349.566
349.422
349.307
348.733
348.122
347.814
346.977
345.94
344.912
344.288
338.092
339.01
339.954
340.486
341.324
341.622
342.379
342.65
342.723
343.042
343.01
342.886
342.806
342.291
341.73
341.495
340.805
339.901
339.001
338.495
332.303
333.097
333.87
334.343
334.984
335.33
335.938
336.142
336.183
336.505
336.446
336.311
336.261
335.826
335.352
335.176
334.579
333.826
333.05
332.622
326.525
327.192
327.761
328.139
328.653
328.989
329.436
329.627
329.593
329.893
329.85
329.716
329.694
329.312
328.967
328.792
328.304
327.717
327.112
326.745
320.679
321.204
321.623
321.93
322.313
322.618
322.948
323.092
322.994
323.284
323.24
323.111
323.118
322.825
322.551
322.4
322.025
321.572
321.071
320.796
314.773
315.137
315.425
315.716
315.958
316.232
316.416
316.528
316.424
316.666
316.614
316.545
316.546
316.355
316.141
315.997
315.734
315.451
315.037
314.85
308.88
309.098
309.253
309.498
309.549
309.771
309.869
309.939
309.853
310.035
309.973
309.939
309.939
309.848
309.717
309.619
309.445
309.305
309.022
308.886
302.978
303.081
303.103
303.196
303.202
303.273
303.316
303.35
303.301
303.363
303.376
303.325
303.332
303.316
303.251
303.23
303.157
303.124
303.018
302.975
344.804
345.795
346.911
347.807
348.612
349.19
349.841
350.178
350.494
350.662
350.628
350.708
350.44
349.687
349.385
348.618
347.981
346.995
346.05
345.024
338.927
339.79
340.747
341.499
342.242
342.726
343.291
343.523
343.843
343.992
343.929
344.029
343.816
343.111
342.872
342.184
341.634
340.774
339.97
339.128
333.01
333.771
334.561
335.138
335.841
336.185
336.684
336.86
337.163
337.281
337.229
337.314
337.13
336.501
336.344
335.696
335.251
334.576
333.916
333.178
327.073
327.692
328.326
328.707
329.374
329.685
330.079
330.176
330.437
330.564
330.502
330.527
330.451
329.89
329.767
329.219
328.871
328.336
327.801
327.215
321.077
321.593
322.043
322.303
322.88
323.138
323.445
323.466
323.715
323.807
323.799
323.748
323.742
323.248
323.178
322.737
322.488
322.049
321.642
321.215
315.034
315.436
315.703
315.919
316.373
316.551
316.776
316.781
316.974
316.98
317.036
316.947
316.996
316.634
316.592
316.238
316.054
315.801
315.443
315.189
308.999
309.284
309.409
309.553
309.833
309.955
310.097
310.061
310.191
310.195
310.29
310.166
310.22
309.99
309.991
309.745
309.621
309.526
309.254
309.121
303.005
303.114
303.147
303.187
303.3
303.345
303.388
303.381
303.42
303.44
303.459
303.399
303.424
303.36
303.339
303.253
303.224
303.188
303.102
303.053
345.83
346.905
347.832
348.546
349.769
350.326
350.888
351.243
351.523
351.577
351.948
351.477
351.417
350.978
350.51
349.75
349.032
348.132
347.178
346.043
339.832
340.74
341.544
342.125
343.22
343.692
344.243
344.525
344.708
344.747
345.087
344.703
344.655
344.271
343.856
343.19
342.569
341.819
340.947
340.009
333.781
334.496
335.178
335.666
336.612
337.016
337.512
337.775
337.898
337.908
338.225
337.874
337.831
337.493
337.144
336.576
336.055
335.436
334.752
333.928
327.672
328.25
328.772
329.192
329.978
330.297
330.775
330.975
331.035
331.036
331.302
331.021
331.013
330.709
330.376
329.972
329.531
328.974
328.502
327.831
321.535
321.985
322.361
322.715
323.293
323.591
323.983
324.138
324.17
324.16
324.354
324.157
324.201
323.927
323.643
323.322
322.946
322.499
322.203
321.667
315.415
315.758
315.991
316.247
316.615
316.892
317.175
317.277
317.251
317.304
317.436
317.276
317.325
317.13
316.885
316.682
316.361
316.035
315.877
315.501
309.303
309.488
309.602
309.751
309.95
310.173
310.309
310.385
310.349
310.403
310.508
310.413
310.444
310.282
310.143
310.034
309.808
309.597
309.552
309.309
303.123
303.183
303.217
303.298
303.332
303.419
303.456
303.475
303.473
303.468
303.526
303.495
303.51
303.449
303.393
303.351
303.28
303.219
303.196
303.113
346.947
347.659
348.701
349.602
350.567
351.376
351.959
352.171
352.515
352.709
352.799
352.567
352.37
351.946
351.482
350.737
349.789
348.876
348.065
347
340.813
341.371
342.298
343.045
343.933
344.627
345.091
345.276
345.583
345.787
345.873
345.657
345.479
345.076
344.702
344.069
343.172
342.424
341.759
340.852
334.602
335.031
335.862
336.451
337.275
337.81
338.226
338.386
338.643
338.814
338.905
338.708
338.541
338.163
337.825
337.343
336.527
335.904
335.414
334.647
328.385
328.698
329.386
329.852
330.51
330.933
331.308
331.415
331.717
331.813
331.853
331.729
331.589
331.25
330.991
330.575
329.885
329.377
329.016
328.407
322.118
322.302
322.855
323.216
323.721
324.086
324.396
324.43
324.704
324.767
324.833
324.708
324.624
324.28
324.134
323.799
323.254
322.848
322.624
322.11
315.866
315.927
316.309
316.633
316.945
317.202
317.459
317.47
317.652
317.736
317.792
317.683
317.62
317.315
317.271
317.005
316.594
316.339
316.218
315.816
309.536
309.59
309.789
309.964
310.187
310.341
310.489
310.513
310.626
310.673
310.74
310.645
310.593
310.406
310.367
310.223
309.979
309.795
309.741
309.517
303.19
303.242
303.298
303.346
303.412
303.462
303.521
303.537
303.56
303.584
303.622
303.563
303.555
303.511
303.465
303.414
303.341
303.277
303.256
303.21
347.679
348.398
349.604
350.302
351.279
352.218
352.74
352.984
353.365
353.867
353.834
353.517
353.297
352.966
352.329
351.41
350.531
349.388
348.821
347.615
341.462
342.05
343.07
343.654
344.552
345.352
345.776
345.996
346.316
346.759
346.704
346.446
346.289
345.981
345.464
344.624
343.882
342.821
342.411
341.359
335.155
335.672
336.516
337.017
337.817
338.429
338.797
338.974
339.268
339.662
339.559
339.377
339.232
338.92
338.543
337.81
337.215
336.29
336.003
335.082
328.827
329.2
329.894
330.341
331.006
331.477
331.831
331.996
332.218
332.517
332.408
332.261
332.162
331.854
331.586
330.963
330.489
329.732
329.531
328.743
322.449
322.706
323.213
323.633
324.174
324.487
324.824
324.938
325.059
325.314
325.185
325.095
325.046
324.776
324.574
324.127
323.733
323.141
322.994
322.395
316.049
316.242
316.576
316.917
317.309
317.54
317.772
317.87
317.947
318.068
318.017
317.92
317.85
317.645
317.547
317.263
316.946
316.565
316.412
316.007
309.636
309.782
309.943
310.185
310.411
310.581
310.681
310.728
310.77
310.83
310.847
310.783
310.724
310.593
310.555
310.365
310.206
309.986
309.836
309.629
303.225
303.287
303.321
303.424
303.511
303.561
303.585
303.61
303.613
303.65
303.642
303.595
303.584
303.554
303.558
303.484
303.432
303.343
303.292
303.245
348.268
349.164
350.234
351.334
352.136
352.818
353.518
353.932
354.148
354.427
354.553
354.358
353.905
353.667
353.183
352.46
351.551
350.384
349.294
348.384
341.964
342.711
343.635
344.578
345.278
345.831
346.49
346.783
347.021
347.244
347.397
347.234
346.763
346.593
346.19
345.578
344.729
343.727
342.797
342.019
335.566
336.188
336.923
337.723
338.344
338.835
339.44
339.67
339.841
340.035
340.189
340.017
339.617
339.486
339.176
338.624
337.865
337.001
336.275
335.596
329.12
329.645
330.204
330.855
331.411
331.822
332.37
332.523
332.653
332.832
332.936
332.759
332.459
332.335
332.122
331.595
330.99
330.259
329.755
329.155
322.666
323.046
323.493
323.998
324.476
324.796
325.218
325.383
325.458
325.578
325.687
325.495
325.318
325.172
325.016
324.582
324.071
323.584
323.194
322.703
316.213
316.525
316.797
317.156
317.495
317.788
318.078
318.169
318.217
318.301
318.397
318.224
318.157
317.978
317.893
317.583
317.176
316.887
316.6
316.248
309.751
309.949
310.076
310.281
310.521
310.711
310.873
310.926
310.972
311.02
311.09
310.968
310.956
310.808
310.754
310.549
310.289
310.157
309.969
309.777
303.278
303.33
303.36
303.45
303.528
303.594
303.64
303.674
303.68
303.685
303.708
303.677
303.675
303.613
303.617
303.513
303.442
303.417
303.348
303.284
348.928
349.9
350.791
351.977
353.006
353.568
354.073
354.827
354.996
355.243
355.326
355.095
354.611
354.26
353.862
352.974
352.274
351.114
349.834
348.925
342.487
343.347
344.112
345.165
346.021
346.542
346.94
347.605
347.744
347.952
348.072
347.827
347.451
347.132
346.794
345.974
345.368
344.341
343.234
342.509
336.031
336.753
337.439
338.263
339.007
339.439
339.792
340.325
340.452
340.574
340.7
340.534
340.213
339.921
339.649
338.977
338.44
337.531
336.622
336.059
329.517
330.13
330.715
331.335
331.92
332.321
332.584
333.04
333.115
333.23
333.323
333.231
332.963
332.69
332.474
331.922
331.486
330.677
329.981
329.562
323.02
323.462
323.954
324.424
324.844
325.142
325.393
325.761
325.748
325.898
325.951
325.835
325.695
325.462
325.304
324.828
324.53
323.825
323.314
323.014
316.492
316.776
317.149
317.469
317.758
317.969
318.163
318.417
318.376
318.543
318.575
318.472
318.357
318.212
318.099
317.773
317.55
317.012
316.686
316.467
309.943
310.087
310.298
310.502
310.662
310.75
310.908
311.044
311.013
311.123
311.211
311.099
311.038
310.971
310.885
310.639
310.521
310.226
310.057
309.883
303.341
303.374
303.432
303.541
303.586
303.603
303.664
303.705
303.699
303.73
303.774
303.708
303.702
303.684
303.645
303.563
303.537
303.444
303.378
303.308
349.093
350.355
351.44
352.278
353.283
354.214
354.863
355.127
355.604
356.08
355.919
355.712
355.29
354.906
354.223
353.551
352.679
351.836
350.452
349.473
342.683
343.736
344.652
345.392
346.286
347.071
347.647
347.866
348.284
348.704
348.53
348.369
347.989
347.67
347.105
346.511
345.726
345.029
343.805
342.999
336.214
337.128
337.842
338.476
339.249
339.85
340.349
340.547
340.912
341.249
341.1
341.016
340.655
340.338
339.908
339.424
338.746
338.106
337.074
336.429
329.689
330.449
331.019
331.551
332.155
332.617
333.037
333.179
333.506
333.769
333.669
333.613
333.321
333.006
332.734
332.298
331.712
331.2
330.36
329.82
323.155
323.725
324.198
324.604
325.033
325.376
325.664
325.821
326.116
326.281
326.206
326.188
325.965
325.694
325.49
325.156
324.695
324.268
323.669
323.239
316.574
316.95
317.349
317.601
317.877
318.127
318.321
318.409
318.672
318.74
318.742
318.727
318.556
318.373
318.246
317.943
317.663
317.343
316.885
316.645
310.002
310.175
310.468
310.552
310.737
310.906
311.018
311.039
311.211
311.231
311.276
311.235
311.17
311.059
310.988
310.797
310.606
310.402
310.137
310.056
303.357
303.42
303.522
303.529
303.591
303.67
303.704
303.692
303.763
303.749
303.773
303.767
303.734
303.713
303.685
303.618
303.564
303.488
303.4
303.389
349.508
350.721
351.709
352.813
353.74
354.652
355.206
355.675
356.164
356.39
356.421
356.26
355.971
355.334
354.778
354.171
353.14
351.994
350.73
349.828
343.028
344.022
344.88
345.788
346.659
347.417
347.919
348.323
348.78
348.994
348.994
348.887
348.625
348.022
347.582
347.002
346.132
345.099
344.022
343.275
336.466
337.298
338.027
338.74
339.551
340.189
340.622
340.949
341.335
341.54
341.509
341.426
341.221
340.681
340.319
339.75
339.054
338.199
337.248
336.731
329.862
330.566
331.109
331.707
332.421
332.936
333.281
333.587
333.876
334.055
334.02
333.952
333.72
333.281
333.023
332.534
331.991
331.28
330.476
330.144
323.258
323.825
324.2
324.654
325.242
325.622
325.885
326.131
326.361
326.535
326.521
326.436
326.231
325.882
325.726
325.296
324.926
324.348
323.737
323.488
316.645
317.04
317.287
317.596
318.052
318.322
318.525
318.66
318.823
318.977
319.029
318.882
318.759
318.515
318.383
318.051
317.837
317.429
317.009
316.801
310.015
310.248
310.389
310.564
310.872
311.015
311.14
311.223
311.3
311.376
311.437
311.333
311.247
311.14
311.047
310.827
310.709
310.476
310.236
310.077
303.36
303.431
303.498
303.538
303.645
303.712
303.753
303.768
303.781
303.792
303.834
303.782
303.772
303.75
303.719
303.622
303.594
303.522
303.443
303.376
349.769
350.821
352.135
353.203
353.984
354.762
355.61
356.095
356.697
356.602
356.585
356.578
356.165
355.659
355.005
354.349
353.375
352.036
350.902
350.035
343.27
344.169
345.301
346.171
346.872
347.541
348.293
348.668
349.256
349.095
349.079
349.138
348.742
348.28
347.76
347.17
346.295
345.138
344.176
343.457
336.74
337.42
338.383
339.072
339.67
340.294
340.938
341.253
341.739
341.603
341.587
341.673
341.285
340.876
340.474
339.963
339.213
338.275
337.393
336.852
330.159
330.652
331.421
331.96
332.477
333.011
333.55
333.773
334.159
334.074
334.031
334.15
333.793
333.482
333.139
332.7
332.091
331.372
330.604
330.223
323.509
323.842
324.489
324.858
325.309
325.705
326.123
326.264
326.554
326.492
326.47
326.608
326.276
326.098
325.811
325.429
324.984
324.444
323.796
323.543
316.802
317.067
317.522
317.747
318.074
318.375
318.678
318.783
318.974
318.893
318.942
319.014
318.779
318.65
318.42
318.141
317.841
317.465
316.991
316.859
310.107
310.264
310.521
310.649
310.861
311.017
311.189
311.262
311.379
311.328
311.386
311.394
311.284
311.215
311.054
310.884
310.719
310.49
310.17
310.137
303.395
303.431
303.529
303.543
303.633
303.687
303.717
303.787
303.831
303.796
303.803
303.805
303.783
303.761
303.706
303.639
303.602
303.536
303.424
303.403
)
;

boundaryField
{
    hotSide
    {
        type            fixedGradient;
        gradient        nonuniform List<scalar> 
400
(
322.05
336.73
351.282
365.639
379.737
393.509
406.889
419.813
432.215
444.032
455.206
465.676
475.39
484.295
492.346
499.499
505.717
510.969
515.226
518.468
329.936
345.052
360.04
374.831
389.359
403.555
417.352
430.681
443.477
455.675
467.212
478.029
488.07
497.28
505.613
513.024
519.475
524.931
529.365
532.756
337.011
352.525
367.91
383.098
398.018
412.602
426.78
440.481
453.638
466.185
478.056
489.192
499.532
509.024
517.618
525.267
531.933
537.579
542.179
545.708
343.248
359.118
374.86
390.403
405.677
420.609
435.129
449.165
462.647
475.508
487.681
499.104
509.717
519.463
528.293
536.159
543.02
548.84
553.591
557.247
348.625
364.808
380.863
396.719
412.302
427.541
442.362
456.693
470.462
483.601
496.04
507.717
518.57
528.543
537.582
545.64
552.675
558.651
563.537
567.308
353.129
369.578
385.9
402.023
417.871
433.372
448.451
463.035
477.05
490.426
503.095
514.99
526.05
536.217
545.438
553.662
560.849
566.959
571.963
575.835
356.747
373.415
389.957
406.298
422.365
438.082
453.373
468.165
482.383
495.956
508.814
520.891
532.123
542.451
551.822
560.185
567.498
573.722
578.825
582.781
359.472
376.31
393.022
409.533
425.769
441.654
457.111
472.065
486.442
500.169
513.175
525.393
536.76
547.216
556.705
565.178
572.591
578.904
584.086
588.111
361.301
378.258
395.089
411.72
428.076
444.079
459.653
474.723
489.212
503.048
516.159
528.479
539.942
550.489
560.064
568.617
576.102
582.481
587.721
591.797
362.231
379.255
396.155
412.854
429.278
445.35
460.992
476.128
490.682
504.582
517.756
530.136
541.657
552.258
561.885
570.485
578.015
584.434
589.711
593.819
362.262
379.302
396.217
412.933
429.374
445.463
461.123
476.277
490.85
504.768
517.959
530.357
541.895
552.514
562.157
570.774
578.32
584.754
590.046
594.167
361.395
378.398
395.277
411.958
428.364
444.42
460.047
475.169
489.712
503.602
516.768
529.141
540.657
551.255
560.881
569.482
577.014
583.438
588.721
592.837
359.633
376.547
393.338
409.931
426.251
442.222
457.766
472.809
487.275
501.09
514.185
526.492
537.945
548.486
558.059
566.612
574.103
580.49
585.742
589.834
356.978
373.752
390.404
406.858
423.041
438.877
454.289
469.203
483.544
497.24
510.221
522.419
533.771
544.218
553.703
562.178
569.597
575.923
581.123
585.171
353.438
370.022
386.482
402.748
418.744
434.395
449.626
464.364
478.535
492.067
504.89
516.94
528.151
538.467
547.832
556.197
563.518
569.757
574.883
578.87
349.021
365.364
381.585
397.612
413.372
428.79
443.794
458.31
472.265
485.589
498.214
510.075
521.109
531.259
540.471
548.696
555.892
562.022
567.053
570.962
343.738
359.793
375.727
391.467
406.944
422.083
436.814
451.062
464.759
477.834
490.221
501.855
512.675
522.626
531.654
539.712
546.758
552.755
557.673
561.486
337.604
353.326
368.926
384.335
399.484
414.3
428.713
442.652
456.049
468.835
480.946
492.317
502.891
512.611
521.426
529.29
536.161
542.005
546.79
550.494
330.641
345.986
361.209
376.244
391.021
405.472
419.527
433.117
446.175
458.635
470.434
481.509
491.803
501.263
509.838
517.483
524.159
529.829
534.467
538.048
322.875
337.801
352.607
367.227
381.593
395.639
409.297
422.501
435.185
447.285
458.738
469.486
479.472
488.645
496.955
504.359
510.818
516.298
520.773
524.218
)
;
    }
    coldSide
    {
        type            mixed;
        refValue        uniform 300;
        refGradient     uniform 0;
        valueFraction   uniform 0.991591;
        source          uniform 0;
        value           nonuniform List<scalar> 
400
(
300.018
300.019
300.02
300.02
300.021
300.022
300.022
300.023
300.024
300.024
300.025
300.025
300.026
300.027
300.027
300.028
300.028
300.028
300.028
300.029
300.019
300.019
300.02
300.021
300.021
300.022
300.023
300.024
300.024
300.025
300.026
300.026
300.027
300.027
300.028
300.028