/*--------------------------------*- C++ -*----------------------------------*\
| =========                 |                                                 |
| \\      /  F ield         | OpenFOAM: The Open Source CFD Toolbox           |
|  \\    /   O peration     | Version:  2212                                  |
|   \\  /    A nd           | Website:  www.openfoam.com                      |
|    \\/     M anipulation  |                                                 |
\*---------------------------------------------------------------------------*/
FoamFile
{
    version     2.0;
    format      ascii;
    arch        "LSB;label=32;scalar=64";
    class       volScalarField;
    location    "./ITHACAoutput/true/13.6";
    object      error;
}
// * * * * * * * * * * * * * * * * * * * * * * * * * * * * * * * * * * * * * //

dimensions      [0 0 0 1 0 0 0];

internalField   nonuniform List<scalar> 
3200
(
-2.26825
-1.10371
0.00355799
0.696433
1.24571
1.56057
1.82963
1.90906
1.99284
2.1115
2.1415
2.10393
2.03979
2.0012
1.90967
1.79745
1.49607
0.8717
-0.0224507
-1.03185
-1.60781
-0.708787
0.183435
0.763266
1.2821
1.53639
1.74837
1.83718
1.82901
1.8759
1.80463
1.92534
1.83377
1.8475
1.82657
1.72196
1.35174
0.796593
0.109593
-0.832832
-1.16343
-0.445817
0.315296
0.803662
1.10691
1.38359
1.50781
1.64759
1.72367
1.69466
1.66623
1.6624
1.60412
1.6159
1.60917
1.44719
1.2782
0.820412
0.140651
-0.50181
-0.810183
-0.292055
0.324344
0.708406
0.996221
1.21997
1.29085
1.42026
1.45094
1.49895
1.45055
1.43037
1.34577
1.35354
1.41944
1.28864
1.04684
0.661134
0.208754
-0.356388
-0.636436
-0.102612
0.301617
0.601976
0.883441
1.1169
1.13954
1.14634
1.11992
1.13883
1.1232
1.16647
1.12419
1.1031
1.00937
1.00976
0.750526
0.608856
0.182994
-0.205895
-0.329118
-0.0834541
0.204768
0.479394
0.62986
0.728286
0.847024
0.888745
0.84578
0.742617
0.828141
0.836818
0.80412
0.764705
0.815924
0.708294
0.555497
0.436003
0.107988
-0.155459
-0.226197
-0.0268826
0.157888
0.296528
0.42295
0.516586
0.491282
0.49983
0.58769
0.47015
0.448424
0.522438
0.559653
0.465308
0.526191
0.466467
0.354623
0.294005
0.13327
-0.14206
-0.0912541
0.0112968
0.0174394
0.0529496
0.0896486
0.0867663
0.168138
0.148964
0.169143
0.146517
0.143869
0.159114
0.157653
0.195774
0.135618
0.118006
0.139269
0.146207
0.00665879
-0.0627426
-2.19482
-1.09145
-0.048367
0.674522
1.28194
1.56819
1.70041
1.82241
1.92126
2.02156
1.90701
1.86284
1.84884
1.89818
1.94284
1.70006
1.40216
0.809691
0.0651938
-1.0624
-1.62081
-0.692692
0.107624
0.832497
1.18207
1.54129
1.66495
1.75129
1.7727
1.74095
1.8255
1.73843
1.78182
1.80455
1.70305
1.57667
1.27858
0.919343
0.101603
-0.673608
-1.22334
-0.36673
0.238015
0.806297
1.17034
1.42463
1.56329
1.54595
1.57189
1.56922
1.59706
1.60174
1.59142
1.58119
1.58418
1.42175
1.20056
0.78433
0.164311
-0.47501
-0.864339
-0.247576
0.364683
0.687613
1.05723
1.15917
1.27011
1.31269
1.34672
1.41411
1.35109
1.30787
1.32554
1.28052
1.30945
1.16333
1.08048
0.600757
0.308548
-0.320901
-0.577041
-0.108378
0.234128
0.664626
0.796812
0.966339
1.13874
1.07311
1.08587
1.07792
1.00682
1.1172
1.07113
1.11034
0.972864
0.982556
0.751327
0.589865
0.15527
-0.188419
-0.395901
-0.0533794
0.266993
0.441841
0.551822
0.635214
0.738539
0.802976
0.803951
0.739815
0.755574
0.761828
0.812155
0.7795
0.737687
0.677195
0.605268
0.363062
0.144247
-0.0875671
-0.155554
-0.0327797
0.195543
0.301904
0.43537
0.412809
0.454399
0.480901
0.555851
0.560934
0.482097
0.482333
0.386632
0.492874
0.434667
0.385387
0.39519
0.225022
0.107404
-0.0674534
-0.0880461
0.0157849
-0.0318511
0.122176
0.15356
0.147354
0.137912
0.145045
0.154015
0.10114
0.119689
0.0791833
0.0587559
0.131653
0.127176
0.152333
0.106459
0.0553147
0.0813716
-0.0441412
-2.07908
-1.05811
0.01077
0.759722
1.1378
1.48881
1.65811
1.6378
1.71378
1.74282
1.64801
1.7116
1.67796
1.79255
1.70365
1.70171
1.34055
0.865524
0.0528188
-1.02728
-1.57487
-0.633174
0.243633
0.779184
1.23266
1.36004
1.49574
1.59479
1.64387
1.65482
1.57383
1.56104
1.60699
1.59732
1.61517
1.50889
1.32216
0.767553
0.144871
-0.658517
-1.16715
-0.412928
0.230459
0.803217
1.11466
1.28179
1.39448
1.44086
1.34574
1.34344
1.41187
1.43409
1.42978
1.47472
1.41424
1.42737
1.16504
0.800104
0.156047
-0.475277
-0.896248
-0.257834
0.353099
0.693418
0.97149
1.11851
1.24784
1.30334
1.24398
1.17487
1.21876
1.15691
1.23305
1.26342
1.18805
1.1635
1.02585
0.664966
0.182542
-0.296734
-0.557418
-0.0627608
0.308395
0.641338
0.844694
0.894832
0.999962
1.01222
0.958922
1.03987
0.961114
0.991277
1.0183
0.965615
1.00862
0.8997
0.822593
0.549362
0.170444
-0.259516
-0.453583
0.00871821
0.293258
0.431551
0.648753
0.680533
0.821519
0.762964
0.725271
0.68373
0.715625
0.660622
0.693708
0.667043
0.673177
0.672898
0.56296
0.422589
0.209871
-0.0584288
-0.208253
-0.051872
0.146404
0.36
0.358373
0.46698
0.395067
0.420373
0.491368
0.443513
0.412677
0.378683
0.424995
0.46121
0.511131
0.38625
0.34448
0.252387
0.0935052
0.0170688
-0.118334
0.0341106
0.145804
0.0373078
0.117317
0.15867
0.187773
0.158977
0.194711
0.195763
0.125146
0.190342
0.110012
0.132641
0.139976
0.179123
0.150944
0.0783417
-0.00158896
0.0317654
-2.11489
-1.06905
-0.0130559
0.622674
1.04985
1.33846
1.37186
1.47892
1.38958
1.35009
1.33901
1.35088
1.46186
1.53054
1.71514
1.41648
1.20072
0.730496
0.0212947
-1.00766
-1.62815
-0.675828
0.184899
0.640154
1.10647
1.34008
1.38861
1.35898
1.40414
1.30674
1.31191
1.37071
1.32288
1.41441
1.42218
1.42134
1.16684
0.790201
-0.0129876
-0.692766
-1.10269
-0.413599
0.190335
0.734787
1.09658
1.26643
1.29334
1.27517
1.21001
1.22243
1.14235
1.26591
1.22103
1.29097
1.26613
1.26539
1.11801
0.680422
0.0959619
-0.507964
-0.82275
-0.22553
0.3204
0.674088
0.891029
1.06007
1.1648
1.13278
1.11161
1.03105
1.06187
0.997418
1.05588
1.10836
1.05018
1.12363
0.95089
0.584637
0.181156
-0.246298
-0.538183
-0.0890156
0.285718
0.54879
0.739683
0.856125
0.939771
0.87755
0.777856
0.79218
0.836748
0.805529
0.729621
0.915443
0.819093
0.778776
0.710311
0.486973
0.083833
-0.231996
-0.372973
-0.0758306
0.255302
0.369191
0.626036
0.640043
0.703311
0.679388
0.697976
0.67163
0.647481
0.664295
0.559751
0.650104
0.684943
0.625017
0.529812
0.396352
0.162151
-0.174735
-0.247891
-0.00576119
0.190986
0.248321
0.333854
0.337058
0.391376
0.398057
0.366456
0.389827
0.361734
0.378462
0.365635
0.343382
0.408741
0.427276
0.329312
0.137249
0.0415954
-0.0508796
-0.137649
0.0191755
0.0666577
0.0919173
0.106974
0.14581
0.158584
0.102493
0.0755795
0.1711
0.0445897
0.120023
0.0461838
0.175772
0.101725
0.0906943
0.155588
0.0528369
0.0101659
0.00243343
-2.17653
-1.14861
-0.0681092
0.576238
0.996752
1.1803
1.27221
1.24342
1.19725
1.13783
1.08023
1.07071
1.23116
1.24288
1.47648
1.33623
1.1545
0.639042
-0.162446
-1.09424
-1.63422
-0.769054
0.0599306
0.555804
1.0277
1.18724
1.27606
1.25424
1.18646
1.14186
1.04101
1.10483
1.16703
1.25396
1.27458
1.27189
1.08736
0.746536
0.0146855
-0.743469
-1.22608
-0.446579
0.18509
0.638624
0.987456
1.11535
1.14294
1.10349
1.08847
0.995883
0.83884
0.953545
0.982903
1.12506
1.19701
1.09986
0.979779
0.629675
0.0442645
-0.448912
-0.861429
-0.268346
0.303255
0.686706
0.822069
0.958349
1.01519
0.997192
0.939805
0.839232
0.81299
0.827025
0.773902
0.88024
1.02952
0.923775
0.807326
0.517089
0.00448668
-0.371236
-0.596745
-0.195
0.221208
0.578137
0.809161
0.819434
0.791167
0.773554
0.769679
0.738748
0.656867
0.631573
0.624084
0.692757
0.796796
0.736538
0.7103
0.395273
0.145671
-0.238863
-0.359172
-0.144487
0.222353
0.405747
0.521766
0.559032
0.591785
0.632775
0.531964
0.524047
0.486952
0.509933
0.531386
0.579761
0.64488
0.578209
0.457981
0.318675
0.123085
-0.0550676
-0.210639
-0.0405951
0.140616
0.328748
0.303734
0.443321
0.357259
0.382551
0.312514
0.312333
0.290796
0.284747
0.36282
0.334262
0.384368
0.344192
0.319019
0.212742
0.0341945
-0.0373828
-0.113938
0.0204011
0.107195
0.0353605
0.157679
0.126649
0.13235
0.11077
0.162495
0.0139636
0.102528
0.109381
0.0337363
0.0585191
0.123775
0.142754
0.137613
0.0877921
0.0402234
-0.0342976
-2.30101
-1.25142
-0.226115
0.362971
0.811036
0.996738
1.0763
1.02179
0.956134
0.861929
0.779815
0.731788
0.866335
0.990453
1.0983
1.09779
0.927814
0.458337
-0.266057
-1.1196
-1.62344
-0.869067
-0.058408
0.481608
0.866466
1.02232
1.14885
1.02733
0.976187
0.827128
0.797063
0.736086
0.880127
0.870697
1.00505
1.02794
0.867712
0.629364
-0.163076
-0.758698
-1.21133
-0.499152
0.123562
0.643276
0.757195
1.03235
0.988335
0.874628
0.893675
0.784527
0.702997
0.706335
0.836988
0.903452
1.00243
1.03753
0.840882
0.516499
0.0331584
-0.656259
-0.873157
-0.366763
0.126716
0.548692
0.755156
0.91283
0.918948
0.903763
0.796192
0.741883
0.723529
0.624418
0.697651
0.788599
0.790276
0.86595
0.767267
0.438588
0.0506258
-0.402412
-0.620386
-0.143488
0.199969
0.506596
0.626524
0.763057
0.669033
0.749852
0.621988
0.579334
0.611298
0.52185
0.585425
0.646992
0.6423
0.61987
0.586067
0.369943
0.0977759
-0.277203
-0.341038
-0.0430108
0.172982
0.354076
0.465586
0.526306
0.531878
0.509989
0.449307
0.440598
0.409231
0.358508
0.47914
0.500718
0.528754
0.549927
0.434816
0.389388
0.0649662
-0.295687
-0.229388
-0.0455677
0.111371
0.259858
0.320939
0.312147
0.296626
0.283167
0.290283
0.347248
0.21197
0.345381
0.249729
0.299866
0.300022
0.285414
0.303744
0.0812674
0.0508922
-0.0851815
-0.00457515
-0.00571939
-0.0230087
0.120837
0.0878326
0.134562
0.0400495
0.0509764
0.0777936
0.0340802
0.0854544
0.0534387
0.108761
0.0877572
0.0507432
0.0866123
0.0765316
0.025083
-0.051696
0.00448613
-2.22324
-1.32632
-0.443125
0.381594
0.609988
0.836977
0.912429
0.894415
0.650639
0.570634
0.470994
0.52639
0.695786
0.76043
0.949385
1.02189
0.84571
0.427951
-0.414345
-1.15739
-1.67019
-0.851
-0.173553
0.41016
0.706219
0.866654
0.96022
0.798649
0.691125
0.554695
0.546395
0.516162
0.651759
0.806015
0.875251
0.982571
0.8893
0.342835
-0.193497
-0.838601
-1.16739
-0.485777
0.00137291
0.523708
0.825965
0.903078
0.963785
0.80776
0.720003
0.622856
0.521349
0.616941
0.674469
0.703775
0.805609
0.806123
0.683671
0.398824
-0.109552
-0.635271
-0.952942
-0.330141
0.0788743
0.474075
0.722379
0.739708
0.824191
0.691166
0.622307
0.567055
0.511306
0.512493
0.600625
0.613637
0.703539
0.715343
0.650227
0.379815
0.0195016
-0.368637
-0.58685
-0.233021
0.108062
0.44727
0.62113
0.687182
0.656643
0.619289
0.576223
0.484555
0.344356
0.40093
0.448345
0.575135
0.632275
0.61754
0.477657
0.348527
-0.0174855
-0.264228
-0.392933
-0.108659
0.170063
0.354575
0.361638
0.467923
0.524979
0.421209
0.471902
0.318066
0.293606
0.321376
0.395961
0.415523
0.465527
0.479684
0.383025
0.288043
0.0232899
-0.218439
-0.198714
-0.0407349
0.0863142
0.240816
0.297142
0.274718
0.323385
0.326813
0.280544
0.221568
0.225332
0.179155
0.217144
0.260234
0.195511
0.262998
0.198166
0.165041
0.0105279
-0.0907042
0.0401525
0.0537631
0.0613737
0.0415983
0.12229
0.165048
0.0510951
0.0488845
0.0552205
0.0221611
0.0613216
0.0624342
0.106118
0.140236
0.0834333
0.0684293
0.0345316
0.0901213
-0.0719737
-0.0149649
-2.25581
-1.30701
-0.478221
0.144309
0.486703
0.708746
0.837856
0.691951
0.596045
0.356362
0.279386
0.214727
0.385743
0.654037
0.750902
0.794779
0.628804
0.12174
-0.431525
-1.26586
-1.66089
-1.01421
-0.193352
0.299738
0.591009
0.799599
0.777038
0.691538
0.629369
0.479112
0.375818
0.404118
0.487536
0.618015
0.665565
0.826902
0.620632
0.300567
-0.196119
-0.885941
-1.32007
-0.635724
0.00910741
0.34172
0.731933
0.776632
0.784724
0.587485
0.623589
0.465482
0.334953
0.351767
0.424231
0.631783
0.754719
0.69241
0.495379
0.269657
-0.124613
-0.6005
-0.918803
-0.372826
0.0590943
0.417182
0.622439
0.753031
0.704091
0.635718
0.56919
0.445176
0.432237
0.370201
0.409654
0.544403
0.599037
0.635117
0.591156
0.382228
-0.029998
-0.441546
-0.586
-0.310003
0.205972
0.38051
0.523775
0.689216
0.639746
0.54378
0.492167
0.375205
0.349842
0.275984
0.431161
0.444511
0.390772
0.507572
0.506455
0.336257
-0.0375344
-0.380679
-0.350565
-0.160483
0.0832393
0.358843
0.511336
0.447681
0.431585
0.406448
0.350275
0.254583
0.244048
0.242822
0.241633
0.40609
0.350187
0.358859
0.307624
0.272891
-0.0866518
-0.211727
-0.138062
-0.0297775
0.079228
0.226155
0.25616
0.236203
0.270453
0.313416
0.255008
0.211898
0.1605
0.169149
0.192115
0.166486
0.231857
0.204535
0.273204
0.135322
0.00688777
-0.0594077
0.0264425
-0.0660075
0.0205705
0.0432793
0.158866
0.0919152
0.0926393
0.100729
0.107864
0.0985833
0.0918307
0.0585327
0.0411623
0.0925343
0.0568472
0.0302261
0.0495661
0.0528741
0.00656212
-0.0436216
-2.21448
-1.35732
-0.529313
0.170933
0.519025
0.620472
0.648222
0.531399
0.369593
0.276426
0.141151
0.175171
0.411961
0.472136
0.629498
0.687119
0.613304
-0.00341207
-0.501401
-1.24719
-1.72139
-0.933364
-0.271091
0.272498
0.639268
0.757975
0.772518
0.690849
0.4642
0.366389
0.258647
0.287464
0.411797
0.558213
0.674973
0.617038
0.601246
0.208631
-0.300056
-0.958334
-1.25513
-0.683597
-0.0395348
0.320914
0.587909
0.744422
0.819968
0.629821
0.550107
0.349025
0.29073
0.311873
0.476715
0.474535
0.620447
0.641713
0.569262
0.257751
-0.135392
-0.644094
-0.909314
-0.410346
-0.0168073
0.433722
0.632072
0.67166
0.584091
0.573337
0.412933
0.250672
0.177077
0.251579
0.37135
0.509285
0.622446
0.565936
0.5481
0.29811
-0.175872
-0.517075
-0.611616
-0.247448
0.0667294
0.403912
0.563753
0.613558
0.596472
0.489556
0.348305
0.310384
0.254663
0.297593
0.383595
0.393578
0.43244
0.503915
0.34904
0.196566
-0.0391327
-0.290607
-0.367628
-0.0960523
0.085867
0.314567
0.371191
0.454834
0.458807
0.425745
0.357464
0.284907
0.197571
0.288175
0.203666
0.304031
0.394224
0.351714
0.276494
0.189033
-0.0739287
-0.253203
-0.257827
-0.227945
0.131084
0.178616
0.267731
0.324578
0.307321
0.251958
0.165302
0.153805
0.186071
0.115926
0.193763
0.205854
0.254023
0.268857
0.202831
0.0724838
-0.0345574
-0.131877
-0.0235615
-0.0100007
0.106665
0.0977341
0.0662841
0.0632268
0.0863226
0.164368
0.105496
0.0249972
0.094343
0.0704288
0.000705217
0.0307192
0.0554754
0.040188
0.0336541
0.0747784
0.049073
-0.096171
-2.18909
-1.32681
-0.557725
0.0943928
0.490097
0.608253
0.631269
0.558557
0.367137
0.24875
0.0952789
0.157951
0.353099
0.452446
0.593148
0.544252
0.500418
0.192357
-0.499686
-1.13691
-1.63783
-0.970553
-0.201652
0.208765
0.579966
0.692114
0.723096
0.610915
0.511906
0.322537
0.179839
0.26486
0.403279
0.461467
0.595632
0.569792
0.544873
0.253055
-0.313679
-0.890199
-1.14573
-0.534645
-0.0107504
0.387115
0.606714
0.77
0.63968
0.572708
0.552781
0.3398
0.290716
0.265978
0.411036
0.525921
0.673264
0.623812
0.465049
0.278107
-0.150252
-0.686266
-0.80175
-0.344553
0.103129
0.414012
0.587713
0.656757
0.728121
0.557406
0.460083
0.283805
0.297486
0.252183
0.347294
0.460168
0.543439
0.508592
0.477294
0.281398
0.020475
-0.39817
-0.587786
-0.234538
0.0671849
0.297719
0.513004
0.552601
0.543992
0.5149
0.393648
0.326485
0.282631
0.248982
0.374668
0.43767
0.446174
0.434664
0.453413
0.253507
-0.00960742
-0.314278
-0.349838
-0.169529
0.0902133
0.237662
0.389188
0.430345
0.420675
0.414799
0.306991
0.259357
0.224971
0.197973
0.333898
0.307445
0.364182
0.334214
0.337842
0.212665
-0.0450527
-0.236869
-0.280579
-0.00712675
0.113506
0.154995
0.249111
0.272034
0.230744
0.231414
0.240377
0.161787
0.145128
0.0981637
0.149572
0.212401
0.183854
0.205495
0.241908
0.163797
0.0284755
-0.100248
-0.047672
-0.00717791
0.0563457
0.0584095
0.0957366
0.0661507
0.174736
0.0431183
-0.00642179
0.0497746
0.0110081
0.01615
0.0158823
0.0392767
0.0710036
0.156954
0.0813702
0.0802609
-0.0140231
-0.0444659
-2.05949
-1.23177
-0.482394
0.159461
0.506428
0.673037
0.768083
0.625959
0.473543
0.300802
0.274342
0.273137
0.276876
0.572373
0.733632
0.627974
0.602788
0.180717
-0.380208
-1.02496
-1.49899
-0.850576
-0.141881
0.326762
0.669329
0.836177
0.850351
0.63081
0.451799
0.382264
0.331024
0.365992
0.467763
0.662086
0.628587
0.70612
0.590577
0.299286
-0.215976
-0.822647
-1.09173
-0.576253
0.0171273
0.432823
0.654922
0.788773
0.803106
0.671434
0.551032
0.433149
0.331761
0.346344
0.362605
0.632063
0.617477
0.696404
0.638418
0.337484
-0.0430596
-0.524938
-0.810401
-0.265387
0.0825563
0.435703
0.660494
0.74903
0.656015
0.584475
0.501195
0.365865
0.369292
0.337882
0.386802
0.482691
0.580932
0.587869
0.447235
0.334741
-0.0455528
-0.388916
-0.530445
-0.166164
0.123982
0.35123
0.577431
0.572222
0.565171
0.590216
0.475662
0.346929
0.310613
0.34257
0.347618
0.402017
0.498821
0.496186
0.478358
0.251222
-0.0297066
-0.318521
-0.382988
-0.103392
0.0990294
0.379231
0.393898
0.436562
0.400072
0.440775
0.401743
0.253589
0.21554
0.260066
0.200756
0.202626
0.405629
0.379121
0.330245
0.223787
0.0817045
-0.172215
-0.226646
-0.100292
0.138993
0.201004
0.234165
0.325578
0.288224
0.196815
0.203221
0.184939
0.190409
0.116784
0.0901141
0.14256
0.190784
0.234843
0.148822
0.106358
0.0266162
-0.126646
-0.0443228
-0.00819467
0.0512826
0.0418095
0.102505
0.0690733
0.115283
0.106959
0.0709263
-0.0163536
0.022071
0.0512371
0.0792462
0.091049
0.0916742
0.0313795
0.071007
0.0226749
0.0516193
-0.0415368
-1.94176
-1.06014
-0.308034
0.297647
0.67957
0.864954
0.853961
0.837916
0.588749
0.480298
0.388689
0.475895
0.559182
0.687241
0.876529
0.872724
0.740701
0.404451
-0.217159
-0.919761
-1.37509
-0.65243
-0.141905
0.426367
0.772762
0.924257
0.960724
0.755574
0.600244
0.491102
0.49634
0.512715
0.598364
0.769949
0.816355
0.878289
0.748764
0.41452
-0.0932273
-0.66531
-0.968583
-0.369784
0.170322
0.666182
0.779144
0.876081
0.838748
0.869133
0.73843
0.599411
0.592372
0.582382
0.614729
0.718182
0.768495
0.792373
0.743836
0.48378
0.0441146
-0.466731
-0.628617
-0.269345
0.184622
0.513542
0.730031
0.750814
0.78066
0.721684
0.658036
0.513074
0.481565
0.522333
0.491407
0.586907
0.638993
0.681905
0.64608
0.393324
0.127117
-0.349769
-0.451353
-0.129252
0.218194
0.392819
0.565777
0.584465
0.667406
0.562347
0.507226
0.461619
0.450112
0.42253
0.441633
0.499741
0.581797
0.557892
0.528206
0.381714
0.127273
-0.145479
-0.253027
-0.0307935
0.231177
0.279657
0.402538
0.524424
0.516178
0.525779
0.333609
0.318576
0.349838
0.33324
0.236968
0.384848
0.484013
0.418826
0.333886
0.363227
0.123652
-0.0384153
-0.124689
0.00397515
0.179724
0.237614
0.343886
0.278505
0.281913
0.275165
0.258149
0.144799
0.195901
0.200454
0.222888
0.20706
0.260782
0.296987
0.18132
0.128408
0.0367579
-0.0571921
-0.0935316
-0.00404235
0.0155614
0.129438
0.142711
0.077357
0.127075
0.0831619
0.0640287
0.0434
0.0857959
0.0849232
0.065556
0.0598506
0.0409902
0.120649
0.112578
0.0369568
0.0925442
-0.012623
-1.5859
-0.830806
-0.0759746
0.449388
0.86074
0.982937
1.15422
1.08555
0.935251
0.747481
0.747161
0.721675
0.898212
0.974088
1.1292
1.02181
0.942711
0.692296
-0.0094394
-0.672132
-1.16326
-0.477615
0.194945
0.580175
0.920054
1.08545
1.13071
0.950463
0.956953
0.834568
0.782598
0.792975
0.828478
0.974284
1.06019
1.09942
0.94755
0.660749
0.141503
-0.319583
-0.784731
-0.146831
0.323885
0.702769
0.88869
1.00603
1.10889
0.971519
0.894035
0.77895
0.709498
0.709625
0.815664
0.888782
1.03612
0.995586
0.927043
0.563095
0.257774
-0.203022
-0.480684
-0.0159603
0.372184
0.679453
0.831595
0.937443
0.945401
0.934844
0.78241
0.779453
0.634947
0.652286
0.759258
0.786497
0.90123
0.928851
0.7261
0.607254
0.28128
-0.104743
-0.249351
0.0016716
0.387199
0.587055
0.650541
0.762316
0.78499
0.6938
0.676959
0.541402
0.515648
0.584657
0.620161
0.607375
0.759618
0.660174
0.62981
0.509697
0.277707
0.0925749
-0.185103
0.0540919
0.284512
0.515671
0.482077
0.52805
0.471337
0.568293
0.423804
0.447559
0.340191
0.356321
0.457434
0.410632
0.48081
0.450613
0.413625
0.459928
0.203231
0.0162334
-0.0874242
0.0417878
0.191975
0.224677
0.304591
0.365149
0.360772
0.347771
0.31906
0.25744
0.242938
0.295738
0.228996
0.30529
0.270277
0.295783
0.222631
0.273844
0.135484
0.0720812
-0.0539214
0.0150318
0.0879845
0.128573
0.170334
0.142118
0.150335
0.123897
0.0665139
0.140625
0.137056
0.149281
0.0914337
0.136891
0.0707397
0.111393
0.0619598
0.165427
0.0118718
0.019721
-1.28851
-0.516905
0.262199
0.778514
1.21127
1.37121
1.46355
1.39626
1.37889
1.2713
1.14869
1.21833
1.30023
1.39797
1.43715
1.51452
1.29217
0.907135
0.361265
-0.274665
-0.804431
-0.233386
0.492687
0.924103
1.28155
1.38933
1.43813
1.42938
1.25369
1.18333
1.14614
1.14334
1.23021
1.33391
1.4732
1.38995
1.25806
0.996395
0.480455
-0.0949106
-0.472956
0.0608734
0.466553
0.921698
1.23852
1.30305
1.34001
1.25973
1.17232
1.14631
1.09554
1.04695
1.19323
1.21843
1.26396
1.25717
1.14932
0.965694
0.455106
-0.00854827
-0.230574
0.139055
0.509452
0.824323
0.984793
1.11094
1.12304
1.16013
1.03337
0.945052
0.953679
0.93033
0.970155
0.995157
1.13113
1.04102
1.04177
0.839402
0.523481
0.143688
-0.164606
0.189964
0.413187
0.629673
0.859455
0.898859
0.960883
0.913859
0.830029
0.885745
0.691629
0.721749
0.84482
0.900704
0.841916
0.835078
0.854244
0.58034
0.344422
0.156224
-0.0326943
0.173675
0.42754
0.489025
0.618028
0.632033
0.697305
0.695422
0.734509
0.570288
0.537518
0.603979
0.54435
0.584237
0.573378
0.60755
0.589344
0.483246
0.239677
0.116824
0.014385
0.125745
0.276512
0.423071
0.435281
0.373881
0.401894
0.405447
0.383942
0.332994
0.333611
0.370865
0.377947
0.385619
0.373196
0.43
0.365723
0.292315
0.208687
0.0778325
0.0241105
0.0814178
0.0596577
0.126275
0.128146
0.125529
0.162789
0.143097
0.131781
0.0256183
0.090868
0.120635
0.144888
0.0810099
0.0762225
0.183168
0.0853568
0.132902
0.0458455
0.0168766
-0.851683
-0.141179
0.666648
1.15812
1.62656
1.73894
1.81965
1.87369
1.77501
1.73646
1.75588
1.66779
1.79559
1.83433
1.96783
1.89612
1.64844
1.30134
0.725488
0.15851
-0.469587
0.224533
0.741973
1.27638
1.58497
1.77078
1.81119
1.80737
1.72249
1.64438
1.55334
1.7211
1.73686
1.75377
1.7153
1.7805
1.65702
1.2073
0.829539
0.317752
-0.216747
0.329357
0.867855
1.22302
1.4182
1.57446
1.60489
1.64248
1.44766
1.47609
1.51697
1.49342
1.50312
1.60697
1.61457
1.59391
1.43018
1.15797
0.824272
0.345266
-0.00254608
0.409482
0.775729
1.11125
1.27566
1.38684
1.4163
1.43297
1.34474
1.3108
1.20176
1.33227
1.36272
1.34853
1.36864
1.35524
1.29002
1.10842
0.659221
0.473396
0.018643
0.43271
0.640646
0.911224
1.06637
1.03087
1.24829
1.20409
1.06409
0.997252
1.04182
0.969826
0.992922
1.04365
1.12771
1.13986
1.00241
0.836831
0.593261
0.380035
0.106701
0.32174
0.523468
0.710111
0.797182
0.884322
0.814553
0.852576
0.806902
0.804417
0.797644
0.749455
0.760343
0.78131
0.831708
0.769565
0.778742
0.621485
0.441284
0.322626
0.0818844
0.209542
0.30471
0.442427
0.52878
0.538846
0.548487
0.586883
0.487155
0.454547
0.519788
0.489524
0.503833
0.411035
0.433121
0.478018
0.488722
0.357616
0.219674
0.144473
-0.00840174
0.0307631
0.138473
0.147795
0.138643
0.126077
0.0822843
0.180172
0.186931
0.185839
0.167183
0.184794
0.145267
0.209341
0.135625
0.154586
0.148053
0.15338
0.0518363
0.0535568
-0.31046
0.370442
1.13152
1.66838
2.08399
2.27993
2.44222
2.43843
2.3978
2.30893
2.43194
2.33513
2.45043
2.44205
2.51971
2.35491
2.17988
1.8676
1.38182
0.721385
0.0158316
0.618706
1.1789
1.76592
1.98153
2.17527
2.22398
2.34242
2.23132
2.20921
2.25759
2.12462
2.33335
2.26289
2.32578
2.16834
1.99553
1.72584
1.29956
0.778418
0.212461
0.729025
1.23615
1.61065
1.77797
1.9678
2.08334
2.0151
2.00689
2.00843
1.90384
1.87384
1.98092
2.02909
1.96444
1.96449
1.83569
1.52475
1.1621
0.761516
0.267265
0.739281
1.01952
1.4009
1.5313
1.76075
1.74392
1.67262
1.69141
1.6591
1.66535
1.57952
1.64948
1.71641
1.7255
1.68119
1.61622
1.36803
1.04108
0.787687
0.361542
0.602851
0.916197
1.12863
1.30623
1.38726
1.38622
1.43053
1.38985
1.31246
1.23617
1.26444
1.34558
1.35727
1.34296
1.30677
1.33012
1.1049
0.897162
0.657421
0.238142
0.489441
0.696862
0.813343
0.910268
1.02074
1.00071
1.03454
1.04055
0.947726
0.933735
0.948651
0.95619
1.02281
0.998519
0.969042
0.87611
0.826728
0.700567
0.431056
0.190553
0.288714
0.38373
0.50481
0.573626
0.551294
0.596625
0.602917
0.61946
0.584188
0.584641
0.579187
0.610389
0.647916
0.622382
0.582146
0.491197
0.479269
0.479471
0.243708
0.0347353
0.122893
0.155438
0.194488
0.167311
0.210439
0.152311
0.236258
0.226329
0.198455
0.226018
0.228394
0.235906
0.191051
0.21126
0.207612
0.179768
0.159444
0.122379
0.111605
0.252462
0.962058
1.62395
2.18473
2.55295
2.88573
3.0446
3.07268
3.09625
3.01637
3.05063
3.07457
3.05249
3.10087
3.1203
3.02208
2.84119
2.38138
1.86373
1.26271
0.460308
1.05891
1.67919
2.10945
2.53077
2.61675
2.84725
2.75052
2.869
2.75945
2.72297
2.81173
2.76024
2.85025
2.81365
2.75228
2.61155
2.2097
1.70626
1.28649
0.645221
1.21902
1.65393
1.92408
2.192
2.37532
2.46347
2.51957
2.45267
2.367
2.38374
2.49934
2.49492
2.40628
2.52423
2.41164
2.24959
2.0619
1.61862
1.26924
0.721209
1.08519
1.42078
1.6345
1.88508
2.07242
2.14926
2.05582
2.04531
2.03934
2.07475
2.02881
2.02039
2.14351
2.06335
2.04278
1.90032
1.76794
1.42243
1.14397
0.621382
0.839005
1.18742
1.37324
1.67195
1.70109
1.72827
1.76661
1.72037
1.65676
1.66803
1.60655
1.64879
1.68273
1.68153
1.70851
1.57974
1.34176
1.08715
0.826003
0.480196
0.590836
0.854172
1.05155
1.10927
1.17743
1.21776
1.34014
1.20251
1.27075
1.32077
1.25327
1.23546
1.21836
1.19136
1.24231
1.09515
0.953072
0.812114
0.644102
0.363797
0.403012
0.541929
0.656944
0.743545
0.732492
0.70143
0.695599
0.712875
0.699513
0.675969
0.706258
0.740274
0.785604
0.716244
0.688992
0.717925
0.547289
0.427825
0.433096
0.0835262
0.104479
0.117202
0.201082
0.249902
0.302241
0.293021
0.289881
0.255047
0.222625
0.241211
0.259028
0.275988
0.225546
0.290024
0.205467
0.18813
0.246267
0.205563
0.113125
0.816712
1.56691
2.28394
2.85334
3.17751
3.5336
3.62161
3.69221
3.77883
3.73998
3.75511
3.80724
3.81582
3.83476
3.82808
3.71488
3.41905
3.02829
2.58301
1.91041
1.03079
1.56621
2.21211
2.64404
2.99736
3.25684
3.36842
3.34122
3.42059
3.3202
3.39725
3.37665
3.45137
3.42881
3.42854
3.39729
3.23059
2.77831
2.36437
1.84916
1.08041
1.58699
2.10446
2.39271
2.7653
2.87901
3.02593
2.95924
3.03292
3.00497
3.0176
3.04719
2.98015
3.05029
2.98072
2.89025
2.75164
2.46093
2.09293
1.64597
1.00707
1.45804
1.83504
2.10246
2.27565
2.40556
2.48091
2.51793
2.47475
2.50848
2.47185
2.3912
2.5114
2.55406
2.52718
2.45837
2.35336
2.14147
1.82072
1.45045
0.759462
1.17801
1.43029
1.65836
1.85596
1.99614
1.94109
1.9585
2.02322
2.02608
2.0151
2.01413
1.95929
2.03495
1.99169
1.93163
1.82446
1.64375
1.46862
1.23939
0.636487
0.793988
1.02309
1.29794
1.33861
1.4459
1.52329
1.41982
1.49382
1.37998
1.4762
1.34352
1.41677
1.38596
1.36715
1.34861
1.3333
1.22835
1.09444
0.884574
0.405754
0.551714
0.653509
0.745198
0.902118
0.869089
0.838108
0.923637
0.8214
0.876135
0.836816
0.850246
0.96507
0.824307
0.891341
0.835564
0.845251
0.757454
0.675441
0.488694
0.0753567
0.138362
0.199658
0.230626
0.226187
0.272908
0.320764
0.327842
0.326444
0.330727
0.263017
0.313922
0.30876
0.22665
0.330888
0.26956
0.272813
0.274205
0.224614
0.106747
1.50492
2.23751
2.88677
3.48195
3.86553
4.11602
4.26674
4.39178
4.41741
4.41078
4.4641
4.49988
4.54977
4.49895
4.49265
4.29498
4.04345
3.73052
3.18376
2.52918
1.5789
2.13898
2.78817
3.2148
3.53251
3.7397
3.86395
3.98159
3.99185
4.02469
4.01083
3.97378
4.07215
4.11565
3.91653
3.88063
3.69172
3.26696
2.86558
2.35618
1.4659
2.00642
2.50581
2.86536
3.1107
3.26192
3.39213
3.39597
3.54211
3.42338
3.54253
3.45887
3.4718
3.45603
3.47149
3.41475
3.18257
2.98011
2.51517
2.15755
1.41201
1.73018
2.15033
2.38446
2.69145
2.80306
2.86715
2.92002
2.86622
3.03413
2.87494
2.94958
2.9618
2.9458
2.89781
2.78755
2.65454
2.39625
2.07652
1.78699
1.19593
1.49421
1.65735
1.92478
2.15525
2.26812
2.26452
2.25569
2.338
2.35029
2.20795
2.34824
2.32564
2.27474
2.23969
2.18944
2.06894
2.03652
1.74491
1.56927
0.89251
1.07855
1.27856
1.4595
1.53329
1.58715
1.67409
1.67274
1.66543
1.67901
1.67772
1.63993
1.71441
1.67674
1.59143
1.68495
1.48921
1.36048
1.21669
1.08151
0.589809
0.655159
0.732984
0.943749
0.923101
0.949428
1.01616
1.01307
0.920828
1.0146
1.0679
1.04105
1.041
0.976799
0.946801
0.958769
0.916764
0.812246
0.765331
0.671609
0.203977
0.274833
0.228191
0.342952
0.303497
0.381264
0.337566
0.360029
0.394243
0.218855
0.389241
0.294288
0.305443
0.267063
0.360021
0.311961
0.327655
0.311218
0.220395
0.172751
1.981
2.69191
3.41604
3.88083
4.30009
4.65661
4.78829
4.9635
4.99412
5.04733
5.10008
5.03303
5.11157
5.08997
5.05724
4.77348
4.60697
4.21146
3.68155
3.06438
2.00212
2.60332
3.16192
3.56362
3.91223
4.20176
4.35714
4.49772
4.4048
4.41105
4.43345
4.54732
4.50543
4.47865
4.4657
4.31803
4.07905
3.81246
3.31554
2.79664
1.85194
2.37377
2.76528
3.19324
3.50526
3.56207
3.79803
3.83331
3.86321
3.8497
3.81169
3.92538
3.91818
3.81211
3.85624
3.7246
3.52628
3.23826
2.91739
2.45367
1.68602
2.03717
2.41525
2.64348
2.90767
3.03592
3.10981
3.19249
3.21292
3.28103
3.25402
3.21815
3.25255
3.22576
3.15885
3.06554
2.97552
2.73525
2.42316
2.08809
1.39382
1.64036
1.92102
2.1396
2.19707
2.37186
2.44432
2.53577
2.49537
2.49853
2.51165
2.59828
2.5366
2.51314
2.51511
2.43409
2.24477
2.18614
2.04496
1.70925
1.03939
1.25528
1.42679
1.64176
1.67371
1.71171
1.89195
1.82128
1.81996
1.82719
1.79525
1.80218
1.88237
1.80418
1.7979
1.76682
1.6501
1.50265
1.38814
1.19352
0.598797
0.710853
0.882511
0.977379
0.995774
1.02837
1.0715
1.10819
1.1397
1.18608
1.06945
1.08152
1.16172
1.15433
1.11126
1.0911
0.976539
0.978146
0.863246
0.739342
0.24169
0.223485
0.299987
0.38355
0.33622
0.351372
0.340813
0.449827
0.37594
0.400714
0.358246
0.424099
0.266063
0.353328
0.389835
0.391812
0.363387
0.329172
0.236415
0.200964
)
;

boundaryField
{
    hotSide
    {
        type            calculated;
        value           nonuniform List<scalar> 
400
(
-2.57566
-2.50473
-2.39397
-2.43723
-2.50877
-2.64555
-2.58245
-2.63201
-2.60994
-2.60604
-2.50012
-2.40821
-2.08028
-1.81289
-1.4081
-0.900941
-0.374067
0.15215
0.800362
1.2345
-1.39863
-1.38897
-1.36081
-1.37949
-1.46931
-1.58484
-1.6749
-1.6731
-1.74323
-1.73478
-1.664
-1.51876
-1.31791
-1.03456
-0.691393
-0.214319
0.340784
0.907176
1.53737
1.94946
-0.277857
-0.332494
-0.278771
-0.310669
-0.37641
-0.547654
-0.780377
-0.833597
-0.905151
-0.956277
-0.905856
-0.758534
-0.555588
-0.248552
0.122768
0.552554
1.00797
1.62904
2.19104
2.6776
0.429329
0.404565
0.484089
0.338577
0.280961
0.0538764
0.0561333
-0.199966
-0.194515
-0.294506
-0.255066
-0.144625
-0.0226722
0.274666
0.620537
1.09515
1.57397
2.20317
2.79052
3.14629
0.993318
1.02654
0.876417
0.779572
0.714745
0.514572
0.296451
0.15359