/*--------------------------------*- C++ -*----------------------------------*\
| =========                 |                                                 |
| \\      /  F ield         | OpenFOAM: The Open Source CFD Toolbox           |
|  \\    /   O peration     | Version:  2212                                  |
|   \\  /    A nd           | Website:  www.openfoam.com                      |
|    \\/     M anipulation  |                                                 |
\*---------------------------------------------------------------------------*/
FoamFile
{
    version     2.0;
    format      ascii;
    arch        "LSB;label=32;scalar=64";
    class       volScalarField;
    location    "0";
    object      stateMean;
}
// * * * * * * * * * * * * * * * * * * * * * * * * * * * * * * * * * * * * * //

dimensions      [0 0 0 1 0 0 0];

internalField   nonuniform List<scalar> 
3200
(
326.965
326.122
325.424
325.179
325.089
325.226
325.373
325.646
325.819
325.835
325.805
325.708
325.515
325.202
324.877
324.538
324.379
324.556
325.04
325.729
322.938
322.311
321.773
321.579
321.459
321.595
321.744
321.959
322.188
322.258
322.329
322.092
321.962
321.645
321.304
321.019
320.99
321.159
321.492
322.163
319.16
318.668
318.205
318.043
318.076
318.129
318.31
318.426
318.537
318.665
318.694
318.599
318.47
318.202
317.904
317.736
317.569
317.7
318.081
318.499
315.5
315.164
314.791
314.673
314.661
314.706
314.884
314.964
315.086
315.118
315.166
315.107
315.038
314.821
314.507
314.368
314.334
314.454
314.663
315.046
312.042
311.648
311.432
311.339
311.272
311.247
311.418
311.574
311.719
311.762
311.778
311.673
311.596
311.455
311.355
311.145
311.19
311.125
311.362
311.612
308.468
308.32
308.167
308.041
308.042
308.094
308.113
308.187
308.315
308.462
308.377
308.324
308.272
308.195
308.006
307.964
307.965
307.936
308.129
308.294
305.11
304.97
304.865
304.815
304.781
304.777
304.885
304.946
304.909
305.054
305.076
304.975
304.886
304.911
304.768
304.738
304.757
304.729
304.81
305.026
301.727
301.645
301.666
301.66
301.653
301.687
301.633
301.676
301.673
301.704
301.707
301.683
301.667
301.605
301.638
301.625
301.574
301.537
301.649
301.699
326.976
326.19
325.554
325.273
325.122
325.283
325.563
325.788
325.942
325.975
326.09
326
325.761
325.365
324.908
324.704
324.546
324.696
325.034
325.843
323.024
322.366
321.915
321.574
321.618
321.646
321.878
322.092
322.289
322.436
322.351
322.324
322.061
321.738
321.484
321.223
321.127
321.104
321.571
322.077
319.281
318.648
318.339
318.094
318.063
318.135
318.298
318.568
318.726
318.827
318.799
318.696
318.523
318.28
317.976
317.811
317.699
317.793
318.117
318.533
315.604
315.168
314.796
314.737
314.64
314.805
314.94
315.104
315.22
315.233
315.296
315.259
315.091
314.929
314.655
314.534
314.345
314.56
314.611
315.061
312.021
311.691
311.535
311.31
311.389
311.428
311.446
311.672
311.776
311.846
311.917
311.745
311.674
311.475
311.421
311.203
311.224
311.179
311.428
311.632
308.562
308.317
308.13
308.102
308.143
308.208
308.24
308.291
308.373
308.481
308.465
308.415
308.282
308.199
308.105
308.018
307.939
308.034
308.12
308.254
305.056
304.992
304.842
304.825
304.782
304.893
304.934
304.976
304.951
304.972
305.051
305.025
305.07
304.895
304.871
304.832
304.732
304.813
304.852
304.967
301.73
301.645
301.72
301.596
301.594
301.631
301.667
301.683
301.691
301.753
301.734
301.766
301.769
301.673
301.651
301.596
301.612
301.633
301.58
301.686
327.028
326.321
325.651
325.337
325.405
325.491
325.725
326.084
326.254
326.356
326.451
326.256
326.044
325.59
325.276
324.841
324.756
324.796
325.21
325.976
323.123
322.446
321.914
321.755
321.687
321.938
322.15
322.344
322.508
322.61
322.691
322.591
322.332
322.049
321.683
321.411
321.212
321.39
321.668
322.207
319.347
318.813
318.46
318.205
318.219
318.372
318.554
318.754
319.029
319.126
319.057
318.941
318.765
318.473
318.24
317.907
317.843
317.89
318.244
318.655
315.735
315.274
314.9
314.82
314.808
314.921
315.033
315.18
315.385
315.532
315.488
315.472
315.25
315.018
314.852
314.615
314.487
314.588
314.833
315.136
312.078
311.72
311.533
311.402
311.405
311.558
311.639
311.784
311.951
311.93
312.009
311.919
311.778
311.673
311.444
311.35
311.22
311.292
311.487
311.781
308.675
308.308
308.155
308.16
308.091
308.204
308.196
308.367
308.487
308.57
308.538
308.551
308.436
308.351
308.212
308.067
308.029
308.025
308.107
308.279
305.141
305.043
304.923
304.796
304.887
304.864
305.016
305.059
305.036
305.109
305.14
305.148
305.054
304.95
304.82
304.859
304.812
304.817
304.897
304.916
301.771
301.638
301.552
301.69
301.64
301.627
301.625
301.677
301.657
301.665
301.736
301.662
301.726
301.68
301.646
301.578
301.576
301.62
301.674
301.621
327.318
326.578
325.912
325.698
325.704
325.84
326.194
326.414
326.741
326.906
326.917
326.78
326.431
326.035
325.463
325.338
325.12
325.169
325.488
326.211
323.394
322.701
322.176
322.087
321.996
322.128
322.415
322.728
322.888
323.093
323.088
322.921
322.764
322.39
322.046
321.681
321.56
321.571
322.038
322.459
319.466
318.992
318.671
318.435
318.39
318.53
318.787
319.044
319.282
319.361
319.441
319.226
319.098
318.789
318.53
318.222
318.052
318.181
318.482
318.871
315.812
315.388
315.072
314.971
315.013
315.097
315.224
315.451
315.613
315.768
315.737
315.728
315.528
315.281
315.107
314.78
314.694
314.807
314.981
315.235
312.175
311.859
311.663
311.596
311.607
311.687
311.783
311.997
312.206
312.25
312.205
312.178
312.145
311.808
311.724
311.568
311.435
311.462
311.686
311.869
308.676
308.473
308.27
308.296
308.183
308.309
308.375
308.507
308.566
308.634
308.659
308.6
308.626
308.428
308.264
308.184
308.135
308.129
308.235
308.478
305.231
305.045
304.924
304.951
304.952
305.033
305.056
305.114
305.193
305.194
305.222
305.181
305.146
305.104
304.961
304.859
304.87
304.978
304.997
305.034
301.807
301.669
301.647
301.65
301.664
301.653
301.666
301.745
301.786
301.7
301.826
301.742
301.801
301.649
301.697
301.68
301.586
301.661
301.678
301.667
327.72
326.989
326.284
326.048
326.043
326.266
326.545
326.886
327.158
327.336
327.394
327.284
326.898
326.574
325.97
325.704
325.47
325.577
326.002
326.637
323.693
323.079
322.575
322.431
322.32
322.512
322.744
323.035
323.299
323.445
323.546
323.38
323.122
322.766
322.424
322.076
321.9
321.888
322.295
322.802
319.835
319.265
318.906
318.75
318.707
318.876
319.119
319.386
319.566
319.745
319.902
319.7
319.506
319.137
318.794
318.594
318.409
318.461
318.774
319.058
316.05
315.625
315.277
315.136
315.25
315.357
315.522
315.725
315.917
316.089
316.115
316.03
315.948
315.657
315.285
315.148
315.016
315.063
315.353
315.56
312.389
312.116
311.873
311.705
311.668
311.846
312.047
312.208
312.317
312.403
312.485
312.455
312.358
312.145
311.868
311.74
311.573
311.699
311.775
312.031
308.773
308.649
308.407
308.358
308.38
308.478
308.568
308.63
308.805
308.853
308.89
308.827
308.732
308.58
308.392
308.324
308.306
308.31
308.382
308.469
305.26
305.144
305.036
304.929
305.037
304.979
305.139
305.175
305.29
305.314
305.335
305.318
305.195
305.162
305.038
304.997
304.939
304.964
305.069
305.086
301.806
301.69
301.628
301.727
301.632
301.69
301.709
301.751
301.715
301.871
301.782
301.768
301.828
301.782
301.693
301.647
301.624
301.647
301.67
301.726
328.271
327.507
326.843
326.644
326.592
326.791
327.064
327.412
327.691
327.896
327.978
327.915
327.568
327.15
326.69
326.305
326.079
326.159
326.522
327.09
324.049
323.537
323.038
322.835
322.795
322.972
323.149
323.525
323.76
324.005
324.035
324
323.672
323.427
322.989
322.633
322.449
322.351
322.831
323.185
320.129
319.618
319.258
319.024
319.2
319.207
319.508
319.835
319.971
320.162
320.244
320.159
319.873
319.593
319.237
318.919
318.826
318.866
319.086
319.574
316.313
315.969
315.689
315.5
315.532
315.604
315.808
315.998
316.233
316.354
316.372
316.405
316.204
315.938
315.727
315.421
315.282
315.377
315.551
315.842
312.607
312.254
312.077
311.951
312.016
312.059
312.316
312.372
312.598
312.693
312.661
312.698
312.537
312.338
312.18
312.023
311.872
311.907
312.013
312.264
308.894
308.684
308.586
308.534
308.554
308.622
308.733
308.852
308.983
309.028
309.06
309.073
308.883
308.764
308.619
308.47
308.453
308.37
308.576
308.849
305.361
305.23
305.145
305.073
305.091
305.177
305.262
305.335
305.37
305.335
305.47
305.315
305.368
305.259
305.189
305.127
305.029
305.175
305.133
305.217
301.724
301.743
301.784
301.666
301.725
301.704
301.822
301.831
301.818
301.87
301.819
301.843
301.773
301.774
301.788
301.726
301.71
301.736
301.789
301.715
328.708
328.084
327.546
327.091
327.238
327.373
327.628
327.92
328.362
328.545
328.645
328.487
328.118
327.78
327.261
326.826
326.627
326.675
327.172
327.642
324.54
323.952
323.572
323.308
323.337
323.49
323.682
324.081
324.36
324.586
324.595
324.535
324.228
323.836
323.482
323.06
322.829
323.055
323.294
323.709
320.458
319.969
319.733
319.48
319.453
319.641
319.821
320.178
320.41
320.583
320.685
320.513
320.312
320.081
319.738
319.473
319.32
319.335
319.593
319.926
316.697
316.229
316.024
315.85
315.827
316.025
316.138
316.436
316.623
316.74
316.796
316.733
316.526
316.348
316.061
315.834
315.674
315.723
315.879
316.113
312.81
312.574
312.392
312.225
312.225
312.328
312.511
312.676
312.811
312.95
313.091
312.986
312.847
312.593
312.383
312.228
312.194
312.151
312.358
312.487
309.114
308.914
308.747
308.685
308.803
308.817
308.87
309.065
309.079
309.268
309.292
309.23
309.09
308.979
308.819
308.685
308.657
308.629
308.782
308.939
305.432
305.324
305.265
305.183
305.202
305.296
305.314
305.365
305.45
305.53
305.527
305.552
305.475
305.377
305.375
305.236
305.226
305.186
305.272
305.324
301.713
301.716
301.732
301.775
301.72
301.702
301.838
301.858
301.865
301.905
301.866
301.858
301.801
301.749
301.784
301.774
301.782
301.703
301.842
301.768
329.347
328.657
328.154
327.881
327.89
328.006
328.184
328.584
328.863
329.199
329.276
329.244
328.89
328.368
327.964
327.582
327.396
327.554
327.782
328.357
325.052
324.625
324.085
323.894
323.907
323.991
324.28
324.585
324.806
325.039
325.142
325.031
324.789
324.439
324.125
323.671
323.573
323.591
323.807
324.277
321.05
320.548
320.14
320.062
319.93
320.133
320.349
320.733
320.83
321.059
321.189
321.102
320.896
320.502
320.155
319.97
319.909
319.879
320.037
320.33
317.021
316.621
316.382
316.233
316.239
316.31
316.543
316.763
316.939
317.12
317.133
317.138
316.989
316.703
316.464
316.226
316.059
316.059
316.278
316.544
313.085
312.922
312.556
312.543
312.564
312.556
312.748
312.962
313.099
313.261
313.286
313.315
313.075
312.943
312.854
312.58
312.418
312.426
312.65
312.88
309.269
309.158
309.021
308.861
308.826
309.002
309.12
309.23
309.347
309.473
309.484
309.454
309.394
309.146
309.1
308.978
308.912
308.831
309.085
309.13
305.489
305.429
305.384
305.306
305.346
305.434
305.461
305.469
305.563
305.625
305.677
305.649
305.59
305.565
305.438
305.397
305.259
305.328
305.392
305.41
301.767
301.875
301.809
301.81
301.718
301.808
301.827
301.836
301.841
301.857
301.864
301.89
301.896
301.827
301.843
301.847
301.803
301.777
301.802
301.837
330.002
329.39
328.869
328.495
328.475
328.688
328.943
329.294
329.622
329.804
329.939
329.817
329.413
329.119
328.679
328.307
328.053
328.343
328.534
329.035
325.712
325.132
324.734
324.474
324.391
324.544
324.773
325.058
325.43
325.604
325.711
325.607
325.337
324.988
324.627
324.413
324.145
324.254
324.499
324.949
321.49
321.091
320.67
320.548
320.521
320.595
320.726
321.087
321.29
321.555
321.613
321.528
321.24
321.071
320.719
320.467
320.3
320.372
320.542
320.879
317.422
317.061
316.85
316.594
316.593
316.741
316.998
317.149
317.409
317.624
317.698
317.57
317.351
317.073
316.791
316.659
316.48
316.535
316.827
317.03
313.43
313.171
312.999
312.813
312.806
312.902
313.052
313.267
313.487
313.565
313.62
313.537
313.373
313.254
313.084
312.866
312.868
312.869
312.963
313.109
309.513
309.316
309.235
309.114
309.167
309.188
309.278
309.389
309.513
309.614
309.701
309.582
309.611
309.433
309.249
309.186
309.153
309.132
309.294
309.398
305.745
305.76
305.461
305.478
305.455
305.461
305.535
305.637
305.757
305.786
305.754
305.806
305.695
305.636
305.532
305.454
305.454
305.52
305.567
305.619
301.862
301.863
301.767
301.797
301.851
301.875
301.871
301.809
301.879
301.965
301.896
301.914
301.972
301.926
301.883
301.877
301.861
301.799
301.804
301.934
330.767
330.136
329.654
329.305
329.213
329.384
329.621
329.906
330.251
330.448
330.602
330.46
330.112
329.8
329.399
329.159
328.899
328.904
329.309
329.715
326.31
325.838
325.316
325.168
325.06
325.199
325.392
325.689
325.92
326.178
326.321
326.167
325.897
325.654
325.295
325.07
324.832
324.861
325.181
325.562
321.953
321.504
321.189
321.013
321.016
321.065
321.384
321.608
321.74
322.011
322.06
322.027
321.77
321.498
321.162
320.999
320.935
320.9
321.119
321.493
317.781
317.454
317.176
317.047
317.055
317.159
317.244
317.543
317.731
317.955
317.942
317.939
317.753
317.512
317.273
317.134
316.984
316.998
317.089
317.377
313.767
313.514
313.344
313.255
313.181
313.276
313.406
313.534
313.726
313.831
313.874
313.871
313.674
313.512
313.383
313.259
313.1
313.157
313.289
313.493
309.752
309.643
309.477
309.43
309.38
309.436
309.531
309.608
309.767
309.841
309.875
309.876
309.689
309.645
309.502
309.435
309.33
309.354
309.518
309.639
305.922
305.691
305.626
305.646
305.612
305.647
305.74
305.783
305.804
305.898
305.915
305.946
305.864
305.759
305.735
305.656
305.559
305.576
305.656
305.741
301.938
301.911
301.867
301.885
301.868
301.917
301.825
301.972
302.031
301.98
302.019
302.009
301.999
301.961
301.912
301.807
301.862
301.843
301.918
301.934
331.522
330.91
330.428
330.068
330.001
330.099
330.24
330.576
330.866
331.111
331.138
331.067
330.925
330.436
330.038
329.879
329.624
329.765
330.058
330.488
326.932
326.467
325.988
325.763
325.663
325.726
325.917
326.304
326.602
326.735
326.786
326.688
326.467
326.105
325.933
325.626
325.499
325.547
325.832
326.256
322.54
322.176
321.777
321.567
321.55
321.61
321.769
322.044
322.265
322.435
322.536
322.47
322.352
321.94
321.782
321.509
321.362
321.457
321.643
321.973
318.311
317.888
317.698
317.514
317.457
317.527
317.762
317.95
318.116
318.294
318.291
318.279
318.147
317.935
317.695
317.529
317.503
317.446
317.669
317.89
314.114
313.843
313.676
313.58
313.485
313.613
313.731
313.796
313.974
314.137
314.173
314.107
314.038
313.894
313.686
313.566
313.453
313.549
313.707
313.903
310.074
309.86
309.746
309.559
309.637
309.683
309.798
309.822
309.907
310.079
310.117
310.049
310.062
309.995
309.714
309.652
309.608
309.621
309.675
309.863
306.041
305.954
305.767
305.762
305.785
305.746
305.831
305.961
305.982
306.015
306.01
306.068
306.068
305.976
305.881
305.784
305.814
305.8
305.827
305.941
301.992
301.969
301.928
301.956
301.913
301.965
301.935
301.956
302.001
302.093
302.055
302.021
301.984
301.959
301.942
301.985
301.927
301.956
301.909
301.99
332.386
331.704
331.2
330.853
330.728
330.784
331.01
331.202
331.575
331.749
331.84
331.688
331.481
331.177
330.772
330.535
330.41
330.488
330.861
331.364
327.653
327.099
326.803
326.46
326.335
326.394
326.543
326.9
327.163
327.328
327.323
327.25
327.058
326.734
326.502
326.23
326.137
326.246
326.54
326.943
323.128
322.67
322.31
322.004
322.079
322.159
322.353
322.452
322.674
322.861
322.868
322.83
322.706
322.474
322.267
322.066
321.926
321.996
322.256
322.626
318.709
318.462
318.155
317.981
317.919
318.043
318.142
318.306
318.445
318.628
318.659
318.581
318.537
318.336
318.155
317.967
317.849
317.947
318.066
318.43
314.484
314.249
314.015
313.961
313.908
314.003
314.02
314.207
314.32
314.395
314.407
314.404
314.327
314.187
314.005
313.916
313.826
313.851
313.993
314.178
310.263
310.103
309.922
309.96
309.922
309.882
309.961
310.01
310.243
310.28
310.249
310.244
310.299
310.092
309.922
309.906
309.906
309.79
309.948
310.048
306.131
306.039
305.911
305.905
305.851
305.964
306.004
306.046
306.088
306.214
306.163
306.146
306.098
306.079
305.982
305.898
305.962
305.963
306.006
306.063
302.106
302.028
302.025
301.929
301.932
302.014
301.979
302.035
302.062
302.087
302.044
302.041
302.052
302.046
302.05
301.954
301.945
302.004
301.931
302.025
333.107
332.538
332.012
331.725
331.547
331.645
331.668
331.894
332.157
332.403
332.403
332.37
332.082
331.848
331.499
331.386
331.231
331.244
331.716
332.193
328.368
327.841
327.365
327.187
327.05
327.075
327.197
327.515
327.605
327.777
327.829
327.769
327.637
327.354
327.1
326.871
326.819
326.899
327.221
327.525
323.724
323.217
322.912
322.708
322.694
322.738
322.777
323.03
323.19
323.348
323.418
323.374
323.186
322.997
322.708
322.587
322.484
322.673
322.812
323.142
319.196
318.837
318.584
318.42
318.408
318.434
318.543
318.648
318.868
318.905
319.049
318.998
318.824
318.702
318.47
318.311
318.373
318.349
318.54
318.82
314.774
314.604
314.324
314.235
314.281
314.272
314.34
314.505
314.574
314.737
314.762
314.666
314.579
314.518
314.274
314.272
314.192
314.201
314.328
314.432
310.547
310.365
310.209
310.057
310.169
310.197
310.318
310.274
310.455
310.451
310.559
310.523
310.385
310.378
310.244
310.2
310.159
310.034
310.216
310.346
306.303
306.209
306.104
306.118
306.085
306.069
306.112
306.157
306.208
306.282
306.296
306.231
306.276
306.168
306.164
306.094
306.12
306.022
306.116
306.144
302.137
302.079
302.021
301.996
301.971
302.014
302.019
302.055
302.12
302.05
302.054
302.038
302.088
302.032
302.085
302.03
302.063
301.944
302.082
302.063
333.984
333.384
332.816
332.517
332.298
332.337
332.419
332.629
332.746
332.906
333.028
332.907
332.725
332.485
332.271
331.994
332.004
332.171
332.506
332.97
329.02
328.595
328.051
327.809
327.636
327.701
327.804
327.936
328.197
328.313
328.35
328.308
328.135
327.908
327.617
327.528
327.475
327.548
327.882
328.311
324.263
323.85
323.597
323.302
323.142
323.224
323.315
323.499
323.66
323.724
323.774
323.785
323.566
323.437
323.263
323.124
323.075
323.098
323.456
323.799
319.639
319.367
319.121
318.937
318.904
318.898
318.991
319.039
319.226
319.345
319.336
319.329
319.229
319.119
318.878
318.848
318.719
318.791
318.983
319.264
315.227
314.947
314.821
314.706
314.576
314.629
314.649
314.762
314.893
314.861
315.055
315.001
314.831
314.709
314.686
314.6
314.482
314.654
314.793
314.906
310.777
310.623
310.438
310.45
310.392
310.444
310.438
310.487
310.481
310.663
310.695
310.612
310.638
310.551
310.503
310.402
310.35
310.383
310.557
310.627
306.432
306.351
306.242
306.139
306.17
306.271
306.278
306.304
306.345
306.406
306.405
306.358
306.331
306.294
306.272
306.175
306.196
306.227
306.268
306.368
302.135
302.089
302.124
302.072
302.085
302.1
302.075
302.104
302.122
302.232
302.167
302.133
302.102
302.157
302.15
302.03
302.113
302.051
302.124
302.142
334.817
334.265
333.65
333.358
333.083
333.151
333.227
333.3
333.489
333.574
333.554
333.596
333.378
333.213
332.922
332.814
332.868
333.016
333.399
333.806
329.78
329.219
328.869
328.507
328.366
328.336
328.433
328.547
328.709
328.827
328.918
328.71
328.617
328.49
328.392
328.171
328.126
328.404
328.614
328.992
324.927
324.492
324.094
323.885
323.832
323.808
323.893
323.949
324.209
324.215
324.174
324.164
324.088
323.891
323.767
323.656
323.678
323.804
323.997
324.365
320.16
319.838
319.586
319.37
319.322
319.319
319.384
319.443
319.585
319.647
319.756
319.598
319.513
319.451
319.337
319.243
319.191
319.254
319.588
319.684
315.624
315.279
315.16
314.983
314.918
315.037
314.894
314.997
315.179
315.267
315.222
315.273
315.208
315.098
314.94
314.844
314.892
314.964
315.119
315.263
311.051
310.885
310.747
310.626
310.604
310.577
310.699
310.703
310.779
310.797
310.803
310.837
310.796
310.733
310.629
310.631
310.557
310.649
310.766
310.835
306.612
306.513
306.456
306.359
306.311
306.337
306.359
306.346
306.464
306.505
306.44
306.461
306.429
306.496
306.443
306.362
306.312
306.403
306.503
306.55
302.25
302.221
302.127
302.13
302.152
302.177
302.232
302.143
302.142
302.146
302.165
302.144
302.178
302.105
302.167
302.136
302.13
302.112
302.2
302.188
335.636
335.102
334.517
334.163
333.923
333.889
333.868
333.986
334.106
334.236
334.113
334.169
333.974
333.868
333.649
333.652
333.651
333.781
334.09
334.605
330.465
329.985
329.578
329.148
329.085
329.033
329.106
329.087
329.267
329.325
329.276
329.373
329.096
329.067
328.882
328.899
328.918
329.031
329.304
329.703
325.483
325.068
324.69
324.448
324.41
324.339
324.328
324.48
324.546
324.575
324.679
324.679
324.514
324.382
324.343
324.224
324.223
324.401
324.635
324.933
320.692
320.302
320.126
319.854
319.83
319.697
319.799
319.939
319.969
320.025
320.019
320.08
319.963
319.827
319.732
319.68
319.639
319.778
320
320.171
315.902
315.724
315.492
315.364
315.269
315.264
315.331
315.34
315.418
315.515
315.591
315.544
315.425
315.36
315.308
315.268
315.163
315.303
315.43
315.607
311.362
311.156
311.006
310.95
310.912
310.855
310.923
310.927
310.947
311.054
311.068
311.039
311.006
310.901
310.877
310.853
310.887
310.876
310.944
311.169
306.768
306.697
306.636
306.552
306.518
306.574
306.556
306.573
306.573
306.616
306.615
306.613
306.566
306.505
306.503
306.51
306.566
306.541
306.507
306.715
302.296
302.217
302.197
302.17
302.209
302.177
302.244
302.168
302.183
302.214
302.186
302.181
302.168
302.205
302.176
302.168
302.184
302.193
302.218
302.219
336.513
335.937
335.437
335.042
334.833
334.647
334.615
334.688
334.737
334.853
334.818
334.758
334.709
334.559
334.413
334.364
334.386
334.68
335.035
335.502
331.256
330.771
330.291
330.004
329.721
329.762
329.642
329.826
329.77
329.912
329.948
329.827
329.817
329.639
329.565
329.5
329.501
329.76
330.124
330.43
326.087
325.607
325.29
325.142
324.991
324.915
324.921
324.938
325.058
325.17
325.153
325.012
324.963
324.978
324.766
324.771
324.816
324.882
325.207
325.463
321.081
320.793
320.553
320.439
320.284
320.185
320.185
320.339
320.393
320.421
320.385
320.409
320.375
320.19
320.194
320.126
320.173
320.206
320.456
320.658
316.295
316.135
315.862
315.753
315.529
315.568
315.601
315.609
315.69
315.77
315.759
315.803
315.727
315.646
315.587
315.492
315.546
315.707
315.887
316.09
311.584
311.514
311.305
311.162
311.158
311.139
311.141
311.053
311.214
311.158
311.108
311.164
311.158
311.141
311.125
311.025
311.119
311.206
311.293
311.42
306.873
306.858
306.751
306.67
306.615
306.656
306.713
306.738
306.735
306.756
306.78
306.742
306.694
306.628
306.672
306.67
306.609
306.746
306.833
306.804
302.34
302.328
302.326
302.253
302.215
302.173
302.19
302.2
302.24
302.275
302.257
302.236
302.214
302.257
302.185
302.26
302.266
302.197
302.226
302.311
337.429
336.803
336.234
335.817
335.636
335.412
335.439
335.46
335.437
335.509
335.494
335.409
335.336
335.226
335.118
335.099
335.251
335.49
335.787
336.336
331.952
331.521
331.004
330.703
330.475
330.33
330.318
330.425
330.4
330.529
330.452
330.444
330.315
330.257
330.158
330.075
330.116
330.438
330.723
331.134
326.711
326.291
325.882
325.704
325.438
325.421
325.359
325.493
325.466
325.518
325.505
325.452
325.472
325.335
325.319
325.313
325.345
325.525
325.785
326.145
321.653
321.271
320.983
320.806
320.719
320.669
320.663
320.681
320.763
320.749
320.785
320.847
320.688
320.59
320.548
320.537
320.555
320.677
320.908
321.21
316.819
316.453
316.27
316.112
315.982
315.904
316.013
316.039
316.004
316.016
316.027
316.013
316.038
315.919
315.908
315.906
315.946
316.056
316.162
316.339
311.898
311.778
311.598
311.373
311.381
311.318
311.28
311.413
311.361
311.486
311.39
311.511
311.416
311.417
311.397
311.371
311.338
311.393
311.478
311.649
307.112
306.988
306.916
306.855
306.727
306.787
306.841
306.773
306.889
306.841
306.88
306.86
306.732
306.855
306.765
306.793
306.755
306.813
306.865
307.029
302.443
302.388
302.336
302.315
302.33
302.291
302.251
302.25
302.257
302.254
302.322
302.269
302.269
302.345
302.233
302.286
302.273
302.262
302.301
302.411
338.173
337.554
337.042
336.586
336.334
336.205
336.157
336.115
336.148
336.183
336.13
336.065
335.957
335.925
335.828
335.905
336.025
336.198
336.608
337.149
332.613
332.15
331.619
331.313
331.11
331.007
330.974
330.928
330.968
330.96
330.974
330.986
330.838
330.722
330.83
330.762
330.836
331.14
331.423
331.836
327.325
326.865
326.465
326.208
326.06
325.998
325.944
326.001
325.898
326.039
325.919
325.981
325.925
325.88
325.789
325.756
325.89
325.991
326.356
326.633
322.05
321.797
321.458
321.308
321.081
321.042
321.041
321.038
321.127
320.976
321.135
321.043
320.996
320.962
320.947
320.984
321.037
321.212
321.45
321.675
316.996
316.747
316.648
316.445
316.277
316.221
316.273
316.321
316.266
316.268
316.41
316.256
316.251
316.263
316.249
316.243
316.301
316.268
316.496
316.623
312.075
311.924
311.769
311.635
311.606
311.593
311.541
311.57
311.597
311.593
311.594
311.622
311.529
311.538
311.589
311.454
311.606
311.688
311.786
311.886
307.186
307.142
307.091
306.908
306.956
306.955
306.909
306.928
307.032
306.944
306.891
306.912
306.9
306.948
306.957
306.92
306.935
307.012
307.032
307.104
302.4
302.336
302.393
302.287
302.336
302.266
302.316
302.3
302.27
302.447
302.277
302.37
302.355
302.387
302.287
302.327
302.302
302.31
302.391
302.431
338.828
338.224
337.629
337.294
336.999
336.755
336.72
336.621
336.644
336.619
336.566
336.605
336.473
336.418
336.355
336.526
336.568
336.834
337.234
337.745
333.109
332.599
332.152
331.863
331.623
331.431
331.36
331.286
331.426
331.444
331.422
331.284
331.279
331.238
331.167
331.217
331.348
331.502
331.886
332.314
327.675
327.229
326.933
326.601
326.381
326.407
326.243
326.265
326.275
326.308
326.346
326.213
326.18
326.229
326.113
326.161
326.268
326.46
326.686
327.073
322.352
322.062
321.762
321.613
321.423
321.364
321.349
321.313
321.325
321.274
321.301
321.32
321.252
321.233
321.241
321.265
321.28
321.442
321.676
321.95
317.23
317.031
316.811
316.653
316.655
316.534
316.508
316.452
316.519
316.528
316.515
316.416
316.451
316.439
316.391
316.418
316.548
316.546
316.626
316.915
312.23
312.047
311.918
311.747
311.757
311.758
311.611
311.708
311.727
311.73
311.762
311.745
311.647
311.699
311.672
311.664
311.739
311.842
311.914
312.075
307.355
307.263
307.117
307.049
307.056
307.047
307.023
307.002
306.981
306.941
307.058
307.039
306.948
306.941
306.964
306.961
307.049
307.022
307.111
307.215
302.422
302.447
302.379
302.304
302.36
302.353
302.37
302.266
302.344
302.321
302.364
302.296
302.45
302.358
302.314
302.304
302.325
302.35
302.434
302.463
)
;

boundaryField
{
    hotSide
    {
        type            fixedGradient;
        gradient        nonuniform List<scalar> 
400
(
321.511
322.87
325.591
329.677
335.133
341.965
350.181
359.788
370.794
383.208
397.037
412.289
428.971
447.088
466.647
487.651
510.105
534.011
559.372
586.191
323.738
325.08
327.767
331.802
337.194
343.949
352.078
361.591
372.498
384.81
398.537
413.687
430.268
448.289
467.755
488.672
511.043
534.872
560.161
586.913
326.149
327.47
330.116
334.091
339.406
346.071
354.099
363.503
374.296
386.491
400.101
415.136
431.606
449.52
468.885
489.706
511.988
535.735
560.948
587.63
328.704
330
332.597
336.503
341.73
348.292
356.205
365.485
376.15
388.215
401.695
416.604
432.954
450.753
470.009
490.73
512.919
536.579
561.714
588.325
331.33
332.599
335.142
338.97
344.099
350.546
358.332
367.477
378.003
389.928
403.271
418.047
434.27
451.949
471.095
491.712
513.807
537.382
562.439
588.978
333.918
335.158
337.643
341.389
346.414
352.74
360.392
369.397
379.779
391.562
404.765
419.407
435.503
453.065
472.101
492.618
514.622
538.114
563.096
589.569
336.321
337.531
339.959
343.622
348.544
354.751
362.274
371.142
381.385
393.031
406.101
420.618
436.595
454.047
472.983
493.409
515.33
538.747
563.663
590.076
338.36
339.543
341.92
345.509
350.339
356.44
363.847
372.595
382.718
394.244
407.2
421.608
437.485
454.844
473.695
494.045
515.897
539.253
564.114
590.478
339.852
341.015
343.352
346.885
351.645
357.665
364.985
373.643
383.675
395.113
407.984
422.312
438.116
455.407
474.197
494.491
516.294
539.606
564.428
590.758
340.643
341.795
344.11
347.613
352.334
358.311
365.584
374.193
384.176
395.567
408.393
422.679
438.443
455.699
474.456
494.722
516.498
539.788
564.589
590.901
340.643
341.795
344.11
347.613
352.334
358.311
365.584
374.193
384.176
395.567
408.393
422.679
438.443
455.699
474.456
494.722
516.498
539.788
564.589
590.901
339.852
341.015
343.352
346.885
351.645
357.665
364.985
373.643
383.675
395.113
407.984
422.312
438.116
455.407
474.197
494.491
516.294
539.606
564.428
590.758
338.36
339.543
341.92
345.509
350.339
356.44
363.847
372.595
382.718
394.244
407.2
421.608
437.485
454.844
473.695
494.045
515.897
539.253
564.114
590.478
336.321
337.531
339.959
343.622
348.544
354.751
362.274
371.142
381.385
393.031
406.101
420.618
436.595
454.047
472.983
493.409
515.33
538.747
563.663
590.076
333.918
335.158
337.643
341.389
346.414
352.74
360.392
369.397
379.779
391.562
404.765
419.407
435.503
453.065
472.101
492.618
514.622
538.114
563.096
589.569
331.33
332.599
335.142
338.97
344.099
350.546
358.332
367.477
378.003
389.928
403.271
418.047
434.27
451.949
471.095
491.712
513.807
537.382
562.439
588.978
328.704
330
332.597
336.503
341.73
348.292
356.205
365.485
376.15
388.215
401.695
416.604
432.954
450.753
470.009
490.73
512.919
536.579
561.714
588.325
326.149
327.47
330.116
334.091
339.406
346.071
354.099
363.503
374.296
386.491
400.101
415.136
431.606
449.52
468.885
489.706
511.988
535.735
560.948
587.63
323.738
325.08
327.767
331.802
337.194
343.949
352.078
361.591
372.498
384.81
398.537
413.687
430.268
448.289
467.755
488.672
511.043
534.872
560.161
586.913
321.511
322.87
325.591
329.677
335.133
341.965
350.181
359.788
370.794
383.208
397.037
412.289
428.971
447.088
466.647
487.651
510.105
534.011
559.372
586.191
)
;
    }
    coldSide
    {
        type            mixed;
        refValue        uniform 300;
        refGradient     uniform 0;
        valueFraction   uniform 0.991591;
        source          uniform 0;
        value           nonuniform List<scalar> 
400
(
300.015
300.015
300.015
300.015
300.015
300.014
300.014
300.015
300.016
300.016
300.017
300.018
300.018
300.018
300.019
300.019
300.02
300.021
300.02
300.02
300.014
300.014
300.014
300.014
300.014
300.015
300.014
300.016
300.016
300.016
300.017
300.017
300.017
300.018
300.019
300.019
300.02
300.02
300.02
300.021
300.014