/*--------------------------------*- C++ -*----------------------------------*\
| =========                 |                                                 |
| \\      /  F ield         | OpenFOAM: The Open Source CFD Toolbox           |
|  \\    /   O peration     | Version:  2212                                  |
|   \\  /    A nd           | Website:  www.openfoam.com                      |
|    \\/     M anipulation  |                                                 |
\*---------------------------------------------------------------------------*/
FoamFile
{
    version     2.0;
    format      ascii;
    arch        "LSB;label=32;scalar=64";
    class       volScalarField;
    location    "./ITHACAoutput/true/13.6";
    object      trueState;
}
// * * * * * * * * * * * * * * * * * * * * * * * * * * * * * * * * * * * * * //

dimensions      [0 0 0 1 0 0 0];

internalField   nonuniform List<scalar> 
3200
(
324.697
325.018
325.428
325.875
326.335
326.787
327.203
327.555
327.812
327.947
327.947
327.812
327.555
327.203
326.787
326.335
325.875
325.428
325.018
324.697
321.33
321.602
321.956
322.342
322.741
323.131
323.492
323.796
324.017
324.134
324.134
324.017
323.796
323.492
323.131
322.741
322.342
321.956
321.602
321.33
317.997
318.222
318.52
318.847
319.183
319.513
319.818
320.074
320.261
320.36
320.36
320.261
320.074
319.818
319.513
319.183
318.847
318.52
318.222
317.997
314.69
314.872
315.115
315.381
315.657
315.926
316.175
316.384
316.537
316.617
316.617
316.537
316.384
316.175
315.926
315.657
315.381
315.115
314.872
314.69
311.406
311.545
311.734
311.941
312.155
312.364
312.558
312.72
312.839
312.901
312.901
312.839
312.72
312.558
312.364
312.155
311.941
311.734
311.545
311.406
308.139
308.237
308.372
308.52
308.672
308.822
308.96
309.076
309.161
309.205
309.205
309.161
309.076
308.96
308.822
308.672
308.52
308.372
308.237
308.139
304.884
304.943
305.023
305.112
305.204
305.294
305.376
305.446
305.497
305.524
305.524
305.497
305.446
305.376
305.294
305.204
305.112
305.023
304.943
304.884
301.636
301.656
301.683
301.713
301.743
301.774
301.801
301.825
301.842
301.851
301.851
301.842
301.825
301.801
301.774
301.743
301.713
301.683
301.656
301.636
324.781
325.099
325.506
325.948
326.404
326.851
327.263
327.61
327.863
327.997
327.997
327.863
327.61
327.263
326.851
326.404
325.948
325.506
325.099
324.781
321.403
321.673
322.023
322.406
322.8
323.187
323.543
323.843
324.062
324.177
324.177
324.062
323.843
323.543
323.187
322.8
322.406
322.023
321.673
321.403
318.058
318.281
318.577
318.9
319.233
319.56
319.861
320.114
320.298
320.396
320.396
320.298
320.114
319.861
319.56
319.233
318.9
318.577
318.281
318.058
314.74
314.92
315.161
315.425
315.697
315.964
316.21
316.417
316.567
316.647
316.647
316.567
316.417
316.21
315.964
315.697
315.425
315.161
314.92
314.74
311.444
311.583
311.769
311.975
312.186
312.394
312.585
312.745
312.862
312.924
312.924
312.862
312.745
312.585
312.394
312.186
311.975
311.769
311.583
311.444
308.166
308.264
308.397
308.544
308.695
308.843
308.979
309.094
309.177
309.221
309.221
309.177
309.094
308.979
308.843
308.695
308.544
308.397
308.264
308.166
304.9
304.959
305.038
305.127
305.217
305.306
305.388
305.457
305.507
305.533
305.533
305.507
305.457
305.388
305.306
305.217
305.127
305.038
304.959
304.9
301.642
301.661
301.688
301.718
301.748
301.778
301.805
301.828
301.845
301.854
301.854
301.845
301.828
301.805
301.778
301.748
301.718
301.688
301.661
301.642
324.949
325.263
325.662
326.097
326.543
326.98
327.383
327.722
327.968
328.099
328.099
327.968
327.722
327.383
326.98
326.543
326.097
325.662
325.263
324.949
321.548
321.813
322.158
322.534
322.92
323.298
323.646
323.939
324.152
324.265
324.265
324.152
323.939
323.646
323.298
322.92
322.534
322.158
321.813
321.548
318.18
318.4
318.69
319.008
319.334
319.654
319.948
320.195
320.375
320.469
320.469
320.375
320.195
319.948
319.654
319.334
319.008
318.69
318.4
318.18
314.839
315.016
315.253
315.513
315.779
316.04
316.281
316.483
316.629
316.707
316.707
316.629
316.483
316.281
316.04
315.779
315.513
315.253
315.016
314.839
311.521
311.657
311.841
312.043
312.25
312.453
312.639
312.796
312.91
312.97
312.97
312.91
312.796
312.639
312.453
312.25
312.043
311.841
311.657
311.521
308.221
308.317
308.448
308.592
308.74
308.885
309.018
309.13
309.212
309.254
309.254
309.212
309.13
309.018
308.885
308.74
308.592
308.448
308.317
308.221
304.933
304.991
305.069
305.156
305.245
305.331
305.411
305.479
305.527
305.553
305.553
305.527
305.479
305.411
305.331
305.245
305.156
305.069
304.991
304.933
301.653
301.672
301.698
301.727
301.757
301.786
301.813
301.836
301.852
301.861
301.861
301.852
301.836
301.813
301.786
301.757
301.727
301.698
301.672
301.653
325.203
325.509
325.899
326.321
326.754
327.178
327.566
327.893
328.131
328.256
328.256
328.131
327.893
327.566
327.178
326.754
326.321
325.899
325.509
325.203
321.766
322.025
322.361
322.727
323.102
323.468
323.804
324.087
324.292
324.4
324.4
324.292
324.087
323.804
323.468
323.102
322.727
322.361
322.025
321.766
318.363
318.578
318.861
319.17
319.487
319.796
320.08
320.319
320.492
320.583
320.583
320.492
320.319
320.08
319.796
319.487
319.17
318.861
318.578
318.363
314.989
315.162
315.392
315.645
315.904
316.157
316.389
316.584
316.725
316.799
316.799
316.725
316.584
316.389
316.157
315.904
315.645
315.392
315.162
314.989
311.637
311.77
311.949
312.145
312.347
312.543
312.723
312.875
312.984
313.042
313.042
312.984
312.875
312.723
312.543
312.347
312.145
311.949
311.77
311.637
308.303
308.397
308.525
308.665
308.809
308.949
309.078
309.186
309.264
309.306
309.306
309.264
309.186
309.078
308.949
308.809
308.665
308.525
308.397
308.303
304.983
305.039
305.115
305.199
305.286
305.37
305.447
305.512
305.559
305.584
305.584
305.559
305.512
305.447
305.37
305.286
305.199
305.115
305.039
304.983
301.669
301.688
301.714
301.742
301.771
301.799
301.825
301.847
301.862
301.871
301.871
301.862
301.847
301.825
301.799
301.771
301.742
301.714
301.688
301.669
325.543
325.84
326.216
326.624
327.04
327.446
327.817
328.129
328.355
328.474
328.474
328.355
328.129
327.817
327.446
327.04
326.624
326.216
325.84
325.543
322.059
322.31
322.635
322.987
323.348
323.699
324.02
324.289
324.485
324.587
324.587
324.485
324.289
324.02
323.699
323.348
322.987
322.635
322.31
322.059
318.609
318.818
319.091
319.389
319.694
319.991
320.262
320.489
320.654
320.741
320.741
320.654
320.489
320.262
319.991
319.694
319.389
319.091
318.818
318.609
315.189
315.357
315.58
315.823
316.072
316.315
316.537
316.722
316.857
316.928
316.928
316.857
316.722
316.537
316.315
316.072
315.823
315.58
315.357
315.189
311.792
311.921
312.094
312.283
312.477
312.665
312.838
312.982
313.087
313.142
313.142
313.087
312.982
312.838
312.665
312.477
312.283
312.094
311.921
311.792
308.414
308.505
308.629
308.764
308.902
309.037
309.16
309.263
309.337
309.377
309.377
309.337
309.263
309.16
309.037
308.902
308.764
308.629
308.505
308.414
305.049
305.103
305.177
305.258
305.341
305.422
305.496
305.558
305.603
305.626
305.626
305.603
305.558
305.496
305.422
305.341
305.258
305.177
305.103
305.049
301.692
301.71
301.735
301.762
301.79
301.817
301.841
301.862
301.877
301.885
301.885
301.877
301.862
301.841
301.817
301.79
301.762
301.735
301.71
301.692
325.97
326.256
326.617
327.007
327.403
327.788
328.14
328.434
328.647
328.758
328.758
328.647
328.434
328.14
327.788
327.403
327.007
326.617
326.256
325.97
322.426
322.668
322.98
323.317
323.661
323.994
324.298
324.552
324.736
324.832
324.832
324.736
324.552
324.298
323.994
323.661
323.317
322.98
322.668
322.426
318.918
319.119
319.382
319.667
319.957
320.239
320.496
320.71
320.865
320.947
320.947
320.865
320.71
320.496
320.239
319.957
319.667
319.382
319.119
318.918
315.44
315.602
315.816
316.049
316.287
316.517
316.727
316.902
317.029
317.096
317.096
317.029
316.902
316.727
316.517
316.287
316.049
315.816
315.602
315.44
311.987
312.111
312.277
312.458
312.643
312.822
312.985
313.122
313.22
313.272
313.272
313.22
313.122
312.985
312.822
312.643
312.458
312.277
312.111
311.987
308.553
308.641
308.759
308.888
309.02
309.148
309.265
309.362
309.432
309.469
309.469
309.432
309.362
309.265
309.148
309.02
308.888
308.759
308.641
308.553
305.132
305.184
305.256
305.333
305.412
305.489
305.559
305.618
305.66
305.682
305.682
305.66
305.618
305.559
305.489
305.412
305.333
305.256
305.184
305.132
301.719
301.737
301.761
301.787
301.813
301.839
301.862
301.882
301.896
301.904
301.904
301.896
301.882
301.862
301.839
301.813
301.787
301.761
301.737
301.719
326.485
326.758
327.103
327.473
327.848
328.21
328.54
328.814
329.013
329.116
329.116
329.013
328.814
328.54
328.21
327.848
327.473
327.103
326.758
326.485
322.87
323.101
323.398
323.718
324.043
324.357
324.642
324.88
325.051
325.141
325.141
325.051
324.88
324.642
324.357
324.043
323.718
323.398
323.101
322.87
319.291
319.483
319.734
320.004
320.279
320.544
320.785
320.986
321.13
321.206
321.206
321.13
320.986
320.785
320.544
320.279
320.004
319.734
319.483
319.291
315.744
315.899
316.103
316.324
316.549
316.765
316.962
317.127
317.245
317.307
317.307
317.245
317.127
316.962
316.765
316.549
316.324
316.103
315.899
315.744
312.223
312.341
312.5
312.672
312.846
313.015
313.168
313.295
313.387
313.435
313.435
313.387
313.295
313.168
313.015
312.846
312.672
312.5
312.341
312.223
308.721
308.805
308.917
309.04
309.165
309.285
309.395
309.486
309.551
309.586
309.586
309.551
309.486
309.395
309.285
309.165
309.04
308.917
308.805
308.721
305.233
305.283
305.351
305.424
305.499
305.571
305.637
305.692
305.731
305.752
305.752
305.731
305.692
305.637
305.571
305.499
305.424
305.351
305.283
305.233
301.753
301.77
301.793
301.817
301.842
301.867
301.889
301.907
301.92
301.927
301.927
301.92
301.907
301.889
301.867
301.842
301.817
301.793
301.77
301.753
327.091
327.35
327.676
328.025
328.377
328.715
329.022
329.276
329.459
329.555
329.555
329.459
329.276
329.022
328.715
328.377
328.025
327.676
327.35
327.091
323.391
323.611
323.892
324.194
324.498
324.791
325.057
325.277
325.435
325.518
325.518
325.435
325.277
325.057
324.791
324.498
324.194
323.892
323.611
323.391
319.73
319.912
320.149
320.404
320.662
320.91
321.134
321.32
321.454
321.524
321.524
321.454
321.32
321.134
320.91
320.662
320.404
320.149
319.912
319.73
316.102
316.248
316.441
316.65
316.861
317.063
317.247
317.399
317.508
317.565
317.565
317.508
317.399
317.247
317.063
316.861
316.65
316.441
316.248
316.102
312.499
312.612
312.762
312.924
313.088
313.245
313.388
313.506
313.591
313.636
313.636
313.591
313.506
313.388
313.245
313.088
312.924
312.762
312.612
312.499
308.918
308.998
309.104
309.22
309.337
309.45
309.552
309.636
309.697
309.728
309.728
309.697
309.636
309.552
309.45
309.337
309.22
309.104
308.998
308.918
305.351
305.399
305.463
305.532
305.602
305.67
305.731
305.782
305.818
305.837
305.837
305.818
305.782
305.731
305.67
305.602
305.532
305.463
305.399
305.351
301.793
301.809
301.83
301.853
301.877
301.9
301.92
301.937
301.949
301.956
301.956
301.949
301.937
301.92
301.9
301.877
301.853
301.83
301.809
301.793
327.788
328.033
328.34
328.666
328.994
329.308
329.591
329.825
329.992
330.08
330.08
329.992
329.825
329.591
329.308
328.994
328.666
328.34
328.033
327.788
323.991
324.199
324.463
324.746
325.03
325.302
325.546
325.749
325.894
325.97
325.97
325.894
325.749
325.546
325.302
325.03
324.746
324.463
324.199
323.991
320.235
320.407
320.63
320.869
321.109
321.339
321.546
321.717
321.84
321.904
321.904
321.84
321.717
321.546
321.339
321.109
320.869
320.63
320.407
320.235
316.513
316.651
316.833
317.028
317.225
317.413
317.582
317.722
317.822
317.875
317.875
317.822
317.722
317.582
317.413
317.225
317.028
316.833
316.651
316.513
312.818
312.924
313.066
313.217
313.37
313.516
313.648
313.757
313.835
313.875
313.875
313.835
313.757
313.648
313.516
313.37
313.217
313.066
312.924
312.818
309.145
309.22
309.321
309.429
309.538
309.643
309.737
309.815
309.87
309.899
309.899
309.87
309.815
309.737
309.643
309.538
309.429
309.321
309.22
309.145
305.487
305.532
305.592
305.657
305.723
305.786
305.842
305.889
305.922
305.94
305.94
305.922
305.889
305.842
305.786
305.723
305.657
305.592
305.532
305.487
301.838
301.853
301.874
301.895
301.917
301.938
301.957
301.973
301.984
301.99
301.99
301.984
301.973
301.957
301.938
301.917
301.895
301.874
301.853
301.838
328.578
328.809
329.096
329.399
329.703
329.992
330.252
330.465
330.618
330.697
330.697
330.618
330.465
330.252
329.992
329.703
329.399
329.096
328.809
328.578
324.672
324.867
325.114
325.377
325.64
325.891
326.115
326.3
326.432
326.501
326.501
326.432
326.3
326.115
325.891
325.64
325.377
325.114
324.867
324.672
320.807
320.969
321.178
321.4
321.623
321.835
322.024
322.181
322.293
322.351
322.351
322.293
322.181
322.024
321.835
321.623
321.4
321.178
320.969
320.807
316.979
317.109
317.279
317.461
317.643
317.816
317.972
318.1
318.191
318.239
318.239
318.191
318.1
317.972
317.816
317.643
317.461
317.279
317.109
316.979
313.179
313.279
313.411
313.553
313.694
313.829
313.95
314.049
314.12
314.157
314.157
314.12
314.049
313.95
313.829
313.694
313.553
313.411
313.279
313.179
309.402
309.473
309.567
309.668
309.769
309.866
309.952
310.023
310.074
310.1
310.1
310.074
310.023
309.952
309.866
309.769
309.668
309.567
309.473
309.402
305.641
305.684
305.74
305.801
305.861
305.919
305.971
306.014
306.044
306.06
306.06
306.044
306.014
305.971
305.919
305.861
305.801
305.74
305.684
305.641
301.89
301.904
301.923
301.943
301.964
301.983
302
302.015
302.025
302.03
302.03
302.025
302.015
302
301.983
301.964
301.943
301.923
301.904
301.89
329.463
329.678
329.946
330.227
330.507
330.772
331.008
331.202
331.34
331.412
331.412
331.34
331.202
331.008
330.772
330.507
330.227
329.946
329.678
329.463
325.433
325.616
325.846
326.09
326.332
326.562
326.767
326.935
327.054
327.117
327.117
327.054
326.935
326.767
326.562
326.332
326.09
325.846
325.616
325.433
321.448
321.6
321.794
322
322.205
322.399
322.572
322.715
322.816
322.868
322.868
322.816
322.715
322.572
322.399
322.205
322
321.794
321.6
321.448
317.501
317.623
317.781
317.95
318.117
318.276
318.418
318.534
318.617
318.66
318.66
318.617
318.534
318.418
318.276
318.117
317.95
317.781
317.623
317.501
313.584
313.677
313.8
313.931
314.062
314.185
314.296
314.386
314.45
314.484
314.484
314.45
314.386
314.296
314.185
314.062
313.931
313.8
313.677
313.584
309.691
309.757
309.845
309.938
310.031
310.12
310.198
310.263
310.309
310.333
310.333
310.309
310.263
310.198
310.12
310.031
309.938
309.845
309.757
309.691
305.814
305.854
305.906
305.963
306.019
306.072
306.119
306.158
306.185
306.2
306.2
306.185
306.158
306.119
306.072
306.019
305.963
305.906
305.854
305.814
301.948
301.961
301.979
301.998
302.016
302.034
302.05
302.063
302.072
302.077
302.077
302.072
302.063
302.05
302.034
302.016
301.998
301.979
301.961
301.948
330.444
330.644
330.892
331.151
331.408
331.649
331.864
332.04
332.164
332.229
332.229
332.164
332.04
331.864
331.649
331.408
331.151
330.892
330.644
330.444
326.278
326.447
326.661
326.886
327.108
327.318
327.504
327.656
327.763
327.819
327.819
327.763
327.656
327.504
327.318
327.108
326.886
326.661
326.447
326.278
322.159
322.3
322.48
322.67
322.858
323.035
323.192
323.321
323.412
323.46
323.46
323.412
323.321
323.192
323.035
322.858
322.67
322.48
322.3
322.159
318.08
318.193
318.34
318.495
318.649
318.794
318.923
319.028
319.103
319.141
319.141
319.103
319.028
318.923
318.794
318.649
318.495
318.34
318.193
318.08
314.033
314.12
314.233
314.354
314.474
314.587
314.687
314.769
314.827
314.857
314.857
314.827
314.769
314.687
314.587
314.474
314.354
314.233
314.12
314.033
310.01
310.072
310.153
310.24
310.325
310.406
310.477
310.536
310.577
310.599
310.599
310.577
310.536
310.477
310.406
310.325
310.24
310.153
310.072
310.01
306.006
306.043
306.091
306.143
306.195
306.243
306.286
306.321
306.346
306.359
306.359
306.346
306.321
306.286
306.243
306.195
306.143
306.091
306.043
306.006
302.012
302.024
302.041
302.058
302.075
302.091
302.106
302.118
302.126
302.13
302.13
302.126
302.118
302.106
302.091
302.075
302.058
302.041
302.024
302.012
331.521
331.707
331.936
332.174
332.408
332.628
332.822
332.98
333.092
333.15
333.15
333.092
332.98
332.822
332.628
332.408
332.174
331.936
331.707
331.521
327.205
327.363
327.56
327.767
327.97
328.16
328.328
328.465
328.562
328.612
328.612
328.562
328.465
328.328
328.16
327.97
327.767
327.56
327.363
327.205
322.939
323.07
323.236
323.411
323.583
323.744
323.886
324.002
324.084
324.127
324.127
324.084
324.002
323.886
323.744
323.583
323.411
323.236
323.07
322.939
318.715
318.821
318.956
319.099
319.24
319.371
319.488
319.583
319.65
319.684
319.684
319.65
319.583
319.488
319.371
319.24
319.099
318.956
318.821
318.715
314.525
314.606
314.711
314.822
314.932
315.034
315.125
315.199
315.251
315.278
315.278
315.251
315.199
315.125
315.034
314.932
314.822
314.711
314.606
314.525
310.362
310.419
310.494
310.573
310.651
310.725
310.789
310.842
310.879
310.899
310.899
310.879
310.842
310.789
310.725
310.651
310.573
310.494
310.419
310.362
306.216
306.251
306.296
306.343
306.39
306.434
306.473
306.505
306.527
306.539
306.539
306.527
306.505
306.473
306.434
306.39
306.343
306.296
306.251
306.216
302.083
302.094
302.109
302.125
302.141
302.156
302.169
302.179
302.187
302.191
302.191
302.187
302.179
302.169
302.156
302.141
302.125
302.109
302.094
302.083
332.695
332.867
333.078
333.296
333.509
333.708
333.883
334.025
334.125
334.177
334.177
334.125
334.025
333.883
333.708
333.509
333.296
333.078
332.867
332.695
328.216
328.362
328.544
328.733
328.918
329.09
329.242
329.365
329.451
329.496
329.496
329.451
329.365
329.242
329.09
328.918
328.733
328.544
328.362
328.216
323.79
323.911
324.064
324.224
324.381
324.527
324.655
324.759
324.832
324.87
324.87
324.832
324.759
324.655
324.527
324.381
324.224
324.064
323.911
323.79
319.408
319.506
319.63
319.761
319.889
320.009
320.114
320.199
320.259
320.29
320.29
320.259
320.199
320.114
320.009
319.889
319.761
319.63
319.506
319.408
315.062
315.137
315.234
315.336
315.435
315.528
315.61
315.676
315.723
315.747
315.747
315.723
315.676
315.61
315.528
315.435
315.336
315.234
315.137
315.062
310.744
310.797
310.866
310.939
311.01
311.076
311.135
311.182
311.216
311.233
311.233
311.216
311.182
311.135
311.076
311.01
310.939
310.866
310.797
310.744
306.446
306.477
306.519
306.562
306.605
306.645
306.68
306.709
306.729
306.739
306.739
306.729
306.709
306.68
306.645
306.605
306.562
306.519
306.477
306.446
302.159
302.17
302.184
302.198
302.213
302.226
302.238
302.247
302.254
302.258
302.258
302.254
302.247
302.238
302.226
302.213
302.198
302.184
302.17
302.159
333.965
334.124
334.317
334.516
334.71
334.89
335.047
335.174
335.264
335.31
335.31
335.264
335.174
335.047
334.89
334.71
334.516
334.317
334.124
333.965
329.31
329.444
329.611
329.783
329.951
330.107
330.244
330.354
330.431
330.471
330.471
330.431
330.354
330.244
330.107
329.951
329.783
329.611
329.444
329.31
324.71
324.821
324.962
325.108
325.25
325.382
325.498
325.591
325.657
325.691
325.691
325.657
325.591
325.498
325.382
325.25
325.108
324.962
324.821
324.71
320.157
320.247
320.362
320.481
320.598
320.706
320.8
320.876
320.93
320.958
320.958
320.93
320.876
320.8
320.706
320.598
320.481
320.362
320.247
320.157
315.643
315.712
315.801
315.894
315.984
316.068
316.142
316.201
316.243
316.264
316.264
316.243
316.201
316.142
316.068
315.984
315.894
315.801
315.712
315.643
311.158
311.207
311.27
311.336
311.401
311.461
311.514
311.556
311.586
311.601
311.601
311.586
311.556
311.514
311.461
311.401
311.336
311.27
311.207
311.158
306.694
306.723
306.761
306.801
306.84
306.876
306.907
306.933
306.951
306.96
306.96
306.951
306.933
306.907
306.876
306.84
306.801
306.761
306.723
306.694
302.242
302.252
302.265
302.278
302.291
302.303
302.314
302.323
302.329
302.332
302.332
302.329
302.323
302.314
302.303
302.291
302.278
302.265
302.252
302.242
335.326
335.472
335.649
335.831
336.007
336.169
336.31
336.424
336.504
336.545
336.545
336.504
336.424
336.31
336.169
336.007
335.831
335.649
335.472
335.326
330.481
330.604
330.757
330.914
331.067
331.208
331.33
331.429
331.498
331.534
331.534
331.498
331.429
331.33
331.208
331.067
330.914
330.757
330.604
330.481
325.695
325.797
325.926
326.059
326.188
326.307
326.411
326.495
326.553
326.583
326.583
326.553
326.495
326.411
326.307
326.188
326.059
325.926
325.797
325.695
320.959
321.041
321.146
321.255
321.361
321.458
321.543
321.612
321.66
321.684
321.684
321.66
321.612
321.543
321.458
321.361
321.255
321.146
321.041
320.959
316.264
316.327
316.408
316.493
316.575
316.651
316.717
316.771
316.808
316.827
316.827
316.808
316.771
316.717
316.651
316.575
316.493
316.408
316.327
316.264
311.6
311.645
311.703
311.763
311.822
311.876
311.924
311.962
311.988
312.002
312.002
311.988
311.962
311.924
311.876
311.822
311.763
311.703
311.645
311.6
306.959
306.986
307.02
307.057
307.092
307.125
307.153
307.176
307.192
307.2
307.2
307.192
307.176
307.153
307.125
307.092
307.057
307.02
306.986
306.959
302.331
302.34
302.352
302.364
302.376
302.387
302.396
302.404
302.409
302.412
302.412
302.409
302.404
302.396
302.387
302.376
302.364
302.352
302.34
302.331
336.765
336.899
337.061
337.227
337.386
337.533
337.66
337.761
337.833
337.869
337.869
337.833
337.761
337.66
337.533
337.386
337.227
337.061
336.899
336.765
331.716
331.83
331.97
332.113
332.252
332.379
332.489
332.577
332.639
332.671
332.671
332.639
332.577
332.489
332.379
332.252
332.113
331.97
331.83
331.716
326.732
326.826
326.944
327.066
327.183
327.29
327.384
327.458
327.511
327.537
327.537
327.511
327.458
327.384
327.29
327.183
327.066
326.944
326.826
326.732
321.802
321.878
321.974
322.073
322.169
322.257
322.334
322.395
322.438
322.46
322.46
322.438
322.395
322.334
322.257
322.169
322.073
321.974
321.878
321.802
316.916
316.974
317.049
317.126
317.201
317.269
317.329
317.376
317.41
317.427
317.427
317.41
317.376
317.329
317.269
317.201
317.126
317.049
316.974
316.916
312.064
312.105
312.159
312.214
312.267
312.316
312.359
312.393
312.417
312.429
312.429
312.417
312.393
312.359
312.316
312.267
312.214
312.159
312.105
312.064
307.237
307.261
307.293
307.327
307.359
307.388
307.414
307.434
307.448
307.456
307.456
307.448
307.434
307.414
307.388
307.359
307.327
307.293
307.261
307.237
302.424
302.432
302.443
302.454
302.465
302.475
302.483
302.49
302.495
302.498
302.498
302.495
302.49
302.483
302.475
302.465
302.454
302.443
302.432
302.424
338.246
338.37
338.518
338.67
338.814
338.946
339.061
339.152
339.216
339.249
339.249
339.216
339.152
339.061
338.946
338.814
338.67
338.518
338.37
338.246
332.983
333.087
333.216
333.347
333.472
333.587
333.686
333.766
333.821
333.849
333.849
333.821
333.766
333.686
333.587
333.472
333.347
333.216
333.087
332.983
327.791
327.878
327.986
328.097
328.203
328.3
328.385
328.452
328.499
328.523
328.523
328.499
328.452
328.385
328.3
328.203
328.097
327.986
327.878
327.791
322.66
322.729
322.818
322.908
322.995
323.075
323.144
323.199
323.238
323.257
323.257
323.238
323.199
323.144
323.075
322.995
322.908
322.818
322.729
322.66
317.578
317.631
317.7
317.77
317.838
317.9
317.954
317.997
318.027
318.042
318.042
318.027
317.997
317.954
317.9
317.838
317.77
317.7
317.631
317.578
312.534
312.572
312.621
312.671
312.72
312.764
312.803
312.833
312.855
312.866
312.866
312.855
312.833
312.803
312.764
312.72
312.671
312.621
312.572
312.534
307.518
307.54
307.57
307.6
307.629
307.656
307.679
307.697
307.71
307.717
307.717
307.71
307.697
307.679
307.656
307.629
307.6
307.57
307.54
307.518
302.518
302.526
302.536
302.546
302.556
302.564
302.572
302.578
302.583
302.585
302.585
302.583
302.578
302.572
302.564
302.556
302.546
302.536
302.526
302.518
339.678
339.792
339.929
340.068
340.2
340.321
340.424
340.507
340.565
340.594
340.594
340.565
340.507
340.424
340.321
340.2
340.068
339.929
339.792
339.678
334.192
334.289
334.407
334.528
334.643
334.747
334.838
334.91
334.96
334.985
334.985
334.96
334.91
334.838
334.747
334.643
334.528
334.407
334.289
334.192
328.791
328.871
328.971
329.073
329.171
329.26
329.336
329.397
329.44
329.462
329.462
329.44
329.397
329.336
329.26
329.171
329.073
328.971
328.871
328.791
323.462
323.527
323.608
323.692
323.772
323.845
323.908
323.958
323.993
324.01
324.01
323.993
323.958
323.908
323.845
323.772
323.692
323.608
323.527
323.462
318.192
318.241
318.305
318.37
318.432
318.489
318.538
318.577
318.604
318.618
318.618
318.604
318.577
318.538
318.489
318.432
318.37
318.305
318.241
318.192
312.968
313.003
313.048
313.095
313.139
313.18
313.215
313.243
313.262
313.272
313.272
313.262
313.243
313.215
313.18
313.139
313.095
313.048
313.003
312.968
307.776
307.797
307.824
307.852
307.879
307.904
307.925
307.941
307.953
307.959
307.959
307.953
307.941
307.925
307.904
307.879
307.852
307.824
307.797
307.776
302.604
302.611
302.621
302.63
302.639
302.647
302.654
302.66
302.664
302.666
302.666
302.664
302.66
302.654
302.647
302.639
302.63
302.621
302.611
302.604
340.809
340.916
341.045
341.175
341.299
341.412
341.508
341.585
341.638
341.666
341.666
341.638
341.585
341.508
341.412
341.299
341.175
341.045
340.916
340.809
335.111
335.202
335.314
335.427
335.535
335.633
335.717
335.784
335.831
335.855
335.855
335.831
335.784
335.717
335.633
335.535
335.427
335.314
335.202
335.111
329.527
329.603
329.698
329.794
329.886
329.969
330.041
330.098
330.138
330.158
330.158
330.138
330.098
330.041
329.969
329.886
329.794
329.698
329.603
329.527
324.038
324.099
324.177
324.256
324.331
324.4
324.459
324.505
324.538
324.555
324.555
324.538
324.505
324.459
324.4
324.331
324.256
324.177
324.099
324.038
318.624
318.671
318.732
318.793
318.852
318.906
318.952
318.988
319.014
319.027
319.027
319.014
318.988
318.952
318.906
318.852
318.793
318.732
318.671
318.624
313.269
313.302
313.345
313.389
313.431
313.47
313.503
313.529
313.547
313.557
313.557
313.547
313.529
313.503
313.47
313.431
313.389
313.345
313.302
313.269
307.954
307.974
308
308.026
308.052
308.075
308.095
308.11
308.121
308.127
308.127
308.121
308.11
308.095
308.075
308.052
308.026
308
307.974
307.954
302.664
302.67
302.679
302.688
302.696
302.704
302.711
302.716
302.72
302.722
302.722
302.72
302.716
302.711
302.704
302.696
302.688
302.679
302.67
302.664
)
;

boundaryField
{
    hotSide
    {
        type            fixedGradient;
        gradient        nonuniform List<scalar> 
400
(
272.326
273.285
275.209
278.102
281.974
286.838
292.707
299.596
307.521
316.496
326.536
337.657
349.87
363.188
377.62
393.174
409.86
427.681
446.643
466.75
276.551
277.477
279.335
282.132
285.882
290.601
296.306
303.017
310.753
319.535
329.38
340.307
352.331
365.465
379.721
395.11
411.639
429.314
448.14
468.121
281.123
282.01
283.789
286.473
290.078
294.625
300.139
306.643
314.162
322.723
332.347
343.056
354.868
367.8
381.864
397.072
413.431
430.95
449.632
469.48
285.967
286.807
288.496
291.048
294.486
298.837
304.131
310.401
317.678
325.991
335.371
345.841
357.424
370.137
383.996
399.013
415.196
432.552
451.085
470.798
290.947
291.735
293.321
295.726
298.978
303.112
308.166
314.179
321.192
329.241
338.359
348.577
359.92
372.407
386.055
400.877
416.881
434.074
452.458
472.037
295.856
296.588
298.065
300.313
303.368
307.272
312.073
317.821
324.561
332.338
341.192
351.156
362.259
374.522
387.963
402.595
418.426
435.463
453.706
473.158
300.413
301.089
302.457
304.549
307.408
311.086
315.641
321.129
327.607
335.125
343.727
353.452
364.33
376.385
389.636
404.094
419.769
436.664
454.781
474.119
304.28
304.906
306.176
308.127
310.812
314.289
318.625
323.886
330.133
337.425
345.81
355.33
366.017
377.897
390.987
405.3
420.844
437.623
455.636
474.882
307.11
307.697
308.892
310.737
313.288
316.613
320.784
325.873
331.949
339.073
347.297
356.666
367.213
378.964
391.938
406.147
421.597
438.292
456.231
475.412
308.61
309.176
310.33
312.116
314.595
317.838
321.92
326.917
332.9
339.934
348.073
357.361
367.834
379.517
392.43
406.584
421.985
438.636
456.537
475.683
308.61
309.176
310.33
312.116
314.595
317.838
321.92
326.917
332.9
339.934
348.073
357.361
367.834
379.517
392.43
406.584
421.985
438.636
456.537
475.683
307.11
307.697
308.892
310.737
313.288
316.613
320.784
325.873
331.949
339.073
347.297
356.666
367.213
378.964
391.938
406.147
421.597
438.292
456.231
475.412
304.28
304.906
306.176
308.127
310.812
314.289
318.625
323.886
330.133
337.425
345.81
355.33
366.017
377.897
390.987
405.3
420.844
437.623
455.636
474.882
300.413
301.089
302.457
304.549
307.408
311.086
315.641
321.129
327.607
335.125
343.727
353.452
364.33
376.385
389.636
404.094
419.769
436.664
454.781
474.119
295.856
296.588
298.065
300.313
303.368
307.272
312.073
317.821
324.561
332.338
341.192
351.156
362.259
374.522
387.963
402.595
418.426
435.463
453.706
473.158
290.947
291.735
293.321
295.726
298.978
303.112
308.166
314.179
321.192
329.241
338.359
348.577
359.92
372.407
386.055
400.877
416.881
434.074
452.458
472.037
285.967
286.807
288.496
291.048
294.486
298.837
304.131
310.401
317.678
325.991
335.371
345.841
357.424
370.137
383.996
399.013
415.196
432.552
451.085
470.798
281.123
282.01
283.789
286.473
290.078
294.625
300.139
306.643
314.162
322.723
332.347
343.056
354.868
367.8
381.864
397.072
413.431
430.95
449.632
469.48
276.551
277.477
279.335
282.132
285.882
290.601
296.306
303.017
310.753
319.535
329.38
340.307
352.331
365.465
379.721
395.11
411.639
429.314
448.14
468.121
272.326
273.285
275.209
278.102
281.974
286.838
292.707
299.596
307.521
316.496
326.536
337.657
349.87
363.188
377.62
393.174
409.86
427.681
446.643
466.75
)
;
    }
    coldSide
    {
        type            mixed;
        refValue        uniform 300;
        refGradient     uniform 0;
        valueFraction   uniform 0.991591;
        source          uniform 0;
        value           nonuniform List<scalar> 
400
(
300.014
300.014
300.014
300.014
300.014
300.014
300.015
300.015
300.015
300.016
300.016
300.017
300.018
300.018
300.019
300.02
300.02
300.021
300.022
300.022
300.014
300.014
300.014
300.014
300.014
300.015
300.015
300.015
300.016
300.016
300.016
300.017
300.018
300.018
300.019
300.02
300.02
300.021
300.022
300.022
300.014
300.014
300.014
300.014
300.015