/*--------------------------------*- C++ -*----------------------------------*\
| =========                 |                                                 |
| \\      /  F ield         | OpenFOAM: The Open Source CFD Toolbox           |
|  \\    /   O peration     | Version:  2212                                  |
|   \\  /    A nd           | Website:  www.openfoam.com                      |
|    \\/     M anipulation  |                                                 |
\*---------------------------------------------------------------------------*/
FoamFile
{
    version     2.0;
    format      ascii;
    arch        "LSB;label=32;scalar=64";
    class       volScalarField;
    location    "0";
    object      T;
}
// * * * * * * * * * * * * * * * * * * * * * * * * * * * * * * * * * * * * * //

dimensions      [0 0 0 1 0 0 0];

internalField   nonuniform List<scalar> 
3200
(
336.286
335.539
334.924
334.767
335.155
335.858
336.728
337.669
338.426
338.823
339.026
339.144
338.805
338.225
337.776
337.146
336.781
336.899
337.383
338.319
331.582
330.985
330.434
330.314
330.647
331.24
331.985
332.823
333.462
333.811
333.981
334.083
333.821
333.304
332.938
332.404
332.099
332.218
332.594
333.404
326.806
326.338
325.872
325.762
326.058
326.553
327.188
327.908
328.416
328.733
328.881
328.969
328.746
328.304
328.019
327.578
327.289
327.426
327.735
328.403
321.987
321.635
321.265
321.163
321.391
321.804
322.338
322.926
323.304
323.596
323.728
323.802
323.628
323.24
323.037
322.681
322.406
322.571
322.817
323.33
317.148
316.877
316.588
316.539
316.686
317.011
317.415
317.881
318.146
318.407
318.518
318.603
318.449
318.143
317.972
317.721
317.477
317.642
317.808
318.207
312.282
312.093
311.883
311.854
311.953
312.194
312.462
312.816
312.988
313.193
313.255
313.361
313.207
313.005
312.866
312.697
312.508
312.657
312.758
313.037
307.393
307.285
307.148
307.143
307.19
307.34
307.49
307.704
307.818
307.948
307.963
308.047
307.949
307.846
307.745
307.639
307.518
307.625
307.679
307.838
302.478
302.445
302.388
302.395
302.402
302.461
302.508
302.576
302.625
302.673
302.672
302.704
302.66
302.63
302.601
302.552
302.519
302.56
302.575
302.624
336.677
335.688
335.199
335.142
335.612
336.313
337.251
338.14
338.906
339.37
339.662
339.746
339.407
338.867
338.244
337.595
337.098
337.276
337.719
338.471
331.929
331.112
330.706
330.642
331.042
331.631
332.42
333.222
333.896
334.269
334.54
334.632
334.334
333.847
333.369
332.801
332.371
332.544
332.9
333.542
327.116
326.475
326.114
326.048
326.403
326.897
327.546
328.224
328.801
329.126
329.358
329.45
329.162
328.764
328.397
327.906
327.537
327.684
327.976
328.515
322.239
321.743
321.464
321.376
321.707
322.096
322.608
323.167
323.642
323.937
324.115
324.185
323.94
323.634
323.317
322.939
322.64
322.757
323.007
323.427
317.34
316.951
316.761
316.678
316.95
317.23
317.632
318.043
318.432
318.673
318.804
318.888
318.674
318.441
318.157
317.907
317.681
317.768
317.96
318.281
312.413
312.143
312.003
311.937
312.134
312.338
312.607
312.901
313.199
313.362
313.46
313.534
313.352
313.189
312.989
312.814
312.675
312.717
312.872
313.094
307.47
307.319
307.215
307.168
307.29
307.415
307.573
307.764
307.948
308.033
308.077
308.144
308.023
307.916
307.811
307.711
307.631
307.661
307.752
307.858
302.509
302.459
302.411
302.404
302.441
302.471
302.53
302.599
302.658
302.694
302.7
302.737
302.692
302.651
302.629
302.586
302.574
302.576
302.608
302.638
337.125
336.196
335.607
335.699
336.289
337.014
337.913
338.944
339.674
340.225
340.599
340.651
340.277
339.746
338.979
338.166
337.716
337.668
338.178
338.961
332.341
331.561
331.032
331.105
331.616
332.239
333.028
333.916
334.524
334.993
335.361
335.391
335.078
334.624
333.979
333.255
332.891
332.879
333.312
333.959
327.495
326.849
326.406
326.443
326.867
327.39
328.065
328.798
329.302
329.717
330.046
330.063
329.814
329.452
328.893
328.278
327.976
328.003
328.347
328.885
322.58
322.065
321.734
321.709
322.068
322.503
323.065
323.646
324.058
324.417
324.663
324.66
324.482
324.197
323.743
323.226
323.017
323.02
323.321
323.741
317.622
317.217
316.964
316.944
317.215
317.57
318.006
318.461
318.751
319.059
319.232
319.222
319.11
318.875
318.521
318.142
317.961
317.95
318.204
318.521
312.618
312.33
312.154
312.144
312.341
312.572
312.898
313.216
313.429
313.642
313.763
313.759
313.668
313.514
313.251
313.012
312.877
312.837
313.044
313.254
307.59
307.419
307.314
307.307
307.429
307.562
307.767
307.959
308.075
308.185
308.253
308.255
308.204
308.135
307.975
307.831
307.772
307.701
307.854
307.989
302.547
302.489
302.446
302.453
302.502
302.538
302.606
302.668
302.718
302.749
302.77
302.765
302.751
302.73
302.674
302.628
302.608
302.577
302.642
302.683
337.875
336.887
336.39
336.428
337.099
337.871
338.89
339.777
340.662
341.289
341.638
341.72
341.353
340.78
339.832
339.031
338.609
338.431
338.881
339.671
332.957
332.139
331.705
331.723
332.314
332.971
333.868
334.643
335.403
335.898
336.212
336.31
335.99
335.523
334.706
334.009
333.666
333.519
333.924
334.543
327.989
327.338
326.947
326.948
327.477
328.047
328.776
329.432
330.066
330.458
330.747
330.842
330.564
330.171
329.488
328.907
328.645
328.515
328.874
329.362
322.975
322.465
322.142
322.146
322.579
323.045
323.626
324.166
324.675
324.982
325.236
325.307
325.085
324.761
324.223
323.746
323.554
323.458
323.736
324.113
317.919
317.552
317.286
317.292
317.619
318.007
318.436
318.858
319.221
319.456
319.669
319.757
319.56
319.304
318.925
318.515
318.41
318.316
318.532
318.82
312.826
312.592
312.382
312.37
312.621
312.904
313.199
313.503
313.73
313.919
314.077
314.156
314.006
313.837
313.561
313.269
313.202
313.126
313.271
313.485
307.699
307.59
307.446
307.438
307.595
307.765
307.949
308.121
308.254
308.359
308.474
308.529
308.423
308.326
308.153
307.995
307.942
307.903
307.986
308.105
302.579
302.553
302.503
302.503
302.557
302.6
302.661
302.728
302.77
302.806
302.841
302.86
302.831
302.796
302.736
302.692
302.664
302.647
302.694
302.725
338.675
337.812
337.386
337.436
338.078
338.805
339.924
340.914
341.816
342.59
342.974
342.959
342.475
341.757
340.987
340.263
339.622
339.476
339.883
340.617
333.657
332.947
332.587
332.612
333.175
333.783
334.759
335.612
336.371
337.055
337.387
337.396
336.986
336.338
335.696
335.065
334.562
334.429
334.801
335.4
328.561
328.017
327.728
327.703
328.195
328.733
329.518
330.255
330.87
331.441
331.712
331.754
331.406
330.861
330.325
329.795
329.407
329.286
329.619
330.082
323.432
323.01
322.772
322.738
323.149
323.606
324.226
324.829
325.354
325.755
326.029
326.057
325.8
325.328
324.888
324.437
324.159
324.059
324.358
324.705
318.266
317.965
317.763
317.732
318.044
318.424
318.891
319.354
319.793
320.044
320.302
320.326
320.118
319.769
319.42
319.057
318.867
318.788
319.026
319.282
313.062
312.871
312.732
312.705
312.902
313.204
313.528
313.852
314.177
314.347
314.54
314.543
314.399
314.176
313.906
313.658
313.513
313.459
313.608
313.796
307.845
307.741
307.672
307.653
307.759
307.954
308.14
308.318
308.54
308.612
308.74
308.748
308.671
308.531
308.371
308.214
308.136
308.114
308.182
308.307
302.629
302.592
302.586
302.566
302.61
302.668
302.738
302.782
302.862
302.887
302.929
302.928
302.925
302.861
302.802
302.76
302.733
302.726
302.735
302.798
339.732
338.913
338.597
338.7
339.231
340.091
341.209
342.105
343.123
343.86
344.297
344.235
343.754
343.049
342.263
341.441
340.799
340.634
341.047
341.676
334.546
333.883
333.616
333.695
334.149
334.885
335.863
336.641
337.507
338.179
338.532
338.49
338.089
337.478
336.813
336.119
335.561
335.431
335.816
336.32
329.323
328.792
328.561
328.605
329.024
329.63
330.462
331.119
331.825
332.43
332.693
332.679
332.35
331.832
331.292
330.706
330.236
330.147
330.508
330.862
324.055
323.624
323.457
323.476
323.863
324.325
325
325.531
326.111
326.579
326.809
326.823
326.545
326.137
325.678
325.231
324.848
324.778
325.086
325.348
318.754
318.411
318.292
318.312
318.631
318.974
319.511
319.897
320.342
320.718
320.887
320.902
320.73
320.392
320.021
319.689
319.41
319.363
319.599
319.763
313.422
313.175
313.097
313.099
313.334
313.577
313.963
314.246
314.565
314.84
314.941
314.948
314.858
314.593
314.344
314.103
313.915
313.883
314.02
314.14
308.067
307.921
307.886
307.87
308.006
308.167
308.388
308.576
308.752
308.93
308.983
308.988
308.935
308.779
308.616
308.481
308.379
308.354
308.444
308.478
302.71
302.654
302.647
302.635
302.682
302.741
302.813
302.876
302.936
302.996
303.008
303.008
303.002
302.953
302.886
302.841
302.812
302.808
302.827
302.837
341.042
340.259
339.953
340.1
340.6
341.393
342.312
343.437
344.342
345.216
345.817
345.701
345.228
344.35
343.507
342.628
342.245
342.008
342.263
342.949
335.693
335.038
334.829
334.905
335.339
336.031
336.824
337.78
338.555
339.318
339.847
339.76
339.379
338.603
337.872
337.139
336.831
336.633
336.853
337.429
330.284
329.724
329.609
329.633
330.028
330.607
331.251
332.052
332.709
333.359
333.805
333.749
333.446
332.774
332.179
331.567
331.324
331.17
331.376
331.829
324.849
324.401
324.343
324.307
324.649
325.118
325.641
326.283
326.841
327.329
327.737
327.683
327.441
326.855
326.424
325.913
325.719
325.646
325.802
326.149
319.382
319.031
319.006
318.94
319.212
319.586
319.978
320.484
320.926
321.305
321.631
321.586
321.421
320.932
320.592
320.198
320.079
320.038
320.153
320.367
313.871
313.623
313.615
313.56
313.761
314.007
314.291
314.661
314.996
315.263
315.486
315.456
315.364
314.988
314.754
314.465
314.398
314.361
314.434
314.559
308.342
308.188
308.187
308.146
308.276
308.426
308.584
308.817
309.033
309.191
309.323
309.309
309.231
309.021
308.878
308.703
308.669
308.637
308.688
308.747
302.796
302.742
302.747
302.732
302.774
302.828
302.879
302.963
303.032
303.085
303.131
303.121
303.09
303.024
302.974
302.921
302.918
302.894
302.919
302.934
342.415
341.842
341.451
341.535
342.011
342.8
343.727
344.814
345.765
346.543
347.188
347.04
346.525
345.756
344.878
344.054
343.577
343.338
343.639
344.207
336.925
336.435
336.108
336.146
336.592
337.209
338.021
339.008
339.793
340.458
341.043
340.894
340.481
339.822
339.079
338.37
337.99
337.814
338.063
338.509
331.357
330.953
330.665
330.703
331.079
331.57
332.269
333.149
333.753
334.332
334.843
334.683
334.376
333.813
333.201
332.606
332.301
332.185
332.367
332.73
325.725
325.404
325.182
325.191
325.507
325.895
326.472
327.201
327.691
328.153
328.615
328.457
328.213
327.734
327.235
326.763
326.54
326.442
326.61
326.901
320.06
319.806
319.662
319.629
319.899
320.199
320.641
321.2
321.588
321.916
322.305
322.189
322.017
321.619
321.232
320.887
320.72
320.629
320.802
321
314.353
314.192
314.094
314.042
314.27
314.46
314.765
315.16
315.457
315.68
315.954
315.906
315.783
315.458
315.178
314.98
314.833
314.774
314.902
315.039
308.632
308.521
308.477
308.466
308.58
308.716
308.883
309.109
309.3
309.414
309.589
309.561
309.493
309.285
309.116
309.015
308.907
308.887
308.966
309.058
302.886
302.859
302.848
302.842
302.871
302.92
302.976
303.048
303.118
303.144
303.216
303.205
303.179
303.117
303.049
303.02
302.993
302.987
303.003
303.036
343.955
343.378
342.982
343.034
343.425
343.974
345.105
346.115
347.081
347.904
348.521
348.408
347.907
347.213
346.266
345.344
344.929
344.729
344.938
345.5
338.241
337.788
337.437
337.473
337.774
338.241
339.24
340.127
340.937
341.648
342.19
342.081
341.662
341.095
340.292
339.508
339.144
338.99
339.164
339.655
332.46
332.115
331.834
331.854
332.05
332.459
333.325
334.079
334.753
335.333
335.818
335.706
335.363
334.897
334.247
333.572
333.28
333.17
333.31
333.73
326.626
326.371
326.132
326.143
326.284
326.633
327.348
327.96
328.525
328.957
329.391
329.277
329.002
328.632
328.119
327.586
327.346
327.229
327.391
327.706
320.754
320.585
320.368
320.387
320.493
320.777
321.315
321.801
322.243
322.536
322.924
322.813
322.618
322.324
321.934
321.518
321.356
321.241
321.404
321.593
314.831
314.76
314.578
314.603
314.674
314.862
315.257
315.604
315.912
316.099
316.39
316.323
316.198
315.98
315.705
315.407
315.318
315.21
315.356
315.468
308.925
308.889
308.756
308.793
308.824
308.943
309.163
309.376
309.555
309.665
309.845
309.822
309.755
309.615
309.438
309.264
309.224
309.138
309.244
309.308
302.995
302.978
302.94
302.96
302.96
303
303.072
303.143
303.214
303.252
303.306
303.307
303.278
303.224
303.165
303.105
303.093
303.054
303.095
303.117
345.633
344.954
344.584
344.565
344.926
345.465
346.538
347.528
348.452
349.277
349.705
349.729
349.262
348.445
347.712
346.794
346.294
346.045
346.32
346.977
339.69
339.143
338.827
338.807
339.079
339.564
340.456
341.35
342.093
342.852
343.213
343.265
342.851
342.163
341.566
340.727
340.323
340.107
340.359
340.924
333.704
333.246
333.018
332.981
333.161
333.594
334.354
335.131
335.717
336.365
336.697
336.725
336.367
335.813
335.308
334.592
334.266
334.098
334.312
334.776
327.679
327.304
327.121
327.075
327.2
327.581
328.198
328.817
329.284
329.809
330.112
330.138
329.825
329.405
328.948
328.404
328.143
328.02
328.168
328.562
321.592
321.312
321.171
321.122
321.236
321.504
321.996
322.466
322.824
323.195
323.473
323.509
323.234
322.944
322.566
322.145
321.964
321.851
321.985
322.295
315.454
315.283
315.166
315.114
315.21
315.398
315.747
316.068
316.332
316.588
316.812
316.808
316.62
316.398
316.154
315.849
315.747
315.646
315.735
315.953
309.301
309.206
309.131
309.103
309.15
309.274
309.478
309.658
309.826
309.956
310.119
310.1
309.993
309.856
309.721
309.537
309.481
309.41
309.483
309.586
303.127
303.083
303.071
303.062
303.067
303.113
303.179
303.24
303.297
303.341
303.4
303.39
303.347
303.308
303.257
303.2
303.182
303.155
303.186
303.219
347.152
346.561
346.217
346.171
346.417
347.016
347.942
348.903
349.757
350.499
350.973
350.955
350.425
349.726
348.983
348.137
347.685
347.535
347.738
348.221
341.027
340.513
340.228
340.191
340.388
340.913
341.71
342.537
343.259
343.906
344.317
344.299
343.862
343.267
342.649
341.917
341.538
341.406
341.596
341.998
334.839
334.405
334.158
334.121
334.3
334.721
335.425
336.096
336.707
337.255
337.59
337.601
337.226
336.73
336.211
335.591
335.299
335.185
335.366
335.703
328.6
328.237
328.032
328.023
328.152
328.484
329.055
329.595
330.101
330.578
330.831
330.846
330.539
330.124
329.684
329.222
328.961
328.87
329.032
329.312
322.305
322.026
321.844
321.861
321.941
322.229
322.653
323.067
323.435
323.857
324.018
324.036
323.808
323.489
323.118
322.781
322.566
322.53
322.635
322.866
315.952
315.794
315.614
315.661
315.692
315.932
316.214
316.497
316.758
317.062
317.18
317.19
317.044
316.794
316.553
316.321
316.152
316.133
316.21
316.363
309.594
309.484
309.39
309.412
309.429
309.58
309.759
309.92
310.071
310.261
310.335
310.321
310.259
310.084
309.955
309.813
309.72
309.691
309.74
309.845
303.219
303.172
303.14
303.153
303.155
303.219
303.276
303.331
303.375
303.439
303.463
303.452
303.447
303.377
303.335
303.298
303.265
303.26
303.268
303.289
348.636
348.228
347.741
347.648
347.97
348.517
349.297
350.129
351.033
351.659
352.169
352.107
351.625
350.978
350.303
349.541
349.045
348.927
349.321
349.687
342.334
341.953
341.537
341.466
341.743
342.183
342.893
343.612
344.361
344.924
345.37
345.307
344.901
344.336
343.783
343.119
342.711
342.638
342.959
343.285
335.941
335.602
335.256
335.229
335.462
335.804
336.4
337.001
337.624
338.128
338.494
338.457
338.12
337.623
337.163
336.592
336.256
336.239
336.511
336.793
329.498
329.209
328.942
328.933
329.143
329.361
329.83
330.37
330.849
331.293
331.569
331.54
331.269
330.885
330.471
330.017
329.747
329.762
329.971
330.215
323.003
322.771
322.539
322.577
322.726
322.884
323.243
323.654
324.049
324.381
324.605
324.585
324.365
324.085
323.737
323.395
323.202
323.238
323.386
323.562
316.472
316.301
316.119
316.181
316.262
316.378
316.623
316.925
317.206
317.452
317.593
317.605
317.431
317.237
316.953
316.734
316.6
316.651
316.736
316.87
309.896
309.795
309.67
309.734
309.779
309.837
310.004
310.182
310.349
310.504
310.57
310.59
310.454
310.362
310.184
310.04
309.996
310.032
310.058
310.146
303.313
303.29
303.246
303.267
303.28
303.293
303.351
303.406
303.474
303.531
303.543
303.55
303.502
303.487
303.414
303.355
303.351
303.365
303.37
303.407
350.294
349.727
349.285
349.265
349.51
350.117
350.811
351.405
352.294
352.79
353.296
353.179
352.796
352.287
351.475
350.82
350.467
350.457
350.702
351.064
343.749
343.259
342.872
342.88
343.094
343.61
344.179
344.699
345.474
345.9
346.358
346.271
345.938
345.502
344.799
344.245
343.958
343.964
344.178
344.487
337.13
336.73
336.399
336.414
336.598
337.022
337.482
337.943
338.578
338.958
339.336
339.281
338.988
338.634
338.054
337.591
337.342
337.371
337.559
337.801
330.503
330.142
329.881
329.903
330.021
330.368
330.759
331.127
331.611
331.958
332.261
332.23
331.973
331.714
331.213
330.857
330.654
330.696
330.843
331.038
323.797
323.497
323.297
323.317
323.396
323.671
323.966
324.251
324.604
324.89
325.147
325.118
324.939
324.721
324.337
324.06
323.924
323.941
324.055
324.209
317.028
316.829
316.674
316.703
316.748
316.921
317.139
317.357
317.569
317.797
317.998
317.975
317.846
317.711
317.43
317.237
317.109
317.149
317.218
317.336
310.251
310.128
310.032
310.047
310.088
310.152
310.292
310.435
310.56
310.703
310.817
310.805
310.733
310.656
310.478
310.376
310.275
310.298
310.346
310.431
303.434
303.406
303.371
303.369
303.382
303.392
303.453
303.506
303.541
303.594
303.63
303.619
303.611
303.571
303.511
303.469
303.445
303.452
303.462
303.496
351.938
351.282
350.891
350.917
351.081
351.527
352.202
352.776
353.382
353.959
354.351
354.224
353.923
353.426
352.777
352.103
351.912
351.964
352.148
352.512
345.178
344.616
344.286
344.314
344.422
344.838
345.425
345.916
346.431
346.936
347.279
347.161
346.912
346.505
345.937
345.369
345.236
345.265
345.447
345.748
338.356
337.855
337.581
337.628
337.704
338.067
338.544
339.01
339.398
339.837
340.144
340.012
339.83
339.462
339.026
338.55
338.425
338.477
338.625
338.891
331.472
331.04
330.83
330.887
330.913
331.227
331.612
332.023
332.316
332.662
332.912
332.814
332.699
332.364
332.044
331.667
331.551
331.591
331.728
331.915
324.55
324.203
324.028
324.076
324.095
324.376
324.644
324.983
325.172
325.44
325.641
325.572
325.509
325.212
324.974
324.718
324.634
324.646
324.76
324.903
317.579
317.323
317.185
317.226
317.241
317.453
317.656
317.908
318.002
318.203
318.353
318.312
318.267
318.037
317.868
317.694
317.631
317.641
317.731
317.823
310.579
310.418
310.329
310.344
310.364
310.492
310.623
310.798
310.81
310.948
311.035
310.993
310.991
310.829
310.747
310.643
310.614
310.61
310.665
310.724
303.542
303.506
303.474
303.467
303.482
303.517
303.564
303.62
303.621
303.674
303.705
303.686
303.69
303.636
303.605
303.577
303.56
303.559
303.58
303.599
353.608
352.915
352.558
352.471
352.614
352.981
353.491
354.063
354.604
355.085
355.416
355.285
354.962
354.494
353.974
353.662
353.333
353.373
353.671
354.103
346.62
346.039
345.729
345.673
345.764
346.123
346.53
347.039
347.494
347.907
348.214
348.083
347.842
347.413
346.974
346.716
346.454
346.524
346.751
347.129
339.59
339.099
338.808
338.78
338.848
339.179
339.487
339.937
340.318
340.679
340.94
340.797
340.635
340.264
339.924
339.681
339.462
339.55
339.729
340.043
332.479
332.099
331.846
331.825
331.875
332.17
332.393
332.789
333.087
333.382
333.571
333.451
333.352
333.047
332.789
332.539
332.395
332.489
332.625
332.874
325.311
325.046
324.822
324.817
324.869
325.082
325.271
325.568
325.804
326.015
326.179
326.062
326.009
325.774
325.598
325.381
325.278
325.368
325.444
325.612
318.113
317.922
317.762
317.76
317.797
317.965
318.102
318.301
318.463
318.592
318.729
318.657
318.632
318.43
318.336
318.175
318.11
318.184
318.217
318.325
310.895
310.768
310.688
310.684
310.71
310.81
310.905
311.018
311.089
311.175
311.258
311.239
311.22
311.08
311.018
310.944
310.898
310.946
310.933
310.996
303.664
303.605
303.586
303.584
303.597
303.617
303.667
303.702
303.716
303.74
303.779
303.773
303.768
303.709
303.688
303.678
303.663
303.666
303.655
303.682
355.282
354.643
354.149
353.975
354.074
354.419
354.796
355.402
355.822
356.261
356.326
356.129
355.939
355.616
355.107
354.952
354.672
354.732
355.054
355.499
348.094
347.56
347.102
346.975
347.082
347.331
347.677
348.194
348.564
348.955
349.007
348.841
348.676
348.388
347.977
347.848
347.59
347.679
347.961
348.35
340.809
340.385
339.963
339.881
339.994
340.155
340.466
340.9
341.229
341.547
341.593
341.473
341.322
341.079
340.761
340.635
340.412
340.523
340.754
341.077
333.449
333.177
332.799
332.731
332.797
332.947
333.196
333.554
333.818
334.089
334.123
334.016
333.897
333.721
333.464
333.368
333.159
333.283
333.466
333.712
326.053
325.881
325.575
325.516
325.551
325.708
325.884
326.193
326.355
326.568
326.587
326.52
326.419
326.302
326.111
326.043
325.862
325.964
326.099
326.29
318.632
318.524
318.298
318.264
318.28
318.407
318.527
318.753
318.861
318.998
319.026
318.988
318.901
318.837
318.71
318.654
318.528
318.598
318.694
318.823
311.206
311.133
310.997
310.975
310.979
311.075
311.147
311.279
311.344
311.414
311.431
311.411
311.358
311.325
311.247
311.218
311.121
311.194
311.253
311.314
303.757
303.737
303.676
303.682
303.672
303.713
303.745
303.773
303.797
303.817
303.83
303.828
303.809
303.799
303.776
303.76
303.732
303.761
303.777
303.793
356.855
356.294
355.817
355.561
355.585
355.753
356.145
356.519
356.997
357.172
357.465
357.187
356.988
356.723
356.325
356.348
356.029
356.074
356.54
356.907
349.424
349.002
348.553
348.354
348.364
348.486
348.832
349.155
349.577
349.735
349.992
349.751
349.573
349.372
349.028
349.076
348.799
348.842
349.263
349.561
341.926
341.615
341.201
341.058
341.078
341.154
341.449
341.751
342.089
342.237
342.433
342.242
342.092
341.927
341.648
341.697
341.469
341.5
341.855
342.11
334.404
334.152
333.808
333.706
333.709
333.769
333.992
334.262
334.542
334.648
334.806
334.663
334.526
334.41
334.181
334.234
334.039
334.064
334.36
334.583
326.822
326.623
326.359
326.295
326.257
326.32
326.499
326.701
326.933
326.991
327.143
327.029
326.937
326.825
326.645
326.701
326.537
326.569
326.796
326.975
319.212
319.062
318.888
318.817
318.79
318.84
318.959
319.099
319.28
319.291
319.415
319.362
319.279
319.208
319.076
319.104
318.994
319.039
319.167
319.323
311.565
311.46
311.377
311.311
311.277
311.344
311.393
311.473
311.584
311.585
311.665
311.641
311.602
311.549
311.468
311.472
311.415
311.444
311.512
311.642
303.873
303.843
303.82
303.796
303.788
303.81
303.822
303.838
303.878
303.882
303.906
303.908
303.897
303.873
303.853
303.838
303.843
303.826
303.859
303.902
358.471
357.797
357.356
357.073
356.99
357.043
357.38
357.62
357.959
358.236
358.253
358.213
357.989
357.874
357.572
357.419
357.181
357.391
357.831
358.295
350.843
350.272
349.903
349.671
349.574
349.597
349.911
350.1
350.432
350.654
350.679
350.649
350.438
350.376
350.121
349.979
349.771
349.948
350.377
350.776
343.135
342.69
342.371
342.199
342.098
342.099
342.346
342.516
342.805
342.973
343.037
342.996
342.808
342.785
342.572
342.454
342.291
342.416
342.796
343.162
335.384
335.025
334.772
334.625
334.548
334.555
334.733
334.886
335.114
335.225
335.301
335.291
335.119
335.106
334.923
334.848
334.741
334.821
335.109
335.435
327.588
327.308
327.088
326.985
326.949
326.958
327.056
327.195
327.374
327.449
327.528
327.524
327.376
327.387
327.233
327.208
327.122
327.148
327.406
327.653
319.741
319.543
319.377
319.301
319.289
319.323
319.334
319.471
319.603
319.634
319.704
319.689
319.582
319.609
319.491
319.488
319.428
319.424
319.626
319.799
311.882
311.757
311.643
311.592
311.599
311.633
311.611
311.71
311.802
311.812
311.866
311.831
311.772
311.792
311.719
311.733
311.691
311.672
311.81
311.895
303.982
303.953
303.903
303.871
303.899
303.91
303.894
303.932
303.959
303.961
303.973
303.955
303.947
303.96
303.933
303.931
303.919
303.925
303.965
303.988
359.814
359.173
358.657
358.382
358.18
358.266
358.519
358.766
359.08
359.073
359.087
359.193
359.015
358.893
358.656
358.579
358.496
358.631
359.15
359.545
352.006
351.449
351.021
350.767
350.586
350.633
350.888
351.095
351.377
351.362
351.373
351.486
351.348
351.219
351.02
350.98
350.914
351.036
351.491
351.835
344.113
343.655
343.307
343.077
342.916
342.928
343.207
343.354
343.606
343.562
343.607
343.708
343.604
343.494
343.307
343.255
343.241
343.378
343.736
344.027
336.177
335.816
335.522
335.332
335.196
335.193
335.449
335.555
335.77
335.72
335.774
335.859
335.762
335.67
335.532
335.466
335.465
335.613
335.887
336.145
328.192
327.927
327.683
327.556
327.415
327.419
327.631
327.701
327.864
327.83
327.891
327.968
327.881
327.793
327.678
327.621
327.621
327.785
327.973
328.19
320.163
319.985
319.806
319.718
319.598
319.616
319.761
319.828
319.916
319.919
319.967
320.017
319.962
319.867
319.803
319.759
319.782
319.889
320.02
320.191
312.117
312.018
311.903
311.852
311.775
311.804
311.867
311.926
311.951
311.966
312.017
312.037
312.011
311.944
311.904
311.882
311.917
311.956
312.034
312.138
304.061
304.033
303.991
303.97
303.947
303.956
303.971
304
304.008
303.998
304.037
304.033
304.035
304.001
303.991
303.994
303.998
303.999
304.038
304.064
360.768
360.209
359.589
359.303
359.145
359.159
359.48
359.63
359.825
359.914
359.905
359.956
359.873
359.768
359.524
359.343
359.509
359.611
360.102
360.657
352.798
352.316
351.76
351.537
351.372
351.407
351.68
351.826
351.995
352.064
352.076
352.115
352.035
351.959
351.763
351.596
351.756
351.856
352.296
352.751
344.786
344.387
343.889
343.738
343.563
343.602
343.837
343.962
344.092
344.161
344.167
344.224
344.125
344.071
343.902
343.783
343.914
344.041
344.38
344.753
336.697
336.399
335.976
335.867
335.712
335.747
335.918
336.027
336.142
336.214
336.206
336.282
336.183
336.148
336.008
335.918
336.039
336.146
336.413
336.71
328.575
328.367
328.028
327.951
327.828
327.863
327.94
328.046
328.165
328.221
328.195
328.309
328.195
328.2
328.067
327.995
328.094
328.189
328.381
328.641
320.423
320.3
320.056
319.987
319.914
319.927
319.955
320.061
320.14
320.199
320.158
320.262
320.185
320.192
320.08
320.031
320.097
320.178
320.319
320.51
312.27
312.203
312.066
311.996
311.972
311.97
311.986
312.064
312.095
312.145
312.116
312.179
312.136
312.147
312.076
312.037
312.06
312.125
312.218
312.327
304.118
304.09
304.036
304.019
304.014
304.015
304.006
304.044
304.057
304.075
304.054
304.091
304.08
304.076
304.05
304.041
304.038
304.06
304.105
304.121
)
;

boundaryField
{
    hotSide
    {
        type            fixedGradient;
        gradient        nonuniform List<scalar> 
400
(
371.181
373.408
378.365
385.979
395.969
407.933
421.441
436.099
451.578
467.622
484.035
500.673
517.434
534.248
551.069
567.87
584.641
601.379
618.089
634.777
356.71
359.197
364.608
372.851
383.588
396.342
410.622
425.991
442.097
458.673
475.521
492.502
509.518
526.508
543.437
560.289
577.063
593.768
610.419
627.031
349.684
352.691
358.579
367.249
378.363
391.447
406.01
421.613
437.899
454.596
471.504
488.483
505.44
522.318
539.09
555.75
572.304
588.772
605.175
621.537
349.616
353.382
359.787
368.726
379.908
392.927
407.343
422.751
438.807
455.24
471.849
488.491
505.076
521.553
537.899
554.117
570.224
586.245
602.211
618.152
354.598
359.259
366.248
375.453
386.631
399.448
413.534
428.528
444.11
460.022
476.065
492.102
508.048
523.861
539.532
555.075
570.518
585.898
601.252
616.615
362.461
368.069
375.728
385.312
396.605
409.319
423.13
437.712
452.77
468.058
483.39
498.643
513.749
528.688
543.474
558.141
572.736
587.309
601.905
616.567
371.423
377.982
386.389
396.503
408.11
420.934
434.666
448.991
463.616
478.304
492.882
507.253
521.385
535.295
549.037
562.677
576.289
589.937
603.681
617.566
380.121
387.588
396.785
407.554
419.668
432.839
446.739
461.027
475.389
489.576
503.429
516.885
529.967
542.757
555.362
567.895
580.461
593.143
606.01
619.109
387.48
395.743
405.692
417.159
429.898
443.595
457.878
472.35
486.64
500.464
513.667
526.235
538.271
549.939
561.418
572.873
584.439
596.215
608.276
620.666
392.642
401.485
412.025
424.089
437.419
451.672
466.426
481.213
495.58
509.186
521.873
533.687
544.819
555.525
566.057
576.625
587.386
598.449
609.887
621.741
394.997
404.094
414.921
427.305
440.982
455.592
470.678
485.715
500.19
513.711
526.114
537.485
548.083
558.227
568.215
578.28
588.594
599.269
610.376
621.952
394.281
403.232
413.946
426.249
439.874
454.455
469.529
484.57
499.061
512.609
525.049
536.459
547.094
557.268
567.278
577.361
587.691
598.383
609.513
621.121
390.664
399.076
409.29
421.129
434.326
448.518
463.266
478.083
492.51
506.197
518.976
530.878
542.086
552.848
563.418
574.011
584.795
595.894
607.387
619.324
384.772
392.336
401.776
412.919
425.497
439.159
453.491
468.062
482.471
496.412
509.715
522.355
534.427
546.095
557.548
568.967
580.505
592.285
604.394
616.891
377.659
384.181
392.721
403.115
415.094
428.304
442.343
456.805
471.326
485.623
499.518
512.944
525.927
538.562
550.979
563.323
575.728
588.312
601.167
614.355
370.787
376.184
383.818
393.54
405.062
418.003
431.937
446.455
461.2
475.896
490.357
504.489
518.278
531.772
545.061
558.26
571.489
584.862
598.471
612.38
366.077
370.367
377.16
386.318
397.517
410.319
424.254
438.888
453.858
468.889
483.794
498.466
512.87
527.026
541
554.888
568.801
582.851
597.13
611.701
365.822
369.14
375.176
383.803
394.661
407.257
421.084
435.69
450.711
465.876
481.002
495.978
510.756
525.343
539.785
554.163
568.581
583.147
597.955
613.059
372.051
374.653
380.008
388.001
398.278
410.355
423.73
437.962
452.7
467.684
482.732
497.731
512.624
527.403
542.1
556.779
571.529
586.446
601.612
617.075
385.399
387.572
392.311
399.523
408.919
420.09
432.6
446.058
460.14
474.598
489.256
503.995
518.749
533.496
548.248
563.049
577.964
593.065
608.413
624.042
)
;
    }
    coldSide
    {
        type            mixed;
        refValue        uniform 300;
        refGradient     uniform 0;
        valueFraction   uniform 0.991591;
        source          uniform 0;
        value           nonuniform List<scalar> 
400
(
300.021
300.021
300.021
300.022
300.022
300.023
300.024
300.024
300.025
300.026
300.027
300.028
300.029
300.03
300.031
300.032
300.033
300.033
300.034
300.035
300.021
300.021
300.021
300.021
300.022
300.022
300.023
300.024
300.025
300.026
300.027
300.028
300.029
300.029