/*--------------------------------*- C++ -*----------------------------------*\
| =========                 |                                                 |
| \\      /  F ield         | OpenFOAM: The Open Source CFD Toolbox           |
|  \\    /   O peration     | Version:  2212                                  |
|   \\  /    A nd           | Website:  www.openfoam.com                      |
|    \\/     M anipulation  |                                                 |
\*---------------------------------------------------------------------------*/
FoamFile
{
    version     2.0;
    format      ascii;
    arch        "LSB;label=32;scalar=64";
    class       volScalarField;
    location    "0";
    object      Tdirect;
}
// * * * * * * * * * * * * * * * * * * * * * * * * * * * * * * * * * * * * * //

dimensions      [0 0 0 1 0 0 0];

internalField   nonuniform List<scalar> 
3200
(
346.097
346.895
347.913
349.023
350.166
351.288
352.324
353.198
353.835
354.172
354.172
353.835
353.198
352.324
351.288
350.166
349.023
347.913
346.895
346.097
339.967
340.642
341.521
342.481
343.47
344.441
345.336
346.092
346.642
346.932
346.932
346.642
346.092
345.336
344.441
343.47
342.481
341.521
340.642
339.967
333.831
334.392
335.132
335.943
336.779
337.599
338.355
338.993
339.457
339.702
339.702
339.457
338.993
338.355
337.599
336.779
335.943
335.132
334.392
333.831
327.691
328.142
328.745
329.408
330.092
330.762
331.379
331.9
332.279
332.478
332.478
332.279
331.9
331.379
330.762
330.092
329.408
328.745
328.142
327.691
321.547
321.893
322.361
322.876
323.408
323.928
324.408
324.812
325.106
325.261
325.261
325.106
324.812
324.408
323.928
323.408
322.876
322.361
321.893
321.547
315.4
315.645
315.979
316.347
316.726
317.098
317.44
317.729
317.939
318.049
318.049
317.939
317.729
317.44
317.098
316.726
316.347
315.979
315.645
315.4
309.251
309.398
309.598
309.818
310.046
310.269
310.475
310.648
310.774
310.84
310.84
310.774
310.648
310.475
310.269
310.046
309.818
309.598
309.398
309.251
303.101
303.15
303.217
303.291
303.367
303.442
303.511
303.569
303.611
303.634
303.634
303.611
303.569
303.511
303.442
303.367
303.291
303.217
303.15
303.101
346.233
347.024
348.034
349.134
350.265
351.375
352.399
353.262
353.891
354.223
354.223
353.891
353.262
352.399
351.375
350.265
349.134
348.034
347.024
346.233
340.085
340.755
341.625
342.577
343.556
344.516
345.401
346.147
346.69
346.977
346.977
346.69
346.147
345.401
344.516
343.556
342.577
341.625
340.755
340.085
333.931
334.486
335.22
336.024
336.851
337.663
338.41
339.039
339.498
339.739
339.739
339.498
339.039
338.41
337.663
336.851
336.024
335.22
334.486
333.931
327.772
328.219
328.818
329.474
330.151
330.814
331.424
331.938
332.312
332.509
332.509
332.312
331.938
331.424
330.814
330.151
329.474
328.818
328.219
327.772
321.61
321.954
322.417
322.928
323.454
323.969
324.443
324.842
325.133
325.286
325.286
325.133
324.842
324.443
323.969
323.454
322.928
322.417
321.954
321.61
315.445
315.688
316.019
316.383
316.759
317.127
317.465
317.75
317.957
318.067
318.067
317.957
317.75
317.465
317.127
316.759
316.383
316.019
315.688
315.445
309.278
309.423
309.622
309.841
310.066
310.287
310.49
310.661
310.785
310.851
310.851
310.785
310.661
310.49
310.287
310.066
309.841
309.622
309.423
309.278
303.11
303.159
303.225
303.299
303.374
303.448
303.516
303.573
303.615
303.637
303.637
303.615
303.573
303.516
303.448
303.374
303.299
303.225
303.159
303.11
346.506
347.285
348.278
349.357
350.466
351.551
352.551
353.393
354.006
354.329
354.329
354.006
353.393
352.551
351.551
350.466
349.357
348.278
347.285
346.506
340.321
340.98
341.836
342.77
343.729
344.669
345.533
346.261
346.79
347.07
347.07
346.79
346.261
345.533
344.669
343.729
342.77
341.836
340.98
340.321
334.13
334.677
335.398
336.187
336.998
337.792
338.522
339.136
339.583
339.818
339.818
339.583
339.136
338.522
337.792
336.998
336.187
335.398
334.677
334.13
327.935
328.375
328.963
329.608
330.271
330.919
331.516
332.018
332.382
332.574
332.574
332.382
332.018
331.516
330.919
330.271
329.608
328.963
328.375
327.935
321.736
322.074
322.531
323.032
323.547
324.051
324.514
324.904
325.187
325.336
325.336
325.187
324.904
324.514
324.051
323.547
323.032
322.531
322.074
321.736
315.535
315.775
316.1
316.457
316.826
317.185
317.516
317.794
317.996
318.103
318.103
317.996
317.794
317.516
317.185
316.826
316.457
316.1
315.775
315.535
309.332
309.475
309.67
309.885
310.106
310.322
310.521
310.688
310.809
310.873
310.873
310.809
310.688
310.521
310.322
310.106
309.885
309.67
309.475
309.332
303.128
303.176
303.241
303.313
303.388
303.46
303.526
303.582
303.623
303.644
303.644
303.623
303.582
303.526
303.46
303.388
303.313
303.241
303.176
303.128
346.918
347.678
348.646
349.696
350.772
351.823
352.788
353.6
354.19
354.501
354.501
354.19
353.6
352.788
351.823
350.772
349.696
348.646
347.678
346.918
340.676
341.32
342.155
343.063
343.995
344.904
345.739
346.441
346.95
347.219
347.219
346.95
346.441
345.739
344.904
343.995
343.063
342.155
341.32
340.676
334.43
334.964
335.668
336.435
337.222
337.991
338.696
339.289
339.719
339.945
339.945
339.719
339.289
338.696
337.991
337.222
336.435
335.668
334.964
334.43
328.18
328.61
329.183
329.811
330.454
331.082
331.659
332.143
332.494
332.679
332.679
332.494
332.143
331.659
331.082
330.454
329.811
329.183
328.61
328.18
321.927
322.257
322.702
323.189
323.69
324.178
324.625
325.001
325.274
325.418
325.418
325.274
325.001
324.625
324.178
323.69
323.189
322.702
322.257
321.927
315.671
315.905
316.222
316.57
316.927
317.276
317.596
317.864
318.059
318.161
318.161
318.059
317.864
317.596
317.276
316.927
316.57
316.222
315.905
315.671
309.414
309.554
309.744
309.953
310.167
310.376
310.568
310.729
310.846
310.908
310.908
310.846
310.729
310.568
310.376
310.167
309.953
309.744
309.554
309.414
303.156
303.202
303.266
303.336
303.408
303.478
303.542
303.596
303.636
303.656
303.656
303.636
303.596
303.542
303.478
303.408
303.336
303.266
303.202
303.156
347.47
348.207
349.143
350.155
351.19
352.197
353.12
353.894
354.455
354.751
354.751
354.455
353.894
353.12
352.197
351.19
350.155
349.143
348.207
347.47
341.154
341.778
342.585
343.461
344.357
345.228
346.027
346.696
347.181
347.436
347.436
347.181
346.696
346.027
345.228
344.357
343.461
342.585
341.778
341.154
334.834
335.351
336.031
336.772
337.529
338.265
338.94
339.505
339.914
340.129
340.129
339.914
339.505
338.94
338.265
337.529
336.772
336.031
335.351
334.834
328.51
328.926
329.481
330.086
330.705
331.307
331.858
332.319
332.654
332.83
332.83
332.654
332.319
331.858
331.307
330.705
330.086
329.481
328.926
328.51
322.183
322.503
322.933
323.403
323.884
324.352
324.781
325.139
325.399
325.535
325.535
325.399
325.139
324.781
324.352
323.884
323.403
322.933
322.503
322.183
315.854
316.081
316.387
316.723
317.066
317.401
317.707
317.962
318.148
318.245
318.245
318.148
317.962
317.707
317.401
317.066
316.723
316.387
316.081
315.854
309.524
309.659
309.843
310.044
310.251
310.451
310.635
310.789
310.9
310.958
310.958
310.9
310.789
310.635
310.451
310.251
310.044
309.843
309.659
309.524
303.193
303.238
303.299
303.367
303.436
303.503
303.565
303.616
303.654
303.673
303.673
303.654
303.616
303.565
303.503
303.436
303.367
303.299
303.238
303.193
348.166
348.876
349.774
350.742
351.728
352.684
353.558
354.288
354.816
355.093
355.093
354.816
354.288
353.558
352.684
351.728
350.742
349.774
348.876
348.166
341.756
342.357
343.131
343.969
344.822
345.65
346.406
347.037
347.494
347.734
347.734
347.494
347.037
346.406
345.65
344.822
343.969
343.131
342.357
341.756
335.342
335.84
336.493
337.201
337.922
338.622
339.261
339.794
340.179
340.382
340.382
340.179
339.794
339.261
338.622
337.922
337.201
336.493
335.84
335.342
328.925
329.326
329.858
330.437
331.027
331.599
332.12
332.556
332.871
333.036
333.036
332.871
332.556
332.12
331.599
331.027
330.437
329.858
329.326
328.925
322.505
322.813
323.226
323.676
324.135
324.579
324.985
325.323
325.568
325.696
325.696
325.568
325.323
324.985
324.579
324.135
323.676
323.226
322.813
322.505
316.084
316.302
316.597
316.918
317.245
317.563
317.853
318.094
318.269
318.36
318.36
318.269
318.094
317.853
317.563
317.245
316.918
316.597
316.302
316.084
309.662
309.792
309.969
310.161
310.358
310.549
310.723
310.868
310.972
311.028
311.028
310.972
310.868
310.723
310.549
310.358
310.161
309.969
309.792
309.662
303.239
303.282
303.341
303.406
303.472
303.536
303.594
303.643
303.678
303.696
303.696
303.678
303.643
303.594
303.536
303.472
303.406
303.341
303.282
303.239
349.01
349.688
350.544
351.463
352.394
353.294
354.113
354.795
355.288
355.546
355.546
355.288
354.795
354.113
353.294
352.394
351.463
350.544
349.688
349.01
342.485
343.059
343.798
344.593
345.4
346.179
346.887
347.478
347.903
348.126
348.126
347.903
347.478
346.887
346.179
345.4
344.593
343.798
343.059
342.485
335.958
336.434
337.056
337.728
338.41
339.069
339.668
340.166
340.526
340.714
340.714
340.526
340.166
339.668
339.069
338.41
337.728
337.056
336.434
335.958
329.428
329.811
330.318
330.868
331.426
331.964
332.454
332.861
333.155
333.309
333.309
333.155
332.861
332.454
331.964
331.426
330.868
330.318
329.811
329.428
322.896
323.191
323.584
324.011
324.445
324.864
325.244
325.561
325.789
325.908
325.908
325.789
325.561
325.244
324.864
324.445
324.011
323.584
323.191
322.896
316.363
316.572
316.852
317.157
317.467
317.766
318.038
318.264
318.427
318.512
318.512
318.427
318.264
318.038
317.766
317.467
317.157
316.852
316.572
316.363
309.829
309.954
310.122
310.305
310.491
310.671
310.834
310.97
311.067
311.119
311.119
311.067
310.97
310.834
310.671
310.491
310.305
310.122
309.954
309.829
303.295
303.337
303.393
303.454
303.517
303.577
303.631
303.677
303.71
303.727
303.727
303.71
303.677
303.631
303.577
303.517
303.454
303.393
303.337
303.295
350.004
350.648
351.458
352.324
353.198
354.039
354.8
355.432
355.887
356.125
356.125
355.887
355.432
354.8
354.039
353.198
352.324
351.458
350.648
350.004
343.345
343.89
344.589
345.339
346.096
346.823
347.482
348.029
348.422
348.628
348.628
348.422
348.029
347.482
346.823
346.096
345.339
344.589
343.89
343.345
336.684
337.136
337.725
338.359
338.999
339.614
340.171
340.633
340.965
341.139
341.139
340.965
340.633
340.171
339.614
338.999
338.359
337.725
337.136
336.684
330.021
330.385
330.865
331.383
331.907
332.41
332.865
333.243
333.515
333.657
333.657
333.515
333.243
332.865
332.41
331.907
331.383
330.865
330.385
330.021
323.357
323.637
324.009
324.412
324.819
325.21
325.564
325.858
326.069
326.179
326.179
326.069
325.858
325.564
325.21
324.819
324.412
324.009
323.637
323.357
316.692
316.89
317.156
317.443
317.734
318.014
318.266
318.476
318.627
318.706
318.706
318.627
318.476
318.266
318.014
317.734
317.443
317.156
316.89
316.692
310.027
310.145
310.304
310.477
310.652
310.819
310.971
311.097
311.188
311.235
311.235
311.188
311.097
310.971
310.819
310.652
310.477
310.304
310.145
310.027
303.361
303.401
303.454
303.512
303.57
303.627
303.678
303.72
303.75
303.766
303.766
303.75
303.72
303.678
303.627
303.57
303.512
303.454
303.401
303.361
351.153
351.762
352.523
353.334
354.149
354.928
355.631
356.212
356.628
356.846
356.846
356.628
356.212
355.631
354.928
354.149
353.334
352.523
351.762
351.153
344.338
344.854
345.511
346.213
346.918
347.593
348.202
348.704
349.065
349.253
349.253
349.065
348.704
348.202
347.593
346.918
346.213
345.511
344.854
344.338
337.523
337.95
338.504
339.097
339.694
340.265
340.779
341.204
341.509
341.668
341.668
341.509
341.204
340.779
340.265
339.694
339.097
338.504
337.95
337.523
330.706
331.05
331.502
331.987
332.475
332.942
333.363
333.71
333.959
334.089
334.089
333.959
333.71
333.363
332.942
332.475
331.987
331.502
331.05
330.706
323.89
324.154
324.504
324.881
325.261
325.624
325.951
326.221
326.415
326.516
326.516
326.415
326.221
325.951
325.624
325.261
324.881
324.504
324.154
323.89
317.073
317.259
317.509
317.779
318.05
318.309
318.543
318.736
318.874
318.946
318.946
318.874
318.736
318.543
318.309
318.05
317.779
317.509
317.259
317.073
310.255
310.367
310.517
310.678
310.841
310.997
311.137
311.253
311.336
311.379
311.379
311.336
311.253
311.137
310.997
310.841
310.678
310.517
310.367
310.255
303.438
303.475
303.525
303.579
303.634
303.686
303.733
303.772
303.8
303.814
303.814
303.8
303.772
303.733
303.686
303.634
303.579
303.525
303.475
303.438
352.46
353.032
353.745
354.5
355.254
355.972
356.616
357.147
357.526
357.724
357.724
357.526
357.147
356.616
355.972
355.254
354.5
353.745
353.032
352.46
345.469
345.953
346.568
347.221
347.875
348.497
349.055
349.514
349.843
350.014
350.014
349.843
349.514
349.055
348.497
347.875
347.221
346.568
345.953
345.469
338.477
338.879
339.397
339.95
340.503
341.029
341.501
341.889
342.167
342.312
342.312
342.167
341.889
341.501
341.029
340.503
339.95
339.397
338.879
338.477
331.487
331.81
332.232
332.684
333.136
333.567
333.953
334.27
334.497
334.616
334.616
334.497
334.27
333.953
333.567
333.136
332.684
332.232
331.81
331.487
324.496
324.744
325.072
325.423
325.775
326.109
326.41
326.657
326.833
326.925
326.925
326.833
326.657
326.41
326.109
325.775
325.423
325.072
324.744
324.496
317.505
317.681
317.915
318.166
318.417
318.656
318.87
319.047
319.173
319.238
319.238
319.173
319.047
318.87
318.656
318.417
318.166
317.915
317.681
317.505
310.515
310.62
310.76
310.911
311.061
311.205
311.334
311.44
311.515
311.555
311.555
311.515
311.44
311.334
311.205
311.061
310.911
310.76
310.62
310.515
303.525
303.56
303.607
303.657
303.708
303.756
303.799
303.835
303.86
303.873
303.873
303.86
303.835
303.799
303.756
303.708
303.657
303.607
303.56
303.525
353.929
354.464
355.127
355.827
356.521
357.179
357.767
358.249
358.592
358.771
358.771
358.592
358.249
357.767
357.179
356.521
355.827
355.127
354.464
353.929
346.739
347.192
347.765
348.37
348.972
349.542
350.051
350.469
350.766
350.921
350.921
350.766
350.469
350.051
349.542
348.972
348.37
347.765
347.192
346.739
339.551
339.926
340.409
340.921
341.43
341.912
342.343
342.696
342.947
343.078
343.078
342.947
342.696
342.343
341.912
341.43
340.921
340.409
339.926
339.551
332.363
332.666
333.059
333.478
333.894
334.289
334.641
334.93
335.136
335.243
335.243
335.136
334.93
334.641
334.289
333.894
333.478
333.059
332.666
332.363
325.177
325.409
325.714
326.04
326.364
326.671
326.945
327.169
327.329
327.413
327.413
327.329
327.169
326.945
326.671
326.364
326.04
325.714
325.409
325.177
317.992
318.156
318.374
318.606
318.838
319.057
319.253
319.413
319.527
319.587
319.587
319.527
319.413
319.253
319.057
318.838
318.606
318.374
318.156
317.992
310.807
310.905
311.036
311.175
311.314
311.446
311.564
311.66
311.728
311.764
311.764
311.728
311.66
311.564
311.446
311.314
311.175
311.036
310.905
310.807
303.623
303.655
303.699
303.746
303.792
303.837
303.876
303.908
303.931
303.943
303.943
303.931
303.908
303.876
303.837
303.792
303.746
303.699
303.655
303.623
355.563
356.061
356.676
357.321
357.958
358.558
359.092
359.527
359.837
359.998
359.998
359.837
359.527
359.092
358.558
357.958
357.321
356.676
356.061
355.563
348.152
348.574
349.105
349.663
350.215
350.736
351.198
351.575
351.843
351.982
351.982
351.843
351.575
351.198
350.736
350.215
349.663
349.105
348.574
348.152
340.745
341.094
341.542
342.014
342.481
342.921
343.312
343.631
343.858
343.976
343.976
343.858
343.631
343.312
342.921
342.481
342.014
341.542
341.094
340.745
333.339
333.62
333.985
334.371
334.754
335.114
335.434
335.695
335.88
335.977
335.977
335.88
335.695
335.434
335.114
334.754
334.371
333.985
333.62
333.339
325.935
326.151
326.434
326.734
327.032
327.312
327.561
327.764
327.908
327.983
327.983
327.908
327.764
327.561
327.312
327.032
326.734
326.434
326.151
325.935
318.533
318.686
318.888
319.102
319.315
319.515
319.693
319.838
319.941
319.994
319.994
319.941
319.838
319.693
319.515
319.315
319.102
318.888
318.686
318.533
311.132
311.223
311.344
311.473
311.601
311.721
311.828
311.915
311.977
312.009
312.009
311.977
311.915
311.828
311.721
311.601
311.473
311.344
311.223
311.132
303.731
303.762
303.802
303.846
303.888
303.929
303.965
303.994
304.015
304.025
304.025
304.015
303.994
303.965
303.929
303.888
303.846
303.802
303.762
303.731
357.365
357.827
358.395
358.987
359.569
360.115
360.597
360.989
361.267
361.411
361.411
361.267
360.989
360.597
360.115
359.569
358.987
358.395
357.827
357.365
349.711
350.102
350.592
351.105
351.61
352.082
352.5
352.84
353.081
353.206
353.206
353.081
352.84
352.5
352.082
351.61
351.105
350.592
350.102
349.711
342.061
342.385
342.799
343.232
343.659
344.059
344.413
344.701
344.904
345.01
345.01
344.904
344.701
344.413
344.059
343.659
343.232
342.799
342.385
342.061
334.415
334.676
335.013
335.367
335.717
336.044
336.334
336.569
336.735
336.822
336.822
336.735
336.569
336.334
336.044
335.717
335.367
335.013
334.676
334.415
326.771
326.971
327.233
327.509
327.781
328.035
328.26
328.444
328.573
328.64
328.64
328.573
328.444
328.26
328.035
327.781
327.509
327.233
326.971
326.771
319.13
319.272
319.458
319.655
319.849
320.031
320.192
320.323
320.416
320.464
320.464
320.416
320.323
320.192
320.031
319.849
319.655
319.458
319.272
319.13
311.49
311.575
311.687
311.805
311.922
312.031
312.128
312.206
312.262
312.291
312.291
312.262
312.206
312.128
312.031
311.922
311.805
311.687
311.575
311.49
303.852
303.88
303.917
303.957
303.996
304.033
304.065
304.091
304.11
304.12
304.12
304.11
304.091
304.065
304.033
303.996
303.957
303.917
303.88
303.852
359.335
359.763
360.285
360.828
361.358
361.852
362.287
362.639
362.887
363.016
363.016
362.887
362.639
362.287
361.852
361.358
360.828
360.285
359.763
359.335
351.415
351.777
352.228
352.698
353.157
353.586
353.963
354.268
354.483
354.595
354.595
354.483
354.268
353.963
353.586
353.157
352.698
352.228
351.777
351.415
343.501
343.801
344.181
344.578
344.967
345.33
345.649
345.907
346.089
346.184
346.184
346.089
345.907
345.649
345.33
344.967
344.578
344.181
343.801
343.501
335.591
335.832
336.142
336.467
336.786
337.082
337.343
337.555
337.704
337.781
337.781
337.704
337.555
337.343
337.082
336.786
336.467
336.142
335.832
335.591
327.685
327.87
328.111
328.364
328.611
328.842
329.045
329.21
329.326
329.386
329.386
329.326
329.21
329.045
328.842
328.611
328.364
328.111
327.87
327.685
319.782
319.913
320.085
320.266
320.443
320.608
320.753
320.87
320.953
320.996
320.996
320.953
320.87
320.753
320.608
320.443
320.266
320.085
319.913
319.782
311.882
311.96
312.063
312.171
312.278
312.377
312.464
312.535
312.585
312.61
312.61
312.585
312.535
312.464
312.377
312.278
312.171
312.063
311.96
311.882
303.983
304.009
304.043
304.08
304.115
304.149
304.178
304.202
304.218
304.227
304.227
304.218
304.202
304.178
304.149
304.115
304.08
304.043
304.009
303.983
361.473
361.867
362.347
362.842
363.324
363.77
364.162
364.477
364.699
364.814
364.814
364.699
364.477
364.162
363.77
363.324
362.842
362.347
361.867
361.473
353.264
353.597
354.011
354.44
354.858
355.245
355.584
355.858
356.05
356.15
356.15
356.05
355.858
355.584
355.245
354.858
354.44
354.011
353.597
353.264
345.062
345.338
345.687
346.05
346.404
346.731
347.019
347.25
347.413
347.497
347.497
347.413
347.25
347.019
346.731
346.404
346.05
345.687
345.338
345.062
336.866
337.089
337.373
337.67
337.959
338.228
338.463
338.652
338.786
338.855
338.855
338.786
338.652
338.463
338.228
337.959
337.67
337.373
337.089
336.866
328.676
328.847
329.067
329.298
329.523
329.732
329.915
330.063
330.166
330.22
330.22
330.166
330.063
329.915
329.732
329.523
329.298
329.067
328.847
328.676
320.49
320.61
320.768
320.933
321.094
321.243
321.374
321.479
321.553
321.592
321.592
321.553
321.479
321.374
321.243
321.094
320.933
320.768
320.61
320.49
312.306
312.379
312.473
312.572
312.669
312.758
312.837
312.9
312.945
312.968
312.968
312.945
312.9
312.837
312.758
312.669
312.572
312.473
312.379
312.306
304.125
304.149
304.181
304.214
304.246
304.276
304.303
304.324
304.339
304.347
304.347
304.339
304.324
304.303
304.276
304.246
304.214
304.181
304.149
304.125
363.77
364.133
364.573
365.024
365.461
365.864
366.215
366.497
366.695
366.798
366.798
366.695
366.497
366.215
365.864
365.461
365.024
364.573
364.133
363.77
355.248
355.555
355.935
356.326
356.705
357.054
357.359
357.604
357.776
357.864
357.864
357.776
357.604
357.359
357.054
356.705
356.326
355.935
355.555
355.248
346.737
346.991
347.311
347.642
347.963
348.258
348.516
348.724
348.869
348.944
348.944
348.869
348.724
348.516
348.258
347.963
347.642
347.311
346.991
346.737
338.234
338.438
338.699
338.97
339.232
339.475
339.686
339.856
339.975
340.036
340.036
339.975
339.856
339.686
339.475
339.232
338.97
338.699
338.438
338.234
329.738
329.895
330.097
330.308
330.512
330.701
330.865
330.997
331.09
331.137
331.137
331.09
330.997
330.865
330.701
330.512
330.308
330.097
329.895
329.738
321.247
321.359
321.503
321.653
321.799
321.934
322.052
322.146
322.212
322.246
322.246
322.212
322.146
322.052
321.934
321.799
321.653
321.503
321.359
321.247
312.761
312.827
312.914
313.004
313.092
313.173
313.244
313.3
313.34
313.361
313.361
313.34
313.3
313.244
313.173
313.092
313.004
312.914
312.827
312.761
304.277
304.3
304.329
304.359
304.388
304.415
304.439
304.458
304.471
304.478
304.478
304.471
304.458
304.439
304.415
304.388
304.359
304.329
304.3
304.277
366.202
366.536
366.938
367.35
367.745
368.109
368.424
368.677
368.854
368.945
368.945
368.854
368.677
368.424
368.109
367.745
367.35
366.938
366.536
366.202
357.346
357.628
357.976
358.332
358.676
358.991
359.265
359.484
359.637
359.716
359.716
359.637
359.484
359.265
358.991
358.676
358.332
357.976
357.628
357.346
348.504
348.738
349.031
349.333
349.623
349.891
350.122
350.308
350.438
350.505
350.505
350.438
350.308
350.122
349.891
349.623
349.333
349.031
348.738
348.504
339.675
339.863
340.102
340.349
340.587
340.805
340.995
341.147
341.254
341.308
341.308
341.254
341.147
340.995
340.805
340.587
340.349
340.102
339.863
339.675
330.855
331
331.185
331.377
331.562
331.733
331.88
331.999
332.082
332.124
332.124
332.082
331.999
331.88
331.733
331.562
331.377
331.185
331
330.855
322.044
322.146
322.279
322.416
322.548
322.67
322.776
322.86
322.919
322.95
322.95
322.919
322.86
322.776
322.67
322.548
322.416
322.279
322.146
322.044
313.239
313.3
313.379
313.462
313.541
313.614
313.678
313.729
313.764
313.783
313.783
313.764
313.729
313.678
313.614
313.541
313.462
313.379
313.3
313.239
304.437
304.458
304.484
304.512
304.539
304.563
304.585
304.602
304.613
304.62
304.62
304.613
304.602
304.585
304.563
304.539
304.512
304.484
304.458
304.437
368.707
369.014
369.383
369.758
370.118
370.446
370.73
370.957
371.115
371.197
371.197
371.115
370.957
370.73
370.446
370.118
369.758
369.383
369.014
368.707
359.497
359.757
360.075
360.401
360.712
360.998
361.244
361.441
361.579
361.649
361.649
361.579
361.441
361.244
360.998
360.712
360.401
360.075
359.757
359.497
350.309
350.524
350.793
351.068
351.333
351.574
351.783
351.95
352.067
352.127
352.127
352.067
351.95
351.783
351.574
351.333
351.068
350.793
350.524
350.309
341.141
341.314
341.533
341.759
341.975
342.173
342.344
342.481
342.577
342.626
342.626
342.577
342.481
342.344
342.173
341.975
341.759
341.533
341.314
341.141
331.989
332.122
332.292
332.468
332.636
332.79
332.924
333.03
333.104
333.143
333.143
333.104
333.03
332.924
332.79
332.636
332.468
332.292
332.122
331.989
322.851
322.945
323.066
323.191
323.312
323.422
323.518
323.594
323.647
323.674
323.674
323.647
323.594
323.518
323.422
323.312
323.191
323.066
322.945
322.851
313.722
313.778
313.851
313.926
313.999
314.065
314.122
314.168
314.2
314.216
314.216
314.2
314.168
314.122
314.065
313.999
313.926
313.851
313.778
313.722
304.599
304.618
304.642
304.667
304.692
304.714
304.733
304.749
304.759
304.765
304.765
304.759
304.749
304.733
304.714
304.692
304.667
304.642
304.618
304.599
371.124
371.408
371.748
372.093
372.421
372.721
372.979
373.184
373.327
373.401
373.401
373.327
373.184
372.979
372.721
372.421
372.093
371.748
371.408
371.124
361.547
361.787
362.081
362.38
362.666
362.927
363.151
363.329
363.454
363.517
363.517
363.454
363.329
363.151
362.927
362.666
362.38
362.081
361.787
361.547
352.01
352.21
352.458
352.712
352.954
353.175
353.365
353.517
353.622
353.677
353.677
353.622
353.517
353.365
353.175
352.954
352.712
352.458
352.21
352.01
342.51
342.67
342.873
343.081
343.28
343.461
343.617
343.742
343.828
343.872
343.872
343.828
343.742
343.617
343.461
343.28
343.081
342.873
342.67
342.51
333.04
333.163
333.321
333.483
333.638
333.779
333.901
333.997
334.065
334.099
334.099
334.065
333.997
333.901
333.779
333.638
333.483
333.321
333.163
333.04
323.594
323.681
323.794
323.909
324.02
324.121
324.208
324.278
324.326
324.351
324.351
324.326
324.278
324.208
324.121
324.02
323.909
323.794
323.681
323.594
314.165
314.217
314.285
314.354
314.421
314.482
314.534
314.576
314.605
314.62
314.62
314.605
314.576
314.534
314.482
314.421
314.354
314.285
314.217
314.165
304.747
304.765
304.787
304.811
304.833
304.853
304.871
304.885
304.895
304.9
304.9
304.895
304.885
304.871
304.853
304.833
304.811
304.787
304.765
304.747
373.025
373.292
373.612
373.935
374.243
374.522
374.762
374.953
375.086
375.154
375.154
375.086
374.953
374.762
374.522
374.243
373.935
373.612
373.292
373.025
363.098
363.324
363.602
363.884
364.152
364.395
364.605
364.771
364.887
364.946
364.946
364.887
364.771
364.605
364.395
364.152
363.884
363.602
363.324
363.098
353.258
353.446
353.681
353.921
354.149
354.356
354.534
354.676
354.774
354.825
354.825
354.774
354.676
354.534
354.356
354.149
353.921
353.681
353.446
353.258
343.489
343.641
343.834
344.03
344.217
344.388
344.534
344.651
344.732
344.773
344.773
344.732
344.651
344.534
344.388
344.217
344.03
343.834
343.641
343.489
333.777
333.894
334.044
334.197
334.343
334.476
334.591
334.682
334.745
334.777
334.777
334.745
334.682
334.591
334.476
334.343
334.197
334.044
333.894
333.777
324.108
324.191
324.298
324.408
324.512
324.608
324.69
324.755
324.8
324.823
324.823
324.8
324.755
324.69
324.608
324.512
324.408
324.298
324.191
324.108
314.469
314.519
314.583
314.649
314.712
314.769
314.819
314.858
314.885
314.899
314.899
314.885
314.858
314.819
314.769
314.712
314.649
314.583
314.519
314.469
304.848
304.865
304.886
304.908
304.93
304.949
304.965
304.979
304.988
304.992
304.992
304.988
304.979
304.965
304.949
304.93
304.908
304.886
304.865
304.848
)
;

boundaryField
{
    hotSide
    {
        type            fixedGradient;
        gradient        nonuniform List<scalar> 
400
(
489.85
491.339
494.326
498.826
504.865
512.47
521.677
532.522
545.044
559.281
575.269
593.045
612.639
634.081
657.396
682.606
709.728
738.777
769.765
802.7
500.346
501.752
504.576
508.839
514.573
521.817
530.617
541.02
553.075
566.831
582.335
599.629
618.752
639.739
662.618
687.414
714.147
742.833
773.482
806.105
511.706
513.013
515.642
519.622
524.997
531.816
540.139
550.028
561.545
574.751
589.705
606.458
625.056
645.539
667.94
692.288
718.601
746.898
777.189
809.482
523.74
524.931
527.334
530.988
535.947
542.279
550.059
559.365
570.277
582.871
597.217
613.377
631.404
651.346
673.238
697.111
722.985
750.878
780.799
812.755
536.113
537.174
539.324
542.611
547.108
552.899
560.081
568.751
579.008
590.944
604.641
620.174
637.605
656.984
678.353
701.741
727.171
754.658
784.211
815.833
548.308
549.231
551.109
554.006
558.012
563.234
569.789
577.797
587.378
598.639
611.679
626.581
643.416
662.239
683.093
706.01
731.01
758.108
787.311
818.618
559.628
560.411
562.019
564.529
568.05
572.71
578.652
586.018
594.945
605.561
617.976
632.284
648.562
666.868
687.249
709.734
734.345
761.092
789.98
821.007
569.235
569.893
571.258
573.42
576.506
580.667
586.066
592.865
601.222
611.277
623.152
636.951
652.753
670.623
690.605
712.731
737.017
763.475
792.104
822.902
576.266
576.828
578.006
579.902
582.658
586.44
591.429
597.803
605.732
615.37
626.846
640.269
655.724
673.276
692.969
714.834
738.888
765.138
793.583
824.218
579.992
580.501
581.578
583.33
585.906
589.483
594.25
600.395
608.095
617.509
628.772
641.996
657.267
674.65
694.191
715.919
739.852
765.993
794.343
824.892
579.992
580.501
581.578
583.33
585.906
589.483
594.25
600.395
608.095
617.509
628.772
641.996
657.267
674.65
694.191
715.919
739.852
765.993
794.343
824.892
576.266
576.828
578.006
579.902
582.658
586.44
591.429
597.803
605.732
615.37
626.846
640.269
655.724
673.276
692.969
714.834
738.888
765.138
793.583
824.218
569.235
569.893
571.258
573.42
576.506
580.667
586.066
592.865
601.222
611.277
623.152
636.951
652.753
670.623
690.605
712.731
737.017
763.475
792.104
822.902
559.628
560.411
562.019
564.529
568.05
572.71
578.652
586.018
594.945
605.561
617.976
632.284
648.562
666.868
687.249
709.734
734.345
761.092
789.98
821.007
548.308
549.231
551.109
554.006
558.012
563.234
569.789
577.797
587.378
598.639
611.679
626.581
643.416
662.239
683.093
706.01
731.01
758.108
787.311
818.618
536.113
537.174
539.324
542.611
547.108
552.899
560.081
568.751
579.008
590.944
604.641
620.174
637.605
656.984
678.353
701.741
727.171
754.658
784.211
815.833
523.74
524.931
527.334
530.988
535.947
542.279
550.059
559.365
570.277
582.871
597.217
613.377
631.404
651.346
673.238
697.111
722.985
750.878
780.799
812.755
511.706
513.013
515.642
519.622
524.997
531.816
540.139
550.028
561.545
574.751
589.705
606.458
625.056
645.539
667.94
692.288
718.601
746.898
777.189
809.482
500.346
501.752
504.576
508.839
514.573
521.817
530.617
541.02
553.075
566.831
582.335
599.629
618.752
639.739
662.618
687.414
714.147
742.833
773.482
806.105
489.85
491.339
494.326
498.826
504.865
512.47
521.677
532.522
545.044
559.281
575.269
593.045
612.639
634.081
657.396
682.606
709.728
738.777
769.765
802.7
)
;
    }
    coldSide
    {
        type            mixed;
        refValue        uniform 300;
        refGradient     uniform 0;
        valueFraction   uniform 0.991591;
        source          uniform 0;
        value           nonuniform List<scalar> 
400
(
300.026
300.026
300.026
300.027
300.027
300.027
300.028
300.028
300.029
300.03
300.03
300.031
300.032
300.033
300.035
300.036
300.037
300.039
300.04
300.041
300.026
300.027
300.027
300.027
300.027
300.028
300.028
300.029
300.029
300.03
300.031
300.032
300.033