/*--------------------------------*- C++ -*----------------------------------*\
| =========                 |                                                 |
| \\      /  F ield         | OpenFOAM: The Open Source CFD Toolbox           |
|  \\    /   O peration     | Version:  2212                                  |
|   \\  /    A nd           | Website:  www.openfoam.com                      |
|    \\/     M anipulation  |                                                 |
\*---------------------------------------------------------------------------*/
FoamFile
{
    version     2.0;
    format      ascii;
    arch        "LSB;label=32;scalar=64";
    class       volScalarField;
    location    "./ITHACAoutput/true/9.2";
    object      error;
}
// * * * * * * * * * * * * * * * * * * * * * * * * * * * * * * * * * * * * * //

dimensions      [0 0 0 1 0 0 0];

internalField   nonuniform List<scalar> 
3200
(
-5.54371
-3.55609
-1.82673
-0.680409
-0.0501672
0.284832
0.43621
0.366637
0.232514
0.0365713
-0.00247376
-0.0870497
-0.0652971
-0.138997
-0.221276
-0.393464
-0.922732
-1.99986
-3.50905
-5.44265
-4.85519
-3.24204
-1.69315
-0.666479
-0.0980081
0.181287
0.307073
0.202253
0.0998091
-0.111642
-0.0737214
-0.173198
-0.160864
-0.203899
-0.296586
-0.376192
-0.846989
-1.78259
-3.07009
-4.56661
-4.10732
-2.83185
-1.5311
-0.60151
-0.215976
0.0471822
0.120954
0.0290256
-0.0176118
-0.0563827
-0.0961829
-0.282078
-0.20257
-0.236633
-0.268303
-0.397535
-0.76961
-1.49098
-2.61342
-3.87929
-3.4171
-2.38329
-1.3115
-0.572973
-0.269366
-0.0497793
0.0208226
0.0221268
-0.0481559
-0.0220256
-0.219071
-0.246471
-0.202822
-0.182614
-0.216473
-0.370073
-0.626296
-1.14833
-2.14213
-3.10843
-2.81823
-1.88949
-1.09259
-0.539083
-0.170292
-0.0310364
0.028247
0.0382832
-0.0570724
-0.150326
-0.203833
-0.230197
-0.129298
-0.170369
-0.243222
-0.328683
-0.488024
-0.965474
-1.61474
-2.47299
-1.89504
-1.37662
-0.794164
-0.353525
-0.170758
-0.0792504
0.0147027
-0.0321815
-0.00529141
-0.115565
-0.0100326
-0.197028
-0.177545
-0.129023
-0.148257
-0.232041
-0.359456
-0.642213
-1.14943
-1.7116
-1.17982
-0.748039
-0.482026
-0.258719
-0.189168
-0.0548741
0.0219354
-0.00908783
-0.010462
-0.0381599
-0.0841684
-0.0709944
-0.0573447
-0.0919769
-0.146583
-0.114753
-0.224548
-0.409937
-0.746004
-0.9706
-0.312826
-0.269858
-0.155567
-0.131851
-0.011877
0.0427138
-0.0573895
0.0657005
0.0312848
-0.0125229
-0.0793775
0.00182074
-0.0345017
0.109505
-0.0288651
-0.0201437
-0.0153577
-0.139483
-0.243158
-0.266593
-5.60465
-3.69761
-1.86861
-0.829462
-0.212582
0.139107
0.0816883
0.0556683
-0.0944572
-0.313656
-0.415095
-0.593092
-0.541944
-0.522561
-0.593838
-0.611863
-1.13358
-2.00414
-3.54672
-5.40906
-4.86889
-3.23197
-1.78049
-0.840499
-0.238343
-0.067982
-0.0506718
-0.177145
-0.190292
-0.3839
-0.397843
-0.534726
-0.508298
-0.468389
-0.463041
-0.556249
-0.998734
-1.82533
-3.19099
-4.57373
-4.28617
-2.86615
-1.59786
-0.751743
-0.296384
-0.168209
-0.0566324
-0.124503
-0.26716
-0.402395
-0.457886
-0.526082
-0.458796
-0.457591
-0.37068
-0.500798
-0.873904
-1.52489
-2.67187
-3.89978
-3.46382
-2.38547
-1.40142
-0.654105
-0.378869
-0.185451
-0.0585212
-0.0868797
-0.213568
-0.394959
-0.475315
-0.448841
-0.433189
-0.370873
-0.300975
-0.428888
-0.731475
-1.29258
-2.10075
-3.16436
-2.67818
-1.90895
-1.08266
-0.579145
-0.278261
-0.13936
-0.109492
-0.179507
-0.233231
-0.29465
-0.368983
-0.3891
-0.389664
-0.290984
-0.353112
-0.451993
-0.569653
-1.06339
-1.78739
-2.43759
-1.91906
-1.31774
-0.781635
-0.449661
-0.182013
-0.168631
-0.0859214
-0.173928
-0.154677
-0.323349
-0.273345
-0.250913
-0.28033
-0.230509
-0.21762
-0.284176
-0.488523
-0.745201
-1.26892
-1.72743
-1.17351
-0.777594
-0.496223
-0.257396
-0.0987076
-0.0733081
-0.102381
-0.143777
-0.173465
-0.150116
-0.120061
-0.147294
-0.074605
-0.199444
-0.123192
-0.171318
-0.226126
-0.404089
-0.678973
-0.965681
-0.444621
-0.321124
-0.182781
-0.0453301
-0.0584019
-0.142064
0.0262749
0.0378976
-0.00911966
-0.0988541
-0.0887888
-0.0642007
-0.0863563
-0.0431685
-0.0602265
-0.00717418
-0.0113311
-0.0362635
-0.204469
-0.349806
-5.70767
-3.88034
-2.11486
-1.04956
-0.472526
-0.33838
-0.362219
-0.592569
-0.739216
-1.03577
-1.11751
-1.18237
-1.15292
-1.03142
-0.982361
-1.0623
-1.42163
-2.34501
-3.75398
-5.47143
-5.12095
-3.46766
-1.98127
-1.06059
-0.575825
-0.417993
-0.411731
-0.61881
-0.821349
-0.912205
-1.19622
-1.11126
-1.01783
-0.892833
-0.810087
-0.949141
-1.27429
-2.01073
-3.26569
-4.76133
-4.31635
-3.01885
-1.76318
-1.00331
-0.590066
-0.468367
-0.421625
-0.591248
-0.693336
-0.76593
-0.991882
-0.939968
-0.908666
-0.835218
-0.780878
-0.764789
-1.02931
-1.77555
-2.77503
-3.99304
-3.54929
-2.53699
-1.62504
-0.927804
-0.509427
-0.367624
-0.382969
-0.475241
-0.60956
-0.706873
-0.798813
-0.885682
-0.881027
-0.798983
-0.625197
-0.719874
-0.947757
-1.43217
-2.26361
-3.25682
-2.84103
-2.05566
-1.15572
-0.676885
-0.416311
-0.31093
-0.31813
-0.341261
-0.451202
-0.597632
-0.581843
-0.69593
-0.530438
-0.564129
-0.496568
-0.577845
-0.757005
-1.20558
-1.76036
-2.55029
-2.00588
-1.35936
-0.859773
-0.58072
-0.317479
-0.257229
-0.325564
-0.266852
-0.396129
-0.498779
-0.445697
-0.432318
-0.429358
-0.428811
-0.408658
-0.382809
-0.541477
-0.841732
-1.31431
-1.80309
-1.24561
-0.938278
-0.540524
-0.369472
-0.192668
-0.14624
-0.128217
-0.149847
-0.274458
-0.250339
-0.265732
-0.276087
-0.240406
-0.329414
-0.194418
-0.284936
-0.322989
-0.473841
-0.79079
-1.08515
-0.456323
-0.315009
-0.188059
-0.155813
-0.0644297
-0.014406
-0.108976
-0.119485
-0.0922832
-0.0341661
-0.101635
-0.0784873
-0.0634778
-0.0740522
-0.0874982
-0.0405404
-0.078257
-0.205551
-0.367563
-0.298521
-6.06657
-4.15417
-2.53866
-1.47934
-0.95372
-0.7991
-0.91732
-1.22725
-1.44553
-1.72716
-1.94653
-1.95063
-1.84467
-1.66247
-1.56515
-1.53629
-1.86214
-2.68284
-4.16836
-5.62793
-5.28236
-3.73778
-2.37049
-1.41541
-0.980426
-0.798476
-0.864056
-1.08175
-1.35723
-1.5636
-1.75933
-1.72331
-1.69063
-1.48273
-1.3341
-1.37594
-1.66059
-2.34582
-3.56822
-4.87958
-4.50965
-3.3247
-2.08166
-1.36897
-0.911635
-0.796118
-0.788183
-0.971736
-1.09182
-1.39212
-1.4888
-1.53268
-1.50254
-1.31387
-1.19123
-1.20442
-1.45427
-2.05583
-3.00362
-4.09899
-3.78544
-2.7056
-1.7322
-1.15676
-0.823479
-0.723174
-0.692504
-0.91334
-1.01912
-1.19491
-1.24679
-1.29585
-1.18097
-1.0435
-0.976311
-1.01741
-1.14086
-1.66101
-2.50484
-3.45064
-2.87985
-2.19732
-1.4559
-0.853866
-0.612828
-0.594325
-0.523663
-0.640719
-0.875044
-0.834023
-1.00903
-0.986371
-0.944396
-0.882943
-0.805325
-0.768229
-0.940688
-1.40604
-1.93591
-2.66364
-2.09743
-1.56922
-1.11729
-0.687885
-0.504656
-0.35878
-0.45582
-0.594788
-0.565261
-0.687319
-0.745013
-0.712413
-0.711035
-0.615623
-0.517365
-0.490562
-0.738465
-0.921205
-1.43577
-1.78147
-1.31793
-0.979322
-0.626663
-0.381843
-0.275663
-0.281773
-0.272766
-0.276417
-0.2989
-0.416497
-0.38623
-0.449247
-0.394423
-0.353183
-0.30258
-0.374786
-0.373057
-0.524049
-0.771147
-1.16984
-0.441015
-0.328595
-0.300076
-0.155197
-0.106649
-0.0913179
-0.0548247
-0.0693288
-0.0429141
-0.160513
-0.183443
-0.0987104
-0.0914046
-0.119255
-0.122245
-0.0298555
-0.144629
-0.249373
-0.305514
-0.418425
-6.46047
-4.71023
-3.06295
-2.03111
-1.53336
-1.42273
-1.47966
-1.90538
-2.2136
-2.63867
-2.72072
-2.72376
-2.6013
-2.41981
-2.19586
-2.08539
-2.40868
-3.20411
-4.51873
-6.06001
-5.59031
-4.14968
-2.8628
-1.94318
-1.39807
-1.34214
-1.46066
-1.69718
-1.98227
-2.31549
-2.40216
-2.43501
-2.24999
-2.12286
-1.91365
-1.87441
-2.14962
-2.79573
-3.92835
-5.19621
-4.9056
-3.63313
-2.43332
-1.74387
-1.25898
-1.24718
-1.31231
-1.47868
-1.68596
-1.98652
-2.13643
-2.05967
-1.94134
-1.80879
-1.60388
-1.57118
-1.8201
-2.36619
-3.31965
-4.41465
-4.02599
-3.01647
-2.15831
-1.42125
-1.11958
-1.00871
-1.07912
-1.22851
-1.43529
-1.63226
-1.72217
-1.77688
-1.65263
-1.49844
-1.33083
-1.34694
-1.50624
-1.87682
-2.7891
-3.64788
-3.07211
-2.33635
-1.67305
-1.12935
-0.94367
-0.774914
-0.881545
-0.970864
-1.19052
-1.22687
-1.32703
-1.34806
-1.27211
-1.16513
-1.00248
-1.06458
-1.18431
-1.51699
-2.11256
-2.81575
-2.28899
-1.70627
-1.20637
-0.855139
-0.62424
-0.623132
-0.634716
-0.742737
-0.887523
-0.940149
-0.933509
-0.991152
-0.917544
-0.819358
-0.680369
-0.69814
-0.82616
-1.04773
-1.52888
-2.03323
-1.36381
-1.03994
-0.737287
-0.467421
-0.43193
-0.412284
-0.41961
-0.37571
-0.47708
-0.533297
-0.610618
-0.514787
-0.525946
-0.503455
-0.49808
-0.4639
-0.583539
-0.64719
-0.939351
-1.17623
-0.474522
-0.359797
-0.195378
-0.194307
-0.118327
-0.108278
-0.0513204
-0.154258
-0.162529
-0.237166
-0.181146
-0.190992
-0.170811
-0.167078
-0.199224
-0.0993879
-0.245009
-0.183341
-0.363696
-0.373816
-7.00005
-5.25399
-3.73848
-2.67821
-2.19165
-2.11653
-2.17951
-2.63607
-3.04518
-3.36031
-3.50031
-3.59865
-3.41918
-3.14203
-2.86214
-2.76208
-2.99488
-3.73649
-5.05342
-6.54109
-6.08524
-4.70906
-3.25111
-2.44197
-2.04426
-1.92857
-2.12511
-2.38194
-2.68015
-2.98496
-3.19805
-3.17758
-3.04036
-2.77485
-2.53106
-2.48353
-2.65402
-3.28185
-4.40514
-5.64121
-5.14495
-3.98366
-2.90865
-2.17467
-1.71961
-1.65422
-1.8318
-2.05952
-2.38904
-2.62292
-2.68635
-2.68483
-2.56014
-2.37757
-2.1834
-2.01295
-2.19812
-2.77616
-3.66228
-4.69959
-4.27269
-3.37565
-2.38611
-1.82335
-1.58795
-1.40509
-1.47268
-1.63647
-1.92895
-2.13402
-2.21118
-2.32388
-2.12393
-1.9236
-1.82173
-1.70612
-1.88117
-2.35512
-2.98284
-3.86267
-3.41
-2.67935
-1.89016
-1.437
-1.21614
-1.10422
-1.12514
-1.37495
-1.5588
-1.65767
-1.70345
-1.70559
-1.65701
-1.59589
-1.3776
-1.38591
-1.43761
-1.73866
-2.37854
-3.01414
-2.43665
-1.85106
-1.2676
-1.10768
-0.905601
-0.873682
-0.902741
-0.904835
-1.07337
-1.29958
-1.21787
-1.27156
-1.1875
-1.09598
-0.992049
-0.912625
-0.99891
-1.24794
-1.67987
-2.16237
-1.51647
-1.1675
-0.854478
-0.673574
-0.486408
-0.504414
-0.573279
-0.612123
-0.619558
-0.641609
-0.745461
-0.776404
-0.795135
-0.668614
-0.623806
-0.626812
-0.708137
-0.722532
-1.04334
-1.30248
-0.517817
-0.428483
-0.186276
-0.284763
-0.159434
-0.199352
-0.14873
-0.193635
-0.254818
-0.245315
-0.214759
-0.257828
-0.201631
-0.160764
-0.222349
-0.249211
-0.168617
-0.332963
-0.357283
-0.528152
-7.34362
-5.87246
-4.31073
-3.2829
-2.85377
-2.74729
-2.85615
-3.32451
-3.80799
-4.17513
-4.41145
-4.38162
-4.17535
-3.94376
-3.48327
-3.3926
-3.62382
-4.30945
-5.50225
-6.91193
-6.54224
-5.11627
-3.81608
-3.06316
-2.54624
-2.52544
-2.60926
-2.98591
-3.33188
-3.57513
-3.80968
-3.85294
-3.66968
-3.36705
-3.06935
-2.89423
-3.19192
-3.83085
-4.80332
-5.97761
-5.52358
-4.4484
-3.38668
-2.59057
-2.23044
-2.19115
-2.32711
-2.5726
-2.85635
-3.1874
-3.33749
-3.28341
-3.12119
-2.77285
-2.60126
-2.54219
-2.68706
-3.23961
-4.04752
-5.06594
-4.6075
-3.70394
-2.78549
-2.17982
-1.81789
-1.84448
-1.8723
-2.11656
-2.36369
-2.58291
-2.73975
-2.79159
-2.59039
-2.27411
-2.12851
-2.07357
-2.20733
-2.60325
-3.39861
-4.18073
-3.58692
-2.81473
-2.23567
-1.75772
-1.53729
-1.52324
-1.50964
-1.65349
-1.82386
-2.0447
-2.09273
-2.10599
-1.97231
-1.83653
-1.74176
-1.67412
-1.72046
-2.13081
-2.5954
-3.22548
-2.59465
-2.12393
-1.64381
-1.34694
-0.99798
-1.06352
-1.02115
-1.17828
-1.34567
-1.50785
-1.50161
-1.52676
-1.47215
-1.28509
-1.27857
-1.18227
-1.2417
-1.48083
-1.91392
-2.28717
-1.59512
-1.26381
-0.981423
-0.839989
-0.640487
-0.594475
-0.615647
-0.771021
-0.765447
-0.913856
-0.933046
-0.95551
-0.82433
-0.752263
-0.754088
-0.650735
-0.778656
-0.913843
-1.15282
-1.39228
-0.531023
-0.371805
-0.312417
-0.280992
-0.26694
-0.187947
-0.167741
-0.162025
-0.304081
-0.303511
-0.308427
-0.384264
-0.324864
-0.287111
-0.185417
-0.173589
-0.284621
-0.336087
-0.411161
-0.485298
-8.02031
-6.37994
-4.90506
-3.98428
-3.47648
-3.42533
-3.58475
-4.00917
-4.40805
-4.87098
-5.18174
-5.12839
-4.90484
-4.52254
-4.0482
-4.00261
-4.2287
-4.89642
-5.91626
-7.43855
-6.98797
-5.65806
-4.34683
-3.53818
-3.08384
-2.98609
-3.17731
-3.43077
-3.99656
-4.32773
-4.4592
-4.4549
-4.19537
-3.90873
-3.63489
-3.4732
-3.67437
-4.26981
-5.23894
-6.35483
-5.92258
-4.86645
-3.82921
-3.17402
-2.75078
-2.6343
-2.77205
-3.01307
-3.37436
-3.60407
-3.75752
-3.83883
-3.61299
-3.29557
-3.04914
-2.92044
-3.06524
-3.53147
-4.40176
-5.34739
-4.87506
-4.04233
-3.12739
-2.58151
-2.28052
-2.193
-2.24495
-2.51435
-2.69406
-2.99168
-3.09116
-3.10799
-2.97807
-2.7727
-2.49331
-2.4235
-2.50202
-2.93402
-3.60913
-4.35965
-3.84408
-3.11719
-2.50825
-2.03641
-1.7826
-1.68148
-1.84026
-2.06122
-2.16042
-2.33761
-2.43072
-2.38741
-2.29511
-2.16845
-1.95272
-1.88321
-1.96782
-2.29804
-2.83403
-3.4026
-2.71462
-2.27986
-1.81793
-1.56613
-1.31413
-1.32177
-1.30728
-1.44251
-1.55555
-1.66475
-1.74326
-1.71905
-1.68987
-1.53527
-1.40045
-1.44646
-1.41002
-1.7032
-1.95119
-2.38746
-1.68033
-1.36587
-1.1798
-0.866949
-0.860606
-0.754108
-0.818812
-0.908568
-0.956898
-1.0248
-1.03557
-1.00765
-0.992595
-0.923471
-0.860045
-0.845349
-0.897619
-1.01236
-1.19909
-1.4133
-0.554756
-0.416392
-0.452357
-0.294387
-0.294336
-0.306062
-0.258199
-0.316231
-0.370485
-0.369151
-0.343425
-0.328442
-0.308231
-0.375025
-0.311642
-0.344509
-0.348525
-0.330276
-0.382089
-0.436706
-8.41553
-6.88705
-5.52658
-4.55745
-4.01881
-3.92244
-4.12753
-4.50984
-4.9019
-5.44302
-5.66425
-5.67839
-5.42437
-5.06756
-4.63263
-4.48048
-4.68782
-5.32131
-6.42555
-7.68733
-7.38213
-6.13726
-4.93218
-4.15524
-3.64899
-3.56239
-3.60429
-3.93732
-4.36149
-4.70443
-4.95463
-4.90843
-4.67541
-4.39163
-4.06918
-3.94534
-4.05163
-4.62878
-5.55367
-6.63561
-6.27061
-5.19452
-4.20192
-3.52814
-3.11984
-3.06073
-3.17432
-3.55043
-3.71009
-4.12528
-4.26704
-4.15242
-4.04192
-3.7279
-3.4478
-3.29046
-3.43316
-3.87911
-4.7525
-5.63424
-5.13025
-4.2993
-3.47385
-2.98676
-2.60327
-2.52641
-2.71072
-2.87775
-3.06377
-3.32217
-3.44289
-3.46982
-3.34445
-3.04637
-2.84244
-2.73497
-2.82438
-3.1952
-3.93435
-4.53028
-4.02249
-3.34091
-2.64349
-2.30339
-2.06251
-2.00698
-2.01685
-2.24588
-2.43707
-2.55705
-2.66724
-2.72209
-2.57976
-2.28971
-2.11014
-2.07559
-2.2659
-2.52086
-3.00398
-3.54009
-2.85025
-2.35373
-1.9308
-1.66995
-1.4818
-1.32443
-1.52126
-1.58005
-1.71119
-1.90996
-1.91572
-1.93139
-1.849
-1.71234
-1.59494
-1.47792
-1.57948
-1.81702
-2.09282
-2.49445
-1.73089
-1.41552
-1.17601
-1.07907
-0.870885
-0.815323
-0.94625
-1.01273
-1.00387
-1.10796
-1.1978
-1.22253
-1.09944
-1.01093
-0.989982
-0.902139
-0.968351
-1.05627
-1.31509
-1.55069
-0.567374
-0.487509
-0.344165
-0.300588
-0.30476
-0.392985
-0.343307
-0.35141
-0.409615
-0.43057
-0.456039
-0.406136
-0.376112
-0.404133
-0.256585
-0.336406
-0.351047
-0.416971
-0.45895
-0.523626
-8.77863
-7.33411
-6.02077
-5.10067
-4.53719
-4.34991
-4.60909
-4.87208
-5.33078
-5.81605
-6.0539
-6.03212
-5.82306
-5.36451
-5.09014
-4.81194
-5.11935
-5.68536
-6.73938
-7.93882
-7.69781
-6.48127
-5.35245
-4.4201
-3.99211
-3.89345
-4.08156
-4.33125
-4.70914
-5.04973
-5.22081
-5.22686
-5.06519
-4.67536
-4.38656
-4.28173
-4.35809
-4.90671
-5.79864
-6.81872
-6.52561
-5.51458
-4.51368
-3.93786
-3.43096
-3.39388
-3.46835
-3.77929
-4.02618
-4.32495
-4.47544
-4.49206
-4.30136
-4.02836
-3.72819
-3.61271
-3.71898
-4.1554
-4.96507
-5.82402
-5.45729
-4.57882
-3.80477
-3.23833
-2.86074
-2.80621
-2.88139
-3.07498
-3.35866
-3.51564
-3.68091
-3.70735
-3.56629
-3.21369
-3.0269
-2.99653
-3.1398
-3.44328
-4.0346
-4.65736
-4.23116
-3.58085
-2.96242
-2.55777
-2.28943
-2.14036
-2.30021
-2.49588
-2.5149
-2.86623
-2.90367
-2.92852
-2.77318
-2.53136
-2.36755
-2.35896
-2.43217
-2.67689
-3.19605
-3.71089
-3.02323
-2.50904
-2.06853
-1.86715
-1.63342
-1.58587
-1.59641
-1.68752
-1.89195
-2.07111
-2.07333
-2.02749
-1.97208
-1.83396
-1.73028
-1.6543
-1.64701
-1.97809
-2.24949
-2.58879
-1.86256
-1.47681
-1.30035
-1.09681
-1.05666
-0.887186
-0.962023
-1.15435
-1.06732
-1.22505
-1.24098
-1.21701
-1.1693
-1.09601
-1.01693
-0.991034
-1.07179
-1.17898
-1.32667
-1.55099
-0.633617
-0.512032
-0.432651
-0.425187
-0.33558
-0.350189
-0.304122
-0.316209
-0.407599
-0.479555
-0.417162
-0.377241
-0.4005
-0.340781
-0.356543
-0.387685
-0.365382
-0.398356
-0.477986
-0.48499
-8.99661
-7.72886
-6.3978
-5.38489
-4.92345
-4.76407
-4.79998
-5.16059
-5.55035
-6.10751
-6.26921
-6.22287
-5.96672
-5.61338
-5.2489
-5.15621
-5.29069
-5.89094
-6.9603
-8.1447
-7.91604
-6.7658
-5.5727
-4.80037
-4.33373
-4.16382
-4.33893
-4.57028
-4.91168
-5.26972
-5.42957
-5.4239
-5.14004
-4.84669
-4.58104
-4.43731
-4.63291
-5.18689
-6.01586
-6.97947
-6.69152
-5.71859
-4.89465
-4.11977
-3.75596
-3.57453
-3.65793
-3.94222
-4.18621
-4.53518
-4.62804
-4.58579
-4.4109
-4.10051
-3.91386
-3.75086
-3.87546
-4.30318
-5.10647
-5.93538
-5.54318
-4.85153
-4.01071
-3.40132
-3.16615
-2.98329
-3.09557
-3.29366
-3.52564
-3.66628
-3.82738
-3.74491
-3.59331
-3.36283
-3.20306
-3.07561
-3.18736
-3.56751
-4.10688
-4.82207
-4.33031
-3.70618
-3.13351
-2.67749
-2.42378
-2.33198
-2.44136
-2.52147
-2.76398
-2.96574
-3.00056
-2.9453
-2.7926
-2.61068
-2.4887
-2.39702
-2.5681
-2.82467
-3.19646
-3.76808
-3.09688
-2.76039
-2.30586
-1.92182
-1.78385
-1.63999
-1.80157
-1.81059
-1.96904
-2.0455
-2.22119
-2.07665
-1.99522
-1.81583
-1.80312
-1.69353
-1.85597
-2.05629
-2.29989
-2.63369
-1.81134
-1.58329
-1.3359
-1.20079
-1.10122
-1.06487
-1.03858
-1.08604
-1.223
-1.20731
-1.25365
-1.18815
-1.22496
-1.19317
-1.09632
-0.990493
-1.04505
-1.18158
-1.28288
-1.52495
-0.62713
-0.515958
-0.48551
-0.410062
-0.341145
-0.357064
-0.370918
-0.347843
-0.347261
-0.4423
-0.356734
-0.490882
-0.406742
-0.385842
-0.406022
-0.376638
-0.427879
-0.385936
-0.47353
-0.583428
-9.26501
-7.88027
-6.60334
-5.61689
-5.15237
-4.89094
-4.97586
-5.27813
-5.65785
-6.02898
-6.24624
-6.16546
-5.92908
-5.56484
-5.26605
-5.15036
-5.424
-5.88599
-7.00226
-8.13697
-8.066
-6.91153
-5.81881
-5.00177
-4.59772
-4.30864
-4.37432
-4.65672
-4.93111
-5.2109
-5.3655
-5.36512
-5.26587
-4.87927
-4.6728
-4.51059
-4.74486
-5.18151
-5.9882
-6.98151
-6.89472
-5.88192
-4.97849
-4.26635
-3.92599
-3.7061
-3.78097
-3.99117
-4.18815
-4.50352
-4.54023
-4.5662
-4.45617
-4.12567
-3.8447
-3.81135
-3.95075
-4.45371
-5.12551
-5.93
-5.62484
-4.89129
-4.20644
-3.54007
-3.2446
-3.1628
-3.17713
-3.25831
-3.55927
-3.64994
-3.7952
-3.73078
-3.61943
-3.45986
-3.22952
-3.25573
-3.23439
-3.59319
-4.17546
-4.79921
-4.36999
-3.81373
-3.27041
-2.92032
-2.51544
-2.44569
-2.44538
-2.54872
-2.74783
-2.91751
-2.99151
-2.93983
-2.79563
-2.61543
-2.51403
-2.48182
-2.57165
-2.74856
-3.24717
-3.80388
-3.17502
-2.70496
-2.3415
-2.04255
-1.78351
-1.76566
-1.77895
-1.81715
-1.91351
-2.06039
-2.14228
-2.09357
-2.03901
-1.90897
-1.83456
-1.6819
-1.81411
-2.03978
-2.30802
-2.62274
-1.93644
-1.68333
-1.45804
-1.21074
-1.09169
-1.13115
-1.06439
-1.15256
-1.11031
-1.2888
-1.22271
-1.249
-1.23133
-1.13636
-1.11337
-1.0618
-1.09035
-1.21837
-1.3887
-1.59813
-0.632807
-0.591824
-0.426987
-0.409186
-0.415309
-0.39222
-0.31855
-0.410689
-0.376962
-0.362536
-0.454144
-0.398105
-0.450704
-0.385823
-0.330713
-0.369252
-0.411673
-0.339212
-0.489432
-0.512146
-9.27104
-7.91364
-6.69034
-5.78626
-5.13584
-4.9785
-4.95292
-5.18363
-5.47771
-5.76928
-5.88283
-5.93979
-5.74988
-5.36081
-5.15057
-5.05935
-5.3527
-5.92087
-6.80711
-7.95935
-8.09052
-6.99629
-5.83834
-5.05416
-4.62942
-4.41373
-4.32854
-4.61486
-4.87941
-5.13151
-5.14346
-5.17882
-4.97715
-4.66952
-4.52083
-4.36978
-4.68251
-5.12029
-5.97633
-6.89474
-6.89354
-5.98775
-5.05845
-4.36671
-3.97002
-3.75007
-3.77512
-3.87472
-4.1025
-4.40127
-4.37215
-4.41428
-4.21104
-4.00718
-3.88487
-3.79438
-3.89473
-4.35221
-5.04666
-5.78437
-5.69248
-4.98326
-4.19092
-3.64646
-3.3018
-3.06779
-3.06901
-3.30844
-3.354
-3.56295
-3.62821
-3.60961
-3.4719
-3.34099
-3.17303
-3.05279
-3.22262
-3.57371
-4.15966
-4.72318
-4.45841
-3.88235
-3.25413
-2.87805
-2.51074
-2.39526
-2.47862
-2.52771
-2.63529
-2.7328
-2.8909
-2.8583
-2.76045
-2.53686
-2.42801
-2.41181
-2.4385
-2.70388
-3.18347
-3.68189
-3.10486
-2.83424
-2.37512
-1.99562
-1.8737
-1.71366
-1.76729
-1.8462
-1.96093
-2.02115
-2.04362
-1.96903
-1.96191
-1.83174
-1.81205
-1.69187
-1.79818
-1.93484
-2.23393
-2.63868
-1.9758
-1.68029
-1.49372
-1.27203
-1.08616
-1.00847
-1.05429
-1.11192
-1.12069
-1.22785
-1.16711
-1.22037
-1.18985
-1.03749
-1.04449
-1.08627
-1.05766
-1.17844
-1.36052
-1.499
-0.643853
-0.53924
-0.490694
-0.413349
-0.304416
-0.376306
-0.371079
-0.342698
-0.441215
-0.396973
-0.405157
-0.352591
-0.362291
-0.329851
-0.391338
-0.400422
-0.309624
-0.360768
-0.515225
-0.488536
-9.0933
-7.84928
-6.68332
-5.76895
-5.12014
-4.81264
-4.77208
-4.93768
-5.21138
-5.43418
-5.5172
-5.42656
-5.33726
-5.06358
-4.82711
-4.81668
-4.99497
-5.63113
-6.58687
-7.65448
-7.94361
-6.90891
-5.83859
-5.08744
-4.504
-4.23286
-4.17089
-4.36269
-4.49613
-4.66324
-4.81928
-4.8094
-4.61957
-4.40885
-4.19765
-4.15164
-4.40585
-4.89873
-5.75458
-6.62479
-6.70013
-5.93996
-5.02721
-4.35127
-3.86697
-3.61711
-3.61914
-3.78229
-3.80649
-4.09989
-4.02811
-4.03624
-3.95653
-3.78538
-3.60103
-3.54885
-3.78371
-4.13205
-4.90369
-5.62339
-5.57479
-4.89035
-4.04624
-3.58339
-3.18028
-2.97508
-2.97114
-3.07846
-3.22956
-3.28384
-3.41388
-3.34744
-3.26278
-3.00349
-2.94854
-3.00885
-3.05914
-3.42732
-3.92486
-4.51141
-4.37994
-3.86913
-3.20673
-2.87037
-2.48865
-2.38948
-2.39501
-2.37091
-2.45578
-2.65301
-2.6398
-2.57147
-2.55449
-2.36878
-2.351
-2.33842
-2.3667
-2.72505
-3.04698
-3.55913
-3.13403
-2.774
-2.38518
-2.00009
-1.76156
-1.77167
-1.74847
-1.71422
-1.75906
-1.84059
-1.90293
-1.91056
-1.8326
-1.73698
-1.61141
-1.62833
-1.68423
-1.89808
-2.19448
-2.5086
-1.91627
-1.69582
-1.44317
-1.18777
-1.11627
-1.01624
-1.04753
-1.07275
-1.05491
-1.10132
-1.17697
-1.10595
-1.10307
-1.07314
-0.995003
-0.963181
-0.977127
-1.13607
-1.33122
-1.50161
-0.633944
-0.526224
-0.457511
-0.378129
-0.439103
-0.379575
-0.308303
-0.276241
-0.348453
-0.420542
-0.406246
-0.315138
-0.401458
-0.365859
-0.3632
-0.283033
-0.298828
-0.36213
-0.454125
-0.546314
-8.89679
-7.57659
-6.43898
-5.45138
-4.81515
-4.51675
-4.48684
-4.55858
-4.57702
-4.86007
-4.88375
-4.9342
-4.68539
-4.51677
-4.35173
-4.38405
-4.59574
-5.3469
-6.16326
-7.26632
-7.68062
-6.73822
-5.72762
-4.86947
-4.2535
-3.98378
-3.93663
-3.89093
-4.06115
-4.15109
-4.22819
-4.26282
-4.14192
-3.97293
-3.797
-3.83947
-3.99332
-4.57891
-5.30611
-6.26172
-6.64406
-5.72486
-4.77734
-4.14231
-3.76232
-3.30567
-3.34292
-3.36743
-3.52401
-3.55277
-3.67726
-3.64136
-3.4791
-3.38679
-3.20473
-3.20708
-3.45981
-3.93728
-4.57455
-5.21133
-5.4574
-4.64238
-3.95778
-3.4385
-3.06498
-2.83325
-2.74814
-2.84059
-2.86984
-2.95838
-3.08735
-3.0009
-2.8351
-2.75854
-2.65527
-2.65164
-2.74405
-3.24231
-3.71532
-4.33533
-4.27176
-3.72223
-3.12711
-2.794
-2.44981
-2.24276
-2.19638
-2.1507
-2.23444
-2.2926
-2.36622
-2.32059
-2.21683
-2.19973
-2.04489
-2.09119
-2.27667
-2.45642
-2.84324
-3.33474
-3.04797
-2.62007
-2.21167
-1.95204
-1.6897
-1.57123
-1.54928
-1.56476
-1.5169
-1.67686
-1.68419
-1.6205
-1.59351
-1.55784
-1.35895
-1.43507
-1.59016
-1.75215
-2.07022
-2.30726
-1.85725
-1.5773
-1.28631
-1.13441
-1.06925
-1.0286
-0.867145
-0.958997
-0.978996
-1.02637
-1.03207
-0.962059
-0.973505
-1.01042
-0.855999
-0.937205
-0.94152
-1.04815
-1.19645
-1.4371
-0.648222
-0.591464
-0.481943
-0.402281
-0.378937
-0.363913
-0.335952
-0.296858
-0.304261
-0.307922
-0.3155
-0.324855
-0.380392
-0.31539
-0.237279
-0.336596
-0.337424
-0.387998
-0.389859
-0.50795
-8.41826
-7.26359
-6.08169
-5.10912
-4.46531
-4.13212
-3.92156
-3.86535
-4.03912
-4.13167
-4.16114
-4.12212
-3.95362
-3.80319
-3.74147
-3.79939
-4.09497
-4.71717
-5.60452
-6.56876
-7.36812
-6.33388
-5.32846
-4.54469
-3.97529
-3.54542
-3.45734
-3.44142
-3.49903
-3.6297
-3.70326
-3.48371
-3.47361
-3.30267
-3.2972
-3.32319
-3.61626
-4.09743
-4.85673
-5.74221
-6.25078
-5.45846
-4.56141
-3.82637
-3.41002
-3.11242
-3.00977
-2.91179
-2.95754
-3.05916
-3.13949
-3.03027
-2.94032
-2.87517
-2.7283
-2.76475
-3.0462
-3.4885
-4.13981
-4.78105
-5.14922
-4.45878
-3.71549
-3.2148
-2.80516
-2.57838
-2.4502
-2.33711
-2.43553
-2.56061
-2.57904
-2.53626
-2.43771
-2.30996
-2.2254
-2.2694
-2.4548
-2.83273
-3.36693
-3.88412
-4.02704
-3.54474
-2.92789
-2.50625
-2.27777
-2.01768
-1.95085
-1.94988
-1.95313
-1.99465
-2.01602
-1.96905
-1.89043
-1.89017
-1.77197
-1.76697
-1.91725
-2.25929
-2.65452
-3.07973
-2.85377
-2.56899
-2.15007
-1.82094
-1.65935
-1.45863
-1.35659
-1.43233
-1.44317
-1.42395
-1.38314
-1.46117
-1.37778
-1.32621
-1.28689
-1.27237
-1.40504
-1.58348
-1.8447
-2.19096
-1.70474
-1.55419
-1.30138
-1.07444
-1.01908
-0.882426
-0.782514
-0.824817
-0.866402
-0.892129
-0.905578
-0.835606
-0.812187
-0.761372
-0.757932
-0.701873
-0.816995
-0.95141
-1.08671
-1.33627
-0.610474
-0.546198
-0.420091
-0.33987
-0.345071
-0.280805
-0.322525
-0.183295
-0.228645
-0.319651
-0.322167
-0.341269
-0.270707
-0.205113
-0.174185
-0.245884
-0.279496
-0.325812
-0.384205
-0.444823
-7.88806
-6.7261
-5.5282
-4.6166
-3.88157
-3.48362
-3.16867
-3.21036
-3.27227
-3.23088
-3.22656
-3.13964
-3.03691
-2.986
-2.9355
-3.06253
-3.36175
-4.00822
-4.92527
-5.97361
-6.8974
-5.91911
-4.80371
-4.0059
-3.37505
-3.08683
-2.87315
-2.76878
-2.82175
-2.85842
-2.80773
-2.80055
-2.71464
-2.62002
-2.5672
-2.7264
-2.95423
-3.58248
-4.27182
-5.28006
-5.88928
-5.09945
-4.20354
-3.55581
-2.97711
-2.71572
-2.44791
-2.4016
-2.39881
-2.5096
-2.44026
-2.38565
-2.34899
-2.26955
-2.21255
-2.26502
-2.47286
-2.9853
-3.60813
-4.33446
-4.82129
-4.21911
-3.53818
-2.91758
-2.41491
-2.17448
-2.12545
-2.0101
-2.00888
-2.00177
-2.00247
-2.00254
-1.86655
-1.84095
-1.80094
-1.89349
-2.03277
-2.45632
-2.91896
-3.56328
-3.81214
-3.22432
-2.76601
-2.27724
-1.91321
-1.76149
-1.60696
-1.5933
-1.5406
-1.58234
-1.60421
-1.52817
-1.48868
-1.37466
-1.46382
-1.47058
-1.57958
-1.83303
-2.34288
-2.81141
-2.71561
-2.37297
-1.92362
-1.56117
-1.40859
-1.20289
-1.13536
-1.15612
-1.15402
-1.15691
-1.26244
-1.08164
-1.10107
-1.01413
-0.98785
-1.12122
-1.16006
-1.31185
-1.64567
-1.8972
-1.64943
-1.46283
-1.21267
-0.929897
-0.814595
-0.783916
-0.704332
-0.665469
-0.736478
-0.707791
-0.654364
-0.678973
-0.626086
-0.582615
-0.549222
-0.623124
-0.722389
-0.851527
-0.943999
-1.17786
-0.459554
-0.474559
-0.399201
-0.379459
-0.20359
-0.226926
-0.229373
-0.258962
-0.258485
-0.262238
-0.229883
-0.289963
-0.24505
-0.138684
-0.214416
-0.265403
-0.266313
-0.261428
-0.305517
-0.401282
-7.24498
-6.07006
-4.89546
-3.84534
-3.09929
-2.69238
-2.45098
-2.24164
-2.27085
-2.22947
-2.28209
-2.18636
-2.12794
-2.06052
-2.04045
-2.20171
-2.50178
-3.2298
-4.17496
-5.11806
-6.30589
-5.32085
-4.27369
-3.52628
-2.85315
-2.40513
-2.25844
-2.09801
-2.00368
-1.94494
-2.01631
-1.9996
-1.84238
-1.81111
-1.81903
-1.89724
-2.29721
-2.84071
-3.54368
-4.49109
-5.43609
-4.56636
-3.73887
-2.9584
-2.4927
-2.16707
-1.89166
-1.78229
-1.7062
-1.71794
-1.7284
-1.64116
-1.59634
-1.52812
-1.53957
-1.62056
-1.9191
-2.4295
-3.08085
-3.78803
-4.42541
-3.80373
-3.06635
-2.4965
-2.03695
-1.76232
-1.50054
-1.56146
-1.4357
-1.49045
-1.47257
-1.40002
-1.3521
-1.30336
-1.28898
-1.34938
-1.5351
-1.92098
-2.48731
-3.07094
-3.47502
-3.00213
-2.46655
-1.95312
-1.64117
-1.38024
-1.2859
-1.19397
-1.21295
-1.08775
-1.1205
-1.03971
-1.06662
-1.02402
-1.00948
-1.06148
-1.29257
-1.44625
-1.9381
-2.37749
-2.46816
-2.10626
-1.82507
-1.41274
-1.17246
-0.952355
-0.908877
-0.887359
-0.810679
-0.840428
-0.876827
-0.876173
-0.771046
-0.67926
-0.731914
-0.756673
-0.912981
-1.11083
-1.42137
-1.71982
-1.47788
-1.30665
-1.05663
-0.837364
-0.674931
-0.678688
-0.525798
-0.524257
-0.485061
-0.472598
-0.484719
-0.469118
-0.424803
-0.469122
-0.399792
-0.474678
-0.522119
-0.766376
-0.893726
-1.0259
-0.548648
-0.455379
-0.383902
-0.326111
-0.258403
-0.184313
-0.188363
-0.150949
-0.0923105
-0.272735
-0.154248
-0.167024
-0.14175
-0.0546512
-0.185197
-0.116228
-0.159022
-0.216244
-0.251096
-0.331324
-6.46831
-5.30131
-4.13858
-3.22592
-2.39996
-1.99473
-1.60581
-1.45162
-1.42761
-1.21214
-1.24075
-1.21345
-1.04569
-1.07235
-1.1532
-1.3062
-1.72641
-2.39691
-3.25508
-4.36004
-5.66939
-4.73172
-3.72199
-2.92845
-2.20448
-1.81641
-1.45314
-1.39821
-1.21179
-1.18547
-1.16755
-1.10718
-1.01176
-1.0944
-1.02346
-1.12587
-1.51755
-2.04296
-2.86961
-3.69986
-4.90279
-4.10362
-3.19646
-2.52181
-1.85571
-1.51507
-1.26067
-1.18862
-1.06478
-1.04956
-1.0546
-0.867019
-0.982414
-0.913678
-0.878341
-1.02196
-1.26399
-1.92238
-2.45617
-3.13782
-4.05627
-3.46341
-2.70461
-2.10104
-1.69388
-1.35357
-1.14433
-1.08768
-1.00216
-0.898292
-0.973185
-0.852174
-0.794263
-0.719206
-0.786942
-0.919889
-1.0687
-1.48429
-2.06278
-2.54786
-3.1335
-2.69677
-2.1677
-1.68129
-1.22051
-1.10703
-0.864455
-0.872461
-0.81697
-0.742105
-0.63915
-0.60757
-0.657127
-0.600595
-0.574904
-0.737998
-0.911343
-1.24598
-1.61514
-1.98227
-2.26864
-1.94776
-1.51577
-1.19527
-0.937079
-0.767762
-0.66331
-0.622017
-0.527378
-0.416515
-0.469321
-0.533601
-0.391087
-0.356631
-0.471354
-0.461294
-0.612048
-0.86746
-1.08283
-1.42139
-1.37298
-1.13897
-0.877279
-0.746184
-0.681257
-0.514935
-0.447086
-0.378118
-0.368691
-0.394655
-0.254
-0.27837
-0.222805
-0.232082
-0.286967
-0.290433
-0.350768
-0.51418
-0.650611
-0.829951
-0.492307
-0.361059
-0.315806
-0.257155
-0.135959
-0.16029
-0.0864719
-0.0628782
-0.171433
-0.221116
-0.196887
-0.0412064
-0.0894208
-0.0970403
-0.120821
-0.02921
-0.102968
-0.188458
-0.214997
-0.309058
-5.85131
-4.74218
-3.54755
-2.56082
-1.74073
-1.32158
-0.902115
-0.688148
-0.603002
-0.410742
-0.41145
-0.393638
-0.31407
-0.333405
-0.395839
-0.569131
-1.00716
-1.63433
-2.64734
-3.63753
-5.15103
-4.23069
-3.27107
-2.39386
-1.6424
-1.25932
-0.922838
-0.694246
-0.630772
-0.555755
-0.438583
-0.43375
-0.395554
-0.353788
-0.416194
-0.610535
-0.945372
-1.63521
-2.30381
-3.17823
-4.45612
-3.68741
-2.82817
-2.17082
-1.52357
-1.12091
-0.871216
-0.690519
-0.650569
-0.501009
-0.512737
-0.422606
-0.362432
-0.381374
-0.392996
-0.484182
-0.877588
-1.29551
-1.96932
-2.70651
-3.73261
-3.12183
-2.37272
-1.72214
-1.26846
-0.833515
-0.775083
-0.640937
-0.58014
-0.561081
-0.367939
-0.446424
-0.405541
-0.324522
-0.375245
-0.449262
-0.753556
-1.1652
-1.72625
-2.20054
-2.91547
-2.4298
-1.96427
-1.45488
-1.09911
-0.822896
-0.71758
-0.522315
-0.423908
-0.482297
-0.293429
-0.384746
-0.36744
-0.262513
-0.360652
-0.375266
-0.547427
-0.925527
-1.35968
-1.81506
-2.01378
-1.7616
-1.41863
-0.978969
-0.81505
-0.518281