/*--------------------------------*- C++ -*----------------------------------*\
| =========                 |                                                 |
| \\      /  F ield         | OpenFOAM: The Open Source CFD Toolbox           |
|  \\    /   O peration     | Version:  2212                                  |
|   \\  /    A nd           | Website:  www.openfoam.com                      |
|    \\/     M anipulation  |                                                 |
\*---------------------------------------------------------------------------*/
FoamFile
{
    version     2.0;
    format      ascii;
    arch        "LSB;label=32;scalar=64";
    class       volScalarField;
    location    "0";
    object      stateMean;
}
// * * * * * * * * * * * * * * * * * * * * * * * * * * * * * * * * * * * * * //

dimensions      [0 0 0 1 0 0 0];

internalField   nonuniform List<scalar> 
3200
(
347.283
345.793
344.701
344.248
344.332
344.698
345.195
345.81
346.342
346.749
346.788
346.662
346.242
345.77
345.204
344.675
344.491
344.874
345.746
347.182
341.134
339.943
338.943
338.517
338.567
338.895
339.328
339.905
340.351
340.745
340.707
340.624
340.268
339.839
339.373
338.845
338.698
339.033
339.771
340.846
334.883
333.958
333.119
332.697
332.834
333.084
333.482
333.973
334.31
334.501
334.541
334.574
334.205
333.84
333.399
333.016
332.865
333.079
333.739
334.655
328.652
327.9
327.205
326.881
327.004
327.204
327.519
327.844
328.15
328.249
328.446
328.348
328.069
327.723
327.37
327.105
326.934
327.042
327.659
328.343
322.482
321.769
321.266
321.034
320.997
321.183
321.424
321.667
321.945
322.135
322.189
322.118
321.834
321.622
321.395
321.156
320.983
321.138
321.495
322.137
315.964
315.599
315.225
315.015
315.069
315.209
315.329
315.557
315.661
315.841
315.735
315.853
315.703
315.473
315.278
315.13
315.02
315.073
315.371
315.781
309.638
309.297
309.156
309.071
309.144
309.149
309.2
309.34
309.419
309.489
309.535
309.48
309.388
309.314
309.241
309.07
309.037
309.084
309.295
309.429
303.149
303.137
303.065
303.087
303.015
303.006
303.149
303.063
303.124
303.182
303.248
303.153
303.164
302.982
303.078
303.023
302.97
303.048
303.11
303.103
347.49
346.078
344.88
344.527
344.619
344.96
345.657
346.223
346.766
347.193
347.294
347.265
346.821
346.262
345.693
345.018
344.832
345.015
345.927
347.294
341.276
340.057
339.15
338.804
338.814
339.244
339.781
340.373
340.725
341.098
341.112
341.07
340.704
340.198
339.639
339.132
338.963
339.195
340.016
340.981
335.17
334.097
333.288
332.944
333.005
333.384
333.74
334.202
334.63
334.916
334.972
334.889
334.536
334.141
333.587
333.21
333.066
333.215
333.903
334.784
328.787
327.988
327.378
327.041
327.189
327.409
327.665
328.014
328.375
328.679
328.759
328.61
328.36
327.977
327.525
327.239
327.118
327.27
327.704
328.487
322.411
321.856
321.32
321.135
321.163
321.346
321.612
321.933
322.167
322.325
322.399
322.323
322.143
321.794
321.56
321.337
321.126
321.3
321.734
322.171
316.037
315.588
315.259
315.155
315.122
315.338
315.467
315.733
315.844
316.08
316.03
315.94
315.839
315.612
315.387
315.224
315.194
315.222
315.539
315.845
309.661
309.356
309.198
309.096
309.079
309.191
309.347
309.496
309.602
309.62
309.59
309.576
309.427
309.444
309.241
309.151
309.065
309.106
309.257
309.453
303.291
303.197
303.101
303.009
303.069
303.199
303.074
303.098
303.171
303.274
303.264
303.226
303.222
303.143
303.117
303.018
302.975
302.954
303.08
303.196
347.887
346.546
345.402
345.011
345.127
345.671
346.32
347.077
347.606
348.105
348.187
348.049
347.637
346.989
346.315
345.716
345.383
345.632
346.42
347.65
341.783
340.542
339.59
339.254
339.369
339.798
340.332
340.994
341.527
341.792
342.076
341.817
341.393
340.813
340.19
339.742
339.467
339.62
340.34
341.423
335.416
334.461
333.656
333.389
333.483
333.857
334.267
334.82
335.201
335.422
335.648
335.448
335.138
334.68
334.17
333.658
333.415
333.669
334.217
335.093
329.05
328.313
327.768
327.474
327.47
327.734
328.122
328.527
328.89
329.107
329.199
329.166
328.933
328.538
327.991
327.681
327.494
327.575
328.04
328.758
322.712
322.138
321.523
321.357
321.418
321.628
321.925
322.192
322.478
322.719
322.703
322.723
322.381
322.171
321.814
321.58
321.437
321.573
321.842
322.421
316.223
315.726
315.43
315.374
315.341
315.505
315.781
315.896
316.151
316.321
316.268
316.187
316.058
315.884
315.657
315.407
315.334
315.412
315.681
316.02
309.793
309.574
309.299
309.261
309.223
309.311
309.417
309.544
309.743
309.759
309.775
309.745
309.634
309.618
309.359
309.315
309.215
309.232
309.427
309.632
303.322
303.211
303.125
303.138
303.092
303.087
303.224
303.269
303.267
303.223
303.291
303.253
303.213
303.189
303.16
303.069
303.06
303.143
303.264
303.165
348.689
347.251
346.241
345.837
345.985
346.487
347.208
348.026
348.613
349.089
349.309
349.118
348.644
347.953
347.253
346.567
346.22
346.385
347.265
348.25
342.328
341.186
340.34
339.953
340.1
340.486
341.074
341.731
342.325
342.699
342.894
342.691
342.34
341.693
341.022
340.496
340.199
340.316
341.016
341.926
335.936
335.084
334.281
334.048
334.083
334.447
334.88
335.434
335.823
336.265
336.362
336.264
335.965
335.406
334.842
334.375
334.133
334.255
334.763
335.525
329.552
328.742
328.126
327.943
328.012
328.304
328.634
329.157
329.482
329.774
329.826
329.759
329.425
328.984
328.557
328.206
327.927
328.055
328.541
329.218
322.958
322.482
322.019
321.721
321.793
322.079
322.289
322.641
323.045
323.094
323.269
323.156
322.944
322.648
322.29
321.948
321.808
321.969
322.221
322.742
316.463
316.081
315.827
315.615
315.656
315.728
316.024
316.331
316.423
316.609
316.667
316.57
316.447
316.184
315.886
315.642
315.665
315.631
315.948
316.147
309.954
309.702
309.469
309.354
309.383
309.519
309.63
309.734
309.83
309.985
309.955
309.98
309.852
309.71
309.54
309.482
309.345
309.366
309.494
309.806
303.337
303.254
303.265
303.164
303.161
303.188
303.193
303.24
303.239
303.37
303.392
303.295
303.262
303.257
303.219
303.084
303.154
303.214
303.231
303.314
349.674
348.385
347.322
346.923
347.072
347.591
348.225
349.134
349.794
350.403
350.485
350.304
349.83
349.165
348.364
347.624
347.301
347.463
348.194
349.274
343.15
342.1
341.318
340.945
340.96
341.449
342.067
342.721
343.309
343.802
343.889
343.762
343.274
342.729
342.021
341.436
341.152
341.251
341.878
342.756
336.767
335.818
335.043
334.817
334.805
335.253
335.74
336.26
336.723
337.158
337.307
337.097
336.722
336.237
335.61
335.117
334.893
334.976
335.505
336.276
330.15
329.401
328.889
328.53
328.616
328.882
329.296
329.735
330.15
330.456
330.546
330.492
330.159
329.715
329.204
328.843
328.615
328.608
329.174
329.772
323.428
322.892
322.498
322.248
322.364
322.487
322.862
323.175
323.557
323.679
323.779
323.714
323.476
323.145
322.714
322.485
322.303
322.342
322.669
323.172
316.853
316.412
316.104
315.962
315.946
316.154
316.357
316.625
316.886
316.999
316.993
316.989
316.8
316.541
316.211
316.02
315.933
315.946
316.235
316.597
310.119
309.88
309.692
309.548
309.642
309.747
309.87
309.922
310.092
310.185
310.263
310.13
310.072
309.953
309.833
309.674
309.665
309.602
309.779
309.931
303.411
303.324
303.198
303.239
303.206
303.238
303.22
303.355
303.387
303.473
303.417
303.415
303.372
303.336
303.329
303.187
303.29
303.186
303.328
303.31
350.957
349.655
348.7
348.245
348.375
348.898
349.507
350.419
351.158
351.647
351.787
351.712
351.202
350.469
349.643
348.945
348.562
348.698
349.454
350.498
344.291
343.29
342.316
342.031
342.167
342.569
343.237
343.889
344.472
344.927
345.14
344.97
344.547
343.887
343.171
342.607
342.243
342.347
342.986
343.847
337.554
336.704
336.037
335.745
335.741
336.113
336.69
337.251
337.821
338.182
338.245
338.117
337.751
337.236
336.642
336.034
335.768
335.904
336.382
337.109
330.846
330.199
329.542
329.341
329.475
329.649
330.043
330.479
330.968
331.277
331.354
331.363
330.967
330.494
330.066
329.593
329.399
329.511
329.806
330.436
324.116
323.577
323.046
322.874
322.94
323.106
323.38
323.842
324.179
324.358
324.403
324.326
324.124
323.851
323.38
323.11
322.875
322.895
323.277
323.72
317.251
316.801
316.402
316.443
316.446
316.612
316.822
316.975
317.253
317.537
317.455
317.452
317.258
317.015
316.73
316.453
316.334
316.382
316.63
316.976
310.421
310.154
309.951
309.892
309.827
309.964
310.141
310.271
310.345
310.401
310.504
310.501
310.454
310.237
310.084
309.968
309.926
309.82
310.03
310.207
303.504
303.442
303.237
303.376
303.291
303.371
303.357
303.433
303.516
303.517
303.487
303.519
303.441
303.369
303.394
303.381
303.26
303.384
303.371
303.514
352.199
351.151
350.125
349.671
349.824
350.28
350.901
351.796
352.587
353.115
353.351
353.161
352.646
351.989
351.016
350.363
350.012
350.123
350.781
351.767
345.527
344.46
343.621
343.365
343.353
343.819
344.346
345.091
345.703
346.086
346.321
346.224
345.775
345.104
344.363
343.701
343.494
343.636
344.147
344.963
338.593
337.815
337.142
336.767
336.832
337.205
337.715
338.273
338.78
339.229
339.379
339.207
338.821
338.161
337.615
337.144
336.863
336.995
337.415
338.135
331.722
331.057
330.455
330.194
330.181
330.543
330.877
331.377
331.807
332.123
332.28
332.235
331.85
331.279
330.828
330.437
330.221
330.273
330.752
331.295
324.714
324.126
323.793
323.582
323.632
323.88
324.105
324.445
324.759
325.055
325.103
325.041
324.764
324.432
324.099
323.769
323.544
323.688
323.906
324.352
317.711
317.37
317.065
316.959
316.803
317.056
317.183
317.482
317.751
317.967
317.961
317.932
317.776
317.447
317.271
316.987
316.854
316.902
317.16
317.403
310.682
310.428
310.25
310.224
310.14
310.207
310.33
310.57
310.625
310.806
310.825
310.816
310.623
310.466
310.367
310.151
310.163
310.183
310.317
310.479
303.578
303.445
303.42
303.428
303.453
303.411
303.425
303.448
303.61
303.621
303.625
303.69
303.611
303.544
303.408
303.36
303.432
303.444
303.484
303.532
353.928
352.691
351.722
351.342
351.38
351.855
352.491
353.31
353.993
354.605
354.916
354.713
354.206
353.429
352.478
351.907
351.587
351.713
352.227
353.347
346.888
345.899
345.024
344.684
344.703
345.06
345.663
346.258
347.07
347.53
347.661
347.528
347.022
346.395
345.709
345.092
344.82
344.947
345.48
346.255
339.767
338.993
338.324
338.065
338.042
338.31
338.796
339.326
339.894
340.233
340.387
340.359
339.926
339.32
338.725
338.211
337.956
338.026
338.529
339.191
332.624
332.019
331.404
331.183
331.209
331.435
331.772
332.277
332.627
333.014
333.113
333.041
332.741
332.3
331.735
331.352
331.103
331.211
331.586
332.109
325.466
324.914
324.537
324.317
324.318
324.461
324.841
325.246
325.477
325.724
325.817
325.704
325.48
325.169
324.733
324.418
324.249
324.327
324.631
325.025
318.184
317.873
317.577
317.505
317.435
317.617
317.76
318.027
318.235
318.393
318.471
318.398
318.274
317.988
317.695
317.567
317.349
317.462
317.544
317.856
310.979
310.739
310.653
310.448
310.551
310.549
310.709
310.877
310.982
311.079
311.09
311.033
310.961
310.813
310.655
310.535
310.479
310.485
310.572
310.712
303.673
303.559
303.628
303.507
303.543
303.59
303.574
303.659
303.731
303.74
303.714
303.689
303.651
303.691
303.596
303.594
303.562
303.506
303.525
303.555
355.535
354.387
353.503
353.04
353.011
353.401
354.046
354.791
355.444
356.121
356.342
356.22
355.705
354.986
354.112
353.472
353.171
353.297
353.926
354.806
348.334
347.411
346.617
346.278
346.213
346.548
346.97
347.618
348.267
348.728
348.979
348.814
348.356
347.758
347.055
346.509
346.175
346.314
346.828
347.588
341.007
340.198
339.551
339.248
339.213
339.511
339.945
340.587
340.937
341.452
341.594
341.379
341.079
340.499
339.898
339.383
339.153
339.228
339.755
340.37
333.61
332.994
332.451
332.267
332.188
332.403
332.851
333.235
333.577
333.916
334.037
333.983
333.701
333.186
332.719
332.32
332.104
332.172
332.629
333.01
326.213
325.697
325.218
325.114
325.111
325.282
325.496
325.894
326.206
326.389
326.499
326.491
326.228
325.769
325.385
325.124
325.077
325.096
325.36
325.731
318.726
318.347
318.08
317.988
317.969
317.973
318.316
318.496
318.713
318.957
318.963
318.933
318.765
318.507
318.244
317.965
317.897
317.966
318.086
318.37
311.275
311.03
310.883
310.887
310.781
310.822
311.041
311.181
311.223
311.355
311.445
311.442
311.267
311.106
310.997
310.812
310.776
310.763
310.929
311.095
303.767
303.712
303.599
303.59
303.628
303.749
303.728
303.76
303.837
303.867
303.892
303.833
303.785
303.789
303.613
303.659
303.64
303.672
303.683
303.724
357.271
356.183
355.316
354.867
354.775
355.037
355.698
356.293
356.989
357.598
357.836
357.69
357.244
356.454
355.777
355.05
354.885
354.98
355.588
356.431
349.841
348.927
348.182
347.659
347.639
347.929
348.467
349.003
349.586
350.034
350.205
350.104
349.737
349.06
348.423
347.929
347.597
347.737
348.245
348.962
342.272
341.512
340.835
340.604
340.443
340.734
341.103
341.657
342.078
342.467
342.617
342.544
342.179
341.663
341.068
340.625
340.385
340.476
340.962
341.57
334.764
334.088
333.578
333.294
333.199
333.414
333.73
334.122
334.548
334.779
334.944
334.896
334.613
334.063
333.635
333.335
333.196
333.216
333.544
333.964
327.066
326.571
326.157
325.973
325.924
325.984
326.332
326.682
326.811
327.22
327.258
327.225
326.959
326.563
326.212
325.994
325.847
325.872
326.186
326.546
319.36
318.956
318.662
318.617
318.54
318.643
318.787
318.989
319.272
319.492
319.494
319.407
319.273
319.025
318.787
318.561
318.397
318.571
318.696
318.926
311.684
311.363
311.274
311.165
311.22
311.139
311.295
311.553
311.513
311.696
311.712
311.663
311.568
311.429
311.269
311.154
311.14
311.153
311.213
311.372
303.927
303.827
303.778
303.801
303.744
303.788
303.769
303.803
303.911
303.991
303.928
303.88
303.887
303.806
303.795
303.796
303.741
303.743
303.793
303.778
359.023
358.09
357.174
356.598
356.57
356.822
357.226
357.888
358.491
359.161
359.322
359.164
358.694
358.039
357.307
356.803
356.504
356.667
357.321
358.171
351.392
350.525
349.69
349.295
349.206
349.392
349.885
350.377
350.905
351.36
351.52
351.417
350.947
350.393
349.809
349.309
349.128
349.304
349.775
350.455
343.568
342.829
342.307
341.852
341.806
341.927
342.279
342.784
343.185
343.615
343.708
343.585
343.253
342.722
342.266
341.801
341.607
341.715
342.216
342.811
335.776
335.274
334.679
334.331
334.356
334.42
334.753
335.131
335.492
335.699
335.86
335.711
335.43
335.02
334.64
334.266
334.117
334.236
334.529
335.055
327.886
327.407
327.026
326.773
326.722
326.822
327.102
327.323
327.666
327.92
327.955
327.847
327.595
327.272
326.979
326.695
326.664
326.717
326.897
327.324
319.95
319.716
319.398
319.159
319.166
319.159
319.443
319.552
319.782
319.896
320.071
319.89
319.736
319.457
319.322
319.076
319.093
319.148
319.256
319.487
311.942
311.775
311.61
311.562
311.549
311.595
311.643
311.75
311.93
311.936
311.983
311.895
311.889
311.797
311.626
311.438
311.406
311.456
311.475
311.656
304.024
303.934
303.931
303.884
303.844
303.888
303.927
303.924
303.937
304.04
303.955
304.081
303.983
303.942
303.937
303.88
303.902
303.831
303.892
303.98
360.991
359.917
359.025
358.442
358.375
358.489
358.908
359.482
360.055
360.527
360.744
360.562
360.133
359.497
358.864
358.373
358.249
358.308
359.039
359.863
353.018
352.127
351.366
350.898
350.839
350.875
351.229
351.748
352.19
352.557
352.711
352.624
352.357
351.734
351.239
350.752
350.641
350.729
351.203
351.934
345.022
344.227
343.603
343.186
343.138
343.193
343.512
343.922
344.261
344.65
344.686
344.639
344.387
343.857
343.332
343.023
342.871
343.079
343.471
344.057
336.883
336.325
335.868
335.443
335.387
335.53
335.744
335.989
336.406
336.557
336.702
336.578
336.35
336.027
335.597
335.398
335.137
335.255
335.609
336.057
328.725
328.304
327.937
327.774
327.555
327.661
327.816
328.047
328.336
328.553
328.627
328.528
328.294
327.986
327.729
327.522
327.426
327.416
327.737
328.159
320.599
320.225
319.987
319.823
319.697
319.804
319.928
320.057
320.218
320.397
320.479
320.398
320.279
320.058
319.873
319.595
319.594
319.686
319.828
320.047
312.41
312.214
312.065
311.898
311.859
311.973
311.973
312.116
312.112
312.311
312.245
312.251
312.194
312.045
311.955
311.829
311.777
311.825
311.92
312.072
304.145
304.123
303.984
303.993
304.025
304.028
303.977
304.087
304.066
304.059
304.15
304.087
304.127
304.044
303.967
303.979
303.996
303.896
304.02
304.024
362.862
361.794
360.925
360.392
360.105
360.289
360.565
361.041
361.509
361.89
362.004
361.971
361.607
360.973
360.461
360.028
359.959
360.156
360.687
361.55
354.663
353.812
352.961
352.497
352.387
352.468
352.644
353.143
353.557
353.888
353.899
353.857
353.505
352.985
352.575
352.128
352.126
352.243
352.792
353.467
346.394
345.69
345.018
344.599
344.468
344.499
344.745
345.024
345.38
345.744
345.715
345.691
345.36
344.977
344.634
344.292
344.127
344.312
344.749
345.284
338.075
337.529
336.948
336.625
336.499
336.47
336.652
337.038
337.188
337.451
337.516
337.444
337.202
336.924
336.575
336.25
336.202
336.331
336.706
337.106
329.689
329.238
328.773
328.57
328.373
328.416
328.641
328.804
328.992
329.132
329.29
329.215
329.036
328.699
328.449
328.274
328.13
328.223
328.539
328.913
321.156
320.973
320.631
320.375
320.374
320.328
320.482
320.642
320.815
320.905
320.928
320.823
320.758
320.547
320.426
320.192
320.177
320.191
320.373
320.69
312.827
312.583
312.467
312.319
312.206
312.197
312.303
312.41
312.454
312.579
312.518
312.553
312.488
312.286
312.233
312.206
312.105
312.151
312.264
312.35
304.283
304.195
304.171
304.117
304.033
304.128
304.143
304.132
304.241
304.203
304.211
304.153
304.151
304.102
304.143
304.129
304.014
304.041
304.171
304.128
364.716
363.739
362.9
362.325
362.007
362.009
362.24
362.626
363.054
363.358
363.441
363.27
363.025
362.532
362.023
361.704
361.551
361.848
362.477
363.277
356.279
355.47
354.683
354.224
353.928
353.925
354.099
354.481
354.749
354.986
355.142
355.062
354.738
354.337
353.89
353.576
353.543
353.743
354.316
354.96
347.694
347.122
346.446
346.019
345.778
345.754
345.956
346.28
346.418
346.771
346.699
346.648
346.455
346.122
345.738
345.46
345.452
345.551
346.086
346.617
339.183
338.649
337.998
337.739
337.534
337.515
337.674
337.913
338.159
338.261
338.391
338.276
338.098
337.706
337.489
337.363
337.215
337.379
337.684
338.119
330.565
330.169
329.658
329.479
329.252
329.297
329.43
329.509
329.666
329.901
329.888
329.781
329.692
329.404
329.259
329.101
328.976
329.176
329.347
329.744
321.867
321.589
321.307
321.035
320.907
321.02
321.087
321.127
321.223
321.332
321.394
321.375
321.246
321.076
320.859
320.773
320.719
320.82
321.009
321.242
313.176
313.005
312.817
312.629
312.624
312.586
312.672
312.741
312.755
312.817
312.893
312.806
312.771
312.697
312.565
312.471
312.418
312.51
312.64
312.762
304.41
304.318
304.272
304.215
304.298
304.26
304.206
304.189
304.271
304.35
304.335
304.238
304.314
304.264
304.243
304.142
304.136
304.176
304.246
304.322
366.714
365.641
364.803
364.124
363.789
363.77
363.985
364.254
364.411
364.765
364.789
364.768
364.38
364.015
363.605
363.358
363.269
363.711
364.227
365.083
357.921
357.186
356.435
355.845
355.49
355.462
355.627
355.752
356.043
356.195
356.272
356.245
356.003
355.663
355.275
355.075
354.969
355.286
355.754
356.502
349.252
348.506
347.776
347.368
347.209
346.958
347.174
347.343
347.602
347.683
347.807
347.719
347.455
347.218
346.857
346.654
346.686
346.936
347.356
347.819
340.387
339.711
339.205
338.87
338.678
338.614
338.675
338.887
338.999
339.13
339.259
339.13
338.881
338.686
338.436
338.265
338.176
338.489
338.784
339.265
331.486
331.042
330.585
330.397
330.193
330.117
330.184
330.231
330.379
330.472
330.545
330.466
330.297
330.188
329.919
329.834
329.88
329.914
330.163
330.549
322.516
322.164
321.854
321.697
321.536
321.51
321.57
321.652
321.65
321.834
321.841
321.754
321.681
321.579
321.298
321.281
321.335
321.394
321.614
321.775
313.56
313.325
313.093
313.003
312.998
313.014
312.901
313.033
313.081
313.142
313.148
313.064
313.048
313.044
312.841
312.866
312.811
312.855
312.944
313.14
304.572
304.53
304.441
304.382
304.379
304.383
304.371
304.346
304.362
304.371
304.379
304.383
304.429
304.35
304.256
304.337
304.317
304.347
304.329
304.432
368.583
367.656
366.749
366.058
365.687
365.605
365.615
365.735
366.032
366.189
366.218
366.115
365.824
365.496
365.214
365.021
365.044
365.384
365.997
366.734
359.644
358.802
358.033
357.495
357.161
356.95
357.052
357.189
357.355
357.541
357.614
357.34
357.222
356.898
356.702
356.509
356.566
356.802
357.325
358.018
350.583
349.949
349.252
348.724
348.508
348.395
348.454
348.486
348.623
348.771
348.851
348.695
348.514
348.319
348.011
347.863
347.944
348.18
348.631
349.113
341.49
340.928
340.347
340.016
339.77
339.694
339.698
339.691
339.865
340.028
340.046
339.965
339.792
339.558
339.341
339.234
339.256
339.465
339.836
340.225
332.339
331.955
331.464
331.174
331.074
330.931
330.967
331.049
331.11
331.182
331.203
331.126
330.989
330.906
330.685
330.563
330.585
330.795
331.065
331.392
323.107
322.892
322.563
322.328
322.257
322.141
322.113
322.247
322.299
322.302
322.261
322.317
322.193
322.082
321.969
321.87
321.912
321.996
322.168
322.444
313.879
313.769
313.571
313.4
313.4
313.314
313.259
313.336
313.402
313.441
313.455
313.372
313.323
313.237
313.19
313.083
313.143
313.221
313.302
313.51
304.692
304.642
304.534
304.473
304.497
304.45
304.506
304.378
304.433
304.528
304.53
304.545
304.466
304.388
304.343
304.398
304.412
304.44
304.48
304.527
370.528
369.574
368.628
367.974
367.486
367.316
367.198
367.397
367.569
367.585
367.581
367.437
367.224
367.015
366.768
366.667
366.719
367.108
367.773
368.614
361.316
360.514
359.616
359.041
358.625
358.534
358.491
358.524
358.673
358.758
358.708
358.652
358.47
358.238
358.014
357.976
357.989
358.394
358.867
359.699
352.032
351.388
350.676
350.216
349.819
349.725
349.602
349.672
349.75
349.903
349.833
349.737
349.619
349.424
349.222
349.107
349.133
349.457
349.897
350.477
342.642
342.157
341.626
341.16
340.806
340.702
340.771
340.751
340.817
340.844
340.844
340.811
340.608
340.487
340.329
340.284
340.275
340.544
340.857
341.384
333.274
332.776
332.434
332.065
331.817
331.771
331.71
331.77
331.77
331.837
331.859
331.757
331.666
331.478
331.474
331.375
331.368
331.501
331.895
332.273
323.791
323.512
323.145
322.868
322.799
322.669
322.667
322.741
322.776
322.798
322.903
322.704
322.686
322.546
322.454
322.511
322.467
322.533
322.785
322.972
314.316
314.168
313.968
313.736
313.671
313.686
313.646
313.638
313.732
313.715
313.661
313.675
313.599
313.525
313.451
313.479
313.528
313.607
313.649
313.845
304.708
304.735
304.676
304.673
304.515
304.553
304.568
304.609
304.616
304.623
304.591
304.648
304.595
304.478
304.54
304.576
304.56
304.538
304.566
304.649
372.422
371.438
370.494
369.679
369.157
368.956
368.892
368.825
368.953
368.962
369.015
368.868
368.711
368.502
368.304
368.26
368.336
368.829
369.543
370.295
362.91
362.088
361.24
360.695
360.217
359.948
359.955
359.918
359.91
359.895
359.966
359.906
359.662
359.508
359.362
359.261
359.466
359.807
360.311
361.095
353.418
352.683
352.024
351.415
351.115
350.94
350.796
350.79
350.787
350.836
350.846
350.722
350.604
350.432
350.313
350.243
350.376
350.714
351.198
351.77
343.744
343.231
342.631
342.201
341.878
341.727
341.573
341.718
341.653
341.737
341.72
341.617
341.509
341.375
341.254
341.19
341.24
341.486
341.914
342.39
334.098
333.708
333.28
332.875
332.669
332.504
332.493
332.468
332.533
332.432
332.464
332.36
332.341
332.231
332.133
332.089
332.215
332.259
332.644
333
324.37
324.067
323.862
323.528
323.362
323.211
323.228
323.254
323.211
323.257
323.294
323.276
323.138
322.998
322.991
322.947
323.028
323.148
323.382
323.622
314.641
314.505
314.301
314.128
314.011
314.056
313.939
313.966
313.947
313.945
313.957
313.931
313.867
313.882
313.777
313.811
313.813
314.01
314.092
314.189
304.963
304.88
304.825
304.782
304.73
304.669
304.685
304.658
304.606
304.79
304.671
304.681
304.649
304.552
304.67
304.588
304.615
304.657
304.676
304.745
374.078
373.088
372.139
371.441
370.821
370.603
370.375
370.35
370.415
370.245
370.274
370.2
369.944
369.841
369.761
369.727
369.941
370.397
371.042
371.97
364.345
363.558
362.732
362.125
361.579
361.354
361.131
361.188
361.079
361.092
361.075
360.974
360.802
360.772
360.561
360.501
360.715
361.053
361.696
362.376
354.61
353.935
353.183
352.667
352.153
351.95
351.815
351.838
351.779
351.798
351.803
351.581
351.631
351.468
351.313
351.319
351.409
351.909
352.287
352.845
344.767
344.274
343.643
343.169
342.886
342.659
342.547
342.569
342.537
342.46
342.535
342.387
342.275
342.122
342.092
342.112
342.137
342.422
342.874
343.259
334.827
334.468
334.037
333.651
333.288
333.262
333.095
333.164
333.151
333.098
332.995
332.942
332.949
332.832
332.73
332.805
332.881
333.115
333.386
333.675
324.929
324.663
324.301
324.052
323.864
323.758
323.707
323.71
323.645
323.55
323.602
323.652
323.479
323.401
323.461
323.388
323.469
323.652
323.798
324.081
314.989
314.787
314.568
314.48
314.457
314.329
314.293
314.251
314.26
314.295
314.154
314.169
314.096
314.078
314.101
314.066
314.085
314.205
314.299
314.446
305.057
304.937
304.906
304.862
304.755
304.791
304.728
304.714
304.828
304.881
304.857
304.698
304.74
304.739
304.752
304.648
304.708
304.778
304.791
304.874
375.361
374.419
373.425
372.64
372.012
371.768
371.498
371.403
371.401
371.251
371.251
371.192
371.029
370.929
370.842
370.84
371.086
371.511
372.324
373.148
365.383
364.604
363.818
363.117
362.532
362.302
362.097
361.972
361.981
361.943
361.826
361.784
361.674
361.528
361.459
361.501
361.668
362.182
362.677
363.41
355.419
354.768
354.055
353.548
353.044
352.77
352.632
352.54
352.562
352.443
352.455
352.334
352.211
352.142
352.042
352.004
352.255
352.523
353.05
353.67
345.433
344.917
344.288
343.76
343.423
343.095
343.128
343.067
343.056
343.063
342.87
342.922
342.832
342.678
342.636
342.604
342.792
343.08
343.521
343.901
335.355
334.943
334.571
334.157
333.893
333.7
333.666
333.527
333.469
333.547
333.358
333.43
333.372
333.211
333.238
333.169
333.249
333.533
333.873
334.255
325.196
324.996
324.72
324.348
324.25
324.012
324.004
323.991
323.968
323.928
323.944
323.881
323.734
323.729
323.78
323.851
323.851
323.955
324.148
324.476
315.241
315.007
314.758
314.713
314.596
314.439
314.363
314.397
314.379
314.435
314.323
314.371
314.365
314.194
314.299
314.284
314.361
314.365
314.492
314.689
305.033
305.071
304.945
304.91
304.861
304.826
304.828
304.792
304.897
304.875
304.784
304.744
304.775
304.715
304.75
304.81
304.831
304.832
304.895
304.984
)
;

boundaryField
{
    hotSide
    {
        type            fixedGradient;
        gradient        nonuniform List<scalar> 
400
(
321.511
322.87
325.591
329.677
335.133
341.965
350.181
359.788
370.794
383.208
397.037
412.289
428.971
447.088
466.647
487.651
510.105
534.011
559.372
586.191
323.738
325.08
327.767
331.802
337.194
343.949
352.078
361.591
372.498
384.81
398.537
413.687
430.268
448.289
467.755
488.672
511.043
534.872
560.161
586.913
326.149
327.47
330.116
334.091
339.406
346.071
354.099
363.503
374.296
386.491
400.101
415.136
431.606
449.52
468.885
489.706
511.988
535.735
560.948
587.63
328.704
330
332.597
336.503
341.73
348.292
356.205
365.485
376.15
388.215
401.695
416.604
432.954
450.753
470.009
490.73
512.919
536.579
561.714
588.325
331.33
332.599
335.142
338.97
344.099
350.546
358.332
367.477
378.003
389.928
403.271
418.047
434.27
451.949
471.095
491.712
513.807
537.382
562.439
588.978
333.918
335.158
337.643
341.389
346.414
352.74
360.392
369.397
379.779
391.562
404.765
419.407
435.503
453.065
472.101
492.618
514.622
538.114
563.096
589.569
336.321
337.531
339.959
343.622
348.544
354.751
362.274
371.142
381.385
393.031
406.101
420.618
436.595
454.047
472.983
493.409
515.33
538.747
563.663
590.076
338.36
339.543
341.92
345.509
350.339
356.44
363.847
372.595
382.718
394.244
407.2
421.608
437.485
454.844
473.695
494.045
515.897
539.253
564.114
590.478
339.852
341.015
343.352
346.885
351.645
357.665
364.985
373.643
383.675
395.113
407.984
422.312
438.116
455.407
474.197
494.491
516.294
539.606
564.428
590.758
340.643
341.795
344.11
347.613
352.334
358.311
365.584
374.193
384.176
395.567
408.393
422.679
438.443
455.699
474.456
494.722
516.498
539.788
564.589
590.901
340.643
341.795
344.11
347.613
352.334
358.311
365.584
374.193
384.176
395.567
408.393
422.679
438.443
455.699
474.456
494.722
516.498
539.788
564.589
590.901
339.852
341.015
343.352
346.885
351.645
357.665
364.985
373.643
383.675
395.113
407.984
422.312
438.116
455.407
474.197
494.491
516.294
539.606
564.428
590.758
338.36
339.543
341.92
345.509
350.339
356.44
363.847
372.595
382.718
394.244
407.2
421.608
437.485
454.844
473.695
494.045
515.897
539.253
564.114
590.478
336.321
337.531
339.959
343.622
348.544
354.751
362.274
371.142
381.385
393.031
406.101
420.618
436.595
454.047
472.983
493.409
515.33
538.747
563.663
590.076
333.918
335.158
337.643
341.389
346.414
352.74
360.392
369.397
379.779
391.562
404.765
419.407
435.503
453.065
472.101
492.618
514.622
538.114
563.096
589.569
331.33
332.599
335.142
338.97
344.099
350.546
358.332
367.477
378.003
389.928
403.271
418.047
434.27
451.949
471.095
491.712
513.807
537.382
562.439
588.978
328.704
330
332.597
336.503
341.73
348.292
356.205
365.485
376.15
388.215
401.695
416.604
432.954
450.753
470.009
490.73
512.919
536.579
561.714
588.325
326.149
327.47
330.116
334.091
339.406
346.071
354.099
363.503
374.296
386.491
400.101
415.136
431.606
449.52
468.885
489.706
511.988
535.735
560.948
587.63
323.738
325.08
327.767
331.802
337.194
343.949
352.078
361.591
372.498
384.81
398.537
413.687
430.268
448.289
467.755
488.672
511.043
534.872
560.161
586.913
321.511
322.87
325.591
329.677
335.133
341.965
350.181
359.788
370.794
383.208
397.037
412.289
428.971
447.088
466.647
487.651
510.105
534.011
559.372
586.191
)
;
    }
    coldSide
    {
        type            mixed;
        refValue        uniform 300;
        refGradient     uniform 0;
        valueFraction   uniform 0.991591;
        source          uniform 0;
        value           nonuniform List<scalar> 
400
(
300.026
300.028
300.028
300.028
300.029
300.029
300.03
300.031
300.032
300.033
300.034
300.035
300.036
300.037
300.038
300.039
300.04
300.042
300.043
300.042
300.026
300.027
300.027
300.027
300.028
300.029
300.029
300.03
300.031
300.032
300.033
300.035
300.035