/*--------------------------------*- C++ -*----------------------------------*\
| =========                 |                                                 |
| \\      /  F ield         | OpenFOAM: The Open Source CFD Toolbox           |
|  \\    /   O peration     | Version:  2212                                  |
|   \\  /    A nd           | Website:  www.openfoam.com                      |
|    \\/     M anipulation  |                                                 |
\*---------------------------------------------------------------------------*/
FoamFile
{
    version     2.0;
    format      ascii;
    arch        "LSB;label=32;scalar=64";
    class       volScalarField;
    location    "0";
    object      T;
}
// * * * * * * * * * * * * * * * * * * * * * * * * * * * * * * * * * * * * * //

dimensions      [0 0 0 1 0 0 0];

internalField   nonuniform List<scalar> 
3200
(
344.753
345.696
346.58
347.473
348.212
349.082
349.617
349.936
350.182
350.369
350.356
350.17
349.452
349.019
348.714
347.598
346.744
345.594
344.666
343.686
338.88
339.666
340.374
341.158
341.806
342.583
343.06
343.266
343.522
343.67
343.696
343.566
342.874
342.522
342.286
341.285
340.5
339.529
338.769
337.914
332.945
333.628
334.185
334.845
335.403
336.018
336.439
336.635
336.829
336.966
337.041
336.9
336.308
336.005
335.828
334.936
334.212
333.493
332.835
332.129
326.957
327.562
327.958
328.572
328.986
329.423
329.798
329.968
330.139
330.3
330.347
330.229
329.735
329.462
329.348
328.581
327.959
327.422
326.837
326.333
320.977
321.499
321.749
322.267
322.55
322.883
323.176
323.283
323.439
323.645
323.677
323.534
323.141
322.932
322.805
322.24
321.729
321.377
320.877
320.518
314.984
315.383
315.556
315.925
316.135
316.322
316.536
316.602
316.724
316.926
316.969
316.827
316.53
316.409
316.279
315.915
315.529
315.29
314.877
314.673
309.004
309.215
309.301
309.539
309.702
309.796
309.921
309.966
310.067
310.151
310.211
310.151
309.931
309.874
309.75
309.568
309.351
309.216
308.918
308.813
303.012
303.071
303.129
303.168
303.239
303.29
303.332
303.341
303.391
303.395
303.417
303.418
303.333
303.309
303.269
303.212
303.144
303.089
302.977
302.969
345.459
346.654
347.394
348.305
349.305
349.996
350.359
350.733
351.149
351.075
351.179
350.947
350.467
349.908
349.512
348.763
347.492
346.404
345.496
344.28
339.45
340.467
341.073
341.854
342.732
343.378
343.649
343.937
344.335
344.256
344.36
344.192
343.698
343.258
342.927
342.28
341.152
340.22
339.466
338.43
333.421
334.268
334.763
335.406
336.16
336.716
336.911
337.186
337.475
337.419
337.544
337.435
336.974
336.613
336.294
335.735
334.79
334.007
333.381
332.497
327.384
328.074
328.474
328.97
329.575
330.008
330.22
330.436
330.656
330.591
330.703
330.679
330.258
329.979
329.679
329.194
328.476
327.84
327.342
326.578
321.303
321.864
322.159
322.572
323.01
323.306
323.496
323.677
323.838
323.801
323.912
323.912
323.56
323.293
323.059
322.701
322.122
321.661
321.266
320.708
315.241
315.623
315.805
316.134
316.438
316.615
316.749
316.904
317.026
317.034
317.086
317.093
316.846
316.606
316.456
316.262
315.791
315.522
315.153
314.846
309.172
309.401
309.472
309.703
309.876
310.003
310.073
310.135
310.201
310.265
310.231
310.261
310.109
309.963
309.877
309.751
309.482
309.354
309.093
308.922
303.078
303.155
303.164
303.248
303.292
303.345
303.403
303.408
303.416
303.46
303.432
303.431
303.387
303.337
303.314
303.254
303.192
303.135
303.053
302.97
346.613
347.858
348.519
349.482
350.48
351.109
351.574
351.766
352.442
352.513
352.453
352.026
351.708
351.068
350.552
349.815
348.722
347.452
346.529
345.287
340.373
341.448
342.03
342.815
343.721
344.276
344.66
344.816
345.421
345.485
345.468
345.093
344.791
344.195
343.769
343.156
342.241
341.115
340.335
339.273
334.132
335.051
335.535
336.189
336.978
337.458
337.753
337.934
338.397
338.481
338.461
338.164
337.909
337.363
336.978
336.512
335.775
334.819
334.14
333.233
327.903
328.641
329.075
329.57
330.227
330.653
330.883
331.021
331.411
331.481
331.444
331.183
330.962
330.587
330.237
329.869
329.255
328.467
327.935
327.211
321.679
322.291
322.647
322.976
323.515
323.847
324.006
324.135
324.436
324.511
324.447
324.182
324.076
323.81
323.519
323.262
322.747
322.176
321.749
321.192
315.475
315.935
316.191
316.433
316.785
317.068
317.145
317.234
317.466
317.557
317.434
317.264
317.191
317.003
316.822
316.645
316.255
315.841
315.529
315.164
309.322
309.556
309.724
309.886
310.082
310.254
310.316
310.368
310.463
310.555
310.492
310.352
310.319
310.208
310.142
309.972
309.766
309.533
309.325
309.131
303.142
303.197
303.253
303.312
303.365
303.417
303.468
303.489
303.516
303.516
303.525
303.46
303.462
303.415
303.41
303.316
303.276
303.191
303.123
303.049
347.516
348.747
349.718
350.748
351.614
352.16
352.738
353.287
353.619
353.453
353.519
353.198
352.867
352.347
351.812
350.917
349.843
348.818
347.572
346.219
341.152
342.266
343.044
343.98
344.693
345.207
345.685
346.129
346.402
346.307
346.35
346.077
345.812
345.316
344.889
344.09
343.214
342.285
341.188
340.025
334.828
335.751
336.436
337.2
337.787
338.27
338.662
339.004
339.283
339.132
339.228
338.971
338.756
338.29
337.938
337.267
336.557
335.738
334.829
333.84
328.535
329.268
329.829
330.426
330.892
331.316
331.635
331.902
332.186
332.007
332.124
331.872
331.699
331.269
331.019
330.446
329.919
329.253
328.471
327.696
322.175
322.774
323.183
323.698
323.99
324.357
324.635
324.776
325.02
324.889
324.998
324.778
324.677
324.258
324.106
323.667
323.27
322.759
322.091
321.554
315.833
316.291
316.602
316.933
317.106
317.405
317.647
317.699
317.882
317.767
317.861
317.716
317.637
317.295
317.188
316.891
316.617
316.245
315.769
315.448
309.502
309.777
309.98
310.147
310.284
310.485
310.636
310.633
310.742
310.641
310.761
310.633
310.605
310.365
310.296
310.121
309.962
309.758
309.461
309.291
303.197
303.279
303.332
303.381
303.457
303.517
303.578
303.584
303.622
303.575
303.628
303.571
303.567
303.469
303.462
303.384
303.328
303.251
303.172
303.121
348.664
349.815
350.842
351.906
352.8
353.33
354.283
354.454
354.659
354.839
354.806
354.48
354.164
353.555
353
352.155
350.941
349.888
348.523
347.277
342.185
343.168
344.018
344.985
345.777
346.183
347.015
347.204
347.324
347.442
347.452
347.181
346.886
346.37
345.911
345.173
344.074
343.238
342.03
340.932
335.701
336.496
337.233
338.01
338.704
339.085
339.791
339.955
340.048
340.087
340.149
339.88
339.644
339.216
338.785
338.17
337.26
336.566
335.556
334.597
329.206
329.878
330.462
331.116
331.622
331.928
332.497
332.71
332.766
332.757
332.845
332.581
332.412
332.076
331.686
331.193
330.488
329.912
329.038
328.321
322.717
323.275
323.702
324.216
324.571
324.798
325.295
325.416
325.47
325.453
325.564
325.293
325.178
324.963
324.617
324.225
323.715
323.286
322.578
322.076
316.208
316.631
316.946
317.298
317.54
317.682
318.091
318.152
318.236
318.208
318.33
318.059
318.01
317.844
317.574
317.274
316.951
316.604
316.139
315.8
309.695
310.012
310.17
310.403
310.538
310.599
310.859
310.909
310.986
310.963
311.032
310.834
310.829
310.706
310.558
310.344
310.191
309.969
309.722
309.493
303.243
303.366
303.414
303.487
303.491
303.562
303.655
303.672
303.684
303.671
303.717
303.631
303.637
303.57
303.54
303.456
303.419
303.349
303.291
303.181
349.765
350.793
351.859
353.068
353.979
354.704
355.365
355.544
355.868
356.205
355.966
355.816
355.384
354.68
354.064
353.063
352.235
350.835
349.497
348.362
343.113
343.99
344.91
345.959
346.763
347.348
347.955
348.095
348.367
348.697
348.445
348.369
347.962
347.388
346.88
345.938
345.258
344.1
342.877
341.892
336.516
337.23
337.978
338.849
339.567
340.039
340.542
340.704
340.95
341.192
340.98
340.945
340.539
340.104
339.652
338.868
338.31
337.36
336.279
335.428
329.911
330.468
331.063
331.747
332.344
332.753
333.137
333.278
333.512
333.709
333.544
333.501
333.149
332.82
332.431
331.773
331.395
330.597
329.719
329.003
323.245
323.716
324.142
324.651
325.161
325.464
325.735
325.901
326.108
326.239
326.1
326.069
325.765
325.533
325.188
324.706
324.455
323.796
323.137
322.57
316.603
316.953
317.204
317.598
318.012
318.176
318.323
318.535
318.699
318.788
318.645
318.617
318.422
318.265
317.974
317.675
317.516
316.964
316.552
316.136
309.993
310.195
310.301
310.569
310.84
310.943
310.996
311.143
311.233
311.338
311.209
311.172
311.091
311.017
310.807
310.63
310.518
310.178
309.986
309.68
303.332
303.432
303.46
303.541
303.649
303.67
303.676
303.756
303.761
303.793
303.754
303.727
303.735
303.697
303.649
303.569
303.516
303.399
303.372
303.254
350.893
351.816
352.96
353.964
354.967
356.065
356.444
356.923
356.965
357.22
357.002
356.927
356.561
355.759
354.968
354.271
353.156
351.77
350.323
349.325
344.124
344.903
345.858
346.746
347.563
348.589
348.875
349.276
349.344
349.563
349.36
349.312
348.99
348.292
347.611
347.014
346.048
344.845
343.565
342.702
337.357
338.018
338.735
339.516
340.206
341.139
341.31
341.662
341.764
341.924
341.721
341.678
341.429
340.861
340.297
339.767
338.953
337.921
336.84
336.092
330.574
331.08
331.659
332.298
332.919
333.668
333.785
334.082
334.179
334.271
334.152
334.073
333.863
333.427
332.949
332.512
331.908
331.003
330.209
329.537
323.808
324.136
324.579
325.116
325.598
326.178
326.294
326.489
326.588
326.666
326.55
326.47
326.343
325.979
325.601
325.302
324.88
324.095
323.504
322.979
317.044
317.224
317.521
317.994
318.3
318.707
318.806
318.917
319.002
319.067
318.96
318.94
318.781
318.565
318.301
318.092
317.808
317.23
316.781
316.434
310.242
310.321
310.502
310.85
311.017
311.232
311.296
311.355
311.374
311.439
311.383
311.398
311.277
311.178
311
310.908
310.706
310.339
310.056
309.869
303.433
303.46
303.517
303.664
303.68
303.761
303.79
303.804
303.813
303.824
303.803
303.844
303.815
303.738
303.69
303.66
303.588
303.464
303.393
303.313
351.74
352.681
353.972
354.92
355.968
356.949
357.566
357.79
358.073
358.287
358.137
357.818
357.562
356.748
355.962
355.001
354.019
352.55
351.433
350.275
344.854
345.675
346.733
347.56
348.487
349.342
349.87
350.045
350.292
350.459
350.366
350.108
349.849
349.124
348.455
347.647
346.829
345.535
344.557
343.553
337.957
338.682
339.495
340.199
340.996
341.716
342.149
342.348
342.543
342.619
342.597
342.365
342.161
341.556
340.975
340.367
339.596
338.486
337.715
336.846
331.068
331.661
332.303
332.886
333.575
334.148
334.481
334.696
334.767
334.783
334.867
334.717
334.489
333.98
333.53
333.022
332.388
331.454
330.841
330.152
324.18
324.613
325.129
325.553
326.163
326.558
326.798
327.023
327.047
327.004
327.096
326.995
326.809
326.398
326.113
325.682
325.182
324.409
323.913
323.455
317.28
317.58
317.941
318.283
318.707
318.978
319.163
319.323
319.309
319.278
319.327
319.282
319.122
318.87
318.681
318.326
317.974
317.412
317.04
316.753
310.375
310.531
310.755
310.967
311.237
311.391
311.532
311.581
311.615
311.587
311.619
311.572
311.503
311.326
311.239
310.997
310.797
310.48
310.217
310.081
303.467
303.537
303.583
303.661
303.771
303.796
303.866
303.879
303.901
303.887
303.89
303.886
303.837
303.793
303.769
303.673
303.622
303.516
303.425
303.386
352.642
353.547
354.815
355.904
356.922
357.779
358.417
358.724
359.222
359.164
358.898
358.691
358.377
357.494
356.793
355.924
354.793
353.8
352.415
351.095
345.633
346.384
347.428
348.412
349.312
350.001
350.581
350.86
351.35
351.21
351.011
350.815
350.496
349.78
349.189
348.403
347.426
346.522
345.36
344.279
338.625
339.227
340.103
340.971
341.719
342.25
342.764
343.025
343.426
343.299
343.154
342.965
342.702
342.052
341.605
340.958
340.107
339.276
338.326
337.479
331.561
332.087
332.808
333.523
334.158
334.568
334.953
335.206
335.516
335.399
335.333
335.136
334.888
334.393
334.042
333.573
332.804
332.097
331.325
330.71
324.56
324.985
325.544
326.081
326.577
326.883
327.185
327.372
327.613
327.488
327.461
327.307
327.123
326.74
326.481
326.135
325.532
324.932
324.335
323.894
317.548
317.844
318.243
318.63
318.983
319.202
319.431
319.564
319.709
319.601
319.596
319.492
319.374
319.131
318.948
318.644
318.288
317.793
317.394
317.049
310.526
310.715
310.955
311.156
311.418
311.512
311.696
311.767
311.808
311.762
311.77
311.728
311.648
311.499
311.362
311.152
311.005
310.679
310.459
310.247
303.546
303.604
303.672
303.733
303.821
303.844
303.928
303.942
303.959
303.949
303.944
303.931
303.907
303.879
303.804
303.741
303.69
303.567
303.501
303.442
353.39
354.533
355.634
356.867
357.836
358.479
359.122
359.67
359.997
360.171
359.837
359.572
359.067
358.644
357.831
356.871
355.728
354.609
353.089
351.948
346.296
347.246
348.166
349.209
350.098
350.621
351.19
351.651
351.96
352.12
351.759
351.567
351.129
350.782
350.05
349.248
348.237
347.293
345.981
345.028
339.173
339.957
340.714
341.618
342.371
342.785
343.274
343.628
343.952
344.083
343.764
343.597
343.221
342.937
342.311
341.635
340.816
339.971
338.869
338.082
332.037
332.676
333.288
334.068
334.607
334.979
335.369
335.647
335.966
336.063
335.796
335.658
335.339
335.128
334.617
334.101
333.394
332.712
331.815
331.125
324.961
325.444
325.927
326.466
326.906
327.176
327.514
327.692
327.991
328.048
327.872
327.743
327.513
327.265
326.931
326.557
325.954
325.453
324.743
324.204
317.811
318.228
318.555
318.903
319.235
319.394
319.685
319.755
319.967
320.019
319.922
319.84
319.668
319.467
319.254
319.002
318.5
318.18
317.686
317.324
310.694
310.973
311.172
311.344
311.539
311.626
311.822
311.829
311.938
312.016
311.96
311.96
311.801
311.686
311.594
311.437
311.088
310.923
310.659
310.419
303.577
303.681
303.739
303.808
303.875
303.897
303.961
303.955
303.972
304.014
304.008
304.018
303.95
303.9
303.884
303.845
303.712
303.66
303.544
303.497
354.135
355.412
356.658
357.766
358.594
359.494
359.984
360.438
360.803
360.833
360.719
360.592
360.013
359.348
358.565
357.555
356.438
355.217
353.836
352.551
346.949
347.995
349.058
350.038
350.728
351.543
351.93
352.316
352.649
352.679
352.551
352.467
351.986
351.408
350.704
349.854
348.812
347.839
346.648
345.545
339.776
340.608
341.451
342.342
342.883
343.567
343.913
344.229
344.547
344.58
344.391
344.351
343.954
343.479
342.826
342.144
341.258
340.461
339.428
338.535
332.584
333.211
333.886
334.651
335.037
335.619
335.912
336.186
336.439
336.507
336.259
336.239
335.962
335.558
334.97
334.428
333.722
333.103
332.233
331.552
325.3
325.841
326.305
326.991
327.262
327.696
327.889
328.123
328.296
328.398
328.179
328.142
327.975
327.692
327.177
326.739
326.225
325.755
325.017
324.543
318.043
318.46
318.752
319.281
319.502
319.791
319.882
320.083
320.179
320.304
320.138
320.112
319.991
319.79
319.394
319.111
318.747
318.409
317.845
317.558
310.822
311.089
311.274
311.564
311.706
311.882
311.949
312.056
312.126
312.185
312.092
312.105
312.015
311.921
311.64
311.467
311.238
311.058
310.702
310.542
303.616
303.718
303.785
303.857
303.939
303.995
304.001
304.051
304.062
304.091
304.061
304.095
304.014
303.988
303.903
303.831
303.765
303.702
303.586
303.553
354.518
355.811
357.294
358.634
359.295
360.053
360.497
361.161
361.265
361.588
361.504
361.115
360.903
360.161
359.135
358.274
357.07
355.92
354.317
353.169
347.198
348.273
349.566
350.758
351.332
351.99
352.391
352.925
353.074
353.31
353.261
352.908
352.736
352.073
351.193
350.437
349.46
348.437
347.022
346.081
339.915
340.765
341.893
342.931
343.385
343.898
344.249
344.753
344.917
345.082
345.007
344.746
344.601
344.039
343.279
342.595
341.857
340.963
339.726
339.022
332.679
333.32
334.202
335.061
335.467
335.845
336.18
336.603
336.752
336.868
336.785
336.628
336.45
336.033
335.386
334.81
334.194
333.493
332.473
331.931
325.407
325.896
326.583
327.221
327.51
327.794
328.122
328.472
328.6
328.675
328.612
328.455
328.299
328.042
327.498
327.101
326.538
326.024
325.261
324.863
318.131
318.457
318.983
319.415
319.624
319.844
320.084
320.341
320.438
320.463
320.439
320.32
320.192
320.074
319.653
319.357
318.954
318.618
318.062
317.769
310.87
311.069
311.426
311.659
311.794
311.925
312.099
312.201
312.27
312.311
312.268
312.202
312.105
312.076
311.794
311.63
311.384
311.21
310.876
310.671
303.63
303.723
303.825
303.93
303.939
304.005
304.059
304.084
304.113
304.158
304.1
304.105
304.047
304.042
303.943
303.897
303.803
303.756
303.642
303.574
354.857
356.175
357.584
358.962
359.858
360.597
361.002
361.55
361.982
362.037
362.151
361.714
361.527
360.761
359.761
358.729
357.49
356.256
354.888
353.891
347.556
348.604
349.833
351.065
351.814
352.459
352.801
353.265
353.686
353.738
353.839
353.43
353.262
352.592
351.749
350.853
349.806
348.746
347.498
346.696
340.227
341.103
342.153
343.18
343.778
344.333
344.652
345.019
345.427
345.484
345.503
345.213
344.99
344.443
343.734
343.001
342.144
341.21
340.151
339.545
332.924
333.618
334.467
335.34
335.771
336.235
336.545
336.778
337.18
337.2
337.204
336.989
336.737
336.334
335.755
335.18
334.464
333.724
332.848
332.356
325.654
326.11
326.78
327.478
327.843
328.093
328.443
328.592
328.885
328.913
328.914
328.787
328.555
328.259
327.798
327.359
326.784
326.229
325.556
325.195
318.341
318.632
319.128
319.64
319.866
320.037
320.337
320.434
320.646
320.629
320.624
320.593
320.421
320.21
319.887
319.517
319.121
318.738
318.251
318.009
311.015
311.188
311.506
311.809
311.923
312.025
312.249
312.282
312.404
312.378
312.379
312.375
312.238
312.127
311.912
311.705
311.472
311.297
310.991
310.802
303.71
303.749
303.874
303.96
303.984
304.029
304.114
304.116
304.159
304.167
304.177
304.146
304.08
304.058
303.981
303.929
303.836
303.79
303.674
303.626
355.29
356.564
357.964
359.284
360.315
361.128
361.725
362.154
362.715
362.677
362.564
362.35
362.032
361.228
360.246
359.181
357.957
356.734
355.254
354.093
347.918
348.965
350.201
351.334
352.252
352.942
353.449
353.846
354.281
354.249
354.19
353.946
353.686
353.008
352.182
351.238
350.193
349.148
347.855
346.884
340.552
341.406
342.437
343.38
344.23
344.742
345.173
345.544
345.88
345.836
345.759
345.603
345.35
344.771
344.115
343.361
342.459
341.577
340.49
339.652
333.178
333.906
334.701
335.471
336.146
336.568
336.929
337.22
337.523
337.508
337.366
337.298
337.067
336.559
336.023
335.464
334.784
334.002
333.125
332.452
325.86
326.386
326.984
327.593
328.112
328.376
328.684
328.934
329.163
329.175
329.023
328.983
328.807
328.422
328.038
327.551
327.084
326.453
325.807
325.262
318.507
318.861
319.225
319.726
320.077
320.261
320.447
320.669
320.798
320.844
320.736
320.682
320.577
320.319
320.022
319.658
319.37
318.943
318.414
318.061
311.153
311.325
311.515
311.879
312.085
312.153
312.241
312.403
312.478
312.509
312.438
312.419
312.317
312.177
312.007
311.767
311.639
311.394
311.057
310.838
303.759
303.777
303.849
303.98
304.055
304.066
304.118
304.158
304.174
304.187
304.157
304.174
304.112
304.092
304.03
303.946
303.906
303.832
303.722
303.627
355.915
357.032
358.406
359.33
360.538
361.364
361.892
362.596
362.816
363.051
362.99
362.71
362.276
361.664
360.708
359.74
358.481
357.301
355.561
354.352
348.475
349.391
350.615
351.35
352.416
353.109
353.606
354.191
354.405
354.59
354.529
354.289
353.925
353.407
352.594
351.713
350.606
349.612
348.132
347.104
341.026
341.753
342.821
343.395
344.286
344.895
345.333
345.805
346.019
346.128
346.097
345.931
345.583
345.17
344.443
343.687
342.809
341.929
340.7
339.857
333.579
334.16
335.056
335.479
336.174
336.723
337.07
337.482
337.595
337.729
337.691
337.597
337.263
336.891
336.346
335.708
334.963
334.321
333.326
332.602
326.156
326.573
327.27
327.632
328.13
328.504
328.805
329.125
329.195
329.335
329.326
329.268
328.983
328.648
328.297
327.768
327.132
326.703
325.917
325.321
318.724
318.992
319.513
319.743
320.11
320.311
320.569
320.792
320.843
320.948
320.96
320.909
320.676
320.423
320.204
319.828
319.374
319.064
318.517
318.059
311.267
311.405
311.718
311.829
312.078
312.187
312.369
312.49
312.54
312.578
312.581
312.581
312.414
312.266
312.136
311.9
311.611
311.451
311.079
310.839
303.772
303.817
303.932
303.96
304.053
304.076
304.166
304.207
304.214
304.219
304.205
304.212
304.167
304.108
304.071
303.988
303.866
303.849
303.724
303.617
356.069
357.342
358.568
359.6
360.94
361.653
362.271
362.889
363.222
363.395
363.331
362.955
362.441
361.742
360.82
359.701
358.556
357.309
355.844
354.489
348.589
349.652
350.667
351.627
352.782
353.364
353.93
354.479
354.749
354.876
354.831
354.552
354.075
353.455
352.67
351.664
350.696
349.659
348.385
347.223
341.089
341.979
342.813
343.69
344.65
345.124
345.593
346.047
346.322
346.425
346.345
346.144
345.698
345.232
344.575
343.686
342.861
342.022
340.929
339.972
333.615
334.314
334.979
335.711
336.517
336.925
337.279
337.634
337.921
337.937
337.89
337.741
337.338
336.979
336.498
335.705
335.078
334.419
333.46
332.717
326.185
326.642
327.18
327.723
328.368
328.758
328.984
329.232
329.497
329.431
329.464
329.36
329.02
328.702
328.374
327.779
327.251
326.76
326.016
325.439
318.699
319.051
319.411
319.781
320.209
320.617
320.72
320.888
321.088
321.02
321.028
320.963
320.734
320.49
320.292
319.819
319.447
319.085
318.588
318.126
311.228
311.428
311.673
311.904
312.135
312.404
312.453
312.519
312.711
312.65
312.643
312.567
312.419
312.273
312.188
311.911
311.649
311.444
311.14
310.86
303.745
303.835
303.923
303.993
304.045
304.155
304.161
304.199
304.26
304.234
304.237
304.201
304.15
304.104
304.087
303.956
303.897
303.832
303.74
303.627
356.192
357.559
358.761
359.848
360.929
362.099
362.834
363.072
363.6
363.544
363.479
363.065
362.6
361.82
361.213
360.08
358.982
357.545
356.049
354.846
348.736
349.864
350.879
351.801
352.76
353.736
354.387
354.57
355.097
355.007
354.978
354.586
354.207
353.502
353.014
351.994
351.098
349.837
348.563
347.51
341.269
342.216
343
343.759
344.645
345.421
345.961
346.06
346.586
346.501
346.468
346.151
345.808
345.263
344.851
343.934
343.21
342.126
341.086
340.232
333.833
334.551
335.156
335.797
336.496
337.148
337.577
337.59
338.047
338.03
337.947
337.709
337.469
337.036
336.644
335.912
335.362
334.469
333.596
332.935
326.347
326.879
327.31
327.823
328.356
328.881
329.195
329.177
329.544
329.576
329.492
329.292
329.125
328.79
328.493
327.905
327.482
326.861
326.114
325.628
318.817
319.193
319.476
319.843
320.266
320.61
320.832
320.793
321.104
321.114
321.097
320.903
320.812
320.581
320.354
319.912
319.624
319.237
318.62
318.285
311.315
311.509
311.705
311.914
312.192
312.374
312.496
312.492
312.683
312.653
312.687
312.547
312.501
312.313
312.24
311.944
311.775
311.561
311.133
310.991
303.786
303.853
303.904
303.99
304.087
304.144
304.203
304.188
304.246
304.228
304.241
304.178
304.217
304.113
304.083
304.014
303.938
303.87
303.691
303.675
356.376
357.653
359.068
360.192
361.013
362.179
362.728
363.408
363.568
363.432
363.551
363.166
362.837
362.185
361.105
359.965
358.954
357.583
356.059
354.872
348.835
349.94
351.185
352.131
352.818
353.838
354.285
354.883
355.04
354.926
355.028
354.691
354.431
353.828
352.945
351.87
351.047
349.898
348.51
347.572
341.362
342.223
343.311
344.08
344.629
345.523
345.887
346.36
346.575
346.41
346.462
346.24
346.004
345.501
344.775
343.835
343.203
342.232
340.992
340.234
333.856
334.549
335.419
336.05
336.464
337.254
337.514
337.866
338.136
337.995
337.948
337.817
337.587
337.203
336.606
335.863
335.368
334.557
333.514
332.883
326.306
326.856
327.519
328.044
328.339
328.973
329.15
329.385
329.677
329.557
329.529
329.406
329.192
328.912
328.428
327.899
327.542
326.871
326.032
325.53
318.788
319.166
319.65
320.04
320.269
320.726
320.787
320.957
321.175
321.141
321.116
320.978
320.797
320.637
320.267
319.931
319.716
319.232
318.601
318.226
311.253
311.522
311.812
312.023
312.162
312.458
312.474
312.599
312.708
312.716
312.676
312.585
312.475
312.38
312.152
311.963
311.81
311.557
311.145
310.919
303.764
303.849
303.97
304.035
304.069
304.162
304.166
304.191
304.266
304.264
304.254
304.252
304.186
304.148
304.058
304.008
303.968
303.885
303.73
303.674
356.424
357.755
358.992
360.27
361.189
362.169
362.917
363.449
363.573
363.51
363.428
363.205
362.755
361.843
361.119
360.157
358.854
357.619
356.154
354.769
348.877
350.035
351.074
352.217
352.985
353.835
354.481
354.976
355.07
355.003
354.895
354.725
354.38
353.546
352.941
352.09
350.941
349.868
348.636
347.478
341.343
342.307
343.175
344.136
344.764
345.496
346.074
346.511
346.598
346.524
346.41
346.282
346.012
345.26
344.728
344.015
343.071
342.174
341.142
340.19
333.797
334.567
335.27
336.127
336.589
337.179
337.685
338.077
338.137
338.032
337.95
337.842
337.622
337.003
336.526
335.996
335.257
334.48
333.658
332.931
326.263
326.841
327.389
328.084
328.445
328.892
329.312
329.616
329.685
329.55
329.532
329.411
329.237
328.768
328.374
327.992
327.463
326.819
326.245
325.646
318.726
319.183
319.545
320.029
320.328
320.638
320.98
321.159
321.23
321.104
321.097
320.983
320.885
320.532
320.281
319.969
319.623
319.168
318.786
318.296
311.28
311.523
311.72
312.022
312.2
312.403
312.601
312.719
312.748
312.674
312.672
312.583
312.555
312.32
312.17
311.962
311.794
311.529
311.297
310.977
303.764
303.854
303.94
304.05
304.077
304.166
304.221
304.258
304.265
304.254
304.25
304.209
304.222
304.139
304.084
304.005
303.943
303.867
303.774
303.679
356.504
357.754
359.07
360.177
361.294
362.017
362.615
363.261
363.488
363.548
363.372
362.973
362.741
361.67
360.924
360.112
358.834
357.449
356.377
354.625
348.932
350.037
351.169
352.147
353.074
353.695
354.223
354.795
354.95
355.002
354.947
354.534
354.345
353.37
352.75
352.05
350.964
349.734
348.86
347.365
341.373
342.301
343.238
344.098
344.827
345.37
345.863
346.377
346.451
346.517
346.486
346.133
345.974
345.104
344.585
344.03
343.118
342.067
341.351
340.049
333.854
334.591
335.277
336.04
336.611
337.044
337.468
338.002
338.041
338.053
338.062
337.718
337.566
336.868
336.447
336.009
335.304
334.407
333.844
332.766
326.308
326.916
327.381
328.033
328.474
328.769
329.113
329.558
329.623
329.568
329.619
329.327
329.193
328.63
328.365
327.974
327.474
326.767
326.321
325.446
318.786
319.236
319.538
320.038
320.335
320.55
320.806
321.081
321.162
321.119
321.162
320.906
320.875
320.44
320.247
319.948
319.648
319.153
318.773
318.193
311.252
311.549
311.725
312.029
312.213
312.311
312.467
312.701
312.696
312.68
312.684
312.524
312.51
312.27
312.146
311.946
311.817
311.508
311.3
310.916
303.776
303.872
303.938
304.041
304.092
304.123
304.172
304.273
304.259
304.243
304.259
304.177
304.188
304.109
304.071
303.998
303.976
303.862
303.775
303.654
)
;

boundaryField
{
    hotSide
    {
        type            fixedGradient;
        gradient        nonuniform List<scalar> 
400
(
467.785
481.285
494.336
506.88
518.859
530.218
540.902
550.859
560.039
568.398
575.892
582.483
588.136
592.82
596.511
599.188
600.836
601.445
601.01
599.534
480.628
494.508
507.928
520.826
533.146
544.828
555.817
566.06
575.506
584.108
591.821
598.606
604.428
609.255
613.061
615.825
617.532
618.171
617.737
616.232
492.169
506.39
520.14
533.358
545.983
557.956
569.219
579.719
589.404
598.224
606.134
613.095
619.068
624.024
627.933
630.776
632.536
633.203
632.77
631.241
502.327
516.848
530.889
544.387
557.281
569.509
581.014
591.74
601.634
610.646
618.731
625.845
631.953
637.021
641.022
643.935
645.742
646.432
646.001
644.45
511.035
525.812
540.102
553.84
566.963
579.41
591.122
602.041
612.114
621.291
629.523
636.77
642.992
648.157
652.237
655.208
657.055
657.767
657.337
655.768
518.236
533.225
547.72
561.655
574.967
587.594
599.476
610.554
620.775
630.086
638.441
645.796
652.113
657.357
661.501
664.521
666.401
667.13
666.701
665.116
523.888
539.041
553.695
567.784
581.243
594.01
606.024
617.226
627.561
636.978
645.427
652.866
659.256
664.562
668.755
671.813
673.719
674.46
674.031
672.434
527.957
543.227
557.994
572.191
585.755
598.621
610.728
622.017
632.433
641.924
650.44
657.938
664.379
669.728
673.956
677.04
678.962
679.712
679.283
677.676
530.423
545.761
560.593
574.854
588.478
601.401
613.562
624.902
635.365
644.898
653.452
660.984
667.454
672.827
677.074
680.172
682.104
682.857
682.426
680.812
531.275
546.632
561.483
575.761
589.401
602.34
614.516
625.869
636.343
645.887
654.451
661.991
668.467
673.845
678.096
681.196
683.128
683.88
683.447
681.829
530.514
545.841
560.663
574.913
588.526
601.438
613.588
624.918
635.37
644.892
653.437
660.959
667.419
672.783
677.022
680.113
682.037
682.783
682.346
680.727
528.15
543.4
558.145
572.322
585.864
598.708
610.794
622.062
632.458
641.928
650.424
657.903
664.326
669.657
673.869
676.937
678.845
679.581
679.14
677.522
524.206
539.329
553.953
568.011
581.439
594.175
606.157
617.329
627.634
637.02
645.441
652.852
659.215
664.495
668.664
671.699
673.583
674.304
673.857
672.243
518.711
533.662
548.118
562.014
575.287
587.874
599.716
610.755
620.937
630.21
638.527
645.846
652.128
657.339
661.451
664.441
666.293
666.995
666.542
664.934
511.707
526.441
540.685
554.377
567.454
579.854
591.518
602.391
612.418
621.548
629.736
636.939
643.119
648.244
652.284
655.219
657.032
657.71
657.251
655.653
503.244
517.716
531.707
545.155
557.996
570.172
581.625
592.298
602.139
611.1
619.133
626.198
632.257
637.278
641.234
644.104
645.87
646.522
646.055
644.47
493.381
507.551
521.249
534.413
546.982
558.899
570.106
580.549
590.177
598.94
606.795
613.7
619.62
624.523
628.382
631.177
632.89
633.512
633.038
631.469
482.187
496.017
509.383
522.227
534.49
546.115
557.045
567.229
576.615
585.157
592.811
599.537
605.301
610.071
613.822
616.533
618.188
618.777
618.296
616.746
469.742
483.194
496.194
508.685
520.609
531.91
542.535
552.432
561.552
569.85
577.282
583.812
589.403
594.028
597.66
600.279
601.87
602.425
601.938
600.41
456.132
469.173
481.775
493.881
505.436
516.386
526.679
536.264
545.096
553.128
560.321
566.637
572.042
576.509
580.012
582.533
584.057
584.575
584.083
582.581
)
;
    }
    coldSide
    {
        type            mixed;
        refValue        uniform 300;
        refGradient     uniform 0;
        valueFraction   uniform 0.991591;
        source          uniform 0;
        value           nonuniform List<scalar> 
400
(
300.025
300.026
300.026
300.027
300.027
300.028
300.029
300.029
300.03
300.03
300.03
300.031
300.031
300.032
300.032
300.031
300.032
300.032
300.032
300.032
300.026
300.027
300.027
300.028
300.028
300.029
300.029
300.03
300.03
300.031
300.031
300.031
300.032
300.032
300.032
300.032
300.032
300.032