/*--------------------------------*- C++ -*----------------------------------*\
| =========                 |                                                 |
| \\      /  F ield         | OpenFOAM: The Open Source CFD Toolbox           |
|  \\    /   O peration     | Version:  2212                                  |
|   \\  /    A nd           | Website:  www.openfoam.com                      |
|    \\/     M anipulation  |                                                 |
\*---------------------------------------------------------------------------*/
FoamFile
{
    version     2.0;
    format      ascii;
    arch        "LSB;label=32;scalar=64";
    class       volScalarField;
    location    "0";
    object      Tdirect;
}
// * * * * * * * * * * * * * * * * * * * * * * * * * * * * * * * * * * * * * //

dimensions      [0 0 0 1 0 0 0];

internalField   nonuniform List<scalar> 
3200
(
316.797
316.986
317.227
317.49
317.761
318.027
318.272
318.479
318.63
318.71
318.71
318.63
318.479
318.272
318.027
317.761
317.49
317.227
316.986
316.797
314.571
314.731
314.939
315.167
315.401
315.631
315.843
316.022
316.152
316.221
316.221
316.152
316.022
315.843
315.631
315.401
315.167
314.939
314.731
314.571
312.341
312.474
312.649
312.841
313.039
313.233
313.413
313.564
313.674
313.732
313.732
313.674
313.564
313.413
313.233
313.039
312.841
312.649
312.474
312.341
310.106
310.213
310.356
310.513
310.675
310.834
310.98
311.103
311.193
311.24
311.24
311.193
311.103
310.98
310.834
310.675
310.513
310.356
310.213
310.106
307.867
307.949
308.06
308.182
308.308
308.432
308.545
308.641
308.711
308.747
308.747
308.711
308.641
308.545
308.432
308.308
308.182
308.06
307.949
307.867
305.625
305.683
305.762
305.849
305.939
306.027
306.108
306.177
306.226
306.253
306.253
306.226
306.177
306.108
306.027
305.939
305.849
305.762
305.683
305.625
303.38
303.415
303.462
303.514
303.568
303.621
303.67
303.711
303.741
303.756
303.756
303.741
303.711
303.67
303.621
303.568
303.514
303.462
303.415
303.38
301.133
301.145
301.161
301.178
301.196
301.214
301.23
301.244
301.254
301.259
301.259
301.254
301.244
301.23
301.214
301.196
301.178
301.161
301.145
301.133
316.857
317.044
317.284
317.544
317.812
318.075
318.318
318.522
318.671
318.75
318.75
318.671
318.522
318.318
318.075
317.812
317.544
317.284
317.044
316.857
314.623
314.782
314.988
315.214
315.446
315.673
315.883
316.06
316.188
316.256
316.256
316.188
316.06
315.883
315.673
315.446
315.214
314.988
314.782
314.623
312.385
312.517
312.69
312.881
313.077
313.269
313.446
313.595
313.704
313.761
313.761
313.704
313.595
313.446
313.269
313.077
312.881
312.69
312.517
312.385
310.142
310.248
310.39
310.546
310.706
310.863
311.008
311.129
311.218
311.265
311.265
311.218
311.129
311.008
310.863
310.706
310.546
310.39
310.248
310.142
307.895
307.977
308.087
308.208
308.332
308.454
308.567
308.661
308.73
308.766
308.766
308.73
308.661
308.567
308.454
308.332
308.208
308.087
307.977
307.895
305.645
305.703
305.781
305.867
305.956
306.043
306.124
306.191
306.24
306.266
306.266
306.24
306.191
306.124
306.043
305.956
305.867
305.781
305.703
305.645
303.392
303.426
303.473
303.525
303.579
303.631
303.679
303.72
303.749
303.765
303.765
303.749
303.72
303.679
303.631
303.579
303.525
303.473
303.426
303.392
301.137
301.149
301.164
301.182
301.2
301.217
301.233
301.247
301.257
301.262
301.262
301.257
301.247
301.233
301.217
301.2
301.182
301.164
301.149
301.137
316.978
317.162
317.397
317.653
317.916
318.173
318.41
318.61
318.755
318.831
318.831
318.755
318.61
318.41
318.173
317.916
317.653
317.397
317.162
316.978
314.728
314.884
315.087
315.308
315.535
315.758
315.963
316.135
316.261
316.327
316.327
316.261
316.135
315.963
315.758
315.535
315.308
315.087
314.884
314.728
312.473
312.603
312.774
312.961
313.153
313.341
313.514
313.66
313.765
313.821
313.821
313.765
313.66
313.514
313.341
313.153
312.961
312.774
312.603
312.473
310.215
310.319
310.458
310.611
310.768
310.922
311.063
311.182
311.268
311.314
311.314
311.268
311.182
311.063
310.922
310.768
310.611
310.458
310.319
310.215
307.952
308.032
308.14
308.259
308.381
308.5
308.61
308.702
308.769
308.805
308.805
308.769
308.702
308.61
308.5
308.381
308.259
308.14
308.032
307.952
305.685
305.742
305.819
305.904
305.991
306.076
306.155
306.22
306.268
306.294
306.294
306.268
306.22
306.155
306.076
305.991
305.904
305.819
305.742
305.685
303.416
303.45
303.496
303.547
303.599
303.651
303.698
303.737
303.766
303.781
303.781
303.766
303.737
303.698
303.651
303.599
303.547
303.496
303.45
303.416
301.145
301.157
301.172
301.189
301.207
301.224
301.24
301.253
301.262
301.268
301.268
301.262
301.253
301.24
301.224
301.207
301.189
301.172
301.157
301.145
317.159
317.34
317.569
317.818
318.072
318.321
318.55
318.743
318.882
318.956
318.956
318.882
318.743
318.55
318.321
318.072
317.818
317.569
317.34
317.159
314.885
315.038
315.235
315.451
315.671
315.887
316.085
316.251
316.372
316.435
316.435
316.372
316.251
316.085
315.887
315.671
315.451
315.235
315.038
314.885
312.606
312.733
312.9
313.081
313.268
313.45
313.617
313.758
313.859
313.913
313.913
313.859
313.758
313.617
313.45
313.268
313.081
312.9
312.733
312.606
310.323
310.425
310.561
310.71
310.862
311.011
311.148
311.262
311.345
311.389
311.389
311.345
311.262
311.148
311.011
310.862
310.71
310.561
310.425
310.323
308.036
308.115
308.22
308.335
308.454
308.57
308.676
308.765
308.829
308.863
308.863
308.829
308.765
308.676
308.57
308.454
308.335
308.22
308.115
308.036
305.746
305.801
305.876
305.959
306.043
306.126
306.202
306.265
306.311
306.336
306.336
306.311
306.265
306.202
306.126
306.043
305.959
305.876
305.801
305.746
303.452
303.485
303.531
303.58
303.631
303.68
303.726
303.764
303.792
303.806
303.806
303.792
303.764
303.726
303.68
303.631
303.58
303.531
303.485
303.452
301.158
301.169
301.184
301.2
301.217
301.234
301.249
301.262
301.271
301.276
301.276
301.271
301.262
301.249
301.234
301.217
301.2
301.184
301.169
301.158
317.402
317.577
317.799
318.039
318.284
318.522
318.741
318.924
319.057
319.127
319.127
319.057
318.924
318.741
318.522
318.284
318.039
317.799
317.577
317.402
315.096
315.243
315.435
315.642
315.854
316.061
316.25
316.409
316.523
316.584
316.584
316.523
316.409
316.25
316.061
315.854
315.642
315.435
315.243
315.096
312.785
312.907
313.068
313.244
313.423
313.598
313.757
313.891
313.988
314.039
314.039
313.988
313.891
313.757
313.598
313.423
313.244
313.068
312.907
312.785
310.469
310.568
310.699
310.843
310.989
311.132
311.262
311.372
311.451
311.493
311.493
311.451
311.372
311.262
311.132
310.989
310.843
310.699
310.568
310.469
308.15
308.225
308.327
308.439
308.553
308.664
308.765
308.85
308.912
308.944
308.944
308.912
308.85
308.765
308.664
308.553
308.439
308.327
308.225
308.15
305.827
305.88
305.953
306.033
306.114
306.193
306.266
306.326
306.37
306.393
306.393
306.37
306.326
306.266
306.193
306.114
306.033
305.953
305.88
305.827
303.501
303.533
303.577
303.624
303.673
303.721
303.764
303.801
303.827
303.841
303.841
303.827
303.801
303.764
303.721
303.673
303.624
303.577
303.533
303.501
301.174
301.184
301.199
301.215
301.231
301.247
301.262
301.274
301.283
301.288
301.288
301.283
301.274
301.262
301.247
301.231
301.215
301.199
301.184
301.174
317.708
317.876
318.088
318.318
318.551
318.778
318.985
319.158
319.283
319.349
319.349
319.283
319.158
318.985
318.778
318.551
318.318
318.088
317.876
317.708
315.36
315.502
315.686
315.884
316.086
316.283
316.462
316.611
316.719
316.776
316.776
316.719
316.611
316.462
316.283
316.086
315.884
315.686
315.502
315.36
313.008
313.126
313.281
313.449
313.619
313.785
313.936
314.063
314.154
314.202
314.202
314.154
314.063
313.936
313.785
313.619
313.449
313.281
313.126
313.008
310.652
310.747
310.873
311.01
311.15
311.286
311.409
311.512
311.587
311.626
311.626
311.587
311.512
311.409
311.286
311.15
311.01
310.873
310.747
310.652
308.292
308.365
308.463
308.569
308.678
308.783
308.879
308.96
309.017
309.048
309.048
309.017
308.96
308.879
308.783
308.678
308.569
308.463
308.365
308.292
305.928
305.98
306.05
306.126
306.203
306.279
306.347
306.405
306.446
306.468
306.468
306.446
306.405
306.347
306.279
306.203
306.126
306.05
305.98
305.928
303.562
303.593
303.635
303.68
303.727
303.772
303.813
303.848
303.873
303.886
303.886
303.873
303.848
303.813
303.772
303.727
303.68
303.635
303.593
303.562
301.194
301.205
301.219
301.234
301.249
301.265
301.278
301.29
301.298
301.303
301.303
301.298
301.29
301.278
301.265
301.249
301.234
301.219
301.205
301.194
318.076
318.236
318.439
318.657
318.878
319.091
319.285
319.446
319.563
319.624
319.624
319.563
319.446
319.285
319.091
318.878
318.657
318.439
318.236
318.076
315.679
315.815
315.99
316.178
316.369
316.554
316.722
316.862
316.962
317.015
317.015
316.962
316.862
316.722
316.554
316.369
316.178
315.99
315.815
315.679
313.278
313.391
313.538
313.697
313.859
314.015
314.157
314.275
314.36
314.405
314.405
314.36
314.275
314.157
314.015
313.859
313.697
313.538
313.391
313.278
310.873
310.963
311.084
311.214
311.346
311.474
311.589
311.686
311.756
311.792
311.792
311.756
311.686
311.589
311.474
311.346
311.214
311.084
310.963
310.873
308.463
308.533
308.626
308.728
308.83
308.93
309.02
309.095
309.149
309.177
309.177
309.149
309.095
309.02
308.93
308.83
308.728
308.626
308.533
308.463
306.051
306.1
306.167
306.239
306.312
306.383
306.448
306.501
306.54
306.56
306.56
306.54
306.501
306.448
306.383
306.312
306.239
306.167
306.1
306.051
303.636
303.665
303.705
303.748
303.793
303.835
303.874
303.906
303.929
303.941
303.941
303.929
303.906
303.874
303.835
303.793
303.748
303.705
303.665
303.636
301.219
301.229
301.242
301.257
301.271
301.286
301.299
301.309
301.317
301.321
301.321
301.317
301.309
301.299
301.286
301.271
301.257
301.242
301.229
301.219
318.507
318.66
318.852
319.057
319.264
319.463
319.644
319.794
319.901
319.958
319.958
319.901
319.794
319.644
319.463
319.264
319.057
318.852
318.66
318.507
316.053
316.182
316.348
316.525
316.704
316.877
317.033
317.163
317.256
317.305
317.305
317.256
317.163
317.033
316.877
316.704
316.525
316.348
316.182
316.053
313.594
313.701
313.841
313.991
314.143
314.288
314.42
314.53
314.609
314.65
314.65
314.609
314.53
314.42
314.288
314.143
313.991
313.841
313.701
313.594
311.131
311.218
311.331
311.454
311.578
311.697
311.805
311.895
311.959
311.993
311.993
311.959
311.895
311.805
311.697
311.578
311.454
311.331
311.218
311.131
308.665
308.731
308.819
308.915
309.011
309.104
309.188
309.257
309.307
309.333
309.333
309.307
309.257
309.188
309.104
309.011
308.915
308.819
308.731
308.665
306.195
306.242
306.305
306.373
306.442
306.508
306.568
306.617
306.653
306.672
306.672
306.653
306.617
306.568
306.508
306.442
306.373
306.305
306.242
306.195
303.722
303.75
303.788
303.829
303.87
303.91
303.946
303.976
303.997
304.008
304.008
303.997
303.976
303.946
303.91
303.87
303.829
303.788
303.75
303.722
301.248
301.257
301.27
301.284
301.297
301.311
301.323
301.333
301.34
301.344
301.344
301.34
301.333
301.323
301.311
301.297
301.284
301.27
301.257
301.248
319.004
319.148
319.329
319.521
319.714
319.898
320.065
320.203
320.301
320.353
320.353
320.301
320.203
320.065
319.898
319.714
319.521
319.329
319.148
319.004
316.483
316.605
316.761
316.927
317.094
317.254
317.398
317.517
317.603
317.647
317.647
317.603
317.517
317.398
317.254
317.094
316.927
316.761
316.605
316.483
313.958
314.059
314.19
314.331
314.472
314.608
314.729
314.83
314.902
314.94
314.94
314.902
314.83
314.729
314.608
314.472
314.331
314.19
314.059
313.958
311.429
311.51
311.617
311.732
311.848
311.959
312.058
312.141
312.2
312.23
312.23
312.2
312.141
312.058
311.959
311.848
311.732
311.617
311.51
311.429
308.896
308.959
309.042
309.131
309.221
309.307
309.385
309.449
309.494
309.518
309.518
309.494
309.449
309.385
309.307
309.221
309.131
309.042
308.959
308.896
306.36
306.404
306.464
306.527
306.592
306.653
306.709
306.754
306.787
306.804
306.804
306.787
306.754
306.709
306.653
306.592
306.527
306.464
306.404
306.36
303.822
303.848
303.883
303.922
303.96
303.997
304.03
304.058
304.078
304.088
304.088
304.078
304.058
304.03
303.997
303.96
303.922
303.883
303.848
303.822
301.281
301.29
301.302
301.315
301.328
301.34
301.351
301.36
301.367
301.37
301.37
301.367
301.36
301.351
301.34
301.328
301.315
301.302
301.29
301.281
319.566
319.702
319.87
320.049
320.228
320.398
320.551
320.676
320.766
320.813
320.813
320.766
320.676
320.551
320.398
320.228
320.049
319.87
319.702
319.566
316.97
317.084
317.23
317.385
317.54
317.687
317.819
317.928
318.006
318.046
318.046
318.006
317.928
317.819
317.687
317.54
317.385
317.23
317.084
316.97
314.37
314.465
314.588
314.719
314.849
314.974
315.086
315.178
315.244
315.278
315.278
315.244
315.178
315.086
314.974
314.849
314.719
314.588
314.465
314.37
311.766
311.842
311.943
312.05
312.157
312.259
312.35
312.425
312.479
312.507
312.507
312.479
312.425
312.35
312.259
312.157
312.05
311.943
311.842
311.766
309.158
309.217
309.295
309.378
309.461
309.541
309.612
309.67
309.712
309.734
309.734
309.712
309.67
309.612
309.541
309.461
309.378
309.295
309.217
309.158
306.547
306.589
306.644
306.704
306.763
306.82
306.871
306.913
306.942
306.958
306.958
306.942
306.913
306.871
306.82
306.763
306.704
306.644
306.589
306.547
303.934
303.959
303.992
304.028
304.063
304.098
304.128
304.153
304.171
304.18
304.18
304.171
304.153
304.128
304.098
304.063
304.028
303.992
303.959
303.934
301.319
301.327
301.338
301.35
301.362
301.374
301.384
301.392
301.398
301.401
301.401
301.398
301.392
301.384
301.374
301.362
301.35
301.338
301.327
301.319
320.194
320.321
320.478
320.644
320.809
320.965
321.104
321.218
321.299
321.342
321.342
321.299
321.218
321.104
320.965
320.809
320.644
320.478
320.321
320.194
317.514
317.621
317.757
317.9
318.043
318.178
318.299
318.398
318.468
318.505
318.505
318.468
318.398
318.299
318.178
318.043
317.9
317.757
317.621
317.514
314.83
314.919
315.033
315.155
315.275
315.39
315.492
315.575
315.635
315.666
315.666
315.635
315.575
315.492
315.39
315.275
315.155
315.033
314.919
314.83
312.143
312.214
312.307
312.407
312.505
312.599
312.682
312.751
312.799
312.825
312.825
312.799
312.751
312.682
312.599
312.505
312.407
312.307
312.214
312.143
309.451
309.506
309.579
309.656
309.733
309.805
309.87
309.923
309.961
309.981
309.981
309.961
309.923
309.87
309.805
309.733
309.656
309.579
309.506
309.451
306.757
306.796
306.847
306.902
306.957
307.009
307.056
307.094
307.121
307.135
307.135
307.121
307.094
307.056
307.009
306.957
306.902
306.847
306.796
306.757
304.06
304.083
304.114
304.147
304.18
304.211
304.239
304.262
304.278
304.286
304.286
304.278
304.262
304.239
304.211
304.18
304.147
304.114
304.083
304.06
301.361
301.369
301.379
301.39
301.401
301.412
301.421
301.429
301.434
301.437
301.437
301.434
301.429
301.421
301.412
301.401
301.39
301.379
301.369
301.361
320.89
321.008
321.154
321.306
321.457
321.599
321.726
321.829
321.902
321.94
321.94
321.902
321.829
321.726
321.599
321.457
321.306
321.154
321.008
320.89
318.116
318.216
318.342
318.474
318.605
318.728
318.838
318.927
318.991
319.024
319.024
318.991
318.927
318.838
318.728
318.605
318.474
318.342
318.216
318.116
315.34
315.423
315.529
315.64
315.751
315.855
315.948
316.024
316.077
316.105
316.105
316.077
316.024
315.948
315.855
315.751
315.64
315.529
315.423
315.34
312.559
312.626
312.713
312.804
312.895
312.98
313.056
313.118
313.162
313.184
313.184
313.162
313.118
313.056
312.98
312.895
312.804
312.713
312.626
312.559
309.776
309.827
309.894
309.965
310.035
310.102
310.161
310.209
310.243
310.261
310.261
310.243
310.209
310.161
310.102
310.035
309.965
309.894
309.827
309.776
306.989
307.025
307.073
307.123
307.174
307.221
307.263
307.298
307.322
307.335
307.335
307.322
307.298
307.263
307.221
307.174
307.123
307.073
307.025
306.989
304.199
304.221
304.249
304.28
304.31
304.338
304.364
304.384
304.399
304.407
304.407
304.399
304.384
304.364
304.338
304.31
304.28
304.249
304.221
304.199
301.408
301.415
301.425
301.435
301.445
301.454
301.463
301.47
301.475
301.477
301.477
301.475
301.47
301.463
301.454
301.445
301.435
301.425
301.415
301.408
321.653
321.762
321.897
322.037
322.175
322.304
322.418
322.511
322.577
322.611
322.611
322.577
322.511
322.418
322.304
322.175
322.037
321.897
321.762
321.653
318.777
318.87
318.986
319.107
319.227
319.339
319.438
319.519
319.576
319.605
319.605
319.576
319.519
319.438
319.339
319.227
319.107
318.986
318.87
318.777
315.899
315.975
316.073
316.176
316.277
316.372
316.456
316.524
316.572
316.597
316.597
316.572
316.524
316.456
316.372
316.277
316.176
316.073
315.975
315.899
313.017
313.079
313.158
313.242
313.325
313.403
313.471
313.527
313.567
313.587
313.587
313.567
313.527
313.471
313.403
313.325
313.242
313.158
313.079
313.017
310.131
310.179
310.241
310.306
310.37
310.431
310.484
310.528
310.558
310.574
310.574
310.558
310.528
310.484
310.431
310.37
310.306
310.241
310.179
310.131
307.243
307.276
307.32
307.367
307.413
307.456
307.494
307.525
307.547
307.559
307.559
307.547
307.525
307.494
307.456
307.413
307.367
307.32
307.276
307.243
304.352
304.372
304.398
304.426
304.454
304.48
304.503
304.521
304.534
304.541
304.541
304.534
304.521
304.503
304.48
304.454
304.426
304.398
304.372
304.352
301.459
301.466
301.474
301.484
301.493
301.502
301.509
301.516
301.52
301.522
301.522
301.52
301.516
301.509
301.502
301.493
301.484
301.474
301.466
301.459
322.483
322.584
322.708
322.837
322.962
323.079
323.182
323.266
323.325
323.355
323.355
323.325
323.266
323.182
323.079
322.962
322.837
322.708
322.584
322.483
319.496
319.582
319.689
319.8
319.909
320.01
320.1
320.172
320.223
320.25
320.25
320.223
320.172
320.1
320.01
319.909
319.8
319.689
319.582
319.496
316.507
316.578
316.668
316.762
316.854
316.94
317.016
317.077
317.12
317.143
317.143
317.12
317.077
317.016
316.94
316.854
316.762
316.668
316.578
316.507
313.514
313.571
313.645
313.722
313.797
313.868
313.929
313.98
314.015
314.033
314.033
314.015
313.98
313.929
313.868
313.797
313.722
313.645
313.571
313.514
310.518
310.562
310.619
310.679
310.738
310.792
310.841
310.879
310.907
310.921
310.921
310.907
310.879
310.841
310.792
310.738
310.679
310.619
310.562
310.518
307.519
307.55
307.591
307.634
307.676
307.715
307.749
307.777
307.797
307.807
307.807
307.797
307.777
307.749
307.715
307.676
307.634
307.591
307.55
307.519
304.518
304.536
304.561
304.586
304.611
304.635
304.656
304.672
304.684
304.69
304.69
304.684
304.672
304.656
304.635
304.611
304.586
304.561
304.536
304.518
301.515
301.521
301.529
301.538
301.546
301.554
301.561
301.566
301.57
301.572
301.572
301.57
301.566
301.561
301.554
301.546
301.538
301.529
301.521
301.515
323.379
323.473
323.587
323.704
323.818
323.924
324.016
324.091
324.144
324.171
324.171
324.144
324.091
324.016
323.924
323.818
323.704
323.587
323.473
323.379
320.272
320.351
320.45
320.551
320.65
320.742
320.822
320.887
320.933
320.956
320.956
320.933
320.887
320.822
320.742
320.65
320.551
320.45
320.351
320.272
317.163
317.229
317.311
317.397
317.481
317.559
317.627
317.682
317.72
317.74
317.74
317.72
317.682
317.627
317.559
317.481
317.397
317.311
317.229
317.163
314.051
314.104
314.171
314.241
314.31
314.374
314.429
314.474
314.506
314.522
314.522
314.506
314.474
314.429
314.374
314.31
314.241
314.171
314.104
314.051
310.936
310.976
311.028
311.083
311.136
311.186
311.229
311.264
311.289
311.301
311.301
311.289
311.264
311.229
311.186
311.136
311.083
311.028
310.976
310.936
307.817
307.846
307.883
307.922
307.96
307.996
308.027
308.052
308.069
308.078
308.078
308.069
308.052
308.027
307.996
307.96
307.922
307.883
307.846
307.817
304.697
304.714
304.736
304.76
304.783
304.804
304.822
304.837
304.848
304.853
304.853
304.848
304.837
304.822
304.804
304.783
304.76
304.736
304.714
304.697
301.575
301.58
301.588
301.596
301.603
301.61
301.617
301.622
301.625
301.627
301.627
301.625
301.622
301.617
301.61
301.603
301.596
301.588
301.58
301.575
324.338
324.424
324.528
324.635
324.739
324.834
324.918
324.984
325.031
325.056
325.056
325.031
324.984
324.918
324.834
324.739
324.635
324.528
324.424
324.338
321.102
321.175
321.265
321.357
321.447
321.53
321.602
321.66
321.701
321.722
321.722
321.701
321.66
321.602
321.53
321.447
321.357
321.265
321.175
321.102
317.864
317.924
318
318.079
318.154
318.225
318.286
318.335
318.369
318.387
318.387
318.369
318.335
318.286
318.225
318.154
318.079
318
317.924
317.864
314.624
314.672
314.734
314.798
314.86
314.918
314.968
315.008
315.036
315.051
315.051
315.036
315.008
314.968
314.918
314.86
314.798
314.734
314.672
314.624
311.381
311.418
311.466
311.516
311.564
311.609
311.648
311.679
311.701
311.712
311.712
311.701
311.679
311.648
311.609
311.564
311.516
311.466
311.418
311.381
308.135
308.162
308.196
308.231
308.266
308.298
308.326
308.348
308.364
308.372
308.372
308.364
308.348
308.326
308.298
308.266
308.231
308.196
308.162
308.135
304.888
304.903
304.924
304.945
304.966
304.985
305.002
305.015
305.025
305.03
305.03
305.025
305.015
305.002
304.985
304.966
304.945
304.924
304.903
304.888
301.639
301.644
301.651
301.658
301.665
301.671
301.677
301.681
301.684
301.686
301.686
301.684
301.681
301.677
301.671
301.665
301.658
301.651
301.644
301.639
325.349
325.428
325.523
325.621
325.714
325.801
325.875
325.935
325.977
325.999
325.999
325.977
325.935
325.875
325.801
325.714
325.621
325.523
325.428
325.349
321.974
322.041
322.124
322.208
322.289
322.364
322.429
322.481
322.517
322.536
322.536
322.517
322.481
322.429
322.364
322.289
322.208
322.124
322.041
321.974
318.6
318.655
318.725
318.796
318.865
318.928
318.983
319.027
319.058
319.074
319.074
319.058
319.027
318.983
318.928
318.865
318.796
318.725
318.655
318.6
315.224
315.269
315.326
315.384
315.44
315.492
315.537
315.573
315.598
315.611
315.611
315.598
315.573
315.537
315.492
315.44
315.384
315.326
315.269
315.224
311.847
311.881
311.925
311.971
312.015
312.055
312.09
312.118
312.138
312.148
312.148
312.138
312.118
312.09
312.055
312.015
311.971
311.925
311.881
311.847
308.468
308.492
308.523
308.556
308.587
308.616
308.641
308.661
308.675
308.682
308.682
308.675
308.661
308.641
308.616
308.587
308.556
308.523
308.492
308.468
305.087
305.102
305.12
305.14
305.159
305.176
305.191
305.203
305.212
305.216
305.216
305.212
305.203
305.191
305.176
305.159
305.14
305.12
305.102
305.087
301.705
301.71
301.717
301.723
301.729
301.735
301.74
301.744
301.747
301.749
301.749
301.747
301.744
301.74
301.735
301.729
301.723
301.717
301.71
301.705
326.385
326.457
326.545
326.634
326.719
326.797
326.864
326.918
326.955
326.975
326.975
326.955
326.918
326.864
326.797
326.719
326.634
326.545
326.457
326.385
322.865
322.926
323.002
323.079
323.153
323.22
323.279
323.326
323.358
323.375
323.375
323.358
323.326
323.279
323.22
323.153
323.079
323.002
322.926
322.865
319.348
319.399
319.463
319.528
319.59
319.648
319.697
319.737
319.764
319.779
319.779
319.764
319.737
319.697
319.648
319.59
319.528
319.463
319.399
319.348
315.832
315.873
315.925
315.979
316.03
316.077
316.118
316.15
316.173
316.184
316.184
316.173
316.15
316.118
316.077
316.03
315.979
315.925
315.873
315.832
312.318
312.349
312.389
312.431
312.471
312.507
312.539
312.564
312.582
312.591
312.591
312.582
312.564
312.539
312.507
312.471
312.431
312.389
312.349
312.318
308.803
308.825
308.854
308.884
308.912
308.938
308.961
308.979
308.991
308.998
308.998
308.991
308.979
308.961
308.938
308.912
308.884
308.854
308.825
308.803
305.288
305.301
305.318
305.336
305.353
305.369
305.383
305.393
305.401
305.405
305.405
305.401
305.393
305.383
305.369
305.353
305.336
305.318
305.301
305.288
301.773
301.777
301.783
301.789
301.795
301.8
301.804
301.808
301.811
301.812
301.812
301.811
301.808
301.804
301.8
301.795
301.789
301.783
301.777
301.773
327.38
327.447
327.527
327.609
327.687
327.758
327.819
327.868
327.901
327.919
327.919
327.901
327.868
327.819
327.758
327.687
327.609
327.527
327.447
327.38
323.709
323.766
323.836
323.907
323.975
324.036
324.089
324.132
324.161
324.176
324.176
324.161
324.132
324.089
324.036
323.975
323.907
323.836
323.766
323.709
320.05
320.097
320.156
320.216
320.273
320.326
320.371
320.407
320.431
320.444
320.444
320.431
320.407
320.371
320.326
320.273
320.216
320.156
320.097
320.05
316.398
316.436
316.484
316.533
316.58
316.623
316.66
316.689
316.71
316.72
316.72
316.71
316.689
316.66
316.623
316.58
316.533
316.484
316.436
316.398
312.752
312.781
312.818
312.857
312.893
312.927
312.956
312.979
312.995
313.003
313.003
312.995
312.979
312.956
312.927
312.893
312.857
312.818
312.781
312.752
309.11
309.131
309.157
309.185
309.211
309.235
309.256
309.272
309.283
309.289
309.289
309.283
309.272
309.256
309.235
309.211
309.185
309.157
309.131
309.11
305.471
305.483
305.499
305.516
305.532
305.546
305.559
305.568
305.575
305.579
305.579
305.575
305.568
305.559
305.546
305.532
305.516
305.499
305.483
305.471
301.834
301.838
301.843
301.849
301.854
301.859
301.863
301.866
301.869
301.87
301.87
301.869
301.866
301.863
301.859
301.854
301.849
301.843
301.838
301.834
328.159
328.222
328.298
328.374
328.447
328.513
328.57
328.615
328.647
328.663
328.663
328.647
328.615
328.57
328.513
328.447
328.374
328.298
328.222
328.159
324.346
324.399
324.465
324.532
324.595
324.653
324.703
324.742
324.769
324.784
324.784
324.769
324.742
324.703
324.653
324.595
324.532
324.465
324.399
324.346
320.562
320.606
320.662
320.719
320.773
320.822
320.864
320.898
320.921
320.933
320.933
320.921
320.898
320.864
320.822
320.773
320.719
320.662
320.606
320.562
316.8
316.836
316.882
316.928
316.973
317.013
317.048
317.075
317.094
317.104
317.104
317.094
317.075
317.048
317.013
316.973
316.928
316.882
316.836
316.8
313.055
313.083
313.118
313.154
313.189
313.221
313.248
313.269
313.284
313.292
313.292
313.284
313.269
313.248
313.221
313.189
313.154
313.118
313.083
313.055
309.322
309.341
309.367
309.393
309.417
309.44
309.459
309.475
309.486
309.491
309.491
309.486
309.475
309.459
309.44
309.417
309.393
309.367
309.341
309.322
305.596
305.608
305.623
305.639
305.654
305.667
305.679
305.688
305.695
305.698
305.698
305.695
305.688
305.679
305.667
305.654
305.639
305.623
305.608
305.596
301.875
301.879
301.884
301.89
301.895
301.899
301.903
301.906
301.908
301.91
301.91
301.908
301.906
301.903
301.899
301.895
301.89
301.884
301.879
301.875
)
;

boundaryField
{
    hotSide
    {
        type            fixedGradient;
        gradient        nonuniform List<scalar> 
400
(
177.735
178.383
179.683
181.637
184.251
187.532
191.489
196.129
201.463
207.499
214.246
221.712
229.904
238.831
248.497
258.908
270.068
281.98
294.647
308.072
180.222
180.851
182.111
184.009
186.551
189.747
193.607
198.142
203.366
209.288
215.92
223.271
231.353
240.171
249.734
260.047
271.115
282.941
295.528
308.879
182.913
183.518
184.733
186.564
189.021
192.116
195.863
200.277
205.372
211.164
217.666
224.889
232.846
241.545
250.995
261.202
272.17
283.904
296.406
309.679
185.764
186.342
187.503
189.257
191.615
194.595
198.213
202.489
207.441
213.088
219.446
226.529
234.35
242.921
252.25
262.344
273.209
284.847
297.262
310.454
188.696
189.243
190.344
192.01
194.259
197.111
200.587
204.713
209.51
215.001
221.205
228.139
235.819
244.257
253.462
263.441
274.2
285.742
298.07
311.184
191.585
192.099
193.136
194.71
196.843
199.559
202.888
206.856
211.493
216.824
222.872
229.657
237.196
245.502
254.585
264.453
275.11
286.56
298.804
311.843
194.267
194.749
195.721
197.203
199.221
201.805
204.988
208.804
213.286
218.464
224.364
231.008
238.415
246.599
255.57
265.335
275.9
287.267
299.437
312.409
196.543
196.995
197.91
199.31
201.225
203.69
206.744
210.426
214.773
219.818
225.59
232.114
239.409
247.489
256.365
266.045
276.533
287.831
299.94
312.858
198.209
198.638
199.509
200.846
202.682
205.058
208.015
211.596
215.842
220.788
226.465
232.9
240.112
248.117
256.925
266.543
276.976
288.226
300.291
313.17
199.092
199.508
200.355
201.658
203.452
205.779
208.683
212.21
216.401
221.295
226.922
233.309
240.478
248.443
257.215
266.801
277.205
288.428
300.471
313.33
199.092
199.508
200.355
201.658
203.452
205.779
208.683
212.21
216.401
221.295
226.922
233.309
240.478
248.443
257.215
266.801
277.205
288.428
300.471
313.33
198.209
198.638
199.509
200.846
202.682
205.058
208.015
211.596
215.842
220.788
226.465
232.9
240.112
248.117
256.925
266.543
276.976
288.226
300.291
313.17
196.543
196.995
197.91
199.31
201.225
203.69
206.744
210.426
214.773
219.818
225.59
232.114
239.409
247.489
256.365
266.045
276.533
287.831
299.94
312.858
194.267
194.749
195.721
197.203
199.221
201.805
204.988
208.804
213.286
218.464
224.364
231.008
238.415
246.599
255.57
265.335
275.9
287.267
299.437
312.409
191.585
192.099
193.136
194.71
196.843
199.559
202.888
206.856
211.493
216.824
222.872
229.657
237.196
245.502
254.585
264.453
275.11
286.56
298.804
311.843
188.696
189.243
190.344
192.01
194.259
197.111
200.587
204.713
209.51
215.001
221.205
228.139
235.819
244.257
253.462
263.441
274.2
285.742
298.07
311.184
185.764
186.342
187.503
189.257
191.615
194.595
198.213
202.489
207.441
213.088
219.446
226.529
234.35
242.921
252.25
262.344
273.209
284.847
297.262
310.454
182.913
183.518
184.733
186.564
189.021
192.116
195.863
200.277
205.372
211.164
217.666
224.889
232.846
241.545
250.995
261.202
272.17
283.904
296.406
309.679
180.222
180.851
182.111
184.009
186.551
189.747
193.607
198.142
203.366
209.288
215.92
223.271
231.353
240.171
249.734
260.047
271.115
282.941
295.528
308.879
177.735
178.383
179.683
181.637
184.251
187.532
191.489
196.129
201.463
207.499
214.246
221.712
229.904
238.831
248.497
258.908
270.068
281.98
294.647
308.072
)
;
    }
    coldSide
    {
        type            mixed;
        refValue        uniform 300;
        refGradient     uniform 0;
        valueFraction   uniform 0.991591;
        source          uniform 0;
        value           nonuniform List<scalar> 
400
(
300.01
300.01
300.01
300.01
300.01
300.01
300.01
300.01
300.011
300.011
300.011
300.012
300.012
300.013
300.013
300.014
300.014
300.015
300.015
300.016
300.01
300.01
300.01
300.01
300.01
300.01
300.01
300.011
300.011
300.011
300.012
300.012
300.012
300.013
300.013
300.014
300.014
300.015
300.015