/*--------------------------------*- C++ -*----------------------------------*\
| =========                 |                                                 |
| \\      /  F ield         | OpenFOAM: The Open Source CFD Toolbox           |
|  \\    /   O peration     | Version:  2212                                  |
|   \\  /    A nd           | Website:  www.openfoam.com                      |
|    \\/     M anipulation  |                                                 |
\*---------------------------------------------------------------------------*/
FoamFile
{
    version     2.0;
    format      ascii;
    arch        "LSB;label=32;scalar=64";
    class       volScalarField;
    location    "0";
    object      T;
}
// * * * * * * * * * * * * * * * * * * * * * * * * * * * * * * * * * * * * * //

dimensions      [0 0 0 1 0 0 0];

internalField   nonuniform List<scalar> 
3200
(
332.887
333.31
334.301
334.378
334.906
335.213
335.822
335.544
335.872
335.898
335.665
335.847
335.545
335.221
334.755
333.991
333.76
333.023
332.467
331.935
328.334
328.691
329.56
329.577
330.036
330.323
330.878
330.611
330.894
331.004
330.764
330.926
330.663
330.361
330.007
329.34
329.113
328.468
328.019
327.574
323.849
324.174
324.883
324.876
325.232
325.542
326.032
325.766
325.968
326.181
325.935
326.042
325.802
325.589
325.287
324.706
324.494
324.008
323.572
323.281
319.444
319.729
320.332
320.308
320.485
320.827
321.279
321.015
321.105
321.395
321.161
321.218
320.993
320.845
320.57
320.138
319.979
319.584
319.185
319.001
315.057
315.282
315.793
315.805
315.86
316.17
316.571
316.319
316.329
316.567
316.465
316.481
316.272
316.204
315.929
315.609
315.5
315.21
314.846
314.739
310.744
310.938
311.246
311.288
311.318
311.53
311.826
311.66
311.612
311.804
311.791
311.799
311.594
311.589
311.302
311.112
311.034
310.82
310.547
310.572
306.416
306.565
306.739
306.768
306.798
306.915
307.105
306.99
306.978
307.087
307.114
307.103
306.942
306.971
306.749
306.667
306.628
306.479
306.315
306.355
302.16
302.186
302.254
302.256
302.277
302.329
302.375
302.337
302.341
302.364
302.386
302.405
302.331
302.338
302.262
302.219
302.221
302.171
302.101
302.139
333.797
334.437
335.056
335.661
335.842
336.394
336.79
336.412
336.922
337.004
336.727
336.844
336.604
336.266
335.71
335.102
334.684
333.872
333.141
332.728
329.067
329.606
330.16
330.63
330.809
331.316
331.685
331.295
331.734
331.833
331.622
331.708
331.506
331.196
330.782
330.237
329.857
329.152
328.522
328.194
324.41
324.9
325.358
325.727
325.908
326.33
326.667
326.381
326.663
326.776
326.623
326.644
326.514
326.223
325.892
325.443
325.138
324.573
324.01
323.751
319.837
320.258
320.611
320.912
321.126
321.459
321.73
321.516
321.692
321.843
321.688
321.67
321.582
321.368
321.071
320.693
320.466
320.037
319.565
319.378
315.38
315.687
315.942
316.187
316.393
316.653
316.885
316.677
316.766
316.917
316.799
316.778
316.691
316.609
316.307
316.01
315.881
315.538
315.174
315.044
310.947
311.162
311.353
311.54
311.697
311.849
312.039
311.901
311.937
312.056
311.939
311.976
311.905
311.853
311.607
311.431
311.362
311.068
310.865
310.722
306.545
306.677
306.824
306.902
307.001
307.081
307.217
307.127
307.124
307.233
307.151
307.174
307.156
307.094
306.958
306.868
306.816
306.626
306.537
306.413
302.18
302.246
302.284
302.299
302.337
302.379
302.432
302.401
302.354
302.421
302.414
302.39
302.413
302.367
302.335
302.3
302.288
302.237
302.184
302.154
334.949
335.463
336.186
336.741
337.324
337.573
337.886
337.838
338.159
338.123
337.886
337.858
337.875
337.491
336.968
336.295
335.789
335.209
334.464
333.706
330.069
330.483
331.115
331.575
332.079
332.278
332.606
332.541
332.838
332.755
332.553
332.585
332.635
332.258
331.819
331.236
330.792
330.302
329.678
329.055
325.22
325.6
326.154
326.555
326.934
327.111
327.425
327.405
327.616
327.508
327.377
327.416
327.461
327.146
326.777
326.226
325.868
325.473
324.968
324.495
320.544
320.841
321.264
321.656
321.926
322.068
322.343
322.358
322.46
322.376
322.293
322.332
322.328
322.072
321.811
321.332
321.052
320.718
320.344
319.958
315.932
316.128
316.443
316.768
317.002
317.124
317.346
317.342
317.4
317.303
317.305
317.327
317.3
317.096
316.908
316.499
316.357
316.08
315.749
315.46
311.338
311.47
311.686
311.927
312.112
312.201
312.375
312.365
312.386
312.318
312.349
312.337
312.317
312.166
312.018
311.773
311.688
311.461
311.18
310.997
306.8
306.865
307.029
307.122
307.266
307.291
307.412
307.396
307.41
307.38
307.393
307.386
307.397
307.295
307.171
307.089
307.037
306.838
306.708
306.577
302.291
302.302
302.334
302.375
302.415
302.441
302.485
302.463
302.479
302.479
302.47
302.47
302.494
302.454
302.404
302.378
302.351
302.28
302.256
302.195
336.077
336.777
337.425
338.233
338.705
338.644
339.129
339.25
339.489
339.559
339.471
339.382
339.277
338.779
338.327
337.801
337.143
336.496
335.501
334.864
330.994
331.635
332.16
332.923
333.294
333.187
333.624
333.728
333.922
334.004
333.944
333.854
333.801
333.393
332.997
332.52
331.947
331.438
330.571
330.008
326.061
326.572
327.027
327.694
327.964
327.862
328.275
328.374
328.478
328.556
328.559
328.482
328.448
328.118
327.752
327.331
326.867
326.48
325.795
325.278
321.238
321.623
321.986
322.582
322.74
322.666
323.036
323.135
323.156
323.239
323.273
323.222
323.143
322.92
322.564
322.247
321.875
321.583
321.08
320.597
316.434
316.75
317.032
317.485
317.611
317.551
317.878
317.92
317.93
317.979
318.047
318.009
317.896
317.785
317.431
317.251
316.966
316.688
316.321
315.983
311.658
311.929
312.116
312.461
312.585
312.496
312.771
312.783
312.796
312.82
312.878
312.84
312.72
312.676
312.423
312.298
312.123
311.844
311.636
311.419
307.026
307.127
307.235
307.444
307.563
307.478
307.668
307.698
307.666
307.723
307.733
307.718
307.623
307.598
307.464
307.387
307.3
307.088
306.954
306.833
302.371
302.39
302.407
302.497
302.555
302.499
302.564
302.584
302.573
302.599
302.59
302.568
302.557
302.553
302.496
302.483
302.453
302.38
302.335
302.282
337.179
337.868
338.775
339.216
339.864
340.29
340.391
340.739
340.851
340.995
340.931
340.823
340.573
340.005
339.59
339.09
338.347
337.688
336.858
336.101
331.981
332.574
333.34
333.713
334.293
334.596
334.652
334.999
335.113
335.249
335.228
335.076
334.886
334.387
334.038
333.638
332.978
332.431
331.743
331.054
326.886
327.371
327.986
328.321
328.794
329.105
329.127
329.389
329.525
329.637
329.604
329.5
329.308
328.91
328.595
328.313
327.741
327.258
326.734
326.139
321.882
322.299
322.768
323.037
323.405
323.703
323.724
323.892
324.056
324.129
324.104
323.985
323.827
323.538
323.275
323.043
322.599
322.216
321.747
321.329
316.913
317.318
317.621
317.829
318.126
318.343
318.4
318.487
318.637
318.665
318.665
318.574
318.454
318.257
318.018
317.853
317.539
317.217
316.814
316.575
312.046
312.364
312.556
312.699
312.922
313.053
313.134
313.172
313.299
313.285
313.269
313.248
313.171
312.983
312.863
312.703
312.515
312.268
311.89
311.831
307.174
307.42
307.513
307.594
307.758
307.843
307.882
307.906
307.975
307.962
307.936
307.996
307.924
307.807
307.732
307.586
307.515
307.359
307.099
307.099
302.422
302.499
302.53
302.527
302.595
302.622
302.628
302.638
302.687
302.68
302.654
302.687
302.661
302.614
302.598
302.553
302.548
302.455
302.352
302.375
338.565
339.303
339.989
340.466
340.995
341.56
341.839
342.164
342.252
342.42
342.256
342.145
341.956
341.457
340.867
340.376
339.754
339.019
338.247
337.286
333.223
333.78
334.393
334.793
335.258
335.747
335.925
336.288
336.336
336.454
336.346
336.224
336.056
335.628
335.159
334.717
334.193
333.552
332.904
332.131
328.002
328.372
328.936
329.254
329.634
330.057
330.192
330.518
330.516
330.643
330.588
330.435
330.304
329.947
329.557
329.202
328.787
328.208
327.696
327.06
322.815
323.073
323.564
323.823
324.1
324.439
324.571
324.844
324.854
324.919
324.912
324.732
324.633
324.349
324.008
323.776
323.451
322.986
322.545
322.056
317.653
317.876
318.252
318.443
318.641
318.888
319.018
319.28
319.247
319.266
319.345
319.157
319.087
318.855
318.573
318.457
318.208
317.792
317.484
317.129
312.565
312.735
312.971
313.146
313.269
313.406
313.538
313.757
313.696
313.68
313.766
313.638
313.598
313.437
313.209
313.166
313.018
312.666
312.479
312.225
307.541
307.618
307.755
307.889
307.95
308.002
308.079
308.235
308.216
308.201
308.239
308.175
308.131
308.112
307.928
307.897
307.828
307.614
307.497
307.331
302.533
302.563
302.588
302.644
302.666
302.671
302.693
302.734
302.765
302.758
302.76
302.749
302.715
302.721
302.676
302.64
302.622
302.564
302.508
302.461
339.621
340.305
341.244
341.625
342.196
342.867
343.193
343.455
343.72
343.614
343.588
343.508
343.066
342.748
342.291
341.611
340.902
340.151
339.486
338.718
334.081
334.67
335.446
335.75
336.263
336.855
337.128
337.354
337.587
337.509
337.519
337.43
337.057
336.756
336.352
335.786
335.215
334.587
334.014
333.329
328.656
329.15
329.777
330.042
330.486
330.995
331.211
331.41
331.573
331.545
331.552
331.489
331.165
330.941
330.546
330.088
329.642
329.124
328.647
328.028
323.301
323.781
324.242
324.456
324.808
325.258
325.418
325.583
325.69
325.642
325.685
325.608
325.37
325.235
324.867
324.56
324.142
323.777
323.393
322.835
318.067
318.447
318.781
318.922
319.239
319.556
319.717
319.871
319.889
319.837
319.891
319.847
319.621
319.569
319.262
319.046
318.751
318.485
318.165
317.697
312.82
313.136
313.402
313.446
313.708
313.926
314.05
314.201
314.175
314.127
314.155
314.105
313.944
313.982
313.717
313.581
313.366
313.191
312.969
312.619
307.688
307.894
308.051
308.021
308.205
308.332
308.407
308.549
308.458
308.488
308.479
308.456
308.386
308.411
308.209
308.18
308.009
307.913
307.807
307.568
302.582
302.642
302.693
302.668
302.754
302.765
302.815
302.884
302.835
302.844
302.839
302.832
302.819
302.818
302.753
302.737
302.67
302.633
302.62
302.536
340.821
341.388
342.024
342.782
343.421
344.206
344.512
344.673
345.015
344.869
344.875
344.757
344.211
343.861
343.649
342.917
342.089
341.478
340.535
339.807
335.122
335.632
336.116
336.756
337.324
338.027
338.262
338.366
338.706
338.53
338.571
338.456
338.016
337.7
337.548
336.921
336.275
335.727
334.856
334.336
329.524
329.99
330.377
330.847
331.379
331.958
332.154
332.217
332.506
332.351
332.439
332.318
332.005
331.749
331.594
331.077
330.555
330.104
329.3
328.934
323.975
324.445
324.724
325.066
325.511
325.984
326.17
326.19
326.453
326.332
326.435
326.309
326.075
325.858
325.736
325.342
324.889
324.555
323.886
323.545
318.596
318.959
319.183
319.387
319.717
320.117
320.277
320.259
320.509
320.395
320.507
320.348
320.218
320.066
319.942
319.622
319.272
319.091
318.53
318.256
313.235
313.519
313.68
313.792
314.031
314.332
314.462
314.416
314.613
314.522
314.598
314.453
314.424
314.323
314.209
313.982
313.674
313.661
313.207
313.032
307.943
308.094
308.211
308.263
308.392
308.586
308.694
308.64
308.776
308.708
308.726
308.692
308.651
308.601
308.546
308.366
308.153
308.214
307.951
307.817
302.655
302.717
302.759
302.753
302.816
302.877
302.909
302.905
302.937
302.89
302.907
302.91
302.878
302.858
302.86
302.81
302.711
302.75
302.661
302.622
341.793
342.635
343.311
344.092
344.714
345.522
345.49
345.891
346.272
346.161
346.087
346.129
345.713
345.2
344.838
344.1
343.429
342.566
341.658
340.902
335.937
336.647
337.188
337.865
338.444
339.152
339.101
339.403
339.773
339.687
339.597
339.647
339.304
338.869
338.602
337.906
337.372
336.552
335.855
335.203
330.219
330.764
331.25
331.832
332.294
332.954
332.865
333.072
333.421
333.364
333.295
333.326
333.024
332.71
332.443
331.888
331.448
330.729
330.195
329.586
324.567
325.075
325.414
325.876
326.258
326.828
326.753
326.916
327.181
327.16
327.104
327.145
326.876
326.65
326.371
325.968
325.604
325.022
324.624
324.095
319.042
319.404
319.654
320.027
320.309
320.761
320.708
320.832
321.043
321.036
321.026
321.04
320.821
320.725
320.39
320.115
319.797
319.387
319.099
318.673
313.547
313.825
313.98
314.287
314.48
314.764
314.75
314.826
315.028
314.948
314.995
314.97
314.874
314.774
314.503
314.298
314.087
313.808
313.622
313.292
308.108
308.303
308.364
308.542
308.696
308.814
308.832
308.866
309.042
308.958
309.005
308.95
308.947
308.84
308.681
308.586
308.447
308.292
308.178
307.971
302.713
302.784
302.794
302.841
302.916
302.956
302.953
302.971
303.016
303.001
303.008
302.99
303.002
302.971
302.909
302.896
302.862
302.768
302.759
302.682
342.647
343.593
344.431
345.219
345.795
346.582
346.662
347.168
347.614
347.443
347.29
347.251
346.897
346.466
345.836
345.261
344.551
343.555
342.683
342.14
336.664
337.469
338.156
338.835
339.378
340.051
340.111
340.579
340.962
340.814
340.631
340.659
340.327
339.986
339.383
338.934
338.318
337.411
336.735
336.311
330.842
331.487
332.037
332.623
333.138
333.651
333.717
334.111
334.474
334.328
334.133
334.211
333.925
333.603
333.079
332.73
332.258
331.456
330.913
330.592
325.135
325.62
326.016
326.572
326.961
327.351
327.388
327.792
328.082
327.984
327.82
327.854
327.629
327.344
326.909
326.599
326.27
325.609
325.222
324.959
319.49
319.852
320.161
320.597
320.854
321.172
321.212
321.569
321.76
321.705
321.568
321.619
321.412
321.126
320.821
320.612
320.355
319.795
319.617
319.335
313.871
314.116
314.344
314.647
314.829
315.048
315.141
315.399
315.556
315.461
315.355
315.421
315.269
315.036
314.795
314.68
314.493
314.092
313.989
313.771
308.274
308.439
308.593
308.792
308.87
308.998
309.097
309.204
309.391
309.271
309.171
309.255
309.136
309.01
308.852
308.799
308.666
308.439
308.363
308.279
302.765
302.829
302.897
302.949
302.967
303.021
303.054
303.072
303.16
303.1
303.078
303.087
303.053
303.018
302.962
302.924
302.909
302.813
302.792
302.769
343.682
344.616
345.467
346.43
347.053
347.656
348.041
348.254
348.549
348.464
348.381
348.319
347.989
347.807
346.904
346.386
345.628
344.773
343.815
342.821
337.585
338.334
339.054
339.879
340.432
340.938
341.295
341.453
341.779
341.677
341.582
341.54
341.33
341.146
340.345
339.919
339.25
338.488
337.739
336.94
331.593
332.195
332.813
333.469
334.022
334.396
334.728
334.812
335.148
335.025
334.976
334.898
334.74
334.601
333.922
333.585
333.014
332.342
331.778
331.154
325.786
326.206
326.724
327.188
327.728
327.992
328.259
328.314
328.602
328.523
328.488
328.376
328.305
328.119
327.654
327.383
326.908
326.321
325.909
325.425
320.013
320.305
320.755
321.046
321.514
321.705
321.873
321.898
322.17
322.119
322.068
321.963
321.922
321.781
321.405
321.241
320.881
320.384
320.118
319.724
314.274
314.445
314.819
314.987
315.339
315.44
315.579
315.588
315.799
315.759
315.72
315.631
315.611
315.512
315.241
315.152
314.912
314.532
314.369
314.077
308.554
308.666
308.917
308.981
309.222
309.26
309.349
309.327
309.511
309.48
309.44
309.377
309.317
309.316
309.127
309.068
308.953
308.726
308.627
308.452
302.864
302.904
302.979
303.023
303.101
303.083
303.134
303.13
303.195
303.179
303.153
303.142
303.112
303.134
303.06
303.041
302.997
302.932
302.874
302.834
344.737
345.693
346.353
347.15
348.131
348.642
349.009
349.165
349.486
349.572
349.431
349.121
349.016
348.591
348.088
347.466
346.676
345.656
344.629
343.803
338.497
339.277
339.859
340.488
341.376
341.859
342.103
342.278
342.568
342.618
342.473
342.207
342.137
341.787
341.351
340.825
340.214
339.313
338.428
337.721
332.371
333.013
333.554
334.042
334.8
335.161
335.349
335.555
335.797
335.82
335.701
335.464
335.43
335.178
334.789
334.327
333.832
333.097
332.365
331.765
326.356
326.866
327.337
327.732
328.323
328.634
328.783
328.932
329.161
329.152
329.028
328.877
328.867
328.658
328.331
327.95
327.537
326.935
326.387
325.857
320.451
320.817
321.189
321.483
321.924
322.22
322.316
322.455
322.582
322.54
322.458
322.381
322.365
322.217
321.971
321.667
321.375
320.904
320.453
320.08
314.595
314.856
315.116
315.296
315.617
315.838
315.912
315.957
316.084
316.076
315.987
315.942
315.936
315.827
315.675
315.455
315.307
314.893
314.584
314.356
308.777
308.918
309.104
309.187
309.382
309.516
309.537
309.542
309.621
309.65
309.584
309.564
309.562
309.486
309.405
309.284
309.152
308.927
308.741
308.65
302.939
302.982
303.052
303.092
303.139
303.178
303.194
303.201
303.211
303.245
303.228
303.183
303.193
303.172
303.147
303.114
303.06
302.979
302.921
302.896
345.492
346.207
347.253
348.014
348.91
349.714
350.049
350.077
350.327
350.424
350.446
350.112
349.911
349.505
349.27
348.489
347.598
346.651
345.59
344.538
339.124
339.746
340.621
341.231
342.063
342.78
343.032
343.065
343.255
343.33
343.345
343.107
342.947
342.578
342.426
341.722
340.995
340.189
339.284
338.397
332.918
333.369
334.164
334.614
335.355
335.963
336.224
336.186
336.344
336.458
336.483
336.259
336.147
335.821
335.675
335.114
334.489
333.787
333.1
332.332
326.819
327.126
327.821
328.136
328.8
329.219
329.498
329.445
329.592
329.724
329.734
329.487
329.425
329.187
329.069
328.615
328.103
327.524
327
326.394
320.829
321.009
321.584
321.792
322.317
322.625
322.863
322.797
322.977
323.05
323.057
322.83
322.797
322.623
322.519
322.176
321.82
321.354
320.918
320.491
314.863
314.961
315.389
315.53
315.925
316.068
316.318
316.195
316.394
316.427
316.417
316.213
316.204
316.112
316.021
315.804
315.534
315.224
314.872
314.574
308.932
309.002
309.231
309.294
309.55
309.618
309.81
309.675
309.878
309.858
309.845
309.708
309.668
309.696
309.597
309.485
309.309
309.116
308.899
308.701
302.98
303.027
303.096
303.124
303.199
303.21
303.293
303.243
303.329
303.313
303.281
303.256
303.25
303.241
303.212
303.184
303.132
303.053
302.965
302.911
346.363
346.934
348.15
348.81
349.715
350.458
350.782
351.084
351.254
351.359
351.55
351.078
350.843
350.711
350.039
349.256
348.437
347.39
346.313
345.422
339.887
340.346
341.413
341.952
342.76
343.382
343.701
343.905
344.069
344.168
344.359
343.893
343.701
343.638
343.071
342.371
341.681
340.802
339.868
339.089
333.518
333.935
334.861
335.275
335.945
336.468
336.695
336.906
337.052
337.132
337.293
336.846
336.711
336.703
336.239
335.605
335.02
334.347
333.55
332.899
327.275
327.64
328.409
328.757
329.281
329.638
329.882
330.064
330.156
330.249
330.378
329.962
329.87
329.871
329.53
328.98
328.44
327.953
327.365
326.806
321.171
321.421
322.033
322.281
322.685
322.967
323.194
323.3
323.333
323.417
323.569
323.153
323.149
323.144
322.839
322.42
321.958
321.657
321.221
320.754
315.119
315.246
315.721
315.862
316.137
316.371
316.524
316.578
316.619
316.643
316.798
316.437
316.498
316.491
316.263
315.954
315.591
315.464
315.154
314.785
309.088
309.116
309.431
309.499
309.649
309.802
309.923
309.914
309.98
309.944
310.071
309.814
309.884
309.894
309.733
309.502
309.32
309.31
309.097
308.867
303.07
303.045
303.161
303.178
303.238
303.281
303.338
303.317
303.356
303.326
303.392
303.306
303.318
303.316
303.265
303.164
303.133
303.125
303.063
302.953
346.855
347.632
348.707
349.486
350.445
351.135
351.419
351.884
352.053
352.164
352.349
351.915
351.723
351.209
350.764
350.067
349.176
348.219
347.025
345.888
340.281
340.966
341.881
342.528
343.358
343.963
344.223
344.582
344.815
344.862
345.018
344.595
344.483
344.058
343.689
343.117
342.266
341.525
340.436
339.491
333.83
334.449
335.239
335.76
336.442
336.904
337.155
337.45
337.713
337.697
337.853
337.43
337.383
337.072
336.786
336.286
335.545
334.961
333.995
333.215
327.566
328.045
328.751
329.127
329.674
329.985
330.226
330.473
330.706
330.679
330.816
330.458
330.401
330.196
329.954
329.567
328.905
328.492
327.681
326.979
321.36
321.76
322.311
322.585
322.96
323.191
323.423
323.628
323.795
323.807
323.886
323.591
323.508
323.401
323.201
322.923
322.36
322.061
321.462
320.849
315.191
315.541
315.901
316.16
316.344
316.524
316.667
316.829
316.954
316.978
316.987
316.799
316.734
316.696
316.529
316.339
315.938
315.728
315.293
314.824
309.054
309.318
309.554
309.736
309.798
309.899
309.977
310.05
310.161
310.181
310.178
310.022
310.052
310.044
309.893
309.806
309.516
309.422
309.165
308.834
303.035
303.119
303.192
303.278
303.308
303.304
303.33
303.353
303.41
303.401
303.404
303.339
303.358
303.368
303.32
303.291
303.166
303.146
303.078
302.955
347.41
348.301
349.373
350.37
351.041
351.792
352.078
352.545
353.051
353.149
353.111
352.733
352.539
351.861
351.554
350.845
349.914
348.791
347.95
346.515
340.765
341.538
342.477
343.302
343.878
344.531
344.772
345.194
345.625
345.754
345.682
345.344
345.148
344.614
344.329
343.785
342.936
341.995
341.307
340.073
334.321
334.915
335.733
336.398
336.925
337.413
337.663
338.011
338.358
338.494
338.415
338.093
337.965
337.493
337.263
336.798
336.091
335.324
334.759
333.783
327.994
328.441
329.039
329.612
330.103
330.439
330.716
330.972
331.221
331.337
331.273
330.99
330.885
330.5
330.308
329.971
329.334
328.758
328.314
327.545
321.721
322.064
322.488
322.912
323.327
323.624
323.839
324.015
324.21
324.308
324.224
323.975
323.878
323.599
323.483
323.213
322.725
322.253
321.992
321.338
315.493
315.723
316.018
316.337
316.606
316.871
316.974
317.092
317.249
317.295
317.259
317.054
317.003
316.826
316.736
316.508
316.193
315.853
315.702
315.2
309.332
309.397
309.602
309.805
309.903
310.133
310.174
310.234
310.317
310.355
310.354
310.211
310.183
310.067
310.046
309.901
309.709
309.526
309.437
309.108
303.142
303.148
303.202
303.294
303.321
303.39
303.416
303.42
303.464
303.474
303.445
303.404
303.412
303.369
303.368
303.322
303.236
303.174
303.174
303.048
348.005
348.801
349.882
350.982
351.58
352.33
352.745
353.17
353.447
353.494
353.692
353.375
353.142
352.597
352.093
351.344
350.454
349.268
348.435
347.436
341.315
341.937
342.884
343.821
344.366
344.977
345.354
345.708
345.965
346.017
346.181
345.884
345.72
345.267
344.824
344.189
343.437
342.373
341.721
340.928
334.767
335.273
336.091
336.83
337.259
337.794
338.125
338.431
338.642
338.729
338.815
338.543
338.504
338.061
337.648
337.208
336.516
335.613
335.166
334.479
328.334
328.692
329.38
329.966
330.334
330.715
331.012
331.254
331.456
331.577
331.563
331.341
331.358
330.96
330.621
330.264
329.734
328.988
328.697
328.125
321.986
322.214
322.788
323.202
323.484
323.797
323.965
324.21
324.391
324.459
324.399
324.26
324.33
323.988
323.748
323.43
323.019
322.465
322.261
321.804
315.712
315.81
316.251
316.547
316.754
316.898
317.027
317.234
317.382
317.372
317.348
317.309
317.339
317.11
316.923
316.685
316.375
316
315.883
315.555
309.424
309.478
309.797
309.931
310.05
310.093
310.223
310.341
310.425
310.414
310.41
310.388
310.395
310.267
310.161
310.001
309.813
309.625
309.497
309.356
303.16
303.182
303.287
303.339
303.377
303.396
303.43
303.481
303.508
303.483
303.472
303.474
303.49
303.433
303.415
303.348
303.277
303.241
303.18
303.124
348.355
349.299
350.315
351.342
352.253
352.835
353.271
353.788
353.614
353.935
354.102
354.044
353.664
353.047
352.544
351.786
350.779
349.736
348.912
347.693
341.594
342.372
343.252
344.17
344.953
345.447
345.786
346.246
346.109
346.402
346.529
346.506
346.145
345.656
345.23
344.564
343.708
342.798
342.133
341.112
334.991
335.637
336.362
337.12
337.793
338.211
338.477
338.867
338.794
339.047
339.103
339.088
338.835
338.403
338.096
337.514
336.807
336.025
335.499
334.599
328.464
329.015
329.606
330.244
330.776
331.103
331.325
331.64
331.598
331.78
331.836
331.791
331.664
331.263
331.026
330.568
329.973
329.349
328.999
328.188
322.024
322.479
322.965
323.441
323.861
324.101
324.261
324.545
324.487
324.61
324.697
324.615
324.58
324.248
324.051
323.652
323.229
322.797
322.481
321.874
315.694
315.987
316.334
316.734
317.019
317.183
317.252
317.518
317.474
317.532
317.623
317.583
317.568
317.261
317.13
316.846
316.567
316.282
316.047
315.601
309.369
309.564
309.791
310.08
310.188
310.3
310.3
310.515
310.47
310.509
310.575
310.507
310.559
310.317
310.271
310.114
309.926
309.786
309.61
309.339
303.133
303.214
303.287
303.391
303.405
303.452
303.447
303.506
303.503
303.517
303.543
303.509
303.537
303.427
303.453
303.366
303.341
303.26
303.199
303.126
348.629
349.567
350.464
351.667
352.475
353.162
353.52
354.209
354.18
354.506
354.371
354.28
353.873
353.397
352.911
352.109
351.115
350.055
349.21
348.28
341.793
342.622
343.344
344.422
345.146
345.726
346.012
346.59
346.584
346.867
346.759
346.676
346.341
345.967
345.525
344.826
344.003
343.027
342.4
341.62
335.148
335.837
336.394
337.384
337.955
338.461
338.655
339.166
339.177
339.396
339.296
339.253
338.958
338.7
338.284
337.673
337.042
336.155
335.691
335.054
328.621
329.14
329.649
330.462
330.916
331.292
331.462
331.858
331.897
332.055
331.987
331.969
331.712
331.534
331.19
330.645
330.208
329.44
329.044
328.558
322.186
322.534
322.967
323.612
323.95
324.252
324.402
324.696
324.709
324.838
324.785
324.75
324.616
324.453
324.173
323.755
323.443
322.821
322.492
322.116
315.81
316.025
316.351
316.847
317.026
317.288
317.385
317.612
317.607
317.662
317.655
317.638
317.555
317.441
317.274
316.946
316.733
316.259
316.029
315.775
309.474
309.613
309.822
310.104
310.191
310.365
310.411
310.568
310.538
310.572
310.578
310.61
310.495
310.458
310.36
310.152
310.061
309.754
309.598
309.498
303.161
303.243
303.285
303.388
303.402
303.461
303.486
303.544
303.522
303.526
303.534
303.564
303.509
303.522
303.494
303.401
303.379
303.262
303.222
303.2
348.676
349.397
350.764
351.859
352.722
353.172
353.808
354.304
354.24
354.705
354.804
354.535
354.301
353.701
353.167
352.234
351.463
350.289
349.331
348.479
341.842
342.416
343.631
344.562
345.372
345.739
346.232
346.683
346.626
347.072
347.138
346.881
346.662
346.188
345.781
344.954
344.306
343.247
342.41
341.728
335.148
335.628
336.659
337.436
338.172
338.42
338.829
339.237
339.246
339.55
339.651
339.381
339.187
338.883
338.544
337.831
337.296
336.347
335.622
335.11
328.533
328.931
329.827
330.464
331.108
331.222
331.576
331.948
331.954
332.18
332.309
332.037
331.832
331.652
331.37
330.862
330.435
329.596
329.01
328.574
322.087
322.407
323.114
323.607
324.108
324.165
324.458
324.746
324.777
324.888
325.062
324.859
324.656
324.581
324.296
323.958
323.632
322.926
322.491
322.145
315.768
316.007
316.445
316.814
317.208
317.218
317.426
317.644
317.686
317.717
317.908
317.718
317.561
317.524
317.29
317.089
316.88
316.361
315.991
315.8
309.45
309.581
309.855
310.071
310.32
310.297
310.451
310.563
310.613
310.603
310.762
310.595
310.543
310.508
310.334
310.223
310.127
309.816
309.581
309.508
303.17
303.205
303.302
303.377
303.445
303.453
303.505
303.546
303.568
303.523
303.615
303.532
303.534
303.509
303.449
303.383
303.397
303.298
303.203
303.175
)
;

boundaryField
{
    hotSide
    {
        type            fixedGradient;
        gradient        nonuniform List<scalar> 
400
(
370.929
385.873
400.61
415.076
429.204
442.929
456.184
468.905
481.03
492.496
503.246
513.224
522.377
530.657
538.021
544.429
549.847
554.246
557.605
559.904
378.961
394.336
409.505
424.4
438.953
453.096
466.762
479.885
492.398
504.24
515.349
525.668
535.143
543.725
551.366
558.028
563.675
568.276
571.808
574.252
385.974
401.741
417.302
432.587
447.528
462.054
476.097
489.587
502.458
514.644
526.085
536.719
546.493
555.354
563.255
570.154
576.015
580.807
584.504
587.088
391.946
408.063
423.974
439.609
454.898
469.768
484.148
497.97
511.163
523.662
535.403
546.325
556.37
565.487
573.626
580.744
586.804
591.773
595.625
598.342
396.867
413.288
429.505
445.447
461.04
476.212
490.891
505.005
518.483
531.259
543.267
554.445
564.733
574.079
582.432
589.748
595.988
601.119
605.115
607.955
400.731
417.41
433.887
450.089
465.942
481.372
496.306
510.671
524.396
537.411
549.65
561.049
571.55
581.096
589.637
597.128
603.529
608.806
612.931
615.884
403.541
420.43
437.118
453.533
469.599
485.242
500.387
514.959
528.888
542.102
554.535
566.121
576.8
586.516
595.218
602.858
609.398
614.801
619.04
622.093
405.305
422.354
439.204
455.783
472.014
487.821
503.13
517.866
531.955
545.327
557.914
569.649
580.472
590.326
599.158
606.922
613.576
619.086
623.422
626.562
406.036
423.193
440.156
456.848
473.194
489.117
504.543
519.395
533.601
547.087
559.786
571.632
582.563
592.52
601.452
609.311
616.056
621.65
626.064
629.277
405.748
422.963
439.986
456.74
473.151
489.141
504.635
519.556
533.832
547.389
560.159
572.075
583.076
593.103
602.102
610.027
616.836
622.492
626.965
630.234
404.46
421.68
438.711
455.476
471.901
487.907
503.42
518.363
532.662
546.245
559.043
570.989
582.022
592.082
601.116
609.078
615.923
621.617
626.129
629.437
402.19
419.364
436.351
453.075
469.462
485.435
500.917
515.833
530.109
543.673
556.456
568.391
579.416
589.473
598.51
606.476
613.332
619.04
623.57
626.9
398.957
416.033
432.925
449.558
465.856
481.744
497.146
511.987
526.194
539.693
552.418
564.301
575.28
585.299
594.303
602.245
609.082
614.78
619.307
622.642
394.783
411.71
428.455
444.945
461.105
476.859
492.133
506.851
520.941
534.332
546.955
558.745
569.641
579.584
588.523
596.409
603.202
608.864
613.368
616.689
389.689
406.416
422.965
439.262
455.234
470.805
485.902
500.451
514.38
527.618
540.098
551.755
562.528
572.361
581.202
589.003
595.723
601.328
605.786
609.077
383.697
400.176
416.48
432.536
448.271
463.612
478.485
492.819
506.542
519.585
531.881
543.366
553.981
563.669
572.38
580.066
586.688
592.211
596.605
599.849
376.832
393.016
409.027
424.795
440.247
455.311
469.917
483.991
497.466
510.272
522.344
533.62
544.041
553.551
562.102
569.646
576.144
581.563
585.873
589.054
369.121
384.965
400.638
416.072
431.197
445.941
460.235
474.008
487.194
499.724
511.535
522.566
532.759
542.06
550.421
557.796
564.148
569.441
573.65
576.752
360.594
376.054
391.347
406.405
421.159
435.542
449.484
462.917
475.774
487.992
499.506
510.258
520.192
529.255
537.399
544.581
550.763
555.912
560.002
563.012
351.285
366.321
381.193
395.835
410.18
424.162
437.714
450.769
463.263
475.134
486.319
496.761
506.406
515.203
523.105
530.071
536.063
541.05
545.007
547.912
)
;
    }
    coldSide
    {
        type            mixed;
        refValue        uniform 300;
        refGradient     uniform 0;
        valueFraction   uniform 0.991591;
        source          uniform 0;
        value           nonuniform List<scalar> 
400
(
300.018
300.018
300.019
300.02
300.02
300.021
300.022
300.022
300.023
300.023
300.024
300.025
300.025
300.026
300.026
300.026
300.027
300.026
300.027
300.027
300.018
300.019
300.019
300.02
300.021
300.022
300.022
300.023
300.023
300.024
300.024
300.025
300.025
300.026