/*--------------------------------*- C++ -*----------------------------------*\
| =========                 |                                                 |
| \\      /  F ield         | OpenFOAM: The Open Source CFD Toolbox           |
|  \\    /   O peration     | Version:  2212                                  |
|   \\  /    A nd           | Website:  www.openfoam.com                      |
|    \\/     M anipulation  |                                                 |
\*---------------------------------------------------------------------------*/
FoamFile
{
    version     2.0;
    format      ascii;
    arch        "LSB;label=32;scalar=64";
    class       volScalarField;
    location    "0";
    object      T;
}
// * * * * * * * * * * * * * * * * * * * * * * * * * * * * * * * * * * * * * //

dimensions      [0 0 0 1 0 0 0];

internalField   nonuniform List<scalar> 
3200
(
371.467
371.714
372.289
373.155
373.533
374.22
374.898
374.641
374.941
375.426
375.4
375.067
374.674
374.087
373.776
373.642
373.214
372.255
371.524
370.546
365.046
365.132
365.647
366.376
366.706
367.267
367.875
367.634
367.883
368.329
368.305
367.976
367.672
367.145
366.875
366.766
366.428
365.662
365.039
364.174
357.605
357.579
358.049
358.646
358.947
359.413
359.921
359.681
359.912
360.286
360.26
359.953
359.702
359.262
359.01
358.938
358.687
358.132
357.566
356.817
349.153
349.095
349.516
349.972
350.242
350.62
351.033
350.826
350.986
351.305
351.265
350.958
350.771
350.436
350.194
350.147
349.997
349.572
349.087
348.532
339.695
339.686
339.946
340.316
340.536
340.849
341.168
340.99
341.086
341.365
341.321
341.022
340.921
340.652
340.433
340.446
340.343
340.025
339.655
339.245
329.266
329.278
329.436
329.789
329.881
330.129
330.384
330.24
330.28
330.481
330.449
330.198
330.16
329.921
329.756
329.856
329.781
329.523
329.28
329.002
318.04
318.046
318.155
318.378
318.383
318.548
318.702
318.598
318.638
318.779
318.733
318.577
318.569
318.389
318.307
318.398
318.316
318.192
318.023
317.874
306.15
306.157
306.201
306.271
306.267
306.321
306.367
306.319
306.332
306.402
306.384
306.314
306.303
306.278
306.235
306.267
306.214
306.2
306.143
306.088
371.996
372.322
372.807
373.582
374.087
374.916
375.392
375.467
375.614
375.857
375.712
375.57
375.425
374.924
374.387
374.173
373.683
372.983
372.22
371.26
365.432
365.661
366.032
366.729
367.164
367.852
368.268
368.254
368.423
368.625
368.467
368.321
368.265
367.803
367.363
367.211
366.81
366.284
365.609
364.756
357.876
358.081
358.397
358.927
359.294
359.864
360.191
360.188
360.33
360.469
360.272
360.241
360.183
359.791
359.389
359.301
359.038
358.599
358.057
357.292
349.362
349.561
349.806
350.16
350.477
350.938
351.172
351.191
351.317
351.372
351.208
351.208
351.171
350.842
350.509
350.422
350.308
349.916
349.491
348.843
339.847
340.015
340.251
340.442
340.71
341.026
341.217
341.312
341.369
341.293
341.262
341.266
341.239
340.939
340.703
340.626
340.579
340.265
339.982
339.434
329.412
329.543
329.712
329.814
330.001
330.232
330.341
330.47
330.481
330.348
330.397
330.393
330.407
330.126
329.964
329.922
329.954
329.697
329.544
329.103
318.131
318.217
318.284
318.349
318.442
318.632
318.646
318.758
318.744
318.652
318.685
318.685
318.704
318.56
318.386
318.398
318.474
318.297
318.234
317.939
306.172
306.225
306.226
306.239
306.286
306.356
306.353
306.384
306.384
306.356
306.361
306.362
306.362
306.326
306.241
306.275
306.284
306.231
306.232
306.114
372.535
373.217
373.8
374.485
375.12
375.759
376.079
376.502
376.831
376.621
376.553
376.506
376.232
375.922
375.018
374.773
374.287
373.723
373.13
372.076
365.896
366.364
366.873
367.456
368.003
368.427
368.798
369.139
369.433
369.197
369.155
369.134
368.895
368.617
367.84
367.641
367.305
366.852
366.357
365.462
358.266
358.624
359.111
359.491
359.938
360.249
360.643
360.911
361.128
360.932
360.904
360.912
360.691
360.42
359.798
359.613
359.351
359.037
358.652
357.929
349.68
349.963
350.306
350.566
350.961
351.149
351.594
351.749
351.907
351.748
351.707
351.744
351.568
351.303
350.814
350.698
350.391
350.297
350.031
349.402
340.083
340.296
340.571
340.723
341.041
341.152
341.53
341.677
341.678
341.655
341.602
341.623
341.517
341.3
340.911
340.837
340.579
340.586
340.388
339.91
329.569
329.717
329.885
329.991
330.224
330.299
330.579
330.697
330.652
330.713
330.613
330.616
330.551
330.414
330.153
330.082
329.853
329.92
329.808
329.396
318.205
318.289
318.36
318.433
318.573
318.652
318.818
318.874
318.87
318.889
318.827
318.832
318.769
318.714
318.558
318.512
318.366
318.418
318.37
318.086
306.221
306.229
306.264
306.265
306.309
306.347
306.396
306.403
306.43
306.437
306.408
306.405
306.386
306.376
306.319
306.315
306.253
306.281
306.28
306.136
373.075
373.752
374.772
375.38
375.933
376.695
376.717
377.197
377.326
377.6
377.284
377.33
376.814
376.861
376.045
375.598
375.033
374.689
374.003
372.742
366.271
366.873
367.708
368.193
368.63
369.308
369.279
369.701
369.769
370.06
369.775
369.798
369.383
369.44
368.686
368.339
367.878
367.638
367.118
366.001
358.55
359.017
359.773
360.123
360.43
361.071
360.952
361.358
361.357
361.63
361.386
361.41
361.057
361.131
360.461
360.201
359.816
359.707
359.279
358.355
349.865
350.232
350.892
351.133
351.326
351.922
351.744
352.104
352.034
352.292
352.084
352.133
351.867
351.923
351.317
351.153
350.848
350.825
350.499
349.729
340.206
340.499
341.063
341.162
341.319
341.797
341.639
341.922
341.878
342.074
341.859
341.953
341.726
341.755
341.238
341.201
340.954
340.985
340.747
340.129
329.658
329.844
330.273
330.333
330.43
330.794
330.691
330.867
330.82
330.958
330.777
330.877
330.726
330.714
330.323
330.316
330.143
330.183
330.038
329.598
318.267
318.38
318.61
318.636
318.708
318.94
318.886
318.976
318.952
319.032
318.89
318.962
318.893
318.863
318.612
318.65
318.544
318.585
318.507
318.225
306.231
306.255
306.326
306.324
306.384
306.447
306.436
306.464
306.438
306.465
306.417
306.462
306.436
306.397
306.333
306.335
306.325
306.324
306.313
306.216
373.505
374.233
375.781
376.185
376.683
377.32
377.853
378.232
378.179
378.585
378.14
378.329
378.002
377.631
376.769
376.516
375.709
375.276
374.643
373.785
366.583
367.183
368.57
368.87
369.265
369.769
370.245
370.564
370.492
370.872
370.494
370.678
370.385
370.045
369.306
369.083
368.427
368.103
367.63
366.898
358.751
359.198
360.458
360.653
360.978
361.381
361.772
362.036
361.961
362.275
361.936
362.19
361.905
361.645
361.013
360.764
360.266
360.056
359.652
359.044
349.992
350.351
351.395
351.556
351.786
352.15
352.401
352.655
352.564
352.822
352.547
352.777
352.554
352.355
351.794
351.519
351.236
351.105
350.711
350.27
340.325
340.565
341.441
341.542
341.691
341.939
342.164
342.346
342.254
342.459
342.228
342.423
342.263
342.127
341.628
341.432
341.252
341.18
340.838
340.51
329.746
329.908
330.538
330.645
330.705
330.881
331.025
331.168
331.1
331.197
331.042
331.179
331.061
330.984
330.591
330.482
330.382
330.363
330.089
329.826
318.311
318.406
318.764
318.878
318.903
318.975
319.072
319.121
319.116
319.156
319.084
319.172
319.096
319.031
318.785
318.714
318.703
318.678
318.514
318.338
306.246
306.274
306.397
306.439
306.433
306.456
306.468
306.479
306.503
306.491
306.492
306.527
306.501
306.459
306.388
306.352
306.372
306.35
306.297
306.24
374.482
375.301
376.47
376.781
377.613
378.077
378.442
379.147
379.001
379.184
378.701
378.936
378.475
378.231
377.373
377.286
376.348
376.03
375.079
374.111
367.457
368.074
369.104
369.356
370.057
370.413
370.776
371.342
371.179
371.403
370.926
371.171
370.735
370.542
369.819
369.751
368.994
368.72
367.959
367.173
359.472
359.971
360.878
361.035
361.592
361.918
362.249
362.712
362.5
362.743
362.306
362.561
362.19
362.019
361.415
361.317
360.773
360.568
359.948
359.335
350.585
350.983
351.755
351.818
352.254
352.532
352.79
353.202
352.996
353.178
352.835
353.088
352.756
352.64
352.1
352.039
351.658
351.497
351.023
350.539
340.78
341.05
341.709
341.706
342.017
342.273
342.413
342.761
342.602
342.727
342.442
342.681
342.442
342.354
341.909
341.875
341.574
341.507
341.19
340.791
330.026
330.248
330.724
330.69
330.917
331.115
331.156
331.426
331.291
331.433
331.22
331.398
331.243
331.142
330.811
330.799
330.583
330.597
330.391
330.055
318.448
318.611
318.902
318.86
319.014
319.152
319.108
319.297
319.249
319.302
319.183
319.328
319.186
319.114
318.919
318.948
318.815
318.839
318.743
318.503
306.273
306.333
306.428
306.387
306.453
306.519
306.488
306.563
306.559
306.572
306.529
306.567
306.529
306.511
306.449
306.447
306.382
306.42
306.369
306.306
375.444
376.359
377.047
377.482
378.446
378.811
379.218
379.656
380.025
379.946
379.628
379.576
379.488
378.722
378.414
377.908
377.273
376.908
375.65
374.73
368.291
369.029
369.615
369.92
370.757
371.02
371.376
371.798
372.037
371.964
371.708
371.705
371.577
370.974
370.692
370.252
369.747
369.486
368.435
367.662
360.272
360.757
361.311
361.504
362.231
362.378
362.672
363.049
363.249
363.214
362.921
362.939
362.853
362.396
362.126
361.754
361.313
361.175
360.315
359.681
351.271
351.644
352.096
352.195
352.806
352.903
353.088
353.435
353.624
353.547
353.33
353.383
353.269
352.972
352.685
352.416
351.994
351.946
351.255
350.762
341.286
341.601
341.914
342.001
342.44
342.518
342.604
342.921
343.079
343.035
342.857
342.916
342.824
342.61
342.333
342.208
341.846
341.827
341.253
340.893
330.433
330.636
330.841
330.921
331.186
331.248
331.292
331.567
331.647
331.672
331.514
331.56
331.502
331.321
331.114
331.103
330.797
330.781
330.368
330.103
318.748
318.83
318.964
318.994
319.171
319.199
319.2
319.408
319.423
319.473
319.359
319.367
319.358
319.22
319.128
319.147
318.935
318.921
318.685
318.503
306.376
306.401
306.453
306.466
306.522
306.516
306.525
306.603
306.616
306.643
306.583
306.58
306.584
306.522
306.516
306.52
306.442
306.449
306.363
306.283
376.294
376.769
377.692
378.007
378.789
379.474
379.767
380.272
380.467
380.532
380.647
380.474
380.418
379.639
379.17
378.505
378.078
377.262
376.077
375.269
369.022
369.39
370.144
370.305
371.005
371.586
371.811
372.255
372.414
372.476
372.567
372.44
372.414
371.693
371.28
370.709
370.433
369.801
368.781
368.098
360.842
361.106
361.782
361.783
362.365
362.853
363.04
363.41
363.507
363.605
363.644
363.582
363.577
362.942
362.527
362.089
361.925
361.456
360.594
360.047
351.72
351.94
352.459
352.448
352.88
353.201
353.429
353.675
353.797
353.846
353.864
353.832
353.868
353.343
352.97
352.613
352.503
352.179
351.463
351.052
341.664
341.861
342.255
342.196
342.536
342.695
342.917
343.092
343.262
343.213
343.175
343.186
343.276
342.822
342.527
342.283
342.175
341.962
341.428
341.082
330.684
330.827
331.114
331.067
331.244
331.371
331.545
331.624
331.807
331.735
331.692
331.678
331.81
331.499
331.214
331.091
330.966
330.866
330.507
330.255
318.881
318.934
319.13
319.108
319.167
319.268
319.366
319.397
319.535
319.44
319.453
319.446
319.549
319.317
319.132
319.089
319.036
318.969
318.756
318.599
306.427
306.455
306.508
306.505
306.519
306.549
306.578
306.584
306.648
306.631
306.617
306.623
306.657
306.551
306.509
306.491
306.483
306.463
306.39
306.33
376.793
377.188
378.218
378.78
379.64
380.187
380.657
380.88
381.13
381.197
381.303
381.108
381.048
380.398
379.82
379.415
379.15
377.921
376.731
375.772
369.425
369.636
370.592
371.001
371.728
372.204
372.567
372.717
372.923
373.036
373.092
372.921
372.944
372.327
371.882
371.55
371.386
370.31
369.302
368.506
361.153
361.259
362.098
362.411
362.938
363.385
363.678
363.781
363.958
364.095
364.078
363.894
364.012
363.472
363.147
362.868
362.729
361.897
360.985
360.343
351.984
351.988
352.717
352.925
353.304
353.702
353.918
354.012
354.152
354.31
354.237
354.09
354.166
353.753
353.515
353.298
353.193
352.541
351.781
351.259
341.877
341.81
342.392
342.529
342.824
343.133
343.278
343.378
343.496
343.605
343.485
343.414
343.478
343.172
342.971
342.828
342.743
342.264
341.666
341.292
330.874
330.727
331.187
331.267
331.491
331.699
331.73
331.908
331.989
332.006
331.903
331.874
331.957
331.701
331.535
331.49
331.369
331.083
330.677
330.419
319.014
318.875
319.144
319.2
319.366
319.455
319.452
319.601
319.618
319.632
319.585
319.533
319.639
319.467
319.334
319.361
319.236
319.077
318.872
318.729
306.489
306.423
306.505
306.534
306.604
306.602
306.617
306.675
306.675
306.671
306.661
306.653
306.67
306.591
306.577
306.59
306.531
306.511
306.426
306.365
377.346
377.82
378.829
379.303
380.397
380.717
381.136
381.633
381.838
381.92
381.509
381.728
381.807
381.012
380.354
379.885
379.34
378.384
377.134
376.205
369.888
370.194
371.068
371.4
372.399
372.661
372.968
373.323
373.556
373.63
373.25
373.434
373.559
372.847
372.303
371.903
371.491
370.741
369.608
368.857
361.599
361.712
362.507
362.696
363.54
363.812
364
364.245
364.455
364.523
364.243
364.371
364.517
363.864
363.43
363.131
362.804
362.263
361.243
360.595
352.316
352.383
353.058
353.118
353.811
354.089
354.175
354.368
354.49
354.579
354.436
354.494
354.591
354.022
353.691
353.51
353.251
352.828
351.993
351.485
342.119
342.165
342.664
342.647
343.22
343.471
343.494
343.612
343.722
343.814
343.707
343.699
343.835
343.34
343.121
342.983
342.803
342.502
341.824
341.474
331.013
331.028
331.354
331.318
331.758
331.951
331.94
332.049
332.118
332.188
332.1
332.104
332.175
331.816
331.669
331.609
331.474
331.297
330.754
330.525
319.065
319.063
319.249
319.252
319.515
319.654
319.633
319.703
319.699
319.789
319.69
319.697
319.755
319.536
319.468
319.422
319.339
319.236
318.897
318.778
306.498
306.45
306.546
306.544
306.629
306.683
306.664
306.704
306.705
306.737
306.688
306.701
306.715
306.644
306.63
306.616
306.58
306.547
306.421
306.399
377.474
378.308
379.188
379.902
380.69
381.196
381.387
381.899
382.502
382.337
382.252
382.488
382.285
381.556
381.042
380.594
379.984
378.87
377.676
377.035
369.944
370.585
371.419
371.919
372.567
373.017
373.168
373.605
374.109
374.019
373.931
374.123
373.971
373.296
372.896
372.546
372.079
371.1
370.089
369.547
361.57
362.031
362.783
363.099
363.661
364.048
364.113
364.513
364.944
364.85
364.777
364.907
364.848
364.237
363.951
363.72
363.286
362.502
361.658
361.169
352.258
352.609
353.217
353.409
353.889
354.184
354.224
354.613
354.937
354.87
354.79
354.872
354.855
354.341
354.124
354.016
353.611
353.017
352.306
351.947
342.049
342.286
342.742
342.898
343.252
343.477
343.486
343.825
344.039
344.01
343.918
343.987
344.021
343.635
343.48
343.393
343.056
342.644
342.086
341.794
330.924
331.08
331.402
331.509
331.71
331.921
331.913
332.16
332.285
332.327
332.232
332.305
332.308
332.062
331.946
331.936
331.595
331.379
330.975
330.774
319.024
319.088
319.256
319.355
319.447
319.591
319.56
319.765
319.83
319.851
319.768
319.813
319.853
319.698
319.628
319.625
319.411
319.285
319.037
318.915
306.459
306.497
306.524
306.595
306.609
306.658
306.652
306.736
306.732
306.755
306.734
306.726
306.755
306.684
306.662
306.668
306.604
306.554
306.471
306.434
377.942
378.997
379.465
379.993
381.094
381.6
382.033
382.226
382.992
382.975
382.894
382.959
382.625
382.077
381.785
381.223
380.699
379.355
378.381
377.656
370.356
371.188
371.578
371.975
372.919
373.379
373.679
373.85
374.579
374.5
374.452
374.515
374.271
373.764
373.554
373.093
372.653
371.517
370.689
370.114
361.883
362.523
362.821
363.216
363.885
364.348
364.529
364.719
365.338
365.279
365.221
365.244
365.116
364.661
364.495
364.131
363.756
362.831
362.143
361.73
352.489
352.993
353.225
353.581
354.089
354.454
354.55
354.753
355.306
355.226
355.186
355.142
355.134
354.69
354.593
354.356
353.963
353.261
352.7
352.437
342.203
342.574
342.783
343.082
343.387
343.681
343.729
343.961
344.388
344.321
344.319
344.204
344.254
343.899
343.819
343.675
343.306
342.822
342.359
342.246
331.021
331.264
331.447
331.671
331.804
332.071
332.078
332.309
332.599
332.52
332.583
332.414
332.499
332.277
332.169
332.136
331.797
331.515
331.163
331.1
319.085
319.166
319.299
319.415
319.517
319.657
319.663
319.84
319.985
319.957
319.972
319.902
319.939
319.863
319.741
319.765
319.512
319.331
319.167
319.13
306.489
306.517
306.555
306.608
306.621
306.662
306.671
306.754
306.78
306.797
306.778
306.758
306.769
306.762
306.702
306.738
306.653
306.587
306.523
306.511
378.037
379.272
379.72
380.367
381.21
381.824
382.159
382.942
383.401
383.492
383.594
383.344
382.907
382.086
382.111
381.785
381.243
379.672
378.723
378.08
370.43
371.441
371.786
372.252
372.993
373.467
373.76
374.47
374.87
374.897
375.057
374.874
374.484
373.684
373.789
373.561
373.126
371.791
370.994
370.506
362.018
362.763
362.994
363.353
363.958
364.359
364.585
365.226
365.535
365.552
365.739
365.602
365.294
364.528
364.675
364.53
364.207
363.038
362.422
362.026
352.657
353.186
353.357
353.634
354.068
354.413
354.608
355.187
355.365
355.418
355.575
355.499
355.257
354.558
354.716
354.611
354.39
353.416
352.967
352.698
342.344
342.72
342.832
343.079
343.315
343.611
343.786
344.318
344.397
344.419
344.587
344.529
344.357
343.783
343.885
343.9
343.672
342.903
342.574
342.412
331.126
331.375
331.488
331.657
331.781
331.986
332.143
332.585
332.608
332.62
332.702
332.713
332.564
332.156
332.223
332.315
332.066
331.513
331.291
331.225
319.119
319.264
319.354
319.436
319.507
319.62
319.7
320.018
320.009
320.04
320.085
320.104
320.014
319.763
319.796
319.857
319.683
319.322
319.203
319.174
306.507
306.551
306.592
306.613
306.631
306.642
306.697
306.81
306.798
306.809
306.804
306.842
306.809
306.719
306.736
306.762
306.696
306.538
306.522
306.522
378.392
379.426
380.12
380.677
381.31
382.337
382.65
383.425
383.377
383.889
383.696
383.708
383.143
382.318
382.679
382.089
381.539
380.018
379.172
378.338
370.734
371.598
372.119
372.54
373.047
373.943
374.206
374.933
374.85
375.248
375.177
375.121
374.629
373.89
374.325
373.817
373.396
372.056
371.397
370.705
362.167
362.937
363.294
363.618
364.044
364.794
365.013
365.63
365.53
365.845
365.857
365.822
365.367
364.69
365.152
364.747
364.393
363.246
362.713
362.216
352.723
353.4
353.571
353.858
354.201
354.793
355.011
355.495
355.392
355.656
355.707
355.678
355.296
354.696
355.099
354.786
354.53
353.557
353.2
352.856
342.394
342.918
342.992
343.248
343.498
343.93
344.176
344.467
344.394
344.606
344.682
344.65
344.405
343.893
344.18
343.945
343.782
342.958
342.805
342.546
331.17
331.548
331.562
331.756
331.903
332.222
332.462
332.585
332.569
332.75
332.791
332.782
332.589
332.205
332.451
332.274
332.162
331.519
331.475
331.255
319.162
319.346
319.346
319.476
319.571
319.759
319.923
319.973
319.993
320.099
320.142
320.095
319.971
319.789
319.924
319.802
319.751
319.32
319.375
319.166
306.537
306.575
306.571
306.628
306.668
306.732
306.776
306.786
306.802
306.834
306.871
306.821
306.78
306.722
306.783
306.732
306.708
306.566
306.585
306.521
378.856
379.878
380.592
381.165
381.773
382.708
383.074
383.725
383.74
383.966
384.083
383.874
383.65
382.98
382.759
382.24
381.449
380.226
379.552
378.475
371.104
371.967
372.524
372.925
373.505
374.304
374.573
375.139
375.129
375.339
375.468
375.269
375.119
374.485
374.381
373.967
373.284
372.247
371.693
370.817
362.511
363.216
363.648
363.907
364.413
365.151
365.278
365.732
365.766
365.926
366.084
365.861
365.78
365.208
365.166
364.861
364.3
363.444
362.984
362.308
353.018
353.595
353.894
354.075
354.502
355.166
355.18
355.502
355.554
355.694
355.876
355.664
355.58
355.115
355.08
354.902
354.439
353.746
353.362
352.917
342.643
343.067
343.298
343.424
343.743
344.243
344.231
344.46
344.524
344.633
344.782
344.627
344.553
344.157
344.149
344.027
343.762
343.19
342.887
342.58
331.397
331.616
331.835
331.924
332.1
332.486
332.475
332.6
332.613
332.709
332.826
332.741
332.689
332.388
332.395
332.309
332.168
331.728
331.543
331.341
319.323
319.418
319.561
319.582
319.713
319.913
319.945
319.992
319.97
320.057
320.13
320.082
320.064
319.872
319.907
319.83
319.737
319.503
319.352
319.277
306.579
306.601
306.634
306.67
306.699
306.781
306.792
306.791
306.77
306.82
306.832
306.822
306.814
306.739
306.779
306.746
306.708
306.621
306.583
306.54
379.205
379.891
380.912
381.377
382.192
383.191
383.236
384.032
383.793
384.118
384.456
384.331
383.938
383.328
383.023
382.551
381.749
380.641
379.706
378.684
371.416
371.962
372.797
373.163
373.833
374.705
374.713
375.389
375.156
375.491
375.718
375.639
375.293
374.773
374.538
374.241
373.507
372.559
371.845
370.939
362.75
363.21
363.892
364.167
364.727
365.413
365.452
366.004
365.772
366.123
366.253
366.202
365.911
365.419
365.248
365.13
364.435
363.638
363.121
362.339
353.168
353.555
354.132
354.315
354.744
355.268
355.368
355.809
355.566
355.909
355.934
355.921
355.663
355.27
355.156
355.142
354.549
353.895
353.495
352.871
342.733
342.986
343.49
343.573
343.915
344.307
344.393
344.749
344.524
344.844
344.818
344.799
344.605
344.301
344.238
344.28
343.826
343.281
342.95
342.494
331.448
331.569
331.961
331.999
332.243
332.516
332.596
332.815
332.63
332.907
332.887
332.841
332.735
332.504
332.459
332.482
332.221
331.797
331.573
331.258
319.342
319.352
319.617
319.644
319.798
319.959
319.977
320.117
320.028
320.185
320.163
320.145
320.081
319.952
319.902
319.913
319.753
319.548
319.384
319.209
306.562
306.569
306.664
306.67
306.72
306.773
306.781
306.84
306.81
306.89
306.866
306.848
306.811
306.784
306.783
306.786
306.7
306.659
306.587
306.543
379.006
379.947
380.748
381.472
382.65
383.091
383.613
384.127
383.894
384.206
384.65
384.265
383.931
383.222
382.706
382.616
381.547
380.614
379.775
378.543
371.25
372.005
372.636
373.201
374.255
374.632
375.071
375.464
375.212
375.495
375.902
375.565
375.347
374.695
374.258
374.241
373.303
372.566
371.9
370.859
362.592
363.202
363.705
364.15
365.086
365.42
365.716
366.029
365.799
366.01
366.349
366.112
365.98
365.357
365.004
365.077
364.254
363.717
363.145
362.289
353.111
353.596
353.904
354.287
355.084
355.333
355.535
355.772
355.611
355.784
355.976
355.868
355.773
355.219
354.936
355.025
354.353
353.975
353.504
352.824
342.734
343.094
343.265
343.557
344.203
344.379
344.508
344.714
344.585
344.69
344.848
344.822
344.712
344.244
344.072
344.112
343.605
343.307
342.933
342.438
331.455
331.684
331.813
331.979
332.478
332.575
332.615
332.778
332.716
332.794
332.897
332.93
332.83
332.468
332.32
332.388
332.02
331.788
331.508
331.233
319.348
319.425
319.513
319.633
319.958
320
319.989
320.108
320.075
320.091
320.152
320.256
320.137
319.899
319.803
319.884
319.64
319.512
319.328
319.166
306.56
306.582
306.617
306.675
306.784
306.801
306.782
306.816
306.805
306.837
306.858
306.885
306.861
306.773
306.718
306.776
306.656
306.635
306.567
306.513
378.94
379.966
380.866
381.45
382.36
382.959
383.457
384.076
383.975
384.2
384.343
384.039
383.97
383.459
382.779
382.409
381.682
380.684
379.484
378.797
371.182
371.989
372.767
373.173
374.003
374.482
374.907
375.426
375.318
375.555
375.686
375.345
375.38
374.927
374.305
374.068
373.46
372.626
371.595
371.066
362.582
363.209
363.89
364.086
364.85
365.212
365.57
365.972
365.885
366.094
366.228
365.886
365.996
365.593
365.034
364.899
364.415
363.722
362.887
362.482
353.067
353.592
354.09
354.233
354.849
355.152
355.41
355.726
355.676
355.864
355.974
355.694
355.762
355.466
355.002
354.851
354.502
353.973
353.316
352.964
342.663
343.032
343.409
343.515
343.979
344.206
344.433
344.674
344.67
344.806
344.857
344.637
344.662
344.432
344.121
344.006
343.702
343.313
342.824
342.55
331.394
331.614
331.907
331.959
332.306
332.431
332.63
332.787
332.804
332.881
332.888
332.72
332.764
332.571
332.409
332.322
332.052
331.801
331.467
331.28
319.321
319.442
319.544
319.598
319.808
319.91
320.008
320.137
320.126
320.202
320.165
320.052
320.085
320.021
319.886
319.833
319.651
319.484
319.31
319.191
306.569
306.606
306.61
306.655
306.712
306.782
306.808
306.842
306.846
306.874
306.848
306.816
306.822
306.831
306.758
306.735
306.676
306.609
306.542
306.538
379.334
379.864
381.024
381.518
382.372
383.056
383.513
383.752
383.948
383.965
384.153
383.783
383.973
383.559
382.931
382.355
381.57
381.011
379.41
378.741
371.55
371.901
372.9
373.263
373.991
374.556
374.978
375.127
375.298
375.311
375.495
375.121
375.331
375.032
374.437
374.023
373.375
372.87
371.536
371.038
362.921
363.121
363.949
364.215
364.811
365.263
365.668
365.795
365.876
365.871
366.055
365.75
365.887
365.758
365.146
364.851
364.396
363.976
362.843
362.43
353.409
353.531
354.109
354.343
354.836
355.185
355.491
355.628
355.661
355.635
355.809
355.58
355.659
355.642
355.083
354.839
354.565
354.215
353.264
352.921
342.933
343.045
343.425
343.599
343.965
344.244
344.458
344.542
344.622
344.638
344.734
344.577
344.646
344.616
344.197
343.913
343.85
343.577
342.766
342.498
331.564
331.633
331.924
332.03
332.262
332.45
332.595
332.635
332.739
332.765
332.841
332.696
332.781
332.773
332.454
332.209
332.252
332.017
331.404
331.236
319.361
319.468
319.584
319.659
319.797
319.88
319.954
320.022
320.061
320.159
320.142
320.07
320.123
320.138
319.923
319.724
319.792
319.697
319.261
319.156
306.565
306.615
306.64
306.667
306.707
306.759
306.772
306.818
306.806
306.86
306.839
306.82
306.852
306.861
306.773
306.687
306.731
306.696
306.545
306.488
379.566
379.881
380.962
381.47
382.301
382.984
383.233
383.587
384.159
384.218
384.286
384.134
383.97
383.754
382.961
382.281
381.521
380.662
379.361
378.671
371.745
371.897
372.811
373.188
373.909
374.45
374.678
374.939
375.455
375.542
375.626
375.454
375.349
375.251
374.533
373.978
373.296
372.668
371.514
370.985
363.016
363.095
363.825
364.114
364.737
365.188
365.377
365.552
365.993
366.092
366.211
366.022
365.964
365.958
365.269
364.812
364.289
363.774
362.839
362.42
353.411
353.474
353.986
354.234
354.707
355.115
355.206
355.365
355.789
355.849
355.963
355.793
355.8
355.828
355.157
354.841
354.37
354.026
353.311
352.951
342.929
342.985
343.314
343.515
343.874
344.231
344.21
344.353
344.708
344.742
344.81
344.733
344.739
344.822
344.205
344.041
343.612
343.391
342.804
342.584
331.58
331.61
331.793
331.95
332.197
332.486
332.392
332.553
332.785
332.762
332.876
332.854
332.81
332.935
332.437
332.345
331.96
331.895
331.416
331.321
319.401
319.424
319.507
319.585
319.761
319.958
319.839
319.959
320.126
320.112
320.163
320.193
320.15
320.235
319.895
319.822
319.556
319.586
319.293
319.223
306.585
306.612
306.631
306.639
306.716
306.786
306.729
306.777
306.84
306.829
306.85
306.876
306.824
306.873
306.783
306.732
306.648
306.657
306.549
306.55
)
;

boundaryField
{
    hotSide
    {
        type            fixedGradient;
        gradient        nonuniform List<scalar> 
400
(
434.169
446.563
458.54
470.049
481.035
491.448
501.239
510.359
518.765
526.413
533.264
539.284
544.441
548.707
552.059
554.478
555.951
556.468
556.026
554.624
446.038
458.79
471.116
482.961
494.271
504.993
515.075
524.47
533.131
541.014
548.079
554.29
559.613
564.022
567.491
570.001
571.538
572.093
571.661
570.243
456.729
469.807
482.448
494.598
506.201
517.202
527.55
537.194
546.087
554.183
561.443
567.827
573.303
577.842
581.419
584.013
585.61
586.201
585.781
584.349
466.175
479.541
492.463
504.884
516.747
527.997
538.581
548.447
557.546
565.833
573.266
579.806
585.419
590.074
593.748
596.418
598.07
598.695
598.286
596.844
474.317
487.932
501.097
513.753
525.842
537.308
548.097
558.155
567.434
575.888
583.472
590.147
595.879
600.638
604.396
607.134
608.835
609.49
609.092
607.644
481.105
494.929
508.298
521.151
533.43
545.078
556.039
566.26
575.69
584.283
591.995
598.785
604.619
609.464
613.295
616.091
617.834
618.516
618.13
616.677
486.501
500.493
514.025
527.036
539.467
551.26
562.36
572.711
582.264
590.969
598.784
605.667
611.583
616.499
620.39
623.233
625.012
625.716
625.34
623.885
490.476
504.592
518.246
531.375
543.919
555.821
567.024
577.473
587.117
595.907
603.8
610.753
616.731
621.701
625.637
628.516
630.323
631.046
630.679
629.224
493.009
507.207
520.939
534.144
546.763
558.736
570.006
580.519
590.224
599.07
607.014
614.014
620.034
625.04
629.007
631.912
633.738
634.475
634.116
632.662
494.09
508.324
522.092
535.333
547.985
559.991
571.293
581.836
591.569
600.442
608.411
615.434
621.475
626.5
630.483
633.402
635.239
635.985
635.632
634.182
493.717
507.943
521.703
534.937
547.583
559.583
570.88
581.42
591.149
600.02
607.987
615.009
621.049
626.075
630.059
632.98
634.821
635.57
635.222
633.777
491.895
506.068
519.778
532.963
545.563
557.519
568.775
579.276
588.97
597.809
605.747
612.744
618.763
623.772
627.743
630.654
632.489
633.236
632.891
631.453
488.638
502.715
516.331
529.426
541.94
553.815
564.993
575.422
585.05
593.827
601.711
608.659
614.636
619.609
623.551
626.441
628.262
629.003
628.658
627.228
483.969
497.906
511.387
524.352
536.74
548.496
559.562
569.885
579.415
588.103
595.905
602.782
608.696
613.616
617.516
620.373
622.172
622.901
622.555
621.134
477.918
491.673
504.978
517.772
529.998
541.598
552.517
562.702
572.104
580.675
588.371
595.152
600.984
605.834
609.677
612.49
614.259
614.972
614.623
613.214
470.523
484.056
497.145
509.731
521.756
533.166
543.904
553.921
563.165
571.592
579.157
585.822
591.552
596.316
600.088
602.847
604.578
605.27
604.918
603.521
461.833
475.104
487.939
500.279
512.069
523.254
533.781
543.598
552.658
560.914
568.326
574.853
580.463
585.125
588.814
591.509
593.196
593.862
593.505
592.123
451.902
464.874
477.418
489.479
501
511.929
522.213
531.803
540.651
548.714
555.949
562.32
567.792
572.338
575.932
578.554
580.188
580.826
580.463
579.098
440.794
453.432
465.652
477.4
488.621
499.263
509.277
518.613
527.225
535.071
542.11
548.305
553.625
558.041
561.528
564.068
565.646
566.252
565.882
564.536
428.583
440.854
452.718
464.122
475.014
485.343
495.06
504.117
512.471
520.079
526.902
532.906
538.058
542.332
545.703
548.154
549.67
550.241
549.864
548.539
)
;
    }
    coldSide
    {
        type            mixed;
        refValue        uniform 300;
        refGradient     uniform 0;
        valueFraction   uniform 0.991591;
        source          uniform 0;
        value           nonuniform List<scalar> 
400
(
300.052
300.052
300.052
300.052
300.053
300.053
300.054
300.054
300.055
300.055
300.054
300.055
300.055
300.055
300.055
300.055
300.055
300.055
300.055
300.055
300.052
300.052
300.052
300.053
300.053
300.053
300.054
300.054
300.054
300.054
300.055
300.055
300.055
300.055
300.056
300.055
300.055