/*--------------------------------*- C++ -*----------------------------------*\
| =========                 |                                                 |
| \\      /  F ield         | OpenFOAM: The Open Source CFD Toolbox           |
|  \\    /   O peration     | Version:  2212                                  |
|   \\  /    A nd           | Website:  www.openfoam.com                      |
|    \\/     M anipulation  |                                                 |
\*---------------------------------------------------------------------------*/
FoamFile
{
    version     2.0;
    format      ascii;
    arch        "LSB;label=32;scalar=64";
    class       volScalarField;
    location    "0";
    object      T;
}
// * * * * * * * * * * * * * * * * * * * * * * * * * * * * * * * * * * * * * //

dimensions      [0 0 0 1 0 0 0];

internalField   nonuniform List<scalar> 
3200
(
354.386
353.016
352.051
351.674
352.117
352.873
353.709
354.475
355.304
355.599
355.678
355.507
354.861
354.144
352.944
352.16
351.617
351.664
352.443
353.807
347.015
345.861
345.074
344.743
345.11
345.803
346.515
347.211
347.936
348.18
348.243
348.103
347.546
346.943
345.883
345.22
344.761
344.791
345.46
346.564
339.71
338.734
338.118
337.859
338.136
338.747
339.367
339.949
340.555
340.749
340.802
340.711
340.242
339.743
338.827
338.264
337.904
337.922
338.466
339.365
332.445
331.661
331.16
330.972
331.175
331.703
332.204
332.68
333.171
333.355
333.354
333.29
332.914
332.529
331.767
331.309
331.031
331.043
331.458
332.18
325.234
324.612
324.2
324.086
324.255
324.658
325.051
325.402
325.796
325.955
325.9
325.903
325.601
325.326
324.715
324.343
324.15
324.175
324.456
325.011
318.044
317.568
317.297
317.222
317.33
317.63
317.917
318.131
318.425
318.532
318.491
318.503
318.281
318.107
317.663
317.376
317.27
317.274
317.479
317.877
310.833
310.532
310.372
310.356
310.402
310.601
310.771
310.876
311.06
311.122
311.097
311.107
310.976
310.878
310.613
310.427
310.378
310.373
310.505
310.738
303.628
303.527
303.464
303.481
303.484
303.548
303.609
303.641
303.704
303.734
303.727
303.717
303.687
303.652
303.562
303.504
303.484
303.479
303.52
303.607
354.625
353.208
352.295
352.123
352.484
353.183
354.193
355.198
355.902
356.236
356.495
356.254
355.578
354.771
353.661
352.611
352.025
351.962
352.938
354.194
347.241
346.034
345.287
345.135
345.462
346.075
346.946
347.801
348.417
348.703
348.909
348.718
348.134
347.475
346.511
345.604
345.096
345.054
345.88
346.904
339.935
338.907
338.304
338.185
338.437
338.965
339.694
340.408
340.934
341.191
341.352
341.192
340.706
340.163
339.346
338.594
338.176
338.138
338.809
339.654
332.667
331.806
331.308
331.262
331.438
331.872
332.445
333.03
333.464
333.7
333.816
333.704
333.286
332.881
332.18
331.567
331.262
331.204
331.756
332.422
325.407
324.728
324.358
324.313
324.45
324.799
325.225
325.675
326.036
326.232
326.289
326.204
325.882
325.58
325.035
324.547
324.335
324.286
324.715
325.217
318.145
317.663
317.409
317.393
317.478
317.74
318.013
318.327
318.631
318.732
318.809
318.699
318.492
318.284
317.907
317.536
317.4
317.365
317.669
318.018
310.909
310.608
310.47
310.452
310.503
310.677
310.805
311.013
311.197
311.228
311.298
311.208
311.11
310.991
310.771
310.543
310.432
310.424
310.604
310.832
303.665
303.556
303.523
303.505
303.53
303.586
303.619
303.695
303.753
303.748
303.785
303.754
303.726
303.689
303.609
303.54
303.488
303.493
303.552
303.626
355.242
353.768
352.857
352.647
353.223
353.916
355.055
356.037
356.8
357.358
357.616
357.251
356.702
355.789
354.58
353.461
352.918
352.785
353.65
354.833
347.803
346.553
345.777
345.6
346.096
346.681
347.676
348.53
349.167
349.66
349.878
349.593
349.099
348.314
347.294
346.315
345.859
345.741
346.47
347.463
340.418
339.406
338.736
338.576
338.975
339.485
340.33
341.039
341.589
341.997
342.168
341.966
341.52
340.852
340.014
339.192
338.829
338.722
339.314
340.124
333.038
332.272
331.708
331.564
331.896
332.312
332.99
333.554
334.027
334.358
334.467
334.331
333.969
333.415
332.723
332.081
331.782
331.695
332.161
332.793
325.671
325.115
324.676
324.54
324.796
325.141
325.659
326.078
326.469
326.715
326.797
326.697
326.406
325.975
325.444
324.977
324.722
324.668
325.028
325.499
318.326
317.943
317.653
317.542
317.712
317.948
318.332
318.645
318.905
319.096
319.147
319.062
318.868
318.567
318.172
317.872
317.653
317.63
317.901
318.207
311
310.758
310.612
310.545
310.635
310.762
311.01
311.2
311.355
311.475
311.485
311.458
311.33
311.152
310.896
310.748
310.606
310.587
310.755
310.934
303.688
303.599
303.564
303.543
303.574
303.602
303.695
303.756
303.815
303.836
303.85
303.84
303.797
303.749
303.66
303.602
303.556
303.549
303.598
303.666
355.999
354.695
353.674
353.619
354.099
355.103
356.111
357.118
358.077
358.71
358.997
358.733
358.197
356.974
355.846
354.651
354.043
353.828
354.558
355.731
348.444
347.343
346.492
346.45
346.845
347.718
348.557
349.446
350.271
350.824
351.087
350.834
350.405
349.344
348.372
347.36
346.842
346.649
347.283
348.242
340.921
340.034
339.308
339.293
339.61
340.349
341.037
341.803
342.489
342.984
343.19
342.972
342.639
341.735
340.924
340.064
339.644
339.483
339.995
340.779
333.434
332.747
332.163
332.157
332.381
333.005
333.553
334.182
334.724
335.169
335.332
335.112
334.872
334.142
333.496
332.767
332.442
332.314
332.701
333.345
325.978
325.467
325.02
325
325.2
325.68
326.085
326.596
327.006
327.345
327.509
327.302
327.104
326.563
326.05
325.474
325.249
325.138
325.457
325.927
318.553
318.2
317.894
317.861
318.03
318.363
318.63
319.001
319.292
319.531
319.645
319.49
319.362
318.989
318.614
318.2
318.056
317.954
318.202
318.488
311.149
310.932
310.758
310.727
310.833
311.02
311.192
311.405
311.578
311.727
311.802
311.702
311.643
311.401
311.171
310.935
310.836
310.782
310.927
311.093
303.737
303.666
303.61
303.594
303.637
303.685
303.755
303.827
303.878
303.93
303.949
303.92
303.905
303.816
303.747
303.666
303.638
303.618
303.665
303.721
357.028
355.658
354.851
354.757
355.213
356.176
357.37
358.532
359.632
360.339
360.596
360.381
359.708
358.488
357.312
356.14
355.46
355.313
355.962
357.14
349.308
348.184
347.482
347.419
347.808
348.65
349.68
350.677
351.593
352.233
352.462
352.257
351.695
350.639
349.633
348.621
348.086
347.937
348.506
349.466
341.633
340.745
340.161
340.122
340.427
341.144
341.995
342.849
343.599
344.169
344.35
344.151
343.691
342.823
341.946
341.116
340.681
340.557
341.05
341.814
334.017
333.299
332.859
332.829
333.067
333.635
334.332
335.04
335.636
336.092
336.265
336.097
335.714
335.028
334.29
333.62
333.278
333.179
333.578
334.191
326.435
325.887
325.553
325.537
325.721
326.156
326.674
327.248
327.7
328.042
328.2
328.043
327.773
327.247
326.668
326.128
325.886
325.817
326.12
326.576
318.867
318.479
318.28
318.237
318.396
318.68
319.066
319.487
319.772
320.028
320.152
320.014
319.835
319.479
319.053
318.655
318.481
318.465
318.653
318.976
311.324
311.098
310.985
310.949
311.047
311.219
311.454
311.711
311.871
312.025
312.09
312.009
311.928
311.701
311.436
311.205
311.085
311.097
311.199
311.394
303.799
303.709
303.682
303.665
303.7
303.758
303.85
303.92
303.986
304.031
304.056
304.022
304.005
303.924
303.829
303.759
303.717
303.723
303.748
303.817
358.38
356.984
356.297
356.163
356.648
357.529
358.794
360.078
361.168
361.982
362.215
362.147
361.395
360.236
358.91
357.826
357.13
356.922
357.533
358.688
350.481
349.338
348.765
348.617
349.026
349.826
350.898
352.008
352.94
353.654
353.81
353.819
353.149
352.141
351.006
350.087
349.514
349.323
349.826
350.794
342.65
341.731
341.234
341.121
341.444
342.125
343.03
343.971
344.756
345.351
345.459
345.497
344.932
344.051
343.119
342.354
341.889
341.72
342.13
342.945
334.866
334.125
333.715
333.647
333.888
334.451
335.189
335.94
336.591
337.074
337.174
337.207
336.728
336.013
335.259
334.663
334.252
334.133
334.481
335.117
327.099
326.551
326.228
326.152
326.337
326.797
327.353
327.935
328.44
328.828
328.902
328.934
328.547
327.997
327.41
326.979
326.638
326.556
326.821
327.315
319.341
318.991
318.739
318.672
318.798
319.152
319.54
319.965
320.307
320.591
320.636
320.672
320.379
319.983
319.579
319.283
319.021
318.989
319.167
319.512
311.593
311.418
311.239
311.21
311.283
311.504
311.734
311.986
312.202
312.38
312.379
312.417
312.234
312
311.766
311.603
311.42
311.425
311.515
311.717
303.87
303.839
303.757
303.76
303.783
303.858
303.928
304.019
304.082
304.142
304.151
304.155
304.101
304.014
303.944
303.893
303.833
303.833
303.859
303.915
359.74
358.541
357.822
357.705
358.109
359.002
360.275
361.509
362.736
363.653
364.017
363.975
363.247
362.058
360.806
359.783
358.989
358.787
359.355
360.335
351.68
350.683
350.068
349.975
350.315
351.074
352.193
353.241
354.289
355.068
355.42
355.391
354.766
353.724
352.634
351.784
351.096
350.925
351.398
352.247
343.669
342.85
342.331
342.255
342.547
343.179
344.122
345.014
345.879
346.544
346.852
346.807
346.316
345.421
344.502
343.798
343.199
343.074
343.453
344.186
335.689
335.051
334.607
334.528
334.799
335.325
336.082
336.819
337.495
338.046
338.298
338.238
337.86
337.135
336.386
335.829
335.325
335.204
335.542
336.145
327.737
327.27
326.895
326.837
327.057
327.508
328.048
328.63
329.115
329.6
329.765
329.716
329.419
328.868
328.275
327.858
327.469
327.367
327.629
328.118
319.811
319.479
319.206
319.148
319.326
319.665
320.035
320.452
320.802
321.167
321.249
321.225
321.029
320.637
320.207
319.903
319.621
319.538
319.729
320.088
311.891
311.707
311.54
311.481
311.613
311.831
312.018
312.296
312.488
312.711
312.746
312.751
312.626
312.406
312.126
311.935
311.786
311.727
311.835
312.058
303.98
303.921
303.864
303.848
303.887
303.968
304.03
304.124
304.191
304.254
304.273
304.282
304.234
304.16
304.064
303.994
303.947
303.927
303.965
304.039
361.258
360.253
359.46
359.421
359.865
360.689
361.956
363.153
364.452
365.52
365.914
365.845
365.107
364.07
362.744
361.608
360.968
360.781
361.302
362.346
352.979
352.152
351.45
351.452
351.837
352.509
353.632
354.642
355.781
356.685
357.015
356.975
356.363
355.504
354.314
353.34
352.821
352.646
353.092
353.955
344.761
344.067
343.499
343.511
343.831
344.398
345.329
346.187
347.122
347.916
348.202
348.156
347.646
346.923
345.907
345.106
344.665
344.519
344.914
345.608
336.575
336.024
335.561
335.595
335.857
336.298
337.053
337.755
338.507
339.172
339.4
339.384
338.957
338.37
337.523
336.893
336.545
336.381
336.749
337.283
328.422
328.009
327.647
327.697
327.915
328.238
328.798
329.353
329.944
330.47
330.609
330.613
330.276
329.828
329.172
328.678
328.416
328.257
328.59
328.98
320.305
319.99
319.754
319.814
319.945
320.164
320.566
320.971
321.387
321.781
321.837
321.864
321.618
321.304
320.86
320.477
320.306
320.171
320.424
320.685
312.19
311.988
311.857
311.917
311.976
312.095
312.363
312.595
312.839
313.081
313.101
313.143
312.975
312.806
312.539
312.294
312.202
312.122
312.271
312.415
304.082
304.011
303.975
304.002
304.013
304.053
304.149
304.214
304.296
304.389
304.384
304.408
304.338
304.29
304.205
304.118
304.088
304.061
304.126
304.161
362.855
362.161
361.273
361.247
361.643
362.549
363.662
364.896
366.165
367.292
367.792
367.602
366.878
365.914
364.656
363.592
362.995
362.805
363.321
364.291
354.344
353.793
353.027
353.015
353.38
354.147
355.113
356.166
357.255
358.242
358.646
358.482
357.852
357.057
355.984
355.073
354.534
354.371
354.829
355.65
345.898
345.477
344.821
344.812
345.15
345.772
346.571
347.467
348.391
349.222
349.535
349.415
348.869
348.209
347.344
346.585
346.106
345.982
346.367
347.046
337.496
337.189
336.646
336.632
336.951
337.425
338.06
338.799
339.547
340.26
340.497
340.402
339.946
339.386
338.717
338.115
337.724
337.587
337.902
338.482
329.154
328.907
328.5
328.481
328.743
329.107
329.598
330.153
330.755
331.329
331.483
331.419
331.072
330.607
330.085
329.648
329.351
329.213
329.465
329.916
320.823
320.641
320.357
320.363
320.515
320.794
321.138
321.545
321.977
322.375
322.492
322.432
322.187
321.857
321.468
321.189
320.973
320.866
321.038
321.356
312.507
312.413
312.229
312.23
312.317
312.46
312.671
312.942
313.206
313.449
313.527
313.448
313.33
313.125
312.897
312.741
312.603
312.524
312.634
312.824
304.195
304.179
304.095
304.103
304.122
304.176
304.249
304.345
304.435
304.501
304.536
304.51
304.474
304.406
304.327
304.279
304.227
304.192
304.242
304.298
364.69
363.946
363.216
363.045
363.428
364.273
365.387
366.583
367.755
368.906
369.489
369.355
368.655
367.713
366.667
365.695
365.032
364.946
365.477
366.372
355.901
355.334
354.718
354.561
354.896
355.636
356.579
357.599
358.618
359.631
360.116
360.007
359.395
358.599
357.714
356.869
356.304
356.237
356.687
357.426
347.222
346.766
346.233
346.133
346.414
347.048
347.808
348.657
349.532
350.407
350.805
350.721
350.18
349.527
348.796
348.081
347.604
347.549
347.909
348.535
338.571
338.228
337.779
337.713
337.979
338.481
339.061
339.748
340.491
341.19
341.527
341.474
340.995
340.462
339.914
339.306
338.929
338.871
339.146
339.676
329.954
329.717
329.366
329.314
329.558
329.913
330.348
330.88
331.484
332.01
332.254
332.245
331.853
331.43
331.047
330.556
330.27
330.211
330.41
330.826
321.379
321.205
320.968
320.935
321.126
321.375
321.651
322.057
322.486
322.85
323.04
323.027
322.737
322.419
322.176
321.826
321.625
321.583
321.7
322.028
312.808
312.728
312.593
312.576
312.685
312.831
312.989
313.241
313.498
313.726
313.832
313.822
313.65
313.431
313.314
313.104
312.997
312.988
313.028
313.234
304.299
304.27
304.211
304.216
304.26
304.302
304.346
304.439
304.527
304.617
304.638
304.642
304.584
304.5
304.462
304.384
304.368
304.352
304.366
304.432
366.616
365.752
365.089
364.86
365.243
366.001
367.16
368.434
369.582
370.568
371.114
370.946
370.366
369.522
368.671
367.788
367.208
367.122
367.686
368.453
357.571
356.879
356.312
356.132
356.459
357.13
358.121
359.231
360.218
361.065
361.523
361.387
360.884
360.155
359.445
358.699
358.197
358.08
358.604
359.219
348.605
348.065
347.602
347.433
347.719
348.284
349.102
350.037
350.884
351.592
351.977
351.877
351.433
350.82
350.257
349.63
349.209
349.082
349.569
350.024
339.699
339.278
338.884
338.774
339.028
339.48
340.112
340.902
341.576
342.17
342.457
342.418
342.047
341.524
341.084
340.596
340.269
340.12
340.533
340.902
330.843
330.51
330.222
330.147
330.358
330.694
331.151
331.782
332.316
332.768
333.001
332.978
332.685
332.272
331.934
331.562
331.336
331.184
331.507
331.802
322.026
321.799
321.597
321.525
321.673
321.923
322.246
322.698
323.087
323.394
323.575
323.56
323.344
323.034
322.813
322.556
322.391
322.264
322.507
322.734
313.213
313.09
312.964
312.934
313.022
313.157
313.356
313.619
313.861
314.04
314.138
314.143
313.998
313.821
313.696
313.535
313.462
313.379
313.515
313.648
304.428
304.386
304.347
304.331
304.365
304.412
304.47
304.572
304.645
304.698
304.725
304.737
304.686
304.63
304.591
304.536
304.509
304.483
304.527
304.565
368.638
367.61
366.986
366.742
367.062
368.073
368.863
369.971
371.245
372.056
372.542
372.541
371.991
371.283
370.48
369.775
369.368
369.269
369.892
370.592
359.337
358.497
357.964
357.742
358.016
358.903
359.588
360.556
361.652
362.347
362.745
362.772
362.28
361.689
361.032
360.421
360.066
359.954
360.511
361.085
350.111
349.439
349.008
348.801
349.027
349.757
350.348
351.164
352.106
352.713
353.011
353.042
352.617
352.125
351.612
351.088
350.795
350.687
351.17
351.608
340.947
340.419
340.083
339.901
340.07
340.648
341.123
341.832
342.593
343.106
343.313
343.354
343.004
342.596
342.209
341.784
341.539
341.444
341.863
342.182
331.819
331.393
331.162
331.023
331.153
331.592
331.938
332.521
333.102
333.528
333.647
333.694
333.421
333.094
332.825
332.492
332.316
332.206
332.571
332.786
322.722
322.415
322.25
322.154
322.249
322.561
322.829
323.218
323.643
323.942
324.028
324.055
323.873
323.634
323.449
323.202
323.108
322.993
323.299
323.414
313.63
313.449
313.357
313.281
313.374
313.545
313.7
313.95
314.205
314.371
314.407
314.446
314.324
314.205
314.083
313.947
313.895
313.801
314.014
314.044
304.562
304.505
304.476
304.45
304.484
304.541
304.584
304.685
304.761
304.815
304.828
304.84
304.8
304.757
304.727
304.674
304.659
304.621
304.703
304.709
370.61
369.644
369.048
368.778
368.953
369.824
370.542
371.524
372.702
373.569
373.92
374.086
373.63
372.988
372.355
371.79
371.456
371.528
371.856
372.594
361.081
360.265
359.762
359.498
359.648
360.404
361.045
361.866
362.909
363.672
363.972
364.11
363.702
363.172
362.642
362.156
361.872
361.93
362.198
362.799
351.585
350.925
350.507
350.285
350.397
351.031
351.577
352.26
353.153
353.803
354.073
354.17
353.825
353.396
352.966
352.553
352.304
352.365
352.557
353.036
342.113
341.622
341.308
341.1
341.2
341.716
342.15
342.722
343.456
343.972
344.201
344.268
343.974
343.655
343.328
342.977
342.79
342.809
342.928
343.337
332.709
332.357
332.147
331.955
332.009
332.441
332.77
333.202
333.801
334.2
334.376
334.406
334.167
333.957
333.682
333.406
333.279
333.278
333.351
333.668
323.345
323.121
322.993
322.834
322.88
323.148
323.421
323.7
324.157
324.415
324.552
324.588
324.403
324.263
324.055
323.87
323.777
323.762
323.813
324.037
314.003
313.893
313.823
313.727
313.763
313.896
314.063
314.235
314.51
314.662
314.746
314.763
314.667
314.58
314.454
314.347
314.292
314.278
314.298
314.444
304.692
304.66
304.636
304.611
304.621
304.659
304.713
304.772
304.866
304.922
304.957
304.944
304.918
304.883
304.853
304.813
304.796
304.789
304.793
304.837
372.477
371.518
371.018
370.744
370.978
371.66
372.318
373.187
374.34
374.938
375.419
375.521
375.146
374.684
374.113
373.592
373.433
373.551
374.013
374.811
362.698
361.857
361.466
361.218
361.423
362.012
362.587
363.324
364.341
364.829
365.247
365.31
365.017
364.638
364.164
363.714
363.575
363.656
364.079
364.743
352.966
352.251
351.945
351.711
351.912
352.428
352.905
353.531
354.356
354.775
355.117
355.159
354.935
354.644
354.266
353.842
353.745
353.798
354.147
354.71
343.285
342.728
342.453
342.258
342.457
342.875
343.256
343.783
344.432
344.783
345.055
345.074
344.892
344.695
344.391
344.007
343.913
343.97
344.229
344.709
333.639
333.227
333.009
332.828
333.019
333.323
333.633
334.032
334.528
334.817
335.011
335.048
334.898
334.776
334.51
334.202
334.12
334.179
334.355
334.752
324.021
323.752
323.589
323.428
323.593
323.816
324.048
324.312
324.642
324.867
324.999
325.035
324.922
324.848
324.643
324.415
324.35
324.412
324.513
324.812
314.398
314.263
314.18
314.043
314.17
314.304
314.439
314.594
314.799
314.935
315.006
315.043
314.954
314.903
314.791
314.661
314.623
314.66
314.719
314.893
304.822
304.774
304.752
304.707
304.75
304.797
304.842
304.889
304.961
305.007
305.028
305.046
305.005
304.995
304.963
304.924
304.896
304.919
304.936
304.991
374.558
373.53
372.965
372.588
372.837
373.245
374.106
374.972
375.836
376.484
376.987
376.932
376.817
376.307
375.838
375.565
375.372
375.536
376.033
376.821
364.475
363.615
363.145
362.8
363.034
363.388
364.138
364.861
365.633
366.184
366.6
366.565
366.47
366.057
365.65
365.401
365.241
365.373
365.804
366.453
354.454
353.784
353.357
353.08
353.26
353.591
354.215
354.815
355.476
355.916
356.253
356.265
356.181
355.846
355.522
355.292
355.125
355.277
355.612
356.145
344.471
343.998
343.628
343.379
343.52
343.805
344.329
344.822
345.355
345.688
345.942
346.017
345.944
345.671
345.382
345.223
345.059
345.189
345.468
345.89
334.536
334.224
333.921
333.716
333.831
334.051
334.441
334.829
335.259
335.497
335.697
335.779
335.715
335.519
335.29
335.169
334.996
335.134
335.36
335.661
324.647
324.447
324.208
324.075
324.164
324.319
324.585
324.873
325.18
325.352
325.469
325.567
325.504
325.383
325.207
325.112
324.992
325.093
325.256
325.468
314.78
314.69
314.541
314.453
314.516
314.61
314.758
314.925
315.125
315.221
315.288
315.357
315.331
315.258
315.149
315.076
315.012
315.082
315.166
315.292
304.943
304.927
304.877
304.85
304.874
304.894
304.946
304.996
305.06
305.096
305.124
305.15
305.138
305.117
305.082
305.053
305.044
305.063
305.079
305.126
376.521
375.492
374.894
374.603
374.76
375.193
375.829
376.559
377.33
377.915
378.237
378.36
378.32
377.834
377.613
377.4
377.321
377.586
378.069
378.908
366.153
365.296
364.783
364.536
364.697
365.063
365.622
366.253
366.92
367.427
367.668
367.786
367.774
367.342
367.156
367.003
366.904
367.13
367.554
368.255
355.878
355.156
354.716
354.531
354.679
354.972
355.46
356
356.556
356.976
357.159
357.264
357.271
356.923
356.774
356.633
356.527
356.751
357.1
357.647
345.64
345.073
344.704
344.583
344.697
344.912
345.339
345.759
346.242
346.573
346.713
346.807
346.808
346.552
346.43
346.271
346.191
346.414
346.695
347.103
335.481
335.04
334.734
334.663
334.715
334.897
335.249
335.574
335.96
336.196
336.293
336.39
336.391
336.18
336.099
335.973
335.9
336.094
336.324
336.611
325.338
325.02
324.789
324.763
324.798
324.912
325.179
325.403
325.692
325.848
325.909
325.989
325.99
325.833
325.784
325.685
325.636
325.791
325.951
326.151
315.22
315.03
314.884
314.868
314.906
314.965
315.127
315.25
315.417
315.518
315.55
315.591
315.615
315.515
315.491
315.428
315.414
315.5
315.588
315.702
305.09
305.037
304.986
304.981
304.993
305.019
305.075
305.107
305.17
305.208
305.219
305.219
305.236
305.205
305.193
305.165
305.168
305.203
305.219
305.261
378.47
377.578
376.881
376.652
376.649
376.931
377.501
378.148
378.817
379.475
379.684
379.793
379.878
379.676
379.47
379.271
379.263
379.62
380.267
381.001
367.844
367.08
366.52
366.309
366.312
366.559
367.057
367.611
368.182
368.775
368.925
369.039
369.132
368.968
368.76
368.586
368.597
368.898
369.484
370.055
357.294
356.646
356.207
356.042
356.035
356.259
356.655
357.14
357.594
358.141
358.257
358.339
358.429
358.281
358.098
357.952
357.986
358.226
358.737
359.171
346.782
346.282
345.925
345.803
345.796
345.97
346.291
346.693
347.073
347.535
347.623
347.663
347.759
347.638
347.489
347.349
347.397
347.598
348.035
348.365
336.348
335.97
335.695
335.575
335.594
335.733
335.987
336.277
336.567
336.96
337.008
337.027
337.113
337.029
336.904
336.8
336.839
336.972
337.339
337.612
325.945
325.699
325.494
325.407
325.406
325.521
325.718
325.893
326.102
326.404
326.424
326.441
326.506
326.451
326.343
326.273
326.308
326.404
326.668
326.881
315.582
315.425
315.325
315.256
315.246
315.333
315.467
315.549
315.658
315.849
315.868
315.882
315.921
315.885
315.812
315.769
315.802
315.856
316.006
316.131
305.222
305.176
305.145
305.108
305.111
305.15
305.19
305.216
305.239
305.307
305.302
305.325
305.333
305.331
305.294
305.284
305.303
305.321
305.361
305.399
380.553
379.606
378.9
378.445
378.476
378.662
379.203
379.777
380.338
381.027
381.222
381.262
381.348
381.225
381.067
381.027
381.086
381.515
382.242
383.036
369.631
368.838
368.259
367.856
367.881
368.026
368.51
369.037
369.485
370.126
370.267
370.275
370.386
370.276
370.15
370.094
370.182
370.519
371.146
371.805
358.781
358.167
357.679
357.334
357.352
357.47
357.882
358.349
358.688
359.283
359.384
359.368
359.46
359.338
359.28
359.222
359.313
359.603
360.121
360.651
348.016
347.519
347.13
346.834
346.862
346.998
347.299
347.696
347.956
348.479
348.532
348.508
348.626
348.463
348.46
348.402
348.466
348.729
349.131
349.566
337.322
336.925
336.624
336.381
336.397
336.538
336.754
337.071
337.263
337.704
337.735
337.69
337.778
337.646
337.684
337.61
337.665
337.881
338.19
338.513
326.653
326.378
326.155
325.977
325.98
326.098
326.241
326.443
326.592
326.922
326.97
326.91
326.983
326.864
326.919
326.852
326.896
327.063
327.268
327.499
316.02
315.848
315.703
315.61
315.598
315.677
315.749
315.858
315.957
316.172
316.212
316.149
316.206
316.128
316.163
316.127
316.155
316.26
316.37
316.508
305.371
305.302
305.258
305.225
305.229
305.249
305.272
305.308
305.351
305.42
305.429
305.408
305.429
305.403
305.42
305.403
305.413
305.458
305.486
305.543
382.431
381.363
380.604
380.312
380.214
380.379
380.836
381.255
381.745
382.398
382.583
382.671
382.809
382.639
382.516
382.613
382.903
383.42
384.142
384.992
371.216
370.332
369.696
369.434
369.355
369.501
369.916
370.28
370.708
371.302
371.411
371.474
371.633
371.467
371.333
371.437
371.703
372.15
372.771
373.481
360.12
359.399
358.849
358.637
358.571
358.685
359.065
359.403
359.755
360.258
360.315
360.358
360.508
360.357
360.254
360.359
360.575
360.948
361.461
362.045
349.09
348.509
348.066
347.916
347.845
347.937
348.249
348.561
348.837
349.259
349.293
349.313
349.417
349.316
349.247
349.323
349.491
349.807
350.219
350.692
338.124
337.66
337.348
337.238
337.154
337.247
337.507
337.75
337.964
338.309
338.293
338.318
338.403
338.334
338.292
338.339
338.444
338.7
339.018
339.396
327.202
326.872
326.672
326.574
326.488
326.579
326.783
326.961
327.119
327.37
327.312
327.343
327.431
327.373
327.36
327.395
327.45
327.642
327.845
328.144
316.324
316.121
316
315.946
315.893
315.946
316.081
316.198
316.295
316.432
316.391
316.405
316.458
316.423
316.446
316.455
316.489
316.589
316.699
316.881
305.48
305.405
305.355
305.342
305.335
305.339
305.388
305.43
305.467
305.51
305.485
305.495
305.523
305.508
305.513
305.511
305.525
305.554
305.596
305.666
383.809
382.746
382.021
381.558
381.459
381.718
382.075
382.606
382.938
383.374
383.683
383.832
383.908
383.766
383.806
383.98
384.192
384.822
385.447
386.42
372.348
371.452
370.837
370.465
370.364
370.621
370.94
371.384
371.707
372.09
372.341
372.439
372.513
372.384
372.418
372.568
372.757
373.32
373.83
374.652
361.001
360.291
359.769
359.47
359.373
359.599
359.877
360.267
360.565
360.897
361.08
361.154
361.226
361.099
361.12
361.268
361.411
361.909
362.318
363.016
349.766
349.231
348.783
348.557
348.474
348.644
348.918
349.228
349.49
349.747
349.872
349.939
350.011
349.912
349.905
350.036
350.167
350.569
350.885
351.457
338.621
338.235
337.873
337.702
337.652
337.774
338.012
338.235
338.44
338.664
338.732
338.788
338.862
338.769
338.752
338.863
338.988
339.283
339.51
339.97
327.552
327.295
327.015
326.879
326.882
326.964
327.138
327.317
327.437
327.612
327.644
327.686
327.737
327.657
327.664
327.741
327.851
328.046
328.206
328.545
316.512
316.379
316.212
316.123
316.142
316.183
316.295
316.412
316.474
316.585
316.591
316.599
316.641
316.606
316.6
316.645
316.728
316.822
316.911
317.132
305.53
305.484
305.435
305.389
305.412
305.425
305.462
305.505
305.521
305.569
305.552
305.559
305.57
305.561
305.551
305.582
305.602
305.635
305.666
305.73
)
;

boundaryField
{
    hotSide
    {
        type            fixedGradient;
        gradient        nonuniform List<scalar> 
400
(
596.611
597.684
602.374
610.586
621.961
635.983
652.099
669.806
688.689
708.425
728.777
749.578
770.723
792.156
813.866
835.877
858.238
881.009
904.24
927.95
573.483
574.919
580.226
589.285
601.661
616.742
633.894
652.559
672.289
692.746
713.69
734.956
756.446
778.118
799.974
822.057
844.438
867.204
890.423
914.129
560.31
562.47
568.456
578.137
591.077
606.668
624.276
643.338
663.399
684.116
705.242
726.613
748.136
769.772
791.534
813.475
835.675
858.227
881.211
904.668
556.457
559.676
566.421
576.556
589.703
605.34
622.9
641.862
661.787
682.333
703.252
724.377
745.616
766.934
788.35
809.917
831.718
853.842
876.363
899.329
559.445
563.924
571.545
582.162
595.461
611.009
628.329
646.957
666.485
686.584
707.011
727.604
748.275
769
789.805
810.748
831.911
853.377
875.221
897.492
566.452
572.279
580.911
592.186
605.821
621.443
638.632
656.97
676.076
695.638
715.425
735.29
755.168
775.055
794.998
815.07
835.363
855.964
876.949
898.372
575.141
582.338
592.103
604.252
618.507
634.507
651.85
670.126
688.958
708.039
727.154
746.186
765.109
783.964
802.838
821.841
841.083
860.667
880.674
901.163
583.711
592.232
603.198
616.401
631.545
648.252
666.09
684.613
703.411
722.159
740.651
758.814
776.688
794.388
812.069
829.89
847.996
866.506
885.51
905.067
590.725
600.429
612.554
626.878
643.078
660.739
679.369
698.444
717.472
736.076
754.053
771.388
788.217
804.76
821.258
837.931
854.96
872.477
890.576
909.314
595.031
605.636
618.712
634.029
651.248
669.914
689.462
709.27
728.734
747.397
765.044
781.729
797.704
813.302
828.853
844.63
860.839
877.619
895.062
913.216
595.807
606.879
620.504
636.453
654.377
673.791
694.084
714.554
734.506
753.412
771.043
787.5
803.115
818.3
833.437
848.83
864.693
881.169
898.344
916.262
592.695
603.699
617.343
633.397
651.503
671.168
691.765
712.581
732.914
752.225
770.276
787.152
803.17
818.731
834.211
849.909
866.041
882.752
900.128
918.218
585.933
596.337
609.484
625.138
642.938
662.39
682.888
703.767
724.391
744.269
763.151
781.055
798.195
814.877
831.414
848.073
865.057
882.514
900.54
919.191
576.39
585.771
598.051
613
630.251
649.315
669.615
690.542
711.531
732.14
752.109
771.372
790.024
808.251
826.277
844.315
862.545
881.109
900.112
919.62
565.551
573.633
584.87
599.046
615.784
634.579
654.853
676.021
697.552
719.028
740.172
760.854
781.074
800.923
820.54
840.083
859.702
879.528
899.666
920.188
555.53
562.179
572.355
585.857
602.272
621.04
641.538
663.158
685.367
707.747
730.006
751.977
773.602
794.906
815.972
836.912
857.848
878.899
900.164
921.718
549.161
554.383
563.567
576.523
592.776
611.669
632.496
654.602
677.439
700.584
723.739
746.722
769.444
791.894
814.117
836.195
858.23
880.328
902.583
925.066
549.887
553.859
562.14
574.552
590.556
609.408
630.332
652.64
675.775
699.319
722.978
746.564
769.974
793.177
816.19
839.074
861.913
884.8
907.822
931.041
560.767
563.85
571.3
582.955
598.283
616.541
636.962
658.869
681.721
705.111
728.749
752.442
776.078
799.603
823.016
846.353
869.679
893.067
916.588
940.294
582.716
585.316
591.991
602.612
616.738
633.744
652.96
673.782
695.706
718.346
741.415
764.713
788.113
811.541
834.973
858.42
881.916
905.512
929.255
953.178
)
;
    }
    coldSide
    {
        type            mixed;
        refValue        uniform 300;
        refGradient     uniform 0;
        valueFraction   uniform 0.991591;
        source          uniform 0;
        value           nonuniform List<scalar> 
400
(
300.031
300.031
300.031
300.031
300.032
300.033
300.033
300.034
300.035
300.036
300.037
300.038
300.039
300.041
300.042
300.043
300.044
300.045
300.046
300.046
300.03
300.03
300.03
300.031
300.031
300.032
300.033
300.034
300.035
300.036
300.037
300.038
300.039
300.04
300.041
300.042
300.044
300.045
300.045
300.046
300.029
300.03
300.03