/*--------------------------------*- C++ -*----------------------------------*\
| =========                 |                                                 |
| \\      /  F ield         | OpenFOAM: The Open Source CFD Toolbox           |
|  \\    /   O peration     | Version:  2212                                  |
|   \\  /    A nd           | Website:  www.openfoam.com                      |
|    \\/     M anipulation  |                                                 |
\*---------------------------------------------------------------------------*/
FoamFile
{
    version     2.0;
    format      ascii;
    arch        "LSB;label=32;scalar=64";
    class       volScalarField;
    location    "0";
    object      T;
}
// * * * * * * * * * * * * * * * * * * * * * * * * * * * * * * * * * * * * * //

dimensions      [0 0 0 1 0 0 0];

internalField   nonuniform List<scalar> 
3200
(
335.043
335.63
336.333
336.772
337.209
337.62
338.203
337.991
337.917
338.289
338.38
337.884
337.845
337.197
336.561
336.178
335.443
334.964
334.376
333.721
330.346
330.87
331.471
331.83
332.18
332.579
333.077
332.93
332.863
333.165
333.229
332.857
332.792
332.188
331.721
331.328
330.718
330.357
329.804
329.294
325.663
326.067
326.626
326.884
327.185
327.499
327.945
327.855
327.758
328.095
328.075
327.771
327.711
327.205
326.868
326.475
325.973
325.733
325.21
324.817
320.988
321.314
321.743
321.922
322.185
322.437
322.836
322.789
322.697
322.991
322.904
322.721
322.63
322.247
322.005
321.673
321.284
321.048
320.641
320.322
316.335
316.58
316.911
317.046
317.205
317.399
317.747
317.703
317.654
317.903
317.799
317.681
317.544
317.29
317.192
316.846
316.552
316.363
316.049
315.818
311.695
311.84
312.065
312.185
312.269
312.394
312.711
312.625
312.582
312.781
312.72
312.659
312.558
312.305
312.326
312.02
311.815
311.736
311.466
311.335
307.012
307.099
307.247
307.33
307.325
307.447
307.65
307.568
307.533
307.666
307.644
307.633
307.525
307.375
307.413
307.204
307.093
307.065
306.9
306.829
302.349
302.374
302.443
302.477
302.457
302.483
302.556
302.541
302.508
302.569
302.572
302.57
302.523
302.471
302.481
302.397
302.383
302.373
302.31
302.272
335.683
336.666
337.463
337.933
338.1
338.56
339.002
338.981
338.988
339.436
339.367
339.004
338.71
338.163
337.798
337.234
336.659
336.054
335.107
334.357
330.827
331.75
332.427
332.786
332.955
333.364
333.759
333.72
333.72
334.15
334.061
333.715
333.503
333.043
332.694
332.172
331.724
331.189
330.426
329.757
326.026
326.861
327.419
327.669
327.812
328.178
328.491
328.453
328.471
328.889
328.785
328.463
328.292
327.923
327.65
327.145
326.81
326.351
325.724
325.207
321.246
321.991
322.402
322.597
322.725
323.02
323.28
323.217
323.255
323.613
323.484
323.227
323.109
322.85
322.569
322.163
321.914
321.558
321.007
320.654
316.476
317.106
317.402
317.574
317.623
317.866
318.089
318.021
318.086
318.383
318.229
318.054
317.997
317.753
317.528
317.221
317.027
316.744
316.282
316.061
311.744
312.206
312.432
312.536
312.577
312.75
312.902
312.866
312.943
313.132
312.989
312.851
312.852
312.651
312.507
312.291
312.143
311.949
311.628
311.431
307.02
307.312
307.469
307.509
307.549
307.665
307.755
307.741
307.763
307.889
307.794
307.722
307.728
307.587
307.514
307.393
307.267
307.163
306.995
306.857
302.332
302.43
302.512
302.512
302.529
302.57
302.604
302.606
302.585
302.631
302.62
302.595
302.585
302.52
302.501
302.494
302.428
302.419
302.331
302.28
336.937
337.75
338.529
339.078
339.522
339.868
340.358
340.493
340.364
340.628
340.461
340.201
339.924
339.611
339.074
338.619
337.939
337.258
336.299
335.617
331.917
332.599
333.284
333.743
334.144
334.46
334.921
334.996
334.905
335.112
335.018
334.729
334.505
334.284
333.758
333.352
332.78
332.279
331.402
330.865
326.955
327.499
328.102
328.454
328.801
329.085
329.49
329.548
329.495
329.696
329.573
329.259
329.113
329.007
328.467
328.154
327.671
327.288
326.636
326.096
322.013
322.418
322.95
323.189
323.468
323.762
324.093
324.103
324.117
324.286
324.159
323.841
323.751
323.728
323.272
322.971
322.574
322.311
321.812
321.324
317.082
317.385
317.803
317.985
318.172
318.456
318.701
318.672
318.727
318.887
318.739
318.474
318.426
318.446
318.112
317.847
317.535
317.336
317.003
316.573
312.214
312.439
312.686
312.785
312.956
313.208
313.356
313.27
313.34
313.456
313.384
313.213
313.111
313.19
312.98
312.754
312.501
312.372
312.183
311.823
307.341
307.462
307.585
307.681
307.771
307.942
308.011
307.958
307.995
308.05
308.045
307.936
307.854
307.93
307.826
307.647
307.514
307.413
307.302
307.084
302.447
302.499
302.533
302.565
302.599
302.651
302.686
302.653
302.693
302.697
302.705
302.669
302.617
302.671
302.635
302.541
302.55
302.47
302.442
302.367
338.155
338.716
339.708
340.461
341.1
341.267
341.817
342.056
342.133
342.092
341.953
341.781
341.41
341.091
340.634
339.992
339.091
338.557
337.696
337.023
333.014
333.445
334.325
335.017
335.517
335.66
336.123
336.341
336.42
336.383
336.249
336.09
335.773
335.546
335.157
334.549
333.827
333.34
332.595
332.031
327.921
328.191
328.958
329.584
329.963
330.119
330.423
330.669
330.73
330.75
330.598
330.445
330.179
330.017
329.737
329.145
328.554
328.145
327.551
327.071
322.83
323.003
323.62
324.149
324.435
324.572
324.797
325.044
325.052
325.131
325.012
324.825
324.617
324.513
324.303
323.768
323.304
322.994
322.496
322.111
317.772
317.856
318.323
318.685
318.935
319.084
319.224
319.446
319.424
319.548
319.449
319.255
319.086
319.04
318.9
318.396
318.122
317.856
317.463
317.129
312.678
312.697
313.035
313.303
313.508
313.592
313.679
313.885
313.837
313.951
313.929
313.722
313.603
313.581
313.486
313.092
312.956
312.719
312.467
312.187
307.605
307.556
307.806
307.994
308.103
308.142
308.209
308.338
308.267
308.351
308.337
308.229
308.166
308.144
308.092
307.854
307.809
307.634
307.457
307.273
302.532
302.528
302.628
302.689
302.715
302.727
302.749
302.805
302.767
302.795
302.795
302.758
302.735
302.731
302.704
302.607
302.637
302.568
302.499
302.437
339.554
340.039
341.027
341.609
342.59
342.694
343.034
343.324
343.447
343.43
343.5
343.154
342.906
342.464
341.965
341.22
340.502
339.872
338.796
338.136
334.217
334.567
335.41
335.926
336.797
336.947
337.235
337.447
337.565
337.538
337.64
337.29
337.048
336.749
336.292
335.6
334.971
334.473
333.564
333.015
328.903
329.177
329.889
330.327
331.015
331.228
331.455
331.608
331.716
331.689
331.809
331.489
331.244
331.014
330.651
330.016
329.488
329.091
328.35
327.9
323.636
323.827
324.415
324.81
325.328
325.5
325.682
325.834
325.88
325.874
325.987
325.694
325.505
325.309
325.038
324.517
324.055
323.741
323.14
322.799
318.398
318.482
318.94
319.303
319.704
319.781
319.908
320.073
320.065
320.077
320.191
319.962
319.78
319.651
319.498
319.045
318.702
318.444
317.935
317.75
313.111
313.161
313.468
313.778
314.088
314.106
314.155
314.323
314.3
314.338
314.422
314.235
314.106
314.028
313.982
313.575
313.364
313.137
312.754
312.695
307.862
307.883
308.087
308.252
308.437
308.474
308.479
308.61
308.578
308.607
308.662
308.526
308.478
308.404
308.431
308.173
308.02
307.86
307.654
307.592
302.629
302.635
302.723
302.755
302.806
302.833
302.829
302.901
302.859
302.885
302.898
302.832
302.851
302.832
302.837
302.744
302.693
302.645
302.579
302.542
341.014
341.534
342.238
342.979
343.673
343.939
344.532
344.809
344.887
344.834
344.934
344.735
344.444
344.073
343.346
342.531
341.862
341.275
340.127
339.216
335.531
335.942
336.48
337.09
337.756
337.959
338.481
338.729
338.816
338.744
338.848
338.669
338.39
338.127
337.453
336.774
336.169
335.71
334.703
333.894
330.079
330.325
330.779
331.311
331.854
332.066
332.452
332.681
332.741
332.707
332.81
332.648
332.346
332.18
331.648
331.065
330.562
330.175
329.334
328.616
324.587
324.735
325.121
325.575
326
326.207
326.444
326.703
326.7
326.708
326.834
326.631
326.413
326.266
325.896
325.413
324.974
324.666
323.918
323.363
319.093
319.2
319.483
319.877
320.173
320.358
320.542
320.742
320.72
320.757
320.867
320.663
320.475
320.411
320.113
319.751
319.364
319.148
318.544
318.17
313.64
313.673
313.867
314.174
314.389
314.495
314.664
314.767
314.773
314.822
314.869
314.748
314.563
314.577
314.355
314.099
313.799
313.673
313.204
312.975
308.179
308.206
308.3
308.505
308.664
308.707
308.796
308.847
308.855
308.908
308.912
308.877
308.724
308.759
308.613
308.485
308.279
308.191
307.932
307.781
302.733
302.757
302.793
302.863
302.901
302.905
302.954
302.966
302.965
302.998
302.968
302.982
302.917
302.932
302.871
302.84
302.781
302.739
302.667
302.606
342.241
342.801
343.658
344.55
345.038
345.385
345.981
346.187
346.641
346.273
346.281
346.086
345.763
345.465
344.761
343.912
343.348
342.389
341.311
340.419
336.588
336.949
337.687
338.488
338.908
339.255
339.746
339.937
340.345
339.983
339.963
339.861
339.597
339.337
338.729
337.975
337.467
336.645
335.705
334.953
330.907
331.156
331.745
332.485
332.847
333.129
333.55
333.72
334.06
333.744
333.741
333.64
333.431
333.206
332.695
332.089
331.678
330.946
330.149
329.544
325.239
325.437
325.841
326.521
326.83
327.027
327.382
327.545
327.797
327.53
327.607
327.476
327.316
327.128
326.703
326.237
325.916
325.317
324.626
324.151
319.604
319.772
320.037
320.599
320.87
320.964
321.259
321.43
321.577
321.395
321.474
321.333
321.206
321.105
320.747
320.38
320.162
319.675
319.175
318.755
314.005
314.106
314.264
314.718
314.926
314.895
315.142
315.351
315.402
315.305
315.327
315.246
315.143
315.079
314.808
314.537
314.385
314.076
313.695
313.355
308.398
308.458
308.579
308.819
308.953
308.906
309.092
309.209
309.224
309.21
309.19
309.188
309.072
309.038
308.865
308.71
308.663
308.452
308.223
308.014
302.798
302.837
302.884
302.962
303.014
302.983
303.044
303.098
303.087
303.098
303.082
303.087
303.04
303.029
302.965
302.919
302.924
302.845
302.741
302.677
343.231
343.999
344.709
345.657
346.15
346.654
347.241
347.743
348.052
347.732
347.567
347.263
347.135
346.711
346.126
345.329
344.601
343.6
342.659
342.014
337.37
338.025
338.621
339.458
339.866
340.336
340.859
341.242
341.592
341.26
341.117
340.851
340.742
340.368
339.924
339.213
338.573
337.675
336.867
336.362
331.522
332.108
332.608
333.291
333.636
334.022
334.502
334.782
335.097
334.789
334.7
334.527
334.381
334.088
333.748
333.148
332.58
331.782
331.088
330.735
325.744
326.198
326.607
327.189
327.451
327.776
328.161
328.446
328.645
328.375
328.349
328.24
328.048
327.831
327.597
327.06
326.616
325.95
325.405
325.105
320.048
320.348
320.66
321.077
321.332
321.566
321.86
322.096
322.234
322.016
322.044
321.988
321.766
321.619
321.472
321.03
320.669
320.152
319.771
319.486
314.363
314.51
314.737
315.047
315.24
315.386
315.551
315.765
315.863
315.715
315.745
315.702
315.527
315.406
315.339
314.995
314.716
314.419
314.133
313.868
308.63
308.682
308.832
309.037
309.163
309.24
309.311
309.459
309.507
309.436
309.458
309.437
309.317
309.263
309.215
308.992
308.823
308.674
308.529
308.294
302.892
302.902
302.959
303.021
303.072
303.097
303.11
303.158
303.163
303.134
303.173
303.156
303.129
303.105
303.09
303.018
302.951
302.9
302.87
302.801
344.229
345.079
345.986
346.549
347.323
347.921
348.234
349.02
349.026
349.006
348.909
348.719
348.391
347.945
347.412
346.535
345.824
344.814
344.098
342.825
338.204
338.959
339.722
340.155
340.891
341.405
341.703
342.394
342.418
342.382
342.273
342.122
341.839
341.448
340.975
340.248
339.601
338.721
338.141
337.073
332.242
332.879
333.534
333.858
334.517
334.958
335.246
335.762
335.837
335.767
335.68
335.57
335.313
334.972
334.579
333.966
333.444
332.709
332.145
331.35
326.341
326.852
327.372
327.604
328.177
328.521
328.781
329.195
329.289
329.216
329.101
329.021
328.826
328.544
328.233
327.719
327.325
326.722
326.226
325.629
320.473
320.858
321.255
321.42
321.826
322.163
322.334
322.689
322.751
322.704
322.55
322.554
322.379
322.154
321.92
321.5
321.225
320.746
320.373
319.933
314.624
314.886
315.17
315.292
315.581
315.859
315.956
316.194
316.237
316.208
316.064
316.08
315.947
315.791
315.642
315.35
315.114
314.81
314.508
314.241
308.809
308.946
309.096
309.203
309.333
309.539
309.565
309.698
309.706
309.74
309.635
309.631
309.62
309.479
309.355
309.218
309.059
308.9
308.698
308.567
302.98
303.007
303.053
303.092
303.133
303.202
303.206
303.254
303.24
303.266
303.231
303.223
303.236
303.183
303.129
303.099
303.039
302.986
302.899
302.865
345.215
346.164
347.251
347.851
348.482
349.254
349.653
350.069
350.225
350.41
350.168
350.017
349.72
348.984
348.46
347.692
347.084
346.097
345.115
343.99
339.058
339.85
340.823
341.339
341.869
342.575
342.879
343.229
343.382
343.552
343.341
343.276
342.997
342.333
341.921
341.261
340.715
339.866
339.034
338.083
332.981
333.625
334.458
334.88
335.369
335.959
336.187
336.501
336.603
336.707
336.629
336.55
336.292
335.689
335.383
334.872
334.4
333.688
332.988
332.172
326.925
327.449
328.146
328.471
328.852
329.368
329.526
329.804
329.876
329.927
329.95
329.865
329.639
329.123
328.907
328.516
328.09
327.489
326.966
326.303
320.891
321.308
321.845
322.133
322.373
322.789
322.891
323.147
323.188
323.235
323.285
323.212
323.004
322.624
322.456
322.172
321.827
321.348
320.944
320.452
314.932
315.214
315.585
315.789
315.969
316.217
316.325
316.497
316.531
316.576
316.671
316.594
316.411
316.153
316.059
315.861
315.599
315.251
314.966
314.627
308.961
309.145
309.358
309.463
309.584
309.715
309.765
309.872
309.921
309.994
309.994
309.955
309.882
309.699
309.64
309.503
309.356
309.177
308.98
308.794
302.992
303.062
303.133
303.173
303.209
303.237
303.266
303.28
303.328
303.352
303.355
303.326
303.321
303.253
303.248
303.184
303.123
303.077
303.013
302.954
346.359
347.31
348.185
348.928
349.912
350.371
350.873
351.272
351.56
351.447
351.266
351.186
350.817
350.18
349.635
349.002
348.196
347.023
346.012
345.091
340.106
340.902
341.672
342.279
343.134
343.532
344
344.339
344.6
344.415
344.321
344.292
343.905
343.347
342.899
342.353
341.687
340.674
339.782
339.004
333.864
334.53
335.161
335.666
336.431
336.737
337.124
337.508
337.659
337.45
337.403
337.427
337.049
336.527
336.238
335.744
335.223
334.377
333.603
332.991
327.662
328.157
328.721
329.109
329.752
330.007
330.296
330.671
330.79
330.596
330.538
330.554
330.23
329.803
329.576
329.194
328.786
328.08
327.471
326.95
321.463
321.811
322.289
322.6
323.055
323.357
323.507
323.828
323.928
323.732
323.764
323.75
323.454
323.162
322.979
322.699
322.333
321.823
321.344
320.931
315.292
315.527
315.91
316.12
316.433
316.684
316.758
317.012
317.08
316.962
317.022
316.986
316.748
316.511
316.425
316.21
315.915
315.591
315.224
314.948
309.179
309.288
309.572
309.685
309.841
310.007
310.046
310.201
310.25
310.187
310.228
310.198
310.069
309.874
309.866
309.735
309.558
309.369
309.155
308.999
303.088
303.122
303.222
303.252
303.291
303.344
303.347
303.41
303.416
303.408
303.43
303.411
303.377
303.31
303.321
303.253
303.227
303.161
303.066
303.024
347.284
348.213
349.04
349.999
350.858
351.453
351.75
352.052
352.481
352.554
352.302
352.201
351.822
351.198
350.796
349.722
348.964
348.091
346.976
345.96
340.872
341.668
342.39
343.216
343.951
344.484
344.703
345.022
345.367
345.446
345.225
345.106
344.787
344.268
343.919
343.001
342.361
341.583
340.673
339.768
334.519
335.193
335.768
336.513
337.098
337.561
337.729
338.061
338.291
338.336
338.2
338.04
337.807
337.414
337.076
336.335
335.762
335.113
334.357
333.568
328.243
328.733
329.204
329.854
330.329
330.672
330.8
331.061
331.291
331.273
331.209
331.06
330.897
330.592
330.275
329.732
329.208
328.681
328.062
327.421
321.969
322.309
322.68
323.173
323.576
323.834
323.922
324.115
324.327
324.237
324.274
324.155
324.021
323.794
323.541
323.087
322.682
322.285
321.802
321.363
315.716
315.91
316.184
316.565
316.858
317.003
317.082
317.2
317.408
317.286
317.358
317.228
317.14
316.957
316.821
316.464
316.151
315.906
315.571
315.278
309.475
309.55
309.695
309.948
310.108
310.24
310.254
310.299
310.449
310.37
310.428
310.33
310.265
310.159
310.089
309.862
309.699
309.564
309.38
309.195
303.181
303.205
303.259
303.317
303.379
303.451
303.439
303.425
303.498
303.475
303.506
303.451
303.442
303.407
303.396
303.293
303.258
303.212
303.164
303.093
348.147
348.969
349.849
350.884
351.669
352.397
352.899
353.301
353.369
353.357
353.163
352.917
352.787
352.326
351.692
350.892
349.924
349.046
347.673
346.899
341.652
342.291
343.101
343.971
344.664
345.293
345.756
346.046
346.111
346.115
345.927
345.744
345.596
345.23
344.707
343.948
343.163
342.394
341.285
340.555
335.223
335.687
336.363
337.073
337.702
338.209
338.653
338.834
338.903
338.855
338.759
338.614
338.492
338.17
337.757
337.051
336.42
335.754
334.931
334.22
328.813
329.091
329.686
330.256
330.806
331.166
331.585
331.702
331.753
331.691
331.644
331.512
331.417
331.189
330.814
330.197
329.727
329.175
328.575
327.925
322.383
322.584
323.05
323.505
323.955
324.207
324.552
324.585
324.629
324.588
324.597
324.495
324.402
324.226
323.923
323.473
323.085
322.641
322.23
321.653
315.955
316.085
316.453
316.803
317.123
317.285
317.531
317.504
317.56
317.541
317.567
317.524
317.395
317.3
317.094
316.757
316.501
316.155
315.885
315.449
309.585
309.644
309.884
310.096
310.293
310.398
310.535
310.514
310.536
310.545
310.567
310.538
310.417
310.415
310.269
310.053
309.934
309.691
309.539
309.28
303.203
303.197
303.31
303.383
303.476
303.486
303.534
303.529
303.532
303.544
303.537
303.518
303.494
303.478
303.444
303.365
303.34
303.247
303.187
303.1
348.75
349.756
350.968
351.93
352.599
353.28
353.855
354.209
354.285
354.455
354.112
353.985
353.746
353.064
352.659
351.77
350.975
350.028
348.558
347.877
342.141
342.981
344.047
344.902
345.462
346.044
346.592
346.827
346.941
347.096
346.791
346.672
346.46
345.868
345.509
344.759
344.125
343.245
341.947
341.409
335.595
336.256
337.125
337.878
338.364
338.88
339.379
339.506
339.603
339.716
339.509
339.402
339.229
338.76
338.436
337.767
337.287
336.475
335.448
334.961
329.07
329.582
330.284
330.909
331.343
331.737
332.143
332.302
332.322
332.399
332.248
332.199
331.982
331.664
331.384
330.845
330.456
329.751
329.003
328.564
322.617
322.983
323.489
323.965
324.37
324.665
324.952
325.115
325.128
325.137
325.049
325
324.854
324.598
324.334
323.95
323.676
323.104
322.527
322.209
316.186
316.384
316.753
317.086
317.38
317.64
317.787
317.915
317.973
317.925
317.879
317.842
317.708
317.586
317.366
317.073
316.892
316.488
316.079
315.88
309.741
309.839
310.067
310.239
310.43
310.598
310.672
310.731
310.803
310.736
310.735
310.698
310.635
310.545
310.378
310.233
310.1
309.887
309.632
309.545
303.264
303.282
303.371
303.44
303.503
303.567
303.577
303.587
303.629
303.587
303.591
303.588
303.57
303.528
303.468
303.42
303.396
303.315
303.218
303.197
349.394
350.426
351.574
352.322
353.342
353.945
354.316
354.871
355.058
355.267
354.883
354.882
354.747
353.981
353.405
352.642
351.911
350.689
349.411
348.592
342.739
343.585
344.557
345.198
346.093
346.631
346.985
347.452
347.592
347.826
347.474
347.432
347.293
346.651
346.214
345.512
344.884
343.762
342.719
342.03
336.142
336.81
337.598
338.11
338.883
339.351
339.682
340.048
340.179
340.396
340.085
339.981
339.842
339.35
339.024
338.462
337.873
336.919
336.016
335.502
329.528
330.12
330.686
331.09
331.739
332.118
332.473
332.692
332.785
332.961
332.74
332.639
332.52
332.087
331.854
331.472
330.927
330.112
329.432
328.95
322.974
323.458
323.789
324.164
324.65
324.938
325.228
325.362
325.422
325.567
325.404
325.349
325.214
324.903
324.749
324.473
324.007
323.361
322.85
322.491
316.405
316.768
316.96
317.286
317.583
317.83
318.016
318.076
318.163
318.234
318.146
318.064
317.987
317.752
317.65
317.496
317.139
316.666
316.294
316.062
309.835
310.069
310.19
310.383
310.573
310.732
310.815
310.845
310.927
310.952
310.868
310.837
310.796
310.621
310.589
310.478
310.275
309.971
309.771
309.65
303.304
303.389
303.404
303.491
303.552
303.595
303.626
303.65
303.68
303.674
303.643
303.62
303.63
303.551
303.534
303.502
303.441
303.343
303.274
303.236
349.975
351.035
352.075
353.127
354.028
354.717
355.079
355.608
355.706
355.951
355.747
355.572
355.366
354.615
354.105
353.36
352.321
351.238
350.106
349.236
343.262
344.143
345.026
345.909
346.703
347.33
347.587
348.017
348.174
348.4
348.165
348.053
347.851
347.204
346.774
346.142
345.273
344.269
343.355
342.591
336.518
337.28
338.072
338.761
339.45
340.009
340.17
340.48
340.698
340.89
340.638
340.561
340.388
339.879
339.509
338.988
338.246
337.385
336.615
335.948
329.845
330.522
331.088
331.664
332.244
332.678
332.84
332.993
333.239
333.38
333.193
333.105
333.009
332.575
332.337
331.89
331.267
330.536
329.849
329.355
323.177
323.762
324.143
324.62
325.062
325.374
325.53
325.582
325.82
325.908
325.79
325.682
325.666
325.292
325.158
324.762
324.311
323.728
323.134
322.795
316.572
316.976
317.244
317.554
317.901
318.101
318.208
318.236
318.432
318.494
318.389
318.337
318.321
318.056
317.961
317.665
317.367
316.952
316.496
316.278
309.969
310.179
310.344
310.539
310.745
310.831
310.923
310.917
311.068
311.106
311.043
311.011
311.01
310.814
310.765
310.565
310.413
310.182
309.9
309.764
303.321
303.409
303.461
303.5
303.604
303.618
303.647
303.646
303.709
303.713
303.711
303.7
303.689
303.607
303.612
303.523
303.478
303.419
303.318
303.26
350.534
351.343
352.699
353.773
354.681
355.368
355.704
356.307
356.418
356.511
356.535
356.137
355.733
355.273
354.722
353.883
352.913
351.758
350.877
349.939
343.691
344.369
345.553
346.535
347.253
347.869
348.133
348.645
348.785
348.831
348.901
348.528
348.138
347.816
347.297
346.597
345.728
344.757
343.999
343.209
336.901
337.502
338.483
339.31
339.874
340.4
340.627
341.02
341.187
341.195
341.327
340.988
340.639
340.359
339.884
339.405
338.607
337.787
337.175
336.482
330.109
330.642
331.444
332.083
332.598
333.012
333.138
333.427
333.653
333.622
333.744
333.473
333.161
332.971
332.548
332.17
331.528
330.855
330.377
329.762
323.404
323.839
324.413
324.906
325.392
325.619
325.712
325.948
326.172
326.098
326.173
325.957
325.761
325.559
325.302
324.973
324.503
323.946
323.572
323.102
316.682
317.02
317.459
317.77
318.103
318.288
318.32
318.528
318.689
318.582
318.67
318.541
318.386
318.204
318.045
317.823
317.541
317.095
316.823
316.529
309.991
310.24
310.482
310.637
310.839
311
310.983
311.103
311.171
311.122
311.178
311.11
311.009
310.893
310.828
310.703
310.556
310.299
310.106
309.909
303.336
303.443
303.516
303.561
303.623
303.699
303.682
303.715
303.739
303.737
303.737
303.713
303.686
303.654
303.649
303.58
303.541
303.462
303.376
303.313
350.964
351.599
353.086
354.403
355.199
355.97
356.297
356.787
356.904
356.951
357.015
356.649
356.405
355.762
355.219
354.302
353.286
352.305
351.127
350.11
344.049
344.603
345.946
347.024
347.737
348.383
348.654
349.098
349.161
349.255
349.327
348.974
348.75
348.22
347.752
346.917
346.039
345.227
344.256
343.316
337.197
337.666
338.807
339.687
340.274
340.875
341.07
341.445
341.484
341.537
341.681
341.353
341.172
340.74
340.307
339.67
338.875
338.185
337.423
336.583
330.369
330.799
331.703
332.401
332.897
333.363
333.547
333.831
333.876
333.897
334.061
333.696
333.606
333.255
332.901
332.455
331.779
331.22
330.599
329.908
323.552
323.946
324.621
325.119
325.562
325.912
326.109
326.311
326.297
326.35
326.52
326.092
326.094
325.827
325.55
325.298
324.667
324.258
323.768
323.257
316.804
317.094
317.584
317.909
318.264
318.479
318.649
318.79
318.76
318.828
318.971
318.566
318.635
318.426
318.256
318.095
317.62
317.311
316.961
316.612
310.113
310.248
310.536
310.743
310.984
311.069
311.203
311.294
311.263
311.306
311.378
311.108
311.195
311.059
310.966
310.875
310.599
310.399
310.153
309.948
303.403
303.424
303.52
303.592
303.7
303.72
303.761
303.773
303.768
303.78
303.795
303.731
303.764
303.697
303.7
303.645
303.566
303.489
303.39
303.332
351.32
352.174
353.515
354.477
355.49
356.383
356.508
357.195
357.362
357.469
357.439
357.081
356.659
356.281
355.48
354.824
353.898
352.652
351.412
350.115
344.35
345.088
346.248
347.078
347.982
348.754
348.864
349.408
349.573
349.661
349.657
349.377
348.988
348.669
347.979
347.409
346.626
345.523
344.464
343.408
337.443
338.077
339.012
339.738
340.537
341.183
341.268
341.686
341.848
341.934
341.906
341.641
341.383
341.091
340.502
340
339.338
338.417
337.575
336.686
330.546
331.056
331.81
332.451
333.114
333.594
333.651
334.01
334.182
334.252
334.2
333.988
333.805
333.517
333.051
332.689
332.135
331.327
330.645
330.028
323.688
324.149
324.705
325.197
325.725
326.038
326.16
326.38
326.576
326.587
326.522
326.389
326.273
325.993
325.661
325.389
324.965
324.298
323.818
323.352
316.892
317.257
317.596
317.982
318.329
318.577
318.685
318.821
318.983
318.973
318.929
318.799
318.739
318.561
318.313
318.124
317.88
317.323
316.993
316.678
310.135
310.371
310.549
310.789
311.033
311.168
311.231
311.327
311.408
311.388
311.351
311.274
311.236
311.131
310.963
310.885
310.744
310.359
310.193
310.014
303.39
303.472
303.536
303.635
303.711
303.706
303.75
303.801
303.822
303.82
303.81
303.765
303.775
303.727
303.682
303.662
303.612
303.477
303.41
303.346
351.335
352.295
353.485
354.528
355.607
356.389
356.89
357.424
357.487
357.599
357.568
357.251
356.887
356.396
355.656
354.756
353.97
352.925
351.664
350.427
344.402
345.204
346.171
347.102
348.04
348.764
349.208
349.606
349.703
349.77
349.741
349.496
349.123
348.755
348.09
347.365
346.671
345.812
344.695
343.658
337.495
338.17
338.983
339.764
340.532
341.155
341.582
341.844
341.964
341.989
341.945
341.718
341.425
341.101
340.558
340.012
339.451
338.678
337.759
336.907
330.596
331.14
331.827
332.418
333.091
333.612
334.005
334.119
334.265
334.291
334.193
334.033
333.775
333.561
333.091
332.696
332.222
331.612
330.893
330.176
323.748
324.18
324.726
325.135
325.672
326.093
326.445
326.505
326.609
326.661
326.507
326.412
326.217
326.051
325.672
325.398
325.004
324.557
324.017
323.429
316.93
317.269
317.648
317.952
318.303
318.641
318.889
318.907
318.987
319.044
318.898
318.894
318.688
318.57
318.305
318.149
317.833
317.555
317.166
316.716
310.196
310.384
310.605
310.764
310.965
311.163
311.344
311.341
311.398
311.45
311.359
311.345
311.217
311.146
310.982
310.9
310.69
310.57
310.338
310.003
303.434
303.474
303.557
303.619
303.673
303.723
303.785
303.784
303.815
303.836
303.813
303.794
303.75
303.721
303.677
303.656
303.584
303.537
303.464
303.331
)
;

boundaryField
{
    hotSide
    {
        type            fixedGradient;
        gradient        nonuniform List<scalar> 
400
(
373.361
388.213
402.85
417.208
431.222
444.825
457.952
470.541
482.528
493.853
504.458
514.288
523.293
531.423
538.636
544.895
550.165
554.418
557.633
559.792
381.508
396.787
411.852
426.634
441.067
455.084
468.617
481.601
493.971
505.665
516.623
526.788
536.107
544.532
552.017
558.522
564.014
568.462
571.844
574.142
388.626
404.293
419.745
434.914
449.73
464.124
478.028
491.374
504.095
516.128
527.411
537.886
547.497
556.195
563.933
570.669
576.369
581.001
584.543
586.974
394.693
410.705
426.504
442.017
457.176
471.909
486.146
499.818
512.856
525.196
536.773
547.529
557.406
566.353
574.323
581.272
587.164
591.969
595.659
598.218
399.694
416.007
432.108
447.923
463.383
478.413
492.943
506.902
520.22
532.831
544.67
555.676
565.791
574.961
583.139
590.281
596.348
601.309
605.137
607.814
403.624
420.192
436.548
452.62
468.335
483.619
498.4
512.605
526.164
539.009
551.074
562.297
572.618
581.984
590.345
597.656
603.879
608.98
612.933
615.718
406.485
423.259
439.823
456.104
472.028
487.521
502.508
516.916
530.675
543.715
555.968
567.373
577.868
587.399
595.916
603.372
609.729
614.952
619.015
621.896
408.283
425.214
441.937
458.378
474.463
490.117
505.264
519.831
533.747
546.94
559.343
570.893
581.528
591.192
599.835
607.411
613.879
619.205
623.361
626.325
409.031
426.068
442.899
459.451
475.647
491.414
506.674
521.354
535.382
548.686
561.199
572.855
583.594
593.359
602.099
609.766
616.32
621.728
625.959
628.993
408.743
425.835
442.723
459.334
475.593
491.422
506.748
521.494
535.589
548.961
561.541
573.265
584.071
593.902
602.706
610.437
617.053
622.52
626.808
629.896
407.437
424.531
441.426
458.045
474.315
490.158
505.5
520.265
534.381
547.776
560.382
572.133
582.969
592.831
601.668
609.433
616.085
621.587
625.913
629.039
405.131
422.177
439.025
455.602
471.832
487.639
502.949
517.685
531.776
545.15
557.739
569.478
580.305
590.163
599
606.769
613.429
618.945
623.288
626.435
401.846
418.792
435.544
452.027
468.167
483.888
499.116
513.776
527.796
541.104
553.634
565.319
576.1
585.918
594.723
602.467
609.109
614.614
618.954
622.105
397.603
414.399
431.003
447.342
463.342
478.928
494.026
508.563
522.466
535.665
548.093
559.686
570.382
580.125
588.865
596.554
603.151
608.622
612.938
616.078
392.426
409.021
425.427
441.573
457.384
472.787
487.708
502.076
515.817
528.864
541.149
552.609
563.184
572.818
581.46
589.064
595.591
601.005
605.278
608.389
386.336
402.683
418.844
434.748
450.322
465.495
480.194
494.346
507.883
520.735
532.837
544.126
554.544
564.035
572.549
580.041
586.471
591.805
596.016
599.081
379.362
395.413
411.281
426.897
442.189
457.087
471.518
485.413
498.702
511.319
523.199
534.281
544.507
553.822
562.178
569.53
575.84
581.073
585.203
588.208
371.53
387.241
402.772
418.056
433.021
447.6
461.721
475.317
488.319
500.663
512.284
523.124
533.125
542.234
550.404
557.59
563.756
568.868
572.899
575.83
362.873
378.201
393.353
408.262
422.86
437.078
450.85
464.107
476.785
488.819
500.147
510.711
520.456
529.331
537.288
544.285
550.285
555.257
559.174
562.017
353.428
368.334
383.066
397.561
411.752
425.572
438.957
451.839
464.157
475.847
486.85
497.108
506.569
515.182
522.902
529.687
535.502
540.317
544.105
546.849
)
;
    }
    coldSide
    {
        type            mixed;
        refValue        uniform 300;
        refGradient     uniform 0;
        valueFraction   uniform 0.991591;
        source          uniform 0;
        value           nonuniform List<scalar> 
400
(
300.02
300.02
300.021
300.021
300.022
300.023
300.024
300.024
300.025
300.025
300.026
300.027
300.027
300.027
300.028
300.028
300.028
300.029
300.029
300.029
300.02
300.02
300.021
300.021
300.022
300.023
300.024
300.024
300.025
300.026
300.026
300.027
300.027
300.028
300.028
300.029
300.029
300.029
300.029
300.029
300.021