/*--------------------------------*- C++ -*----------------------------------*\
| =========                 |                                                 |
| \\      /  F ield         | OpenFOAM: The Open Source CFD Toolbox           |
|  \\    /   O peration     | Version:  2212                                  |
|   \\  /    A nd           | Website:  www.openfoam.com                      |
|    \\/     M anipulation  |                                                 |
\*---------------------------------------------------------------------------*/
FoamFile
{
    version     2.0;
    format      ascii;
    arch        "LSB;label=32;scalar=64";
    class       volScalarField;
    location    "0";
    object      Ttrue;
}
// * * * * * * * * * * * * * * * * * * * * * * * * * * * * * * * * * * * * * //

dimensions      [0 0 0 1 0 0 0];

internalField   nonuniform List<scalar> 
3200
(
327.468
327.893
328.436
329.027
329.636
330.233
330.785
331.251
331.59
331.769
331.769
331.59
331.251
330.785
330.233
329.636
329.027
328.436
327.893
327.468
323.926
324.285
324.753
325.265
325.792
326.309
326.785
327.188
327.481
327.635
327.635
327.481
327.188
326.785
326.309
325.792
325.265
324.753
324.285
323.926
320.332
320.631
321.025
321.457
321.902
322.339
322.742
323.081
323.329
323.459
323.459
323.329
323.081
322.742
322.339
321.902
321.457
321.025
320.631
320.332
316.697
316.937
317.258
317.611
317.975
318.332
318.661
318.938
319.14
319.247
319.247
319.14
318.938
318.661
318.332
317.975
317.611
317.258
316.937
316.697
313.026
313.21
313.46
313.734
314.017
314.294
314.55
314.765
314.922
315.004
315.004
314.922
314.765
314.55
314.294
314.017
313.734
313.46
313.21
313.026
309.328
309.459
309.636
309.832
310.034
310.232
310.415
310.568
310.68
310.739
310.739
310.68
310.568
310.415
310.232
310.034
309.832
309.636
309.459
309.328
305.611
305.689
305.795
305.913
306.034
306.153
306.263
306.355
306.422
306.457
306.457
306.422
306.355
306.263
306.153
306.034
305.913
305.795
305.689
305.611
301.882
301.908
301.944
301.983
302.024
302.064
302.1
302.131
302.154
302.166
302.166
302.154
302.131
302.1
302.064
302.024
301.983
301.944
301.908
301.882
327.555
327.976
328.514
329.1
329.702
330.293
330.839
331.299
331.633
331.81
331.81
331.633
331.299
330.839
330.293
329.702
329.1
328.514
327.976
327.555
324.001
324.358
324.821
325.328
325.85
326.361
326.832
327.23
327.519
327.672
327.672
327.519
327.23
326.832
326.361
325.85
325.328
324.821
324.358
324.001
320.396
320.692
321.083
321.511
321.952
322.384
322.782
323.117
323.361
323.49
323.49
323.361
323.117
322.782
322.384
321.952
321.511
321.083
320.692
320.396
316.749
316.987
317.306
317.656
318.016
318.369
318.694
318.968
319.167
319.272
319.272
319.167
318.968
318.694
318.369
318.016
317.656
317.306
316.987
316.749
313.067
313.25
313.497
313.769
314.049
314.323
314.576
314.788
314.943
315.025
315.025
314.943
314.788
314.576
314.323
314.049
313.769
313.497
313.25
313.067
309.357
309.487
309.663
309.857
310.057
310.253
310.433
310.585
310.696
310.754
310.754
310.696
310.585
310.433
310.253
310.057
309.857
309.663
309.487
309.357
305.629
305.706
305.812
305.928
306.048
306.166
306.274
306.365
306.431
306.466
306.466
306.431
306.365
306.274
306.166
306.048
305.928
305.812
305.706
305.629
301.888
301.914
301.949
301.988
302.029
302.068
302.104
302.135
302.157
302.169
302.169
302.157
302.135
302.104
302.068
302.029
301.988
301.949
301.914
301.888
327.728
328.143
328.671
329.246
329.837
330.415
330.948
331.396
331.723
331.895
331.895
331.723
331.396
330.948
330.415
329.837
329.246
328.671
328.143
327.728
324.152
324.503
324.959
325.456
325.967
326.468
326.928
327.316
327.598
327.746
327.746
327.598
327.316
326.928
326.468
325.967
325.456
324.959
324.503
324.152
320.524
320.816
321.2
321.62
322.052
322.475
322.864
323.191
323.429
323.554
323.554
323.429
323.191
322.864
322.475
322.052
321.62
321.2
320.816
320.524
316.854
317.089
317.402
317.745
318.099
318.444
318.762
319.029
319.223
319.325
319.325
319.223
319.029
318.762
318.444
318.099
317.745
317.402
317.089
316.854
313.149
313.329
313.572
313.839
314.113
314.382
314.629
314.836
314.987
315.066
315.066
314.987
314.836
314.629
314.382
314.113
313.839
313.572
313.329
313.149
309.416
309.544
309.717
309.907
310.103
310.295
310.471
310.619
310.727
310.784
310.784
310.727
310.619
310.471
310.295
310.103
309.907
309.717
309.544
309.416
305.664
305.74
305.844
305.958
306.076
306.191
306.297
306.386
306.45
306.484
306.484
306.45
306.386
306.297
306.191
306.076
305.958
305.844
305.74
305.664
301.9
301.925
301.96
301.998
302.038
302.077
302.112
302.142
302.163
302.175
302.175
302.163
302.142
302.112
302.077
302.038
301.998
301.96
301.925
301.9
327.989
328.394
328.909
329.468
330.041
330.601
331.116
331.548
331.862
332.028
332.028
331.862
331.548
331.116
330.601
330.041
329.468
328.909
328.394
327.989
324.379
324.722
325.166
325.65
326.146
326.63
327.075
327.449
327.72
327.864
327.864
327.72
327.449
327.075
326.63
326.146
325.65
325.166
324.722
324.379
320.718
321.002
321.377
321.785
322.205
322.614
322.99
323.305
323.534
323.655
323.655
323.534
323.305
322.99
322.614
322.205
321.785
321.377
321.002
320.718
317.013
317.242
317.547
317.881
318.224
318.558
318.865
319.123
319.31
319.409
319.409
319.31
319.123
318.865
318.558
318.224
317.881
317.547
317.242
317.013
313.273
313.448
313.685
313.945
314.211
314.471
314.71
314.91
315.055
315.132
315.132
315.055
314.91
314.71
314.471
314.211
313.945
313.685
313.448
313.273
309.505
309.629
309.798
309.983
310.174
310.359
310.53
310.673
310.776
310.831
310.831
310.776
310.673
310.53
310.359
310.174
309.983
309.798
309.629
309.505
305.717
305.791
305.893
306.004
306.118
306.23
306.332
306.418
306.48
306.513
306.513
306.48
306.418
306.332
306.23
306.118
306.004
305.893
305.791
305.717
301.918
301.943
301.977
302.014
302.052
302.089
302.124
302.152
302.173
302.184
302.184
302.173
302.152
302.124
302.089
302.052
302.014
301.977
301.943
301.918
328.339
328.731
329.23
329.769
330.32
330.856
331.348
331.76
332.059
332.216
332.216
332.059
331.76
331.348
330.856
330.32
329.769
329.23
328.731
328.339
324.683
325.016
325.446
325.912
326.389
326.854
327.279
327.635
327.893
328.029
328.029
327.893
327.635
327.279
326.854
326.389
325.912
325.446
325.016
324.683
320.976
321.252
321.614
322.009
322.412
322.804
323.163
323.464
323.682
323.797
323.797
323.682
323.464
323.163
322.804
322.412
322.009
321.614
321.252
320.976
317.225
317.447
317.743
318.065
318.394
318.715
319.009
319.255
319.433
319.526
319.526
319.433
319.255
319.009
318.715
318.394
318.065
317.743
317.447
317.225
313.438
313.609
313.838
314.088
314.345
314.594
314.822
315.013
315.151
315.224
315.224
315.151
315.013
314.822
314.594
314.345
314.088
313.838
313.609
313.438
309.623
309.744
309.907
310.086
310.269
310.447
310.61
310.746
310.845
310.897
310.897
310.845
310.746
310.61
310.447
310.269
310.086
309.907
309.744
309.623
305.789
305.861
305.959
306.066
306.176
306.283
306.38
306.462
306.522
306.553
306.553
306.522
306.462
306.38
306.283
306.176
306.066
305.959
305.861
305.789
301.942
301.966
301.999
302.035
302.071
302.107
302.14
302.167
302.187
302.198
302.198
302.187
302.167
302.14
302.107
302.071
302.035
301.999
301.966
301.942
328.779
329.157
329.635
330.151
330.676
331.185
331.65
332.039
332.32
332.468
332.468
332.32
332.039
331.65
331.185
330.676
330.151
329.635
329.157
328.779
325.067
325.387
325.799
326.246
326.7
327.141
327.543
327.88
328.123
328.251
328.251
328.123
327.88
327.543
327.141
326.7
326.246
325.799
325.387
325.067
321.302
321.567
321.915
322.292
322.677
323.049
323.389
323.673
323.879
323.986
323.986
323.879
323.673
323.389
323.049
322.677
322.292
321.915
321.567
321.302
317.493
317.706
317.99
318.298
318.612
318.917
319.195
319.427
319.595
319.683
319.683
319.595
319.427
319.195
318.917
318.612
318.298
317.99
317.706
317.493
313.647
313.811
314.031
314.27
314.515
314.752
314.968
315.148
315.278
315.347
315.347
315.278
315.148
314.968
314.752
314.515
314.27
314.031
313.811
313.647
309.773
309.889
310.046
310.217
310.391
310.56
310.715
310.843
310.936
310.985
310.985
310.936
310.843
310.715
310.56
310.391
310.217
310.046
309.889
309.773
305.878
305.948
306.042
306.144
306.249
306.351
306.443
306.521
306.576
306.606
306.606
306.576
306.521
306.443
306.351
306.249
306.144
306.042
305.948
305.878
301.972
301.995
302.027
302.061
302.096
302.13
302.161
302.187
302.206
302.216
302.216
302.206
302.187
302.161
302.13
302.096
302.061
302.027
301.995
301.972
329.311
329.673
330.128
330.618
331.114
331.594
332.03
332.393
332.655
332.793
332.793
332.655
332.393
332.03
331.594
331.114
330.618
330.128
329.673
329.311
325.531
325.836
326.23
326.653
327.083
327.498
327.875
328.19
328.416
328.535
328.535
328.416
328.19
327.875
327.498
327.083
326.653
326.23
325.836
325.531
321.696
321.95
322.281
322.639
323.002
323.353
323.672
323.938
324.129
324.23
324.23
324.129
323.938
323.672
323.353
323.002
322.639
322.281
321.95
321.696
317.816
318.02
318.291
318.583
318.88
319.167
319.428
319.645
319.801
319.883
319.883
319.801
319.645
319.428
319.167
318.88
318.583
318.291
318.02
317.816
313.899
314.056
314.266
314.493
314.724
314.947
315.15
315.319
315.44
315.504
315.504
315.44
315.319
315.15
314.947
314.724
314.493
314.266
314.056
313.899
309.954
310.065
310.214
310.376
310.541
310.701
310.845
310.966
311.053
311.098
311.098
311.053
310.966
310.845
310.701
310.541
310.376
310.214
310.065
309.954
305.987
306.053
306.143
306.241
306.34
306.435
306.522
306.594
306.647
306.674
306.674
306.647
306.594
306.522
306.435
306.34
306.241
306.143
306.053
305.987
302.008
302.03
302.06
302.093
302.126
302.158
302.188
302.212
302.229
302.238
302.238
302.229
302.212
302.188
302.158
302.126
302.093
302.06
302.03
302.008
329.938
330.281
330.713
331.174
331.639
332.087
332.493
332.829
333.071
333.198
333.198
333.071
332.829
332.493
332.087
331.639
331.174
330.713
330.281
329.938
326.076
326.367
326.739
327.138
327.541
327.929
328.28
328.571
328.781
328.89
328.89
328.781
328.571
328.28
327.929
327.541
327.138
326.739
326.367
326.076
322.16
322.401
322.714
323.052
323.393
323.721
324.017
324.263
324.44
324.533
324.533
324.44
324.263
324.017
323.721
323.393
323.052
322.714
322.401
322.16
318.197
318.391
318.647
318.923
319.201
319.47
319.712
319.913
320.058
320.134
320.134
320.058
319.913
319.712
319.47
319.201
318.923
318.647
318.391
318.197
314.196
314.345
314.544
314.758
314.975
315.183
315.372
315.528
315.641
315.7
315.7
315.641
315.528
315.372
315.183
314.975
314.758
314.544
314.345
314.196
310.166
310.272
310.413
310.566
310.721
310.87
311.005
311.116
311.197
311.239
311.239
311.197
311.116
311.005
310.87
310.721
310.566
310.413
310.272
310.166
306.115
306.178
306.263
306.355
306.448
306.537
306.618
306.685
306.733
306.758
306.758
306.733
306.685
306.618
306.537
306.448
306.355
306.263
306.178
306.115
302.051
302.072
302.101
302.132
302.163
302.193
302.22
302.242
302.258
302.267
302.267
302.258
302.242
302.22
302.193
302.163
302.132
302.101
302.072
302.051
330.661
330.985
331.391
331.823
332.257
332.672
333.046
333.356
333.577
333.693
333.693
333.577
333.356
333.046
332.672
332.257
331.823
331.391
330.985
330.661
326.706
326.98
327.33
327.704
328.08
328.44
328.764
329.031
329.223
329.324
329.324
329.223
329.031
328.764
328.44
328.08
327.704
327.33
326.98
326.706
322.695
322.922
323.217
323.534
323.851
324.155
324.429
324.656
324.818
324.903
324.903
324.818
324.656
324.429
324.155
323.851
323.534
323.217
322.922
322.695
318.636
318.819
319.06
319.318
319.578
319.827
320.051
320.236
320.369
320.438
320.438
320.369
320.236
320.051
319.827
319.578
319.318
319.06
318.819
318.636
314.539
314.68
314.866
315.067
315.269
315.463
315.637
315.781
315.884
315.938
315.938
315.884
315.781
315.637
315.463
315.269
315.067
314.866
314.68
314.539
310.412
310.511
310.644
310.788
310.932
311.07
311.195
311.297
311.371
311.41
311.41
311.371
311.297
311.195
311.07
310.932
310.788
310.644
310.511
310.412
306.263
306.322
306.402
306.488
306.575
306.658
306.732
306.794
306.838
306.861
306.861
306.838
306.794
306.732
306.658
306.575
306.488
306.402
306.322
306.263
302.101
302.121
302.147
302.176
302.205
302.233
302.258
302.279
302.294
302.301
302.301
302.294
302.279
302.258
302.233
302.205
302.176
302.147
302.121
302.101
331.482
331.787
332.167
332.569
332.97
333.353
333.696
333.979
334.181
334.286
334.286
334.181
333.979
333.696
333.353
332.97
332.569
332.167
331.787
331.482
327.421
327.679
328.006
328.355
328.703
329.034
329.331
329.576
329.751
329.842
329.842
329.751
329.576
329.331
329.034
328.703
328.355
328.006
327.679
327.421
323.302
323.516
323.792
324.087
324.381
324.661
324.913
325.12
325.267
325.344
325.344
325.267
325.12
324.913
324.661
324.381
324.087
323.792
323.516
323.302
319.135
319.307
319.532
319.773
320.014
320.243
320.449
320.618
320.739
320.802
320.802
320.739
320.618
320.449
320.243
320.014
319.773
319.532
319.307
319.135
314.928
315.06
315.235
315.422
315.609
315.788
315.947
316.079
316.173
316.222
316.222
316.173
316.079
315.947
315.788
315.609
315.422
315.235
315.06
314.928
310.69
310.784
310.908
311.042
311.176
311.303
311.417
311.511
311.578
311.613
311.613
311.578
311.511
311.417
311.303
311.176
311.042
310.908
310.784
310.69
306.43
306.486
306.561
306.641
306.721
306.798
306.866
306.923
306.963
306.984
306.984
306.963
306.923
306.866
306.798
306.721
306.641
306.561
306.486
306.43
302.157
302.176
302.201
302.228
302.254
302.28
302.303
302.322
302.336
302.343
302.343
302.336
302.322
302.303
302.28
302.254
302.228
302.201
302.176
302.157
332.403
332.688
333.042
333.414
333.784
334.135
334.448
334.704
334.887
334.983
334.983
334.887
334.704
334.448
334.135
333.784
333.414
333.042
332.688
332.403
328.223
328.464
328.769
329.092
329.412
329.716
329.987
330.21
330.368
330.45
330.45
330.368
330.21
329.987
329.716
329.412
329.092
328.769
328.464
328.223
323.984
324.184
324.441
324.714
324.985
325.242
325.471
325.659
325.793
325.863
325.863
325.793
325.659
325.471
325.242
324.985
324.714
324.441
324.184
323.984
319.695
319.856
320.065
320.288
320.51
320.72
320.908
321.062
321.171
321.228
321.228
321.171
321.062
320.908
320.72
320.51
320.288
320.065
319.856
319.695
315.365
315.488
315.651
315.824
315.997
316.16
316.306
316.426
316.511
316.555
316.555
316.511
316.426
316.306
316.16
315.997
315.824
315.651
315.488
315.365
311.003
311.09
311.206
311.33
311.453
311.57
311.674
311.76
311.821
311.852
311.852
311.821
311.76
311.674
311.57
311.453
311.33
311.206
311.09
311.003
306.618
306.67
306.74
306.814
306.888
306.959
307.021
307.073
307.109
307.128
307.128
307.109
307.073
307.021
306.959
306.888
306.814
306.74
306.67
306.618
302.22
302.237
302.261
302.286
302.311
302.334
302.355
302.372
302.384
302.391
302.391
302.384
302.372
302.355
302.334
302.311
302.286
302.261
302.237
302.22
333.426
333.692
334.019
334.363
334.702
335.022
335.306
335.538
335.703
335.788
335.788
335.703
335.538
335.306
335.022
334.702
334.363
334.019
333.692
333.426
329.114
329.338
329.621
329.919
330.213
330.49
330.736
330.937
331.08
331.154
331.154
331.08
330.937
330.736
330.49
330.213
329.919
329.621
329.338
329.114
324.741
324.927
325.165
325.417
325.666
325.9
326.108
326.278
326.399
326.462
326.462
326.399
326.278
326.108
325.9
325.666
325.417
325.165
324.927
324.741
320.316
320.466
320.66
320.866
321.07
321.261
321.432
321.571
321.67
321.721
321.721
321.67
321.571
321.432
321.261
321.07
320.866
320.66
320.466
320.316
315.849
315.964
316.115
316.275
316.433
316.583
316.715
316.823
316.9
316.94
316.94
316.9
316.823
316.715
316.583
316.433
316.275
316.115
315.964
315.849
311.35
311.431
311.539
311.653
311.766
311.873
311.968
312.045
312.1
312.128
312.128
312.1
312.045
311.968
311.873
311.766
311.653
311.539
311.431
311.35
306.827
306.876
306.94
307.009
307.077
307.141
307.198
307.244
307.277
307.294
307.294
307.277
307.244
307.198
307.141
307.077
307.009
306.94
306.876
306.827
302.29
302.306
302.328
302.351
302.374
302.395
302.414
302.43
302.441
302.447
302.447
302.441
302.43
302.414
302.395
302.374
302.351
302.328
302.306
302.29
334.552
334.798
335.101
335.416
335.726
336.017
336.274
336.483
336.631
336.707
336.707
336.631
336.483
336.274
336.017
335.726
335.416
335.101
334.798
334.552
330.094
330.303
330.564
330.837
331.106
331.357
331.58
331.761
331.889
331.956
331.956
331.889
331.761
331.58
331.357
331.106
330.837
330.564
330.303
330.094
325.574
325.746
325.966
326.197
326.425
326.638
326.826
326.98
327.088
327.144
327.144
327.088
326.98
326.826
326.638
326.425
326.197
325.966
325.746
325.574
321
321.139
321.318
321.507
321.693
321.868
322.022
322.147
322.236
322.282
322.282
322.236
322.147
322.022
321.868
321.693
321.507
321.318
321.139
321
316.383
316.489
316.629
316.776
316.92
317.056
317.176
317.274
317.343
317.378
317.378
317.343
317.274
317.176
317.056
316.92
316.776
316.629
316.489
316.383
311.732
311.807
311.907
312.012
312.115
312.212
312.298
312.367
312.417
312.442
312.442
312.417
312.367
312.298
312.212
312.115
312.012
311.907
311.807
311.732
307.057
307.102
307.161
307.224
307.287
307.345
307.396
307.438
307.468
307.483
307.483
307.468
307.438
307.396
307.345
307.287
307.224
307.161
307.102
307.057
302.367
302.382
302.402
302.423
302.444
302.464
302.481
302.495
302.505
302.51
302.51
302.505
302.495
302.481
302.464
302.444
302.423
302.402
302.382
302.367
335.781
336.009
336.287
336.576
336.859
337.122
337.353
337.541
337.673
337.742
337.742
337.673
337.541
337.353
337.122
336.859
336.576
336.287
336.009
335.781
331.164
331.357
331.597
331.847
332.092
332.32
332.521
332.684
332.798
332.858
332.858
332.798
332.684
332.521
332.32
332.092
331.847
331.597
331.357
331.164
326.483
326.642
326.845
327.056
327.264
327.457
327.627
327.764
327.861
327.912
327.912
327.861
327.764
327.627
327.457
327.264
327.056
326.845
326.642
326.483
321.746
321.875
322.04
322.213
322.382
322.54
322.679
322.792
322.872
322.913
322.913
322.872
322.792
322.679
322.54
322.382
322.213
322.04
321.875
321.746
316.965
317.063
317.192
317.326
317.458
317.581
317.689
317.777
317.839
317.871
317.871
317.839
317.777
317.689
317.581
317.458
317.326
317.192
317.063
316.965
312.148
312.218
312.31
312.406
312.5
312.588
312.665
312.728
312.772
312.795
312.795
312.772
312.728
312.665
312.588
312.5
312.406
312.31
312.218
312.148
307.307
307.349
307.404
307.462
307.518
307.571
307.617
307.655
307.682
307.695
307.695
307.682
307.655
307.617
307.571
307.518
307.462
307.404
307.349
307.307
302.451
302.465
302.483
302.503
302.522
302.54
302.555
302.568
302.577
302.581
302.581
302.577
302.568
302.555
302.54
302.522
302.503
302.483
302.465
302.451
337.112
337.322
337.578
337.841
338.098
338.336
338.544
338.712
338.83
338.892
338.892
338.83
338.712
338.544
338.336
338.098
337.841
337.578
337.322
337.112
332.322
332.5
332.721
332.949
333.171
333.378
333.558
333.704
333.807
333.86
333.86
333.807
333.704
333.558
333.378
333.171
332.949
332.721
332.5
332.322
327.466
327.613
327.799
327.993
328.181
328.355
328.508
328.632
328.718
328.763
328.763
328.718
328.632
328.508
328.355
328.181
327.993
327.799
327.613
327.466
322.553
322.672
322.823
322.981
323.135
323.278
323.404
323.505
323.576
323.612
323.612
323.576
323.505
323.404
323.278
323.135
322.981
322.823
322.672
322.553
317.594
317.685
317.803
317.926
318.045
318.157
318.254
318.333
318.388
318.416
318.416
318.388
318.333
318.254
318.157
318.045
317.926
317.803
317.685
317.594
312.599
312.663
312.747
312.835
312.921
313
313.07
313.126
313.166
313.186
313.186
313.166
313.126
313.07
313
312.921
312.835
312.747
312.663
312.599
307.578
307.617
307.667
307.72
307.771
307.819
307.861
307.895
307.918
307.93
307.93
307.918
307.895
307.861
307.819
307.771
307.72
307.667
307.617
307.578
302.542
302.555
302.572
302.589
302.607
302.623
302.637
302.648
302.656
302.66
302.66
302.656
302.648
302.637
302.623
302.607
302.589
302.572
302.555
302.542
338.538
338.732
338.966
339.206
339.439
339.654
339.841
339.991
340.097
340.151
340.151
340.097
339.991
339.841
339.654
339.439
339.206
338.966
338.732
338.538
333.563
333.726
333.928
334.137
334.338
334.525
334.687
334.817
334.909
334.956
334.956
334.909
334.817
334.687
334.525
334.338
334.137
333.928
333.726
333.563
328.519
328.654
328.824
329.001
329.171
329.329
329.466
329.577
329.654
329.694
329.694
329.654
329.577
329.466
329.329
329.171
329.001
328.824
328.654
328.519
323.416
323.525
323.664
323.809
323.948
324.077
324.19
324.28
324.344
324.376
324.376
324.344
324.28
324.19
324.077
323.948
323.809
323.664
323.525
323.416
318.267
318.35
318.458
318.57
318.679
318.78
318.867
318.938
318.987
319.012
319.012
318.987
318.938
318.867
318.78
318.679
318.57
318.458
318.35
318.267
313.08
313.14
313.216
313.297
313.374
313.446
313.509
313.559
313.594
313.612
313.612
313.594
313.559
313.509
313.446
313.374
313.297
313.216
313.14
313.08
307.868
307.903
307.949
307.997
308.044
308.087
308.125
308.155
308.176
308.187
308.187
308.176
308.155
308.125
308.087
308.044
307.997
307.949
307.903
307.868
302.639
302.651
302.666
302.682
302.698
302.713
302.725
302.735
302.742
302.746
302.746
302.742
302.735
302.725
302.713
302.698
302.682
302.666
302.651
302.639
340.044
340.222
340.436
340.655
340.866
341.06
341.228
341.362
341.457
341.505
341.505
341.457
341.362
341.228
341.06
340.866
340.655
340.436
340.222
340.044
334.87
335.02
335.205
335.395
335.578
335.746
335.891
336.008
336.09
336.132
336.132
336.09
336.008
335.891
335.746
335.578
335.395
335.205
335.02
334.87
329.626
329.75
329.906
330.067
330.222
330.364
330.487
330.586
330.656
330.691
330.691
330.656
330.586
330.487
330.364
330.222
330.067
329.906
329.75
329.626
324.323
324.423
324.55
324.682
324.809
324.925
325.026
325.107
325.164
325.193
325.193
325.164
325.107
325.026
324.925
324.809
324.682
324.55
324.423
324.323
318.972
319.049
319.148
319.25
319.349
319.44
319.518
319.581
319.626
319.648
319.648
319.626
319.581
319.518
319.44
319.349
319.25
319.148
319.049
318.972
313.585
313.639
313.71
313.783
313.853
313.918
313.974
314.019
314.051
314.067
314.067
314.051
314.019
313.974
313.918
313.853
313.783
313.71
313.639
313.585
308.171
308.203
308.245
308.289
308.332
308.371
308.404
308.432
308.45
308.46
308.46
308.45
308.432
308.404
308.371
308.332
308.289
308.245
308.203
308.171
302.741
302.752
302.766
302.78
302.795
302.808
302.819
302.828
302.834
302.838
302.838
302.834
302.828
302.819
302.808
302.795
302.78
302.766
302.752
302.741
341.588
341.752
341.948
342.148
342.339
342.514
342.666
342.787
342.871
342.914
342.914
342.871
342.787
342.666
342.514
342.339
342.148
341.948
341.752
341.588
336.203
336.342
336.511
336.685
336.851
337.003
337.134
337.239
337.312
337.35
337.35
337.312
337.239
337.134
337.003
336.851
336.685
336.511
336.342
336.203
330.751
330.865
331.008
331.155
331.296
331.425
331.536
331.625
331.687
331.719
331.719
331.687
331.625
331.536
331.425
331.296
331.155
331.008
330.865
330.751
325.241
325.333
325.45
325.57
325.685
325.791
325.882
325.955
326.006
326.032
326.032
326.006
325.955
325.882
325.791
325.685
325.57
325.45
325.333
325.241
319.685
319.756
319.846
319.94
320.029
320.112
320.183
320.239
320.279
320.299
320.299
320.279
320.239
320.183
320.112
320.029
319.94
319.846
319.756
319.685
314.093
314.143
314.208
314.274
314.339
314.397
314.448
314.489
314.517
314.532
314.532
314.517
314.489
314.448
314.397
314.339
314.274
314.208
314.143
314.093
308.475
308.505
308.544
308.584
308.623
308.658
308.689
308.713
308.73
308.739
308.739
308.73
308.713
308.689
308.658
308.623
308.584
308.544
308.505
308.475
302.843
302.853
302.866
302.879
302.892
302.904
302.914
302.922
302.928
302.931
302.931
302.928
302.922
302.914
302.904
302.892
302.879
302.866
302.853
302.843
343.068
343.219
343.4
343.584
343.759
343.919
344.056
344.165
344.242
344.281
344.281
344.242
344.165
344.056
343.919
343.759
343.584
343.4
343.219
343.068
337.466
337.594
337.751
337.91
338.062
338.201
338.32
338.416
338.482
338.516
338.516
338.482
338.416
338.32
338.201
338.062
337.91
337.751
337.594
337.466
331.804
331.91
332.043
332.178
332.307
332.425
332.526
332.607
332.663
332.692
332.692
332.663
332.607
332.526
332.425
332.307
332.178
332.043
331.91
331.804
326.093
326.178
326.286
326.397
326.503
326.599
326.682
326.749
326.795
326.818
326.818
326.795
326.749
326.682
326.599
326.503
326.397
326.286
326.178
326.093
320.341
320.407
320.49
320.577
320.659
320.734
320.799
320.851
320.887
320.905
320.905
320.887
320.851
320.799
320.734
320.659
320.577
320.49
320.407
320.341
314.558
314.605
314.665
314.726
314.785
314.839
314.886
314.922
314.948
314.961
314.961
314.948
314.922
314.886
314.839
314.785
314.726
314.665
314.605
314.558
308.754
308.781
308.817
308.854
308.89
308.922
308.95
308.972
308.988
308.996
308.996
308.988
308.972
308.95
308.922
308.89
308.854
308.817
308.781
308.754
302.936
302.945
302.957
302.97
302.981
302.992
303.002
303.009
303.014
303.017
303.017
303.014
303.009
303.002
302.992
302.981
302.97
302.957
302.945
302.936
344.221
344.363
344.533
344.705
344.869
345.018
345.146
345.247
345.318
345.354
345.354
345.318
345.247
345.146
345.018
344.869
344.705
344.533
344.363
344.221
338.412
338.533
338.681
338.831
338.974
339.104
339.215
339.304
339.365
339.397
339.397
339.365
339.304
339.215
339.104
338.974
338.831
338.681
338.533
338.412
332.57
332.67
332.795
332.923
333.044
333.155
333.25
333.325
333.377
333.404
333.404
333.377
333.325
333.25
333.155
333.044
332.923
332.795
332.67
332.57
326.697
326.778
326.88
326.985
327.084
327.175
327.253
327.315
327.358
327.38
327.38
327.358
327.315
327.253
327.175
327.084
326.985
326.88
326.778
326.697
320.797
320.86
320.939
321.021
321.099
321.17
321.231
321.279
321.313
321.33
321.33
321.313
321.279
321.231
321.17
321.099
321.021
320.939
320.86
320.797
314.878
314.922
314.979
315.037
315.093
315.144
315.187
315.222
315.246
315.258
315.258
315.246
315.222
315.187
315.144
315.093
315.037
314.979
314.922
314.878
308.943
308.969
309.003
309.038
309.072
309.103
309.129
309.15
309.164
309.172
309.172
309.164
309.15
309.129
309.103
309.072
309.038
309.003
308.969
308.943
302.999
303.008
303.019
303.031
303.042
303.052
303.061
303.068
303.073
303.076
303.076
303.073
303.068
303.061
303.052
303.042
303.031
303.019
303.008
302.999
)
;

boundaryField
{
    hotSide
    {
        type            fixedGradient;
        gradient        nonuniform List<scalar> 
400
(
278.768
279.647
281.409
284.064
287.623
292.102
297.521
303.897
311.252
319.606
328.979
339.39
350.855
363.39
377.008
391.72
407.538
424.467
442.515
461.685
284.359
285.193
286.869
289.396
292.793
297.081
302.282
308.423
315.529
323.627
332.742
342.896
354.111
366.403
379.789
394.282
409.892
426.627
444.495
463.499
290.409
291.191
292.762
295.14
298.345
302.406
307.353
313.22
320.04
327.846
336.667
346.533
357.468
369.492
382.623
396.877
412.264
428.792
446.469
465.297
296.818
297.538
298.99
301.193
304.177
307.978
312.636
318.193
324.691
332.17
340.668
350.218
360.849
372.585
385.445
399.446
414.598
430.912
448.391
467.041
303.408
304.059
305.375
307.383
310.121
313.634
317.974
323.192
329.341
336.47
344.622
353.839
364.151
375.588
388.169
401.912
416.828
432.925
450.208
468.68
309.903
310.48
311.652
313.452
315.929
319.139
323.144
328.01
333.799
340.568
348.371
357.251
367.246
378.386
390.694
404.185
418.873
434.763
451.859
470.163
315.932
316.435
317.462
319.057
321.275
324.186
327.865
332.388
337.829
344.255
351.725
360.288
369.987
380.852
392.907
406.169
420.649
436.352
453.281
471.435
321.049
321.485
322.383
323.792
325.778
328.423
331.813
336.035
341.172
347.299
354.481
362.774
372.219
382.851
394.695
407.765
422.072
437.621
454.413
472.444
324.793
325.178
325.977
327.244
329.055
331.498
334.67
338.665
343.574
349.479
356.449
364.541
373.801
384.264
395.953
408.885
423.068
438.507
455.2
473.145
326.777
327.135
327.879
329.07
330.785
333.119
336.172
340.045
344.832
350.618
357.474
365.461
374.623
384.996
396.604
409.463
423.581
438.962
455.605
473.505
326.777
327.135
327.879
329.07
330.785
333.119
336.172
340.045
344.832
350.618
357.474
365.461
374.623
384.996
396.604
409.463
423.581
438.962
455.605
473.505
324.793
325.178
325.977
327.244
329.055
331.498
334.67
338.665
343.574
349.479
356.449
364.541
373.801
384.264
395.953
408.885
423.068
438.507
455.2
473.145
321.049
321.485
322.383
323.792
325.778
328.423
331.813
336.035
341.172
347.299
354.481
362.774
372.219
382.851
394.695
407.765
422.072
437.621
454.413
472.444
315.932
316.435
317.462
319.057
321.275
324.186
327.865
332.388
337.829
344.255
351.725
360.288
369.987
380.852
392.907
406.169
420.649
436.352
453.281
471.435
309.903
310.48
311.652
313.452
315.929
319.139
323.144
328.01
333.799
340.568
348.371
357.251
367.246
378.386
390.694
404.185
418.873
434.763
451.859
470.163
303.408
304.059
305.375
307.383
310.121
313.634
317.974
323.192
329.341
336.47
344.622
353.839
364.151
375.588
388.169
401.912
416.828
432.925
450.208
468.68
296.818
297.538
298.99
301.193
304.177
307.978
312.636
318.193
324.691
332.17
340.668
350.218
360.849
372.585
385.445
399.446
414.598
430.912
448.391
467.041
290.409
291.191
292.762
295.14
298.345
302.406
307.353
313.22
320.04
327.846
336.667
346.533
357.468
369.492
382.623
396.877
412.264
428.792
446.469
465.297
284.359
285.193
286.869
289.396
292.793
297.081
302.282
308.423
315.529
323.627
332.742
342.896
354.111
366.403
379.789
394.282
409.892
426.627
444.495
463.499
278.768
279.647
281.409
284.064
287.623
292.102
297.521
303.897
311.252
319.606
328.979
339.39
350.855
363.39
377.008
391.72
407.538
424.467
442.515
461.685
)
;
    }
    coldSide
    {
        type            mixed;
        refValue        uniform 300;
        refGradient     uniform 0;
        valueFraction   uniform 0.991591;
        source          uniform 0;
        value           nonuniform List<scalar> 
400
(
300.016
300.016
300.016
300.016
300.016
300.017
300.017
300.017
300.018
300.018
300.019
300.019
300.02
300.021
300.021
300.022
300.023
300.024
300.025
300.025
300.016
300.016
300.016
300.016
300.017
300.017
300.017
300.017
300.018
300.018
300.019
300.019
300.02
300.021
300.021
300.022
300.023