/*--------------------------------*- C++ -*----------------------------------*\
| =========                 |                                                 |
| \\      /  F ield         | OpenFOAM: The Open Source CFD Toolbox           |
|  \\    /   O peration     | Version:  2212                                  |
|   \\  /    A nd           | Website:  www.openfoam.com                      |
|    \\/     M anipulation  |                                                 |
\*---------------------------------------------------------------------------*/
FoamFile
{
    version     2.0;
    format      ascii;
    arch        "LSB;label=32;scalar=64";
    class       volScalarField;
    location    "0";
    object      stateMean;
}
// * * * * * * * * * * * * * * * * * * * * * * * * * * * * * * * * * * * * * //

dimensions      [0 0 0 1 0 0 0];

internalField   nonuniform List<scalar> 
3200
(
324.369
327.632
326.89
327.708
329.474
328.382
330.157
328.017
327.085
332.103
329.225
329.478
329.56
327.851
330.063
326.466
327.868
327.554
326.612
326.159
323.707
323.918
324.942
324.764
323.675
324.854
324.479
325.947
326.788
325.385
323.345
324.261
324.198
323.748
326.111
326.709
323.621
323.859
323.301
320.924
321.403
318.691
320.699
321.881
320.021
321.358
321.629
322.997
317.824
321.28
322.02
320.761
320.01
324.709
321.759
320.935
320.429
319.12
319.343
320.715
318.302
315.765
315.336
314.511
317.925
316.077
315.076
321.141
318.749
315.361
317.04
318.511
317.763
316.441
315.674
316.946
317.212
316.797
316.57
317.727
314.756
311.635
312.432
311.512
312.198
315.5
310.858
313.322
314.219
314.307
314.539
314.386
315.053
315.834
313.792
314.443
315.144
312.957
313.147
313.379
308.32
308.296
310.305
310.964
310.355
309.727
309.45
310.557
309.166
307.488
310.8
309.865
310.34
310.839
309.263
310.237
308.52
310.502
308.451
309.395
305.541
305.334
304.862
305.864
303.887
306.625
306.238
304.884
302.745
302.726
304.821
307.26
307.136
305.528
307.629
303.188
304.643
304.998
304.997
305.208
300.963
302.687
304.392
301.158
302.423
300.011
303.021
303.602
299.828
303.284
302.485
303.986
301.035
302.783
303.094
299.895
300.328
301.951
304.287
301.057
328.044
326.111
327.608
328.385
329.124
331.035
329.232
326.986
329.147
330.275
329.626
330.783
329.382
329.503
330.443
330.149
329.435
329.579
330.621
327.641
323.92
325.839
322.625
327.683
326.567
328.761
326.696
329.438
324.874
329.777
330.448
327.321
329.237
325.539
328.771
325.82
326.884
323.341
326.551
321.914
318.598
318.292
319.003
319.41
323.341
320.018
320.781
324.14
320.146
322.561
322.46
321.571
322.532
321.659
321.318
321.618
319.336
318.244
319.058
320.59
316.981
316.598
317.414
318.399
317.85
317.635
316.125
318.5
319.199
318.799
317.014
320.122
318.458
318.879
320.521
317.45
317.559
317.986
317.485
314.256
314.952
311.974
315.257
314.271
312.688
312.051
313.005
313.261
313.598
312.55
315.347
313.684
312.713
313.081
313.961
314.258
314.079
312.729
315.524
316.536
309.352
308.79
311.749
306.273
308.733
311.624
310.468
311.931
311.196
309.437
308.545
309.947
310.519
309.807
307.617
309.073
309.264
309.215
307.616
307.974
305.469
305.551
305.934
305.072
305.851
305.309
304.64
304.689
306.279
305.07
305.797
306.07
303.519
304.452
306.692
305.956
306.628
307.007
305.506
303.035
300.505
302.994
303.902
301.457
304.518
303.16
305.702
301.291
300.278
302.026
301.619
301.55
300.937
302.397
303.445
302.613
301.768
300.814
302.287
302.504
327.493
330.086
328.083
329.493
330.265
332.682
330.359
330.228
330.408
333.229
331.636
331.046
332.052
331.618
327.997
327.429
332
327.998
328.832
330.429
327.215
322.635
325.213
323.914
327.263
324.783
327.751
328.425
329.658
326.724
326.371
326.213
326.201
330.099
326.531
328.081
326.456
326.795
326.805
323.823
322.861
322.492
319.97
321.564
322.001
322.823
321.559
322.91
323.073
325.587
323.341
325.717
322.551
323.819
322.369
322.858
319.217
322.635
322.286
324.657
317.646
317.741
316.664
317.114
318.086
318.373
319.272
317.795
318.23
318.566
318.396
318.1
318.568
318.826
319.83
317.219
316.252
319.832
318.98
317.774
313.758
313.386
315.002
313.629
313.642
315.494
316.282
311.497
314.85
315.315
316.98
317.454
314.16
315.21
312.872
313.541
313.266
312.288
311.695
315.218
307.826
310.474
311.474
308.911
310.322
310.669
309.476
310.46
309.881
310.583
310.269
311.564
310.897
311.711
311.8
308.723
310.938
309.679
309.681
310.805
308.21
306.229
305.929
306.85
304.915
306.113
307.103
307.156
305.441
305.464
309.219
305.719
304.046
308.561
308.177
303.724
304.391
308.694
304.009
304.875
301.732
303.707
299.517
304.658
303.112
302.04
302.856
301.159
303.869
303.903
304.017
301.546
302.142
304.465
301.836
301.366
301.922
302.762
302.488
302.642
326.313
329.804
328.928
331.209
331.999
332.325
333.568
331.461
330.729
331.161
331.632
330.992
331.957
333.307
332.701
330.715
329.339
331.029
330.781
330.05
325.863
325.042
329.885
327.928
324.646
328.344
328.348
330.155
326.489
330.673
330.128
330.521
330.167
328.991
328.95
326.12
328.001
326.001
326.946
326.034
321.65
319.999
323.587
320.746
322.935
323.061
324.03
324.379
322.72
324.949
324.962
324.904
323.356
323.307
323.477
319.992
325.722
325.176
321.486
322.695
318.068
316.022
318.229
317.717
320.119
318.628
319.861
318.648
319.178
318.625
321.174
319.76
321.006
320.876
320.333
316.765
318.407
317.197
317.558
320.336
313.277
315.003
314.105
316.095
313.4
311.036
315.005
316.683
315.071
315.816
314.093
316.532
311.533
312.268
316.297
315.134
313.733
314.722
313.898
316.22
312.495
308.272
311.129
312.861
310.534
307.45
311.311
311.04
309.963
310.468
308.585
308.154
309.8
311.811
310.904
309.347
311.731
312.337
308.708
308.964
306.323
306.807
304.542
306.264
305.02
306.406
306.526
306.734
306.357
306.902
306.611
307.047
307.419
306.04
308.308
306.812
306.587
305.227
305.822
306.564
301.691
301.458
302.549
303.471
301.561
302.239
301.419
302.415
303.33
304.644
302.876
302.199
302.499
301.723
302.476
301.194
302.758
302.633
300.9
303.139
330.123
332.138
331.659
331.265
331.866
333.59
332.946
333.432
335.098
335.26
331.621
332.096
332.541
332.681
334.306
332.054
331.109
331.179
328.954
328.289
326.802
326.364
323.824
327.3
328.519
329.856
328.46
330.207
328.526
331.036
327.777
331.966
329.617
327.794
326.247
328.873
327.784
329.457
328.135
328.021
322.335
321.75
325.038
323.294
323.7
321.459
323.987
324.603
327.848
323.408
324.516
323.351
324.232
325.397
323.864
325.652
324.913
325.173
324.257
323.298
316.338
317.732
317.646
319.961
316.576
317.271
319.031
318.304
322.258
320.52
319.19
319.71
324.146
321.195
319.149
320.924
318.963
318.27
316.254
318.39
315.058
315.953
314.75
313.701
315.488
317.158
316.094
313.493
318.337
317.413
316.582
317.335
315.94
317.763
316.18
317.285
314.674
315.841
314.313
314.33
312.771
311.099
310.645
309.145
308.599
313.862
311.422
312.736
311.44
312.806
311.682
310.487
310.973
309.236
310.471
313.968
309.607
310.908
310.396
310.149
306.996
308.113
307.918
307.669
305.901
307.121
307.232
306.834
307.529
308.688
307.022
305.439
307.088
308.626
306.016
304.394
307.695
306.366
305.891
305.257
300.983
300.4
302.63
300.103
303.633
301.964
302.669
302.513
300.425
301.148
304.153
300.912
300.334
301.671
303.108
301.044
301.951
301.834
301.38
302.87
333.787
331.504
333.627
333.096
335.581
332.35
336.344
336.369
333.815
333.012
333.269
334.99
330.949
336.288
331.245
334.272
335.755
332.134
333.53
330.238
327.79
328.31
329.468
327.852
327.569
330.212
329.984
330.291
330.095
331.539
331.184
328.762
330.864
328.319
329.768
329.093
329.259
329.658
327.912
326.897
324.586
324.052
323.7
326.466
322.758
326.785
326.124
326.88
326.54
325.645
326.273
323.32
325.215
324.958
326.026
324.037
326.49
324.033
323.965
323.383
321.067
318.261
319.658
318.465
322.861
321.81
321.299
322.482
321.135
321.503
319.759
322.115
322.558
321.078
319.818
321.515
318.779
319.715
321.858
319.895
314.619
316.418
316.281
317.587
318.31
318.637
317.136
316.843
315.756
317.138
317.477
316.224
316.838
313.964
315.553
313.27
315.617
317.367
315.509
313.333
309.057
310.746
311.924
312.774
312.517
310.676
312.029
309.277
312.611
313.942
311.895
312.744
309.165
311.438
312.934
311.864
310.398
312.583
311.825
313.42
306.642
306.626
305.598
306.301
306.321
306.038
307.609
308.568
304.963
308.562
307.658
305.729
309.165
306.792
309.759
305.04
305.553
305.747
307.401
305.874
300.797
301.474
302.225
301.927
301.719
303.424
304.15
304.036
302.579
300.349
302.685
303.579
301.652
301.326
300.88
304.466
300.176
304.598
302.407
300.774
334.268
332.166
333.379
334.282
334.241
337.76
337.979
334.831
336.526
336.625
339.037
334.1
336.524
336.766
334.894
331.276
335.603
335.451
334.403
334.093
329.631
326.955
330.46
329.489
327.983
332.037
329.823
331.361
329.465
332.47
330.722
331.493
330.011
331.559
330.02
331.242
330.656
327.906
327.839
329.074
324.757
324.915
324.558
326.614
325.02
325.986
326.736
326.917
329.339
329.686
328.248
328.2
327.124
327.072
326.458
326.689
326.141
324.448
325.144
325.12
320.198
318.261
322.064
322.032
319.787
322.38
320.712
323.363
321.092
323.663
322.469
320.575
322.784
322.327
321.451
322.998
320.918
323.29
317.457
318.551
314.312
316.624
318.133
318.028
317.595
317.456
317.571
315.85
317.88
319.796
316.316
316.034
317.035
316.4
317.235
316.768
318.334
317.325
316.142
313.298
311.958
311.573
310.912
312.211
312.537
312.363
314.904
313.853
313.475
311.72
312.966
313.007
313.037
309.888
312.077
313.103
313.445
312.315
311.367
313.24
304.451
306.791
306.815
305.703
306.896
306.425
306.784
307.024
305.407
308.704
306.117
307.859
306.013
311.785
307.59
309.044
307.485
308.067
305.583
309.744
303.008
303.692
303.706
301.632
303.781
302.316
302.327
301.977
303.132
301.244
301.973
303.52
304.35
303.156
302.48
301.966
303.296
302.995
301.404
300.221
334.25
331.777
335.33
336.79
336.013
336.754
338.175
336.864
337.196
337.837
337.4
338.204
337.865
336.396
336.025
335.356
333.268
334.988
334.675
334.928
327.716
328.608
332.062
328.68
332.031
329.867
332.46
332.009
334.23
331.837
331.976
332.423
332.06
332.235
330.769
333.079
329.708
328.295
329.252
328.339
324.663
325.87
325.905
327.907
326.296
326.099
327.242
327.841
327.263
330.251
326.534
327.001
328.421
327.157
326.405
328.016
325.709
326.397
325.603
326.281
320.344
320.415
320.225
322.452
321.852
320.57
323.071
322.245
326.472
322.943
321.494
322.618
321.873
323.32
321.755
321.284
321.373
320.119
320.228
321.561
316.04
316.638
314.874
317.398
316.332
318.289
318.599
316.348
316.227
317.942
315.339
319.599
318.39
318.694
318.265
315.701
319.176
316.732
317.148
314.857
311.005
311.732
309.57
313.046
313.361
312.878
314.692
313.014
310.639
313.866
312.875
314.633
315.989
312.771
313.388
311.52
314.898
311.401
310.871
310.478
306.089
308.713
309.717
306.965
306.418
309.198
307.118
306.215
307.632
307.05
310.531
307.005
309.234
306.916
307.545
308.838
307.653
305.024
305.378
307.423
301.323
303.457
300.269
305.334
300.685
302.715
302.142
303.095
303.516
301.05
304.388
304.016
303.151
301.014
300.38
303.366
300.122
302.769
304.525
302.054
335.098
334.08
334.655
337.023
339.311
340.818
339.848
337.723
337.53
338.366
339.324
337.283
337.661
340.82
337.089
336.593
336.396
337.104
334.433
336.6
329.988
331.572
330.435
331.763
333.038
333.138
334.375
335.396
331.788
335.366
332.344
333.641
336.122
335.311
333.584
331.201
331.567
332.942
331.677
330.883
327.359
328.228
325.002
327.418
324.86
325.186
327.402
328.832
329.988
327.454
329.129
328.382
329.723
327.804
327.803
329.535
328.295
326.112
327.353
324.597
322.69
322.344
323.526
322.01
321.137
323.726
322.887
323.974
324.592
324.484
323.138
322.317
324.12
320.002
322.601
323.507
323.535
322.511
323.691
322.172
315.028
315.315
317.295
317.912
317.775
318.923
317.783
319.12
316.935
322.19
318.639
318.012
316.977
318.383
319.789
315.915
318.259
317.426
315.563
316.011
310.591
312.318
312.857
315.095
310.585
315.305
313.036
313.13
309.125
311.683
310.177
311.165
314.197
314.933
312.893
311.47
312.811
311.247
313.433
310.714
309.169
306.206
309.792
307.18
306.488
306.768
308.18
308.846
309.722
309.87
308.984
306.265
307.38
307.834
308.269
307.852
308.734
308.285
306.891
309.037
301.732
301.762
300.875
302.303
300.63
302.059
303.314
301.543
303.232
300.471
304.186
302.902
302.978
302.868
303.839
301.307
301.856
302.459
304.031
300.14
336.799
337.61
340
336.403
339.994
338.867
339.952
340.444
339.458
338.212
340.444
340.352
341.399
340.596
341.226
338.932
337.36
339.021
335.989
333.502
330.436
330.529
332.949
330.894
333.551
332.255
334.831
331.767
333.717
332.746
333.195
335.154
333.19
333.226
332.267
333.495
331.236
334.005
330.735
329.627
328.134
328.089
325.764
327.028
327.598
328.232
330.36
332.247
330.142
331.042
328.303
328.293
330.653
330.306
332.831
327.785
324.539
325.909
328.202
327.602
322.955
320.484
320.206
322.262
323.586
323.749
324.132
324.827
327.353
324.786
325.882
323.717
323.968
327.226
324.255
320.053
322.348
323.338
322.674
322.686
318.388
316.489
318.902
318.034
319.41
317.92
317.499
318.204
319.317
319.567
317.399
318.917
319.122
318.062
317.728
316.679
316.18
318.924
316.353
315.571
315.126
313.579
315.158
314.218
313.132
312.887
315.16
312.863
312.987
315.9
312.011
316.286
314.982
315.683
314.069
312.518
313.73
313.327
312.756
311.889
306.647
307.181
308.494
307.277
306.514
307.365
307.532
309.296
308.579
308.176
305.159
308.416
307.79
308.451
308.968
309.413
308.726
306.672
308.587
306.258
301.651
304.563
302.982
301.68
301.32
300.839
301.499
301.859
300.739
303.559
301.921
304.28
302.566
302.51
302.74
301.451
302.81
304.147
303.763
303.251
337.185
337.683
342.937
340.485
341.426
339.282
340.763
341.949
341.392
340.009
339.995
341.627
339.99
342.143
339.305
341.301
338.405
342.194
336.778
334.174
334.095
330.032
332.922
329.992
333.713
332.956
335.365
334.268
332.662
333.801
333.382
337.418
333.13
335.516
332.538
336.062
331.965
334.216
332.046
333.917
327.517
329.238
326.159
330.001
329.52
330.595
329.329
329.749
329.657
329.556
329.467
330.39
329.056
329.178
332.636
329.277
327.785
328.183
327.681
325.857
322.562
323.252
325.518
322.429
323.346
322.343
322.003
322.824
322.858
325.571
327.28
324.926
324.849
328.175
323.415
325.826
325.03
323.47
320.976
321.284
316.818
318.172
317.598
318.944
317.772
317.608
317.626
317.112
320.341
320.109
319.459
319.76
319.691
317.204
320.078
318.922
319.446
317.763
319.841
318.371
311.436
312.914
310.864
317.98
313.186
313.921
312.98
313.518
314.212
312.609
312.853
313.535
316.345
314.615
313.905
313.061
313.666
312.483
310.298
314.895
305.748
307.499
307.431
307.047
307.16
307.452
311.091
306.685
305.909
309.366
307.128
308.836
308.382
308.844
308.394
307.48
310.117
307.316
309.204
307.304
303.677
302.519
303.299
301.847
301.848
302.418
304.551
302.252
302.42
301.126
302.821
303.815
302.889
301.246
302.547
303.186
304.003
302.137
300.9
298.244
338.623
336.551
339.628
336.711
342.57
340.663
339.638
340.512
342.452
342.802
343.526
342.68
345.927
340.606
343.936
340.786
338.28
339.596
339.105
339.409
329.091
332.092
335.839
333.333
334.47
339.412
334.911
336.873
336.309
336.842
335.954
335.327
337.126
332.482
336.022
335.81
334.942
333.97
332.289
332.144
326.518
331.929
328.076
329.422
328.822
329.821
331.475
330.886
331.034
332.235
333.339
332.106
332.319
330.901
328.481
330.631
332.23
330.331
327.306
326.849
324.303
325.873
324.588
325.302
323.263
325.663
324.765
325.283
329.069
324.591
326.351
326.293
325.294
324.93
326.64
325.223
322.341
325.361
323.327
323.691
320.756
317.886
318.515
319.046
318.746
318.314
318.702
321.977
320.624
318.699
319.776
318.932
321.588
320.583
319.349
318.713
317.304
319.197
318.373
318.452
314.212
310.151
313.35
315.487
311.195
313.626
316.737
315.396
315.14
315.606
313.767
314.377
315.599
315.23
313.327
313.526
313.371
315.476
313.045
312.229
308.624
306.252
307.765
306.1
308.993
308.477
309.232
311.001
308.869
309.493
309.013
307.462
309.66
310.648
309.883
308.26
310.16
306.942
308.225
305.605
302.107
303.206
302.52
304.268
301.081
304.377
302.445
302.968
301.536
301.354
304.296
303.519
300.343
304.571
302.825
305.645
303.835
303.215
302.938
302.19
338.21
341.549
339.592
343.766
341.939
341.878
345.233
342.398
346.518
344.814
342.267
344.739
341.889
340.817
343.232
340.196
343.874
341.626
339.319
338.854
334.78
332.427
336.3
333.71
338.625
334.579
338.44
334.926
341.218
334.989
336.024
337.505
335.026
336.82
334.066
336.549
334.29
336.283
333.47
334.499
327.681
329.445
329.748
331.118
331.032
332.173
331.718
334.367
335.667
332.233
334.202
334.47
331.833
330.827
328.186
333.166
329.932
330.422
328.87
328.303
320.914
322.952
325.421
325.285
324.464
325.117
327.007
327.96
326.077
324.522
326.589
327.62
325.661
324.404
326.756
326.38
327.672
323.987
322.319
326.01
320.512
316.168
319.291
320.641
319.557
322.321
321.491
320.789
320.521
320.706
321.807
319.69
322.411
320.088
319.757
319.921
321.145
318.961
316.744
317.603
313.071
311.288
312.417
314.168
314.414
313.502
313.157
314.771
315.09
314.762
316.672
314.882
316.593
315.753
313.381
315.443
313.723
316.163
313.222
313.46
309.601
309.482
308.608
309.08
308.541
308.324
308.073
307.833
308.147
308.077
307.94
309.659
308.372
306.71
309.217
309.832
309.946
306.264
308.322
305.735
301.391
301.217
304.547
301.255
303.17
302.693
304.829
301.366
302.439
299.784
303.567
303.527
303.075
300.387
302.296
303.144
303.343
303.22
302.699
303.31
339.563
337.34
341.959
342.944
342.82
344.199
342.401
344.418
342.637
343.506
345.702
343.848
344.05
343.401
343.547
344.294
341.839
342.18
342.37
338.959
333.808
337.13
337.536
335.894
335.525
338.91
340.046
339.329
337.722
337.169
339.237
339.741
337.327
337.593
338.761
336.089
339.177
335.455
337.469
334.84
328.589
331.292
331.268
331.767
332.029
330.557
334.047
332.408
331.875
333.71
332.587
333.764
329.941
331.45
331.842
332.002
331.244
329.791
329.49
331.572
322.453
326.447
324.189
325.042
325.203
328.975
327.961
327.416
325.788
324.739
327.335
327.922
327.377
327.944
325.805
326.502
323.664
325.032
325.65
321.404
319.856
316.766
317.259
323.135
318.71
320.949
319.142
322.894
318.754
319.563
322.699
320.282
321.264
320.765
321.383
320.977
323.403
320.43
319.395
319.647
312.549
312.781
313.789
313.778
314.201
313.942
316.956
315.507
314.518
315.119
315.195
315.448
316.384
315.123
313.318
315.777
315.358
313.871
316.405
315.387
307.592
310.421
308.854
309.511
308.624
311.276
307.68
307.436
310.518
309.608
309.986
309.03
310.466
308.913
309.933
308.025
308.268
306.729
308.805
306.49
303.686
303.246
300.202
304.651
302.633
302.752
303.476
302.721
304.06
303.234
301.413
302.07
304.888
303.232
302.828
301.596
302.803
303.162
302.319
301.597
339.118
341.479
342.197
344.942
342.642
347.07
343.42
344.327
343.606
346.402
346.018
344.289
345.298
345.011
342.027
343.602
343.21
341.611
341.888
339.308
335.741
334.755
335.929
337.319
338.004
337.26
340.665
337.598
342.264
337.617
337.658
341.27
337.619
339.361
336.507
337.591
336.568
334.741
335.868
336.46
328.42
331.454
331.81
333.005
332.644
333.668
330.833
332.68
332.734
333.426
329.866
332.168
334.026
331.709
331.383
332.22
329.704
329.547
330.564
330.575
327.008
326.167
325.207
326.088
325.816
325.927
330.056
327.844
328.369
327.873
328.251
326.973
331.246
327.416
326.492
327.209
327.291
324.789
324.374
324.625
318.7
319.663
320.238
321.686
322.031
320.792
319.67
322.538
322.084
322.207
321.931
320.704
322.286
321.039
321.415
320.86
319.762
321.771
317.772
319.151
311.891
314.477
312.503
316.549
313.994
314.544
317.69
315.469
315.834
317.585
313.393
312.693
316.877
314.668
316.441
315.374
313.848
317.325
315.535
314.205
307.789
309.98
308.052
309.91
308.511
308.052
308.075
311.363
307.371
309.7
308.197
309.709
310.774
310.045
309.309
310.721
308.898
305.544
306.698
309.649
303.394
303.363
303.681
300.966
302.923
303.172
300.447
303.858
304.621
302.799
302.329
303.621
302.817
303.593
301.818
302.27
305.231
304.486
300.893
302.366
341.488
342.248
342.166
343.032
345.692
348.008
343.455
345.829
347.161
347.56
347.016
345.488
347.15
344.704
344.568
344.511
343.483
341.208
343.379
340.785
335.04
336.355
336.153
333.942
339.701
336.688
340.689
341.024
339.678
338.462
341.223
340.117
338.939
340.684
340.821
338.52
338.403
336.683
338.558
333.335
331.513
329.785
332.442
332.983
332.482
334.425
334.055
333.648
331.81
334.77
333.982
334.744
334.092
331.098
332.284
329.689
334.78
331.64
333.943
332.193
324.667
322.892
324.341
325.483
327.69
328.483
326.657
326.417
328.156
328.002
328.375
329.27
326.695
326.858
327.696
328.799
326.681
325.697
324.89
324.039
321.76
319.016
321.045
319.315
320.775
320.34
319.705
322.249
322.267
321.285
321.175
321.12
322.795
320.278
321.151
319.237
320.58
321.644
319.669
320.202
313.935
314.361
312.398
314.244
315.406
316.185
313.837
312.609
315.872
313.912
317.046
316.471
316.829
314.444
315.501
317.354
315.042
315.636
316.52
315.908
307.347
309.18
310.235
306.571
307.607
309.892
305.725
307.76
309.946
311.915
307.612
307.814
309.55
307.225
305.345
309.478
312.047
308.828
308.625
309.038
304.67
302.632
304.285
304.385
300.433
303.914
303.714
301.462
304.358
302.69
303.348
301.703
303.355
303.551
304.386
303.299
305.316
302.157
303.354
300.938
341.267
345.614
341.279
342.894
346.844
346.506
345.489
345.914
346.613
346.125
348.292
345.408
346.413
345.908
343.615
345.228
345.088
342.98
342.606
343.764
338.289
338.433
335.307
338.81
338.167
338.778
342.897
339.782
338.383
339.286
339.718
341.725
340.368
342.028
339.942
341.222
339.747
337.156
339.167
336.288
327.347
331.81
332.912
332.882
334.278
333.008
334.362
335.033
332.989
332.883
333.483
333.97
336.092
332.955
336.629
333.545
332.624
333.035
332.232
329.372
328.322
322.898
326.661
325.682
328.643
326.923
329.004
329.031
328.073
328.062
329.893
330.361
330.869
328.119
328.136
327.015
326.933
326.238
324.51
327.218
318.992
318.064
319.547
321.718
319.678
321.254
320.872
321.908
322.705
324.046
322.667
321.944
321.148
320.66
322.017
321.557
319.448
320.382
321.398
322.444
314.276
313.761
316.884
315.179
315.245
313.643
315.176
315.725
316.026
317.866
318.083
314.501
318.016
313.614
317.113
314.445
313.836
314.075
314.457
315.22
309.673
309.794
308.941
309.803
307.349
311.495
309.96
310.334
307.202
309.791
310.53
309.794
309.927
308.492
309.013
311.532
308.032
309.624
308.358
306.81
303.195
301.817
302.438
303.022
305.955
301.985
304.292
303.936
301.759
302.874
302.42
303.784
302.736
301.77
302.077
305.914
302.873
300.992
302.919
305.101
341.5
342.647
344.343
346.424
348.044
348.443
346.402
346.632
348.893
348.007
348.136
347.491
346.069
347.295
346.798
346.005
345.316
345.07
342.66
342.466
334.331
336.498
341.78
341.231
340.661
341.639
340.098
338.511
341.523
340.302
340.775
341.745
340.23
339.995
343.257
342.978
341.251
337.751
337.454
339.869
328.212
331.755
332.645
334.197
334.268
334.697
335.034
337.135
337.848
332.135
335.065
333.247
335.863
331.715
335.485
334.549
333.38
332.838
330.242
330.674
326.501
323.996
325.629
328.776
328.798
329.949
328.738
326.846
326.84
328.354
327.243
329.065
328.555
328.678
329.841
329.245
326.933
326.904
325.629
324.24
319.268
319.65
320.763
325.002
322.14
323.09
322.927
323.351
323.686
322.193
324.282
324.542
321.477
321.006
321.351
322.108
320.23
320.389
320.837
322.344
315.766
314.665
315.387
315.4
315.709
316.443
316.432
315.656
313.623
318.483
317.252
316.062
315.165
317.328
316.844
317.055
315.846
315.94
314.248
313.67
310.26
310.241
306.583
307.689
308.173
308.604
310.832
312.715
307.042
308.843
311.485
308.487
310.429
308.573
312.283
308.419
310.457
306.905
310.705
307.358
304.199
303.304
302.722
303.98
304.129
305.596
303.992
302.291
304.235
303.8
305.394
303.94
304.364
301.301
302.447
302.004
302.236
304.207
302.549
301.086
342.373
342.568
347.123
344.304
348.805
344.185
349.374
346.699
348.164
349.202
348.329
346.647
349.895
346.577
345.456
345.003
344.638
343.072
342.284
343.981
340.207
341.771
340.394
342.272
340.548
341.929
340.354
342.945
338.154
342.252
342.846
342.071
342.263
343.837
342.221
341.252
341.028
338.449
341.936
333.174
331.986
332.885
330.69
333.226
332.368
334.385
331.919
333.893
333.988
338.289
336.247
338.313
335.163
333.277
335.861
334.579
333.201
332.733
333.036
329.974
323.834
325.552
326.161
325.901
327.898
328.146
325.546
330.556
329.705
329.576
328.106
329.048
330.601
329.85
327.479
328.408
330.314
326.48
327.103
325.328
320.617
321.24
319.782
320.462
323.315
322.651
323.343
324.42
323.247
320.629
322.057
321.232
321.464
323.137
319.401
322.873
323.4
322.345
321.072
323.092
312.574
314.814
314.3
316.426
316.722
315.513
315.487
316.585
318.679
317.498
315.29
315.026
317.977
314.023
313.838
317.589
312.114
313.54
317.318
312.665
309.468
308.96
307.577
309.127
308.719
307.967
308.358
308.765
311.666
311.725
310.581
311.683
307.725
309.887
309.02
310.024
306.22
308.487
307.082
309.018
300.961
303.403
303.469
305.406
303.198
306.407
304.184
305.033
304.946
302.634
307.892
302.837
306.277
303.119
304.883
304.248
303.867
305.672
303.047
302.136
343.331
346.64
347.242
343.725
346.838
348.506
347.276
349.548
350.093
349.323
349.409
346.914
347.099
347.872
348.134
348.331
344.913
344.691
343.656
343.034
337.117
339.734
337.85
340.008
339.367
339.775
340.657
342.455
343.55
341.594
341.3
340.234
343.411
342.218
342.388
342.249
341.417
338.521
340.32
336.868
332.45
331.555
332.719
334.201
330.256
332.851
336.365
333.471
335.463
331.977
333.681
336.037
337.667
333.815
333.28
336.165
334.6
333.738
331.076
328.046
325.605
327.352
327.96
326.6
326.803
328.559
328.923
328.895
329.083
330.659
328.909
330.08
330.482
328.558
328.936
326.325
328.533
329.379
327.668
326.551
319.906
321.321
321.61
318.694
320.621
321.021
320.601
324.445
322.507
321.731
321.956
324.579
323.426
323.446
321.709
324.665
321.563
320.471
321.297
322.199
314.674
317.423
316.413
316.408
317.076
317.688
317.61
314.743
315.211
314.947
314.142
317.484
317.176
316.057
317.208
313.764
316.294
315.91
313.098
313.719
310.357
311.154
307.373
310.341
309.801
308.74
310.733
309.214
309.545
310.606
310.289
310.951
310.057
309.315
308.562
307.402
306.783
311.403
308.388
308.468
302.923
301.629
301.958
303.88
301.713
302.904
302.004
305.546
305.272
304.996
302.321
301.576
300.635
305.144
303.715
302.994
302.215
303.567
303.045
302.536
)
;

boundaryField
{
    hotSide
    {
        type            fixedGradient;
        gradient        nonuniform List<scalar> 
400
(
321.511
322.87
325.591
329.677
335.133
341.965
350.181
359.788
370.794
383.208
397.037
412.289
428.971
447.088
466.647
487.651
510.105
534.011
559.372
586.191
323.738
325.08
327.767
331.802
337.194
343.949
352.078
361.591
372.498
384.81
398.537
413.687
430.268
448.289
467.755
488.672
511.043
534.872
560.161
586.913
326.149
327.47
330.116
334.091
339.406
346.071
354.099
363.503
374.296
386.491
400.101
415.136
431.606
449.52
468.885
489.706
511.988
535.735
560.948
587.63
328.704
330
332.597
336.503
341.73
348.292
356.205
365.485
376.15
388.215
401.695
416.604
432.954
450.753
470.009
490.73
512.919
536.579
561.714
588.325
331.33
332.599
335.142
338.97
344.099
350.546
358.332
367.477
378.003
389.928
403.271
418.047
434.27
451.949
471.095
491.712
513.807
537.382
562.439
588.978
333.918
335.158
337.643
341.389
346.414
352.74
360.392
369.397
379.779
391.562
404.765
419.407
435.503
453.065
472.101
492.618
514.622
538.114
563.096
589.569
336.321
337.531
339.959
343.622
348.544
354.751
362.274
371.142
381.385
393.031
406.101
420.618
436.595
454.047
472.983
493.409
515.33
538.747
563.663
590.076
338.36
339.543
341.92
345.509
350.339
356.44
363.847
372.595
382.718
394.244
407.2
421.608
437.485
454.844
473.695
494.045
515.897
539.253
564.114
590.478
339.852
341.015
343.352
346.885
351.645
357.665
364.985
373.643
383.675
395.113
407.984
422.312
438.116
455.407
474.197
494.491
516.294
539.606
564.428
590.758
340.643
341.795
344.11
347.613
352.334
358.311
365.584
374.193
384.176
395.567
408.393
422.679
438.443
455.699
474.456
494.722
516.498
539.788
564.589
590.901
340.643
341.795
344.11
347.613
352.334
358.311
365.584
374.193
384.176
395.567
408.393
422.679
438.443
455.699
474.456
494.722
516.498
539.788
564.589
590.901
339.852
341.015
343.352
346.885
351.645
357.665
364.985
373.643
383.675
395.113
407.984
422.312
438.116
455.407
474.197
494.491
516.294
539.606
564.428
590.758
338.36
339.543
341.92
345.509
350.339
356.44
363.847
372.595
382.718
394.244
407.2
421.608
437.485
454.844
473.695
494.045
515.897
539.253
564.114
590.478
336.321
337.531
339.959
343.622
348.544
354.751
362.274
371.142
381.385
393.031
406.101
420.618
436.595
454.047
472.983
493.409
515.33
538.747
563.663
590.076
333.918
335.158
337.643
341.389
346.414
352.74
360.392
369.397
379.779
391.562
404.765
419.407
435.503
453.065
472.101
492.618
514.622
538.114
563.096
589.569
331.33
332.599
335.142
338.97
344.099
350.546
358.332
367.477
378.003
389.928
403.271
418.047
434.27
451.949
471.095
491.712
513.807
537.382
562.439
588.978
328.704
330
332.597
336.503
341.73
348.292
356.205
365.485
376.15
388.215
401.695
416.604
432.954
450.753
470.009
490.73
512.919
536.579
561.714
588.325
326.149
327.47
330.116
334.091
339.406
346.071
354.099
363.503
374.296
386.491
400.101
415.136
431.606
449.52
468.885
489.706
511.988
535.735
560.948
587.63
323.738
325.08
327.767
331.802
337.194
343.949
352.078
361.591
372.498
384.81
398.537
413.687
430.268
448.289
467.755
488.672
511.043
534.872
560.161
586.913
321.511
322.87
325.591
329.677
335.133
341.965
350.181
359.788
370.794
383.208
397.037
412.289
428.971
447.088
466.647
487.651
510.105
534.011
559.372
586.191
)
;
    }
    coldSide
    {
        type            mixed;
        refValue        uniform 300;
        refGradient     uniform 0;
        valueFraction   uniform 0.991591;
        source          uniform 0;
        value           nonuniform List<scalar> 
400
(
300.008
300.004
300.015
300.014
300.008
300.007
300.025
300.011
300.015
300.014
300.031
300.018
300.012
300.031
300.029
300.039
300.027
300.035
300.008
300.025
300.023
300.025
300.031
300.012
300.003
300.012
300.031
300.029
300.015
300.038
300.021
300.027
300.01
300.027
300.028
300.022
300.015
300.028
300.029
300.014
300.037