/*--------------------------------*- C++ -*----------------------------------*\
| =========                 |                                                 |
| \\      /  F ield         | OpenFOAM: The Open Source CFD Toolbox           |
|  \\    /   O peration     | Version:  2212                                  |
|   \\  /    A nd           | Website:  www.openfoam.com                      |
|    \\/     M anipulation  |                                                 |
\*---------------------------------------------------------------------------*/
FoamFile
{
    version     2.0;
    format      ascii;
    arch        "LSB;label=32;scalar=64";
    class       volScalarField;
    location    "0";
    object      T;
}
// * * * * * * * * * * * * * * * * * * * * * * * * * * * * * * * * * * * * * //

dimensions      [0 0 0 1 0 0 0];

internalField   nonuniform List<scalar> 
3200
(
352.262
350.874
350.142
349.963
350.306
351.1
352.105
352.969
353.804
354.301
354.474
354.395
353.802
353.004
352.197
351.216
350.779
350.829
351.74
352.911
345.445
344.265
343.637
343.461
343.754
344.422
345.294
346.021
346.703
347.141
347.296
347.213
346.673
345.973
345.293
344.398
344.049
344.056
344.838
345.806
338.544
337.564
337.051
336.902
337.109
337.701
338.414
339.001
339.595
339.94
340.073
340.011
339.523
338.933
338.338
337.581
337.306
337.288
337.925
338.727
331.603
330.798
330.396
330.289
330.406
330.926
331.482
331.942
332.457
332.725
332.848
332.765
332.346
331.88
331.364
330.749
330.527
330.524
331.017
331.686
324.638
324.012
323.691
323.615
323.692
324.104
324.498
324.868
325.279
325.492
325.607
325.481
325.144
324.802
324.411
323.913
323.746
323.74
324.124
324.64
317.642
317.171
316.955
316.912
316.96
317.24
317.515
317.811
318.072
318.219
318.326
318.221
317.928
317.734
317.453
317.08
317.003
316.968
317.23
317.615
310.616
310.324
310.195
310.184
310.202
310.377
310.522
310.707
310.858
310.942
311.024
310.952
310.756
310.631
310.478
310.243
310.225
310.191
310.344
310.588
303.572
303.472
303.42
303.416
303.417
303.479
303.526
303.589
303.647
303.665
303.701
303.683
303.614
303.569
303.513
303.431
303.433
303.412
303.473
303.556
352.532
351.182
350.29
350.23
350.678
351.569
352.586
353.554
354.36
354.917
355.264
355.035
354.505
353.681
352.857
351.843
351.32
351.202
352.103
353.212
345.66
344.524
343.767
343.687
344.073
344.803
345.692
346.47
347.197
347.624
347.933
347.738
347.271
346.548
345.82
344.946
344.49
344.373
345.152
346.046
338.712
337.789
337.173
337.094
337.385
337.996
338.753
339.388
339.996
340.309
340.586
340.419
340.033
339.414
338.751
338.033
337.652
337.548
338.2
338.922
331.739
330.961
330.511
330.419
330.639
331.166
331.764
332.29
332.747
332.973
333.231
333.095
332.769
332.272
331.694
331.121
330.796
330.705
331.248
331.842
324.726
324.121
323.794
323.699
323.891
324.278
324.745
325.143
325.49
325.638
325.859
325.771
325.491
325.107
324.671
324.212
323.975
323.872
324.3
324.754
317.682
317.251
317.058
316.965
317.1
317.364
317.695
317.988
318.222
318.302
318.483
318.439
318.206
317.946
317.645
317.308
317.148
317.059
317.368
317.688
310.616
310.373
310.277
310.212
310.282
310.441
310.635
310.808
310.956
310.982
311.115
311.084
310.921
310.79
310.613
310.4
310.306
310.257
310.434
310.633
303.557
303.468
303.462
303.431
303.451
303.501
303.566
303.621
303.671
303.677
303.736
303.716
303.66
303.617
303.553
303.483
303.453
303.437
303.494
303.56
352.965
351.646
350.773
350.87
351.313
352.284
353.446
354.518
355.346
355.996
356.295
356.201
355.513
354.794
353.698
352.723
352.057
352.005
352.746
353.769
346.032
344.912
344.208
344.26
344.611
345.424
346.417
347.321
348.042
348.573
348.825
348.728
348.122
347.485
346.524
345.705
345.129
345.081
345.707
346.513
339.06
338.109
337.542
337.571
337.828
338.532
339.345
340.081
340.699
341.136
341.351
341.224
340.713
340.176
339.359
338.674
338.171
338.144
338.69
339.285
332.033
331.247
330.812
330.816
331.017
331.592
332.248
332.83
333.357
333.683
333.876
333.744
333.313
332.874
332.211
331.635
331.211
331.205
331.667
332.117
324.95
324.348
324.038
324.018
324.152
324.604
325.094
325.541
325.985
326.219
326.375
326.247
325.936
325.586
325.087
324.601
324.272
324.274
324.634
324.973
317.836
317.418
317.22
317.182
317.286
317.584
317.927
318.254
318.584
318.749
318.836
318.765
318.534
318.306
317.94
317.563
317.346
317.318
317.606
317.829
310.715
310.471
310.35
310.336
310.386
310.542
310.75
310.957
311.164
311.274
311.3
311.279
311.136
311.005
310.775
310.548
310.418
310.371
310.571
310.705
303.595
303.506
303.469
303.469
303.486
303.526
303.608
303.666
303.741
303.79
303.791
303.786
303.744
303.692
303.609
303.532
303.487
303.463
303.547
303.585
353.6
352.342
351.605
351.673
352.293
353.314
354.41
355.786
356.619
357.35
357.678
357.489
356.904
356.077
354.934
353.846
353.095
353.014
353.717
354.778
346.614
345.544
344.918
344.959
345.461
346.338
347.269
348.421
349.121
349.753
349.991
349.81
349.312
348.599
347.619
346.685
346.012
345.953
346.543
347.404
339.568
338.687
338.138
338.175
338.563
339.286
340.07
341.02
341.611
342.157
342.299
342.144
341.735
341.144
340.302
339.515
338.937
338.903
339.386
340.08
332.47
331.749
331.296
331.333
331.614
332.204
332.843
333.582
334.083
334.523
334.605
334.468
334.145
333.654
332.962
332.327
331.869
331.862
332.242
332.773
325.321
324.755
324.382
324.429
324.626
325.1
325.583
326.126
326.528
326.852
326.906
326.839
326.561
326.167
325.64
325.146
324.805
324.769
325.124
325.48
318.138
317.708
317.452
317.48
317.613
317.954
318.287
318.664
318.979
319.18
319.234
319.197
318.981
318.679
318.349
317.96
317.735
317.7
317.973
318.19
310.909
310.647
310.513
310.498
310.6
310.787
310.987
311.214
311.393
311.527
311.555
311.524
311.39
311.22
311.039
310.783
310.653
310.619
310.807
310.907
303.657
303.575
303.536
303.524
303.539
303.606
303.692
303.762
303.814
303.863
303.868
303.858
303.817
303.761
303.705
303.612
303.568
303.556
303.63
303.651
354.693
353.455
352.671
352.779
353.384
354.403
355.687
356.952
357.986
358.795
359.221
359.037
358.472
357.487
356.319
355.193
354.457
354.452
354.998
355.971
347.532
346.499
345.819
345.89
346.403
347.245
348.378
349.416
350.299
350.994
351.319
351.162
350.65
349.807
348.79
347.831
347.198
347.179
347.667
348.447
340.316
339.452
338.898
338.941
339.357
340.078
341.007
341.852
342.584
343.183
343.418
343.285
342.836
342.14
341.267
340.472
339.949
339.907
340.338
340.933
333.047
332.346
331.904
331.94
332.249
332.856
333.616
334.279
334.867
335.362
335.537
335.38
335.04
334.448
333.748
333.136
332.715
332.661
332.999
333.443
325.743
325.211
324.857
324.88
325.123
325.623
326.17
326.669
327.138
327.544
327.649
327.495
327.28
326.793
326.235
325.772
325.439
325.392
325.668
325.984
318.416
318.036
317.791
317.796
317.974
318.346
318.713
319.061
319.405
319.706
319.748
319.619
319.521
319.15
318.74
318.414
318.171
318.156
318.347
318.55
311.085
310.823
310.694
310.689
310.807
311.008
311.238
311.457
311.656
311.845
311.875
311.773
311.745
311.505
311.252
311.05
310.913
310.921
311.016
311.129
303.722
303.618
303.586
303.585
303.625
303.683
303.768
303.834
303.903
303.967
303.989
303.939
303.943
303.849
303.773
303.713
303.653
303.657
303.701
303.733
355.852
354.686
354
354.183
354.693
355.792
357.071
358.449
359.439
360.454
360.947
360.794
360.166
359.19
358.016
356.781
356.044
355.972
356.371
357.493
348.51
347.532
346.932
347.097
347.518
348.461
349.538
350.711
351.533
352.406
352.779
352.681
352.133
351.277
350.242
349.214
348.557
348.494
348.813
349.745
341.137
340.327
339.819
339.962
340.286
341.072
341.975
342.946
343.614
344.344
344.649
344.57
344.107
343.39
342.494
341.623
341.081
341
341.286
342.053
333.727
333.067
332.646
332.768
333.031
333.676
334.39
335.144
335.7
336.286
336.522
336.446
336.095
335.494
334.738
334.033
333.609
333.544
333.78
334.399
326.261
325.789
325.424
325.535
325.751
326.244
326.778
327.343
327.762
328.243
328.406
328.352
328.097
327.599
327.01
326.463
326.147
326.101
326.263
326.744
318.761
318.471
318.204
318.286
318.44
318.766
319.143
319.523
319.836
320.187
320.296
320.248
320.078
319.729
319.303
318.892
318.695
318.663
318.778
319.083
311.25
311.11
310.947
311.013
311.1
311.271
311.506
311.727
311.91
312.133
312.184
312.147
312.06
311.857
311.585
311.337
311.242
311.216
311.289
311.472
303.765
303.723
303.674
303.697
303.717
303.773
303.862
303.938
303.995
304.082
304.074
304.071
304.039
303.97
303.88
303.797
303.768
303.764
303.781
303.851
357.341
356.233
355.669
355.756
356.23
357.265
358.645
359.919
361.048
362.1
362.7
362.65
362.028
360.902
359.721
358.569
357.957
357.739
358.166
359.178
349.8
348.891
348.397
348.473
348.828
349.74
350.921
351.965
352.938
353.825
354.314
354.293
353.744
352.756
351.728
350.732
350.214
350.024
350.386
351.211
342.212
341.462
341.069
341.12
341.408
342.179
343.133
343.996
344.798
345.53
345.936
345.931
345.464
344.636
343.741
342.89
342.459
342.327
342.628
343.262
334.594
333.978
333.684
333.73
333.938
334.598
335.328
336.013
336.647
337.257
337.573
337.537
337.187
336.519
335.759
335.087
334.717
334.64
334.876
335.355
326.941
326.463
326.24
326.309
326.444
326.966
327.487
328.019
328.509
328.986
329.226
329.198
328.914
328.423
327.799
327.274
327.007
326.944
327.109
327.497
319.259
318.934
318.771
318.833
318.908
319.299
319.658
320.02
320.378
320.7
320.881
320.856
320.662
320.294
319.856
319.489
319.299
319.236
319.354
319.634
311.584
311.379
311.294
311.315
311.361
311.596
311.824
312.036
312.246
312.429
312.54
312.514
312.403
312.188
311.915
311.705
311.6
311.547
311.633
311.792
303.88
303.823
303.792
303.788
303.806
303.88
303.964
304.043
304.113
304.157
304.195
304.186
304.159
304.079
303.991
303.927
303.887
303.872
303.889
303.961
358.821
357.817
357.283
357.359
357.884
358.846
360.132
361.471
362.758
363.776
364.498
364.386
363.816
362.738
361.572
360.568
359.863
359.628
360.067
360.947
351.101
350.253
349.781
349.856
350.294
351.091
352.184
353.283
354.419
355.275
355.89
355.773
355.274
354.344
353.339
352.488
351.859
351.646
352.013
352.748
343.307
342.613
342.196
342.257
342.643
343.328
344.201
345.1
346.066
346.763
347.281
347.169
346.755
345.96
345.088
344.383
343.869
343.687
344.008
344.579
335.461
334.909
334.604
334.642
334.968
335.536
336.193
336.908
337.706
338.269
338.68
338.565
338.225
337.598
336.878
336.293
335.889
335.737
336.021
336.432
327.611
327.178
326.982
326.993
327.22
327.711
328.181
328.719
329.337
329.775
330.082
329.997
329.696
329.239
328.663
328.201
327.891
327.786
328.027
328.298
319.726
319.432
319.326
319.31
319.485
319.827
320.161
320.517
320.973
321.279
321.491
321.431
321.187
320.893
320.459
320.142
319.917
319.848
320.012
320.19
311.84
311.682
311.609
311.611
311.731
311.924
312.126
312.325
312.6
312.78
312.89
312.862
312.704
312.541
312.265
312.1
311.973
311.917
312.014
312.115
303.966
303.924
303.897
303.888
303.935
303.993
304.068
304.141
304.215
304.284
304.312
304.321
304.253
304.193
304.106
304.06
304.014
303.994
304.023
304.073
360.449
359.587
358.902
358.961
359.485
360.462
361.703
363.103
364.525
365.532
366.126
366.125
365.519
364.665
363.322
362.423
361.68
361.51
362.037
363.057
352.515
351.771
351.166
351.23
351.664
352.486
353.525
354.727
355.941
356.767
357.3
357.278
356.746
355.999
354.828
354.048
353.405
353.274
353.709
354.567
344.503
343.915
343.38
343.421
343.794
344.491
345.31
346.326
347.352
347.991
348.446
348.443
347.991
347.346
346.361
345.709
345.155
345.052
345.411
346.14
336.446
335.977
335.564
335.596
335.874
336.465
337.078
337.934
338.755
339.268
339.621
339.622
339.25
338.724
337.91
337.364
336.929
336.852
337.13
337.725
328.387
328.012
327.703
327.729
327.935
328.416
328.859
329.527
330.15
330.546
330.813
330.805
330.542
330.124
329.496
329.038
328.7
328.652
328.862
329.327
320.297
320.047
319.815
319.849
319.983
320.345
320.642
321.12
321.544
321.818
322.026
322
321.808
321.53
321.098
320.728
320.493
320.451
320.628
320.946
312.191
312.047
311.913
311.93
312.025
312.227
312.405
312.683
312.948
313.104
313.216
313.208
313.106
312.936
312.659
312.444
312.314
312.269
312.378
312.577
304.102
304.037
304.003
303.999
304.035
304.095
304.161
304.245
304.343
304.39
304.422
304.433
304.398
304.336
304.24
304.167
304.133
304.102
304.152
304.219
362.131
361.32
360.822
360.738
361.212
362.263
363.356
364.673
366.118
367.223
367.799
367.754
367.27
366.357
365.18
364.345
363.639
363.484
364.001
364.932
353.944
353.278
352.821
352.75
353.138
354.033
354.95
356.084
357.3
358.241
358.711
358.699
358.263
357.464
356.455
355.731
355.109
354.98
355.39
356.194
345.714
345.177
344.788
344.718
345.02
345.791
346.523
347.459
348.487
349.275
349.645
349.657
349.277
348.587
347.753
347.139
346.627
346.487
346.828
347.493
337.479
337.023
336.701
336.65
336.879
337.529
338.082
338.864
339.671
340.316
340.596
340.613
340.307
339.746
339.055
338.535
338.169
338.006
338.287
338.837
329.195
328.836
328.566
328.556
328.72
329.216
329.64
330.252
330.863
331.368
331.558
331.598
331.354
330.918
330.353
329.933
329.704
329.529
329.784
330.193
320.896
320.618
320.418
320.417
320.534
320.909
321.215
321.648
322.059
322.42
322.533
322.574
322.396
322.08
321.656
321.386
321.229
321.085
321.264
321.557
312.565
312.397
312.268
312.253
312.323
312.552
312.747
313.026
313.265
313.474
313.521
313.559
313.447
313.255
313.005
312.854
312.753
312.655
312.777
312.93
304.224
304.152
304.125
304.11
304.145
304.208
304.274
304.378
304.453
304.515
304.539
304.542
304.515
304.433
304.356
304.303
304.267
304.245
304.282
304.335
363.871
363.118
362.636
362.611
363.052
363.894
365.039
366.376
367.742
368.841
369.369
369.294
368.768
368.072
367.145
366.213
365.661
365.553
365.992
366.843
355.445
354.838
354.387
354.367
354.722
355.437
356.424
357.56
358.727
359.657
360.106
360.025
359.595
358.957
358.154
357.354
356.854
356.762
357.147
357.833
346.981
346.511
346.091
346.068
346.353
346.961
347.791
348.717
349.697
350.46
350.818
350.77
350.401
349.847
349.181
348.512
348.093
347.984
348.301
348.859
338.498
338.115
337.734
337.734
337.956
338.469
339.133
339.847
340.669
341.302
341.576
341.532
341.208
340.77
340.227
339.68
339.35
339.234
339.498
339.928
329.982
329.67
329.352
329.361
329.549
329.972
330.472
330.99
331.641
332.126
332.328
332.296
332.05
331.721
331.269
330.872
330.627
330.519
330.715
331.037
321.439
321.238
320.964
320.997
321.134
321.439
321.791
322.146
322.603
322.977
323.096
323.071
322.889
322.665
322.334
322.051
321.882
321.83
321.951
322.17
312.894
312.775
312.603
312.613
312.71
312.869
313.099
313.311
313.576
313.806
313.851
313.847
313.733
313.599
313.408
313.248
313.154
313.121
313.178
313.324
304.332
304.288
304.23
304.23
304.265
304.31
304.393
304.463
304.553
304.626
304.64
304.631
304.6
304.559
304.504
304.44
304.415
304.397
304.419
304.467
365.762
365.018
364.44
364.46
364.975
365.615
366.611
367.93
369.306
370.315
370.849
370.814
370.435
369.674
368.869
368.156
367.722
367.743
368.075
368.89
357.082
356.437
355.955
355.958
356.376
356.943
357.763
358.908
360.071
360.941
361.372
361.336
361.005
360.329
359.659
359.025
358.64
358.672
358.935
359.614
348.352
347.837
347.416
347.424
347.761
348.237
348.899
349.862
350.833
351.561
351.934
351.87
351.588
351.045
350.459
349.906
349.584
349.607
349.834
350.376
339.614
339.179
338.845
338.855
339.125
339.493
340.047
340.803
341.608
342.191
342.488
342.42
342.203
341.767
341.254
340.813
340.553
340.575
340.759
341.183
330.845
330.491
330.271
330.241
330.472
330.744
331.166
331.746
332.383
332.813
333.041
332.993
332.822
332.485
332.055
331.739
331.553
331.569
331.683
332
322.065
321.812
321.665
321.627
321.803
321.983
322.288
322.685
323.148
323.444
323.602
323.577
323.444
323.201
322.901
322.687
322.538
322.561
322.632
322.826
313.251
313.106
313.029
312.987
313.115
313.208
313.395
313.615
313.918
314.062
314.162
314.151
314.074
313.923
313.733
313.617
313.541
313.567
313.597
313.694
304.443
304.389
304.377
304.341
304.401
304.418
304.493
304.571
304.673
304.716
304.738
304.741
304.712
304.659
304.585
304.569
304.54
304.545
304.551
304.581
367.654
366.846
366.338
366.266
366.684
367.359
368.259
369.427
370.672
371.676
372.134
372.219
371.923
371.245
370.51
369.966
369.749
369.724
370.075
370.858
358.705
358.03
357.605
357.536
357.858
358.439
359.189
360.199
361.24
362.112
362.483
362.544
362.257
361.694
361.062
360.592
360.406
360.389
360.664
361.311
349.71
349.167
348.813
348.747
349.005
349.488
350.107
350.952
351.802
352.55
352.839
352.88
352.635
352.167
351.61
351.244
351.061
351.092
351.286
351.791
340.662
340.265
339.99
339.948
340.14
340.538
341.016
341.706
342.392
343.002
343.217
343.222
343.039
342.672
342.185
341.899
341.749
341.818
341.959
342.319
331.638
331.353
331.139
331.093
331.255
331.568
331.919
332.464
332.975
333.412
333.603
333.593
333.458
333.184
332.789
332.573
332.466
332.546
332.642
332.881
322.618
322.444
322.282
322.237
322.347
322.581
322.821
323.177
323.566
323.882
324.003
323.995
323.892
323.696
323.414
323.262
323.187
323.24
323.325
323.457
313.585
313.501
313.397
313.374
313.418
313.566
313.689
313.908
314.175
314.351
314.417
314.414
314.346
314.235
314.068
313.962
313.921
313.96
314.019
314.061
304.559
304.533
304.48
304.487
304.505
304.549
304.598
304.664
304.766
304.814
304.826
304.834
304.806
304.773
304.726
304.678
304.674
304.68
304.704
304.694
369.57
368.679
368.222
367.999
368.408
369.178
369.995
371.006
372.101
372.933
373.416
373.542
373.347
372.836
372.171
371.748
371.64
371.668
372.144
372.874
360.371
359.624
359.212
359.008
359.348
360.008
360.715
361.567
362.501
363.223
363.617
363.694
363.499
363.076
362.535
362.153
362.034
362.071
362.466
363.053
351.117
350.511
350.161
349.993
350.258
350.823
351.405
352.109
352.887
353.494
353.829
353.869
353.682
353.344
352.893
352.574
352.465
352.504
352.831
353.284
341.836
341.398
341.088
340.948
341.138
341.619
342.081
342.629
343.295
343.772
344.057
344.068
343.904
343.659
343.252
343.012
342.908
342.967
343.202
343.554
332.559
332.245
331.99
331.861
332.019
332.397
332.741
333.148
333.681
334.035
334.276
334.271
334.147
333.991
333.601
333.465
333.38
333.429
333.587
333.872
323.278
323.092
322.855
322.777
322.884
323.146
323.405
323.668
324.081
324.3
324.474
324.493
324.389
324.282
323.977
323.939
323.865
323.893
323.988
324.222
313.98
313.883
313.729
313.68
313.728
313.9
314.063
314.208
314.474
314.591
314.695
314.717
314.649
314.594
314.386
314.378
314.344
314.356
314.399
314.56
304.692
304.66
304.606
304.59
304.599
304.676
304.735
304.759
304.842
304.898
304.924
304.933
304.913
304.899
304.825
304.818
304.806
304.815
304.823
304.886
371.47
370.585
370.014
369.822
370.183
370.805
371.672
372.559
373.536
374.256
374.711
374.962
374.739
374.307
373.885
373.584
373.537
373.567
374.071
374.769
362.009
361.256
360.763
360.583
360.874
361.41
362.147
362.911
363.725
364.35
364.715
364.929
364.738
364.37
363.996
363.713
363.663
363.712
364.12
364.705
352.505
351.908
351.508
351.327
351.54
351.979
352.606
353.261
353.925
354.458
354.745
354.933
354.747
354.457
354.111
353.885
353.812
353.887
354.223
354.704
342.978
342.541
342.209
342.035
342.198
342.542
343.078
343.599
344.129
344.566
344.803
344.926
344.788
344.547
344.247
344.072
343.974
344.095
344.339
344.737
333.431
333.132
332.864
332.727
332.823
333.114
333.547
333.933
334.326
334.677
334.859
334.939
334.83
334.663
334.402
334.272
334.167
334.303
334.477
334.787
323.894
323.695
323.475
323.4
323.44
323.691
323.987
324.256
324.535
324.791
324.91
324.969
324.869
324.769
324.561
324.465
324.403
324.512
324.639
324.858
314.348
314.265
314.103
314.063
314.066
314.243
314.42
314.574
314.727
314.89
314.955
315.014
314.926
314.878
314.733
314.688
314.657
314.717
314.787
314.932
304.821
304.774
304.73
304.712
304.713
304.764
304.839
304.881
304.94
304.986
305
305.039
305.004
304.996
304.928
304.917
304.916
304.938
304.951
305.013
373.415
372.528
371.977
371.792
371.914
372.549
373.32
374.114
374.922
375.566
376.022
376.302
376.189
375.864
375.518
375.315
375.231
375.582
376.074
376.877
363.697
362.916
362.463
362.283
362.396
362.924
363.575
364.28
364.932
365.485
365.872
366.08
365.984
365.72
365.399
365.23
365.141
365.443
365.853
366.503
353.93
353.273
352.929
352.778
352.875
353.289
353.825
354.427
354.969
355.428
355.731
355.9
355.814
355.6
355.298
355.151
355.074
355.334
355.682
356.19
344.14
343.605
343.333
343.229
343.299
343.624
344.073
344.562
345.003
345.353
345.599
345.722
345.644
345.485
345.233
345.098
345.041
345.226
345.539
345.898
334.334
333.929
333.741
333.675
333.694
333.932
334.299
334.699
335.028
335.271
335.483
335.552
335.495
335.385
335.182
335.065
335.032
335.156
335.407
335.683
324.55
324.232
324.138
324.077
324.091
324.237
324.525
324.8
325.037
325.189
325.338
325.411
325.357
325.301
325.132
325.059
325.036
325.122
325.272
325.492
314.749
314.548
314.5
314.472
314.465
314.55
314.738
314.899
315.053
315.124
315.217
315.275
315.231
315.204
315.079
315.043
315.042
315.083
315.162
315.313
304.937
304.869
304.859
304.851
304.85
304.884
304.944
305.005
305.048
305.065
305.108
305.122
305.114
305.093
305.048
305.036
305.039
305.052
305.08
305.14
375.259
374.477
373.918
373.689
373.787
374.257
374.898
375.663
376.314
376.974
377.351
377.585
377.615
377.389
377.118
377.132
377.094
377.37
377.919
378.833
365.275
364.608
364.135
363.92
363.99
364.406
364.95
365.593
366.16
366.708
367.013
367.2
367.23
367.037
366.774
366.796
366.767
366.988
367.473
368.213
355.277
354.719
354.318
354.118
354.18
354.535
354.977
355.502
355.971
356.439
356.701
356.838
356.867
356.715
356.474
356.47
356.46
356.631
357.068
357.652
345.276
344.82
344.469
344.315
344.365
344.613
345.016
345.407
345.79
346.162
346.382
346.491
346.527
346.397
346.185
346.182
346.169
346.289
346.669
347.118
335.253
334.9
334.616
334.496
334.519
334.7
335.044
335.324
335.618
335.887
336.075
336.121
336.176
336.072
335.916
335.911
335.892
335.983
336.276
336.613
325.205
324.951
324.749
324.663
324.666
324.791
325.052
325.248
325.453
325.639
325.774
325.792
325.838
325.767
325.658
325.656
325.631
325.696
325.924
326.155
315.149
314.988
314.862
314.813
314.824
314.896
315.052
315.167
315.263
315.384
315.496
315.492
315.506
315.485
315.405
315.4
315.378
315.43
315.567
315.703
305.072
305.027
304.987
304.968
304.961
304.991
305.036
305.084
305.118
305.157
305.183
305.198
305.201
305.194
305.157
305.154
305.155
305.171
305.207
305.27
377.042
376.382
375.704
375.545
375.459
375.92
376.462
377.169
377.748
378.254
378.693
378.891
379.046
378.855
378.79
378.783
378.88
379.173
379.811
380.728
366.816
366.262
365.649
365.512
365.461
365.828
366.294
366.868
367.373
367.808
368.209
368.324
368.466
368.28
368.225
368.184
368.279
368.517
369.084
369.84
356.587
356.082
355.58
355.458
355.445
355.709
356.099
356.565
356.968
357.383
357.721
357.774
357.89
357.748
357.683
357.639
357.71
357.928
358.409
359.012
346.323
345.905
345.502
345.4
345.396
345.569
345.912
346.284
346.593
346.985
347.241
347.253
347.356
347.221
347.176
347.123
347.178
347.375
347.781
348.238
336.048
335.71
335.407
335.34
335.351
335.452
335.715
336.01
336.228
336.563
336.763
336.747
336.828
336.71
336.689
336.626
336.666
336.847
337.167
337.513
325.757
325.518
325.305
325.277
325.286
325.324
325.513
325.724
325.879
326.123
326.277
326.245
326.319
326.224
326.214
326.147
326.195
326.327
326.577
326.796
315.482
315.306
315.194
315.172
315.204
315.2
315.329
315.444
315.543
315.7
315.785
315.753
315.797
315.76
315.745
315.691
315.738
315.804
315.98
316.101
305.188
305.137
305.098
305.088
305.102
305.103
305.135
305.181
305.201
305.265
305.29
305.287
305.295
305.289
305.278
305.252
305.274
305.294
305.362
305.393
378.836
378.122
377.371
377.151
377.279
377.527
377.927
378.492
378.981
379.608
380.02
380.132
380.25
380.277
380.295
380.372
380.536
380.968
381.637
382.537
368.327
367.742
367.065
366.879
366.998
367.19
367.534
368.026
368.419
368.939
369.292
369.399
369.472
369.477
369.503
369.592
369.689
370.069
370.637
371.371
357.808
357.337
356.743
356.601
356.693
356.867
357.149
357.526
357.871
358.283
358.594
358.665
358.729
358.735
358.739
358.831
358.903
359.236
359.716
360.272
347.301
346.943
346.437
346.325
346.397
346.558
346.769
347.051
347.343
347.654
347.94
347.976
348.011
348.02
348.042
348.111
348.149
348.449
348.832
349.252
336.798
336.527
336.125
336.042
336.098
336.212
336.385
336.581
336.825
337.049
337.292
337.321
337.317
337.331
337.374
337.431
337.433
337.655
337.98
338.264
326.294
326.106
325.807
325.762
325.804
325.875
325.99
326.142
326.316
326.455
326.645
326.676
326.635
326.657
326.714
326.73
326.744
326.895
327.128
327.331
315.794
315.686
315.499
315.475
315.493
315.545
315.611
315.704
315.808
315.879
315.994
316.023
315.988
316.005
316.04
316.058
316.062
316.145
316.307
316.416
305.296
305.257
305.203
305.19
305.199
305.207
305.228
305.272
305.294
305.315
305.355
305.381
305.364
305.368
305.384
305.397
305.379
305.4
305.469
305.506
380.239
379.413
378.685
378.447
378.454
378.606
379.063
379.488
380.127
380.65
380.989
381.132
381.297
381.365
381.293
381.632
381.755
382.219
383.037
383.806
369.496
368.77
368.15
367.962
367.954
368.094
368.458
368.848
369.367
369.81
370.113
370.193
370.338
370.385
370.317
370.601
370.688
371.102
371.806
372.406
358.788
358.15
357.6
357.498
357.48
357.615
357.89
358.216
358.625
359.018
359.266
359.335
359.442
359.483
359.392
359.636
359.716
360.039
360.645
361.102
348.076
347.578
347.077
347.035
346.998
347.154
347.328
347.587
347.911
348.278
348.45
348.518
348.594
348.604
348.521
348.721
348.787
349.037
349.556
349.893
337.362
337.03
336.587
336.589
336.533
336.685
336.807
337.021
337.225
337.539
337.668
337.718
337.775
337.757
337.703
337.882
337.904
338.098
338.513
338.745
326.684
326.49
326.132
326.15
326.098
326.227
326.298
326.446
326.59
326.8
326.913
326.936
326.977
326.956
326.925
327.079
327.09
327.196
327.49
327.643
316.003
315.933
315.704
315.713
315.671
315.763
315.778
315.892
315.968
316.084
316.162
316.156
316.181
316.193
316.176
316.255
316.284
316.328
316.5
316.584
305.362
305.343
305.27
305.258
305.243
305.288
305.283
305.328
305.356
305.385
305.415
305.413
305.422
305.439
305.423
305.458
305.451
305.467
305.538
305.567
)
;

boundaryField
{
    hotSide
    {
        type            fixedGradient;
        gradient        nonuniform List<scalar> 
400
(
542.534
543.556
548.119
556.128
567.225
580.895
596.588
613.802
632.125
651.237
670.903
690.96
711.307
731.894
752.713
773.796
795.198
816.987
839.217
861.91
522.599
523.992
529.176
538.031
550.123
564.842
581.556
599.709
618.856
638.663
658.889
679.377
700.032
720.816
741.738
762.848
784.225
805.961
828.134
850.78
512.607
514.734
520.603
530.082
542.736
557.958
575.117
593.651
613.11
633.151
653.532
674.094
694.746
715.457
736.245
757.17
778.321
799.799
821.689
844.037
511.919
515.118
521.755
531.692
544.554
559.819
576.921
595.343
614.647
634.496
654.644
674.93
695.265
715.623
736.026
756.538
777.247
798.25
819.628
841.432
518.056
522.531
530.055
540.482
553.498
568.673
585.529
603.604
622.495
641.875
661.506
681.229
700.964
720.693
740.446
760.292
780.317
800.614
821.262
842.314
528.196
534.036
542.585
553.679
567.036
582.283
599.002
616.775
635.227
654.046
673.009
691.973
710.878
729.728
748.576
767.505
786.611
805.99
825.722
845.866
539.996
547.226
556.923
568.902
582.882
598.507
615.372
633.069
651.226
669.538
687.796
705.889
723.796
741.567
759.298
777.104
795.105
813.409
832.103
851.251
551.645
560.222
571.135
584.178
599.052
615.379
632.729
650.657
668.755
686.701
704.297
721.476
738.284
754.848
771.328
787.895
804.699
821.866
839.493
857.645
561.694
571.477
583.565
597.736
613.668
630.942
649.07
667.526
685.823
703.588
720.622
736.92
752.626
767.971
783.205
798.559
814.22
830.33
846.986
864.253
568.976
579.681
592.733
607.902
624.848
643.114
662.138
681.298
699.992
717.767
734.417
750.005
764.791
779.124
793.344
807.733
822.506
837.812
853.747
870.364
572.648
583.84
597.45
613.249
630.885
649.877
669.613
689.392
708.525
726.487
743.057
758.349
772.707
786.557
800.293
814.229
828.589
843.524
859.127
875.445
572.333
583.474
597.107
612.998
630.792
649.995
669.985
690.054
709.504
727.804
744.724
760.364
775.055
789.211
803.22
817.394
831.959
847.065
862.808
879.239
568.242
578.801
591.933
607.403
624.85
643.785
663.611
683.669
703.332
722.119
739.795
756.389
772.129
787.337
802.338
817.409
832.765
848.56
864.896
881.835
561.212
570.764
583.021
597.754
614.6
633.079
652.624
672.641
692.578
712.008
730.686
748.561
765.741
782.427
798.854
815.245
831.791
848.64
865.903
883.652
552.672
560.943
572.148
586.068
602.337
620.463
639.887
660.045
680.425
700.628
720.393
739.607
758.284
776.526
794.485
812.329
830.214
848.28
866.636
885.361
544.646
551.507
561.638
574.838
590.711
608.719
628.265
648.77
669.728
690.741
711.537
731.965
751.981
771.622
790.979
810.174
829.337
848.591
868.042
887.768
539.826
545.283
554.409
567.018
582.654
600.697
620.476
641.374
662.871
684.57
706.193
727.572
748.634
769.377
789.854
810.155
830.389
850.667
871.086
891.723
541.459
545.683
553.897
565.926
581.259
599.196
619.006
640.042
661.78
683.829
705.914
727.863
749.585
771.057
792.306
813.399
834.425
855.482
876.661
898.027
552.431
555.766
563.142
574.405
589.049
606.378
625.672
646.296
667.743
689.632
711.692
733.748
755.696
777.495
799.149
820.701
842.22
863.785
885.471
907.331
573.619
576.451
583.053
593.3
606.777
622.896
641.032
660.615
681.178
702.357
723.886
745.582
767.327
789.06
810.762
832.45
854.166
875.963
897.893
919.991
)
;
    }
    coldSide
    {
        type            mixed;
        refValue        uniform 300;
        refGradient     uniform 0;
        valueFraction   uniform 0.991591;
        source          uniform 0;
        value           nonuniform List<scalar> 
400
(
300.03
300.03
300.03
300.031
300.031
300.032
300.033
300.033
300.034
300.036
300.036
300.037
300.038
300.039
300.041
300.042
300.043
300.044
300.045
300.045
300.029
300.029
300.029
300.03
300.03
300.031
300.032
300.033
300.034
300.035
300.036
300.037
300.038
300.039
300.04
300.041
300.042
300.043