/*--------------------------------*- C++ -*----------------------------------*\
| =========                 |                                                 |
| \\      /  F ield         | OpenFOAM: The Open Source CFD Toolbox           |
|  \\    /   O peration     | Version:  2212                                  |
|   \\  /    A nd           | Website:  www.openfoam.com                      |
|    \\/     M anipulation  |                                                 |
\*---------------------------------------------------------------------------*/
FoamFile
{
    version     2.0;
    format      ascii;
    arch        "LSB;label=32;scalar=64";
    class       volScalarField;
    location    "0";
    object      Tdirect;
}
// * * * * * * * * * * * * * * * * * * * * * * * * * * * * * * * * * * * * * //

dimensions      [0 0 0 1 0 0 0];

internalField   nonuniform List<scalar> 
3200
(
347.219
347.978
348.947
350.002
351.09
352.157
353.143
353.974
354.58
354.9
354.9
354.58
353.974
353.143
352.157
351.09
350.002
348.947
347.978
347.219
340.939
341.581
342.417
343.33
344.271
345.194
346.046
346.765
347.288
347.564
347.564
347.288
346.765
346.046
345.194
344.271
343.33
342.417
341.581
340.939
334.653
335.186
335.89
336.662
337.457
338.237
338.956
339.563
340.004
340.237
340.237
340.004
339.563
338.956
338.237
337.457
336.662
335.89
335.186
334.653
328.363
328.792
329.366
329.997
330.647
331.284
331.871
332.367
332.727
332.917
332.917
332.727
332.367
331.871
331.284
330.647
329.997
329.366
328.792
328.363
322.07
322.399
322.844
323.334
323.839
324.335
324.791
325.176
325.455
325.603
325.603
325.455
325.176
324.791
324.335
323.839
323.334
322.844
322.399
322.07
315.773
316.007
316.324
316.674
317.035
317.388
317.714
317.988
318.188
318.293
318.293
318.188
317.988
317.714
317.388
317.035
316.674
316.324
316.007
315.773
309.475
309.615
309.805
310.015
310.232
310.444
310.639
310.804
310.924
310.987
310.987
310.924
310.804
310.639
310.444
310.232
310.015
309.805
309.615
309.475
303.176
303.223
303.287
303.357
303.43
303.501
303.566
303.621
303.662
303.683
303.683
303.662
303.621
303.566
303.501
303.43
303.357
303.287
303.223
303.176
347.365
348.117
349.078
350.124
351.2
352.256
353.229
354.051
354.649
354.965
354.965
354.649
354.051
353.229
352.256
351.2
350.124
349.078
348.117
347.365
341.065
341.702
342.53
343.435
344.367
345.28
346.122
346.831
347.348
347.62
347.62
347.348
346.831
346.122
345.28
344.367
343.435
342.53
341.702
341.065
334.759
335.288
335.986
336.75
337.538
338.309
339.02
339.619
340.055
340.285
340.285
340.055
339.619
339.02
338.309
337.538
336.75
335.986
335.288
334.759
328.45
328.875
329.444
330.069
330.713
331.343
331.924
332.413
332.768
332.956
332.956
332.768
332.413
331.924
331.343
330.713
330.069
329.444
328.875
328.45
322.137
322.464
322.905
323.391
323.891
324.381
324.832
325.212
325.488
325.633
325.633
325.488
325.212
324.832
324.381
323.891
323.391
322.905
322.464
322.137
315.822
316.053
316.367
316.714
317.071
317.421
317.743
318.014
318.211
318.315
318.315
318.211
318.014
317.743
317.421
317.071
316.714
316.367
316.053
315.822
309.504
309.642
309.831
310.039
310.254
310.464
310.657
310.82
310.938
311
311
310.938
310.82
310.657
310.464
310.254
310.039
309.831
309.642
309.504
303.186
303.232
303.295
303.365
303.437
303.507
303.572
303.627
303.666
303.687
303.687
303.666
303.627
303.572
303.507
303.437
303.365
303.295
303.232
303.186
347.657
348.397
349.341
350.368
351.423
352.456
353.407
354.208
354.791
355.098
355.098
354.791
354.208
353.407
352.456
351.423
350.368
349.341
348.397
347.657
341.317
341.944
342.758
343.647
344.56
345.453
346.275
346.968
347.471
347.737
347.737
347.471
346.968
346.275
345.453
344.56
343.647
342.758
341.944
341.317
334.973
335.493
336.179
336.929
337.701
338.456
339.15
339.735
340.159
340.383
340.383
340.159
339.735
339.15
338.456
337.701
336.929
336.179
335.493
334.973
328.624
329.043
329.602
330.215
330.846
331.463
332.03
332.508
332.854
333.037
333.037
332.854
332.508
332.03
331.463
330.846
330.215
329.602
329.043
328.624
322.272
322.594
323.028
323.504
323.994
324.474
324.915
325.285
325.555
325.697
325.697
325.555
325.285
324.915
324.474
323.994
323.504
323.028
322.594
322.272
315.918
316.146
316.455
316.795
317.145
317.488
317.802
318.067
318.259
318.36
318.36
318.259
318.067
317.802
317.488
317.145
316.795
316.455
316.146
315.918
309.562
309.698
309.884
310.088
310.298
310.504
310.693
310.851
310.967
311.027
311.027
310.967
310.851
310.693
310.504
310.298
310.088
309.884
309.698
309.562
303.206
303.251
303.313
303.381
303.452
303.521
303.584
303.637
303.676
303.696
303.696
303.676
303.637
303.584
303.521
303.452
303.381
303.313
303.251
303.206
348.096
348.82
349.74
350.739
351.762
352.762
353.681
354.453
355.014
355.31
355.31
355.014
354.453
353.681
352.762
351.762
350.739
349.74
348.82
348.096
341.697
342.31
343.104
343.968
344.853
345.719
346.513
347.181
347.665
347.921
347.921
347.665
347.181
346.513
345.719
344.853
343.968
343.104
342.31
341.697
335.294
335.802
336.471
337.201
337.949
338.68
339.351
339.915
340.324
340.54
340.54
340.324
339.915
339.351
338.68
337.949
337.201
336.471
335.802
335.294
328.886
329.295
329.841
330.437
331.049
331.647
332.195
332.655
332.989
333.165
333.165
332.989
332.655
332.195
331.647
331.049
330.437
329.841
329.295
328.886
322.476
322.79
323.213
323.677
324.153
324.617
325.043
325.4
325.66
325.796
325.796
325.66
325.4
325.043
324.617
324.153
323.677
323.213
322.79
322.476
316.064
316.286
316.587
316.919
317.258
317.59
317.894
318.149
318.334
318.432
318.432
318.334
318.149
317.894
317.59
317.258
316.919
316.587
316.286
316.064
309.65
309.782
309.963
310.162
310.366
310.565
310.748
310.901
311.012
311.07
311.07
311.012
310.901
310.748
310.565
310.366
310.162
309.963
309.782
309.65
303.235
303.279
303.34
303.406
303.475
303.541
303.603
303.654
303.691
303.711
303.711
303.691
303.654
303.603
303.541
303.475
303.406
303.34
303.279
303.235
348.686
349.387
350.278
351.24
352.224
353.183
354.061
354.797
355.33
355.611
355.611
355.33
354.797
354.061
353.183
352.224
351.24
350.278
349.387
348.686
342.207
342.801
343.569
344.402
345.254
346.083
346.842
347.479
347.94
348.183
348.183
347.94
347.479
346.842
346.083
345.254
344.402
343.569
342.801
342.207
335.724
336.217
336.864
337.568
338.288
338.989
339.63
340.168
340.557
340.762
340.762
340.557
340.168
339.63
338.989
338.288
337.568
336.864
336.217
335.724
329.238
329.635
330.162
330.737
331.326
331.899
332.423
332.862
333.18
333.347
333.347
333.18
332.862
332.423
331.899
331.326
330.737
330.162
329.635
329.238
322.749
323.054
323.463
323.91
324.368
324.813
325.22
325.561
325.808
325.938
325.938
325.808
325.561
325.22
324.813
324.368
323.91
323.463
323.054
322.749
316.259
316.474
316.766
317.085
317.412
317.73
318.021
318.264
318.441
318.533
318.533
318.441
318.264
318.021
317.73
317.412
317.085
316.766
316.474
316.259
309.767
309.895
310.07
310.262
310.458
310.649
310.824
310.97
311.076
311.131
311.131
311.076
310.97
310.824
310.649
310.458
310.262
310.07
309.895
309.767
303.274
303.317
303.376
303.44
303.506
303.57
303.628
303.677
303.713
303.731
303.731
303.713
303.677
303.628
303.57
303.506
303.44
303.376
303.317
303.274
349.429
350.104
350.958
351.879
352.817
353.726
354.557
355.252
355.754
356.018
356.018
355.754
355.252
354.557
353.726
352.817
351.879
350.958
350.104
349.429
342.85
343.421
344.158
344.955
345.766
346.554
347.273
347.873
348.307
348.536
348.536
348.307
347.873
347.273
346.554
345.766
344.955
344.158
343.421
342.85
336.267
336.741
337.362
338.035
338.721
339.387
339.994
340.502
340.868
341.061
341.061
340.868
340.502
339.994
339.387
338.721
338.035
337.362
336.741
336.267
329.681
330.063
330.569
331.12
331.681
332.225
332.721
333.136
333.435
333.592
333.592
333.435
333.136
332.721
332.225
331.681
331.12
330.569
330.063
329.681
323.094
323.387
323.779
324.207
324.644
325.067
325.452
325.774
326.007
326.129
326.129
326.007
325.774
325.452
325.067
324.644
324.207
323.779
323.387
323.094
316.505
316.712
316.992
317.297
317.609
317.911
318.187
318.417
318.583
318.67
318.67
318.583
318.417
318.187
317.911
317.609
317.297
316.992
316.712
316.505
309.914
310.038
310.206
310.389
310.577
310.758
310.923
311.061
311.161
311.213
311.213
311.161
311.061
310.923
310.758
310.577
310.389
310.206
310.038
309.914
303.324
303.365
303.421
303.483
303.545
303.606
303.661
303.708
303.741
303.759
303.759
303.741
303.708
303.661
303.606
303.545
303.483
303.421
303.365
303.324
350.328
350.973
351.787
352.661
353.547
354.403
355.182
355.831
356.299
356.545
356.545
356.299
355.831
355.182
354.403
353.547
352.661
351.787
350.973
350.328
343.627
344.173
344.875
345.632
346.399
347.14
347.814
348.376
348.78
348.993
348.993
348.78
348.376
347.814
347.14
346.399
345.632
344.875
344.173
343.627
336.923
337.376
337.968
338.607
339.256
339.883
340.453
340.927
341.269
341.448
341.448
341.269
340.927
340.453
339.883
339.256
338.607
337.968
337.376
336.923
330.218
330.582
331.065
331.587
332.118
332.63
333.096
333.484
333.763
333.909
333.909
333.763
333.484
333.096
332.63
332.118
331.587
331.065
330.582
330.218
323.511
323.791
324.165
324.571
324.984
325.382
325.744
326.045
326.262
326.376
326.376
326.262
326.045
325.744
325.382
324.984
324.571
324.165
323.791
323.511
316.802
317
317.267
317.557
317.852
318.137
318.395
318.61
318.765
318.846
318.846
318.765
318.61
318.395
318.137
317.852
317.557
317.267
317
316.802
310.093
310.211
310.371
310.545
310.722
310.893
311.048
311.178
311.271
311.319
311.319
311.271
311.178
311.048
310.893
310.722
310.545
310.371
310.211
310.093
303.383
303.423
303.476
303.535
303.594
303.651
303.703
303.747
303.778
303.794
303.794
303.778
303.747
303.703
303.651
303.594
303.535
303.476
303.423
303.383
351.386
351.999
352.77
353.593
354.424
355.224
355.948
356.549
356.982
357.208
357.208
356.982
356.549
355.948
355.224
354.424
353.593
352.77
351.999
351.386
344.542
345.061
345.726
346.439
347.159
347.851
348.478
348.998
349.372
349.568
349.568
349.372
348.998
348.478
347.851
347.159
346.439
345.726
345.061
344.542
337.696
338.127
338.687
339.29
339.899
340.484
341.014
341.453
341.769
341.935
341.935
341.769
341.453
341.014
340.484
339.899
339.29
338.687
338.127
337.696
330.849
331.196
331.653
332.145
332.643
333.122
333.555
333.914
334.173
334.308
334.308
334.173
333.914
333.555
333.122
332.643
332.145
331.653
331.196
330.849
324.001
324.267
324.622
325.005
325.392
325.764
326.101
326.38
326.581
326.686
326.686
326.581
326.38
326.101
325.764
325.392
325.005
324.622
324.267
324.001
317.153
317.341
317.593
317.867
318.144
318.41
318.65
318.849
318.993
319.068
319.068
318.993
318.849
318.65
318.41
318.144
317.867
317.593
317.341
317.153
310.303
310.416
310.567
310.731
310.898
311.057
311.202
311.321
311.407
311.452
311.452
311.407
311.321
311.202
311.057
310.898
310.731
310.567
310.416
310.303
303.454
303.491
303.542
303.597
303.653
303.706
303.755
303.795
303.824
303.839
303.839
303.824
303.795
303.755
303.706
303.653
303.597
303.542
303.491
303.454
352.607
353.187
353.911
354.683
355.457
356.199
356.867
357.42
357.816
358.023
358.023
357.816
357.42
356.867
356.199
355.457
354.683
353.911
353.187
352.607
345.599
346.089
346.714
347.382
348.053
348.695
349.273
349.752
350.095
350.274
350.274
350.095
349.752
349.273
348.695
348.053
347.382
346.714
346.089
345.599
338.589
338.995
339.522
340.087
340.654
341.197
341.687
342.091
342.381
342.532
342.532
342.381
342.091
341.687
341.197
340.654
340.087
339.522
338.995
338.589
331.579
331.906
332.336
332.797
333.261
333.705
334.105
334.436
334.673
334.797
334.797
334.673
334.436
334.105
333.705
333.261
332.797
332.336
331.906
331.579
324.568
324.819
325.153
325.511
325.872
326.218
326.529
326.786
326.97
327.066
327.066
326.97
326.786
326.529
326.218
325.872
325.511
325.153
324.819
324.568
317.557
317.735
317.973
318.229
318.487
318.734
318.956
319.139
319.271
319.339
319.339
319.271
319.139
318.956
318.734
318.487
318.229
317.973
317.735
317.557
310.546
310.652
310.795
310.949
311.104
311.252
311.385
311.495
311.574
311.616
311.616
311.574
311.495
311.385
311.252
311.104
310.949
310.795
310.652
310.546
303.535
303.571
303.618
303.67
303.722
303.772
303.816
303.853
303.88
303.894
303.894
303.88
303.853
303.816
303.772
303.722
303.67
303.618
303.571
303.535
353.996
354.54
355.218
355.936
356.653
357.336
357.949
358.454
358.815
359.003
359.003
358.815
358.454
357.949
357.336
356.653
355.936
355.218
354.54
353.996
346.799
347.26
347.845
348.467
349.088
349.68
350.211
350.648
350.96
351.123
351.123
350.96
350.648
350.211
349.68
349.088
348.467
347.845
347.26
346.799
339.603
339.985
340.478
341.004
341.53
342.03
342.479
342.849
343.113
343.25
343.25
343.113
342.849
342.479
342.03
341.53
341.004
340.478
339.985
339.603
332.407
332.715
333.117
333.547
333.977
334.386
334.753
335.056
335.271
335.384
335.384
335.271
335.056
334.753
334.386
333.977
333.547
333.117
332.715
332.407
325.212
325.448
325.76
326.094
326.429
326.747
327.033
327.268
327.435
327.523
327.523
327.435
327.268
327.033
326.747
326.429
326.094
325.76
325.448
325.212
318.017
318.184
318.406
318.645
318.884
319.112
319.316
319.483
319.603
319.666
319.666
319.603
319.483
319.316
319.112
318.884
318.645
318.406
318.184
318.017
310.822
310.922
311.055
311.199
311.342
311.479
311.601
311.702
311.774
311.812
311.812
311.774
311.702
311.601
311.479
311.342
311.199
311.055
310.922
310.822
303.628
303.661
303.706
303.754
303.802
303.848
303.889
303.923
303.947
303.959
303.959
303.947
303.923
303.889
303.848
303.802
303.754
303.706
303.661
303.628
355.554
356.063
356.694
357.359
358.02
358.646
359.205
359.663
359.99
360.16
360.16
359.99
359.663
359.205
358.646
358.02
357.359
356.694
356.063
355.554
348.147
348.578
349.123
349.698
350.271
350.813
351.298
351.695
351.978
352.125
352.125
351.978
351.695
351.298
350.813
350.271
349.698
349.123
348.578
348.147
340.742
341.099
341.558
342.045
342.53
342.988
343.398
343.734
343.973
344.097
344.097
343.973
343.734
343.398
342.988
342.53
342.045
341.558
341.099
340.742
333.338
333.625
334
334.398
334.794
335.17
335.505
335.779
335.975
336.077
336.077
335.975
335.779
335.505
335.17
334.794
334.398
334
333.625
333.338
325.935
326.156
326.446
326.756
327.064
327.356
327.617
327.83
327.982
328.062
328.062
327.982
327.83
327.617
327.356
327.064
326.756
326.446
326.156
325.935
318.533
318.69
318.897
319.118
319.338
319.547
319.733
319.885
319.994
320.051
320.051
319.994
319.885
319.733
319.547
319.338
319.118
318.897
318.69
318.533
311.132
311.225
311.35
311.482
311.615
311.74
311.852
311.944
312.009
312.043
312.043
312.009
311.944
311.852
311.74
311.615
311.482
311.35
311.225
311.132
303.732
303.763
303.804
303.849
303.893
303.935
303.973
304.003
304.025
304.037
304.037
304.025
304.003
303.973
303.935
303.893
303.849
303.804
303.763
303.732
357.285
357.759
358.344
358.957
359.563
360.135
360.642
361.056
361.351
361.504
361.504
361.351
361.056
360.642
360.135
359.563
358.957
358.344
357.759
357.285
349.645
350.046
350.551
351.082
351.607
352.102
352.542
352.901
353.156
353.288
353.288
353.156
352.901
352.542
352.102
351.607
351.082
350.551
350.046
349.645
342.007
342.34
342.765
343.215
343.659
344.078
344.45
344.753
344.969
345.081
345.081
344.969
344.753
344.45
344.078
343.659
343.215
342.765
342.34
342.007
334.372
334.64
334.987
335.354
335.718
336.06
336.365
336.613
336.789
336.881
336.881
336.789
336.613
336.365
336.06
335.718
335.354
334.987
334.64
334.372
326.739
326.944
327.213
327.499
327.782
328.048
328.285
328.478
328.616
328.687
328.687
328.616
328.478
328.285
328.048
327.782
327.499
327.213
326.944
326.739
319.107
319.253
319.445
319.649
319.851
320.041
320.21
320.348
320.446
320.497
320.497
320.446
320.348
320.21
320.041
319.851
319.649
319.445
319.253
319.107
311.477
311.564
311.679
311.801
311.923
312.037
312.139
312.221
312.28
312.311
312.311
312.28
312.221
312.139
312.037
311.923
311.801
311.679
311.564
311.477
303.847
303.876
303.915
303.956
303.996
304.035
304.069
304.097
304.116
304.127
304.127
304.116
304.097
304.069
304.035
303.996
303.956
303.915
303.876
303.847
359.192
359.632
360.172
360.735
361.289
361.808
362.267
362.64
362.904
363.041
363.041
362.904
362.64
362.267
361.808
361.289
360.735
360.172
359.632
359.192
351.294
351.666
352.133
352.621
353.1
353.55
353.948
354.271
354.5
354.619
354.619
354.5
354.271
353.948
353.55
353.1
352.621
352.133
351.666
351.294
343.401
343.709
344.102
344.515
344.921
345.302
345.638
345.912
346.105
346.206
346.206
346.105
345.912
345.638
345.302
344.921
344.515
344.102
343.709
343.401
335.511
335.759
336.08
336.417
336.749
337.061
337.336
337.56
337.718
337.801
337.801
337.718
337.56
337.336
337.061
336.749
336.417
336.08
335.759
335.511
327.624
327.814
328.063
328.325
328.584
328.826
329.041
329.215
329.338
329.402
329.402
329.338
329.215
329.041
328.826
328.584
328.325
328.063
327.814
327.624
319.739
319.874
320.051
320.239
320.423
320.597
320.75
320.874
320.962
321.008
321.008
320.962
320.874
320.75
320.597
320.423
320.239
320.051
319.874
319.739
311.856
311.937
312.043
312.156
312.267
312.371
312.462
312.537
312.59
312.618
312.618
312.59
312.537
312.462
312.371
312.267
312.156
312.043
311.937
311.856
303.974
304.001
304.037
304.074
304.112
304.147
304.177
304.202
304.22
304.229
304.229
304.22
304.202
304.177
304.147
304.112
304.074
304.037
304.001
303.974
361.275
361.682
362.179
362.695
363.199
363.669
364.083
364.418
364.654
364.777
364.777
364.654
364.418
364.083
363.669
363.199
362.695
362.179
361.682
361.275
353.096
353.44
353.87
354.316
354.753
355.161
355.519
355.81
356.015
356.121
356.121
356.015
355.81
355.519
355.161
354.753
354.316
353.87
353.44
353.096
344.923
345.208
345.57
345.948
346.318
346.663
346.966
347.212
347.386
347.475
347.475
347.386
347.212
346.966
346.663
346.318
345.948
345.57
345.208
344.923
336.755
336.984
337.279
337.588
337.891
338.173
338.422
338.623
338.765
338.838
338.838
338.765
338.623
338.422
338.173
337.891
337.588
337.279
336.984
336.755
328.59
328.767
328.996
329.236
329.471
329.691
329.884
330.041
330.151
330.208
330.208
330.151
330.041
329.884
329.691
329.471
329.236
328.996
328.767
328.59
320.429
320.554
320.717
320.889
321.057
321.214
321.352
321.464
321.543
321.584
321.584
321.543
321.464
321.352
321.214
321.057
320.889
320.717
320.554
320.429
312.27
312.345
312.443
312.546
312.647
312.741
312.824
312.891
312.939
312.963
312.963
312.939
312.891
312.824
312.741
312.647
312.546
312.443
312.345
312.27
304.113
304.138
304.171
304.205
304.239
304.271
304.299
304.321
304.337
304.345
304.345
304.337
304.321
304.299
304.271
304.239
304.205
304.171
304.138
304.113
363.533
363.908
364.364
364.835
365.293
365.718
366.09
366.391
366.602
366.711
366.711
366.602
366.391
366.09
365.718
365.293
364.835
364.364
363.908
363.533
355.049
355.366
355.76
356.168
356.565
356.934
357.256
357.516
357.7
357.794
357.794
357.7
357.516
357.256
356.934
356.565
356.168
355.76
355.366
355.049
346.572
346.835
347.167
347.512
347.849
348.16
348.433
348.654
348.809
348.889
348.889
348.809
348.654
348.433
348.16
347.849
347.512
347.167
346.835
346.572
338.102
338.314
338.584
338.867
339.142
339.397
339.621
339.801
339.928
339.993
339.993
339.928
339.801
339.621
339.397
339.142
338.867
338.584
338.314
338.102
329.637
329.8
330.01
330.229
330.443
330.642
330.816
330.956
331.055
331.106
331.106
331.055
330.956
330.816
330.642
330.443
330.229
330.01
329.8
329.637
321.177
321.291
321.441
321.598
321.751
321.893
322.017
322.118
322.188
322.225
322.225
322.188
322.118
322.017
321.893
321.751
321.598
321.441
321.291
321.177
312.719
312.788
312.877
312.972
313.064
313.149
313.224
313.284
313.326
313.348
313.348
313.326
313.284
313.224
313.149
313.064
312.972
312.877
312.788
312.719
304.263
304.286
304.316
304.348
304.379
304.407
304.432
304.453
304.467
304.474
304.474
304.467
304.453
304.432
304.407
304.379
304.348
304.316
304.286
304.263
365.956
366.301
366.72
367.149
367.564
367.948
368.282
368.551
368.739
368.836
368.836
368.739
368.551
368.282
367.948
367.564
367.149
366.72
366.301
365.956
357.143
357.435
357.796
358.168
358.528
358.861
359.151
359.383
359.547
359.631
359.631
359.547
359.383
359.151
358.861
358.528
358.168
357.796
357.435
357.143
348.34
348.582
348.886
349.201
349.506
349.787
350.033
350.23
350.368
350.44
350.44
350.368
350.23
350.033
349.787
349.506
349.201
348.886
348.582
348.34
339.545
339.74
339.988
340.246
340.495
340.726
340.927
341.088
341.201
341.26
341.26
341.201
341.088
340.927
340.726
340.495
340.246
339.988
339.74
339.545
330.758
330.907
331.1
331.3
331.494
331.674
331.83
331.956
332.044
332.089
332.089
332.044
331.956
331.83
331.674
331.494
331.3
331.1
330.907
330.758
321.976
322.082
322.219
322.363
322.501
322.63
322.741
322.831
322.894
322.927
322.927
322.894
322.831
322.741
322.63
322.501
322.363
322.219
322.082
321.976
313.199
313.262
313.344
313.43
313.514
313.591
313.658
313.712
313.75
313.769
313.769
313.75
313.712
313.658
313.591
313.514
313.43
313.344
313.262
313.199
304.424
304.445
304.473
304.502
304.53
304.555
304.578
304.596
304.609
304.615
304.615
304.609
304.596
304.578
304.555
304.53
304.502
304.473
304.445
304.424
368.52
368.837
369.22
369.612
369.988
370.334
370.634
370.875
371.043
371.129
371.129
371.043
370.875
370.634
370.334
369.988
369.612
369.22
368.837
368.52
359.355
359.623
359.954
360.293
360.619
360.919
361.18
361.388
361.534
361.609
361.609
361.534
361.388
361.18
360.919
360.619
360.293
359.954
359.623
359.355
350.203
350.426
350.705
350.991
351.268
351.522
351.743
351.919
352.043
352.106
352.106
352.043
351.919
351.743
351.522
351.268
350.991
350.705
350.426
350.203
341.065
341.244
341.471
341.706
341.932
342.14
342.321
342.465
342.567
342.619
342.619
342.567
342.465
342.321
342.14
341.932
341.706
341.471
341.244
341.065
331.936
332.074
332.25
332.433
332.609
332.771
332.912
333.024
333.103
333.144
333.144
333.103
333.024
332.912
332.771
332.609
332.433
332.25
332.074
331.936
322.817
322.914
323.04
323.17
323.296
323.412
323.512
323.593
323.649
323.678
323.678
323.649
323.593
323.512
323.412
323.296
323.17
323.04
322.914
322.817
313.703
313.761
313.836
313.915
313.99
314.06
314.12
314.169
314.203
314.22
314.22
314.203
314.169
314.12
314.06
313.99
313.915
313.836
313.761
313.703
304.593
304.612
304.638
304.664
304.689
304.713
304.733
304.749
304.76
304.766
304.766
304.76
304.749
304.733
304.713
304.689
304.664
304.638
304.612
304.593
371.159
371.451
371.802
372.158
372.5
372.813
373.083
373.299
373.449
373.527
373.527
373.449
373.299
373.083
372.813
372.5
372.158
371.802
371.451
371.159
361.62
361.867
362.17
362.48
362.776
363.048
363.282
363.47
363.6
363.668
363.668
363.6
363.47
363.282
363.048
362.776
362.48
362.17
361.867
361.62
352.105
352.309
352.565
352.827
353.078
353.308
353.507
353.666
353.777
353.834
353.834
353.777
353.666
353.507
353.308
353.078
352.827
352.565
352.309
352.105
342.609
342.774
342.983
343.197
343.403
343.591
343.754
343.884
343.975
344.022
344.022
343.975
343.884
343.754
343.591
343.403
343.197
342.983
342.774
342.609
333.131
333.257
333.419
333.586
333.747
333.893
334.02
334.121
334.192
334.228
334.228
334.192
334.121
334.02
333.893
333.747
333.586
333.419
333.257
333.131
323.666
323.756
323.871
323.991
324.105
324.21
324.301
324.373
324.424
324.45
324.45
324.424
324.373
324.301
324.21
324.105
323.991
323.871
323.756
323.666
314.212
314.265
314.334
314.406
314.475
314.538
314.593
314.636
314.667
314.682
314.682
314.667
314.636
314.593
314.538
314.475
314.406
314.334
314.265
314.212
304.763
304.781
304.804
304.828
304.851
304.873
304.891
304.905
304.916
304.921
304.921
304.916
304.905
304.891
304.873
304.851
304.828
304.804
304.781
304.763
373.702
373.972
374.296
374.624
374.936
375.221
375.467
375.662
375.798
375.868
375.868
375.798
375.662
375.467
375.221
374.936
374.624
374.296
373.972
373.702
363.778
364.006
364.286
364.571
364.843
365.09
365.304
365.474
365.592
365.652
365.652
365.592
365.474
365.304
365.09
364.843
364.571
364.286
364.006
363.778
353.896
354.085
354.322
354.563
354.793
355.004
355.185
355.329
355.429
355.481
355.481
355.429
355.329
355.185
355.004
354.793
354.563
354.322
354.085
353.896
344.051
344.204
344.397
344.594
344.783
344.956
345.104
345.222
345.305
345.347
345.347
345.305
345.222
345.104
344.956
344.783
344.594
344.397
344.204
344.051
334.237
334.355
334.505
334.659
334.806
334.94
335.056
335.148
335.212
335.245
335.245
335.212
335.148
335.056
334.94
334.806
334.659
334.505
334.355
334.237
324.449
324.532
324.639
324.749
324.855
324.951
325.034
325.1
325.145
325.169
325.169
325.145
325.1
325.034
324.951
324.855
324.749
324.639
324.532
324.449
314.679
314.728
314.792
314.859
314.922
314.98
315.03
315.069
315.097
315.111
315.111
315.097
315.069
315.03
314.98
314.922
314.859
314.792
314.728
314.679
304.919
304.936
304.957
304.98
305.001
305.02
305.037
305.05
305.059
305.064
305.064
305.059
305.05
305.037
305.02
305.001
304.98
304.957
304.936
304.919
375.702
375.956
376.26
376.568
376.86
377.126
377.354
377.536
377.662
377.726
377.726
377.662
377.536
377.354
377.126
376.86
376.568
376.26
375.956
375.702
365.409
365.625
365.889
366.157
366.412
366.644
366.843
367.001
367.111
367.168
367.168
367.111
367.001
366.843
366.644
366.412
366.157
365.889
365.625
365.409
355.208
355.388
355.611
355.839
356.056
356.253
356.422
356.557
356.651
356.699
356.699
356.651
356.557
356.422
356.253
356.056
355.839
355.611
355.388
355.208
345.081
345.226
345.409
345.596
345.774
345.936
346.075
346.186
346.263
346.303
346.303
346.263
346.186
346.075
345.936
345.774
345.596
345.409
345.226
345.081
335.013
335.125
335.267
335.413
335.552
335.678
335.787
335.874
335.934
335.965
335.965
335.934
335.874
335.787
335.678
335.552
335.413
335.267
335.125
335.013
324.99
325.069
325.171
325.275
325.375
325.466
325.543
325.605
325.648
325.671
325.671
325.648
325.605
325.543
325.466
325.375
325.275
325.171
325.069
324.99
314.999
315.046
315.107
315.17
315.23
315.284
315.331
315.368
315.394
315.407
315.407
315.394
315.368
315.331
315.284
315.23
315.17
315.107
315.046
314.999
305.026
305.041
305.062
305.083
305.103
305.121
305.137
305.15
305.158
305.163
305.163
305.158
305.15
305.137
305.121
305.103
305.083
305.062
305.041
305.026
)
;

boundaryField
{
    hotSide
    {
        type            fixedGradient;
        gradient        nonuniform List<scalar> 
400
(
501.907
503.495
506.681
511.48
517.913
526.01
535.803
547.326
560.617
575.711
592.644
611.45
632.158
654.796
679.388
705.955
734.513
765.077
797.657
832.263
511.891
513.401
516.432
521.004
527.148
534.902
544.307
555.409
568.256
582.893
599.365
617.713
637.973
660.178
684.355
710.529
738.717
768.935
801.194
835.502
522.697
524.112
526.958
531.262
537.064
544.413
553.365
563.978
576.313
590.427
606.376
624.208
643.969
665.695
689.418
715.164
742.954
772.802
804.72
838.714
534.144
535.45
538.08
542.073
547.48
554.365
562.8
572.86
584.62
598.151
613.522
630.79
650.008
671.219
694.457
719.752
747.124
776.588
808.154
841.828
545.913
547.095
549.485
553.129
558.096
564.467
572.333
581.788
592.924
605.83
620.584
637.256
655.906
676.582
699.322
724.156
751.105
780.183
811.399
844.756
557.514
558.564
560.695
563.969
568.469
574.298
581.568
590.393
600.886
613.15
627.278
643.351
661.434
681.581
703.832
728.217
754.758
783.466
814.347
847.405
568.282
569.199
571.073
573.978
578.017
583.313
589.999
598.213
608.084
619.734
633.268
648.775
666.328
685.984
707.785
731.76
757.93
786.304
816.887
849.677
577.42
578.219
579.861
582.435
586.061
590.881
597.051
604.726
614.055
625.171
638.192
653.214
670.316
689.556
710.977
734.61
760.472
788.57
818.908
851.479
584.108
584.815
586.281
588.602
591.913
596.373
602.153
609.423
618.345
629.065
641.706
656.371
673.142
692.079
713.226
736.611
762.251
790.152
820.314
852.731
587.652
588.309
589.678
591.862
595.002
599.267
604.836
611.888
620.593
631.099
643.538
658.013
674.609
693.386
714.388
737.644
763.168
790.966
821.037
853.373
587.652
588.309
589.678
591.862
595.002
599.267
604.836
611.888
620.593
631.099
643.538
658.013
674.609
693.386
714.388
737.644
763.168
790.966
821.037
853.373
584.108
584.815
586.281
588.602
591.913
596.373
602.153
609.423
618.345
629.065
641.706
656.371
673.142
692.079
713.226
736.611
762.251
790.152
820.314
852.731
577.42
578.219
579.861
582.435
586.061
590.881
597.051
604.726
614.055
625.171
638.192
653.214
670.316
689.556
710.977
734.61
760.472
788.57
818.908
851.479
568.282
569.199
571.073
573.978
578.017
583.313
589.999
598.213
608.084
619.734
633.268
648.775
666.328
685.984
707.785
731.76
757.93
786.304
816.887
849.677
557.514
558.564
560.695
563.969
568.469
574.298
581.568
590.393
600.886
613.15
627.278
643.351
661.434
681.581
703.832
728.217
754.758
783.466
814.347
847.405
545.913
547.095
549.485
553.129
558.096
564.467
572.333
581.788
592.924
605.83
620.584
637.256
655.906
676.582
699.322
724.156
751.105
780.183
811.399
844.756
534.144
535.45
538.08
542.073
547.48
554.365
562.8
572.86
584.62
598.151
613.522
630.79
650.008
671.219
694.457
719.752
747.124
776.588
808.154
841.828
522.697
524.112
526.958
531.262
537.064
544.413
553.365
563.978
576.313
590.427
606.376
624.208
643.969
665.695
689.418
715.164
742.954
772.802
804.72
838.714
511.891
513.401
516.432
521.004
527.148
534.902
544.307
555.409
568.256
582.893
599.365
617.713
637.973
660.178
684.355
710.529
738.717
768.935
801.194
835.502
501.907
503.495
506.681
511.48
517.913
526.01
535.803
547.326
560.617
575.711
592.644
611.45
632.158
654.796
679.388
705.955
734.513
765.077
797.657
832.263
)
;
    }
    coldSide
    {
        type            mixed;
        refValue        uniform 300;
        refGradient     uniform 0;
        valueFraction   uniform 0.991591;
        source          uniform 0;
        value           nonuniform List<scalar> 
400
(
300.027
300.027
300.027
300.027
300.028
300.028
300.028
300.029
300.03
300.031
300.031
300.032
300.033
300.035
300.036
300.037
300.039
300.04
300.041
300.042
300.027
300.027
300.027
300.028
300.028
300.028
300.029
300.029
300.03
300.031
300.032
300.033
300.034
300.035
300.036
300.037
300.039