/*--------------------------------*- C++ -*----------------------------------*\
| =========                 |                                                 |
| \\      /  F ield         | OpenFOAM: The Open Source CFD Toolbox           |
|  \\    /   O peration     | Version:  2212                                  |
|   \\  /    A nd           | Website:  www.openfoam.com                      |
|    \\/     M anipulation  |                                                 |
\*---------------------------------------------------------------------------*/
FoamFile
{
    version     2.0;
    format      ascii;
    arch        "LSB;label=32;scalar=64";
    class       volScalarField;
    location    "0";
    object      Tdirect;
}
// * * * * * * * * * * * * * * * * * * * * * * * * * * * * * * * * * * * * * //

dimensions      [0 0 0 1 0 0 0];

internalField   nonuniform List<scalar> 
3200
(
349.494
350.167
351.026
351.963
352.927
353.874
354.748
355.485
356.023
356.307
356.307
356.023
355.485
354.748
353.874
352.927
351.963
351.026
350.167
349.494
342.918
343.487
344.229
345.039
345.873
346.692
347.448
348.085
348.549
348.794
348.794
348.549
348.085
347.448
346.692
345.873
345.039
344.229
343.487
342.918
336.333
336.806
337.43
338.115
338.82
339.512
340.15
340.688
341.079
341.286
341.286
341.079
340.688
340.15
339.512
338.82
338.115
337.43
336.806
336.333
329.741
330.122
330.631
331.19
331.767
332.332
332.853
333.293
333.612
333.781
333.781
333.612
333.293
332.853
332.332
331.767
331.19
330.631
330.122
329.741
323.144
323.436
323.831
324.266
324.714
325.153
325.558
325.899
326.147
326.278
326.278
326.147
325.899
325.558
325.153
324.714
324.266
323.831
323.436
323.144
316.543
316.749
317.031
317.341
317.661
317.975
318.264
318.507
318.684
318.778
318.778
318.684
318.507
318.264
317.975
317.661
317.341
317.031
316.749
316.543
309.938
310.061
310.23
310.416
310.609
310.797
310.97
311.116
311.223
311.279
311.279
311.223
311.116
310.97
310.797
310.609
310.416
310.23
310.061
309.938
303.332
303.373
303.429
303.492
303.556
303.619
303.677
303.726
303.762
303.781
303.781
303.762
303.726
303.677
303.619
303.556
303.492
303.429
303.373
303.332
349.659
350.327
351.179
352.106
353.061
353.997
354.861
355.59
356.12
356.4
356.4
356.12
355.59
354.861
353.997
353.061
352.106
351.179
350.327
349.659
343.061
343.626
344.361
345.163
345.99
346.8
347.546
348.176
348.634
348.876
348.876
348.634
348.176
347.546
346.8
345.99
345.163
344.361
343.626
343.061
336.454
336.923
337.542
338.22
338.918
339.603
340.233
340.764
341.151
341.355
341.355
341.151
340.764
340.233
339.603
338.918
338.22
337.542
336.923
336.454
329.84
330.218
330.722
331.277
331.847
332.407
332.922
333.355
333.671
333.837
333.837
333.671
333.355
332.922
332.407
331.847
331.277
330.722
330.218
329.84
323.221
323.511
323.902
324.333
324.777
325.211
325.611
325.948
326.193
326.322
326.322
326.193
325.948
325.611
325.211
324.777
324.333
323.902
323.511
323.221
316.597
316.803
317.082
317.389
317.706
318.016
318.302
318.542
318.717
318.809
318.809
318.717
318.542
318.302
318.016
317.706
317.389
317.082
316.803
316.597
309.971
310.093
310.261
310.445
310.635
310.822
310.993
311.138
311.242
311.298
311.298
311.242
311.138
310.993
310.822
310.635
310.445
310.261
310.093
309.971
303.343
303.383
303.44
303.501
303.565
303.628
303.685
303.733
303.769
303.787
303.787
303.769
303.733
303.685
303.628
303.565
303.501
303.44
303.383
303.343
349.991
350.648
351.485
352.396
353.331
354.247
355.091
355.802
356.318
356.591
356.591
356.318
355.802
355.091
354.247
353.331
352.396
351.485
350.648
349.991
343.348
343.904
344.626
345.414
346.224
347.016
347.746
348.36
348.806
349.042
349.042
348.806
348.36
347.746
347.016
346.224
345.414
344.626
343.904
343.348
336.696
337.158
337.766
338.432
339.116
339.786
340.402
340.92
341.297
341.496
341.496
341.297
340.92
340.402
339.786
339.116
338.432
337.766
337.158
336.696
330.038
330.41
330.906
331.45
332.009
332.557
333.06
333.483
333.791
333.953
333.953
333.791
333.483
333.06
332.557
332.009
331.45
330.906
330.41
330.038
323.375
323.66
324.045
324.468
324.903
325.328
325.719
326.048
326.286
326.412
326.412
326.286
326.048
325.719
325.328
324.903
324.468
324.045
323.66
323.375
316.707
316.909
317.184
317.485
317.796
318.1
318.379
318.613
318.784
318.874
318.874
318.784
318.613
318.379
318.1
317.796
317.485
317.184
316.909
316.707
310.037
310.157
310.322
310.503
310.69
310.872
311.039
311.18
311.283
311.336
311.336
311.283
311.18
311.039
310.872
310.69
310.503
310.322
310.157
310.037
303.365
303.405
303.46
303.521
303.583
303.644
303.701
303.748
303.782
303.8
303.8
303.782
303.748
303.701
303.644
303.583
303.521
303.46
303.405
303.365
350.49
351.132
351.948
352.834
353.741
354.628
355.443
356.128
356.626
356.888
356.888
356.626
356.128
355.443
354.628
353.741
352.834
351.948
351.132
350.49
343.78
344.323
345.027
345.793
346.579
347.346
348.051
348.643
349.073
349.3
349.3
349.073
348.643
348.051
347.346
346.579
345.793
345.027
344.323
343.78
337.061
337.512
338.105
338.753
339.417
340.065
340.661
341.161
341.523
341.714
341.714
341.523
341.161
340.661
340.065
339.417
338.753
338.105
337.512
337.061
330.337
330.699
331.183
331.712
332.255
332.785
333.271
333.68
333.976
334.132
334.132
333.976
333.68
333.271
332.785
332.255
331.712
331.183
330.699
330.337
323.607
323.885
324.26
324.672
325.094
325.506
325.884
326.201
326.431
326.552
326.552
326.431
326.201
325.884
325.506
325.094
324.672
324.26
323.885
323.607
316.873
317.07
317.338
317.631
317.933
318.227
318.497
318.723
318.887
318.974
318.974
318.887
318.723
318.497
318.227
317.933
317.631
317.338
317.07
316.873
310.136
310.254
310.414
310.591
310.772
310.948
311.11
311.246
311.345
311.396
311.396
311.345
311.246
311.11
310.948
310.772
310.591
310.414
310.254
310.136
303.398
303.437
303.491
303.55
303.611
303.67
303.724
303.77
303.803
303.82
303.82
303.803
303.77
303.724
303.67
303.611
303.55
303.491
303.437
303.398
351.158
351.78
352.57
353.424
354.297
355.147
355.925
356.578
357.052
357.301
357.301
357.052
356.578
355.925
355.147
354.297
353.424
352.57
351.78
351.158
344.358
344.885
345.566
346.305
347.06
347.796
348.469
349.034
349.443
349.658
349.658
349.443
349.034
348.469
347.796
347.06
346.305
345.566
344.885
344.358
337.55
337.987
338.561
339.185
339.824
340.446
341.015
341.491
341.837
342.018
342.018
341.837
341.491
341.015
340.446
339.824
339.185
338.561
337.987
337.55
330.736
331.088
331.556
332.066
332.588
333.096
333.561
333.951
334.233
334.381
334.381
334.233
333.951
333.561
333.096
332.588
332.066
331.556
331.088
330.736
323.917
324.187
324.55
324.947
325.353
325.748
326.109
326.412
326.631
326.746
326.746
326.631
326.412
326.109
325.748
325.353
324.947
324.55
324.187
323.917
317.095
317.286
317.544
317.828
318.118
318.4
318.658
318.874
319.03
319.112
319.112
319.03
318.874
318.658
318.4
318.118
317.828
317.544
317.286
317.095
310.269
310.383
310.539
310.709
310.883
311.052
311.207
311.337
311.43
311.48
311.48
311.43
311.337
311.207
311.052
310.883
310.709
310.539
310.383
310.269
303.443
303.481
303.533
303.59
303.648
303.705
303.757
303.8
303.832
303.848
303.848
303.832
303.8
303.757
303.705
303.648
303.59
303.533
303.481
303.443
351.999
352.598
353.355
354.172
355.004
355.811
356.547
357.164
357.609
357.843
357.843
357.609
357.164
356.547
355.811
355.004
354.172
353.355
352.598
351.999
345.085
345.592
346.246
346.953
347.673
348.371
349.009
349.541
349.926
350.129
350.129
349.926
349.541
349.009
348.371
347.673
346.953
346.246
345.592
345.085
338.165
338.585
339.136
339.733
340.342
340.932
341.471
341.921
342.246
342.417
342.417
342.246
341.921
341.471
340.932
340.342
339.733
339.136
338.585
338.165
331.239
331.577
332.026
332.514
333.012
333.495
333.935
334.303
334.568
334.708
334.708
334.568
334.303
333.935
333.495
333.012
332.514
332.026
331.577
331.239
324.308
324.568
324.916
325.295
325.682
326.058
326.4
326.685
326.892
327
327
326.892
326.685
326.4
326.058
325.682
325.295
324.916
324.568
324.308
317.374
317.557
317.806
318.077
318.353
318.621
318.865
319.069
319.217
319.294
319.294
319.217
319.069
318.865
318.621
318.353
318.077
317.806
317.557
317.374
310.437
310.547
310.696
310.858
311.024
311.185
311.332
311.454
311.543
311.589
311.589
311.543
311.454
311.332
311.185
311.024
310.858
310.696
310.547
310.437
303.499
303.535
303.585
303.64
303.695
303.749
303.799
303.84
303.869
303.885
303.885
303.869
303.84
303.799
303.749
303.695
303.64
303.585
303.535
303.499
353.014
353.587
354.308
355.084
355.87
356.629
357.32
357.896
358.311
358.529
358.529
358.311
357.896
357.32
356.629
355.87
355.084
354.308
353.587
353.014
345.964
346.448
347.071
347.742
348.423
349.08
349.678
350.176
350.535
350.723
350.723
350.535
350.176
349.678
349.08
348.423
347.742
347.071
346.448
345.964
338.907
339.309
339.834
340.401
340.977
341.533
342.038
342.458
342.762
342.921
342.921
342.762
342.458
342.038
341.533
340.977
340.401
339.834
339.309
338.907
331.846
332.169
332.597
333.06
333.531
333.986
334.399
334.742
334.99
335.12
335.12
334.99
334.742
334.399
333.986
333.531
333.06
332.597
332.169
331.846
324.78
325.028
325.36
325.72
326.086
326.439
326.76
327.028
327.22
327.321
327.321
327.22
327.028
326.76
326.439
326.086
325.72
325.36
325.028
324.78
317.71
317.886
318.123
318.38
318.642
318.894
319.123
319.314
319.451
319.523
319.523
319.451
319.314
319.123
318.894
318.642
318.38
318.123
317.886
317.71
310.639
310.744
310.886
311.04
311.197
311.349
311.487
311.601
311.684
311.727
311.727
311.684
311.601
311.487
311.349
311.197
311.04
310.886
310.744
310.639
303.567
303.602
303.649
303.701
303.754
303.804
303.85
303.889
303.916
303.931
303.931
303.916
303.889
303.85
303.804
303.754
303.701
303.649
303.602
303.567
354.207
354.751
355.434
356.165
356.902
357.611
358.254
358.787
359.171
359.371
359.371
359.171
358.787
358.254
357.611
356.902
356.165
355.434
354.751
354.207
346.996
347.457
348.046
348.679
349.317
349.931
350.487
350.949
351.28
351.454
351.454
351.28
350.949
350.487
349.931
349.317
348.679
348.046
347.457
346.996
339.78
340.162
340.659
341.193
341.733
342.252
342.722
343.112
343.393
343.539
343.539
343.393
343.112
342.722
342.252
341.733
341.193
340.659
340.162
339.78
332.559
332.866
333.271
333.708
334.15
334.575
334.959
335.277
335.506
335.626
335.626
335.506
335.277
334.959
334.575
334.15
333.708
333.271
332.866
332.559
325.334
325.57
325.884
326.224
326.567
326.898
327.196
327.444
327.622
327.715
327.715
327.622
327.444
327.196
326.898
326.567
326.224
325.884
325.57
325.334
318.106
318.273
318.497
318.74
318.985
319.221
319.435
319.612
319.739
319.805
319.805
319.739
319.612
319.435
319.221
318.985
318.74
318.497
318.273
318.106
310.877
310.977
311.111
311.257
311.404
311.546
311.674
311.78
311.856
311.896
311.896
311.856
311.78
311.674
311.546
311.404
311.257
311.111
310.977
310.877
303.646
303.68
303.725
303.773
303.823
303.87
303.913
303.949
303.974
303.988
303.988
303.974
303.949
303.913
303.87
303.823
303.773
303.725
303.68
303.646
355.581
356.095
356.738
357.422
358.109
358.767
359.359
359.85
360.201
360.385
360.385
360.201
359.85
359.359
358.767
358.109
357.422
356.738
356.095
355.581
348.186
348.62
349.175
349.767
350.362
350.932
351.445
351.87
352.174
352.333
352.333
352.174
351.87
351.445
350.932
350.362
349.767
349.175
348.62
348.186
340.785
341.146
341.613
342.114
342.617
343.099
343.533
343.891
344.148
344.283
344.283
344.148
343.891
343.533
343.099
342.617
342.114
341.613
341.146
340.785
333.38
333.671
334.052
334.461
334.873
335.267
335.622
335.915
336.125
336.235
336.235
336.125
335.915
335.622
335.267
334.873
334.461
334.052
333.671
333.38
325.973
326.196
326.491
326.809
327.13
327.436
327.712
327.94
328.103
328.188
328.188
328.103
327.94
327.712
327.436
327.13
326.809
326.491
326.196
325.973
318.563
318.72
318.931
319.158
319.387
319.606
319.803
319.966
320.082
320.143
320.143
320.082
319.966
319.803
319.606
319.387
319.158
318.931
318.72
318.563
311.151
311.245
311.371
311.508
311.645
311.777
311.895
311.993
312.063
312.099
312.099
312.063
311.993
311.895
311.777
311.645
311.508
311.371
311.245
311.151
303.738
303.769
303.812
303.858
303.904
303.948
303.987
304.02
304.044
304.056
304.056
304.044
304.02
303.987
303.948
303.904
303.858
303.812
303.769
303.738
357.14
357.622
358.224
358.861
359.497
360.103
360.646
361.094
361.414
361.581
361.581
361.414
361.094
360.646
360.103
359.497
358.861
358.224
357.622
357.14
349.534
349.943
350.462
351.013
351.564
352.089
352.56
352.948
353.225
353.369
353.369
353.225
352.948
352.56
352.089
351.564
351.013
350.462
349.943
349.534
341.925
342.264
342.701
343.167
343.634
344.078
344.476
344.804
345.038
345.16
345.16
345.038
344.804
344.476
344.078
343.634
343.167
342.701
342.264
341.925
334.312
334.585
334.942
335.323
335.704
336.067
336.393
336.661
336.853
336.952
336.952
336.853
336.661
336.393
336.067
335.704
335.323
334.942
334.585
334.312
326.697
326.906
327.183
327.479
327.776
328.059
328.312
328.52
328.669
328.747
328.747
328.669
328.52
328.312
328.059
327.776
327.479
327.183
326.906
326.697
319.08
319.228
319.425
319.637
319.849
320.051
320.232
320.381
320.487
320.542
320.542
320.487
320.381
320.232
320.051
319.849
319.637
319.425
319.228
319.08
311.461
311.55
311.668
311.795
311.923
312.044
312.152
312.242
312.306
312.339
312.339
312.306
312.242
312.152
312.044
311.923
311.795
311.668
311.55
311.461
303.842
303.872
303.911
303.954
303.997
304.037
304.074
304.104
304.125
304.136
304.136
304.125
304.104
304.074
304.037
303.997
303.954
303.911
303.872
303.842
358.885
359.336
359.896
360.486
361.072
361.628
362.123
362.53
362.82
362.971
362.971
362.82
362.53
362.123
361.628
361.072
360.486
359.896
359.336
358.885
351.045
351.427
351.91
352.421
352.929
353.41
353.84
354.192
354.443
354.573
354.573
354.443
354.192
353.84
353.41
352.929
352.421
351.91
351.427
351.045
343.202
343.519
343.926
344.358
344.788
345.195
345.558
345.856
346.068
346.178
346.178
346.068
345.856
345.558
345.195
344.788
344.358
343.926
343.519
343.202
335.356
335.611
335.943
336.296
336.648
336.981
337.278
337.522
337.695
337.785
337.785
337.695
337.522
337.278
336.981
336.648
336.296
335.943
335.611
335.356
327.509
327.704
327.962
328.237
328.51
328.769
329
329.19
329.324
329.395
329.395
329.324
329.19
329
328.769
328.51
328.237
327.962
327.704
327.509
319.66
319.798
319.982
320.178
320.373
320.558
320.723
320.859
320.955
321.005
321.005
320.955
320.859
320.723
320.558
320.373
320.178
319.982
319.798
319.66
311.809
311.892
312.002
312.12
312.237
312.349
312.448
312.529
312.587
312.617
312.617
312.587
312.529
312.448
312.349
312.237
312.12
312.002
311.892
311.809
303.959
303.986
304.023
304.063
304.102
304.139
304.173
304.2
304.219
304.229
304.229
304.219
304.2
304.173
304.139
304.102
304.063
304.023
303.986
303.959
360.82
361.241
361.76
362.304
362.841
363.348
363.798
364.165
364.426
364.562
364.562
364.426
364.165
363.798
363.348
362.841
362.304
361.76
361.241
360.82
352.72
353.076
353.524
353.995
354.461
354.9
355.289
355.608
355.834
355.952
355.952
355.834
355.608
355.289
354.9
354.461
353.995
353.524
353.076
352.72
344.618
344.913
345.29
345.689
346.083
346.454
346.784
347.053
347.245
347.344
347.344
347.245
347.053
346.784
346.454
346.083
345.689
345.29
344.913
344.618
336.514
336.751
337.059
337.385
337.707
338.011
338.281
338.501
338.658
338.739
338.739
338.658
338.501
338.281
338.011
337.707
337.385
337.059
336.751
336.514
328.408
328.591
328.829
329.083
329.334
329.57
329.78
329.951
330.073
330.136
330.136
330.073
329.951
329.78
329.57
329.334
329.083
328.829
328.591
328.408
320.302
320.431
320.601
320.782
320.962
321.131
321.281
321.403
321.49
321.535
321.535
321.49
321.403
321.281
321.131
320.962
320.782
320.601
320.431
320.302
312.195
312.272
312.374
312.483
312.591
312.692
312.782
312.856
312.908
312.935
312.935
312.908
312.856
312.782
312.692
312.591
312.483
312.374
312.272
312.195
304.088
304.114
304.148
304.184
304.22
304.254
304.285
304.309
304.327
304.336
304.336
304.327
304.309
304.285
304.254
304.22
304.184
304.148
304.114
304.088
362.947
363.337
363.816
364.316
364.807
365.267
365.674
366.005
366.24
366.361
366.361
366.24
366.005
365.674
365.267
364.807
364.316
363.816
363.337
362.947
354.561
354.891
355.305
355.737
356.163
356.562
356.915
357.201
357.404
357.51
357.51
357.404
357.201
356.915
356.562
356.163
355.737
355.305
354.891
354.561
346.174
346.447
346.796
347.162
347.522
347.86
348.158
348.401
348.573
348.662
348.662
348.573
348.401
348.158
347.86
347.522
347.162
346.796
346.447
346.174
337.786
338.006
338.29
338.59
338.884
339.161
339.405
339.603
339.744
339.817
339.817
339.744
339.603
339.405
339.161
338.884
338.59
338.29
338.006
337.786
329.397
329.566
329.787
330.02
330.249
330.464
330.654
330.808
330.918
330.974
330.974
330.918
330.808
330.654
330.464
330.249
330.02
329.787
329.566
329.397
321.008
321.128
321.285
321.452
321.615
321.769
321.905
322.015
322.093
322.134
322.134
322.093
322.015
321.905
321.769
321.615
321.452
321.285
321.128
321.008
312.619
312.691
312.785
312.885
312.983
313.076
313.157
313.223
313.27
313.295
313.295
313.27
313.223
313.157
313.076
312.983
312.885
312.785
312.691
312.619
304.23
304.254
304.286
304.319
304.352
304.383
304.41
304.433
304.448
304.456
304.456
304.448
304.433
304.41
304.383
304.352
304.319
304.286
304.254
304.23
365.266
365.627
366.068
366.526
366.973
367.39
367.757
368.054
368.263
368.372
368.372
368.263
368.054
367.757
367.39
366.973
366.526
366.068
365.627
365.266
356.568
356.873
357.254
357.65
358.038
358.399
358.717
358.975
359.157
359.251
359.251
359.157
358.975
358.717
358.399
358.038
357.65
357.254
356.873
356.568
347.87
348.123
348.444
348.779
349.107
349.413
349.682
349.9
350.054
350.134
350.134
350.054
349.9
349.682
349.413
349.107
348.779
348.444
348.123
347.87
339.172
339.376
339.638
339.912
340.18
340.431
340.651
340.829
340.955
341.02
341.02
340.955
340.829
340.651
340.431
340.18
339.912
339.638
339.376
339.172
330.475
330.631
330.834
331.048
331.256
331.451
331.623
331.762
331.859
331.91
331.91
331.859
331.762
331.623
331.451
331.256
331.048
330.834
330.631
330.475
321.778
321.889
322.033
322.186
322.335
322.474
322.597
322.696
322.766
322.802
322.802
322.766
322.696
322.597
322.474
322.335
322.186
322.033
321.889
321.778
313.082
313.147
313.234
313.326
313.415
313.499
313.573
313.632
313.674
313.696
313.696
313.674
313.632
313.573
313.499
313.415
313.326
313.234
313.147
313.082
304.385
304.407
304.436
304.467
304.497
304.525
304.55
304.57
304.584
304.591
304.591
304.584
304.57
304.55
304.525
304.497
304.467
304.436
304.407
304.385
367.775
368.107
368.512
368.93
369.336
369.713
370.043
370.31
370.497
370.594
370.594
370.497
370.31
370.043
369.713
369.336
368.93
368.512
368.107
367.775
358.739
359.02
359.369
359.731
360.084
360.41
360.696
360.927
361.09
361.174
361.174
361.09
360.927
360.696
360.41
360.084
359.731
359.369
359.02
358.739
349.704
349.937
350.232
350.538
350.836
351.113
351.355
351.55
351.688
351.759
351.759
351.688
351.55
351.355
351.113
350.836
350.538
350.232
349.937
349.704
340.671
340.859
341.099
341.35
341.594
341.82
342.018
342.178
342.291
342.349
342.349
342.291
342.178
342.018
341.82
341.594
341.35
341.099
340.859
340.671
331.64
331.784
331.97
332.165
332.355
332.531
332.686
332.81
332.897
332.943
332.943
332.897
332.81
332.686
332.531
332.355
332.165
331.97
331.784
331.64
322.61
322.712
322.845
322.984
323.12
323.246
323.356
323.445
323.507
323.54
323.54
323.507
323.445
323.356
323.246
323.12
322.984
322.845
322.712
322.61
313.581
313.642
313.721
313.805
313.886
313.962
314.028
314.082
314.119
314.139
314.139
314.119
314.082
314.028
313.962
313.886
313.805
313.721
313.642
313.581
304.552
304.573
304.599
304.627
304.655
304.68
304.702
304.72
304.733
304.739
304.739
304.733
304.72
304.702
304.68
304.655
304.627
304.599
304.573
304.552
370.463
370.769
371.14
371.521
371.889
372.229
372.526
372.764
372.931
373.017
373.017
372.931
372.764
372.526
372.229
371.889
371.521
371.14
370.769
370.463
361.062
361.321
361.642
361.972
362.291
362.586
362.843
363.05
363.195
363.269
363.269
363.195
363.05
362.843
362.586
362.291
361.972
361.642
361.321
361.062
351.666
351.881
352.151
352.43
352.701
352.95
353.168
353.343
353.466
353.529
353.529
353.466
353.343
353.168
352.95
352.701
352.43
352.151
351.881
351.666
342.274
342.447
342.667
342.895
343.117
343.321
343.499
343.643
343.743
343.795
343.795
343.743
343.643
343.499
343.321
343.117
342.895
342.667
342.447
342.274
332.885
333.017
333.188
333.366
333.538
333.697
333.836
333.947
334.026
334.066
334.066
334.026
333.947
333.836
333.697
333.538
333.366
333.188
333.017
332.885
323.499
323.592
323.714
323.841
323.964
324.078
324.177
324.257
324.313
324.341
324.341
324.313
324.257
324.177
324.078
323.964
323.841
323.714
323.592
323.499
314.114
314.17
314.243
314.319
314.393
314.462
314.521
314.569
314.603
314.62
314.62
314.603
314.569
314.521
314.462
314.393
314.319
314.243
314.17
314.114
304.731
304.75
304.774
304.8
304.825
304.848
304.868
304.884
304.895
304.901
304.901
304.895
304.884
304.868
304.848
304.825
304.8
304.774
304.75
304.731
373.302
373.583
373.923
374.27
374.604
374.91
375.177
375.39
375.539
375.616
375.616
375.539
375.39
375.177
374.91
374.604
374.27
373.923
373.583
373.302
363.512
363.751
364.044
364.344
364.634
364.9
365.131
365.316
365.446
365.512
365.512
365.446
365.316
365.131
364.9
364.634
364.344
364.044
363.751
363.512
353.732
353.929
354.176
354.431
354.676
354.901
355.097
355.254
355.363
355.42
355.42
355.363
355.254
355.097
354.901
354.676
354.431
354.176
353.929
353.732
343.958
344.117
344.319
344.527
344.728
344.912
345.073
345.201
345.291
345.337
345.337
345.291
345.201
345.073
344.912
344.728
344.527
344.319
344.117
343.958
334.192
334.314
334.47
334.632
334.788
334.932
335.057
335.157
335.227
335.263
335.263
335.227
335.157
335.057
334.932
334.788
334.632
334.47
334.314
334.192
324.431
324.517
324.628
324.744
324.856
324.959
325.048
325.119
325.169
325.195
325.195
325.169
325.119
325.048
324.959
324.856
324.744
324.628
324.517
324.431
314.673
314.725
314.792
314.861
314.928
314.99
315.044
315.086
315.117
315.132
315.132
315.117
315.086
315.044
314.99
314.928
314.861
314.792
314.725
314.673
304.918
304.936
304.958
304.981
305.004
305.025
305.042
305.057
305.067
305.072
305.072
305.067
305.057
305.042
305.025
305.004
304.981
304.958
304.936
304.918
376.218
376.477
376.789
377.105
377.408
377.686
377.925
378.117
378.25
378.319
378.319
378.25
378.117
377.925
377.686
377.408
377.105
376.789
376.477
376.218
366.018
366.237
366.506
366.781
367.044
367.284
367.493
367.659
367.775
367.834
367.834
367.775
367.659
367.493
367.284
367.044
366.781
366.506
366.237
366.018
355.835
356.017
356.244
356.476
356.699
356.903
357.079
357.22
357.318
357.369
357.369
357.318
357.22
357.079
356.903
356.699
356.476
356.244
356.017
355.835
345.668
345.814
345.999
346.189
346.372
346.539
346.684
346.799
346.88
346.921
346.921
346.88
346.799
346.684
346.539
346.372
346.189
345.999
345.814
345.668
335.514
335.627
335.77
335.918
336.06
336.191
336.303
336.393
336.456
336.488
336.488
336.456
336.393
336.303
336.191
336.06
335.918
335.77
335.627
335.514
325.372
325.451
325.553
325.659
325.761
325.854
325.934
325.999
326.043
326.067
326.067
326.043
325.999
325.934
325.854
325.761
325.659
325.553
325.451
325.372
315.237
315.284
315.346
315.409
315.47
315.526
315.575
315.613
315.64
315.654
315.654
315.64
315.613
315.575
315.526
315.47
315.409
315.346
315.284
315.237
305.107
305.123
305.143
305.165
305.185
305.204
305.22
305.233
305.242
305.247
305.247
305.242
305.233
305.22
305.204
305.185
305.165
305.143
305.123
305.107
379.026
379.265
379.552
379.843
380.12
380.373
380.591
380.764
380.885
380.947
380.947
380.885
380.764
380.591
380.373
380.12
379.843
379.552
379.265
379.026
368.401
368.603
368.852
369.104
369.345
369.565
369.754
369.905
370.01
370.063
370.063
370.01
369.905
369.754
369.565
369.345
369.104
368.852
368.603
368.401
357.814
357.982
358.192
358.406
358.61
358.797
358.957
359.085
359.174
359.22
359.22
359.174
359.085
358.957
358.797
358.61
358.406
358.192
357.982
357.814
347.261
347.397
347.568
347.743
347.911
348.064
348.196
348.3
348.373
348.411
348.411
348.373
348.3
348.196
348.064
347.911
347.743
347.568
347.397
347.261
336.737
336.842
336.975
337.111
337.242
337.361
337.464
337.545
337.602
337.631
337.631
337.602
337.545
337.464
337.361
337.242
337.111
336.975
336.842
336.737
326.237
326.311
326.406
326.503
326.597
326.682
326.755
326.814
326.855
326.876
326.876
326.855
326.814
326.755
326.682
326.597
326.503
326.406
326.311
326.237
315.753
315.797
315.854
315.913
315.969
316.02
316.064
316.1
316.124
316.137
316.137
316.124
316.1
316.064
316.02
315.969
315.913
315.854
315.797
315.753
305.279
305.294
305.313
305.333
305.352
305.369
305.384
305.396
305.404
305.408
305.408
305.404
305.396
305.384
305.369
305.352
305.333
305.313
305.294
305.279
381.229
381.454
381.724
381.997
382.257
382.492
382.695
382.856
382.967
383.025
383.025
382.967
382.856
382.695
382.492
382.257
381.997
381.724
381.454
381.229
370.2
370.391
370.625
370.862
371.089
371.294
371.471
371.611
371.709
371.759
371.759
371.709
371.611
371.471
371.294
371.089
370.862
370.625
370.391
370.2
359.262
359.421
359.619
359.821
360.013
360.188
360.339
360.458
360.541
360.584
360.584
360.541
360.458
360.339
360.188
360.013
359.821
359.619
359.421
359.262
348.398
348.527
348.689
348.855
349.013
349.157
349.28
349.378
349.447
349.482
349.482
349.447
349.378
349.28
349.157
349.013
348.855
348.689
348.527
348.398
337.594
337.693
337.819
337.948
338.072
338.184
338.28
338.357
338.41
338.438
338.438
338.41
338.357
338.28
338.184
338.072
337.948
337.819
337.693
337.594
326.835
326.905
326.995
327.087
327.176
327.256
327.325
327.38
327.418
327.438
327.438
327.418
327.38
327.325
327.256
327.176
327.087
326.995
326.905
326.835
316.107
316.148
316.202
316.258
316.311
316.36
316.401
316.434
316.457
316.469
316.469
316.457
316.434
316.401
316.36
316.311
316.258
316.202
316.148
316.107
305.397
305.411
305.429
305.448
305.466
305.482
305.496
305.507
305.515
305.519
305.519
305.515
305.507
305.496
305.482
305.466
305.448
305.429
305.411
305.397
)
;

boundaryField
{
    hotSide
    {
        type            fixedGradient;
        gradient        nonuniform List<scalar> 
400
(
525.267
527.061
530.655
536.064
543.307
552.41
563.402
576.312
591.175
608.021
626.883
647.789
670.767
695.842
723.034
752.361
783.839
817.48
853.295
891.289
534.123
535.846
539.303
544.511
551.498
560.296
570.944
583.481
597.95
614.391
632.843
653.344
675.925
700.615
727.439
756.418
787.568
820.902
856.431
894.162
543.706
545.346
548.639
553.609
560.292
568.732
578.977
591.081
605.096
621.073
639.061
659.105
681.243
705.508
731.929
760.529
791.326
824.332
859.558
897.011
553.859
555.402
558.504
563.198
569.531
577.559
587.346
598.958
612.463
627.924
645.399
664.942
686.599
710.407
736.399
764.598
795.024
827.69
862.604
899.772
564.298
565.731
568.618
573.004
578.946
586.519
595.801
606.877
619.829
634.734
651.663
670.677
691.83
715.164
740.714
768.505
798.555
830.879
865.482
902.369
574.587
575.902
578.561
582.618
588.146
595.238
603.992
614.509
626.89
641.226
657.6
676.083
696.733
719.598
744.713
772.106
801.795
833.79
868.098
904.719
584.137
585.335
587.766
591.495
596.615
603.233
611.469
621.444
633.274
647.066
662.913
680.894
701.074
723.503
748.219
775.248
804.608
836.307
870.35
906.734
592.242
593.335
595.56
598.996
603.749
609.946
617.724
627.221
638.57
651.888
667.28
684.831
704.61
726.671
751.051
777.776
806.863
838.317
872.142
908.333
598.174
599.185
601.253
604.465
608.939
614.817
622.249
631.387
642.375
655.341
670.396
687.63
707.117
728.909
753.045
779.551
808.441
839.721
873.39
909.443
601.317
602.284
604.267
607.356
611.679
617.383
624.629
633.574
644.368
657.146
672.021
689.087
708.418
730.068
754.076
780.467
809.254
840.442
874.03
910.012
601.317
602.284
604.267
607.356
611.679
617.383
624.629
633.574
644.368
657.146
672.021
689.087
708.418
730.068
754.076
780.467
809.254
840.442
874.03
910.012
598.174
599.185
601.253
604.465
608.939
614.817
622.249
631.387
642.375
655.341
670.396
687.63
707.117
728.909
753.045
779.551
808.441
839.721
873.39
909.443
592.242
593.335
595.56
598.996
603.749
609.946
617.724
627.221
638.57
651.888
667.28
684.831
704.61
726.671
751.051
777.776
806.863
838.317
872.142
908.333
584.137
585.335
587.766
591.495
596.615
603.233
611.469
621.444
633.274
647.066
662.913
680.894
701.074
723.503
748.219
775.248
804.608
836.307
870.35
906.734
574.587
575.902
578.561
582.618
588.146
595.238
603.992
614.509
626.89
641.226
657.6
676.083
696.733
719.598
744.713
772.106
801.795
833.79
868.098
904.719
564.298
565.731
568.618
573.004
578.946
586.519
595.801
606.877
619.829
634.734
651.663
670.677
691.83
715.164
740.714
768.505
798.555
830.879
865.482
902.369
553.859
555.402
558.504
563.198
569.531
577.559
587.346
598.958
612.463
627.924
645.399
664.942
686.599
710.407
736.399
764.598
795.024
827.69
862.604
899.772
543.706
545.346
548.639
553.609
560.292
568.732
578.977
591.081
605.096
621.073
639.061
659.105
681.243
705.508
731.929
760.529
791.326
824.332
859.558
897.011
534.123
535.846
539.303
544.511
551.498
560.296
570.944
583.481
597.95
614.391
632.843
653.344
675.925
700.615
727.439
756.418
787.568
820.902
856.431
894.162
525.267
527.061
530.655
536.064
543.307
552.41
563.402
576.312
591.175
608.021
626.883
647.789
670.767
695.842
723.034
752.361
783.839
817.48
853.295
891.289
)
;
    }
    coldSide
    {
        type            mixed;
        refValue        uniform 300;
        refGradient     uniform 0;
        valueFraction   uniform 0.991591;
        source          uniform 0;
        value           nonuniform List<scalar> 
400
(
300.028
300.028
300.028
300.029
300.029
300.029
300.03
300.031
300.031
300.032
300.033
300.034
300.036
300.037
300.038
300.04
300.041
300.043
300.044
300.045
300.028
300.028
300.029
300.029
300.029
300.03
300.03
300.031
300.032
300.033
300.034
300.035
300.036
300.037
300.038
300.04
300.042
300.043
300.045
300.046
300.029
300.029