/*--------------------------------*- C++ -*----------------------------------*\
| =========                 |                                                 |
| \\      /  F ield         | OpenFOAM: The Open Source CFD Toolbox           |
|  \\    /   O peration     | Version:  2212                                  |
|   \\  /    A nd           | Website:  www.openfoam.com                      |
|    \\/     M anipulation  |                                                 |
\*---------------------------------------------------------------------------*/
FoamFile
{
    version     2.0;
    format      ascii;
    arch        "LSB;label=32;scalar=64";
    class       volScalarField;
    location    "0";
    object      Tdirect;
}
// * * * * * * * * * * * * * * * * * * * * * * * * * * * * * * * * * * * * * //

dimensions      [0 0 0 1 0 0 0];

internalField   nonuniform List<scalar> 
3200
(
318.943
319.312
319.784
320.298
320.827
321.346
321.826
322.231
322.526
322.682
322.682
322.526
322.231
321.826
321.346
320.827
320.298
319.784
319.312
318.943
316.463
316.775
317.182
317.627
318.085
318.534
318.949
319.298
319.553
319.688
319.688
319.553
319.298
318.949
318.534
318.085
317.627
317.182
316.775
316.463
313.964
314.223
314.566
314.941
315.329
315.708
316.058
316.354
316.568
316.682
316.682
316.568
316.354
316.058
315.708
315.329
314.941
314.566
314.223
313.964
311.449
311.658
311.937
312.244
312.561
312.871
313.157
313.398
313.573
313.666
313.666
313.573
313.398
313.157
312.871
312.561
312.244
311.937
311.658
311.449
308.921
309.081
309.298
309.537
309.783
310.024
310.246
310.433
310.569
310.641
310.641
310.569
310.433
310.246
310.024
309.783
309.537
309.298
309.081
308.921
306.383
306.496
306.651
306.821
306.997
307.169
307.327
307.461
307.558
307.609
307.609
307.558
307.461
307.327
307.169
306.997
306.821
306.651
306.496
306.383
303.837
303.905
303.997
304.1
304.205
304.308
304.404
304.484
304.542
304.573
304.573
304.542
304.484
304.404
304.308
304.205
304.1
303.997
303.905
303.837
301.287
301.309
301.34
301.375
301.41
301.445
301.477
301.503
301.523
301.533
301.533
301.523
301.503
301.477
301.445
301.41
301.375
301.34
301.309
301.287
318.994
319.361
319.828
320.337
320.861
321.375
321.849
322.249
322.54
322.694
322.694
322.54
322.249
321.849
321.375
320.861
320.337
319.828
319.361
318.994
316.507
316.817
317.221
317.661
318.115
318.559
318.969
319.314
319.566
319.698
319.698
319.566
319.314
318.969
318.559
318.115
317.661
317.221
316.817
316.507
314.002
314.259
314.599
314.971
315.354
315.73
316.076
316.367
316.579
316.691
316.691
316.579
316.367
316.076
315.73
315.354
314.971
314.599
314.259
314.002
311.48
311.687
311.964
312.268
312.582
312.888
313.171
313.409
313.582
313.674
313.674
313.582
313.409
313.171
312.888
312.582
312.268
311.964
311.687
311.48
308.945
309.104
309.319
309.555
309.799
310.037
310.257
310.442
310.576
310.647
310.647
310.576
310.442
310.257
310.037
309.799
309.555
309.319
309.104
308.945
306.4
306.513
306.666
306.834
307.008
307.179
307.335
307.467
307.563
307.614
307.614
307.563
307.467
307.335
307.179
307.008
306.834
306.666
306.513
306.4
303.847
303.915
304.006
304.108
304.212
304.314
304.408
304.488
304.545
304.576
304.576
304.545
304.488
304.408
304.314
304.212
304.108
304.006
303.915
303.847
301.29
301.313
301.343
301.377
301.412
301.447
301.478
301.505
301.524
301.534
301.534
301.524
301.505
301.478
301.447
301.412
301.377
301.343
301.313
301.29
319.098
319.458
319.918
320.418
320.931
321.434
321.897
322.287
322.57
322.72
322.72
322.57
322.287
321.897
321.434
320.931
320.418
319.918
319.458
319.098
316.597
316.902
317.299
317.731
318.175
318.61
319.011
319.348
319.593
319.722
319.722
319.593
319.348
319.011
318.61
318.175
317.731
317.299
316.902
316.597
314.078
314.331
314.665
315.03
315.406
315.773
316.111
316.396
316.603
316.712
316.712
316.603
316.396
316.111
315.773
315.406
315.03
314.665
314.331
314.078
311.542
311.746
312.018
312.317
312.624
312.924
313.2
313.433
313.602
313.691
313.691
313.602
313.433
313.2
312.924
312.624
312.317
312.018
311.746
311.542
308.994
309.15
309.361
309.593
309.832
310.065
310.28
310.46
310.591
310.661
310.661
310.591
310.46
310.28
310.065
309.832
309.593
309.361
309.15
308.994
306.435
306.545
306.696
306.862
307.032
307.199
307.352
307.481
307.574
307.624
307.624
307.574
307.481
307.352
307.199
307.032
306.862
306.696
306.545
306.435
303.868
303.934
304.025
304.124
304.226
304.326
304.418
304.496
304.552
304.581
304.581
304.552
304.496
304.418
304.326
304.226
304.124
304.025
303.934
303.868
301.297
301.319
301.35
301.383
301.417
301.451
301.481
301.507
301.526
301.536
301.536
301.526
301.507
301.481
301.451
301.417
301.383
301.35
301.319
301.297
319.254
319.606
320.054
320.54
321.038
321.525
321.972
322.348
322.621
322.765
322.765
322.621
322.348
321.972
321.525
321.038
320.54
320.054
319.606
319.254
316.732
317.031
317.417
317.838
318.269
318.69
319.077
319.402
319.637
319.762
319.762
319.637
319.402
319.077
318.69
318.269
317.838
317.417
317.031
316.732
314.192
314.44
314.765
315.121
315.485
315.841
316.168
316.442
316.641
316.746
316.746
316.641
316.442
316.168
315.841
315.485
315.121
314.765
314.44
314.192
311.636
311.835
312.101
312.391
312.689
312.98
313.247
313.471
313.633
313.719
313.719
313.633
313.471
313.247
312.98
312.689
312.391
312.101
311.835
311.636
309.067
309.22
309.426
309.651
309.883
310.109
310.316
310.49
310.617
310.683
310.683
310.617
310.49
310.316
310.109
309.883
309.651
309.426
309.22
309.067
306.487
306.595
306.742
306.903
307.069
307.23
307.378
307.502
307.592
307.64
307.64
307.592
307.502
307.378
307.23
307.069
306.903
306.742
306.595
306.487
303.9
303.964
304.052
304.149
304.248
304.345
304.434
304.509
304.563
304.591
304.591
304.563
304.509
304.434
304.345
304.248
304.149
304.052
303.964
303.9
301.308
301.329
301.359
301.391
301.424
301.457
301.487
301.512
301.53
301.539
301.539
301.53
301.512
301.487
301.457
301.424
301.391
301.359
301.329
301.308
319.464
319.805
320.238
320.707
321.186
321.652
322.08
322.438
322.698
322.835
322.835
322.698
322.438
322.08
321.652
321.186
320.707
320.238
319.805
319.464
316.914
317.203
317.577
317.983
318.397
318.801
319.171
319.481
319.705
319.823
319.823
319.705
319.481
319.171
318.801
318.397
317.983
317.577
317.203
316.914
314.347
314.586
314.901
315.244
315.594
315.936
316.248
316.509
316.699
316.799
316.799
316.699
316.509
316.248
315.936
315.594
315.244
314.901
314.586
314.347
311.762
311.955
312.212
312.492
312.779
313.058
313.313
313.527
313.681
313.763
313.763
313.681
313.527
313.313
313.058
312.779
312.492
312.212
311.955
311.762
309.165
309.313
309.512
309.73
309.953
310.17
310.368
310.534
310.654
310.717
310.717
310.654
310.534
310.368
310.17
309.953
309.73
309.512
309.313
309.165
306.557
306.662
306.804
306.96
307.119
307.273
307.415
307.534
307.619
307.664
307.664
307.619
307.534
307.415
307.273
307.119
306.96
306.804
306.662
306.557
303.942
304.004
304.09
304.183
304.278
304.371
304.456
304.528
304.579
304.606
304.606
304.579
304.528
304.456
304.371
304.278
304.183
304.09
304.004
303.942
301.322
301.343
301.371
301.403
301.435
301.466
301.494
301.518
301.535
301.544
301.544
301.535
301.518
301.494
301.466
301.435
301.403
301.371
301.343
301.322
319.729
320.057
320.473
320.921
321.378
321.82
322.225
322.563
322.807
322.936
322.936
322.807
322.563
322.225
321.82
321.378
320.921
320.473
320.057
319.729
317.144
317.422
317.781
318.169
318.564
318.948
319.297
319.59
319.801
319.912
319.912
319.801
319.59
319.297
318.948
318.564
318.169
317.781
317.422
317.144
314.541
314.772
315.074
315.402
315.736
316.06
316.356
316.603
316.781
316.875
316.875
316.781
316.603
316.356
316.06
315.736
315.402
315.074
314.772
314.541
311.922
312.108
312.354
312.622
312.895
313.16
313.402
313.603
313.749
313.826
313.826
313.749
313.603
313.402
313.16
312.895
312.622
312.354
312.108
311.922
309.289
309.432
309.623
309.831
310.044
310.25
310.437
310.594
310.707
310.767
310.767
310.707
310.594
310.437
310.25
310.044
309.831
309.623
309.432
309.289
306.646
306.747
306.883
307.032
307.184
307.331
307.465
307.577
307.658
307.7
307.7
307.658
307.577
307.465
307.331
307.184
307.032
306.883
306.747
306.646
303.995
304.055
304.137
304.226
304.318
304.406
304.486
304.553
304.602
304.627
304.627
304.602
304.553
304.486
304.406
304.318
304.226
304.137
304.055
303.995
301.34
301.36
301.387
301.417
301.448
301.477
301.504
301.527
301.543
301.552
301.552
301.543
301.527
301.504
301.477
301.448
301.417
301.387
301.36
301.34
320.05
320.364
320.761
321.186
321.617
322.034
322.413
322.729
322.957
323.077
323.077
322.957
322.729
322.413
322.034
321.617
321.186
320.761
320.364
320.05
317.423
317.689
318.031
318.399
318.773
319.134
319.462
319.735
319.932
320.035
320.035
319.932
319.735
319.462
319.134
318.773
318.399
318.031
317.689
317.423
314.778
314.998
315.286
315.597
315.913
316.218
316.496
316.726
316.893
316.98
316.98
316.893
316.726
316.496
316.218
315.913
315.597
315.286
314.998
314.778
312.116
312.293
312.528
312.782
313.041
313.29
313.517
313.705
313.841
313.913
313.913
313.841
313.705
313.517
313.29
313.041
312.782
312.528
312.293
312.116
309.44
309.576
309.758
309.956
310.157
310.351
310.527
310.674
310.779
310.835
310.835
310.779
310.674
310.527
310.351
310.157
309.956
309.758
309.576
309.44
306.754
306.85
306.98
307.121
307.265
307.403
307.529
307.634
307.709
307.749
307.749
307.709
307.634
307.529
307.403
307.265
307.121
306.98
306.85
306.754
304.06
304.117
304.195
304.28
304.366
304.449
304.525
304.588
304.633
304.657
304.657
304.633
304.588
304.525
304.449
304.366
304.28
304.195
304.117
304.06
301.361
301.381
301.407
301.435
301.464
301.492
301.517
301.538
301.553
301.561
301.561
301.553
301.538
301.517
301.492
301.464
301.435
301.407
301.381
301.361
320.43
320.729
321.104
321.505
321.909
322.298
322.651
322.944
323.154
323.264
323.264
323.154
322.944
322.651
322.298
321.909
321.505
321.104
320.729
320.43
317.753
318.006
318.329
318.676
319.027
319.364
319.669
319.922
320.104
320.2
320.2
320.104
319.922
319.669
319.364
319.027
318.676
318.329
318.006
317.753
315.057
315.266
315.539
315.832
316.129
316.414
316.672
316.886
317.039
317.12
317.12
317.039
316.886
316.672
316.414
316.129
315.832
315.539
315.266
315.057
312.344
312.513
312.735
312.975
313.217
313.45
313.661
313.836
313.962
314.028
314.028
313.962
313.836
313.661
313.45
313.217
312.975
312.735
312.513
312.344
309.618
309.748
309.92
310.106
310.295
310.476
310.64
310.776
310.874
310.925
310.925
310.874
310.776
310.64
310.476
310.295
310.106
309.92
309.748
309.618
306.881
306.973
307.096
307.229
307.363
307.493
307.61
307.707
307.777
307.813
307.813
307.777
307.707
307.61
307.493
307.363
307.229
307.096
306.973
306.881
304.136
304.191
304.265
304.345
304.426
304.503
304.574
304.632
304.674
304.696
304.696
304.674
304.632
304.574
304.503
304.426
304.345
304.265
304.191
304.136
301.387
301.405
301.43
301.457
301.484
301.51
301.534
301.553
301.567
301.574
301.574
301.567
301.553
301.534
301.51
301.484
301.457
301.43
301.405
301.387
320.87
321.152
321.505
321.88
322.257
322.618
322.944
323.213
323.406
323.506
323.506
323.406
323.213
322.944
322.618
322.257
321.88
321.505
321.152
320.87
318.135
318.373
318.678
319.003
319.329
319.642
319.924
320.157
320.324
320.411
320.411
320.324
320.157
319.924
319.642
319.329
319.003
318.678
318.373
318.135
315.38
315.578
315.835
316.11
316.386
316.65
316.888
317.085
317.226
317.3
317.3
317.226
317.085
316.888
316.65
316.386
316.11
315.835
315.578
315.38
312.609
312.768
312.978
313.202
313.428
313.644
313.839
314
314.115
314.176
314.176
314.115
314
313.839
313.644
313.428
313.202
312.978
312.768
312.609
309.824
309.947
310.109
310.283
310.459
310.627
310.779
310.904
310.993
311.04
311.04
310.993
310.904
310.779
310.627
310.459
310.283
310.109
309.947
309.824
307.029
307.115
307.231
307.356
307.481
307.601
307.709
307.799
307.863
307.896
307.896
307.863
307.799
307.709
307.601
307.481
307.356
307.231
307.115
307.029
304.225
304.277
304.346
304.421
304.496
304.569
304.633
304.687
304.726
304.746
304.746
304.726
304.687
304.633
304.569
304.496
304.421
304.346
304.277
304.225
301.417
301.434
301.457
301.482
301.508
301.532
301.554
301.572
301.584
301.591
301.591
301.584
301.572
301.554
301.532
301.508
301.482
301.457
301.434
301.417
321.372
321.637
321.967
322.317
322.666
322.998
323.297
323.542
323.718
323.81
323.81
323.718
323.542
323.297
322.998
322.666
322.317
321.967
321.637
321.372
318.57
318.795
319.079
319.382
319.685
319.973
320.231
320.444
320.596
320.675
320.675
320.596
320.444
320.231
319.973
319.685
319.382
319.079
318.795
318.57
315.749
315.935
316.175
316.431
316.687
316.931
317.149
317.329
317.458
317.525
317.525
317.458
317.329
317.149
316.931
316.687
316.431
316.175
315.935
315.749
312.911
313.061
313.257
313.466
313.675
313.875
314.053
314.2
314.305
314.36
314.36
314.305
314.2
314.053
313.875
313.675
313.466
313.257
313.061
312.911
310.06
310.174
310.326
310.489
310.652
310.807
310.946
311.06
311.142
311.184
311.184
311.142
311.06
310.946
310.807
310.652
310.489
310.326
310.174
310.06
307.197
307.278
307.386
307.503
307.619
307.73
307.829
307.911
307.969
307.999
307.999
307.969
307.911
307.829
307.73
307.619
307.503
307.386
307.278
307.197
304.326
304.375
304.44
304.509
304.579
304.646
304.705
304.754
304.789
304.808
304.808
304.789
304.754
304.705
304.646
304.579
304.509
304.44
304.375
304.326
301.451
301.467
301.489
301.512
301.535
301.558
301.578
301.594
301.606
301.612
301.612
301.606
301.594
301.578
301.558
301.535
301.512
301.489
301.467
301.451
321.937
322.185
322.492
322.816
323.138
323.443
323.715
323.938
324.097
324.18
324.18
324.097
323.938
323.715
323.443
323.138
322.816
322.492
322.185
321.937
319.061
319.271
319.536
319.816
320.095
320.359
320.595
320.788
320.926
320.997
320.997
320.926
320.788
320.595
320.359
320.095
319.816
319.536
319.271
319.061
316.165
316.339
316.562
316.799
317.035
317.258
317.458
317.621
317.738
317.798
317.798
317.738
317.621
317.458
317.258
317.035
316.799
316.562
316.339
316.165
313.252
313.392
313.574
313.768
313.961
314.144
314.307
314.44
314.535
314.585
314.585
314.535
314.44
314.307
314.144
313.961
313.768
313.574
313.392
313.252
310.325
310.432
310.573
310.724
310.874
311.016
311.143
311.247
311.321
311.36
311.36
311.321
311.247
311.143
311.016
310.874
310.724
310.573
310.432
310.325
307.386
307.462
307.563
307.671
307.778
307.88
307.97
308.045
308.097
308.125
308.125
308.097
308.045
307.97
307.88
307.778
307.671
307.563
307.462
307.386
304.44
304.485
304.546
304.611
304.675
304.736
304.79
304.835
304.867
304.883
304.883
304.867
304.835
304.79
304.736
304.675
304.611
304.546
304.485
304.44
301.489
301.504
301.524
301.546
301.568
301.588
301.606
301.621
301.632
301.637
301.637
301.632
301.621
301.606
301.588
301.568
301.546
301.524
301.504
301.489
322.568
322.798
323.083
323.382
323.677
323.955
324.202
324.403
324.547
324.621
324.621
324.547
324.403
324.202
323.955
323.677
323.382
323.083
322.798
322.568
319.608
319.803
320.049
320.308
320.563
320.804
321.018
321.193
321.317
321.381
321.381
321.317
321.193
321.018
320.804
320.563
320.308
320.049
319.803
319.608
316.628
316.79
316.997
317.216
317.432
317.636
317.817
317.965
318.07
318.125
318.125
318.07
317.965
317.817
317.636
317.432
317.216
316.997
316.79
316.628
313.631
313.762
313.931
314.109
314.286
314.453
314.601
314.722
314.808
314.853
314.853
314.808
314.722
314.601
314.453
314.286
314.109
313.931
313.762
313.631
310.62
310.72
310.851
310.99
311.128
311.258
311.373
311.467
311.534
311.568
311.568
311.534
311.467
311.373
311.258
311.128
310.99
310.851
310.72
310.62
307.598
307.668
307.762
307.861
307.96
308.052
308.135
308.202
308.25
308.274
308.274
308.25
308.202
308.135
308.052
307.96
307.861
307.762
307.668
307.598
304.567
304.609
304.665
304.725
304.784
304.84
304.889
304.93
304.958
304.973
304.973
304.958
304.93
304.889
304.84
304.784
304.725
304.665
304.609
304.567
301.531
301.546
301.564
301.584
301.604
301.623
301.639
301.653
301.663
301.668
301.668
301.663
301.653
301.639
301.623
301.604
301.584
301.564
301.546
301.531
323.264
323.478
323.741
324.015
324.285
324.537
324.761
324.942
325.071
325.138
325.138
325.071
324.942
324.761
324.537
324.285
324.015
323.741
323.478
323.264
320.212
320.393
320.62
320.858
321.092
321.31
321.504
321.661
321.773
321.831
321.831
321.773
321.661
321.504
321.31
321.092
320.858
320.62
320.393
320.212
317.14
317.29
317.482
317.683
317.88
318.066
318.229
318.363
318.457
318.506
318.506
318.457
318.363
318.229
318.066
317.88
317.683
317.482
317.29
317.14
314.051
314.172
314.328
314.492
314.654
314.805
314.939
315.048
315.125
315.165
315.165
315.125
315.048
314.939
314.805
314.654
314.492
314.328
314.172
314.051
310.947
311.039
311.161
311.288
311.414
311.532
311.636
311.721
311.781
311.812
311.812
311.781
311.721
311.636
311.532
311.414
311.288
311.161
311.039
310.947
307.831
307.897
307.983
308.074
308.164
308.249
308.323
308.384
308.427
308.449
308.449
308.427
308.384
308.323
308.249
308.164
308.074
307.983
307.897
307.831
304.707
304.747
304.798
304.853
304.907
304.958
305.003
305.039
305.065
305.078
305.078
305.065
305.039
305.003
304.958
304.907
304.853
304.798
304.747
304.707
301.579
301.592
301.609
301.627
301.645
301.662
301.677
301.69
301.698
301.703
301.703
301.698
301.69
301.677
301.662
301.645
301.627
301.609
301.592
301.579
324.027
324.225
324.467
324.718
324.964
325.193
325.394
325.557
325.672
325.732
325.732
325.672
325.557
325.394
325.193
324.964
324.718
324.467
324.225
324.027
320.875
321.042
321.251
321.468
321.681
321.88
322.054
322.196
322.295
322.347
322.347
322.295
322.196
322.054
321.88
321.681
321.468
321.251
321.042
320.875
317.701
317.84
318.016
318.2
318.38
318.548
318.696
318.816
318.9
318.944
318.944
318.9
318.816
318.696
318.548
318.38
318.2
318.016
317.84
317.701
314.51
314.622
314.766
314.916
315.063
315.201
315.322
315.42
315.489
315.524
315.524
315.489
315.42
315.322
315.201
315.063
314.916
314.766
314.622
314.51
311.304
311.39
311.502
311.619
311.733
311.84
311.934
312.01
312.064
312.092
312.092
312.064
312.01
311.934
311.84
311.733
311.619
311.502
311.39
311.304
308.087
308.148
308.227
308.311
308.393
308.469
308.536
308.591
308.629
308.649
308.649
308.629
308.591
308.536
308.469
308.393
308.311
308.227
308.148
308.087
304.861
304.897
304.945
304.995
305.044
305.09
305.131
305.163
305.186
305.198
305.198
305.186
305.163
305.131
305.09
305.044
304.995
304.945
304.897
304.861
301.63
301.642
301.658
301.675
301.691
301.707
301.72
301.731
301.739
301.743
301.743
301.739
301.731
301.72
301.707
301.691
301.675
301.658
301.642
301.63
324.857
325.039
325.261
325.491
325.714
325.92
326.102
326.248
326.351
326.404
326.404
326.351
326.248
326.102
325.92
325.714
325.491
325.261
325.039
324.857
321.594
321.748
321.94
322.139
322.332
322.511
322.668
322.795
322.884
322.93
322.93
322.884
322.795
322.668
322.511
322.332
322.139
321.94
321.748
321.594
318.31
318.439
318.6
318.768
318.932
319.084
319.217
319.324
319.399
319.438
319.438
319.399
319.324
319.217
319.084
318.932
318.768
318.6
318.439
318.31
315.009
315.112
315.244
315.381
315.515
315.64
315.748
315.836
315.898
315.93
315.93
315.898
315.836
315.748
315.64
315.515
315.381
315.244
315.112
315.009
311.693
311.772
311.874
311.981
312.085
312.182
312.266
312.335
312.383
312.408
312.408
312.383
312.335
312.266
312.182
312.085
311.981
311.874
311.772
311.693
308.364
308.42
308.493
308.57
308.644
308.713
308.774
308.823
308.857
308.875
308.875
308.857
308.823
308.774
308.713
308.644
308.57
308.493
308.42
308.364
305.028
305.061
305.105
305.151
305.196
305.237
305.273
305.303
305.323
305.334
305.334
305.323
305.303
305.273
305.237
305.196
305.151
305.105
305.061
305.028
301.686
301.697
301.712
301.727
301.742
301.756
301.768
301.778
301.785
301.789
301.789
301.785
301.778
301.768
301.756
301.742
301.727
301.712
301.697
301.686
325.749
325.917
326.12
326.329
326.532
326.718
326.881
327.012
327.103
327.151
327.151
327.103
327.012
326.881
326.718
326.532
326.329
326.12
325.917
325.749
322.367
322.509
322.685
322.866
323.042
323.203
323.344
323.458
323.537
323.578
323.578
323.537
323.458
323.344
323.203
323.042
322.866
322.685
322.509
322.367
318.965
319.083
319.231
319.384
319.532
319.67
319.789
319.885
319.952
319.987
319.987
319.952
319.885
319.789
319.67
319.532
319.384
319.231
319.083
318.965
315.545
315.639
315.76
315.885
316.007
316.119
316.217
316.296
316.351
316.379
316.379
316.351
316.296
316.217
316.119
316.007
315.885
315.76
315.639
315.545
312.109
312.182
312.276
312.373
312.468
312.555
312.631
312.692
312.735
312.757
312.757
312.735
312.692
312.631
312.555
312.468
312.373
312.276
312.182
312.109
308.662
308.714
308.781
308.85
308.918
308.98
309.035
309.078
309.109
309.125
309.125
309.109
309.078
309.035
308.98
308.918
308.85
308.781
308.714
308.662
305.207
305.237
305.277
305.319
305.36
305.397
305.43
305.456
305.475
305.484
305.484
305.475
305.456
305.43
305.397
305.36
305.319
305.277
305.237
305.207
301.746
301.756
301.77
301.784
301.797
301.81
301.821
301.83
301.836
301.839
301.839
301.836
301.83
301.821
301.81
301.797
301.784
301.77
301.756
301.746
326.694
326.848
327.035
327.225
327.409
327.577
327.723
327.84
327.922
327.964
327.964
327.922
327.84
327.723
327.577
327.409
327.225
327.035
326.848
326.694
323.185
323.316
323.477
323.642
323.801
323.947
324.073
324.175
324.246
324.282
324.282
324.246
324.175
324.073
323.947
323.801
323.642
323.477
323.316
323.185
319.656
319.764
319.9
320.039
320.174
320.298
320.405
320.491
320.551
320.582
320.582
320.551
320.491
320.405
320.298
320.174
320.039
319.9
319.764
319.656
316.109
316.196
316.307
316.421
316.531
316.633
316.72
316.791
316.84
316.865
316.865
316.84
316.791
316.72
316.633
316.531
316.421
316.307
316.196
316.109
312.548
312.615
312.701
312.789
312.875
312.954
313.023
313.077
313.116
313.135
313.135
313.116
313.077
313.023
312.954
312.875
312.789
312.701
312.615
312.548
308.975
309.023
309.084
309.147
309.209
309.265
309.314
309.353
309.381
309.395
309.395
309.381
309.353
309.314
309.265
309.209
309.147
309.084
309.023
308.975
305.395
305.423
305.46
305.498
305.535
305.568
305.598
305.621
305.638
305.646
305.646
305.638
305.621
305.598
305.568
305.535
305.498
305.46
305.423
305.395
301.809
301.818
301.831
301.843
301.856
301.867
301.877
301.885
301.89
301.893
301.893
301.89
301.885
301.877
301.867
301.856
301.843
301.831
301.818
301.809
327.667
327.809
327.98
328.154
328.32
328.472
328.604
328.709
328.782
328.82
328.82
328.782
328.709
328.604
328.472
328.32
328.154
327.98
327.809
327.667
324.023
324.143
324.291
324.441
324.586
324.718
324.832
324.923
324.987
325.02
325.02
324.987
324.923
324.832
324.718
324.586
324.441
324.291
324.143
324.023
320.361
320.46
320.585
320.712
320.835
320.947
321.043
321.121
321.174
321.202
321.202
321.174
321.121
321.043
320.947
320.835
320.712
320.585
320.46
320.361
316.683
316.763
316.865
316.969
317.069
317.161
317.24
317.304
317.348
317.37
317.37
317.348
317.304
317.24
317.161
317.069
316.969
316.865
316.763
316.683
312.992
313.054
313.133
313.214
313.292
313.363
313.425
313.474
313.509
313.527
313.527
313.509
313.474
313.425
313.363
313.292
313.214
313.133
313.054
312.992
309.292
309.335
309.392
309.45
309.506
309.557
309.601
309.636
309.661
309.673
309.673
309.661
309.636
309.601
309.557
309.506
309.45
309.392
309.335
309.292
305.584
305.61
305.644
305.679
305.712
305.743
305.77
305.791
305.806
305.813
305.813
305.806
305.791
305.77
305.743
305.712
305.679
305.644
305.61
305.584
301.872
301.881
301.892
301.904
301.915
301.926
301.935
301.942
301.947
301.949
301.949
301.947
301.942
301.935
301.926
301.915
301.904
301.892
301.881
301.872
328.604
328.736
328.893
329.053
329.205
329.344
329.463
329.558
329.624
329.658
329.658
329.624
329.558
329.463
329.344
329.205
329.053
328.893
328.736
328.604
324.82
324.931
325.067
325.206
325.338
325.459
325.563
325.645
325.703
325.732
325.732
325.703
325.645
325.563
325.459
325.338
325.206
325.067
324.931
324.82
321.024
321.116
321.231
321.349
321.461
321.563
321.651
321.721
321.77
321.795
321.795
321.77
321.721
321.651
321.563
321.461
321.349
321.231
321.116
321.024
317.218
317.292
317.386
317.482
317.574
317.658
317.73
317.788
317.828
317.849
317.849
317.828
317.788
317.73
317.658
317.574
317.482
317.386
317.292
317.218
313.404
313.461
313.534
313.609
313.68
313.746
313.802
313.847
313.878
313.894
313.894
313.878
313.847
313.802
313.746
313.68
313.609
313.534
313.461
313.404
309.583
309.624
309.676
309.729
309.781
309.827
309.868
309.9
309.922
309.934
309.934
309.922
309.9
309.868
309.827
309.781
309.729
309.676
309.624
309.583
305.758
305.782
305.814
305.846
305.877
305.905
305.929
305.948
305.962
305.969
305.969
305.962
305.948
305.929
305.905
305.877
305.846
305.814
305.782
305.758
301.931
301.939
301.949
301.96
301.97
301.98
301.988
301.994
301.999
302.001
302.001
301.999
301.994
301.988
301.98
301.97
301.96
301.949
301.939
301.931
329.339
329.462
329.611
329.76
329.903
330.032
330.143
330.232
330.293
330.324
330.324
330.293
330.232
330.143
330.032
329.903
329.76
329.611
329.462
329.339
325.421
325.526
325.654
325.785
325.909
326.022
326.119
326.196
326.249
326.277
326.277
326.249
326.196
326.119
326.022
325.909
325.785
325.654
325.526
325.421
321.508
321.596
321.704
321.815
321.921
322.017
322.099
322.165
322.211
322.234
322.234
322.211
322.165
322.099
322.017
321.921
321.815
321.704
321.596
321.508
317.599
317.669
317.758
317.849
317.936
318.015
318.083
318.137
318.174
318.194
318.194
318.174
318.137
318.083
318.015
317.936
317.849
317.758
317.669
317.599
313.691
313.745
313.815
313.886
313.953
314.015
314.068
314.11
314.139
314.154
314.154
314.139
314.11
314.068
314.015
313.953
313.886
313.815
313.745
313.691
309.784
309.823
309.872
309.923
309.971
310.015
310.053
310.083
310.104
310.115
310.115
310.104
310.083
310.053
310.015
309.971
309.923
309.872
309.823
309.784
305.877
305.9
305.93
305.96
305.989
306.016
306.039
306.057
306.07
306.076
306.076
306.07
306.057
306.039
306.016
305.989
305.96
305.93
305.9
305.877
301.97
301.978
301.988
301.998
302.008
302.017
302.024
302.03
302.035
302.037
302.037
302.035
302.03
302.024
302.017
302.008
301.998
301.988
301.978
301.97
)
;

boundaryField
{
    hotSide
    {
        type            fixedGradient;
        gradient        nonuniform List<scalar> 
400
(
196.722
197.267
198.361
200.012
202.23
205.03
208.427
212.439
217.082
222.375
228.334
234.977
242.318
250.369
259.144
268.651
278.9
289.897
301.647
314.154
201.582
202.088
203.107
204.648
206.726
209.358
212.567
216.373
220.8
225.87
231.606
238.025
245.148
252.989
261.562
270.878
280.946
291.775
303.368
315.731
206.841
207.302
208.231
209.641
211.552
213.988
216.976
220.544
224.722
229.538
235.018
241.187
248.066
255.674
264.026
273.134
283.009
293.657
305.084
317.294
212.413
212.821
213.645
214.903
216.622
218.832
221.568
224.867
228.765
233.297
238.496
244.391
251.006
258.363
266.479
275.367
285.039
295.5
306.756
318.81
218.142
218.489
219.196
220.285
221.79
223.749
226.209
229.213
232.807
237.035
241.934
247.538
253.877
260.974
268.847
277.511
286.976
297.25
308.335
320.235
223.789
224.071
224.652
225.561
226.839
228.535
230.704
233.402
236.683
240.598
245.192
250.505
256.568
263.407
271.042
279.488
288.754
298.848
309.771
321.524
229.03
229.248
229.704
230.433
231.486
232.922
234.807
237.208
240.187
243.803
248.108
253.145
258.95
265.55
272.966
281.212
290.298
300.229
311.007
322.63
233.478
233.639
233.982
234.55
235.401
236.606
238.24
240.378
243.093
246.449
250.505
255.306
260.891
267.289
274.52
282.6
291.536
301.332
311.99
323.508
236.734
236.849
237.106
237.551
238.25
239.28
240.723
242.664
245.181
248.344
252.215
256.842
262.266
268.517
275.615
283.574
292.402
302.102
312.675
324.117
238.459
238.55
238.76
239.138
239.754
240.688
242.029
243.864
246.275
249.335
253.107
257.642
262.981
269.153
276.18
284.076
292.848
302.498
313.027
324.429
238.459
238.55
238.76
239.138
239.754
240.688
242.029
243.864
246.275
249.335
253.107
257.642
262.981
269.153
276.18
284.076
292.848
302.498
313.027
324.429
236.734
236.849
237.106
237.551
238.25
239.28
240.723
242.664
245.181
248.344
252.215
256.842
262.266
268.517
275.615
283.574
292.402
302.102
312.675
324.117
233.478
233.639
233.982
234.55
235.401
236.606
238.24
240.378
243.093
246.449
250.505
255.306
260.891
267.289
274.52
282.6
291.536
301.332
311.99
323.508
229.03
229.248
229.704
230.433
231.486
232.922
234.807
237.208
240.187
243.803
248.108
253.145
258.95
265.55
272.966
281.212
290.298
300.229
311.007
322.63
223.789
224.071
224.652
225.561
226.839
228.535
230.704
233.402
236.683
240.598
245.192
250.505
256.568
263.407
271.042
279.488
288.754
298.848
309.771
321.524
218.142
218.489
219.196
220.285
221.79
223.749
226.209
229.213
232.807
237.035
241.934
247.538
253.877
260.974
268.847
277.511
286.976
297.25
308.335
320.235
212.413
212.821
213.645
214.903
216.622
218.832
221.568
224.867
228.765
233.297
238.496
244.391
251.006
258.363
266.479
275.367
285.039
295.5
306.756
318.81
206.841
207.302
208.231
209.641
211.552
213.988
216.976
220.544
224.722
229.538
235.018
241.187
248.066
255.674
264.026
273.134
283.009
293.657
305.084
317.294
201.582
202.088
203.107
204.648
206.726
209.358
212.567
216.373
220.8
225.87
231.606
238.025
245.148
252.989
261.562
270.878
280.946
291.775
303.368
315.731
196.722
197.267
198.361
200.012
202.23
205.03
208.427
212.439
217.082
222.375
228.334
234.977
242.318
250.369
259.144
268.651
278.9
289.897
301.647
314.154
)
;
    }
    coldSide
    {
        type            mixed;
        refValue        uniform 300;
        refGradient     uniform 0;
        valueFraction   uniform 0.991591;
        source          uniform 0;
        value           nonuniform List<scalar> 
400
(
300.011
300.011
300.011
300.011
300.011
300.011
300.011
300.012
300.012
300.012
300.013
300.013
300.013
300.014
300.014
300.015
300.015
300.016
300.016
300.017
300.011
300.011
300.011
300.011
300.011
300.011
300.012
300.012
300.012
300.012
300.013
300.013
300.013
300.014
300.014
300.015
300.015
300.016