/*--------------------------------*- C++ -*----------------------------------*\
| =========                 |                                                 |
| \\      /  F ield         | OpenFOAM: The Open Source CFD Toolbox           |
|  \\    /   O peration     | Version:  2212                                  |
|   \\  /    A nd           | Website:  www.openfoam.com                      |
|    \\/     M anipulation  |                                                 |
\*---------------------------------------------------------------------------*/
FoamFile
{
    version     2.0;
    format      ascii;
    arch        "LSB;label=32;scalar=64";
    class       volScalarField;
    location    "0";
    object      Ttrue;
}
// * * * * * * * * * * * * * * * * * * * * * * * * * * * * * * * * * * * * * //

dimensions      [0 0 0 1 0 0 0];

internalField   nonuniform List<scalar> 
3200
(
322.913
323.241
323.659
324.115
324.584
325.045
325.471
325.83
326.091
326.229
326.229
326.091
325.83
325.471
325.045
324.584
324.115
323.659
323.241
322.913
319.799
320.077
320.437
320.832
321.238
321.637
322.004
322.315
322.541
322.66
322.66
322.541
322.315
322.004
321.637
321.238
320.832
320.437
320.077
319.799
316.712
316.942
317.246
317.579
317.922
318.259
318.569
318.831
319.022
319.122
319.122
319.022
318.831
318.569
318.259
317.922
317.579
317.246
316.942
316.712
313.646
313.831
314.079
314.351
314.632
314.907
315.161
315.374
315.53
315.612
315.612
315.53
315.374
315.161
314.907
314.632
314.351
314.079
313.831
313.646
310.598
310.74
310.932
311.144
311.362
311.576
311.773
311.939
312.06
312.124
312.124
312.06
311.939
311.773
311.576
311.362
311.144
310.932
310.74
310.598
307.564
307.665
307.802
307.953
308.108
308.261
308.402
308.52
308.606
308.652
308.652
308.606
308.52
308.402
308.261
308.108
307.953
307.802
307.665
307.564
304.54
304.6
304.682
304.772
304.866
304.958
305.042
305.113
305.165
305.192
305.192
305.165
305.113
305.042
304.958
304.866
304.772
304.682
304.6
304.54
301.521
301.541
301.569
301.599
301.63
301.661
301.689
301.713
301.731
301.74
301.74
301.731
301.713
301.689
301.661
301.63
301.599
301.569
301.541
301.521
322.988
323.313
323.728
324.179
324.644
325.1
325.52
325.875
326.133
326.269
326.269
326.133
325.875
325.52
325.1
324.644
324.179
323.728
323.313
322.988
319.864
320.139
320.497
320.887
321.289
321.684
322.047
322.354
322.577
322.694
322.694
322.577
322.354
322.047
321.684
321.289
320.887
320.497
320.139
319.864
316.766
316.994
317.295
317.626
317.965
318.299
318.605
318.864
319.052
319.151
319.151
319.052
318.864
318.605
318.299
317.965
317.626
317.295
316.994
316.766
313.69
313.874
314.119
314.389
314.667
314.939
315.19
315.401
315.555
315.636
315.636
315.555
315.401
315.19
314.939
314.667
314.389
314.119
313.874
313.69
310.632
310.773
310.964
311.174
311.389
311.601
311.796
311.96
312.079
312.142
312.142
312.079
311.96
311.796
311.601
311.389
311.174
310.964
310.773
310.632
307.588
307.688
307.824
307.974
308.128
308.279
308.418
308.535
308.62
308.665
308.665
308.62
308.535
308.418
308.279
308.128
307.974
307.824
307.688
307.588
304.554
304.614
304.695
304.785
304.878
304.968
305.052
305.122
305.173
305.2
305.2
305.173
305.122
305.052
304.968
304.878
304.785
304.695
304.614
304.554
301.526
301.546
301.573
301.603
301.634
301.665
301.693
301.716
301.733
301.742
301.742
301.733
301.716
301.693
301.665
301.634
301.603
301.573
301.546
301.526
323.138
323.458
323.866
324.309
324.764
325.21
325.621
325.967
326.218
326.351
326.351
326.218
325.967
325.621
325.21
324.764
324.309
323.866
323.458
323.138
319.993
320.264
320.615
320.999
321.393
321.779
322.134
322.433
322.65
322.765
322.765
322.65
322.433
322.134
321.779
321.393
320.999
320.615
320.264
319.993
316.875
317.099
317.395
317.72
318.053
318.379
318.678
318.931
319.114
319.211
319.211
319.114
318.931
318.678
318.379
318.053
317.72
317.395
317.099
316.875
313.779
313.959
314.201
314.466
314.738
315.004
315.249
315.455
315.605
315.684
315.684
315.605
315.455
315.249
315.004
314.738
314.466
314.201
313.959
313.779
310.701
310.84
311.027
311.233
311.444
311.651
311.842
312.002
312.118
312.179
312.179
312.118
312.002
311.842
311.651
311.444
311.233
311.027
310.84
310.701
307.637
307.735
307.869
308.016
308.167
308.315
308.451
308.565
308.648
308.692
308.692
308.648
308.565
308.451
308.315
308.167
308.016
307.869
307.735
307.637
304.583
304.642
304.722
304.81
304.901
304.99
305.071
305.14
305.19
305.216
305.216
305.19
305.14
305.071
304.99
304.901
304.81
304.722
304.642
304.583
301.536
301.555
301.582
301.612
301.642
301.672
301.699
301.722
301.739
301.748
301.748
301.739
301.722
301.699
301.672
301.642
301.612
301.582
301.555
301.536
323.364
323.677
324.074
324.505
324.947
325.379
325.775
326.109
326.351
326.479
326.479
326.351
326.109
325.775
325.379
324.947
324.505
324.074
323.677
323.364
320.188
320.452
320.795
321.168
321.55
321.924
322.267
322.555
322.764
322.875
322.875
322.764
322.555
322.267
321.924
321.55
321.168
320.795
320.452
320.188
317.038
317.258
317.547
317.862
318.185
318.501
318.79
319.034
319.21
319.303
319.303
319.21
319.034
318.79
318.501
318.185
317.862
317.547
317.258
317.038
313.912
314.089
314.324
314.582
314.846
315.104
315.341
315.539
315.683
315.759
315.759
315.683
315.539
315.341
315.104
314.846
314.582
314.324
314.089
313.912
310.804
310.94
311.122
311.323
311.528
311.729
311.912
312.067
312.179
312.238
312.238
312.179
312.067
311.912
311.729
311.528
311.323
311.122
310.94
310.804
307.711
307.807
307.937
308.08
308.227
308.37
308.501
308.611
308.691
308.733
308.733
308.691
308.611
308.501
308.37
308.227
308.08
307.937
307.807
307.711
304.628
304.685
304.763
304.849
304.937
305.023
305.102
305.168
305.216
305.241
305.241
305.216
305.168
305.102
305.023
304.937
304.849
304.763
304.685
304.628
301.551
301.57
301.596
301.625
301.654
301.683
301.709
301.732
301.748
301.756
301.756
301.748
301.732
301.709
301.683
301.654
301.625
301.596
301.57
301.551
323.667
323.97
324.355
324.77
325.195
325.609
325.988
326.306
326.536
326.657
326.657
326.536
326.306
325.988
325.609
325.195
324.77
324.355
323.97
323.667
320.449
320.705
321.036
321.396
321.764
322.122
322.45
322.725
322.924
323.028
323.028
322.924
322.725
322.45
322.122
321.764
321.396
321.036
320.705
320.449
317.258
317.47
317.75
318.054
318.365
318.667
318.944
319.176
319.344
319.433
319.433
319.344
319.176
318.944
318.667
318.365
318.054
317.75
317.47
317.258
314.091
314.262
314.49
314.738
314.992
315.239
315.466
315.655
315.793
315.865
315.865
315.793
315.655
315.466
315.239
314.992
314.738
314.49
314.262
314.091
310.943
311.074
311.251
311.444
311.641
311.834
312.01
312.157
312.263
312.319
312.319
312.263
312.157
312.01
311.834
311.641
311.444
311.251
311.074
310.943
307.809
307.902
308.028
308.166
308.307
308.445
308.57
308.675
308.751
308.792
308.792
308.751
308.675
308.57
308.445
308.307
308.166
308.028
307.902
307.809
304.687
304.742
304.818
304.901
304.985
305.068
305.143
305.206
305.252
305.276
305.276
305.252
305.206
305.143
305.068
304.985
304.901
304.818
304.742
304.687
301.57
301.589
301.614
301.642
301.67
301.698
301.723
301.744
301.76
301.768
301.768
301.76
301.744
301.723
301.698
301.67
301.642
301.614
301.589
301.57
324.049
324.34
324.709
325.106
325.511
325.904
326.263
326.562
326.779
326.893
326.893
326.779
326.562
326.263
325.904
325.511
325.106
324.709
324.34
324.049
320.777
321.023
321.341
321.686
322.036
322.376
322.686
322.946
323.133
323.232
323.232
323.133
322.946
322.686
322.376
322.036
321.686
321.341
321.023
320.777
317.534
317.738
318.007
318.297
318.594
318.881
319.143
319.362
319.52
319.604
319.604
319.52
319.362
319.143
318.881
318.594
318.297
318.007
317.738
317.534
314.315
314.48
314.699
314.936
315.179
315.414
315.628
315.807
315.936
316.004
316.004
315.936
315.807
315.628
315.414
315.179
314.936
314.699
314.48
314.315
311.117
311.243
311.413
311.598
311.786
311.969
312.135
312.274
312.375
312.427
312.427
312.375
312.274
312.135
311.969
311.786
311.598
311.413
311.243
311.117
307.934
308.023
308.144
308.276
308.41
308.541
308.66
308.759
308.831
308.868
308.868
308.831
308.759
308.66
308.541
308.41
308.276
308.144
308.023
307.934
304.761
304.815
304.887
304.966
305.047
305.125
305.197
305.256
305.299
305.322
305.322
305.299
305.256
305.197
305.125
305.047
304.966
304.887
304.815
304.761
301.595
301.613
301.637
301.664
301.691
301.717
301.741
301.761
301.776
301.783
301.783
301.776
301.761
301.741
301.717
301.691
301.664
301.637
301.613
301.595
324.509
324.788
325.139
325.516
325.899
326.269
326.605
326.885
327.087
327.193
327.193
327.087
326.885
326.605
326.269
325.899
325.516
325.139
324.788
324.509
321.173
321.409
321.712
322.039
322.37
322.69
322.981
323.223
323.398
323.49
323.49
323.398
323.223
322.981
322.69
322.37
322.039
321.712
321.409
321.173
317.867
318.063
318.319
318.595
318.875
319.145
319.391
319.596
319.744
319.821
319.821
319.744
319.596
319.391
319.145
318.875
318.595
318.319
318.063
317.867
314.587
314.745
314.953
315.179
315.408
315.629
315.83
315.997
316.118
316.181
316.181
316.118
315.997
315.83
315.629
315.408
315.179
314.953
314.745
314.587
311.327
311.448
311.61
311.785
311.963
312.135
312.292
312.422
312.515
312.565
312.565
312.515
312.422
312.292
312.135
311.963
311.785
311.61
311.448
311.327
308.084
308.169
308.284
308.41
308.537
308.66
308.771
308.864
308.931
308.966
308.966
308.931
308.864
308.771
308.66
308.537
308.41
308.284
308.169
308.084
304.851
304.902
304.971
305.047
305.123
305.197
305.264
305.319
305.36
305.381
305.381
305.36
305.319
305.264
305.197
305.123
305.047
304.971
304.902
304.851
301.625
301.642
301.666
301.691
301.716
301.741
301.764
301.782
301.796
301.803
301.803
301.796
301.782
301.764
301.741
301.716
301.691
301.666
301.642
301.625
325.051
325.315
325.648
326.004
326.362
326.708
327.02
327.28
327.466
327.564
327.564
327.466
327.28
327.02
326.708
326.362
326.004
325.648
325.315
325.051
321.639
321.863
322.15
322.458
322.769
323.068
323.339
323.563
323.725
323.809
323.809
323.725
323.563
323.339
323.068
322.769
322.458
322.15
321.863
321.639
318.26
318.446
318.687
318.948
319.211
319.463
319.692
319.882
320.018
320.09
320.09
320.018
319.882
319.692
319.463
319.211
318.948
318.687
318.446
318.26
314.907
315.056
315.253
315.466
315.681
315.888
316.075
316.23
316.341
316.4
316.4
316.341
316.23
316.075
315.888
315.681
315.466
315.253
315.056
314.907
311.575
311.69
311.843
312.008
312.175
312.336
312.482
312.602
312.689
312.734
312.734
312.689
312.602
312.482
312.336
312.175
312.008
311.843
311.69
311.575
308.26
308.341
308.45
308.569
308.688
308.803
308.907
308.993
309.055
309.087
309.087
309.055
308.993
308.907
308.803
308.688
308.569
308.45
308.341
308.26
304.957
305.005
305.071
305.142
305.214
305.282
305.345
305.396
305.434
305.453
305.453
305.434
305.396
305.345
305.282
305.214
305.142
305.071
305.005
304.957
301.661
301.677
301.699
301.723
301.747
301.77
301.791
301.808
301.821
301.827
301.827
301.821
301.808
301.791
301.77
301.747
301.723
301.699
301.677
301.661
325.675
325.925
326.238
326.571
326.905
327.225
327.514
327.752
327.923
328.013
328.013
327.923
327.752
327.514
327.225
326.905
326.571
326.238
325.925
325.675
322.177
322.388
322.658
322.947
323.236
323.513
323.763
323.97
324.118
324.195
324.195
324.118
323.97
323.763
323.513
323.236
322.947
322.658
322.388
322.177
318.712
318.888
319.115
319.359
319.604
319.838
320.049
320.224
320.349
320.415
320.415
320.349
320.224
320.049
319.838
319.604
319.359
319.115
318.888
318.712
315.275
315.416
315.602
315.801
316.001
316.193
316.366
316.509
316.611
316.664
316.664
316.611
316.509
316.366
316.193
316.001
315.801
315.602
315.416
315.275
311.861
311.969
312.113
312.268
312.424
312.573
312.707
312.818
312.898
312.939
312.939
312.898
312.818
312.707
312.573
312.424
312.268
312.113
311.969
311.861
308.464
308.54
308.643
308.754
308.865
308.971
309.067
309.147
309.203
309.233
309.233
309.203
309.147
309.067
308.971
308.865
308.754
308.643
308.54
308.464
305.079
305.125
305.186
305.253
305.32
305.384
305.441
305.489
305.523
305.541
305.541
305.523
305.489
305.441
305.384
305.32
305.253
305.186
305.125
305.079
301.702
301.717
301.738
301.76
301.782
301.804
301.823
301.839
301.85
301.856
301.856
301.85
301.839
301.823
301.804
301.782
301.76
301.738
301.717
301.702
326.383
326.618
326.91
327.22
327.53
327.825
328.09
328.308
328.463
328.545
328.545
328.463
328.308
328.09
327.825
327.53
327.22
326.91
326.618
326.383
322.787
322.985
323.238
323.506
323.775
324.03
324.259
324.448
324.583
324.653
324.653
324.583
324.448
324.259
324.03
323.775
323.506
323.238
322.985
322.787
319.225
319.39
319.603
319.83
320.057
320.273
320.467
320.626
320.74
320.8
320.8
320.74
320.626
320.467
320.273
320.057
319.83
319.603
319.39
319.225
315.693
315.826
315.999
316.185
316.371
316.547
316.706
316.836
316.93
316.978
316.978
316.93
316.836
316.706
316.547
316.371
316.185
315.999
315.826
315.693
312.185
312.287
312.421
312.566
312.71
312.847
312.971
313.072
313.145
313.182
313.182
313.145
313.072
312.971
312.847
312.71
312.566
312.421
312.287
312.185
308.695
308.767
308.863
308.966
309.069
309.167
309.255
309.328
309.379
309.406
309.406
309.379
309.328
309.255
309.167
309.069
308.966
308.863
308.767
308.695
305.217
305.26
305.318
305.38
305.442
305.501
305.554
305.597
305.628
305.645
305.645
305.628
305.597
305.554
305.501
305.442
305.38
305.318
305.26
305.217
301.748
301.762
301.782
301.802
301.823
301.843
301.861
301.875
301.886
301.891
301.891
301.886
301.875
301.861
301.843
301.823
301.802
301.782
301.762
301.748
327.176
327.396
327.669
327.956
328.241
328.511
328.753
328.95
329.091
329.165
329.165
329.091
328.95
328.753
328.511
328.241
327.956
327.669
327.396
327.176
323.47
323.656
323.891
324.14
324.387
324.621
324.83
325.002
325.124
325.187
325.187
325.124
325.002
324.83
324.621
324.387
324.14
323.891
323.656
323.47
319.8
319.955
320.153
320.363
320.572
320.77
320.947
321.092
321.195
321.249
321.249
321.195
321.092
320.947
320.77
320.572
320.363
320.153
319.955
319.8
316.162
316.286
316.447
316.619
316.791
316.953
317.097
317.216
317.3
317.344
317.344
317.3
317.216
317.097
316.953
316.791
316.619
316.447
316.286
316.162
312.548
312.643
312.769
312.902
313.035
313.161
313.274
313.366
313.432
313.466
313.466
313.432
313.366
313.274
313.161
313.035
312.902
312.769
312.643
312.548
308.953
309.021
309.11
309.206
309.301
309.391
309.471
309.537
309.584
309.609
309.609
309.584
309.537
309.471
309.391
309.301
309.206
309.11
309.021
308.953
305.373
305.413
305.467
305.524
305.581
305.635
305.683
305.723
305.751
305.766
305.766
305.751
305.723
305.683
305.635
305.581
305.524
305.467
305.413
305.373
301.8
301.814
301.831
301.851
301.87
301.888
301.904
301.917
301.927
301.932
301.932
301.927
301.917
301.904
301.888
301.87
301.851
301.831
301.814
301.8
328.057
328.261
328.514
328.779
329.04
329.287
329.506
329.685
329.812
329.878
329.878
329.812
329.685
329.506
329.287
329.04
328.779
328.514
328.261
328.057
324.228
324.401
324.619
324.849
325.075
325.289
325.479
325.634
325.744
325.801
325.801
325.744
325.634
325.479
325.289
325.075
324.849
324.619
324.401
324.228
320.439
320.582
320.766
320.96
321.152
321.333
321.493
321.624
321.717
321.766
321.766
321.717
321.624
321.493
321.333
321.152
320.96
320.766
320.582
320.439
316.682
316.797
316.947
317.106
317.263
317.411
317.542
317.649
317.725
317.765
317.765
317.725
317.649
317.542
317.411
317.263
317.106
316.947
316.797
316.682
312.951
313.04
313.156
313.279
313.401
313.517
313.619
313.702
313.761
313.792
313.792
313.761
313.702
313.619
313.517
313.401
313.279
313.156
313.04
312.951
309.241
309.304
309.386
309.475
309.562
309.644
309.717
309.777
309.819
309.841
309.841
309.819
309.777
309.717
309.644
309.562
309.475
309.386
309.304
309.241
305.545
305.582
305.632
305.685
305.737
305.787
305.831
305.866
305.892
305.905
305.905
305.892
305.866
305.831
305.787
305.737
305.685
305.632
305.582
305.545
301.858
301.87
301.887
301.905
301.922
301.939
301.953
301.965
301.974
301.978
301.978
301.974
301.965
301.953
301.939
301.922
301.905
301.887
301.87
301.858
329.025
329.215
329.448
329.691
329.93
330.154
330.352
330.513
330.627
330.687
330.687
330.627
330.513
330.352
330.154
329.93
329.691
329.448
329.215
329.025
325.062
325.223
325.424
325.635
325.842
326.036
326.208
326.348
326.446
326.498
326.498
326.446
326.348
326.208
326.036
325.842
325.635
325.424
325.223
325.062
321.141
321.274
321.444
321.622
321.797
321.961
322.107
322.225
322.308
322.352
322.352
322.308
322.225
322.107
321.961
321.797
321.622
321.444
321.274
321.141
317.254
317.361
317.499
317.645
317.788
317.923
318.042
318.138
318.207
318.242
318.242
318.207
318.138
318.042
317.923
317.788
317.645
317.499
317.361
317.254
313.394
313.477
313.584
313.697
313.809
313.914
314.006
314.081
314.135
314.162
314.162
314.135
314.081
314.006
313.914
313.809
313.697
313.584
313.477
313.394
309.557
309.615
309.692
309.772
309.852
309.927
309.993
310.047
310.085
310.105
310.105
310.085
310.047
309.993
309.927
309.852
309.772
309.692
309.615
309.557
305.734
305.769
305.815
305.864
305.912
305.957
305.996
306.028
306.051
306.063
306.063
306.051
306.028
305.996
305.957
305.912
305.864
305.815
305.769
305.734
301.921
301.933
301.948
301.965
301.981
301.996
302.009
302.02
302.027
302.031
302.031
302.027
302.02
302.009
301.996
301.981
301.965
301.948
301.933
301.921
330.081
330.257
330.472
330.694
330.912
331.115
331.293
331.438
331.54
331.593
331.593
331.54
331.438
331.293
331.115
330.912
330.694
330.472
330.257
330.081
325.972
326.121
326.306
326.499
326.688
326.864
327.018
327.144
327.232
327.278
327.278
327.232
327.144
327.018
326.864
326.688
326.499
326.306
326.121
325.972
321.907
322.03
322.186
322.349
322.509
322.658
322.789
322.895
322.97
323.009
323.009
322.97
322.895
322.789
322.658
322.509
322.349
322.186
322.03
321.907
317.878
317.977
318.104
318.238
318.368
318.49
318.597
318.684
318.745
318.777
318.777
318.745
318.684
318.597
318.49
318.368
318.238
318.104
317.977
317.878
313.878
313.954
314.053
314.157
314.259
314.353
314.437
314.504
314.552
314.577
314.577
314.552
314.504
314.437
314.353
314.259
314.157
314.053
313.954
313.878
309.902
309.955
310.026
310.1
310.173
310.24
310.3
310.348
310.382
310.4
310.4
310.382
310.348
310.3
310.24
310.173
310.1
310.026
309.955
309.902
305.941
305.973
306.016
306.06
306.104
306.144
306.18
306.209
306.23
306.24
306.24
306.23
306.209
306.18
306.144
306.104
306.06
306.016
305.973
305.941
301.99
302.001
302.015
302.03
302.045
302.059
302.071
302.08
302.087
302.091
302.091
302.087
302.08
302.071
302.059
302.045
302.03
302.015
302.001
301.99
331.225
331.387
331.584
331.787
331.985
332.168
332.329
332.459
332.55
332.597
332.597
332.55
332.459
332.329
332.168
331.985
331.787
331.584
331.387
331.225
326.957
327.094
327.264
327.44
327.612
327.771
327.91
328.022
328.101
328.142
328.142
328.101
328.022
327.91
327.771
327.612
327.44
327.264
327.094
326.957
322.735
322.849
322.992
323.141
323.287
323.421
323.539
323.634
323.701
323.736
323.736
323.701
323.634
323.539
323.421
323.287
323.141
322.992
322.849
322.735
318.553
318.644
318.761
318.883
319.002
319.112
319.208
319.286
319.341
319.369
319.369
319.341
319.286
319.208
319.112
319.002
318.883
318.761
318.644
318.553
314.401
314.471
314.562
314.657
314.749
314.835
314.91
314.971
315.013
315.036
315.036
315.013
314.971
314.91
314.835
314.749
314.657
314.562
314.471
314.401
310.274
310.324
310.389
310.456
310.522
310.584
310.637
310.681
310.711
310.727
310.727
310.711
310.681
310.637
310.584
310.522
310.456
310.389
310.324
310.274
306.165
306.194
306.233
306.274
306.313
306.35
306.383
306.409
306.427
306.436
306.436
306.427
306.409
306.383
306.35
306.313
306.274
306.233
306.194
306.165
302.065
302.075
302.088
302.102
302.115
302.127
302.138
302.147
302.153
302.156
302.156
302.153
302.147
302.138
302.127
302.115
302.102
302.088
302.075
302.065
332.451
332.6
332.781
332.967
333.146
333.311
333.456
333.572
333.653
333.695
333.695
333.653
333.572
333.456
333.311
333.146
332.967
332.781
332.6
332.451
328.013
328.139
328.295
328.455
328.611
328.754
328.879
328.98
329.05
329.087
329.087
329.05
328.98
328.879
328.754
328.611
328.455
328.295
328.139
328.013
323.623
323.728
323.859
323.995
324.127
324.248
324.354
324.439
324.499
324.53
324.53
324.499
324.439
324.354
324.248
324.127
323.995
323.859
323.728
323.623
319.275
319.359
319.467
319.578
319.686
319.785
319.872
319.942
319.99
320.016
320.016
319.99
319.942
319.872
319.785
319.686
319.578
319.467
319.359
319.275
314.961
315.026
315.109
315.195
315.279
315.357
315.424
315.479
315.517
315.536
315.536
315.517
315.479
315.424
315.357
315.279
315.195
315.109
315.026
314.961
310.673
310.719
310.778
310.84
310.9
310.955
311.004
311.042
311.07
311.084
311.084
311.07
311.042
311.004
310.955
310.9
310.84
310.778
310.719
310.673
306.404
306.431
306.467
306.504
306.54
306.573
306.602
306.625
306.642
306.65
306.65
306.642
306.625
306.602
306.573
306.54
306.504
306.467
306.431
306.404
302.145
302.154
302.166
302.179
302.191
302.202
302.212
302.22
302.225
302.228
302.228
302.225
302.22
302.212
302.202
302.191
302.179
302.166
302.154
302.145
333.749
333.886
334.051
334.22
334.383
334.532
334.662
334.766
334.838
334.876
334.876
334.838
334.766
334.662
334.532
334.383
334.22
334.051
333.886
333.749
329.127
329.243
329.386
329.532
329.673
329.803
329.915
330.005
330.068
330.101
330.101
330.068
330.005
329.915
329.803
329.673
329.532
329.386
329.243
329.127
324.559
324.655
324.776
324.9
325.019
325.129
325.224
325.3
325.353
325.381
325.381
325.353
325.3
325.224
325.129
325.019
324.9
324.776
324.655
324.559
320.036
320.114
320.212
320.313
320.411
320.501
320.579
320.641
320.685
320.707
320.707
320.685
320.641
320.579
320.501
320.411
320.313
320.212
320.114
320.036
315.55
315.609
315.686
315.764
315.841
315.91
315.971
316.02
316.054
316.071
316.071
316.054
316.02
315.971
315.91
315.841
315.764
315.686
315.609
315.55
311.092
311.134
311.189
311.245
311.299
311.349
311.393
311.428
311.452
311.464
311.464
311.452
311.428
311.393
311.349
311.299
311.245
311.189
311.134
311.092
306.655
306.68
306.712
306.746
306.779
306.809
306.835
306.856
306.871
306.878
306.878
306.871
306.856
306.835
306.809
306.779
306.746
306.712
306.68
306.655
302.229
302.238
302.249
302.26
302.271
302.281
302.29
302.297
302.302
302.304
302.304
302.302
302.297
302.29
302.281
302.271
302.26
302.249
302.238
302.229
335.086
335.212
335.363
335.517
335.665
335.8
335.916
336.01
336.075
336.108
336.108
336.075
336.01
335.916
335.8
335.665
335.517
335.363
335.212
335.086
330.27
330.377
330.508
330.641
330.77
330.887
330.988
331.069
331.125
331.154
331.154
331.125
331.069
330.988
330.887
330.77
330.641
330.508
330.377
330.27
325.515
325.604
325.714
325.827
325.936
326.035
326.121
326.189
326.237
326.262
326.262
326.237
326.189
326.121
326.035
325.936
325.827
325.714
325.604
325.515
320.811
320.882
320.972
321.065
321.153
321.235
321.305
321.361
321.4
321.421
321.421
321.4
321.361
321.305
321.235
321.153
321.065
320.972
320.882
320.811
316.148
316.202
316.272
316.344
316.413
316.477
316.532
316.575
316.606
316.621
316.621
316.606
316.575
316.532
316.477
316.413
316.344
316.272
316.202
316.148
311.517
311.555
311.605
311.657
311.706
311.751
311.791
311.822
311.844
311.855
311.855
311.844
311.822
311.791
311.751
311.706
311.657
311.605
311.555
311.517
306.909
306.932
306.962
306.993
307.022
307.049
307.073
307.092
307.105
307.112
307.112
307.105
307.092
307.073
307.049
307.022
306.993
306.962
306.932
306.909
302.314
302.322
302.332
302.342
302.352
302.362
302.369
302.376
302.38
302.382
302.382
302.38
302.376
302.369
302.362
302.352
302.342
302.332
302.322
302.314
336.377
336.494
336.634
336.775
336.91
337.033
337.139
337.223
337.282
337.312
337.312
337.282
337.223
337.139
337.033
336.91
336.775
336.634
336.494
336.377
331.362
331.46
331.581
331.704
331.822
331.928
332.021
332.094
332.145
332.171
332.171
332.145
332.094
332.021
331.928
331.822
331.704
331.581
331.46
331.362
326.418
326.5
326.602
326.706
326.806
326.896
326.975
327.037
327.08
327.102
327.102
327.08
327.037
326.975
326.896
326.806
326.706
326.602
326.5
326.418
321.535
321.601
321.685
321.77
321.852
321.926
321.99
322.041
322.077
322.095
322.095
322.077
322.041
321.99
321.926
321.852
321.77
321.685
321.601
321.535
316.702
316.753
316.818
316.884
316.948
317.006
317.056
317.096
317.123
317.138
317.138
317.123
317.096
317.056
317.006
316.948
316.884
316.818
316.753
316.702
311.908
311.944
311.99
312.038
312.084
312.125
312.161
312.189
312.209
312.219
312.219
312.209
312.189
312.161
312.125
312.084
312.038
311.99
311.944
311.908
307.142
307.163
307.191
307.22
307.247
307.272
307.294
307.311
307.323
307.329
307.329
307.323
307.311
307.294
307.272
307.247
307.22
307.191
307.163
307.142
302.392
302.399
302.409
302.418
302.427
302.436
302.443
302.449
302.453
302.455
302.455
302.453
302.449
302.443
302.436
302.427
302.418
302.409
302.399
302.392
337.398
337.508
337.639
337.772
337.898
338.013
338.111
338.19
338.244
338.272
338.272
338.244
338.19
338.111
338.013
337.898
337.772
337.639
337.508
337.398
332.191
332.284
332.398
332.514
332.624
332.724
332.81
332.878
332.926
332.95
332.95
332.926
332.878
332.81
332.724
332.624
332.514
332.398
332.284
332.191
327.083
327.16
327.257
327.355
327.449
327.534
327.607
327.665
327.705
327.726
327.726
327.705
327.665
327.607
327.534
327.449
327.355
327.257
327.16
327.083
322.056
322.118
322.197
322.278
322.355
322.425
322.485
322.533
322.566
322.583
322.583
322.566
322.533
322.485
322.425
322.355
322.278
322.197
322.118
322.056
317.093
317.141
317.203
317.266
317.326
317.38
317.427
317.465
317.49
317.504
317.504
317.49
317.465
317.427
317.38
317.326
317.266
317.203
317.141
317.093
312.18
312.214
312.258
312.303
312.346
312.386
312.419
312.446
312.465
312.474
312.474
312.465
312.446
312.419
312.386
312.346
312.303
312.258
312.214
312.18
307.303
307.323
307.349
307.376
307.402
307.426
307.446
307.462
307.473
307.479
307.479
307.473
307.462
307.446
307.426
307.402
307.376
307.349
307.323
307.303
302.446
302.452
302.461
302.47
302.479
302.487
302.494
302.499
302.503
302.505
302.505
302.503
302.499
302.494
302.487
302.479
302.47
302.461
302.452
302.446
)
;

boundaryField
{
    hotSide
    {
        type            fixedGradient;
        gradient        nonuniform List<scalar> 
400
(
251.56
252.413
254.123
256.696
260.143
264.475
269.707
275.853
282.929
290.952
299.935
309.894
320.842
332.79
345.75
359.729
374.735
390.774
407.852
425.97
255.87
256.689
258.332
260.808
264.13
268.314
273.378
279.342
286.227
294.052
302.837
312.598
323.352
335.114
347.894
361.703
376.55
392.44
409.378
427.369
260.535
261.313
262.876
265.236
268.41
272.42
277.288
283.042
289.705
297.305
305.863
315.402
325.941
337.496
350.08
363.705
378.379
394.109
410.9
428.756
265.477
266.208
267.678
269.904
272.907
276.716
281.362
286.876
293.291
300.639
308.948
318.244
328.548
339.88
352.255
365.685
380.179
395.744
412.383
430.1
270.558
271.235
272.601
274.677
277.491
281.078
285.477
290.73
296.877
303.954
311.997
321.035
331.094
342.196
354.356
367.587
381.898
397.296
413.784
431.364
275.566
276.186
277.441
279.356
281.969
285.322
289.464
294.445
300.314
307.114
314.887
323.666
333.481
344.354
356.302
369.34
383.475
398.713
415.057
432.507
280.214
280.778
281.922
283.678
286.09
289.213
293.104
297.821
303.421
309.957
317.473
326.008
335.594
346.255
358.009
370.869
384.844
399.938
416.153
433.488
284.16
284.672
285.715
287.329
289.563
292.481
296.148
300.633
305.999
312.304
319.598
327.924
337.315
347.797
359.387
372.1
385.942
400.917
417.025
434.266
287.047
287.519
288.487
289.991
292.09
294.852
298.351
302.661
307.851
313.985
321.115
329.287
338.535
348.886
360.358
372.963
386.71
401.6
417.633
434.807
288.577
289.028
289.953
291.398
293.423
296.101
299.509
303.725
308.821
314.863
321.906
329.996
339.169
349.45
360.86
373.409
387.105
401.951
417.945
435.084
288.577
289.028
289.953
291.398
293.423
296.101
299.509
303.725
308.821
314.863
321.906
329.996
339.169
349.45
360.86
373.409
387.105
401.951
417.945
435.084
287.047
287.519
288.487
289.991
292.09
294.852
298.351
302.661
307.851
313.985
321.115
329.287
338.535
348.886
360.358
372.963
386.71
401.6
417.633
434.807
284.16
284.672
285.715
287.329
289.563
292.481
296.148
300.633
305.999
312.304
319.598
327.924
337.315
347.797
359.387
372.1
385.942
400.917
417.025
434.266
280.214
280.778
281.922
283.678
286.09
289.213
293.104
297.821
303.421
309.957
317.473
326.008
335.594
346.255
358.009
370.869
384.844
399.938
416.153
433.488
275.566
276.186
277.441
279.356
281.969
285.322
289.464
294.445
300.314
307.114
314.887
323.666
333.481
344.354
356.302
369.34
383.475
398.713
415.057
432.507
270.558
271.235
272.601
274.677
277.491
281.078
285.477
290.73
296.877
303.954
311.997
321.035
331.094
342.196
354.356
367.587
381.898
397.296
413.784
431.364
265.477
266.208
267.678
269.904
272.907
276.716
281.362
286.876
293.291
300.639
308.948
318.244
328.548
339.88
352.255
365.685
380.179
395.744
412.383
430.1
260.535
261.313
262.876
265.236
268.41
272.42
277.288
283.042
289.705
297.305
305.863
315.402
325.941
337.496
350.08
363.705
378.379
394.109
410.9
428.756
255.87
256.689
258.332
260.808
264.13
268.314
273.378
279.342
286.227
294.052
302.837
312.598
323.352
335.114
347.894
361.703
376.55
392.44
409.378
427.369
251.56
252.413
254.123
256.696
260.143
264.475
269.707
275.853
282.929
290.952
299.935
309.894
320.842
332.79
345.75
359.729
374.735
390.774
407.852
425.97
)
;
    }
    coldSide
    {
        type            mixed;
        refValue        uniform 300;
        refGradient     uniform 0;
        valueFraction   uniform 0.991591;
        source          uniform 0;
        value           nonuniform List<scalar> 
400
(
300.013
300.013
300.013
300.013
300.013
300.013
300.014
300.014
300.014
300.015
300.015
300.016
300.016
300.017
300.017
300.018
300.019
300.019
300.02
300.021
300.013
300.013
300.013
300.013
300.013
300.014
300.014
300.014
300.014
300.015
300.015
300.016
300.016
300.017
300.017
300.018
300.019
300.02
300.02
300.021