/*--------------------------------*- C++ -*----------------------------------*\
| =========                 |                                                 |
| \\      /  F ield         | OpenFOAM: The Open Source CFD Toolbox           |
|  \\    /   O peration     | Version:  2212                                  |
|   \\  /    A nd           | Website:  www.openfoam.com                      |
|    \\/     M anipulation  |                                                 |
\*---------------------------------------------------------------------------*/
FoamFile
{
    version     2.0;
    format      ascii;
    arch        "LSB;label=32;scalar=64";
    class       volScalarField;
    location    "0";
    object      T;
}
// * * * * * * * * * * * * * * * * * * * * * * * * * * * * * * * * * * * * * //

dimensions      [0 0 0 1 0 0 0];

internalField   nonuniform List<scalar> 
3200
(
333.056
333.903
334.634
335.199
336.037
335.815
336.127
336.767
336.963
337.014
336.667
336.389
336.181
335.944
335.669
335.048
334.44
333.623
332.611
332.328
328.857
329.605
330.212
330.698
331.419
331.186
331.529
332.02
332.23
332.261
331.928
331.721
331.498
331.279
331.053
330.512
330.011
329.307
328.358
328.175
324.593
325.238
325.715
326.086
326.723
326.483
326.805
327.219
327.448
327.44
327.112
326.943
326.735
326.587
326.353
325.93
325.517
324.945
324.106
323.916
320.25
320.739
321.136
321.458
321.983
321.729
322.005
322.359
322.577
322.532
322.245
322.125
321.956
321.859
321.616
321.274
320.942
320.481
319.828
319.651
315.815
316.186
316.473
316.78
317.155
316.923
317.19
317.456
317.603
317.592
317.388
317.235
317.134
317.029
316.818
316.624
316.341
315.952
315.509
315.335
311.371
311.574
311.793
312.059
312.3
312.096
312.307
312.483
312.588
312.584
312.44
312.332
312.267
312.191
312.045
311.938
311.735
311.477
311.107
310.993
306.861
306.957
307.1
307.259
307.357
307.289
307.394
307.49
307.576
307.571
307.473
307.449
307.36
307.347
307.233
307.199
307.076
306.892
306.695
306.58
302.324
302.322
302.361
302.431
302.471
302.444
302.466
302.497
302.533
302.543
302.502
302.511
302.475
302.464
302.414
302.423
302.371
302.3
302.242
302.202
334.211
335.057
335.673
336.186
336.814
336.948
337.291
337.915
337.782
337.931
337.833
337.524
337.215
336.743
336.658
336.097
335.49
334.627
333.612
333.222
329.828
330.563
331.099
331.541
332.099
332.146
332.467
332.987
332.944
333.027
332.921
332.604
332.363
331.932
331.88
331.382
330.838
330.072
329.207
328.899
325.379
325.976
326.435
326.806
327.314
327.276
327.615
328.022
328.053
328.036
327.92
327.689
327.464
327.061
326.98
326.598
326.105
325.492
324.77
324.523
320.836
321.334
321.736
321.983
322.436
322.342
322.67
322.998
323.026
323.027
322.859
322.771
322.498
322.185
322.103
321.813
321.389
320.85
320.361
320.09
316.26
316.682
316.978
317.136
317.55
317.41
317.705
318.005
317.938
317.973
317.838
317.81
317.527
317.291
317.199
317.001
316.663
316.235
315.916
315.659
311.676
312.006
312.144
312.243
312.557
312.43
312.668
312.908
312.862
312.91
312.724
312.78
312.542
312.367
312.295
312.182
311.906
311.615
311.408
311.242
307.024
307.214
307.318
307.341
307.536
307.487
307.595
307.771
307.754
307.753
307.643
307.709
307.544
307.45
307.376
307.341
307.143
307.01
306.876
306.73
302.355
302.427
302.439
302.456
302.532
302.517
302.525
302.587
302.604
302.6
302.575
302.599
302.536
302.502
302.487
302.463
302.386
302.365
302.315
302.252
335.511
335.985
336.689
337.416
337.783
338.124
338.642
339.147
339.326
339.245
339.406
338.947
338.68
338.172
337.903
337.458
336.696
335.676
335.007
334.38
330.942
331.351
331.985
332.551
332.855
333.126
333.608
334.057
334.147
334.094
334.23
333.841
333.579
333.135
332.92
332.546
331.842
330.95
330.403
329.847
326.258
326.665
327.207
327.615
327.896
328.091
328.573
328.871
328.966
328.898
329.018
328.72
328.451
328.092
327.89
327.63
326.956
326.198
325.814
325.276
321.514
321.899
322.325
322.614
322.898
323.04
323.414
323.633
323.778
323.675
323.787
323.558
323.316
323.01
322.867
322.664
322.051
321.395
321.153
320.707
316.774
317.049
317.377
317.607
317.85
317.938
318.214
318.462
318.55
318.434
318.554
318.403
318.235
317.916
317.826
317.674
317.143
316.664
316.495
316.167
312.025
312.151
312.418
312.567
312.728
312.794
313.004
313.244
313.254
313.212
313.272
313.212
313.053
312.83
312.772
312.64
312.258
311.929
311.812
311.569
307.235
307.268
307.463
307.553
307.643
307.694
307.785
307.976
307.966
307.961
307.991
307.951
307.805
307.729
307.689
307.567
307.383
307.147
307.091
306.957
302.424
302.454
302.493
302.543
302.565
302.576
302.594
302.687
302.685
302.668
302.682
302.681
302.608
302.591
302.568
302.552
302.489
302.386
302.391
302.323
336.761
337.493
338.291
338.819
339.269
339.492
340.229
340.685
340.667
340.725
340.798
340.285
340.333
339.867
339.313
338.752
338.068
337.234
336.608
335.789
332.026
332.613
333.309
333.722
334.085
334.291
334.956
335.361
335.345
335.381
335.447
334.996
334.999
334.594
334.141
333.652
333.054
332.261
331.739
331.112
327.242
327.7
328.294
328.623
328.923
329.096
329.685
329.968
329.995
329.969
330.096
329.656
329.622
329.325
328.961
328.566
328.041
327.32
326.868
326.382
322.353
322.71
323.227
323.475
323.736
323.842
324.347
324.552
324.601
324.525
324.688
324.312
324.252
324.069
323.758
323.432
322.971
322.372
322.022
321.59
317.427
317.739
318.098
318.294
318.505
318.595
318.973
319.098
319.184
319.091
319.24
318.959
318.878
318.762
318.509
318.255
317.872
317.4
317.163
316.787
312.47
312.681
312.963
313.075
313.253
313.315
313.565
313.653
313.718
313.645
313.783
313.575
313.461
313.435
313.25
313.045
312.789
312.414
312.286
311.998
307.482
307.617
307.803
307.838
307.966
308.004
308.153
308.227
308.218
308.172
308.289
308.158
308.068
308.082
307.973
307.812
307.68
307.436
307.372
307.216
302.506
302.561
302.612
302.633
302.68
302.677
302.742
302.751
302.758
302.738
302.794
302.738
302.691
302.699
302.67
302.628
302.583
302.494
302.463
302.428
338.31
338.98
339.572
340.204
340.719
341.215
341.848
342.148
342.405
342.449
342.372
341.959
341.761
341.245
340.723
340.187
339.497
338.928
337.92
337.204
333.363
333.951
334.412
334.977
335.38
335.845
336.392
336.689
336.858
336.913
336.84
336.45
336.253
335.831
335.348
334.92
334.292
333.797
332.948
332.327
328.374
328.882
329.204
329.688
330.024
330.394
330.871
331.159
331.261
331.316
331.255
330.913
330.705
330.351
329.966
329.599
329.076
328.64
327.949
327.414
323.32
323.673
323.912
324.372
324.629
324.906
325.304
325.568
325.616
325.683
325.647
325.336
325.149
324.888
324.558
324.22
323.874
323.476
322.941
322.47
318.176
318.452
318.638
319.026
319.226
319.358
319.72
319.932
319.961
319.977
319.98
319.732
319.611
319.419
319.075
318.817
318.616
318.227
317.883
317.465
312.994
313.191
313.37
313.614
313.799
313.801
314.091
314.263
314.275
314.335
314.274
314.087
314.028
313.902
313.606
313.486
313.31
313.021
312.82
312.461
307.828
307.935
308.05
308.208
308.295
308.267
308.473
308.588
308.578
308.641
308.568
308.445
308.394
308.336
308.155
308.12
307.997
307.828
307.731
307.482
302.632
302.682
302.713
302.735
302.782
302.774
302.837
302.909
302.879
302.893
302.901
302.83
302.8
302.787
302.73
302.727
302.683
302.611
302.583
302.514
339.535
340.337
341.015
341.707
342.227
342.69
343.173
343.423
343.808
343.756
344.005
343.603
343.102
342.694
342.244
341.55
340.855
340.181
339.096
338.477
334.462
335.086
335.666
336.284
336.707
337.078
337.553
337.774
338.043
338.031
338.238
337.882
337.462
337.06
336.702
336.116
335.425
334.895
333.945
333.379
329.318
329.805
330.269
330.811
331.18
331.437
331.86
332.091
332.25
332.23
332.427
332.136
331.774
331.419
331.07
330.618
329.993
329.587
328.774
328.282
324.079
324.432
324.808
325.296
325.556
325.764
326.145
326.337
326.404
326.409
326.608
326.329
326.043
325.742
325.485
325.115
324.587
324.269
323.615
323.16
318.786
319.042
319.336
319.732
319.949
320.064
320.4
320.574
320.564
320.582
320.706
320.512
320.258
320.044
319.858
319.575
319.144
318.882
318.386
318.042
313.439
313.64
313.879
314.113
314.301
314.392
314.599
314.723
314.7
314.712
314.814
314.668
314.467
314.312
314.214
314.005
313.665
313.51
313.17
312.951
308.082
308.203
308.369
308.49
308.589
308.688
308.787
308.854
308.84
308.843
308.913
308.793
308.69
308.612
308.561
308.431
308.208
308.127
307.932
307.776
302.715
302.748
302.82
302.867
302.873
302.929
302.954
302.953
302.971
302.99
303.003
302.933
302.936
302.895
302.884
302.83
302.739
302.741
302.657
302.591
340.702
341.602
342.45
343.137
343.473
344.287
344.624
345.148
345.271
345.243
345.34
344.855
344.719
344.137
343.711
343.153
342.216
341.528
340.497
339.727
335.391
336.166
336.895
337.516
337.754
338.511
338.842
339.252
339.33
339.336
339.43
338.977
338.839
338.296
338
337.464
336.631
336.033
335.107
334.461
330.023
330.697
331.296
331.866
332.004
332.666
332.969
333.318
333.353
333.401
333.481
333.059
332.976
332.385
332.217
331.751
331.002
330.509
329.743
329.245
324.636
325.179
325.606
326.098
326.256
326.811
327.032
327.279
327.354
327.387
327.47
327.113
327.02
326.499
326.417
326.034
325.396
325.037
324.37
323.936
319.202
319.647
319.925
320.356
320.506
320.865
321.071
321.23
321.311
321.332
321.403
321.166
321.069
320.601
320.592
320.261
319.781
319.492
319.019
318.666
313.74
314.095
314.264
314.57
314.678
314.902
315.054
315.169
315.239
315.248
315.315
315.154
315.098
314.752
314.717
314.477
314.151
313.884
313.635
313.353
308.258
308.473
308.605
308.737
308.819
308.964
309.044
309.133
309.161
309.156
309.211
309.094
309.084
308.855
308.835
308.716
308.503
308.318
308.227
308.023
302.764
302.849
302.895
302.939
302.938
303.002
303.047
303.068
303.084
303.077
303.067
303.042
303.044
302.983
302.95
302.938
302.85
302.788
302.779
302.693
341.955
342.731
343.555
344.56
345.13
345.472
346.207
346.627
346.535
346.685
346.614
346.401
346.156
345.614
344.976
344.404
343.665
342.862
342.022
341.009
336.523
337.162
337.834
338.778
339.233
339.509
340.207
340.532
340.392
340.551
340.513
340.271
340.042
339.584
339.067
338.514
337.862
337.201
336.437
335.597
331.015
331.555
332.13
332.945
333.276
333.487
334.091
334.362
334.242
334.399
334.378
334.168
333.956
333.525
333.109
332.639
332.075
331.516
330.875
330.16
325.444
325.875
326.375
327.042
327.311
327.479
327.95
328.152
328.023
328.184
328.197
328.036
327.797
327.462
327.164
326.759
326.258
325.808
325.28
324.711
319.832
320.142
320.562
321.094
321.291
321.407
321.785
321.937
321.811
321.967
321.941
321.869
321.646
321.389
321.214
320.863
320.437
320.049
319.664
319.269
314.189
314.414
314.697
315.111
315.211
315.312
315.592
315.685
315.568
315.714
315.695
315.658
315.486
315.294
315.222
314.926
314.62
314.339
314.076
313.809
308.492
308.639
308.858
309.084
309.159
309.192
309.363
309.415
309.317
309.458
309.45
309.437
309.328
309.164
309.135
308.964
308.783
308.597
308.486
308.345
302.82
302.883
302.995
303.047
303.056
303.075
303.139
303.151
303.101
303.174
303.169
303.181
303.13
303.072
303.042
303.011
302.958
302.869
302.865
302.804
343.14
343.906
344.92
345.907
346.451
346.861
347.416
347.881
347.792
347.957
347.942
347.706
347.465
347.081
346.299
345.659
344.865
344.184
343.125
342.125
337.539
338.201
339.089
339.928
340.352
340.714
341.229
341.588
341.511
341.65
341.637
341.403
341.205
340.839
340.149
339.622
338.92
338.345
337.395
336.586
331.842
332.429
333.154
333.925
334.212
334.491
334.979
335.262
335.161
335.281
335.294
335.017
334.885
334.557
334.005
333.546
333.005
332.447
331.692
331.04
326.107
326.585
327.126
327.851
328.031
328.249
328.666
328.916
328.801
328.913
328.943
328.633
328.598
328.311
327.872
327.465
327.088
326.552
325.929
325.444
320.346
320.703
321.152
321.721
321.827
322.019
322.355
322.498
322.459
322.547
322.564
322.31
322.23
322.067
321.72
321.392
321.116
320.671
320.149
319.863
314.539
314.785
315.158
315.553
315.579
315.763
315.977
316.094
316.047
316.156
316.182
315.983
315.862
315.795
315.539
315.3
315.111
314.804
314.382
314.185
308.728
308.888
309.107
309.367
309.341
309.463
309.558
309.668
309.615
309.718
309.724
309.619
309.533
309.504
309.32
309.185
309.093
308.937
308.642
308.524
302.919
303.004
303.062
303.137
303.147
303.171
303.2
303.23
303.217
303.262
303.251
303.217
303.19
303.191
303.133
303.088
303.048
303.024
302.894
302.857
344.335
345.183
346.118
347.13
347.644
348.118
348.699
349.147
349.324
349.437
349.285
349.008
348.703
348.226
347.71
346.817
346.041
345.217
344.139
343.487
338.514
339.291
340.079
340.979
341.399
341.808
342.343
342.696
342.844
342.938
342.816
342.574
342.313
341.842
341.384
340.577
339.947
339.292
338.286
337.752
332.68
333.322
333.999
334.831
335.105
335.414
335.879
336.193
336.326
336.417
336.293
336.118
335.885
335.468
335.053
334.376
333.849
333.273
332.405
331.992
326.766
327.324
327.917
328.579
328.77
329.023
329.416
329.665
329.751
329.889
329.721
329.607
329.42
329.097
328.689
328.165
327.739
327.251
326.557
326.202
320.85
321.268
321.761
322.324
322.393
322.604
322.902
323.051
323.203
323.311
323.133
323.056
322.936
322.674
322.306
321.932
321.61
321.188
320.67
320.4
314.93
315.155
315.576
316.052
316.022
316.17
316.375
316.478
316.626
316.67
316.525
316.526
316.379
316.172
315.924
315.674
315.454
315.155
314.763
314.614
308.962
309.066
309.39
309.684
309.633
309.736
309.868
309.883
310.025
310.004
309.918
309.954
309.809
309.697
309.56
309.442
309.288
309.127
308.883
308.823
302.989
303.036
303.148
303.256
303.242
303.267
303.305
303.303
303.365
303.339
303.348
303.325
303.265
303.243
303.214
303.159
303.116
303.058
302.963
302.964
345.271
346.228
347.362
348.244
348.682
349.39
350.11
350.284
350.662
350.822
350.62
350.304
349.866
349.381
348.933
348.272
347.254
346.386
345.209
344.501
339.359
340.228
341.193
341.977
342.319
342.905
343.53
343.69
344.066
344.169
343.956
343.689
343.284
342.851
342.494
341.871
340.963
340.226
339.19
338.626
333.376
334.175
334.968
335.62
335.902
336.368
336.884
337.029
337.341
337.436
337.281
337.079
336.685
336.328
336.031
335.436
334.68
334.051
333.223
332.704
327.368
328.025
328.722
329.248
329.411
329.801
330.173
330.334
330.61
330.686
330.548
330.406
330.065
329.791
329.517
328.995
328.375
327.854
327.229
326.825
321.36
321.86
322.423
322.819
322.938
323.158
323.455
323.604
323.853
323.922
323.794
323.739
323.435
323.219
322.992
322.558
322.072
321.657
321.196
320.88
315.289
315.634
316.102
316.338
316.407
316.511
316.746
316.883
317.091
317.127
317.02
316.982
316.756
316.657
316.447
316.161
315.767
315.495
315.134
314.925
309.167
309.41
309.687
309.808
309.837
309.903
310.07
310.196
310.304
310.267
310.24
310.195
310.065
310.024
309.869
309.756
309.477
309.318
309.098
308.955
303.078
303.148
303.258
303.277
303.309
303.311
303.364
303.437
303.45
303.419
303.435
303.413
303.386
303.363
303.301
303.279
303.167
303.113
303.042
302.987
346.389
347.458
348.523
349.287
349.924
350.246
350.95
351.589
352.021
351.712
351.794
351.647
350.84
350.5
349.817
349.171
348.266
347.235
346.434
345.451
340.359
341.218
342.225
342.829
343.365
343.647
344.25
344.811
345.229
344.932
345.003
344.823
344.11
343.828
343.203
342.6
341.866
340.954
340.27
339.428
334.284
334.935
335.857
336.354
336.768
336.988
337.506
337.986
338.343
338.082
338.14
338.019
337.398
337.14
336.582
336.013
335.462
334.689
334.097
333.374
328.139
328.646
329.443
329.782
330.136
330.286
330.709
331.152
331.462
331.167
331.226
331.178
330.703
330.381
330.011
329.496
329.026
328.379
327.925
327.377
321.903
322.316
322.985
323.191
323.475
323.579
323.889
324.251
324.54
324.232
324.312
324.286
323.982
323.623
323.373
322.992
322.592
322.073
321.74
321.337
315.668
315.955
316.416
316.61
316.799
316.848
317.086
317.338
317.582
317.329
317.38
317.366
317.184
316.877
316.725
316.46
316.144
315.798
315.529
315.267
309.413
309.554
309.899
309.998
310.065
310.138
310.249
310.399
310.564
310.421
310.45
310.455
310.365
310.148
310.043
309.878
309.657
309.515
309.33
309.182
303.14
303.199
303.336
303.354
303.364
303.399
303.432
303.488
303.529
303.495
303.516
303.516
303.476
303.397
303.367
303.3
303.226
303.187
303.135
303.079
347.363
348.445
349.469
350.078
350.963
351.48
352.06
352.541
352.81
352.935
352.96
352.659
352.014
351.704
351.015
350.157
349.412
348.34
347.369
346.363
341.264
342.131
343.026
343.515
344.272
344.712
345.213
345.634
345.874
345.954
345.999
345.733
345.154
344.876
344.271
343.475
342.888
341.927
341.053
340.211
335.072
335.75
336.538
336.901
337.553
337.931
338.328
338.741
338.934
338.959
339.004
338.761
338.287
338.018
337.48
336.793
336.3
335.503
334.73
334.085
328.779
329.343
329.977
330.24
330.773
331.101
331.413
331.802
331.969
331.93
331.959
331.727
331.371
331.131
330.644
330.136
329.668
329.058
328.383
327.984
322.424
322.879
323.363
323.549
323.965
324.231
324.492
324.731
324.917
324.893
324.884
324.729
324.449
324.221
323.84
323.467
323.051
322.593
322.084
321.855
316.025
316.385
316.716
316.877
317.136
317.357
317.525
317.708
317.819
317.781
317.793
317.709
317.499
317.294
317.052
316.804
316.416
316.137
315.787
315.646
309.613
309.868
310.05
310.139
310.276
310.44
310.536
310.641
310.722
310.688
310.673
310.643
310.52
310.365
310.243
310.087
309.867
309.654
309.46
309.416
303.228
303.308
303.363
303.416
303.44
303.508
303.533
303.567
303.614
303.604
303.563
303.563
303.517
303.474
303.43
303.381
303.319
303.229
303.177
303.16
348.41
349.234
350.333
351.01
351.981
352.503
353.102
353.464
353.745
353.687
353.752
353.624
353.33
352.631
352.007
351.16
350.306
349.278
348.137
347.215
342.095
342.784
343.771
344.396
345.17
345.603
346.095
346.386
346.719
346.591
346.658
346.558
346.275
345.687
345.119
344.344
343.636
342.734
341.744
340.988
335.763
336.288
337.183
337.701
338.285
338.625
339.065
339.31
339.618
339.497
339.567
339.459
339.215
338.741
338.22
337.538
336.942
336.203
335.388
334.759
329.355
329.736
330.498
330.92
331.388
331.658
331.967
332.21
332.461
332.426
332.44
332.285
332.103
331.713
331.278
330.737
330.221
329.605
329.043
328.469
322.838
323.172
323.787
324.098
324.446
324.637
324.88
325.07
325.294
325.255
325.328
325.141
325.021
324.678
324.367
323.93
323.519
323.028
322.624
322.194
316.304
316.56
317.036
317.263
317.495
317.609
317.78
317.892
318.081
318.069
318.173
318.006
317.934
317.644
317.433
317.105
316.794
316.48
316.173
315.891
309.765
309.933
310.259
310.389
310.523
310.546
310.67
310.713
310.814
310.862
310.957
310.796
310.778
310.587
310.46
310.277
310.079
309.908
309.765
309.562
303.246
303.332
303.442
303.478
303.531
303.531
303.548
303.586
303.623
303.646
303.662
303.614
303.609
303.555
303.506
303.445
303.368
303.323
303.292
303.19
349.029
350.094
351.212
351.925
352.791
353.304
353.916
354.32
354.628
354.564
354.64
354.388
354.024
353.588
353.036
352.11
351.15
350.062
349.107
347.987
342.667
343.547
344.534
345.124
345.862
346.32
346.812
347.153
347.509
347.374
347.383
347.177
346.837
346.498
345.984
345.21
344.398
343.385
342.607
341.601
336.226
336.954
337.786
338.289
338.882
339.303
339.674
339.965
340.289
340.158
340.108
339.931
339.673
339.408
338.93
338.273
337.588
336.731
336.057
335.234
329.744
330.322
331.004
331.395
331.85
332.215
332.473
332.771
333.062
332.939
332.843
332.635
332.463
332.306
331.858
331.317
330.772
330.071
329.562
328.851
323.184
323.642
324.146
324.484
324.741
325.105
325.255
325.513
325.8
325.665
325.612
325.379
325.263
325.159
324.811
324.388
323.944
323.4
323.058
322.491
316.571
316.883
317.277
317.54
317.647
317.951
318.082
318.213
318.469
318.373
318.316
318.122
318.091
317.973
317.746
317.463
317.093
316.666
316.483
316.119
309.946
310.167
310.388
310.577
310.577
310.756
310.844
310.984
311.121
311.07
311
310.871
310.888
310.791
310.705
310.519
310.269
309.983
309.893
309.707
303.341
303.414
303.49
303.539
303.55
303.619
303.637
303.688
303.724
303.726
303.68
303.638
303.668
303.613
303.593
303.53
303.457
303.354
303.313
303.264
349.686
350.61
352.031
352.709
353.679
354.132
354.539
355.097
355.329
355.57
355.47
355.249
354.805
354.273
353.858
352.927
352.073
350.849
349.679
348.836
343.239
344.026
345.221
345.807
346.667
347.003
347.328
347.843
348.058
348.258
348.112
347.945
347.582
347.12
346.748
345.906
345.159
344.106
343.072
342.374
336.709
337.381
338.371
338.858
339.567
339.871
340.085
340.576
340.773
340.893
340.772
340.621
340.312
339.911
339.654
338.886
338.269
337.353
336.462
335.857
330.057
330.67
331.496
331.869
332.423
332.688
332.844
333.291
333.406
333.513
333.43
333.247
333.016
332.715
332.504
331.849
331.345
330.609
329.858
329.324
323.383
323.898
324.601
324.878
325.255
325.457
325.533
325.935
326.018
326.093
326.033
325.827
325.732
325.482
325.32
324.815
324.39
323.854
323.205
322.81
316.719
317.113
317.633
317.818
318.061
318.214
318.244
318.573
318.604
318.686
318.606
318.439
318.425
318.222
318.121
317.72
317.437
317.048
316.567
316.308
310.035
310.258
310.603
310.726
310.831
310.96
310.967
311.16
311.165
311.215
311.24
311.054
311.081
310.959
310.889
310.665
310.472
310.239
309.979
309.801
303.363
303.437
303.58
303.612
303.642
303.694
303.694
303.755
303.736
303.777
303.768
303.702
303.725
303.67
303.629
303.589
303.51
303.439
303.326
303.293
350.407
351.361
352.542
353.545
354.178
354.729
355.228
356.025
356.194
356.479
356.209
356.048
355.649
355.081
354.56
353.827
352.659
351.386
350.269
349.413
343.856
344.628
345.639
346.535
347.084
347.534
347.921
348.635
348.781
349.076
348.789
348.667
348.348
347.815
347.37
346.731
345.692
344.543
343.58
342.892
337.229
337.869
338.651
339.465
339.914
340.3
340.574
341.205
341.318
341.613
341.365
341.218
340.952
340.468
340.125
339.561
338.704
337.718
336.865
336.335
330.563
331.096
331.688
332.32
332.698
333.036
333.221
333.741
333.844
334.125
333.95
333.766
333.551
333.091
332.853
332.389
331.7
330.915
330.129
329.747
323.83
324.244
324.69
325.193
325.467
325.769
325.887
326.257
326.329
326.582
326.424
326.281
326.098
325.771
325.597
325.195
324.668
324.091
323.43
323.149
317.057
317.342
317.684
318.073
318.186
318.447
318.547
318.821
318.844
318.996
318.873
318.777
318.678
318.443
318.292
318
317.647
317.233
316.71
316.525
310.28
310.407
310.623
310.856
310.91
311.093
311.171
311.301
311.323
311.411
311.324
311.247
311.234
311.062
311.006
310.83
310.619
310.372
310.041
309.919
303.453
303.492
303.562
303.627
303.667
303.726
303.746
303.794
303.807
303.819
303.801
303.761
303.785
303.695
303.689
303.64
303.566
303.484
303.369
303.319
350.85
351.601
352.926
353.926
354.889
355.471
355.921
356.511
356.75
356.95
356.776
356.739
356.403
355.499
355.178
354.316
353.224
351.83
350.796
349.655
344.253
344.838
346.035
346.867
347.679
348.162
348.508
349.062
349.271
349.454
349.305
349.258
348.998
348.134
347.894
347.139
346.131
344.942
344.022
343.036
337.554
338.064
339.036
339.735
340.423
340.814
341.083
341.549
341.76
341.879
341.785
341.753
341.528
340.716
340.568
339.925
339.087
338.018
337.254
336.41
330.764
331.213
331.968
332.56
333.106
333.435
333.647
334.029
334.223
334.322
334.282
334.252
333.998
333.279
333.226
332.658
332.017
331.09
330.476
329.77
323.969
324.311
324.912
325.361
325.816
326.027
326.207
326.538
326.676
326.782
326.735
326.689
326.47
325.859
325.874
325.392
324.921
324.2
323.679
323.193
317.14
317.383
317.793
318.143
318.446
318.607
318.767
319
319.132
319.183
319.119
319.094
318.894
318.524
318.527
318.17
317.815
317.354
316.892
316.602
310.318
310.45
310.721
310.918
311.108
311.193
311.285
311.412
311.518
311.544
311.542
311.501
311.359
311.15
311.12
310.938
310.697
310.447
310.119
309.992
303.459
303.505
303.58
303.68
303.731
303.759
303.795
303.831
303.856
303.876
303.88
303.85
303.817
303.736
303.716
303.66
303.579
303.493
303.381
303.361
351.28
352.037
353.363
354.549
355.108
356.005
356.459
356.698
357.204
357.358
357.322
357.234
356.662
355.956
355.579
354.634
353.462
352.208
351.109
349.981
344.636
345.278
346.396
347.449
347.89
348.643
349.038
349.241
349.656
349.889
349.763
349.699
349.172
348.536
348.174
347.372
346.336
345.285
344.355
343.385
337.86
338.461
339.355
340.255
340.608
341.22
341.55
341.745
342.032
342.327
342.172
342.154
341.692
341.074
340.761
340.089
339.271
338.346
337.588
336.739
331.044
331.579
332.323
333.031
333.275
333.768
334.034
334.208
334.429
334.722
334.554
334.594
334.19
333.635
333.338
332.781
332.197
331.401
330.746
330.126
324.169
324.592
325.221
325.768
325.921
326.292
326.485
326.644
326.822
327.086
326.9
326.977
326.615
326.219
325.971
325.522
325.1
324.42
323.932
323.533
317.286
317.625
318.072
318.457
318.572
318.808
318.938
319.049
319.187
319.391
319.228
319.303
319.031
318.799
318.553
318.216
317.978
317.42
317.091
316.83
310.416
310.594
310.876
311.077
311.165
311.314
311.371
311.43
311.524
311.671
311.546
311.606
311.416
311.343
311.156
310.923
310.812
310.469
310.294
310.141
303.506
303.555
303.634
303.7
303.749
303.801
303.815
303.829
303.864
303.906
303.869
303.915
303.812
303.796
303.729
303.661
303.629
303.509
303.455
303.392
351.702
352.32
353.512
354.854
355.61
356.356
356.942
357.286
357.493
357.414
357.504
357.31
356.812
356.201
355.616
354.793
353.635
352.743
351.792
350.672
345.013
345.475
346.487
347.704
348.342
348.918
349.454
349.722
349.923
349.813
349.944
349.774
349.282
348.784
348.233
347.511
346.518
345.719
344.934
343.998
338.278
338.617
339.405
340.491
341.004
341.481
341.935
342.143
342.321
342.241
342.359
342.17
341.736
341.34
340.869
340.231
339.379
338.717
338.033
337.254
331.459
331.731
332.339
333.233
333.602
333.996
334.345
334.527
334.685
334.612
334.725
334.58
334.149
333.887
333.502
332.946
332.234
331.741
331.119
330.525
324.554
324.739
325.228
325.878
326.147
326.508
326.777
326.892
326.986
326.924
327.064
326.95
326.555
326.402
326.108
325.667
325.08
324.726
324.217
323.738
317.576
317.733
318.08
318.518
318.687
318.934
319.177
319.224
319.297
319.263
319.352
319.269
318.987
318.883
318.687
318.315
317.925
317.67
317.364
316.991
310.559
310.663
310.87
311.135
311.212
311.355
311.548
311.569
311.581
311.566
311.617
311.606
311.384
311.378
311.23
310.998
310.75
310.606
310.455
310.22
303.53
303.557
303.652
303.742
303.752
303.796
303.881
303.895
303.879
303.878
303.888
303.885
303.8
303.806
303.754
303.676
303.603
303.556
303.496
303.415
)
;

boundaryField
{
    hotSide
    {
        type            fixedGradient;
        gradient        nonuniform List<scalar> 
400
(
329.637
344.549
359.323
373.896
388.199
402.165
415.729
428.823
441.382
453.343
464.645
475.229
485.039
494.025
502.139
509.338
515.585
520.847
525.098
528.316
337.771
353.126
368.344
383.358
398.097
412.495
426.481
439.987
452.945
465.292
476.962
487.896
498.036
507.33
515.729
523.188
529.668
535.135
539.563
542.928
345.07
360.83
376.453
391.869
407.008
421.8
436.172
450.055
463.38
476.079
488.088
499.344
509.788
519.366
528.027
535.726
542.422
548.081
552.673
556.176
351.506
367.629
383.615
399.393
414.891
430.036
444.756
458.978
472.633
485.651
497.965
509.511
520.23
530.065
538.965
546.881
553.774
559.607
564.35
567.98
357.056
373.497
389.802
405.897
421.71
437.167
452.193
466.715
480.66
493.959
506.543
518.346
529.308
539.371
548.482
556.593
563.66
569.649
574.528
578.272
361.703
378.415
394.992
411.359
427.441
443.164
458.452
473.23
487.425
500.965
513.781
525.806
536.977
547.237
556.53
564.808
572.028
578.152
583.149
586.994
365.434
382.369
399.169
415.759
432.063
448.005
463.509
478.499
492.9
506.639
519.647
531.855
543.2
553.623
563.069
571.487
578.834
585.071
590.168
594.098
368.241
385.349
402.322
419.085
435.561
451.674
467.346
482.501
497.063
510.958
524.116
536.468
547.95
558.501
568.066
576.595
584.043
590.371
595.547
599.545
370.119
387.348
404.443
421.328
437.926
454.159
469.95
485.222
499.898
513.904
527.169
539.624
551.204
561.847
571.499
580.108
587.63
594.024
599.259
603.308
371.066
388.363
405.527
422.482
439.15
455.453
471.313
486.652
501.395
515.467
528.795
541.31
552.949
563.648
573.352
582.01
589.576
596.012
601.284
605.366
371.08
388.393
405.574
422.546
439.231
455.552
471.43
486.788
501.549
515.639
528.986
541.52
553.177
563.894
573.616
582.29
589.873
596.324
601.611
605.707
370.164
387.44
404.584
421.519
438.169
454.456
470.302
485.628
500.36
514.422
527.742
540.252
551.886
562.584
572.288
580.948
588.518
594.959
600.238
604.329
368.32
385.506
402.56
419.407
435.969
452.17
467.932
483.178
497.831
511.819
525.068
537.511
549.083
559.722
569.374
577.986
585.515
591.92
597.169
601.237
365.553
382.596
399.508
416.214
432.637
448.702
464.33
479.445
493.973
507.839
520.973
533.307
544.777
555.321
564.886
573.419
580.878
587.222
592.419
596.445
361.87
378.719
395.437
411.951
428.184
444.061
459.506
474.443
488.798
502.499
515.474
527.658
538.987
549.4
558.843
567.267
574.627
580.886
586.01
589.975
357.282
373.886
390.36
406.631
422.625
438.266
453.48
468.192
482.329
495.819
508.594
520.588
531.737
541.984
551.274
559.558
566.794
572.942
577.973
581.861
351.8
368.112
384.293
400.274
415.98
431.337
446.274
460.715
474.59
487.829
500.363
512.128
523.063
533.109
542.214
550.331
557.415
563.432
568.35
572.144
345.444
361.416
377.258
392.902
408.274
423.303
437.918
452.046
465.618
478.564
490.819
502.319
513.004
522.818
531.71
539.631
546.542
552.405
557.192
560.878
338.235
353.823
369.282
384.545
399.54
414.199
428.45
442.225
455.453
468.07
480.01
491.21
501.614
511.166
519.816
527.518
534.232
539.923
544.563
548.127
330.203
345.365
360.4
375.24
389.819
404.066
417.915
431.298
444.148
456.399
467.99
478.861
488.953
498.216
506.599
514.059
520.556
526.058
530.535
533.965
)
;
    }
    coldSide
    {
        type            mixed;
        refValue        uniform 300;
        refGradient     uniform 0;
        valueFraction   uniform 0.991591;
        source          uniform 0;
        value           nonuniform List<scalar> 
400
(
300.02
300.02
300.02
300.021
300.022
300.023
300.023
300.024
300.025
300.025
300.026
300.026
300.027
300.027
300.028
300.028
300.029
300.029
300.029
300.03
300.02
300.02
300.021
300.022
300.023
300.023
300.024
300.024
300.025
300.026
300.026
300.027
300.028
300.028
300.029
300.029
300.029
300.029
300.03
300.03
300.02