/*--------------------------------*- C++ -*----------------------------------*\
| =========                 |                                                 |
| \\      /  F ield         | OpenFOAM: The Open Source CFD Toolbox           |
|  \\    /   O peration     | Version:  2212                                  |
|   \\  /    A nd           | Website:  www.openfoam.com                      |
|    \\/     M anipulation  |                                                 |
\*---------------------------------------------------------------------------*/
FoamFile
{
    version     2.0;
    format      ascii;
    arch        "LSB;label=32;scalar=64";
    class       volScalarField;
    location    "0";
    object      Ttrue;
}
// * * * * * * * * * * * * * * * * * * * * * * * * * * * * * * * * * * * * * //

dimensions      [0 0 0 1 0 0 0];

internalField   nonuniform List<scalar> 
3200
(
326.725
327.04
327.442
327.88
328.331
328.774
329.182
329.527
329.778
329.911
329.911
329.778
329.527
329.182
328.774
328.331
327.88
327.442
327.04
326.725
323.076
323.343
323.689
324.068
324.458
324.841
325.195
325.493
325.71
325.824
325.824
325.71
325.493
325.195
324.841
324.458
324.068
323.689
323.343
323.076
319.465
319.686
319.978
320.298
320.628
320.951
321.25
321.501
321.684
321.781
321.781
321.684
321.501
321.25
320.951
320.628
320.298
319.978
319.686
319.465
315.885
316.063
316.301
316.563
316.833
317.097
317.341
317.546
317.695
317.774
317.774
317.695
317.546
317.341
317.097
316.833
316.563
316.301
316.063
315.885
312.332
312.468
312.653
312.856
313.066
313.271
313.461
313.62
313.736
313.797
313.797
313.736
313.62
313.461
313.271
313.066
312.856
312.653
312.468
312.332
308.798
308.895
309.027
309.172
309.321
309.468
309.603
309.717
309.8
309.844
309.844
309.8
309.717
309.603
309.468
309.321
309.172
309.027
308.895
308.798
305.279
305.337
305.416
305.503
305.593
305.681
305.762
305.83
305.88
305.906
305.906
305.88
305.83
305.762
305.681
305.593
305.503
305.416
305.337
305.279
301.769
301.788
301.814
301.844
301.874
301.903
301.93
301.953
301.97
301.979
301.979
301.97
301.953
301.93
301.903
301.874
301.844
301.814
301.788
301.769
326.82
327.132
327.53
327.964
328.411
328.848
329.252
329.593
329.841
329.972
329.972
329.841
329.593
329.252
328.848
328.411
327.964
327.53
327.132
326.82
323.157
323.422
323.765
324.141
324.527
324.906
325.255
325.549
325.764
325.877
325.877
325.764
325.549
325.255
324.906
324.527
324.141
323.765
323.422
323.157
319.533
319.752
320.042
320.359
320.686
321.006
321.301
321.549
321.73
321.825
321.825
321.73
321.549
321.301
321.006
320.686
320.359
320.042
319.752
319.533
315.941
316.117
316.354
316.613
316.88
317.141
317.382
317.585
317.732
317.81
317.81
317.732
317.585
317.382
317.141
316.88
316.613
316.354
316.117
315.941
312.375
312.51
312.693
312.895
313.102
313.306
313.493
313.65
313.765
313.825
313.825
313.765
313.65
313.493
313.306
313.102
312.895
312.693
312.51
312.375
308.829
308.925
309.055
309.199
309.347
309.493
309.626
309.739
309.82
309.863
309.863
309.82
309.739
309.626
309.493
309.347
309.199
309.055
308.925
308.829
305.298
305.355
305.433
305.519
305.608
305.696
305.776
305.843
305.892
305.918
305.918
305.892
305.843
305.776
305.696
305.608
305.519
305.433
305.355
305.298
301.775
301.794
301.82
301.849
301.879
301.908
301.935
301.958
301.974
301.983
301.983
301.974
301.958
301.935
301.908
301.879
301.849
301.82
301.794
301.775
327.009
327.316
327.708
328.134
328.571
329
329.394
329.726
329.968
330.096
330.096
329.968
329.726
329.394
329
328.571
328.134
327.708
327.316
327.009
323.32
323.58
323.918
324.287
324.665
325.036
325.377
325.664
325.873
325.983
325.983
325.873
325.664
325.377
325.036
324.665
324.287
323.918
323.58
323.32
319.67
319.886
320.171
320.482
320.802
321.115
321.403
321.646
321.822
321.915
321.915
321.822
321.646
321.403
321.115
320.802
320.482
320.171
319.886
319.67
316.053
316.226
316.458
316.713
316.974
317.23
317.466
317.664
317.807
317.883
317.883
317.807
317.664
317.466
317.23
316.974
316.713
316.458
316.226
316.053
312.461
312.595
312.775
312.972
313.176
313.375
313.557
313.711
313.823
313.882
313.882
313.823
313.711
313.557
313.375
313.176
312.972
312.775
312.595
312.461
308.891
308.985
309.113
309.254
309.4
309.542
309.672
309.782
309.862
309.904
309.904
309.862
309.782
309.672
309.542
309.4
309.254
309.113
308.985
308.891
305.335
305.391
305.468
305.553
305.64
305.725
305.803
305.869
305.917
305.942
305.942
305.917
305.869
305.803
305.725
305.64
305.553
305.468
305.391
305.335
301.787
301.806
301.832
301.86
301.889
301.918
301.944
301.966
301.982
301.991
301.991
301.982
301.966
301.944
301.918
301.889
301.86
301.832
301.806
301.787
327.294
327.594
327.976
328.39
328.814
329.229
329.61
329.93
330.163
330.286
330.286
330.163
329.93
329.61
329.229
328.814
328.39
327.976
327.594
327.294
323.565
323.819
324.149
324.507
324.875
325.233
325.563
325.84
326.041
326.147
326.147
326.041
325.84
325.563
325.233
324.875
324.507
324.149
323.819
323.565
319.876
320.087
320.364
320.667
320.978
321.281
321.56
321.793
321.963
322.052
322.052
321.963
321.793
321.56
321.281
320.978
320.667
320.364
320.087
319.876
316.22
316.39
316.616
316.864
317.118
317.365
317.593
317.784
317.922
317.995
317.995
317.922
317.784
317.593
317.365
317.118
316.864
316.616
316.39
316.22
312.591
312.722
312.897
313.089
313.287
313.479
313.656
313.804
313.912
313.969
313.969
313.912
313.804
313.656
313.479
313.287
313.089
312.897
312.722
312.591
308.983
309.075
309.201
309.338
309.479
309.616
309.743
309.848
309.925
309.966
309.966
309.925
309.848
309.743
309.616
309.479
309.338
309.201
309.075
308.983
305.39
305.445
305.52
305.603
305.687
305.77
305.846
305.909
305.955
305.979
305.979
305.955
305.909
305.846
305.77
305.687
305.603
305.52
305.445
305.39
301.806
301.824
301.849
301.877
301.905
301.933
301.958
301.98
301.995
302.003
302.003
301.995
301.98
301.958
301.933
301.905
301.877
301.849
301.824
301.806
327.675
327.966
328.335
328.734
329.142
329.54
329.904
330.21
330.431
330.547
330.547
330.431
330.21
329.904
329.54
329.142
328.734
328.335
327.966
327.675
323.893
324.14
324.458
324.804
325.157
325.501
325.816
326.08
326.271
326.372
326.372
326.271
326.08
325.816
325.501
325.157
324.804
324.458
324.14
323.893
320.152
320.356
320.625
320.917
321.216
321.506
321.772
321.995
322.157
322.242
322.242
322.157
321.995
321.772
321.506
321.216
320.917
320.625
320.356
320.152
316.445
316.609
316.828
317.067
317.311
317.549
317.766
317.948
318.08
318.15
318.15
318.08
317.948
317.766
317.549
317.311
317.067
316.828
316.609
316.445
312.765
312.892
313.061
313.247
313.437
313.621
313.79
313.932
314.034
314.088
314.088
314.034
313.932
313.79
313.621
313.437
313.247
313.061
312.892
312.765
309.107
309.197
309.318
309.45
309.586
309.718
309.838
309.939
310.012
310.051
310.051
310.012
309.939
309.838
309.718
309.586
309.45
309.318
309.197
309.107
305.464
305.518
305.59
305.67
305.751
305.83
305.903
305.963
306.007
306.03
306.03
306.007
305.963
305.903
305.83
305.751
305.67
305.59
305.518
305.464
301.831
301.849
301.873
301.899
301.927
301.953
301.978
301.998
302.013
302.02
302.02
302.013
301.998
301.978
301.953
301.927
301.899
301.873
301.849
301.831
328.153
328.433
328.788
329.17
329.559
329.936
330.281
330.569
330.777
330.887
330.887
330.777
330.569
330.281
329.936
329.559
329.17
328.788
328.433
328.153
324.305
324.542
324.848
325.179
325.515
325.842
326.14
326.389
326.569
326.664
326.664
326.569
326.389
326.14
325.842
325.515
325.179
324.848
324.542
324.305
320.499
320.695
320.953
321.232
321.517
321.793
322.045
322.255
322.407
322.487
322.487
322.407
322.255
322.045
321.793
321.517
321.232
320.953
320.695
320.499
316.727
316.885
317.095
317.324
317.556
317.782
317.988
318.16
318.284
318.349
318.349
318.284
318.16
317.988
317.782
317.556
317.324
317.095
316.885
316.727
312.984
313.106
313.268
313.446
313.627
313.802
313.962
314.096
314.192
314.243
314.243
314.192
314.096
313.962
313.802
313.627
313.446
313.268
313.106
312.984
309.263
309.349
309.465
309.592
309.721
309.846
309.961
310.056
310.125
310.161
310.161
310.125
310.056
309.961
309.846
309.721
309.592
309.465
309.349
309.263
305.558
305.609
305.679
305.755
305.832
305.908
305.976
306.034
306.075
306.097
306.097
306.075
306.034
305.976
305.908
305.832
305.755
305.679
305.609
305.558
301.862
301.879
301.902
301.928
301.954
301.979
302.002
302.021
302.035
302.042
302.042
302.035
302.021
302.002
301.979
301.954
301.928
301.902
301.879
301.862
328.731
328.999
329.336
329.699
330.066
330.422
330.745
331.014
331.208
331.31
331.31
331.208
331.014
330.745
330.422
330.066
329.699
329.336
328.999
328.731
324.802
325.029
325.32
325.634
325.952
326.26
326.539
326.772
326.94
327.028
327.028
326.94
326.772
326.539
326.26
325.952
325.634
325.32
325.029
324.802
320.917
321.105
321.35
321.615
321.885
322.145
322.381
322.578
322.719
322.794
322.794
322.719
322.578
322.381
322.145
321.885
321.615
321.35
321.105
320.917
317.068
317.219
317.419
317.636
317.856
318.068
318.262
318.422
318.538
318.599
318.599
318.538
318.422
318.262
318.068
317.856
317.636
317.419
317.219
317.068
313.248
313.364
313.519
313.688
313.859
314.024
314.174
314.299
314.389
314.436
314.436
314.389
314.299
314.174
314.024
313.859
313.688
313.519
313.364
313.248
309.451
309.533
309.644
309.764
309.886
310.005
310.112
310.201
310.265
310.299
310.299
310.265
310.201
310.112
310.005
309.886
309.764
309.644
309.533
309.451
305.67
305.72
305.786
305.858
305.932
306.002
306.067
306.12
306.159
306.179
306.179
306.159
306.12
306.067
306.002
305.932
305.858
305.786
305.72
305.67
301.9
301.916
301.938
301.963
301.987
302.011
302.032
302.05
302.063
302.07
302.07
302.063
302.05
302.032
302.011
301.987
301.963
301.938
301.916
301.9
329.409
329.663
329.983
330.324
330.669
331.001
331.301
331.551
331.73
331.824
331.824
331.73
331.551
331.301
331.001
330.669
330.324
329.983
329.663
329.409
325.386
325.601
325.877
326.173
326.471
326.758
327.018
327.234
327.389
327.471
327.471
327.389
327.234
327.018
326.758
326.471
326.173
325.877
325.601
325.386
321.408
321.586
321.819
322.069
322.321
322.564
322.784
322.966
323.097
323.166
323.166
323.097
322.966
322.784
322.564
322.321
322.069
321.819
321.586
321.408
317.467
317.611
317.8
318.005
318.211
318.41
318.59
318.739
318.846
318.902
318.902
318.846
318.739
318.59
318.41
318.211
318.005
317.8
317.611
317.467
313.558
313.668
313.815
313.974
314.134
314.289
314.428
314.544
314.628
314.671
314.671
314.628
314.544
314.428
314.289
314.134
313.974
313.815
313.668
313.558
309.672
309.75
309.855
309.968
310.083
310.193
310.293
310.376
310.435
310.466
310.466
310.435
310.376
310.293
310.193
310.083
309.968
309.855
309.75
309.672
305.803
305.849
305.912
305.98
306.049
306.115
306.175
306.225
306.261
306.279
306.279
306.261
306.225
306.175
306.115
306.049
305.98
305.912
305.849
305.803
301.944
301.96
301.981
302.003
302.027
302.049
302.069
302.085
302.097
302.104
302.104
302.097
302.085
302.069
302.049
302.027
302.003
301.981
301.96
301.944
330.188
330.428
330.729
331.049
331.37
331.678
331.955
332.184
332.349
332.435
332.435
332.349
332.184
331.955
331.678
331.37
331.049
330.729
330.428
330.188
326.057
326.26
326.52
326.797
327.075
327.341
327.581
327.78
327.922
327.996
327.996
327.922
327.78
327.581
327.341
327.075
326.797
326.52
326.26
326.057
321.972
322.141
322.36
322.594
322.829
323.054
323.257
323.425
323.545
323.608
323.608
323.545
323.425
323.257
323.054
322.829
322.594
322.36
322.141
321.972
317.927
318.063
318.241
318.432
318.625
318.809
318.975
319.112
319.211
319.262
319.262
319.211
319.112
318.975
318.809
318.625
318.432
318.241
318.063
317.927
313.914
314.018
314.156
314.305
314.455
314.598
314.727
314.834
314.91
314.95
314.95
314.91
314.834
314.727
314.598
314.455
314.305
314.156
314.018
313.914
309.926
309.999
310.098
310.204
310.311
310.414
310.506
310.582
310.636
310.665
310.665
310.636
310.582
310.506
310.414
310.311
310.204
310.098
309.999
309.926
305.955
305.999
306.058
306.122
306.186
306.248
306.303
306.349
306.381
306.399
306.399
306.381
306.349
306.303
306.248
306.186
306.122
306.058
305.999
305.955
301.995
302.01
302.029
302.051
302.072
302.093
302.112
302.127
302.138
302.144
302.144
302.138
302.127
302.112
302.093
302.072
302.051
302.029
302.01
301.995
331.071
331.297
331.578
331.876
332.173
332.457
332.711
332.92
333.07
333.148
333.148
333.07
332.92
332.711
332.457
332.173
331.876
331.578
331.297
331.071
326.817
327.008
327.251
327.509
327.766
328.012
328.232
328.413
328.543
328.61
328.61
328.543
328.413
328.232
328.012
327.766
327.509
327.251
327.008
326.817
322.612
322.77
322.975
323.193
323.411
323.618
323.805
323.958
324.067
324.125
324.125
324.067
323.958
323.805
323.618
323.411
323.193
322.975
322.77
322.612
318.448
318.575
318.742
318.92
319.099
319.269
319.421
319.546
319.636
319.683
319.683
319.636
319.546
319.421
319.269
319.099
318.92
318.742
318.575
318.448
314.317
314.415
314.545
314.683
314.822
314.954
315.073
315.17
315.24
315.276
315.276
315.24
315.17
315.073
314.954
314.822
314.683
314.545
314.415
314.317
310.213
310.282
310.375
310.474
310.573
310.667
310.752
310.821
310.871
310.897
310.897
310.871
310.821
310.752
310.667
310.573
310.474
310.375
310.282
310.213
306.127
306.169
306.224
306.284
306.343
306.4
306.451
306.492
306.522
306.538
306.538
306.522
306.492
306.451
306.4
306.343
306.284
306.224
306.169
306.127
302.053
302.067
302.085
302.105
302.125
302.144
302.161
302.175
302.185
302.19
302.19
302.185
302.175
302.161
302.144
302.125
302.105
302.085
302.067
302.053
332.058
332.27
332.531
332.807
333.081
333.341
333.573
333.763
333.899
333.969
333.969
333.899
333.763
333.573
333.341
333.081
332.807
332.531
332.27
332.058
327.667
327.846
328.072
328.311
328.548
328.773
328.974
329.139
329.256
329.317
329.317
329.256
329.139
328.974
328.773
328.548
328.311
328.072
327.846
327.667
323.327
323.475
323.666
323.868
324.069
324.259
324.429
324.568
324.667
324.719
324.719
324.667
324.568
324.429
324.259
324.069
323.868
323.666
323.475
323.327
319.03
319.15
319.305
319.47
319.635
319.79
319.929
320.043
320.124
320.167
320.167
320.124
320.043
319.929
319.79
319.635
319.47
319.305
319.15
319.03
314.769
314.861
314.981
315.109
315.237
315.358
315.467
315.555
315.618
315.651
315.651
315.618
315.555
315.467
315.358
315.237
315.109
314.981
314.861
314.769
310.535
310.6
310.686
310.777
310.869
310.955
311.032
311.096
311.141
311.164
311.164
311.141
311.096
311.032
310.955
310.869
310.777
310.686
310.6
310.535
306.32
306.359
306.41
306.466
306.52
306.572
306.619
306.657
306.684
306.698
306.698
306.684
306.657
306.619
306.572
306.52
306.466
306.41
306.359
306.32
302.117
302.13
302.148
302.166
302.184
302.202
302.217
302.23
302.239
302.244
302.244
302.239
302.23
302.217
302.202
302.184
302.166
302.148
302.13
302.117
333.152
333.348
333.591
333.845
334.097
334.334
334.544
334.716
334.838
334.902
334.902
334.838
334.716
334.544
334.334
334.097
333.845
333.591
333.348
333.152
328.608
328.775
328.984
329.205
329.422
329.628
329.81
329.959
330.065
330.12
330.12
330.065
329.959
329.81
329.628
329.422
329.205
328.984
328.775
328.608
324.119
324.257
324.434
324.62
324.804
324.978
325.132
325.258
325.348
325.394
325.394
325.348
325.258
325.132
324.978
324.804
324.62
324.434
324.257
324.119
319.676
319.787
319.931
320.083
320.234
320.376
320.502
320.605
320.678
320.716
320.716
320.678
320.605
320.502
320.376
320.234
320.083
319.931
319.787
319.676
315.269
315.354
315.466
315.584
315.702
315.812
315.911
315.991
316.048
316.077
316.077
316.048
315.991
315.911
315.812
315.702
315.584
315.466
315.354
315.269
310.891
310.952
311.031
311.116
311.2
311.279
311.349
311.406
311.447
311.468
311.468
311.447
311.406
311.349
311.279
311.2
311.116
311.031
310.952
310.891
306.534
306.57
306.618
306.668
306.719
306.766
306.808
306.843
306.867
306.88
306.88
306.867
306.843
306.808
306.766
306.719
306.668
306.618
306.57
306.534
302.189
302.201
302.217
302.234
302.251
302.267
302.281
302.292
302.301
302.305
302.305
302.301
302.292
302.281
302.267
302.251
302.234
302.217
302.201
302.189
334.352
334.534
334.758
334.992
335.222
335.437
335.627
335.782
335.892
335.948
335.948
335.892
335.782
335.627
335.437
335.222
334.992
334.758
334.534
334.352
329.642
329.796
329.99
330.192
330.391
330.578
330.742
330.877
330.972
331.021
331.021
330.972
330.877
330.742
330.578
330.391
330.192
329.99
329.796
329.642
324.989
325.117
325.28
325.451
325.619
325.777
325.917
326.03
326.111
326.152
326.152
326.111
326.03
325.917
325.777
325.619
325.451
325.28
325.117
324.989
320.384
320.487
320.62
320.76
320.898
321.027
321.141
321.234
321.3
321.334
321.334
321.3
321.234
321.141
321.027
320.898
320.76
320.62
320.487
320.384
315.818
315.897
316
316.109
316.216
316.317
316.406
316.478
316.529
316.555
316.555
316.529
316.478
316.406
316.317
316.216
316.109
316
315.897
315.818
311.282
311.338
311.412
311.49
311.566
311.638
311.702
311.753
311.79
311.809
311.809
311.79
311.753
311.702
311.638
311.566
311.49
311.412
311.338
311.282
306.768
306.802
306.846
306.893
306.939
306.982
307.02
307.051
307.073
307.084
307.084
307.073
307.051
307.02
306.982
306.939
306.893
306.846
306.802
306.768
302.267
302.279
302.293
302.309
302.324
302.339
302.352
302.362
302.369
302.373
302.373
302.369
302.362
302.352
302.339
302.324
302.309
302.293
302.279
302.267
335.659
335.827
336.034
336.248
336.457
336.652
336.823
336.962
337.06
337.111
337.111
337.06
336.962
336.823
336.652
336.457
336.248
336.034
335.827
335.659
330.767
330.91
331.088
331.273
331.454
331.624
331.772
331.893
331.978
332.022
332.022
331.978
331.893
331.772
331.624
331.454
331.273
331.088
330.91
330.767
325.936
326.054
326.204
326.361
326.514
326.657
326.783
326.885
326.957
326.994
326.994
326.957
326.885
326.783
326.657
326.514
326.361
326.204
326.054
325.936
321.155
321.25
321.373
321.501
321.626
321.743
321.847
321.93
321.989
322.019
322.019
321.989
321.93
321.847
321.743
321.626
321.501
321.373
321.25
321.155
316.416
316.489
316.584
316.683
316.781
316.872
316.952
317.017
317.063
317.087
317.087
317.063
317.017
316.952
316.872
316.781
316.683
316.584
316.489
316.416
311.708
311.76
311.828
311.899
311.969
312.034
312.091
312.138
312.17
312.187
312.187
312.17
312.138
312.091
312.034
311.969
311.899
311.828
311.76
311.708
307.024
307.055
307.095
307.138
307.18
307.219
307.253
307.281
307.301
307.311
307.311
307.301
307.281
307.253
307.219
307.18
307.138
307.095
307.055
307.024
302.353
302.363
302.377
302.391
302.405
302.418
302.43
302.439
302.446
302.449
302.449
302.446
302.439
302.43
302.418
302.405
302.391
302.377
302.363
302.353
337.071
337.227
337.416
337.612
337.802
337.978
338.132
338.257
338.344
338.39
338.39
338.344
338.257
338.132
337.978
337.802
337.612
337.416
337.227
337.071
331.983
332.115
332.278
332.447
332.612
332.765
332.899
333.007
333.083
333.122
333.122
333.083
333.007
332.899
332.765
332.612
332.447
332.278
332.115
331.983
326.959
327.068
327.205
327.349
327.488
327.617
327.731
327.822
327.886
327.92
327.92
327.886
327.822
327.731
327.617
327.488
327.349
327.205
327.068
326.959
321.988
322.076
322.188
322.305
322.419
322.525
322.618
322.693
322.745
322.773
322.773
322.745
322.693
322.618
322.525
322.419
322.305
322.188
322.076
321.988
317.061
317.128
317.216
317.307
317.395
317.478
317.55
317.608
317.649
317.67
317.67
317.649
317.608
317.55
317.478
317.395
317.307
317.216
317.128
317.061
312.168
312.216
312.278
312.343
312.407
312.465
312.517
312.559
312.588
312.603
312.603
312.588
312.559
312.517
312.465
312.407
312.343
312.278
312.216
312.168
307.299
307.328
307.365
307.404
307.442
307.478
307.509
307.534
307.551
307.56
307.56
307.551
307.534
307.509
307.478
307.442
307.404
307.365
307.328
307.299
302.445
302.455
302.467
302.48
302.493
302.505
302.515
302.524
302.53
302.533
302.533
302.53
302.524
302.515
302.505
302.493
302.48
302.467
302.455
302.445
338.584
338.727
338.901
339.079
339.251
339.41
339.549
339.66
339.738
339.779
339.779
339.738
339.66
339.549
339.41
339.251
339.079
338.901
338.727
338.584
333.284
333.405
333.555
333.71
333.859
333.997
334.117
334.214
334.282
334.317
334.317
334.282
334.214
334.117
333.997
333.859
333.71
333.555
333.405
333.284
328.053
328.153
328.279
328.41
328.536
328.653
328.755
328.837
328.894
328.924
328.924
328.894
328.837
328.755
328.653
328.536
328.41
328.279
328.153
328.053
322.878
322.959
323.062
323.169
323.272
323.368
323.451
323.518
323.565
323.59
323.59
323.565
323.518
323.451
323.368
323.272
323.169
323.062
322.959
322.878
317.751
317.813
317.893
317.976
318.056
318.131
318.196
318.248
318.284
318.303
318.303
318.284
318.248
318.196
318.131
318.056
317.976
317.893
317.813
317.751
312.659
312.703
312.76
312.82
312.877
312.93
312.977
313.014
313.04
313.054
313.054
313.04
313.014
312.977
312.93
312.877
312.82
312.76
312.703
312.659
307.594
307.62
307.654
307.69
307.724
307.756
307.784
307.807
307.822
307.83
307.83
307.822
307.807
307.784
307.756
307.724
307.69
307.654
307.62
307.594
302.544
302.553
302.564
302.576
302.588
302.598
302.608
302.615
302.62
302.623
302.623
302.62
302.615
302.608
302.598
302.588
302.576
302.564
302.553
302.544
340.182
340.314
340.473
340.635
340.791
340.935
341.059
341.159
341.229
341.265
341.265
341.229
341.159
341.059
340.935
340.791
340.635
340.473
340.314
340.182
334.657
334.768
334.905
335.046
335.181
335.306
335.414
335.5
335.561
335.592
335.592
335.561
335.5
335.414
335.306
335.181
335.046
334.905
334.768
334.657
329.205
329.297
329.413
329.532
329.646
329.752
329.843
329.917
329.968
329.994
329.994
329.968
329.917
329.843
329.752
329.646
329.532
329.413
329.297
329.205
323.815
323.889
323.983
324.081
324.174
324.261
324.336
324.396
324.438
324.459
324.459
324.438
324.396
324.336
324.261
324.174
324.081
323.983
323.889
323.815
318.475
318.532
318.605
318.681
318.754
318.821
318.88
318.926
318.959
318.976
318.976
318.959
318.926
318.88
318.821
318.754
318.681
318.605
318.532
318.475
313.175
313.215
313.267
313.321
313.374
313.422
313.463
313.497
313.52
313.532
313.532
313.52
313.497
313.463
313.422
313.374
313.321
313.267
313.215
313.175
307.903
307.927
307.958
307.99
308.022
308.051
308.076
308.096
308.11
308.117
308.117
308.11
308.096
308.076
308.051
308.022
307.99
307.958
307.927
307.903
302.647
302.655
302.666
302.677
302.687
302.697
302.705
302.712
302.717
302.719
302.719
302.717
302.712
302.705
302.697
302.687
302.677
302.666
302.655
302.647
341.827
341.948
342.093
342.241
342.383
342.513
342.625
342.715
342.777
342.809
342.809
342.777
342.715
342.625
342.513
342.383
342.241
342.093
341.948
341.827
336.063
336.165
336.291
336.419
336.542
336.655
336.752
336.83
336.884
336.912
336.912
336.884
336.83
336.752
336.655
336.542
336.419
336.291
336.165
336.063
330.38
330.465
330.571
330.68
330.784
330.879
330.962
331.028
331.074
331.097
331.097
331.074
331.028
330.962
330.879
330.784
330.68
330.571
330.465
330.38
324.766
324.835
324.921
325.01
325.096
325.174
325.242
325.295
325.333
325.352
325.352
325.333
325.295
325.242
325.174
325.096
325.01
324.921
324.835
324.766
319.209
319.262
319.329
319.398
319.465
319.526
319.578
319.62
319.649
319.665
319.665
319.649
319.62
319.578
319.526
319.465
319.398
319.329
319.262
319.209
313.696
313.733
313.781
313.831
313.878
313.922
313.959
313.989
314.01
314.021
314.021
314.01
313.989
313.959
313.922
313.878
313.831
313.781
313.733
313.696
308.214
308.236
308.265
308.295
308.324
308.35
308.372
308.39
308.403
308.409
308.409
308.403
308.39
308.372
308.35
308.324
308.295
308.265
308.236
308.214
302.751
302.759
302.768
302.778
302.788
302.797
302.804
302.81
302.815
302.817
302.817
302.815
302.81
302.804
302.797
302.788
302.778
302.768
302.759
302.751
343.415
343.527
343.661
343.797
343.927
344.045
344.147
344.228
344.284
344.313
344.313
344.284
344.228
344.147
344.045
343.927
343.797
343.661
343.527
343.415
337.404
337.499
337.615
337.733
337.846
337.949
338.037
338.108
338.157
338.182
338.182
338.157
338.108
338.037
337.949
337.846
337.733
337.615
337.499
337.404
331.49
331.568
331.666
331.766
331.862
331.949
332.024
332.084
332.126
332.147
332.147
332.126
332.084
332.024
331.949
331.862
331.766
331.666
331.568
331.49
325.657
325.72
325.8
325.882
325.961
326.032
326.094
326.143
326.177
326.194
326.194
326.177
326.143
326.094
326.032
325.961
325.882
325.8
325.72
325.657
319.891
319.939
320.002
320.066
320.127
320.182
320.23
320.269
320.295
320.309
320.309
320.295
320.269
320.23
320.182
320.127
320.066
320.002
319.939
319.891
314.177
314.212
314.256
314.302
314.345
314.385
314.42
314.447
314.466
314.476
314.476
314.466
314.447
314.42
314.385
314.345
314.302
314.256
314.212
314.177
308.501
308.521
308.548
308.576
308.602
308.626
308.647
308.663
308.674
308.68
308.68
308.674
308.663
308.647
308.626
308.602
308.576
308.548
308.521
308.501
302.847
302.854
302.863
302.872
302.881
302.889
302.896
302.901
302.905
302.907
302.907
302.905
302.901
302.896
302.889
302.881
302.872
302.863
302.854
302.847
344.67
344.775
344.901
345.029
345.15
345.26
345.355
345.43
345.483
345.509
345.509
345.483
345.43
345.355
345.26
345.15
345.029
344.901
344.775
344.67
338.423
338.513
338.622
338.733
338.839
338.935
339.018
339.084
339.129
339.153
339.153
339.129
339.084
339.018
338.935
338.839
338.733
338.622
338.513
338.423
332.306
332.381
332.473
332.568
332.658
332.74
332.81
332.866
332.904
332.924
332.924
332.904
332.866
332.81
332.74
332.658
332.568
332.473
332.381
332.306
326.296
326.356
326.431
326.509
326.583
326.65
326.708
326.754
326.786
326.802
326.802
326.786
326.754
326.708
326.65
326.583
326.509
326.431
326.356
326.296
320.371
320.417
320.476
320.536
320.594
320.646
320.692
320.727
320.752
320.765
320.765
320.752
320.727
320.692
320.646
320.594
320.536
320.476
320.417
320.371
314.511
314.544
314.586
314.629
314.671
314.708
314.741
314.766
314.784
314.793
314.793
314.784
314.766
314.741
314.708
314.671
314.629
314.586
314.544
314.511
308.698
308.718
308.743
308.769
308.794
308.816
308.836
308.851
308.862
308.868
308.868
308.862
308.851
308.836
308.816
308.794
308.769
308.743
308.718
308.698
302.913
302.919
302.928
302.936
302.945
302.952
302.959
302.964
302.968
302.969
302.969
302.968
302.964
302.959
302.952
302.945
302.936
302.928
302.919
302.913
)
;

boundaryField
{
    hotSide
    {
        type            fixedGradient;
        gradient        nonuniform List<scalar> 
400
(
295.429
296.507
298.665
301.911
306.254
311.705
318.278
325.987
334.848
344.876
356.085
368.489
382.101
396.932
412.991
430.289
448.831
468.623
489.671
511.977
299.571
300.615
302.709
305.862
310.084
315.393
321.805
329.34
338.017
347.855
358.873
371.087
384.513
399.164
415.052
432.186
450.575
470.224
491.138
513.32
304.052
305.058
307.076
310.116
314.197
319.338
325.562
332.894
341.359
350.98
361.781
373.781
387
401.452
417.152
434.109
452.332
471.828
492.6
514.653
308.801
309.761
311.689
314.601
318.518
323.466
329.476
336.578
344.804
354.184
364.745
376.511
389.505
403.743
419.242
436.012
454.062
473.398
494.024
515.944
313.682
314.591
316.419
319.187
322.921
327.656
333.43
340.282
348.249
357.369
367.674
379.193
391.951
405.968
421.26
437.839
455.713
474.889
495.37
517.158
318.494
319.348
321.069
323.683
327.223
331.734
337.261
343.851
351.551
360.405
370.451
381.721
394.244
408.041
423.13
439.523
457.228
476.251
496.594
518.257
322.96
323.759
325.374
327.834
331.184
335.473
340.758
347.094
354.537
363.136
372.935
383.971
396.274
409.868
424.77
440.992
458.544
477.428
497.647
519.2
326.751
327.501
329.019
331.342
334.52
338.612
343.683
349.796
357.013
365.391
374.977
385.812
397.928
411.349
426.094
442.175
459.598
478.368
498.485
519.947
329.525
330.237
331.682
333.9
336.948
340.89
345.799
351.744
358.793
367.006
376.435
387.121
399.1
412.396
427.027
443.005
460.336
479.024
499.069
520.466
330.995
331.686
333.091
335.252
338.229
342.091
346.912
352.767
359.725
367.85
377.195
387.803
399.709
412.938
427.509
443.433
460.716
479.362
499.368
520.733
330.995
331.686
333.091
335.252
338.229
342.091
346.912
352.767
359.725
367.85
377.195
387.803
399.709
412.938
427.509
443.433
460.716
479.362
499.368
520.733
329.525
330.237
331.682
333.9
336.948
340.89
345.799
351.744
358.793
367.006
376.435
387.121
399.1
412.396
427.027
443.005
460.336
479.024
499.069
520.466
326.751
327.501
329.019
331.342
334.52
338.612
343.683
349.796
357.013
365.391
374.977
385.812
397.928
411.349
426.094
442.175
459.598
478.368
498.485
519.947
322.96
323.759
325.374
327.834
331.184
335.473
340.758
347.094
354.537
363.136
372.935
383.971
396.274
409.868
424.77
440.992
458.544
477.428
497.647
519.2
318.494
319.348
321.069
323.683
327.223
331.734
337.261
343.851
351.551
360.405
370.451
381.721
394.244
408.041
423.13
439.523
457.228
476.251
496.594
518.257
313.682
314.591
316.419
319.187
322.921
327.656
333.43
340.282
348.249
357.369
367.674
379.193
391.951
405.968
421.26
437.839
455.713
474.889
495.37
517.158
308.801
309.761
311.689
314.601
318.518
323.466
329.476
336.578
344.804
354.184
364.745
376.511
389.505
403.743
419.242
436.012
454.062
473.398
494.024
515.944
304.052
305.058
307.076
310.116
314.197
319.338
325.562
332.894
341.359
350.98
361.781
373.781
387
401.452
417.152
434.109
452.332
471.828
492.6
514.653
299.571
300.615
302.709
305.862
310.084
315.393
321.805
329.34
338.017
347.855
358.873
371.087
384.513
399.164
415.052
432.186
450.575
470.224
491.138
513.32
295.429
296.507
298.665
301.911
306.254
311.705
318.278
325.987
334.848
344.876
356.085
368.489
382.101
396.932
412.991
430.289
448.831
468.623
489.671
511.977
)
;
    }
    coldSide
    {
        type            mixed;
        refValue        uniform 300;
        refGradient     uniform 0;
        valueFraction   uniform 0.991591;
        source          uniform 0;
        value           nonuniform List<scalar> 
400
(
300.015
300.015
300.015
300.015
300.015
300.016
300.016
300.016
300.017
300.017
300.018
300.018
300.019
300.02
300.021
300.021
300.022
300.023
300.024
300.024
300.015
300.015
300.015
300.015
300.016
300.016
300.016
300.016
300.017
300.017
300.018
300.019
300.019
300.02
300.021
300.021
300.022
300.023
300.024
300.025
300.015