/*--------------------------------*- C++ -*----------------------------------*\
| =========                 |                                                 |
| \\      /  F ield         | OpenFOAM: The Open Source CFD Toolbox           |
|  \\    /   O peration     | Version:  2212                                  |
|   \\  /    A nd           | Website:  www.openfoam.com                      |
|    \\/     M anipulation  |                                                 |
\*---------------------------------------------------------------------------*/
FoamFile
{
    version     2.0;
    format      ascii;
    arch        "LSB;label=32;scalar=64";
    class       volScalarField;
    location    "./ITHACAoutput/true/18.8";
    object      error;
}
// * * * * * * * * * * * * * * * * * * * * * * * * * * * * * * * * * * * * * //

dimensions      [0 0 0 1 0 0 0];

internalField   nonuniform List<scalar> 
3200
(
-0.412293
0.324549
0.835658
1.20164
1.32008
1.28142
1.23161
0.997746
0.840013
0.769417
0.682898
0.657264
0.614148
0.715498
0.755295
0.746559
0.658614
0.338174
-0.190447
-0.761514
-0.379383
0.217316
0.673338
0.969889
1.15353
1.08139
0.923497
0.810364
0.671244
0.592048
0.507481
0.547619
0.431763
0.452152
0.471885
0.554214
0.452986
0.209297
-0.290769
-0.757101
-0.390688
0.112719
0.530612
0.840887
0.878296
0.8822
0.783072
0.675933
0.495552
0.439605
0.345547
0.323119
0.307497
0.36991
0.370197
0.455957
0.220391
0.0771701
-0.279912
-0.641224
-0.247833
0.0735646
0.501498
0.609025
0.776699
0.681157
0.60451
0.542995
0.376445
0.28705
0.281515
0.188598
0.180487
0.324658
0.26689
0.266368
0.178656
0.0398594
-0.277585
-0.697433
-0.247233
0.0584172
0.21441
0.467663
0.511513
0.487863
0.426642
0.391848
0.232371
0.188378
0.131393
0.204494
0.1369
0.137494
0.122105
0.204874
0.210534
-0.0381934
-0.277719
-0.478984
-0.192119
0.0308275
0.210052
0.254503
0.303158
0.362636
0.286351
0.246944
0.203501
0.144647
0.135982
0.00161166
0.073953
0.175541
0.0885343
0.0595393
0.061507
0.0374493
-0.132739
-0.398687
-0.170752
-0.0079954
0.144891
0.251609
0.237782
0.228349
0.170954
0.181049
0.0553898
0.0773796
0.0302738
0.0468994
0.0523149
0.0509621
0.074718
0.118366
0.057086
-0.0746261
-0.138106
-0.21736
-0.0527904
-0.0495192
0.0186549
0.0551289
0.103528
0.155706
0.0284928
0.108275
0.0343143
0.0547602
-0.00426798
0.0599161
-0.0118419
0.00645129
-0.0416067
-0.0259257
-0.111557
0.0202818
-0.0122404
-0.0767697
-0.438542
0.134914
0.740505
1.09961
1.17473
1.11989
1.0541
0.801835
0.642804
0.544532
0.407966
0.382526
0.379833
0.496058
0.594566
0.627249
0.505682
0.243255
-0.154731
-0.739738
-0.45396
0.167548
0.609182
0.878727
0.946703
0.864749
0.816685
0.707169
0.546365
0.407888
0.255767
0.259323
0.293145
0.340361
0.363958
0.428819
0.31843
0.119671
-0.248923
-0.790332
-0.399879
0.0646771
0.481625
0.7756
0.839261
0.689118
0.651758
0.470403
0.399815
0.198764
0.214471
0.202831
0.173975
0.136272
0.262372
0.273472
0.252709
0.0821627
-0.290845
-0.756819
-0.341781
0.0749765
0.36101
0.528002
0.665566
0.575885
0.546147
0.374717
0.281629
0.150818
0.142182
0.0944809
0.0696797
0.131058
0.194761
0.219076
0.173958
-0.0592744
-0.312025
-0.70065
-0.359717
-0.0329103
0.289068
0.436294
0.441492
0.412113
0.408729
0.341578
0.21917
0.123111
0.0882463
0.0556714
0.0265189
0.0815328
0.0618559
0.0372867
0.0402299
-0.153223
-0.26443
-0.55499
-0.201092
-0.0149518
0.117486
0.330261
0.229559
0.26619
0.220533
0.195527
0.115661
0.0366354
0.0544169
0.0200699
0.0791546
-0.0194762
0.0259863
0.074904
0.0379254
-0.0763506
-0.248162
-0.404794
-0.120024
0.0118852
0.149587
0.12772
0.254714
0.173053
0.112016
0.0329035
0.0881407
0.0582379
0.08633
0.0689156
-0.0306841
0.00384711
0.10199
0.0753794
0.118973
-0.0126619
-0.121121
-0.249293
-0.10714
-0.0224788
-0.0365859
0.0636033
0.108037
0.0671593
0.0318038
0.0919304
0.041164
0.0477141
0.00109302
0.103372
0.0296747
0.0453107
-0.00265424
0.0894573
0.0383764
0.0105178
-0.0335959
-0.113096
-0.627053
0.0291096
0.589303
0.884031
1.08669
0.9296
0.788081
0.492255
0.36925
0.156034
0.167743
0.0268744
0.0827163
0.227175
0.279712
0.361844
0.334202
0.169632
-0.268835
-0.877345
-0.567275
0.0293833
0.443835
0.702379
0.730356
0.659593
0.5874
0.366654
0.196766
0.0158793
0.0150562
-0.0592281
0.0186613
0.106779
0.163165
0.228413
0.217875
0.00804356
-0.348388
-0.916254
-0.495589
-0.028513
0.33108
0.561507
0.599246
0.482708
0.435494
0.254789
0.140927
0.0645139
-0.102867
-0.157078
-0.0771814
0.0405901
0.0533019
0.258578
0.166326
-0.0208523
-0.388373
-0.844914
-0.428941
-0.00373295
0.282666
0.342953
0.41441
0.40386
0.421411
0.246586
0.129569
-0.0304294
-0.0919348
-0.12201
-0.102282
-0.0786484
0.140398
0.107527
0.0215811
-0.107645
-0.372114
-0.668165
-0.388087
-0.00551807
0.189037
0.306528
0.358381
0.312092
0.293108
0.105431
0.0970626
-0.0376181
-0.0236664
-0.103478
-0.058165
-0.0855076
0.00272836
0.0246828
0.0170062
-0.132411
-0.296986
-0.61277
-0.329943
-0.160812
0.0999933
0.21159
0.17245
0.210706
0.23438
0.0838928
-0.0226777
-0.0248445
-0.0277394
-0.0510089
-0.0527273
-0.0330839
0.0653429
-0.00643054
-0.11357
-0.116269
-0.232021
-0.430774
-0.235338
-0.0252996
0.105065
0.126871
0.169314
0.196561
0.0993541
0.0721162
-0.0404017
0.000225723
-0.0129992
-0.0556762
-0.0196724
-0.0298037
-0.0276265
-0.0400515
-0.0752921
-0.126427
-0.165264
-0.209333
-0.0537792
0.0621669
-0.000877094
0.0331929
0.0779321
0.101436
-0.00273853
0.057329
0.0744266
-0.0811397
-0.0383966
-0.00308157
0.0145568
0.0223339
0.0266229
0.0567761
-0.0785032
-0.0668077
-0.0265279
-0.0317485
-0.853211
-0.203891
0.330744
0.684637
0.712831
0.612004
0.404109
0.211992
0.0433997
-0.129601
-0.287503
-0.338048
-0.212297
-0.109495
0.0151194
0.155095
0.155417
-0.0721607
-0.458135
-0.962123
-0.806922
-0.197671
0.201377
0.433298
0.487492
0.395547
0.265896
0.199857
-0.0876044
-0.241594
-0.370565
-0.333163
-0.292861
-0.192408
-0.063069
0.0937792
0.00341333
-0.0944696
-0.445853
-0.991648
-0.695981
-0.200908
0.231746
0.377427
0.442761
0.334352
0.180307
-0.00915695
-0.141941
-0.229147
-0.38665
-0.333847
-0.274433
-0.272004
-0.141378
-0.00420216
-0.0250384
-0.219528
-0.546298
-0.911782
-0.619539
-0.165479
0.13735
0.209593
0.301234
0.221383
0.149567
-0.0852472
-0.162976
-0.2971
-0.345977
-0.331268
-0.257944
-0.300761
-0.118017
-0.0470483
-0.1432
-0.226447
-0.470668
-0.708748
-0.427417
-0.202957
0.0847141
0.286661
0.204361
0.174479
0.114916
0.0113337
-0.122678
-0.20871
-0.286113
-0.313763
-0.217518
-0.226313
-0.0706705
-0.176017
-0.115455
-0.274947
-0.377276
-0.625845
-0.319669
-0.15524
0.0282246
0.186199
0.216649
0.0912367
0.0689271
-0.0240648
-0.0445139
-0.188739
-0.211552
-0.165817
-0.198954
-0.176363
-0.194495
0.00292322
-0.10109
-0.14975
-0.339665
-0.388484
-0.204999
-0.172161
0.0253503
0.0768797
0.136906
0.0510065
0.0826139
0.0408216
-0.0174758
-0.0238308
-0.080765
-0.0956852
-0.124609
-0.0748481
-0.0767735
0.0195218
-0.120844
-0.113676
-0.181323
-0.281375
-0.0296636
0.0215038
0.0362135
0.0293958
-0.00926333
0.0334396
0.0108855
0.0860559
-0.0341535
-0.0368299
-0.0595169
-0.0675571
0.0777468
-0.0459976
-0.0324958
0.0027712
-0.035024
-0.0983775
-0.0151003
-0.0806728
-1.14448
-0.52232
0.00173514
0.393734
0.296968
0.238293
0.0309497
-0.249272
-0.356783
-0.6436
-0.775838
-0.712451
-0.651939
-0.404559
-0.311382
-0.0728495
-0.092551
-0.273246
-0.6077
-1.18192
-0.979774
-0.431333
-0.0287822
0.195368
0.275022
0.102466
0.0363719
-0.162787
-0.483705
-0.563819
-0.764723
-0.610977
-0.607259
-0.501755
-0.278066
-0.20611
-0.161983
-0.341177
-0.720431
-1.07266
-0.877232
-0.44081
-0.0103913
0.0423252
0.134046
0.146631
-0.0442689
-0.259252
-0.381902
-0.488058
-0.616632
-0.633575
-0.632435
-0.450628
-0.2725
-0.277028
-0.238067
-0.349951
-0.710452
-1.02325
-0.754024
-0.453967
-0.12932
0.0516851
0.118146
-0.0144462
-0.120313
-0.205357
-0.288594
-0.403597
-0.590678
-0.633176
-0.613686
-0.416003
-0.324868
-0.226691
-0.284302
-0.33669
-0.610315
-0.905558
-0.537297
-0.3067
-0.0767729
0.116827
0.130652
-0.0798642
-0.0636605
-0.223655
-0.369117
-0.47657
-0.410923
-0.509384
-0.414053
-0.352783
-0.229286
-0.232762
-0.217873
-0.333497
-0.481862
-0.697163
-0.41841
-0.209447
-0.0490478
0.0913959
0.128815
-0.0709311
-0.0874333
-0.143502
-0.190033
-0.208356
-0.341681
-0.317096
-0.265116
-0.224124
-0.172169
-0.166544
-0.142434
-0.228809
-0.342188
-0.581965
-0.321056
-0.156151
-0.102243
-0.0329148
-0.000908601
0.0227807
-0.0877314
-0.107172
-0.189906
-0.19933
-0.193872
-0.253884
-0.188413
-0.170665
-0.165146
-0.21084
-0.0755647
-0.165969
-0.256998
-0.37983
-0.0801534
-0.0769942
-0.033405
-0.00795624
0.00475321
0.090494
-0.0434898
-0.0472039
-0.0415773
-0.109384
0.00206184
-0.116367
0.0332134
-0.0337303
0.0363277
-0.0426541
-0.0492121
-0.0665801
-0.0869805
-0.113441
-1.40347
-0.868222
-0.322332
-0.100586
-0.0463968
-0.0811345
-0.321348
-0.595286
-0.903685
-1.0385
-1.15981
-1.16838
-0.928795
-0.77767
-0.505766
-0.39061
-0.302853
-0.468024
-0.838691
-1.32131
-1.23842
-0.714084
-0.352192
-0.103647
-0.113576
-0.209047
-0.356833
-0.549832
-0.807968
-1.01245
-1.07124
-1.07135
-0.962161
-0.742797
-0.506289
-0.394546
-0.351064
-0.598778
-0.836468
-1.21075
-1.0777
-0.739675
-0.349522
-0.132403
-0.0619186
-0.250609
-0.372495
-0.467446
-0.698024
-0.919777
-0.938655
-1.05144
-0.874201
-0.752911
-0.632159
-0.497216
-0.522591
-0.504053
-0.802982
-1.11459
-0.885639
-0.615264
-0.290278
-0.0980803
-0.0716503
-0.157599
-0.328338
-0.486372
-0.589276
-0.760341
-0.882826
-0.783813
-0.717767
-0.533963
-0.521132
-0.343228
-0.350444
-0.464311
-0.728255
-0.993672
-0.743452
-0.44626
-0.229885
-0.124311
-0.152287
-0.170257
-0.239126
-0.330591
-0.484223
-0.60544
-0.738576
-0.614802
-0.64514
-0.5485
-0.388883
-0.371637
-0.329782
-0.430309
-0.595364
-0.841101
-0.510105
-0.386406
-0.255359
-0.127654
-0.0297464
-0.110472
-0.13598
-0.220299
-0.342021
-0.514704
-0.455606
-0.523406
-0.416612
-0.386168
-0.420331
-0.256533
-0.249557
-0.269886
-0.408447
-0.668766
-0.355442
-0.197184
-0.0695057
-0.126697
-0.100398
-0.0753166
-0.0380695
-0.0525235
-0.240401
-0.297116
-0.313721
-0.291068
-0.222686
-0.270297
-0.156003
-0.181109
-0.152259
-0.197424
-0.206874
-0.345697
-0.114006
-0.0488159
0.0134724
-0.0480551
-0.0687359
-0.015739
0.0320672
-0.0757388
-0.15692
-0.0524912
-0.0880634
-0.168751
-0.111453
-0.143953
-0.14758
0.00806594
-0.088985
-0.0534665
-0.101316
-0.118338
-1.67686
-1.18464
-0.636869
-0.378118
-0.461295
-0.467837
-0.629897
-0.901499
-1.18808
-1.42153
-1.4999
-1.58659
-1.41584
-1.0983
-0.822265
-0.612287
-0.53363
-0.697544
-1.01182
-1.52413
-1.5764
-1.02194
-0.695274
-0.429959
-0.442619
-0.470254
-0.678583
-0.802791
-1.05997
-1.26661
-1.34202
-1.3204
-1.28481
-1.06867
-0.887304
-0.645353
-0.649905
-0.748976
-1.05611
-1.38533
-1.37528
-1.00074
-0.582681
-0.307024
-0.395165
-0.376994
-0.539684
-0.732485
-0.913842
-1.11407
-1.22838
-1.23275
-1.12412
-0.964736
-0.817883
-0.610475
-0.591402
-0.69693
-1.02751
-1.22668
-1.11432
-0.808999
-0.535301
-0.403961
-0.317192
-0.368105
-0.48268
-0.634389
-0.893308
-0.94422
-1.01698
-1.05476
-0.939302
-0.797282
-0.734943
-0.570031
-0.600424
-0.67227
-0.787389
-1.11529
-0.869738
-0.670628
-0.396069
-0.309176
-0.214956
-0.353237
-0.414842
-0.589513
-0.738759
-0.804787
-0.835914
-0.884181
-0.780678
-0.654025
-0.521168
-0.497746
-0.505431
-0.501551
-0.663307
-0.8539
-0.693616
-0.459031
-0.335042
-0.168649
-0.16236
-0.288745
-0.23434
-0.370461
-0.50028
-0.572057
-0.723533
-0.626933
-0.593296
-0.475561
-0.437547
-0.338478
-0.35622
-0.462567
-0.482842
-0.672483
-0.433635
-0.239321
-0.143684
-0.183207
-0.216346
-0.181808
-0.256439
-0.265428
-0.269603
-0.361404
-0.415241
-0.299383
-0.311307
-0.36219
-0.261421
-0.262361
-0.209002
-0.299919
-0.310841
-0.376421
-0.20211
-0.157231
-0.173404
-0.0965137
-0.0814943
-0.0396279
-0.0822042
-0.0182152
-0.129129
-0.0261362
-0.0907253
-0.126319
-0.114893
-0.153604
-0.0878187
-0.105346
-0.110799
-0.0848549
-0.0447769
-0.210751
-2.0515
-1.52227
-1.02661
-0.779611
-0.731734
-0.761271
-0.963752
-1.30411
-1.47936
-1.73826
-1.96185
-1.90458
-1.67397
-1.33949
-1.25647
-0.878234
-0.859578
-0.913382
-1.19702
-1.71366
-1.75521
-1.36986
-1.00607
-0.748732
-0.704113
-0.720743
-0.95084
-1.18504
-1.38592
-1.62114
-1.70885
-1.64981
-1.5202
-1.25382
-1.05324
-0.937881
-0.831053
-0.892945
-1.16591
-1.53412
-1.65037
-1.24452
-0.867039
-0.595495
-0.673547
-0.69076
-0.824266
-1.01141
-1.18599
-1.36986
-1.46978
-1.42691
-1.39666
-1.14987
-1.02068
-0.854069
-0.823577
-0.858121
-1.03847
-1.47918
-1.26768
-1.02258
-0.708955
-0.523407
-0.507787
-0.592792
-0.760645
-0.943368
-1.09429
-1.15298
-1.23484
-1.21631
-1.19602
-1.05947
-0.85143
-0.776282
-0.771782
-0.775728
-1.02214
-1.19591
-1.04077
-0.813603
-0.577537
-0.472727
-0.461827
-0.419332
-0.576772
-0.689948
-0.858642
-0.901969
-1.00848
-0.979289
-0.893831
-0.819383
-0.672454
-0.560703
-0.614783
-0.61706
-0.734369
-0.982998
-0.768806
-0.638279
-0.354918
-0.351646
-0.332908
-0.368346
-0.368897
-0.511592
-0.641605
-0.768249
-0.754704
-0.759404
-0.689109
-0.664166
-0.455749
-0.468616
-0.44159
-0.477833
-0.599042
-0.702661
-0.424419
-0.369339
-0.300169
-0.255255
-0.20609
-0.189805
-0.220522
-0.342825
-0.348038
-0.477355
-0.434278
-0.472857
-0.419423
-0.380572
-0.334361
-0.356666
-0.194125
-0.324458
-0.341442
-0.388907
-0.105796
-0.066779
-0.0408583
-0.0568063
-0.0814337
-0.0478684
-0.130671
-0.102307
-0.146947
-0.164346
-0.139855
-0.196434
-0.140266
-0.219911
-0.0738969
-0.129063
-0.120032
-0.141345
-0.110605
-0.106594
-2.3725
-1.7492
-1.38817
-1.06313
-1.01865
-1.08543
-1.28078
-1.5776
-1.80594
-2.07882
-2.19946
-2.08372
-1.94539
-1.70684
-1.35487
-1.22404
-0.982764
-1.08361
-1.43422
-1.68486
-2.03057
-1.66605
-1.19489
-1.04003
-0.968908
-1.06821
-1.07898
-1.45152
-1.69064
-1.84888
-1.98783
-2.01048
-1.65734
-1.51704
-1.27977
-0.971533
-0.99548
-1.04508
-1.36703
-1.6052
-1.80049
-1.46851
-1.18237
-0.934271
-0.826526
-0.882185
-1.08681
-1.26494
-1.43445
-1.62091
-1.69865
-1.7094
-1.58915
-1.2579
-1.14668
-1.00395
-0.942085
-1.03239
-1.16527
-1.40571
-1.53074
-1.24514
-0.996965
-0.812184
-0.770805
-0.782089
-0.999594
-1.05042
-1.22706
-1.36268
-1.39623
-1.36665
-1.29643
-1.15636
-1.00896
-0.875473
-0.812416
-0.872341
-1.05616
-1.21849
-1.18843
-0.995547
-0.815373
-0.696401
-0.558897
-0.557802
-0.722871
-0.838175
-1.06987
-1.03883
-1.08969
-1.11128
-1.01881
-0.847577
-0.787332
-0.718975
-0.631451
-0.7252
-0.827056
-0.96772
-0.846806
-0.730362
-0.632116
-0.451904
-0.453845
-0.470699
-0.5782
-0.641552
-0.663391
-0.844109
-0.83087
-0.800806
-0.723208
-0.726725
-0.558604
-0.481286
-0.577904
-0.512483
-0.616117
-0.638068
-0.548215
-0.431651
-0.374487
-0.259232
-0.268506
-0.207881
-0.327784
-0.36284
-0.414841
-0.468533
-0.460391
-0.508146
-0.510311
-0.354662
-0.383122
-0.272041
-0.3041
-0.274119
-0.419744
-0.451209
-0.16899
-0.18799
-0.185463
-0.0493637
-0.0684681
-0.0774936
-0.0428506
-0.175552
-0.130132
-0.204083
-0.133056
-0.161337
-0.189658
-0.143885
-0.121
-0.0720831
-0.19099
-0.142014
-0.177409
-0.21889
-2.53315
-2.14395
-1.68316
-1.44737
-1.1881
-1.37463
-1.52533
-1.74813
-2.02161
-2.24975
-2.34199
-2.28658
-2.10504
-1.72898
-1.47633
-1.2132
-1.10988
-1.17862
-1.44156
-1.86763
-2.28706
-1.91089
-1.55373
-1.30745
-1.20381
-1.27247
-1.37435
-1.58748
-1.80932
-2.07889
-2.14822
-2.01808
-1.83499
-1.6053
-1.31414
-1.2061
-1.13584
-1.15722
-1.36593
-1.74534
-1.93939
-1.63997
-1.38316
-1.1307
-1.08478
-1.17284
-1.30174
-1.36761
-1.63371
-1.77728
-1.79946
-1.74118
-1.63976
-1.34712
-1.25821
-1.0758
-1.02996
-1.10762
-1.25139
-1.50808
-1.67026
-1.38981
-1.19319
-0.954626
-0.91527
-0.981376
-1.06207
-1.27953
-1.36525
-1.45018
-1.52679
-1.52841
-1.33978
-1.28105
-1.07813
-0.931741
-0.944882
-0.980554
-1.10779
-1.28434
-1.34085
-1.11785
-0.885934
-0.737636
-0.781352
-0.72476
-0.87959
-1.00861
-1.06066
-1.19462
-1.29496
-1.20397
-1.18733
-0.973578
-0.860311
-0.764395
-0.678378
-0.743549
-0.889184
-1.04279
-0.998438
-0.844273
-0.669992
-0.561032
-0.494483
-0.612838
-0.692867
-0.628401
-0.854307
-0.816314
-0.87356
-0.832452
-0.851857
-0.720035
-0.546729
-0.532691
-0.549809
-0.58699
-0.659981
-0.74817
-0.614664
-0.539247
-0.398653
-0.298839
-0.262729
-0.329637
-0.460091
-0.452502
-0.46596
-0.568007
-0.576972
-0.560613
-0.509615
-0.442572
-0.375032
-0.382686
-0.280475
-0.407276
-0.444635
-0.500543
-0.192059
-0.11034
-0.132115
-0.196335
-0.0738256
-0.0783026
-0.152854
-0.209871
-0.18842
-0.150275
-0.222883
-0.177973
-0.0290477
-0.0968048
-0.147262
-0.107917
-0.0503908
-0.115529
-0.13056
-0.164137
-2.85201
-2.34552
-1.91051
-1.67737
-1.43529
-1.6069
-1.64698
-1.92712
-2.10906
-2.38025
-2.38259
-2.35707
-2.18004
-1.81567
-1.45127
-1.31887
-1.14416
-1.25569
-1.46213
-1.81877
-2.5497
-2.09914
-1.78746
-1.46449
-1.3814
-1.44306
-1.5354
-1.77451
-2.05019
-2.10663
-2.2275
-2.20716
-1.98824
-1.65066
-1.43263
-1.23121
-1.23493
-1.25065
-1.41257
-1.69514
-2.1637
-1.80952
-1.55733
-1.41571
-1.23187
-1.35968
-1.36271
-1.56729
-1.71912
-1.8517
-1.96148
-1.83248
-1.74926
-1.46117
-1.22072
-1.12418
-1.04732
-1.22962
-1.33691
-1.55937
-1.78346
-1.51758
-1.28517
-1.19223
-1.03403
-1.07732
-1.15987
-1.37364
-1.45378
-1.58388
-1.58421
-1.51106
-1.49663
-1.31321
-1.08518
-0.998599
-0.938304
-1.01054
-1.13537
-1.37974
-1.40825
-1.22822
-1.0265
-0.908407
-0.807459
-0.851561
-0.948593
-1.01559
-1.13537
-1.236
-1.25401
-1.24117
-1.25774
-0.990505
-0.90917
-0.857747
-0.809683
-0.790112
-0.868818
-1.05232
-0.994565
-0.906979
-0.747307
-0.693616
-0.618463
-0.634284
-0.62402
-0.724382
-0.839577
-0.858719
-0.922644
-0.834183
-0.802884
-0.738914
-0.71629
-0.638897
-0.607893
-0.624425
-0.658745
-0.805453
-0.585358
-0.5678
-0.550243
-0.36994
-0.395058
-0.478103
-0.428195
-0.448627
-0.495945
-0.566983
-0.557363
-0.502802
-0.510162
-0.447914
-0.399418
-0.441673
-0.386999
-0.397103
-0.467095
-0.541999
-0.222982
-0.161844
-0.104139
-0.162521
-0.0964385
-0.106457
-0.0902771
-0.117655
-0.116047
-0.117443
-0.179428
-0.150374
-0.168149
-0.138554
-0.120189
-0.131512
-0.21094
-0.168194
-0.181098
-0.149075
-2.99739
-2.49849
-2.06736
-1.89934
-1.70991
-1.72432
-1.73073
-1.95446
-2.19139
-2.29195
-2.41123
-2.34755
-2.09177
-1.83521
-1.51217
-1.30091
-1.26648
-1.22213
-1.51632
-1.82547
-2.71366
-2.29886
-1.93512
-1.7606
-1.56549
-1.58494
-1.67736
-1.8837
-2.02152
-2.12615
-2.17531
-2.09919
-1.89996
-1.71361
-1.37669
-1.31209
-1.18386
-1.18741
-1.38438
-1.7312
-2.28483
-1.98201
-1.69201
-1.49959
-1.48529
-1.3953
-1.50232
-1.60148
-1.76868
-1.91899
-1.89172
-1.84548
-1.69849
-1.56985
-1.2783
-1.18706
-1.03857
-1.17402
-1.35076
-1.52903
-1.92212
-1.72025
-1.41701
-1.28139
-1.16266
-1.18317
-1.2556
-1.29347
-1.52518
-1.54641
-1.63834
-1.6182
-1.4446
-1.34781
-1.19777
-0.934449
-0.981903
-1.01986
-1.12281
-1.32395
-1.47089
-1.33562
-1.14249
-1.01407
-1.00404
-0.931684
-1.01226
-1.13442
-1.17811
-1.2118
-1.21898
-1.18679
-1.11698
-1.01951
-0.877293
-0.841437
-0.842413
-0.763481
-0.934048
-1.06347
-1.19329
-0.942664
-0.798088
-0.694712
-0.685092
-0.617573
-0.771316
-0.762945
-0.862125
-0.848547
-0.950037
-0.851422
-0.818113
-0.693081
-0.727914
-0.60907
-0.617362
-0.588577
-0.640829
-0.772703
-0.653821
-0.549608
-0.561001
-0.349999
-0.448996
-0.472359
-0.437934
-0.410382
-0.490462
-0.568706
-0.612208
-0.587151
-0.492138
-0.453347
-0.333589
-0.307504
-0.381085
-0.369883
-0.511936
-0.492918
-0.196604
-0.180687
-0.178792
-0.106267
-0.157366
-0.129
-0.0703967
-0.189914
-0.159111
-0.210597
-0.248286
-0.202038
-0.181122
-0.161365
-0.232821
-0.115791
-0.11717
-0.0826494
-0.182318
-0.143906
-3.03982
-2.57441
-2.17906
-1.99648
-1.82203
-1.7814
-1.82403
-1.92385
-2.09727
-2.27308
-2.37251
-2.33211
-1.93939
-1.70833
-1.43174
-1.23407
-1.11898
-1.19421
-1.39927
-1.6625
-2.79376
-2.35582
-1.95591
-1.8152
-1.7025
-1.5715
-1.66173
-1.78899
-1.8721
-2.00321
-2.10177
-2.01148
-1.78883
-1.53225
-1.3741
-1.14061
-1.07274
-1.20029
-1.37304
-1.56339
-2.37753
-2.10741
-1.74403
-1.55663
-1.48252
-1.47251
-1.57527
-1.56666
-1.73334
-1.81491
-1.80619
-1.6467
-1.57974
-1.3849
-1.18434
-1.11758
-0.975658
-1.14936
-1.32013
-1.39544
-1.95906
-1.73264
-1.43267
-1.36071
-1.20077
-1.20269
-1.23645
-1.43912
-1.47998
-1.56342
-1.51394
-1.53346
-1.33738
-1.24894
-1.08859
-1.00678
-0.891041
-0.886989
-1.07409
-1.24443
-1.57654
-1.38958
-1.24174
-1.14421
-0.998844
-0.963146
-0.981806
-1.04688
-1.18038
-1.20489
-1.29569
-1.21867
-1.06751
-1.04403
-0.849176
-0.810823
-0.784769
-0.828895
-0.885941
-1.01984
-1.18939
-1.10399
-0.848712
-0.682843
-0.760093
-0.720591
-0.724648
-0.806609
-0.836712
-0.911725
-0.88175
-0.924083
-0.761063
-0.675981
-0.59795
-0.566764
-0.506555
-0.581379
-0.704047
-0.732305
-0.632678
-0.57115
-0.571529
-0.447531
-0.430202
-0.441692
-0.489306
-0.558319
-0.496409
-0.525687
-0.462929
-0.532799
-0.516433
-0.390459
-0.363604
-0.45996
-0.363063
-0.312654
-0.457173
-0.56846
-0.179075
-0.157989
-0.122561
-0.129198
-0.0794863
-0.0863271
-0.220182
-0.128453
-0.0959849
-0.187051
-0.235918
-0.130185
-0.0301869
-0.0597397
-0.0806424
-0.186984
-0.140475
-0.136949
-0.146798
-0.170885
-3.10882
-2.6402
-2.27976
-1.97506
-1.80353
-1.745
-1.75944
-1.88993
-1.95863
-2.09299
-2.12649
-1.96055
-1.7584
-1.47709
-1.2385
-1.09969
-0.938965
-1.01843
-1.24928
-1.55712
-2.77611
-2.45594
-1.99752
-1.84247
-1.63442
-1.57642
-1.62159
-1.71971
-1.74614
-1.95526
-1.90075
-1.78592
-1.66198
-1.43641
-1.19102
-1.08351
-0.950743
-0.979412
-1.24255
-1.4684
-2.3785
-2.12397
-1.72517
-1.5952
-1.55969
-1.38269
-1.43647
-1.56063
-1.5889
-1.7121
-1.67091
-1.71692
-1.43172
-1.33333
-1.06812
-0.98777
-1.00355
-0.914002
-1.14381
-1.33934
-2.02513
-1.76127
-1.53275
-1.30707
-1.14719
-1.27545
-1.26706
-1.25832
-1.34177
-1.33564
-1.47919
-1.32502
-1.28082
-1.12675
-0.969391
-0.893656
-0.732271
-0.854329
-1.04875
-1.12881
-1.55854
-1.4318
-1.2827
-1.07928
-1.03138
-0.994547
-1.00791
-1.14987
-1.06842
-1.09557
-1.19489
-1.09197
-1.03104
-0.824658
-0.806707
-0.680835
-0.696832
-0.704673
-0.844827
-0.90632
-1.12676
-0.946849
-0.81323
-0.818453
-0.765873
-0.709555
-0.76179
-0.733357
-0.798035
-0.836213
-0.828945
-0.818463
-0.700022
-0.62253
-0.590609
-0.542778
-0.508575
-0.579748
-0.648687
-0.698666
-0.688767
-0.608314
-0.566184
-0.46191
-0.401369
-0.447775
-0.519457
-0.514243
-0.507732
-0.591126
-0.544166
-0.529786
-0.434348
-0.423063
-0.38789
-0.426422
-0.338615
-0.344868
-0.371609
-0.415896
-0.228478
-0.171676
-0.224472
-0.170961
-0.146409
-0.121179
-0.127957
-0.145728
-0.157317
-0.216179
-0.176648
-0.165974
-0.184081
-0.116675
-0.176777
-0.0614021
-0.128622
-0.0586946
-0.0538902
-0.0669405
-3.15209
-2.64873
-2.18971
-1.9022
-1.82288
-1.70205
-1.66271
-1.76646
-1.71855
-1.8095
-1.78162
-1.59157
-1.39373
-1.21251
-1.00432
-0.86079
-0.753457
-0.839965
-0.968808
-1.38124
-2.77347
-2.43315
-2.01816
-1.68936
-1.60563
-1.56481
-1.58298
-1.56087
-1.60558
-1.72249
-1.70352
-1.59318
-1.40179
-1.20993
-1.02706
-0.7814
-0.736379
-0.872136
-1.02295
-1.25115
-2.3798
-2.04043
-1.83116
-1.58865
-1.38632
-1.3615
-1.38337
-1.39841
-1.46498
-1.47917
-1.42555
-1.35851
-1.20083
-1.09482
-0.887677
-0.774251
-0.778165
-0.889093
-0.914542
-1.1558
-2.01444
-1.77108
-1.53184
-1.30246
-1.21155
-1.14011
-1.18607
-1.17779
-1.26484
-1.25857
-1.30457
-1.11928
-1.09842
-0.948362
-0.93707
-0.683022
-0.637353
-0.788842
-0.787452
-1.06021
-1.59092
-1.3802
-1.16689
-1.06377
-1.00297
-0.986673
-0.966814
-0.998405
-0.96547
-0.981473
-0.923939
-1.00189
-0.863395
-0.834114
-0.758025
-0.565602
-0.590947
-0.625534
-0.695985
-0.813594
-1.20208
-1.1086
-0.822161
-0.761303
-0.760419
-0.685213
-0.684797
-0.686756
-0.672445
-0.766486
-0.674141
-0.732464
-0.641272
-0.563497
-0.476204
-0.465336
-0.495707
-0.420478
-0.518333
-0.661164
-0.686369
-0.58698
-0.502236
-0.455627
-0.444003
-0.402549
-0.34416
-0.330314
-0.393849
-0.44411
-0.415049
-0.448937
-0.345741
-0.308636
-0.284826
-0.255284
-0.273387
-0.322835
-0.313525
-0.390417
-0.247935
-0.196433
-0.232785
-0.175537
-0.133444
-0.129796
-0.190549
-0.152873
-0.190205
-0.186369
-0.132736
-0.150988
-0.121371
-0.113294
-0.0458509
-0.132355
-0.142455
-0.113452
-0.136361
-0.0472963
-2.91718
-2.59959
-2.15596
-1.77394
-1.5484
-1.43791
-1.42457
-1.45174
-1.47879
-1.52334
-1.41103
-1.30823
-1.10851
-0.887048
-0.67107
-0.513149
-0.464729
-0.51234
-0.756878
-0.954377
-2.58346
-2.37593
-1.96758
-1.63728
-1.55212
-1.45592
-1.39295
-1.31756
-1.3569
-1.43117
-1.3501
-1.28615
-1.14713
-0.876495
-0.769064
-0.596043
-0.612976
-0.648555
-0.765428
-1.03423
-2.26203
-2.09706
-1.71797
-1.50622
-1.35659
-1.2357
-1.2631
-1.24423
-1.3444
-1.27273
-1.24499
-1.13238
-1.0571
-0.903762
-0.719811
-0.617708
-0.518624
-0.686591
-0.753583
-1.09039
-1.93791
-1.74925
-1.52458
-1.30546
-1.2077
-1.06029
-1.0311
-1.05573
-1.08048
-1.0811
-1.10634
-1.00188
-0.83504
-0.775378
-0.658462
-0.538117
-0.455633
-0.646025
-0.740274
-0.749087
-1.5532
-1.34464
-1.18701
-1.074
-0.946451
-0.932072
-0.807449
-0.79847
-0.885865
-0.853166
-0.803208
-0.803934
-0.740711
-0.682962
-0.539083
-0.488598
-0.465474
-0.443476
-0.588131
-0.776144
-1.18167
-0.973932
-0.859316
-0.790599
-0.661203
-0.597631
-0.617082
-0.696652
-0.643194
-0.635648
-0.610319
-0.593165
-0.551708
-0.498701
-0.424678
-0.355454
-0.292777
-0.393769
-0.425275
-0.549634
-0.683833
-0.638927
-0.47412
-0.473326
-0.40575
-0.371949
-0.305329
-0.366665
-0.347855
-0.333005
-0.396875
-0.3785
-0.409263
-0.367048
-0.164974
-0.182507
-0.225036
-0.293418
-0.304112
-0.386495
-0.226437
-0.24825
-0.212297
-0.107033
-0.109569
-0.164518
-0.132307
-0.105295
-0.145612
-0.0923717
-0.0754484
-0.123371
-0.116102
-0.114111
-0.0760607
-0.144849
-0.0664558
-0.119364
-0.081771
-0.0667705
-2.69488
-2.26878
-2.00097
-1.57565
-1.48252
-1.20037
-1.12277
-1.12939
-1.09878
-1.06173
-0.995326
-0.888758
-0.67435
-0.507082
-0.231793
-0.0949659
-0.128161
-0.257816
-0.399005
-0.670909
-2.46413
-2.19292
-1.81387
-1.54889
-1.23834
-1.21219
-1.19985
-1.09229
-1.00725
-1.11574
-1.01334
-0.872759
-0.70148
-0.571466
-0.397169
-0.306023
-0.147725
-0.25323
-0.416956
-0.713208
-2.19585
-1.89854
-1.64163
-1.39293
-1.22835
-1.00533
-0.996027
-1.03662
-0.980828
-0.981907
-0.902384
-0.840954
-0.802987
-0.599698
-0.427968
-0.274969
-0.365416
-0.433689
-0.486033
-0.734227
-1.8309
-1.53599
-1.39289
-1.16935
-1.11658
-0.926374
-0.909231
-0.86121
-0.874337
-0.835751
-0.891536
-0.661824
-0.6248
-0.556423
-0.399209
-0.330047
-0.316575
-0.40851
-0.480043
-0.685126
-1.50476
-1.31565
-1.12162
-0.984401
-0.841221
-0.871273
-0.678365
-0.721921
-0.691591
-0.764769
-0.701088
-0.68187
-0.478174
-0.44092
-0.371856
-0.387129
-0.254763
-0.302357
-0.404713
-0.559345
-1.07736
-0.905888
-0.76248
-0.696266
-0.588148
-0.606598
-0.527217
-0.56978
-0.545953
-0.492757
-0.512441
-0.40592
-0.37758
-0.334874
-0.271351
-0.327836
-0.282769
-0.308823
-0.304871
-0.393928
-0.67489
-0.572368
-0.563522
-0.454213
-0.359613
-0.378209
-0.379638
-0.284482
-0.402283
-0.280876
-0.361024
-0.318076
-0.252955
-0.176395
-0.175691
-0.16555
-0.12872
-0.19357
-0.242775
-0.321116
-0.158089
-0.238202
-0.225975
-0.133483
-0.151513
-0.0786987
-0.0512894
-0.151003
-0.0966914
-0.094338
-0.0226292
-0.0485907
-0.0786047
-0.0778587
-0.0211091
0.026808
-0.0440903
-0.11295
-0.131324
-0.0966763
-2.43432
-2.08146
-1.67854
-1.31247
-1.14874
-0.949643
-0.805017
-0.731637
-0.769376
-0.668267
-0.597562
-0.337271
-0.256005
-0.0153741
0.066937
0.2262
0.22062
0.222081
0.0333383
-0.249974
-2.25214
-1.95369
-1.55957
-1.27019
-1.08362
-0.955201
-0.831593
-0.775058
-0.766898
-0.72899
-0.660754
-0.461329
-0.339209
-0.169894
-0.0324987
0.114907
0.104006
0.045481
-0.13722
-0.350459
-1.99487
-1.75837
-1.4608
-1.24088
-1.05003
-0.880951
-0.834527
-0.764741
-0.708894
-0.579796
-0.550313
-0.502236
-0.30982
-0.241564
-0.13658
-0.0646522
-0.0119163
-0.110774
-0.37718
-0.508776
-1.71719
-1.47844
-1.24516
-1.09993
-0.868208
-0.78035
-0.649752
-0.671085
-0.657214
-0.616882
-0.525275
-0.48073
-0.36054
-0.239416
-0.198384
-0.065613
-0.128195
-0.18437
-0.360428
-0.495242
-1.34098
-1.15354
-0.981689
-0.830755
-0.796196
-0.626213
-0.621361
-0.547646
-0.559542
-0.472442
-0.468656
-0.390852
-0.288863
-0.282893
-0.169358
-0.0358769
-0.162355
-0.290111
-0.251905
-0.445661
-1.04397
-0.878102
-0.813853
-0.658979
-0.541379
-0.500904
-0.468943
-0.388686
-0.401551
-0.297716
-0.331234
-0.27143
-0.253823
-0.21677
-0.15442
-0.108656
-0.0578925
-0.023453
-0.221154
-0.293575
-0.623611
-0.479174
-0.415559
-0.35195
-0.341766
-0.228285
-0.301112
-0.263677
-0.233273
-0.185222
-0.215467
-0.236141
-0.12059
-0.16596
-0.166145
-0.0961439
-0.0418436
-0.0684021
-0.183623
-0.156076
-0.146218
-0.163762
-0.136428
-0.0757183
-0.0704366
-0.112665
-0.0667253
-0.12353
-0.122116
-0.0972943
-0.0454319
-0.010569
-0.0310197
-0.0164261
-0.0073134
-0.0420548
-0.0384211
-0.0848932
-0.0301339
-0.0306812
-2.1258
-1.80944
-1.42257
-1.03829
-0.798567
-0.529441
-0.435294
-0.380937
-0.278552
-0.178706
-0.0527315
0.0263857
0.222345
0.393579
0.624173
0.649417
0.612903
0.560058
0.356564
0.211311
-2.08419
-1.77419
-1.33946
-1.06446
-0.777375
-0.648708
-0.500467
-0.474205
-0.356542
-0.277312
-0.229737
-0.0837695
0.0626738
0.102979
0.354482
0.440041
0.430145
0.329862
0.120201
-0.0476119
-1.83795
-1.55815
-1.28751
-0.987778
-0.877377
-0.64086
-0.529377
-0.530619
-0.425338
-0.34048
-0.286657
-0.191509
-0.0638664
0.0321302
0.129197
0.22603
0.301432
0.165848
-0.0279652
-0.233123
-1.56033
-1.25722
-1.0173
-0.890192
-0.689741
-0.562259
-0.477493
-0.511467
-0.339252
-0.395837
-0.309733
-0.272354
-0.118927
-0.0727871
0.123317
0.0732072
0.11913
0.0913557
-0.146546
-0.317917
-1.17851
-1.06755
-0.940793
-0.715902
-0.586244
-0.571797
-0.417975
-0.408524
-0.372842
-0.319354
-0.254555
-0.236056
-0.174511
0.0101517
-0.0540402
0.094611
0.0225675
-0.0724451
-0.155463
-0.260505
-0.833664
-0.733526
-0.570586
-0.57098
-0.431156
-0.362219
-0.330548
-0.219767
-0.322005
-0.240503
-0.184252
-0.167291
-0.168409
-0.0474829
-0.0591721
-0.112315
-0.0537103
-0.05056
-0.106414
-0.266824
-0.615487
-0.469477
-0.331888
-0.357967
-0.195639
-0.241296
-0.211663
-0.19779
-0.171407
-0.163267
-0.15301
-0.0676913
-0.0937539
0.00412252
-0.0404177
-0.0420575
-0.00885434
-0.0621154
-0.0689691
-0.135544
-0.183391
-0.162922
-0.122226
-0.0807661
-0.122875
-0.109807