/*--------------------------------*- C++ -*----------------------------------*\
| =========                 |                                                 |
| \\      /  F ield         | OpenFOAM: The Open Source CFD Toolbox           |
|  \\    /   O peration     | Version:  2212                                  |
|   \\  /    A nd           | Website:  www.openfoam.com                      |
|    \\/     M anipulation  |                                                 |
\*---------------------------------------------------------------------------*/
FoamFile
{
    version     2.0;
    format      ascii;
    arch        "LSB;label=32;scalar=64";
    class       volScalarField;
    location    "0";
    object      relativeErrorField;
}
// * * * * * * * * * * * * * * * * * * * * * * * * * * * * * * * * * * * * * //

dimensions      [0 0 0 1 0 0 0];

internalField   nonuniform List<scalar> 
3200
(
0.00130115
0.00102362
0.00263363
0.00378389
0.00415327
0.00402824
0.00386865
0.00313198
0.00263558
0.00241348
0.00214209
0.0020622
0.00192785
0.00224746
0.00237432
0.00234884
0.00207393
0.00106578
0.000600666
0.00240325
0.00120568
0.000690279
0.00213735
0.00307644
0.00365619
0.00342502
0.00292295
0.0025634
0.00212245
0.00187162
0.00160428
0.00173155
0.00136579
0.0014311
0.00149457
0.00175662
0.00143685
0.000664362
0.000923596
0.00240608
0.00125045
0.000360617
0.0016966
0.00268702
0.00280477
0.00281547
0.00249767
0.00215489
0.00157927
0.00140071
0.00110102
0.00102975
0.000980306
0.00117986
0.00118146
0.00145606
0.00070425
0.000246747
0.000895509
0.00205232
0.000798946
0.00023707
0.00161538
0.00196073
0.00249923
0.00219067
0.00194324
0.0017448
0.00120928
0.000921965
0.000904186
0.000605843
0.000579956
0.00104364
0.000858346
0.000857109
0.000575175
0.000128391
0.000894548
0.00224833
0.000802834
0.000189646
0.000695813
0.00151707
0.00165863
0.0015813
0.00138235
0.00126922
0.000752495
0.000609956
0.00042544
0.000662218
0.000443429
0.000445493
0.000395777
0.000664325
0.000682957
0.000123947
0.000901591
0.00155539
0.000628481
0.000100827
0.000686834
0.000831941
0.000990694
0.00118472
0.000935246
0.000806358
0.000664392
0.000472206
0.000443919
5.26177e-06
0.000241482
0.000573331
0.000289238
0.000194569
0.000201059
0.000122453
0.000434148
0.00130423
0.000562759
2.63479e-05
0.000477396
0.000828872
0.000783184
0.000751978
0.000562882
0.000596038
0.000182333
0.000254706
9.96505e-05
0.000154384
0.000172228
0.000167797
0.000246055
0.000389863
0.000188058
0.000245882
0.000455113
0.000716365
0.000175298
0.000164429
6.19403e-05
0.000183036
0.000343705
0.000516903
9.45834e-05
0.000359408
0.000113899
0.000181762
1.41664e-05
0.000198879
3.93081e-05
2.14154e-05
0.000138123
8.60715e-05
0.000370386
6.73423e-05
4.06442e-05
0.000254924
0.00138373
0.000425437
0.00233334
0.003462
0.00369536
0.0035199
0.00331057
0.00251666
0.00201657
0.00170785
0.00127953
0.00120004
0.00119215
0.00155795
0.00186877
0.00197314
0.00159208
0.000766499
0.00048793
0.00233409
0.00144245
0.000532109
0.0019334
0.00278686
0.00300021
0.0027385
0.00258455
0.00223671
0.00172739
0.0012893
0.000808456
0.000819878
0.000927189
0.00107714
0.00115259
0.00135898
0.00100989
0.000379809
0.000790544
0.00251127
0.00127968
0.00020689
0.00153976
0.00247808
0.00267979
0.00219901
0.00207861
0.0014995
0.00127405
0.000633262
0.000683304
0.00064634
0.00055458
0.000434604
0.000837244
0.000873203
0.000807417
0.000262675
0.000930359
0.00242195
0.00110168
0.000241591
0.00116272
0.0016997
0.00214142
0.00185193
0.00175547
0.00120397
0.000904621
0.000484368
0.000456633
0.000303482
0.000223882
0.000421259
0.000626313
0.000704865
0.000559992
0.000190908
0.00100542
0.00225843
0.001168
0.000106831
0.000938011
0.00141519
0.00143147
0.00133568
0.00132422
0.00110632
0.000709699
0.0003986
0.000285718
0.000180271
8.58909e-05
0.000264154
0.000200478
0.000120896
0.000130492
0.000497202
0.000858371
0.00180204
0.000657787
4.88993e-05
0.000384135
0.00107952
0.000750136
0.000869587
0.000720244
0.000638434
0.000377593
0.000119592
0.000177638
6.55216e-05
0.000258455
6.36077e-05
8.48916e-05
0.000244766
0.000123966
0.000249638
0.000811605
0.00132412
0.000395556
3.91646e-05
0.00049285
0.00042073
0.000838922
0.000569866
0.000368811
0.00010832
0.000290134
0.000191693
0.000284159
0.000226851
0.000101013
1.26666e-05
0.000335855
0.000248268
0.000391915
4.17177e-05
0.000399124
0.000821577
0.000355768
7.464e-05
0.000121476
0.000211169
0.000358672
0.000222949
0.000105573
0.000305151
0.000136634
0.000158373
3.62795e-06
0.000343118
9.85012e-05
0.00015041
8.81129e-06
0.000296989
0.000127413
3.4922e-05
0.000111554
0.000375546
0.00197778
9.17602e-05
0.00185623
0.00278232
0.0034173
0.00292091
0.00247438
0.00154458
0.00115809
0.000489253
0.000525967
8.4287e-05
0.000259545
0.000713275
0.000878887
0.00113788
0.00105184
0.000534319
0.000847429
0.00276722
0.00180191
9.32872e-05
0.00140819
0.00222691
0.00231393
0.00208825
0.00185847
0.00115941
0.000621952
5.01819e-05
4.75808e-05
0.000187213
5.90098e-05
0.000337836
0.000516573
0.000723663
0.00069078
2.55204e-05
0.00110608
0.00291041
0.00158552
9.11825e-05
0.00105818
0.00179358
0.00191294
0.00153999
0.00138859
0.000812025
0.000448988
0.000205501
0.00032767
0.000500445
0.000245981
0.000129423
0.00017005
0.000825445
0.000531285
6.66471e-05
0.00124199
0.0027031
0.0013823
1.20257e-05
0.000910194
0.00110377
0.00133307
0.00129849
0.00135429
0.00079215
0.00041612
9.77119e-05
0.000295212
0.000391843
0.000328578
0.000252753
0.000451406
0.000345892
6.94575e-05
0.000346619
0.00119876
0.00215322
0.00125988
1.79091e-05
0.00061331
0.000994108
0.00116181
0.00101135
0.000949491
0.000341431
0.00031426
0.000121782
7.6616e-05
0.000335031
0.000188362
0.000276993
8.84139e-06
8.00174e-05
5.51532e-05
0.000429591
0.000963876
0.00198929
0.00107913
0.000525861
0.000326898
0.000691537
0.000563454
0.000688258
0.000765387
0.0002739
7.40282e-05
8.10947e-05
9.05441e-05
0.000166512
0.000172148
0.000108038
0.000213438
2.10109e-05
0.000371179
0.000380106
0.000758716
0.00140891
0.000775525
8.33618e-05
0.000346137
0.000417905
0.000557611
0.000647235
0.000327102
0.000237395
0.000132983
7.42939e-07
4.27852e-05
0.00018326
6.47586e-05
9.8122e-05
9.09687e-05
0.000131904
0.000248007
0.000416512
0.000544543
0.000689827
0.000178574
0.000206417
2.91213e-06
0.000110201
0.000258721
0.00033673
9.09043e-06
0.000190292
0.000247036
0.000269314
0.000127444
1.02283e-05
4.83185e-05
7.41366e-05
8.83781e-05
0.000188486
0.000260632
0.000221815
8.80825e-05
0.000105421
0.00268956
0.000642351
0.00104124
0.00215365
0.00224052
0.00192209
0.00126825
0.000664905
0.000136061
0.000406215
0.000901134
0.0010598
0.000665861
0.000343638
4.74849e-05
0.000487485
0.000488892
0.000227174
0.00144334
0.00303288
0.00256184
0.000627267
0.000638619
0.00137316
0.00154381
0.00125177
0.000840941
0.000631745
0.00027681
0.000763225
0.00117066
0.00105272
0.00092573
0.000608523
0.000199592
0.000296985
1.08171e-05
0.000299589
0.00141482
0.00314832
0.00222567
0.00064222
0.000740398
0.00120512
0.00141288
0.00106632
0.000574725
2.91744e-05
0.000452083
0.000729708
0.00123127
0.0010633
0.000874354
0.000867009
0.000450884
1.34094e-05
7.99472e-05
0.000701363
0.00174629
0.00291578
0.00199581
0.000532903
0.000442124
0.000674344
0.00096871
0.000711581
0.000480533
0.000273783
0.000523279
0.000953783
0.0011107
0.00106362
0.000828421
0.000966295
0.000379338
0.000151298
0.000460733
0.000728923
0.00151573
0.00228319
0.00138718
0.000658524
0.000274773
0.000929445
0.000662345
0.00056528
0.000372179
3.66959e-05
0.000397118
0.000675534
0.000926064
0.00101567
0.000704269
0.00073296
0.00022896
0.00057048
0.000374341
0.000891797
0.00122413
0.00203117
0.00104531
0.00050754
9.22549e-05
0.000608441
0.000707746
0.000297969
0.000225052
7.8557e-05
0.000145289
0.000615977
0.000690429
0.000541209
0.000649464
0.000575841
0.0006352
9.54954e-06
0.000330332
0.000489472
0.0011105
0.00127034
0.000675465
0.000567201
8.35066e-05
0.000253209
0.000450832
0.000167937
0.000271962
0.000134366
5.75174e-05
7.84292e-05
0.000265805
0.000314924
0.000410156
0.000246397
0.000252774
6.42853e-05
0.000398007
0.000374462
0.000597386
0.000927122
9.84937e-05
7.13976e-05
0.000120232
9.75906e-05
3.07515e-05
0.000111003
3.61327e-05
0.000285637
0.000113359
0.00012224
0.000197539
0.000224229
0.000258057
0.000152682
0.00010787
9.19957e-06
0.000116276
0.000326621
5.01367e-05
0.000267863
0.00360495
0.00164432
5.45857e-06
0.0012377
0.00093279
0.000747923
9.70736e-05
0.000781388
0.00111793
0.00201618
0.00243044
0.00223236
0.00204362
0.0012689
0.000977325
0.000228824
0.000290933
0.000859602
0.00191311
0.00372287
0.00310853
0.00136784
9.12183e-05
0.00061876
0.000870448
0.000324091
0.000114972
0.00051431
0.00152766
0.00178034
0.00241472
0.00192962
0.00191858
0.00158605
0.0008795
0.00065234
0.000513025
0.00108128
0.00228463
0.00340323
0.00280369
0.0014083
3.31809e-05
0.000135074
0.000427537
0.000467415
0.000141043
0.000825635
0.00121586
0.00155357
0.00196284
0.00201711
0.00201411
0.00143572
0.000868644
0.000883579
0.000759751
0.00111744
0.00226975
0.00327039
0.0024279
0.00146127
0.000416088
0.00016622
0.000379779
4.64156e-05
0.000386402
0.0006593
0.000926293
0.00129524
0.00189563
0.00203229
0.00197024
0.00133605
0.0010438
0.000728694
0.000914318
0.00108331
0.00196454
0.00291582
0.00174314
0.000994775
0.000248928
0.000378661
0.000423312
0.000258666
0.000206117
0.000723938
0.00119454
0.00154211
0.00132969
0.00164847
0.00134023
0.00114223
0.000742618
0.000754147
0.000706172
0.00108133
0.00156291
0.00226179
0.00136784
0.000684585
0.000160276
0.000298582
0.000420711
0.000231602
0.000285416
0.000468352
0.000620128
0.000679867
0.00111491
0.00103477
0.000865269
0.00073163
0.00056216
0.000543937
0.000465318
0.000747692
0.00111845
0.00190252
0.0010577
0.000514373
0.000336748
0.000108391
2.9916e-06
7.49944e-05
0.000288772
0.000352718
0.000624952
0.000655937
0.000637976
0.000835495
0.000620096
0.000561751
0.000543663
0.0006942
0.000248841
0.000546636
0.000846573
0.00125132
0.000266124
0.000255626
0.000110901
2.64125e-05
1.57785e-05
0.000300383
0.000144352
0.000156673
0.000137994
0.000363036
6.84308e-06
0.000386219
0.000110238
0.000111958
0.000120585
0.000141592
0.000163371
0.000221039
0.000288781
0.000376645
0.00441646
0.00273068
0.00101309
0.000315913
0.000145612
0.00025445
0.00100714
0.00186466
0.00282957
0.00325101
0.00363079
0.00365836
0.00290934
0.00243729
0.00158616
0.00122589
0.000951179
0.001471
0.0026378
0.00415792
0.00392585
0.00226264
0.00111529
0.000328014
0.000359205
0.000660735
0.0011272
0.00173603
0.00255018
0.003195
0.00338052
0.00338148
0.00303791
0.00234641
0.00160022
0.00124782
0.00111102
0.00189616
0.00265042
0.00383811
0.00344192
0.00236144
0.00111531
0.000422263
0.000197364
0.000798383
0.00118611
0.00148785
0.00222111
0.00292627
0.00298633
0.00334569
0.00278252
0.00239744
0.00201391
0.00158486
0.00166666
0.00160841
0.00256355
0.00355974
0.00284999
0.00197932
0.000933447
0.000315256
0.000230199
0.000506114
0.001054
0.00156079
0.00189055
0.00243906
0.00283198
0.00251467
0.00230334
0.00171408
0.00167356
0.00110273
0.00112642
0.00149309
0.00234281
0.00319765
0.00241085
0.00144677
0.000745046
0.000402747
0.00049321
0.000551218
0.000773942
0.00106969
0.0015665
0.00195845
0.00238911
0.00198894
0.00208747
0.00177524
0.00125903
0.00120361
0.00106844
0.00139461
0.00193017
0.0027275
0.00166704
0.00126257
0.000834184
0.000416905
9.7124e-05
0.000360607
0.000443774
0.000718813
0.00111583
0.00167908
0.00148628
0.00170759
0.00135936
0.00126026
0.00137206
0.000837597
0.000815028
0.000881641
0.00133459
0.00218555
0.00117074
0.000649409
0.00022888
0.000417146
0.000330504
0.000247901
0.000125287
0.000172836
0.000791006
0.000977578
0.00103221
0.000957719
0.000732778
0.000889551
0.000513476
0.000596203
0.000501308
0.000650111
0.000681321
0.00113864
0.000378493
0.000162061
4.47242e-05
0.000159519
0.000228158
5.22404e-05
0.000106432
0.000251369
0.000520785
0.000174205
0.000292261
0.00056005
0.000369902
0.000477783
0.000489843
2.67736e-05
0.000295387
0.000177492
0.000336352
0.000392877
0.00527065
0.00372163
0.00199948
0.0011863
0.00144625
0.00146577
0.00197231
0.00282129
0.00371678
0.00444626
0.00469137
0.0049635
0.00443095
0.00343896
0.00257622
0.00191963
0.0016742
0.00218998
0.0031787
0.00479062
0.00499215
0.0032349
0.00219961
0.00135943
0.0013986
0.00148505
0.0021418
0.0025327
0.00334299
0.00399403
0.00423184
0.00416438
0.00405343
0.00337301
0.00280208
0.00203921
0.00205485
0.00236951
0.00334306
0.00438708
0.00438851
0.00319219
0.00185777
0.000978389
0.00125861
0.00120013
0.00171726
0.00232987
0.00290593
0.00354211
0.00390554
0.00392001
0.00357557
0.00306977
0.00260367
0.00194438
0.00188461
0.00222203
0.00327759
0.00391431
0.00358333
0.00260074
0.00172019
0.00129758
0.00101843
0.00118141
0.00154855
0.00203464
0.0028644
0.0030273
0.00326057
0.00338209
0.00301256
0.00255787
0.00235875
0.00183024
0.00192865
0.00216034
0.00253127
0.00358646
0.00281877
0.00217298
0.00128296
0.00100116
0.000695825
0.00114308
0.00134204
0.00190664
0.00238892
0.00260219
0.00270284
0.00285917
0.00252491
0.00211581
0.0016865
0.00161123
0.00163666
0.00162463
0.00214925
0.00276744
0.00226584
0.00149927
0.00109406
0.000550586
0.000529926
0.000942211
0.000764519
0.00120839
0.00163163
0.0018656
0.0023596
0.0020447
0.00193525
0.00155148
0.00142777
0.00110475
0.00116294
0.00151049
0.00157704
0.0021968
0.00142794
0.000787996
0.000473034
0.000603066
0.000712047
0.000598288
0.000843774
0.000873255
0.000886926
0.00118888
0.00136598
0.000984893
0.0010242
0.00119173
0.000860276
0.000863492
0.000687975
0.000987392
0.00102348
0.00123953
0.000670941
0.000521939
0.000575603
0.000320354
0.000270487
0.000131523
0.000272819
6.04503e-05
0.000428525
8.67343e-05
0.000301076
0.000419202
0.000381294
0.000509779
0.000291465
0.000349653
0.000367772
0.000281669
0.00014864
0.000699626
0.00643944
0.00477595
0.00321891
0.00244286
0.00229134
0.00238234
0.00301427
0.00407684
0.00462312
0.00543126
0.00612989
0.00595197
0.00523309
0.00418943
0.00393203
0.00275009
0.00269344
0.00286389
0.00375552
0.005379
0.00555181
0.00433116
0.00317925
0.00236471
0.00222252
0.00227376
0.00299816
0.00373508
0.00436695
0.00510733
0.00538364
0.00519846
0.00479146
0.00395351
0.0033227
0.0029604
0.0026247
0.00282178
0.00368632
0.00485248
0.00526097
0.00396585
0.00276171
0.00189586
0.00214331
0.00219706
0.00262059
0.00321445
0.00376833
0.00435197
0.00466941
0.00453385
0.00443882
0.00365579
0.00324641
0.00271776
0.002622
0.00273331
0.00330923
0.00471526
0.00407308
0.00328462
0.0022764
0.00167995
0.00162916
0.00190115
0.00243862
0.00302356
0.00350653
0.00369422
0.0039565
0.00389755
0.00383331
0.00339667
0.00273063
0.00249059
0.00247715
0.0024908
0.00328324
0.00384247
0.00337087
0.00263454
0.00186959
0.00152982
0.00149408
0.00135619
0.00186487
0.00223029
0.00277515
0.00291493
0.00325915
0.00316508
0.00288935
0.0026493
0.00217483
0.00181396
0.00198954
0.00199753
0.00237797
0.00318375
0.00251026
0.00208375
0.00115844
0.0011475
0.00108611
0.00120146
0.00120302
0.0016681
0.00209177
0.0025045
0.00246035
0.00247582
0.00224691
0.00216593
0.00148655
0.00152886
0.00144101
0.00155963
0.00195566
0.00229429
0.00139719
0.00121575
0.000987939
0.000840003
0.000678116
0.00062445
0.000725419
0.00112763
0.0011447
0.00156996
0.00142829
0.00155522
0.00137958
0.00125191
0.00110003
0.00117357
0.000638833
0.00106788
0.00112392
0.00128028
0.000351176
0.000221656
0.000135613
0.000188538
0.000270263
0.000158859
0.000433635
0.000339496
0.00048762
0.000545348
0.000464081
0.000651833
0.000465459
0.000729779
0.000245238
0.000428334
0.000398381
0.00046914
0.000367127
0.000353825
0.00743545
0.00547949
0.00434606
0.0033264
0.00318531
0.00339215
0.00400053
0.00492553
0.00563669
0.00648733
0.0068638
0.00650366
0.00607381
0.00533134
0.00423418
0.00382756
0.00307496
0.00339255
0.0044928
0.00528037
0.00641402
0.00526057
0.00377098
0.00328052
0.00305456
0.00336591
0.0033983
0.00456986
0.00532126
0.00581851
0.00625578
0.00632797
0.00521786
0.00477797
0.00403251
0.00306284
0.00314
0.0032982
0.0043164
0.00507039
0.00573283
0.00467426
0.00376188
0.00297118
0.00262734
0.00280305
0.00345186
0.00401633
0.00455352
0.00514478
0.00539152
0.00542631
0.00504574
0.00399528
0.00364345
0.00319134
0.00299604
0.0032847
0.00370906
0.00447583
0.00491354
0.00399573
0.00319821
0.00260447
0.00247086
0.00250613
0.00320207
0.003364
0.00392892
0.00436273
0.00447014
0.00437587
0.00415183
0.00370427
0.00323312
0.00280638
0.00260522
0.00279842
0.00338928
0.00391123
0.0038462
0.00322129
0.00263759
0.00225208
0.00180687
0.00180283
0.00233574
0.00270775
0.00345573
0.0033552
0.00351946
0.00358948
0.00329128
0.00273869
0.00254467
0.0023244
0.00204204
0.00234589
0.00267611
0.00313189
0.00276344
0.00238309
0.00206212
0.00147392
0.00147993
0.00153458
0.00188471
0.0020909
0.00216185
0.00275061
0.00270746
0.00260965
0.00235703
0.00236885
0.00182117
0.00156941
0.00188487
0.00167185
0.00201032
0.00208225
0.00180413
0.0014204
0.00123215
0.000852825
0.000883223
0.00068372
0.00107796
0.00119314
0.00136404
0.00154054
0.00151377
0.00167084
0.00167807
0.00116635
0.00126009
0.000894851
0.00100043
0.000901918
0.00138122
0.00148489
0.000560876
0.000623916
0.000615507
0.000163819
0.000227209
0.00025715
0.000142187
0.0005825
0.000431783
0.000677146
0.000441479
0.000535321
0.000629305
0.000477438
0.00040152
0.000239205
0.000633823
0.000471308
0.0005888
0.000726492
0.00792491
0.00670444
0.00526067
0.00452118
0.00370919
0.00428922
0.00475718
0.00544987
0.00630069
0.00701067
0.0072981
0.0071265
0.00656255
0.00539232
0.00460656
0.00378756
0.00346694
0.00368374
0.00450797
0.00584284
0.00721307
0.00602446
0.00489619
0.00411805
0.00378977
0.00400402
0.00432281
0.00499145
0.00568756
0.00653412
0.00675201
0.00634379
0.00576969
0.00504923
0.00413515
0.00379696
0.00357755
0.00364669
0.00430638
0.00550455
0.00616694
0.00521325
0.00439515
0.0035914
0.0034441
0.00372222
0.00412983
0.00433751
0.00518038
0.00563502
0.00570535
0.00552116
0.00520067
0.00427378
0.00399316
0.00341559
0.00327142
0.00351958
0.00397799
0.00479543
0.00535554
0.0044552
0.00382369
0.00305811
0.00293102
0.00314168
0.003399
0.00409394
0.00436747
0.00463873
0.0048838
0.00488943
0.00428672
0.00409981
0.00345141
0.00298377
0.0030269
0.00314227
0.00355116
0.00411811
0.00433575
0.00361397
0.00286347
0.0023835
0.00252407
0.00234065
0.00284003
0.00325599
0.00342355
0.00385567
0.00417952
0.00388611
0.00383292
0.00314349
0.00277842
0.0024693
0.00219202
0.00240326
0.00287471
0.00337195
0.00325625
0.00275309
0.00218438
0.00182877
0.00161153
0.00199689
0.00225728
0.00204698
0.00278257
0.00265869
0.00284514
0.00271139
0.00277487
0.00234579
0.00178147
0.00173605
0.00179219
0.00191377
0.00215213
0.00244004
0.00202205
0.00177381
0.00131119
0.000982782
0.000863921
0.00108381
0.00151258
0.00148751
0.00153165
0.00186703
0.0018965
0.00184279
0.00167525
0.00145498
0.00123306
0.00125837
0.000922389
0.00133955
0.00146258
0.00164663
0.000637361
0.000366161
0.000438403
0.000651481
0.000244959
0.000259805
0.000507145
0.0006963
0.000625118
0.000498559
0.000739447
0.000590458
9.63732e-05
0.000321183
0.000488609
0.000358077
0.000167207
0.000383367
0.000433262
0.0005447
0.00890491
0.00732057
0.00595989
0.00522987
0.00447277
0.00500512
0.00512772
0.00599774
0.00656232
0.00740511
0.0074124
0.00733399
0.00678488
0.00565291
0.00452036
0.00410997
0.00356739
0.00391715
0.00456342
0.0056788
0.00802754
0.00660672
0.00562332
0.00460519
0.00434192
0.00453378
0.00482204
0.00557124
0.00643533
0.00661172
0.00699108
0.00692805
0.00624228
0.00518405
0.00450103
0.00386985
0.0038833
0.00393454
0.00444583
0.00533702
0.00687007
0.00574386
0.00494154
0.00449044
0.00390582
0.00430945
0.00431764
0.00496453
0.0054444
0.00586369
0.00621135
0.00580343
0.00554093
0.00462962
0.00386904
0.00356435
0.00332193
0.00390169
0.00424368
0.00495122
0.00571155
0.00485894
0.00411358
0.00381487
0.00330762
0.00344504
0.00370803
0.00439045
0.00464588
0.00506122
0.00506226
0.00482892
0.00478358
0.00419823
0.00347019
0.00319428
0.00300236
0.00323452
0.0036352
0.00441863
0.00454933
0.00396704
0.00331473
0.00293265
0.0026061
0.00274779
0.00306024
0.00327583
0.00366172
0.003986
0.00404409
0.00400293
0.00405687
0.00319546
0.00293368
0.00276841
0.00261394
0.00255139
0.0028062
0.00339951
0.00324139
0.00295555
0.00243482
0.00225948
0.0020143
0.00206548
0.00203174
0.00235822
0.00273299
0.00279517
0.00300325
0.00271543
0.00261378
0.00240583
0.00233252
0.00208085
0.00198024
0.00203446
0.00214664
0.00262505
0.00192484
0.00186695
0.00180904
0.00121612
0.00129855
0.00157136
0.0014072
0.00147423
0.00162963
0.00186301
0.0018314
0.00165217
0.00167644
0.001472
0.00131275
0.00145178
0.0012722
0.00130556
0.00153583
0.00178226
0.000739876
0.000536999
0.000345524
0.000539208
0.000319949
0.000353174
0.000299488
0.000390302
0.000384959
0.000389589
0.00059521
0.000498831
0.000557809
0.000459642
0.000398729
0.00043631
0.000699851
0.00055805
0.000600885
0.000494643
0.0093385
0.00778128
0.00643561
0.00590972
0.00531782
0.00536023
0.00537803
0.00607126
0.00680569
0.00711714
0.00748754
0.00729067
0.00649779
0.00570267
0.00470074
0.00404584
0.00394059
0.00380445
0.00472242
0.00568733
0.00852749
0.00722173
0.00607663
0.0055263
0.00491185
0.00497092
0.00525895
0.00590419
0.00633492
0.0066621
0.00681613
0.00657831
0.00595517
0.0053726
0.00431775
0.00411679
0.00371598
0.0037287
0.00434894
0.00544019
0.00724287
0.00628128
0.00536041
0.0047491
0.00470216
0.00441579
0.00475308
0.00506557
0.00559349
0.00606829
0.00598208
0.00583635
0.00537242
0.00496674
0.0040455
0.003758
0.00328908
0.00371938
0.00428077
0.004847
0.00614734
0.00550053
0.00452965
0.00409491
0.00371439
0.0037789
0.00400925
0.00412933
0.00486836
0.00493576
0.00522918
0.00516527
0.00461181
0.00430367
0.00382551
0.00298533
0.00313784
0.00326012
0.0035902
0.00423427
0.00474668
0.00430945
0.0036855
0.00327047
0.00323739
0.00300343
0.00326253
0.00365571
0.00379606
0.0039044
0.00392752
0.00382404
0.00359952
0.0032859
0.00282809
0.00271309
0.00271686
0.00246287
0.00301375
0.0034319
0.00388609
0.00306953
0.00259834
0.0022614
0.00222972
0.00200965
0.00250961
0.00248209
0.00280452
0.00276025
0.00309038
0.00276971
0.00266157
0.00225506
0.00236872
0.0019823
0.00200962
0.00191623
0.00208668
0.00251639
0.00214897
0.00180631
0.00184358
0.00115006
0.00147521
0.00155182
0.00143861
0.00134801
0.00161097
0.00186792
0.00201081
0.00192856
0.00161656
0.00148924
0.00109593
0.00101033
0.00125221
0.00121552
0.0016825
0.00162011
0.000652249
0.000599429
0.000593124
0.000352519
0.000522008
0.0004279
0.000233503
0.000629923
0.000527744
0.000698509
0.000823515
0.000670125
0.000600761
0.000535241
0.00077228
0.000384099
0.000388686
0.00027418
0.00060484
0.000477419
0.00944819
0.0079989
0.00676764
0.00619786
0.00565386
0.00552555
0.00565575
0.00596352
0.00649972
0.00704387
0.00735196
0.00722755
0.0060117
0.005297
0.00444095
0.00382939
0.00347376
0.00370893
0.00434765
0.00516729
0.00876092
0.00738544
0.00612946
0.00568632
0.00533125
0.0049193
0.00520012
0.00559692
0.0058559
0.0062654
0.00657367
0.00629186
0.00559641
0.00479493
0.00430138
0.00357174
0.0033605
0.00376147
0.00430443
0.00490261
0.00752329
0.00666693
0.00551562
0.00492134
0.00468554
0.00465249
0.00497581
0.00494754
0.00547309
0.00573017
0.00570266
0.00519952
0.00498885
0.00437448
0.003742
0.00353214
0.00308458
0.00363494
0.00417631
0.00441565
0.00625624
0.00553206
0.00457313
0.00434225
0.00383083
0.00383602
0.0039428
0.00458825
0.00471793
0.00498359
0.00482587
0.00488844
0.00426389
0.00398264
0.00347207
0.00321193
0.00284346
0.0028313
0.00342943
0.00397406
0.00508174
0.00447839
0.00400112
0.00368609
0.00321711
0.00310152
0.00316107
0.00337011
0.0037995
0.00387818
0.00417046
0.00392272
0.00343653
0.00336142
0.00273451
0.00261152
0.00252814
0.00267087
0.00285525
0.00328731
0.00387014
0.00359187
0.00276091
0.00222099
0.00247187
0.00234308
0.00235597
0.00262218
0.00271985
0.00296357
0.00286614
0.00300386
0.00247412
0.00219775
0.0019443
0.00184315
0.0016476
0.00189126
0.00229064
0.00238284
0.00207842
0.00187617
0.00187725
0.00146982
0.00141278
0.00145039
0.00160662
0.00183311
0.00162977
0.00172585
0.00151982
0.00174924
0.00169559
0.00128206
0.00119397
0.00151051
0.00119241
0.00102695
0.00150176
0.00186746
0.000593991
0.000524038
0.000406515
0.000428514
0.000263626
0.000286306
0.00073022
0.000426
0.000318317
0.000620317
0.000782375
0.000431735
0.000100111
0.000198123
0.000267453
0.000620158
0.000465916
0.000454237
0.000486919
0.000566827
0.00963771
0.00818236
0.00706256
0.00611617
0.00558279
0.00539965
0.00544257
0.00584469
0.00605603
0.00647086
0.00657442
0.00606197
0.00543791
0.00456916
0.00383236
0.00340407
0.00290769
0.00315502
0.0038717
0.00482726
0.00868592
0.00768207
0.00624603
0.0057592
0.00510712
0.0049243
0.00506397
0.00536917
0.00545079
0.00610311
0.00593296
0.00557497
0.00518891
0.0044857
0.00372042
0.00338569
0.00297183
0.00306252
0.00388663
0.00459432
0.00751182
0.00670644
0.00544566
0.00503388
0.0049204
0.00436079
0.00452934
0.00491986
0.00500829
0.00539625
0.00526642
0.00541181
0.00451347
0.00420411
0.0033687
0.00311614
0.00316685
0.00288514
0.00361158
0.00422994
0.00645689
0.00561457
0.00488494
0.00416463
0.00365435
0.00406201
0.00403447
0.00400599
0.00427119
0.00425142
0.00470834
0.00421785
0.00407764
0.00358772
0.00308727
0.00284672
0.00233319
0.00272278
0.00334321
0.00359908
0.00501737
0.00460872
0.00412802
0.0034727
0.00331794
0.00319888
0.00324136
0.0036974
0.00343521
0.00352234
0.00384166
0.00351091
0.00331531
0.00265203
0.0025947
0.00219024
0.00224213
0.0022678
0.00271935
0.0029177
0.00366302
0.00307782
0.00264313
0.00265973
0.00248852
0.00230523
0.00247465
0.00238207
0.00259199
0.0027159
0.0026923
0.00265834
0.0022738
0.00202227
0.00191879
0.00176363
0.00165272
0.00188428
0.00210862
0.00227132
0.00226143
0.00199716
0.00185869
0.00151624
0.00131741
0.00146961
0.00170475
0.00168755
0.00166612
0.00193974
0.00178564
0.00173848
0.00142536
0.00138841
0.00127306
0.00139964
0.00111152
0.00113214
0.00122003
0.00136552
0.000757721
0.000569332
0.000744399
0.00056693
0.000485498
0.000401823
0.000424289
0.000483206
0.000521629
0.000716795
0.000585721
0.000550332
0.000610379
0.00038688
0.000586184
0.000203612
0.000426528
0.000194644
0.000178717
0.000222001
0.00974471
0.00818617
0.00676513
0.00587473
0.00562774
0.00525299
0.00513008
0.00544892
0.00530026
0.00558028
0.00549433
0.00490862
0.00429916
0.00374105
0.00309961
0.0026575
0.00232696
0.00259508
0.0029942
0.00427013
0.00865653
0.00759242
0.00629553
0.00526817
0.0050055
0.00487684
0.00493222
0.00486234
0.0050009
0.00536464
0.00530557
0.00496228
0.00436678
0.00376987
0.00320089
0.00243599
0.00229635
0.00272058
0.00319202
0.00390506
0.00750027
0.00642937
0.00576843
0.00500312
0.00436478
0.00428555
0.00435346
0.00440001
0.00460891
0.00465327
0.00448458
0.00427396
0.00377834
0.00344541
0.00279412
0.0024377
0.00245067
0.00280078
0.00288171
0.00364266
0.00641175
0.00563617
0.00487379
0.00414305
0.00385303
0.00362508
0.00377053
0.00374367
0.00401995
0.00399984
0.00414602
0.00355732
0.00349139
0.00301486
0.0029795
0.00217217
0.00202738
0.00250982
0.00250594
0.00337453
0.0051147
0.00443665
0.00375033
0.00341829
0.00322239
0.0031695
0.00310527
0.00320638
0.00310036
0.00315162
0.00296687
0.00321732
0.00277279
0.00267906
0.00243501
0.00181718
0.00189894
0.00201044
0.00223725
0.00261565
0.00390404
0.0036001
0.0026696
0.00247167
0.00246849
0.0022241
0.00222252
0.00222869
0.00218213
0.00248723
0.00218757
0.0023769
0.00208109
0.00182884
0.00154568
0.00151058
0.00160937
0.00136531
0.00168326
0.00214729
0.00225221
0.00192598
0.00164779
0.00149476
0.00145652
0.00132043
0.00112884
0.00108337
0.00129171
0.00145652
0.00136121
0.00147238
0.00113397
0.00101232
0.000934282
0.000837439
0.000896892
0.00105919
0.00102873
0.00128109
0.000822082
0.000651304
0.000771816
0.000581989
0.00044242
0.000430316
0.00063172
0.000506803
0.000630559
0.000617837
0.000440037
0.000500547
0.00040237
0.000375598
0.00015201
0.000438811
0.000472308
0.000376158
0.000452124
0.000156821
0.00899178
0.00801072
0.0066415
0.00546287
0.00476676
0.00442531
0.00438312
0.00446579
0.00454834
0.004685
0.00433962
0.00402375
0.00340995
0.00272928
0.00206529
0.00157974
0.00143114
0.00157828
0.00233234
0.00294173
0.00804254
0.00739479
0.00612211
0.00509291
0.00482665
0.00452631
0.00432957
0.00409449
0.00421621
0.00444668
0.00419482
0.00399638
0.00356486
0.00272432
0.00239095
0.00185352
0.00190672
0.00201798
0.0023823
0.00321966
0.00711328
0.00659327
0.00540008
0.00473332
0.00426207
0.00388138
0.00396671
0.00390683
0.00422089
0.00399566
0.00390857
0.00355524
0.00331925
0.00283822
0.00226096
0.00194068
0.00162978
0.00215815
0.0023693
0.00342889
0.00615683
0.00555657
0.00484195
0.00414519
0.00383401
0.0033654
0.00327224
0.00334998
0.00342819
0.00343002
0.00351009
0.00317881
0.00264969
0.0024607
0.00208999
0.00170832
0.00144676
0.00205173
0.00235152
0.00237988
0.00498622
0.00431615
0.00380958
0.00344633
0.00303657
0.00299001
0.0025899
0.00256084
0.00284093
0.00273596
0.00257575
0.00257818
0.00237559
0.0021906
0.00172933
0.00156761
0.00149365
0.00142329
0.00188784
0.00249164
0.00383376
0.00315951
0.00278738
0.00256418
0.00214426
0.0019379
0.00200079
0.00225861
0.00208519
0.00206068
0.00197856
0.001923
0.00178869
0.00161696
0.00137708
0.00115273
0.000949577
0.00127728
0.00137963
0.00178321
0.00224247
0.0020951
0.00155458
0.00155187
0.00133022
0.00121933
0.00100088
0.00120189
0.00114019
0.0010915
0.00130085
0.00124064
0.00134151
0.00120319
0.000540819
0.000598333
0.000737812
0.000962082
0.000997214
0.00126742
0.000750639
0.000822936
0.000703738
0.000354793
0.00036319
0.000545317
0.000438544
0.000349003
0.000482629
0.000306164
0.000250072
0.000408912
0.000384823
0.00037823
0.000252114
0.000480133
0.000220287
0.000395677
0.000271066
0.000221344
0.00828077
0.00696974
0.00614521
0.00483752
0.00455026
0.0036833
0.00344438
0.00346405
0.00336974
0.00325587
0.00305225
0.00272563
0.00206836
0.0015556
0.000711249
0.000291477
0.000393478
0.00079178
0.00122575
0.00206155
0.00765019
0.00680676
0.00562875
0.0048052
0.00384079
0.00375881
0.00371978
0.00338576
0.00312181
0.00345786
0.00314051
0.00270498
0.00217438
0.00177166