/*--------------------------------*- C++ -*----------------------------------*\
| =========                 |                                                 |
| \\      /  F ield         | OpenFOAM: The Open Source CFD Toolbox           |
|  \\    /   O peration     | Version:  2212                                  |
|   \\  /    A nd           | Website:  www.openfoam.com                      |
|    \\/     M anipulation  |                                                 |
\*---------------------------------------------------------------------------*/
FoamFile
{
    version     2.0;
    format      ascii;
    arch        "LSB;label=32;scalar=64";
    class       volScalarField;
    location    "0";
    object      stateMean;
}
// * * * * * * * * * * * * * * * * * * * * * * * * * * * * * * * * * * * * * //

dimensions      [0 0 0 1 0 0 0];

internalField   nonuniform List<scalar> 
3200
(
330.408
329.366
328.558
328.024
327.877
327.85
328.022
328.104
328.362
328.301
328.298
328.225
327.87
327.445
327.2
326.866
326.799
327.001
327.677
328.522
326.228
325.454
324.68
324.274
324.129
324.118
324.287
324.36
324.514
324.569
324.467
324.413
324.066
323.842
323.479
323.242
323.179
323.434
323.948
324.614
322.112
321.392
320.859
320.576
320.432
320.419
320.46
320.635
320.74
320.718
320.624
320.585
320.358
320.079
319.876
319.623
319.6
319.751
320.226
320.785
318.149
317.556
317.129
316.753
316.681
316.639
316.829
316.832
316.893
316.906
316.942
316.801
316.66
316.453
316.247
316.065
316.027
316.159
316.605
316.943
314.041
313.591
313.248
313.031
312.974
312.958
313.041
313.052
313.216
313.168
313.151
313.004
312.866
312.761
312.592
312.461
312.416
312.661
312.908
313.246
310.026
309.796
309.471
309.334
309.288
309.265
309.265
309.395
309.431
309.321
309.367
309.222
309.281
309.145
308.994
308.912
308.896
309.024
309.185
309.368
306.049
305.845
305.598
305.546
305.548
305.586
305.626
305.651
305.713
305.623
305.634
305.614
305.537
305.416
305.441
305.38
305.394
305.394
305.512
305.666
301.923
301.968
301.849
301.859
301.853
301.797
301.872
301.9
301.879
301.863
301.891
301.924
301.902
301.83
301.817
301.789
301.807
301.778
301.802
301.908
330.438
329.404
328.666
328.213
328.086
327.986
328.116
328.385
328.483
328.575
328.49
328.402
328.062
327.679
327.355
327.036
326.925
327.14
327.799
328.581
326.363
325.408
324.84
324.364
324.242
324.262
324.396
324.576
324.681
324.73
324.649
324.533
324.311
323.928
323.623
323.386
323.392
323.503
324.034
324.66
322.254
321.493
320.991
320.591
320.457
320.579
320.603
320.721
320.884
320.968
320.91
320.746
320.565
320.178
319.995
319.751
319.641
319.869
320.341
320.9
318.101
317.591
317.116
316.801
316.749
316.754
316.844
317
317.034
316.986
317.018
317.013
316.7
316.655
316.324
316.064
316.051
316.285
316.55
316.963
314.097
313.605
313.356
313.039
313.021
313.073
313.107
313.117
313.215
313.248
313.175
313.162
312.982
312.887
312.731
312.511
312.551
312.677
312.894
313.283
310.02
309.786
309.531
309.416
309.321
309.332
309.296
309.312
309.448
309.411
309.512
309.359
309.369
309.184
309.073
308.964
308.992
309.021
309.155
309.402
305.992
305.814
305.71
305.575
305.587
305.593
305.678
305.709
305.68
305.65
305.655
305.638
305.552
305.521
305.452
305.37
305.447
305.471
305.482
305.687
302.092
301.959
301.952
301.91
301.806
301.905
301.928
301.92
301.895
301.859
301.883
301.835
301.842
301.867
301.791
301.795
301.824
301.814
301.822
301.882
330.663
329.676
328.893
328.345
328.266
328.295
328.584
328.749
328.832
328.971
328.973
328.814
328.418
328.081
327.695
327.307
327.238
327.421
327.973
328.772
326.457
325.692
324.927
324.601
324.519
324.573
324.666
324.825
324.95
325.022
325.023
324.801
324.58
324.232
323.949
323.682
323.516
323.776
324.228
324.916
322.288
321.593
321.155
320.778
320.624
320.731
320.864
321.003
321.114
321.234
321.174
321.041
320.817
320.45
320.143
319.939
319.905
320.064
320.474
321.032
318.213
317.759
317.156
317.034
316.868
317.04
317.112
317.169
317.24
317.279
317.33
317.182
316.997
316.73
316.55
316.376
316.266
316.361
316.729
317.171
314.129
313.746
313.402
313.235
313.135
313.183
313.297
313.184
313.424
313.516
313.403
313.343
313.246
313.018
312.861
312.762
312.582
312.762
312.982
313.263
310.106
309.768
309.589
309.354
309.318
309.318
309.491
309.458
309.546
309.593
309.593
309.557
309.439
309.235
309.209
309.097
309.011
309.076
309.294
309.511
306.124
305.951
305.693
305.692
305.655
305.626
305.734
305.71
305.755
305.838
305.785
305.778
305.671
305.612
305.472
305.426
305.445
305.382
305.587
305.647
302.038
301.983
301.878
301.926
301.927
301.906
301.868
301.906
301.875
301.887
301.843
301.968
301.853
301.901
301.828
301.75
301.781
301.839
301.88
301.936
330.945
329.962
329.182
328.848
328.673
328.734
328.998
329.188
329.369
329.514
329.539
329.307
328.927
328.492
328.145
327.768
327.707
327.713
328.362
329.114
326.747
325.921
325.295
324.948
324.811
324.836
325.037
325.238
325.395
325.492
325.425
325.305
325.049
324.691
324.319
323.92
323.909
324.105
324.543
325.182
322.559
321.918
321.346
320.988
320.93
321.047
321.149
321.244
321.5
321.551
321.623
321.366
321.14
320.871
320.516
320.326
320.159
320.317
320.714
321.221
318.382
317.937
317.477
317.19
317.186
317.175
317.295
317.503
317.467
317.588
317.574
317.451
317.323
316.998
316.765
316.572
316.54
316.588
316.955
317.468
314.325
313.911
313.52
313.279
313.331
313.323
313.37
313.568
313.552
313.634
313.659
313.572
313.446
313.212
313.042
312.868
312.847
312.904
313.211
313.449
310.254
309.965
309.755
309.582
309.509
309.591
309.617
309.642
309.724
309.692
309.766
309.761
309.643
309.463
309.362
309.26
309.102
309.234
309.324
309.574
306.061
306.01
305.767
305.672
305.731
305.702
305.823
305.804
305.813
305.911
305.8
305.807
305.765
305.683
305.614
305.537
305.438
305.506
305.666
305.82
302.005
302.019
301.952
301.904
301.879
301.933
301.909
302.02
301.922
301.933
301.997
301.95
301.931
301.967
301.804
301.844
301.772
301.819
301.887
301.934
331.468
330.461
329.738
329.369
329.221
329.23
329.477
329.706
330.005
330.113
330.065
329.888
329.655
329.183
328.658
328.343
328.275
328.336
328.91
329.661
327.214
326.358
325.759
325.308
325.3
325.299
325.496
325.675
325.93
326.021
326.105
325.807
325.588
325.207
324.884
324.554
324.447
324.588
324.958
325.665
322.907
322.247
321.759
321.482
321.331
321.439
321.521
321.692
321.872
321.97
322.011
321.82
321.599
321.322
320.952
320.628
320.624
320.752
321.089
321.667
318.681
318.226
317.793
317.539
317.432
317.507
317.593
317.773
317.846
317.898
317.932
317.829
317.621
317.412
317.089
316.872
316.838
316.97
317.214
317.684
314.525
314.155
313.77
313.568
313.591
313.598
313.628
313.743
313.829
313.959
313.93
313.893
313.639
313.477
313.276
313.162
313.133
313.155
313.45
313.687
310.379
310.129
309.905
309.65
309.69
309.69
309.822
309.822
309.949
309.914
310.005
309.845
309.778
309.627
309.457
309.394
309.373
309.33
309.541
309.829
306.197
305.976
305.942
305.788
305.843
305.82
305.84
305.914
305.884
305.943
306.038
305.927
305.835
305.768
305.684
305.527
305.59
305.63
305.706
305.895
302.126
302.08
302.035
301.823
301.879
301.828
301.946
301.992
302.057
302.066
302.018
302.004
301.963
301.918
301.884
301.899
301.877
301.888
301.972
302.038
332.122
331.051
330.394
330.021
329.805
329.855
330.105
330.272
330.57
330.793
330.808
330.664
330.248
329.879
329.393
329.088
328.939
329.055
329.645
330.288
327.673
326.952
326.309
325.873
325.776
325.887
326.056
326.255
326.448
326.57
326.684
326.477
326.232
325.818
325.473
325.187
325.04
325.13
325.535
326.163
323.345
322.727
322.225
321.927
321.691
321.853
322.021
322.189
322.288
322.491
322.523
322.289
322.049
321.766
321.517
321.267
321.084
321.228
321.554
322.07
319.041
318.649
318.109
317.936
317.801
317.821
317.902
318.086
318.293
318.312
318.354
318.246
318.056
317.875
317.579
317.346
317.27
317.373
317.667
317.981
314.757
314.4
314.028
313.809
313.847
313.91
314.007
314.028
314.162
314.246
314.215
314.152
314.013
313.756
313.565
313.457
313.436
313.452
313.652
313.892
310.633
310.277
310.031
309.984
309.886
309.851
310.005
310.046
310.138
310.187
310.136
310.113
310.059
309.87
309.691
309.59
309.518
309.651
309.786
309.975
306.286
306.176
306.028
305.98
305.952
305.917
305.983
306.036
306.075
306.134
306.092
306.096
306.036
305.963
305.864
305.79
305.773
305.746
305.844
306.041
302.105
302.046
301.994
302.041
301.965
301.997
302.044
302.023
301.99
302.056
301.972
302.061
302.077
302.049
301.939
301.878
301.989
301.979
302.01
301.928
332.782
331.853
331.145
330.69
330.569
330.711
330.768
331.078
331.373
331.486
331.612
331.411
331.137
330.583
330.222
329.915
329.721
329.895
330.294
330.993
328.316
327.569
326.972
326.568
326.389
326.505
326.741
326.873
327.02
327.259
327.225
327.142
326.871
326.453
326.125
325.783
325.705
325.855
326.22
326.832
323.787
323.21
322.7
322.41
322.312
322.341
322.448
322.67
322.932
323.003
322.944
322.866
322.687
322.369
322.036
321.663
321.658
321.849
322.191
322.585
319.404
318.969
318.556
318.219
318.223
318.216
318.382
318.554
318.634
318.774
318.779
318.747
318.525
318.272
317.91
317.805
317.656
317.844
318.049
318.452
315.142
314.697
314.447
314.266
314.172
314.246
314.258
314.44
314.502
314.587
314.564
314.488
314.311
314.179
313.949
313.796
313.817
313.868
314.002
314.31
310.798
310.496
310.301
310.1
310.106
310.115
310.221
310.277
310.354
310.394
310.372
310.287
310.294
310.146
309.947
309.861
309.876
309.843
310.044
310.14
306.477
306.288
306.225
306.089
306.015
306.055
306.086
306.204
306.242
306.221
306.235
306.188
306.179
306.113
305.987
305.937
305.889
305.957
305.974
306.133
302.167
302.136
302.115
302.07
301.982
302.014
302.098
302.039
302.087
302.02
302.065
302.067
302.114
302.025
301.989
302.003
301.966
301.967
301.958
301.966
333.532
332.655
331.935
331.531
331.3
331.419
331.647
331.827
332.14
332.287
332.334
332.244
331.792
331.481
331.005
330.639
330.471
330.775
331.193
331.899
328.958
328.281
327.571
327.302
327.079
327.091
327.254
327.529
327.729
327.979
328.028
327.868
327.557
327.167
326.79
326.536
326.413
326.563
326.891
327.446
324.439
323.834
323.382
323.002
322.804
322.892
323.007
323.17
323.431
323.573
323.549
323.498
323.224
323.008
322.665
322.4
322.365
322.505
322.755
323.201
319.926
319.473
319.053
318.772
318.642
318.705
318.861
319
319.11
319.187
319.218
319.229
318.951
318.733
318.463
318.231
318.132
318.32
318.563
318.962
315.427
315.101
314.83
314.616
314.438
314.542
314.657
314.731
314.824
314.934
314.93
314.883
314.762
314.498
314.413
314.172
314.131
314.18
314.426
314.605
311.084
310.769
310.537
310.419
310.357
310.263
310.478
310.561
310.599
310.708
310.722
310.648
310.482
310.391
310.249
310.039
310.083
310.19
310.336
310.462
306.586
306.44
306.319
306.252
306.194
306.245
306.241
306.272
306.359
306.329
306.38
306.416
306.287
306.139
306.119
306.112
306.063
306.096
306.186
306.278
302.249
302.198
302.147
302.098
302.058
302.078
302.125
302.121
302.129
302.067
302.147
302.196
302.17
302.08
302.025
302.045
302.074
302.064
301.994
302.072
334.377
333.556
332.846
332.371
332.108
332.219
332.375
332.644
332.889
333.104
333.155
333.029
332.728
332.23
331.946
331.609
331.451
331.692
332.141
332.796
329.754
329.044
328.392
327.976
327.788
327.843
327.947
328.198
328.493
328.636
328.676
328.562
328.282
327.917
327.551
327.314
327.217
327.367
327.725
328.357
325.057
324.505
323.995
323.543
323.502
323.477
323.67
323.761
323.995
324.194
324.197
324.113
323.821
323.622
323.219
322.982
322.898
323.043
323.385
323.936
320.401
319.981
319.573
319.268
319.214
319.229
319.276
319.486
319.532
319.651
319.766
319.637
319.413
319.183
318.976
318.784
318.767
318.849
319.098
319.447
315.834
315.514
315.144
314.962
314.907
314.933
315.007
315.029
315.217
315.311
315.266
315.213
315.199
314.967
314.752
314.629
314.581
314.631
314.795
315.087
311.249
311.097
310.845
310.701
310.697
310.696
310.69
310.803
310.859
310.948
310.923
310.959
310.772
310.69
310.504
310.436
310.283
310.427
310.514
310.816
306.792
306.672
306.625
306.439
306.331
306.393
306.368
306.476
306.543
306.605
306.575
306.573
306.432
306.394
306.258
306.267
306.2
306.294
306.418
306.427
302.253
302.254
302.167
302.133
302.139
302.13
302.194
302.172
302.146
302.327
302.195
302.166
302.17
302.133
302.14
302.06
302.132
302.12
302.159
302.16
335.284
334.554
333.807
333.337
333.133
333.163
333.232
333.492
333.633
333.954
334.022
333.843
333.578
333.204
332.788
332.54
332.467
332.623
333.097
333.746
330.405
329.809
329.234
328.775
328.555
328.636
328.714
328.957
329.086
329.28
329.352
329.235
328.97
328.707
328.289
328.101
328.047
328.191
328.518
329.156
325.734
325.092
324.674
324.299
324.16
324.145
324.216
324.372
324.566
324.683
324.773
324.675
324.451
324.164
323.969
323.709
323.654
323.8
324.063
324.524
320.959
320.455
320.101
319.801
319.838
319.728
319.772
319.915
320.101
320.291
320.24
320.133
319.995
319.731
319.515
319.34
319.419
319.37
319.58
320.046
316.295
315.994
315.657
315.443
315.371
315.381
315.402
315.476
315.608
315.665
315.739
315.703
315.476
315.3
315.171
315.001
314.996
315.036
315.225
315.529
311.565
311.329
311.185
310.965
310.92
310.899
310.957
311.003
311.097
311.209
311.128
311.088
310.991
310.951
310.792
310.65
310.684
310.741
310.938
311.103
306.956
306.76
306.725
306.672
306.484
306.569
306.54
306.625
306.608
306.735
306.713
306.709
306.667
306.502
306.41
306.408
306.473
306.478
306.528
306.696
302.38
302.334
302.213
302.281
302.188
302.237
302.334
302.275
302.237
302.246
302.24
302.286
302.307
302.223
302.188
302.237
302.13
302.132
302.142
302.238
336.207
335.538
334.708
334.326
334.091
334.046
334.135
334.358
334.612
334.747
334.802
334.759
334.39
333.97
333.719
333.402
333.455
333.637
334.097
334.738
331.302
330.574
330.063
329.573
329.462
329.419
329.468
329.641
329.868
329.983
330.09
329.912
329.666
329.373
329.136
328.987
328.899
329.082
329.444
329.945
326.298
325.837
325.331
325.006
324.875
324.851
324.895
325.036
325.257
325.331
325.332
325.258
325.088
324.826
324.521
324.423
324.356
324.577
324.854
325.309
321.524
321.082
320.622
320.361
320.226
320.291
320.277
320.344
320.567
320.682
320.723
320.59
320.441
320.225
320.096
319.863
319.863
320.007
320.372
320.626
316.691
316.371
316.013
315.792
315.744
315.77
315.719
315.85
315.956
316.057
316.075
316.012
315.902
315.741
315.614
315.46
315.475
315.601
315.743
315.896
311.925
311.678
311.416
311.29
311.265
311.199
311.326
311.294
311.354
311.362
311.495
311.382
311.299
311.215
311.107
310.938
310.997
311.084
311.192
311.398
307.213
306.986
306.94
306.809
306.718
306.715
306.699
306.765
306.793
306.819
306.901
306.85
306.799
306.651
306.597
306.561
306.615
306.669
306.781
306.879
302.428
302.388
302.265
302.308
302.307
302.307
302.226
302.283
302.195
302.338
302.221
302.359
302.355
302.279
302.285
302.194
302.186
302.154
302.335
302.326
337.184
336.47
335.785
335.264
335.036
334.979
335.033
335.179
335.421
335.577
335.591
335.504
335.232
334.901
334.632
334.46
334.449
334.678
335.054
335.719
332.059
331.514
330.962
330.447
330.26
330.158
330.242
330.372
330.548
330.687
330.718
330.602
330.383
330.174
329.875
329.693
329.74
329.916
330.291
330.77
327.122
326.565
326.034
325.7
325.586
325.487
325.615
325.645
325.792
325.87
325.903
325.75
325.585
325.469
325.286
325.111
325.123
325.213
325.603
325.958
322.083
321.725
321.372
321.062
320.84
320.789
320.829
320.974
321.019
321.119
321.211
321.114
320.924
320.769
320.584
320.473
320.437
320.537
320.805
321.174
317.136
316.821
316.509
316.307
316.162
316.201
316.174
316.247
316.404
316.417
316.447
316.334
316.289
316.198
315.945
315.88
315.931
316.03
316.226
316.471
312.226
312.038
311.783
311.592
311.543
311.566
311.521
311.573
311.661
311.787
311.763
311.76
311.62
311.536
311.404
311.347
311.341
311.507
311.579
311.717
307.352
307.228
307.09
306.96
306.995
306.938
306.877
306.981
307.029
306.981
307.055
307.038
306.992
306.906
306.821
306.801
306.784
306.891
306.941
307.041
302.451
302.375
302.378
302.363
302.353
302.348
302.335
302.344
302.377
302.344
302.362
302.368
302.332
302.334
302.283
302.262
302.223
302.295
302.186
302.418
338.212
337.407
336.818
336.29
335.991
335.939
335.919
335.995
336.229
336.352
336.366
336.229
336.062
335.854
335.55
335.36
335.459
335.661
336.173
336.73
332.922
332.335
331.838
331.353
331.076
331.088
331.051
331.17
331.262
331.365
331.426
331.338
331.186
330.955
330.671
330.625
330.593
330.82
331.239
331.657
327.782
327.338
326.812
326.46
326.286
326.247
326.158
326.166
326.297
326.414
326.49
326.473
326.191
326.06
325.909
325.767
325.745
325.991
326.311
326.716
322.624
322.198
321.938
321.654
321.392
321.332
321.366
321.366
321.526
321.584
321.712
321.56
321.481
321.254
321.089
321.022
321.1
321.162
321.437
321.723
317.577
317.363
316.999
316.739
316.589
316.588
316.632
316.667
316.634
316.717
316.808
316.755
316.589
316.481
316.396
316.335
316.299
316.507
316.648
316.888
312.508
312.295
312.125
311.924
311.905
311.815
311.859
311.925
311.954
311.95
311.998
311.879
311.905
311.776
311.666
311.623
311.693
311.708
311.875
312.019
307.459
307.422
307.25
307.17
307.105
307.139
307.095
307.13
307.209
307.196
307.124
307.128
307.174
307.055
307.066
306.997
307.054
307.1
307.125
307.283
302.551
302.541
302.437
302.379
302.354
302.479
302.412
302.364
302.422
302.411
302.362
302.444
302.404
302.407
302.307
302.32
302.355
302.419
302.413
302.448
339.294
338.462
337.798
337.289
336.973
336.757
336.838
336.984
337.077
337.216
337.216
337.081
336.907
336.756
336.51
336.407
336.541
336.661
337.182
337.708
333.821
333.263
332.708
332.28
331.985
331.874
331.908
331.949
332
332.124
332.055
332.022
331.859
331.692
331.513
331.37
331.472
331.657
332.069
332.593
328.556
328.094
327.499
327.243
326.956
326.913
326.927
326.977
327.004
327.065
327.078
327.023
326.916
326.669
326.55
326.545
326.492
326.681
327.054
327.433
323.307
322.915
322.407
322.142
321.961
321.912
321.9
321.963
322.016
322.116
322.049
322.085
321.94
321.811
321.751
321.71
321.633
321.776
322.056
322.386
318.078
317.714
317.387
317.246
317.104
317.076
317.041
317.016
317.114
317.063
317.123
317.155
316.987
316.932
316.843
316.766
316.75
316.973
317.088
317.316
312.919
312.664
312.445
312.24
312.25
312.185
312.138
312.2
312.217
312.174
312.341
312.225
312.194
312.105
312.003
312.025
312.057
312.077
312.246
312.428
307.682
307.656
307.488
307.369
307.34
307.229
307.242
307.305
307.369
307.339
307.339
307.34
307.291
307.218
307.196
307.229
307.182
307.18
307.336
307.402
302.519
302.541
302.501
302.522
302.488
302.406
302.394
302.448
302.444
302.424
302.438
302.436
302.448
302.46
302.355
302.403
302.323
302.374
302.395
302.515
340.339
339.494
338.909
338.322
337.998
337.814
337.78
337.858
337.944
337.947
337.956
337.962
337.761
337.619
337.46
337.355
337.431
337.771
338.194
338.777
334.805
334.169
333.59
333.097
332.915
332.713
332.598
332.694
332.713
332.767
332.75
332.682
332.612
332.429
332.376
332.306
332.38
332.533
332.906
333.487
329.32
328.759
328.324
327.919
327.714
327.634
327.512
327.574
327.62
327.598
327.688
327.532
327.418
327.342
327.24
327.214
327.326
327.557
327.777
328.268
323.9
323.467
323.129
322.742
322.564
322.491
322.472
322.55
322.648
322.593
322.587
322.551
322.464
322.333
322.249
322.184
322.323
322.384
322.715
323.038
318.533
318.21
317.88
317.684
317.583
317.532
317.49
317.412
317.604
317.511
317.546
317.39
317.404
317.295
317.309
317.281
317.201
317.38
317.66
317.82
313.164
312.903
312.708
312.629
312.517
312.461
312.438
312.482
312.499
312.521
312.522
312.49
312.474
312.32
312.321
312.268
312.288
312.357
312.603
312.712
307.859
307.881
307.673
307.534
307.563
307.454
307.45
307.435
307.433
307.451
307.447
307.436
307.457
307.396
307.364
307.432
307.421
307.437
307.522
307.718
302.662
302.637
302.564
302.461
302.584
302.483
302.516
302.494
302.511
302.532
302.471
302.424
302.471
302.485
302.563
302.45
302.4
302.527
302.477
302.53
341.31
340.577
339.914
339.502
339.02
338.786
338.784
338.76
338.854
338.865
338.783
338.754
338.574
338.491
338.392
338.367
338.504
338.81
339.329
339.859
335.667
335.093
334.45
333.994
333.706
333.629
333.491
333.441
333.451
333.509
333.595
333.487
333.377
333.192
333.156
333.167
333.212
333.496
333.947
334.357
330.091
329.547
329.081
328.63
328.444
328.363
328.308
328.303
328.255
328.302
328.271
328.242
328.066
328.01
327.982
327.952
328.006
328.244
328.615
328.988
324.565
324.129
323.769
323.361
323.241
323.085
323.023
323.028
323.065
323.062
323.062
323.047
322.914
322.838
322.799
322.745
322.807
322.997
323.312
323.604
319.009
318.684
318.469
318.247
317.983
317.882
317.81
317.91
317.818
317.896
317.873
317.758
317.862
317.703
317.774
317.677
317.799
317.82
318.093
318.328
313.542
313.417
313.118
312.907
312.85
312.795
312.8
312.798
312.793
312.824
312.742
312.754
312.675
312.694
312.573
312.61
312.635
312.707
312.908
313.092
308.162
307.984
307.913
307.752
307.692
307.658
307.656
307.667
307.65
307.681
307.692
307.633
307.551
307.581
307.576
307.567
307.629
307.668
307.743
307.928
302.776
302.664
302.524
302.582
302.604
302.606
302.647
302.586
302.603
302.521
302.505
302.501
302.541
302.544
302.584
302.521
302.567
302.561
302.66
302.67
342.325
341.717
341.012
340.433
340.07
339.88
339.711
339.756
339.674
339.728
339.581
339.653
339.438
339.43
339.3
339.346
339.574
339.89
340.418
340.985
336.608
336.012
335.35
334.808
334.62
334.491
334.279
334.236
334.317
334.299
334.239
334.098
334.085
334.002
333.986
334.04
334.099
334.408
334.863
335.295
330.87
330.39
329.875
329.469
329.213
329.028
328.819
328.861
328.897
328.936
328.83
328.84
328.777
328.669
328.639
328.587
328.788
329.054
329.351
329.759
325.098
324.82
324.336
324.071
323.796
323.581
323.598
323.613
323.609
323.561
323.574
323.455
323.425
323.402
323.318
323.376
323.399
323.672
324.003
324.301
319.546
319.219
318.85
318.601
318.493
318.321
318.263
318.342
318.283
318.315
318.221
318.248
318.132
318.189
318.09
318.151
318.152
318.334
318.515
318.752
313.925
313.726
313.484
313.289
313.112
313.059
313.061
313.098
313.076
313.066
313.013
313.008
312.882
312.974
312.947
312.882
313.067
313.101
313.271
313.45
308.341
308.19
308.022
308.063
307.803
307.914
307.894
307.806
307.865
307.893
307.819
307.797
307.789
307.739
307.74
307.761
307.802
307.754
307.905
308.045
302.749
302.81
302.722
302.729
302.657
302.711
302.656
302.608
302.639
302.678
302.634
302.679
302.592
302.586
302.619
302.677
302.546
302.621
302.686
302.767
343.453
342.723
342.074
341.502
341.09
340.796
340.748
340.641
340.577
340.616
340.563
340.51
340.436
340.353
340.322
340.366
340.606
340.901
341.389
342.028
337.559
336.863
336.302
335.8
335.49
335.22
335.092
335.071
334.936
335.01
335.012
334.915
334.825
334.706
334.85
334.842
335.029
335.243
335.703
336.245
331.564
331.147
330.561
330.128
329.959
329.729
329.648
329.546
329.51
329.433
329.525
329.494
329.331
329.258
329.292
329.378
329.435
329.771
329.988
330.527
325.745
325.379
324.942
324.68
324.399
324.29
324.094
324.07
324.096
324.047
324.026
324.017
323.994
323.937
323.937
323.913
324.032
324.257
324.519
324.861
319.917
319.676
319.396
319.075
318.978
318.808
318.637
318.746
318.698
318.683
318.606
318.68
318.617
318.641
318.592
318.551
318.648
318.775
319.061
319.29
314.27
314.025
313.885
313.626
313.499
313.433
313.441
313.463
313.296
313.329
313.281
313.249
313.264
313.214
313.199
313.211
313.301
313.45
313.548
313.647
308.528
308.434
308.285
308.173
308.131
308.079
308.03
308.079
308.006
307.997
307.942
308.001
307.928
307.903
307.9
307.945
307.975
308.1
308.162
308.172
302.83
302.795
302.819
302.718
302.698
302.789
302.748
302.733
302.655
302.66
302.697
302.733
302.631
302.639
302.691
302.631
302.722
302.689
302.7
302.751
344.459
343.713
343.042
342.503
341.986
341.808
341.551
341.484
341.448
341.404
341.314
341.293
341.223
341.155
341.203
341.238
341.467
341.857
342.403
342.915
338.208
337.705
337.117
336.566
336.221
335.999
335.84
335.79
335.745
335.679
335.523
335.593
335.539
335.519
335.49
335.571
335.809
336.074
336.492
337.067
332.203
331.833
331.265
330.823
330.561
330.38
330.223
330.183
330.092
330.057
329.952
329.993
329.943
329.922
329.922
329.939
330.146
330.411
330.782
331.164
326.227
325.962
325.47
325.135
324.873
324.732
324.69
324.627
324.495
324.491
324.479
324.433
324.432
324.395
324.402
324.469
324.593
324.832
325.083
325.469
320.479
320.08
319.871
319.452
319.436
319.276
319.158
319.015
319.089
318.942
319.024
319.032
318.947
318.913
318.869
318.935
319.001
319.255
319.515
319.727
314.502
314.375
314.033
313.862
313.753
313.702
313.653
313.581
313.634
313.587
313.587
313.474
313.429
313.508
313.56
313.546
313.589
313.654
313.857
314.053
308.736
308.562
308.43
308.304
308.294
308.288
308.179
308.178
308.149
308.145
308.096
308.115
308.095
308.06
308.084
308.084
308.097
308.171
308.293
308.391
302.973
302.881
302.765
302.729
302.698
302.81
302.728
302.698
302.757
302.683
302.671
302.795
302.728
302.781
302.71
302.679
302.695
302.757
302.708
302.845
345.119
344.456
343.769
343.281
342.791
342.489
342.252
342.121
342.057
342.044
341.924
341.836
341.782
341.816
341.877
341.975
342.247
342.582
343.217
343.721
338.909
338.374
337.703
337.233
336.86
336.618
336.484
336.328
336.256
336.189
336.094
336.103
336.072
336.088
336.092
336.067
336.395
336.688
337.129
337.666
332.782
332.326
331.706
331.366
331.058
330.827
330.635
330.538
330.528
330.476
330.465
330.426
330.345
330.32
330.335
330.4
330.581
330.843
331.3
331.612
326.672
326.199
325.931
325.521
325.325
325.114
325.025
324.972
324.903
324.922
324.785
324.761
324.706
324.733
324.681
324.773
324.941
325.133
325.515
325.783
320.585
320.413
320.139
319.846
319.586
319.389
319.348
319.246
319.248
319.319
319.244
319.166
319.163
319.195
319.245
319.183
319.402
319.52
319.72
320.048
314.792
314.521
314.297
314.169
314.017
313.849
313.894
313.824
313.829
313.775
313.759
313.673
313.69
313.678
313.659
313.711
313.746
313.924
314.083
314.268
308.839
308.645
308.585
308.546
308.342
308.361
308.246
308.214
308.285
308.193
308.228
308.217
308.164
308.218
308.18
308.172
308.32
308.363
308.413
308.517
302.913
302.924
302.904
302.837
302.776
302.882
302.794
302.774
302.673
302.726
302.766
302.835
302.737
302.73
302.805
302.641
302.742
302.825
302.908
302.813
)
;

boundaryField
{
    hotSide
    {
        type            fixedGradient;
        gradient        nonuniform List<scalar> 
400
(
321.511
322.87
325.591
329.677
335.133
341.965
350.181
359.788
370.794
383.208
397.037
412.289
428.971
447.088
466.647
487.651
510.105
534.011
559.372
586.191
323.738
325.08
327.767
331.802
337.194
343.949
352.078
361.591
372.498
384.81
398.537
413.687
430.268
448.289
467.755
488.672
511.043
534.872
560.161
586.913
326.149
327.47
330.116
334.091
339.406
346.071
354.099
363.503
374.296
386.491
400.101
415.136
431.606
449.52
468.885
489.706
511.988
535.735
560.948
587.63
328.704
330
332.597
336.503
341.73
348.292
356.205
365.485
376.15
388.215
401.695
416.604
432.954
450.753
470.009
490.73
512.919
536.579
561.714
588.325
331.33
332.599
335.142
338.97
344.099
350.546
358.332
367.477
378.003
389.928
403.271
418.047
434.27
451.949
471.095
491.712
513.807
537.382
562.439
588.978
333.918
335.158
337.643
341.389
346.414
352.74
360.392
369.397
379.779
391.562
404.765
419.407
435.503
453.065
472.101
492.618
514.622
538.114
563.096
589.569
336.321
337.531
339.959
343.622
348.544
354.751
362.274
371.142
381.385
393.031
406.101
420.618
436.595
454.047
472.983
493.409
515.33
538.747
563.663
590.076
338.36
339.543
341.92
345.509
350.339
356.44
363.847
372.595
382.718
394.244
407.2
421.608
437.485
454.844
473.695
494.045
515.897
539.253
564.114
590.478
339.852
341.015
343.352
346.885
351.645
357.665
364.985
373.643
383.675
395.113
407.984
422.312
438.116
455.407
474.197
494.491
516.294
539.606
564.428
590.758
340.643
341.795
344.11
347.613
352.334
358.311
365.584
374.193
384.176
395.567
408.393
422.679
438.443
455.699
474.456
494.722
516.498
539.788
564.589
590.901
340.643
341.795
344.11
347.613
352.334
358.311
365.584
374.193
384.176
395.567
408.393
422.679
438.443
455.699
474.456
494.722
516.498
539.788
564.589
590.901
339.852
341.015
343.352
346.885
351.645
357.665
364.985
373.643
383.675
395.113
407.984
422.312
438.116
455.407
474.197
494.491
516.294
539.606
564.428
590.758
338.36
339.543
341.92
345.509
350.339
356.44
363.847
372.595
382.718
394.244
407.2
421.608
437.485
454.844
473.695
494.045
515.897
539.253
564.114
590.478
336.321
337.531
339.959
343.622
348.544
354.751
362.274
371.142
381.385
393.031
406.101
420.618
436.595
454.047
472.983
493.409
515.33
538.747
563.663
590.076
333.918
335.158
337.643
341.389
346.414
352.74
360.392
369.397
379.779
391.562
404.765
419.407
435.503
453.065
472.101
492.618
514.622
538.114
563.096
589.569
331.33
332.599
335.142
338.97
344.099
350.546
358.332
367.477
378.003
389.928
403.271
418.047
434.27
451.949
471.095
491.712
513.807
537.382
562.439
588.978
328.704
330
332.597
336.503
341.73
348.292
356.205
365.485
376.15
388.215
401.695
416.604
432.954
450.753
470.009
490.73
512.919
536.579
561.714
588.325
326.149
327.47
330.116
334.091
339.406
346.071
354.099
363.503
374.296
386.491
400.101
415.136
431.606
449.52
468.885
489.706
511.988
535.735
560.948
587.63
323.738
325.08
327.767
331.802
337.194
343.949
352.078
361.591
372.498
384.81
398.537
413.687
430.268
448.289
467.755
488.672
511.043
534.872
560.161
586.913
321.511
322.87
325.591
329.677
335.133
341.965
350.181
359.788
370.794
383.208
397.037
412.289
428.971
447.088
466.647
487.651
510.105
534.011
559.372
586.191
)
;
    }
    coldSide
    {
        type            mixed;
        refValue        uniform 300;
        refGradient     uniform 0;
        valueFraction   uniform 0.991591;
        source          uniform 0;
        value           nonuniform List<scalar> 
400
(
300.016
300.018
300.017
300.017
300.018
300.018
300.018
300.019
300.019
300.02
300.02
300.021
300.021
300.021
300.022
300.023
300.023
300.024
300.025
300.024
300.017
300.016
300.017
300.017
300.017
300.017
300.018
300.018
300.019
300.02
300.02
300.02
300.021
300.021
300.022
300.022
300.024