/*--------------------------------*- C++ -*----------------------------------*\
| =========                 |                                                 |
| \\      /  F ield         | OpenFOAM: The Open Source CFD Toolbox           |
|  \\    /   O peration     | Version:  2212                                  |
|   \\  /    A nd           | Website:  www.openfoam.com                      |
|    \\/     M anipulation  |                                                 |
\*---------------------------------------------------------------------------*/
FoamFile
{
    version     2.0;
    format      ascii;
    arch        "LSB;label=32;scalar=64";
    class       volScalarField;
    location    "0";
    object      Ttrue;
}
// * * * * * * * * * * * * * * * * * * * * * * * * * * * * * * * * * * * * * //

dimensions      [0 0 0 1 0 0 0];

internalField   nonuniform List<scalar> 
3200
(
349.969
350.59
351.384
352.248
353.138
354.012
354.819
355.5
355.996
356.258
356.258
355.996
355.5
354.819
354.012
353.138
352.248
351.384
350.59
349.969
343.345
343.871
344.555
345.303
346.074
346.83
347.527
348.115
348.544
348.77
348.77
348.544
348.115
347.527
346.83
346.074
345.303
344.555
343.871
343.345
336.706
337.142
337.719
338.351
339.002
339.64
340.229
340.726
341.087
341.278
341.278
341.087
340.726
340.229
339.64
339.002
338.351
337.719
337.142
336.706
330.054
330.406
330.875
331.392
331.924
332.446
332.927
333.332
333.627
333.783
333.783
333.627
333.332
332.927
332.446
331.924
331.392
330.875
330.406
330.054
323.392
323.662
324.027
324.428
324.841
325.247
325.621
325.935
326.164
326.285
326.285
326.164
325.935
325.621
325.247
324.841
324.428
324.027
323.662
323.392
316.723
316.913
317.173
317.46
317.755
318.045
318.311
318.536
318.699
318.786
318.786
318.699
318.536
318.311
318.045
317.755
317.46
317.173
316.913
316.723
310.047
310.161
310.317
310.489
310.666
310.84
311
311.135
311.233
311.285
311.285
311.233
311.135
311
310.84
310.666
310.489
310.317
310.161
310.047
303.368
303.406
303.459
303.516
303.576
303.634
303.687
303.733
303.766
303.783
303.783
303.766
303.733
303.687
303.634
303.576
303.516
303.459
303.406
303.368
350.142
350.758
351.545
352.401
353.282
354.147
354.944
355.616
356.106
356.365
356.365
356.106
355.616
354.944
354.147
353.282
352.401
351.545
350.758
350.142
343.495
344.017
344.695
345.436
346.199
346.946
347.636
348.217
348.639
348.863
348.863
348.639
348.217
347.636
346.946
346.199
345.436
344.695
344.017
343.495
336.833
337.266
337.837
338.463
339.108
339.739
340.321
340.812
341.168
341.357
341.357
341.168
340.812
340.321
339.739
339.108
338.463
337.837
337.266
336.833
330.158
330.506
330.972
331.484
332.011
332.527
333.002
333.403
333.694
333.848
333.848
333.694
333.403
333.002
332.527
332.011
331.484
330.972
330.506
330.158
323.473
323.741
324.102
324.499
324.909
325.31
325.679
325.99
326.216
326.336
326.336
326.216
325.99
325.679
325.31
324.909
324.499
324.102
323.741
323.473
316.78
316.969
317.227
317.511
317.803
318.09
318.353
318.575
318.737
318.822
318.822
318.737
318.575
318.353
318.09
317.803
317.511
317.227
316.969
316.78
310.082
310.195
310.349
310.52
310.695
310.867
311.025
311.158
311.255
311.306
311.306
311.255
311.158
311.025
310.867
310.695
310.52
310.349
310.195
310.082
303.38
303.418
303.469
303.526
303.585
303.643
303.696
303.741
303.773
303.79
303.79
303.773
303.741
303.696
303.643
303.585
303.526
303.469
303.418
303.38
350.489
351.096
351.869
352.709
353.573
354.418
355.197
355.853
356.33
356.582
356.582
356.33
355.853
355.197
354.418
353.573
352.709
351.869
351.096
350.489
343.796
344.309
344.976
345.703
346.45
347.182
347.855
348.422
348.834
349.052
349.052
348.834
348.422
347.855
347.182
346.45
345.703
344.976
344.309
343.796
337.087
337.513
338.075
338.689
339.321
339.939
340.507
340.986
341.334
341.517
341.517
341.334
340.986
340.507
339.939
339.321
338.689
338.075
337.513
337.087
330.366
330.709
331.167
331.669
332.185
332.69
333.155
333.545
333.829
333.979
333.979
333.829
333.545
333.155
332.69
332.185
331.669
331.167
330.709
330.366
323.635
323.898
324.253
324.643
325.045
325.437
325.798
326.101
326.322
326.438
326.438
326.322
326.101
325.798
325.437
325.045
324.643
324.253
323.898
323.635
316.895
317.082
317.335
317.614
317.9
318.181
318.438
318.655
318.812
318.895
318.895
318.812
318.655
318.438
318.181
317.9
317.614
317.335
317.082
316.895
310.151
310.262
310.414
310.581
310.753
310.922
311.076
311.206
311.301
311.35
311.35
311.301
311.206
311.076
310.922
310.753
310.581
310.414
310.262
310.151
303.403
303.44
303.491
303.547
303.605
303.661
303.713
303.757
303.788
303.805
303.805
303.788
303.757
303.713
303.661
303.605
303.547
303.491
303.44
303.403
351.011
351.604
352.357
353.175
354.013
354.831
355.583
356.216
356.675
356.917
356.917
356.675
356.216
355.583
354.831
354.013
353.175
352.357
351.604
351.011
344.248
344.749
345.399
346.106
346.832
347.54
348.19
348.737
349.134
349.343
349.343
349.134
348.737
348.19
347.54
346.832
346.106
345.399
344.749
344.248
337.469
337.885
338.433
339.03
339.644
340.242
340.791
341.253
341.588
341.764
341.764
341.588
341.253
340.791
340.242
339.644
339.03
338.433
337.885
337.469
330.678
331.013
331.46
331.948
332.449
332.938
333.387
333.764
334.038
334.182
334.182
334.038
333.764
333.387
332.938
332.449
331.948
331.46
331.013
330.678
323.877
324.135
324.481
324.861
325.25
325.63
325.979
326.272
326.484
326.596
326.596
326.484
326.272
325.979
325.63
325.25
324.861
324.481
324.135
323.877
317.069
317.251
317.498
317.769
318.047
318.319
318.568
318.777
318.928
319.008
319.008
318.928
318.777
318.568
318.319
318.047
317.769
317.498
317.251
317.069
310.255
310.364
310.512
310.675
310.842
311.005
311.154
311.279
311.37
311.418
311.418
311.37
311.279
311.154
311.005
310.842
310.675
310.512
310.364
310.255
303.438
303.474
303.524
303.578
303.634
303.689
303.739
303.781
303.812
303.828
303.828
303.812
303.781
303.739
303.689
303.634
303.578
303.524
303.474
303.438
351.71
352.284
353.013
353.801
354.607
355.391
356.11
356.713
357.15
357.38
357.38
357.15
356.713
356.11
355.391
354.607
353.801
353.013
352.284
351.71
344.853
345.339
345.967
346.65
347.347
348.026
348.648
349.169
349.546
349.745
349.745
349.546
349.169
348.648
348.026
347.347
346.65
345.967
345.339
344.853
337.981
338.384
338.914
339.49
340.08
340.653
341.179
341.619
341.937
342.105
342.105
341.937
341.619
341.179
340.653
340.08
339.49
338.914
338.384
337.981
331.097
331.421
331.853
332.324
332.806
333.275
333.704
334.064
334.324
334.461
334.461
334.324
334.064
333.704
333.275
332.806
332.324
331.853
331.421
331.097
324.203
324.452
324.787
325.153
325.528
325.892
326.226
326.505
326.707
326.814
326.814
326.707
326.505
326.226
325.892
325.528
325.153
324.787
324.452
324.203
317.301
317.478
317.717
317.978
318.246
318.506
318.744
318.943
319.088
319.164
319.164
319.088
318.943
318.744
318.506
318.246
317.978
317.717
317.478
317.301
310.395
310.5
310.643
310.8
310.961
311.117
311.26
311.38
311.466
311.512
311.512
311.466
311.38
311.26
311.117
310.961
310.8
310.643
310.5
310.395
303.485
303.52
303.568
303.621
303.674
303.727
303.775
303.815
303.844
303.859
303.859
303.844
303.815
303.775
303.727
303.674
303.621
303.568
303.52
303.485
352.588
353.141
353.84
354.594
355.362
356.107
356.787
357.355
357.767
357.983
357.983
357.767
357.355
356.787
356.107
355.362
354.594
353.84
353.141
352.588
345.613
346.081
346.684
347.337
348.001
348.646
349.234
349.726
350.082
350.269
350.269
350.082
349.726
349.234
348.646
348.001
347.337
346.684
346.081
345.613
338.624
339.012
339.52
340.072
340.633
341.178
341.676
342.091
342.391
342.549
342.549
342.391
342.091
341.676
341.178
340.633
340.072
339.52
339.012
338.624
331.622
331.935
332.349
332.8
333.259
333.705
334.111
334.451
334.696
334.825
334.825
334.696
334.451
334.111
333.705
333.259
332.8
332.349
331.935
331.622
324.612
324.851
325.173
325.523
325.88
326.227
326.543
326.806
326.997
327.097
327.097
326.997
326.806
326.543
326.227
325.88
325.523
325.173
324.851
324.612
317.593
317.763
317.992
318.243
318.498
318.745
318.971
319.159
319.295
319.366
319.366
319.295
319.159
318.971
318.745
318.498
318.243
317.992
317.763
317.593
310.57
310.671
310.809
310.959
311.112
311.261
311.396
311.509
311.591
311.634
311.634
311.591
311.509
311.396
311.261
311.112
310.959
310.809
310.671
310.57
303.544
303.577
303.623
303.674
303.725
303.775
303.82
303.858
303.885
303.9
303.9
303.885
303.858
303.82
303.775
303.725
303.674
303.623
303.577
303.544
353.648
354.176
354.843
355.558
356.284
356.985
357.623
358.154
358.537
358.738
358.738
358.537
358.154
357.623
356.985
356.284
355.558
354.843
354.176
353.648
346.531
346.978
347.553
348.172
348.801
349.407
349.959
350.419
350.75
350.924
350.924
350.75
350.419
349.959
349.407
348.801
348.172
347.553
346.978
346.531
339.4
339.771
340.255
340.779
341.31
341.823
342.289
342.678
342.957
343.104
343.104
342.957
342.678
342.289
341.823
341.31
340.779
340.255
339.771
339.4
332.257
332.556
332.951
333.379
333.813
334.232
334.614
334.931
335.16
335.28
335.28
335.16
334.931
334.614
334.232
333.813
333.379
332.951
332.556
332.257
325.105
325.334
325.641
325.973
326.311
326.637
326.934
327.18
327.358
327.451
327.451
327.358
327.18
326.934
326.637
326.311
325.973
325.641
325.334
325.105
317.946
318.108
318.327
318.564
318.805
319.038
319.25
319.426
319.553
319.619
319.619
319.553
319.426
319.25
319.038
318.805
318.564
318.327
318.108
317.946
310.782
310.879
311.01
311.152
311.297
311.437
311.564
311.67
311.746
311.786
311.786
311.746
311.67
311.564
311.437
311.297
311.152
311.01
310.879
310.782
303.615
303.647
303.691
303.739
303.787
303.834
303.877
303.912
303.938
303.951
303.951
303.938
303.912
303.877
303.834
303.787
303.739
303.691
303.647
303.615
354.892
355.394
356.025
356.699
357.38
358.035
358.628
359.12
359.474
359.659
359.659
359.474
359.12
358.628
358.035
357.38
356.699
356.025
355.394
354.892
347.608
348.033
348.577
349.161
349.751
350.318
350.831
351.257
351.563
351.723
351.723
351.563
351.257
350.831
350.318
349.751
349.161
348.577
348.033
347.608
340.311
340.663
341.122
341.615
342.114
342.593
343.027
343.387
343.646
343.781
343.781
343.646
343.387
343.027
342.593
342.114
341.615
341.122
340.663
340.311
333.002
333.286
333.66
334.063
334.471
334.863
335.218
335.512
335.723
335.834
335.834
335.723
335.512
335.218
334.863
334.471
334.063
333.66
333.286
333.002
325.685
325.902
326.192
326.506
326.823
327.128
327.403
327.632
327.796
327.882
327.882
327.796
327.632
327.403
327.128
326.823
326.506
326.192
325.902
325.685
318.36
318.514
318.721
318.945
319.171
319.389
319.586
319.749
319.866
319.928
319.928
319.866
319.749
319.586
319.389
319.171
318.945
318.721
318.514
318.36
311.03
311.122
311.246
311.381
311.517
311.648
311.766
311.864
311.934
311.971
311.971
311.934
311.864
311.766
311.648
311.517
311.381
311.246
311.122
311.03
303.698
303.729
303.77
303.815
303.861
303.905
303.944
303.977
304.001
304.013
304.013
304.001
303.977
303.944
303.905
303.861
303.815
303.77
303.729
303.698
356.324
356.799
357.392
358.023
358.658
359.265
359.812
360.264
360.589
360.758
360.758
360.589
360.264
359.812
359.265
358.658
358.023
357.392
356.799
356.324
348.849
349.25
349.762
350.308
350.858
351.384
351.857
352.249
352.53
352.676
352.676
352.53
352.249
351.857
351.384
350.858
350.308
349.762
349.25
348.849
341.36
341.693
342.124
342.586
343.051
343.495
343.896
344.227
344.464
344.588
344.588
344.464
344.227
343.896
343.495
343.051
342.586
342.124
341.693
341.36
333.86
334.128
334.48
334.857
335.238
335.601
335.929
336.199
336.393
336.495
336.495
336.393
336.199
335.929
335.601
335.238
334.857
334.48
334.128
333.86
326.351
326.557
326.83
327.124
327.419
327.702
327.957
328.167
328.318
328.397
328.397
328.318
328.167
327.957
327.702
327.419
327.124
326.83
326.557
326.351
318.836
318.982
319.176
319.386
319.597
319.799
319.981
320.132
320.239
320.296
320.296
320.239
320.132
319.981
319.799
319.597
319.386
319.176
318.982
318.836
311.316
311.403
311.52
311.646
311.773
311.894
312.003
312.094
312.158
312.192
312.192
312.158
312.094
312.003
311.894
311.773
311.646
311.52
311.403
311.316
303.794
303.823
303.862
303.904
303.947
303.987
304.024
304.054
304.076
304.087
304.087
304.076
304.054
304.024
303.987
303.947
303.904
303.862
303.823
303.794
357.947
358.392
358.948
359.535
360.123
360.682
361.184
361.597
361.892
362.047
362.047
361.892
361.597
361.184
360.682
360.123
359.535
358.948
358.392
357.947
350.254
350.631
351.11
351.619
352.128
352.612
353.047
353.404
353.66
353.794
353.794
353.66
353.404
353.047
352.612
352.128
351.619
351.11
350.631
350.254
342.548
342.861
343.264
343.695
344.125
344.535
344.902
345.205
345.421
345.534
345.534
345.421
345.205
344.902
344.535
344.125
343.695
343.264
342.861
342.548
334.832
335.083
335.413
335.764
336.117
336.452
336.752
337
337.176
337.269
337.269
337.176
337
336.752
336.452
336.117
335.764
335.413
335.083
334.832
327.107
327.3
327.556
327.829
328.103
328.364
328.598
328.79
328.927
328.999
328.999
328.927
328.79
328.598
328.364
328.103
327.829
327.556
327.3
327.107
319.376
319.513
319.695
319.89
320.086
320.272
320.439
320.577
320.675
320.726
320.726
320.675
320.577
320.439
320.272
320.086
319.89
319.695
319.513
319.376
311.641
311.722
311.831
311.949
312.066
312.178
312.278
312.361
312.42
312.451
312.451
312.42
312.361
312.278
312.178
312.066
311.949
311.831
311.722
311.641
303.902
303.93
303.966
304.006
304.045
304.082
304.116
304.144
304.163
304.174
304.174
304.163
304.144
304.116
304.082
304.045
304.006
303.966
303.93
303.902
359.762
360.179
360.696
361.24
361.781
362.294
362.752
363.127
363.394
363.534
363.534
363.394
363.127
362.752
362.294
361.781
361.24
360.696
360.179
359.762
351.826
352.179
352.625
353.096
353.565
354.009
354.405
354.731
354.962
355.083
355.083
354.962
354.731
354.405
354.009
353.565
353.096
352.625
352.179
351.826
343.878
344.17
344.546
344.945
345.341
345.717
346.052
346.327
346.523
346.625
346.625
346.523
346.327
346.052
345.717
345.341
344.945
344.546
344.17
343.878
335.919
336.155
336.461
336.787
337.112
337.419
337.693
337.918
338.078
338.162
338.162
338.078
337.918
337.693
337.419
337.112
336.787
336.461
336.155
335.919
327.953
328.134
328.371
328.625
328.877
329.116
329.33
329.505
329.629
329.694
329.694
329.629
329.505
329.33
329.116
328.877
328.625
328.371
328.134
327.953
319.98
320.108
320.278
320.459
320.639
320.81
320.962
321.087
321.176
321.223
321.223
321.176
321.087
320.962
320.81
320.639
320.459
320.278
320.108
319.98
312.003
312.08
312.181
312.29
312.399
312.501
312.593
312.668
312.721
312.749
312.749
312.721
312.668
312.593
312.501
312.399
312.29
312.181
312.08
312.003
304.024
304.05
304.084
304.12
304.156
304.191
304.221
304.247
304.264
304.274
304.274
304.264
304.247
304.221
304.191
304.156
304.12
304.084
304.05
304.024
361.773
362.161
362.641
363.143
363.639
364.106
364.522
364.861
365.102
365.227
365.227
365.102
364.861
364.522
364.106
363.639
363.143
362.641
362.161
361.773
353.568
353.896
354.31
354.744
355.174
355.58
355.939
356.233
356.442
356.551
356.551
356.442
356.233
355.939
355.58
355.174
354.744
354.31
353.896
353.568
345.351
345.623
345.971
346.339
346.703
347.046
347.35
347.599
347.775
347.867
347.867
347.775
347.599
347.35
347.046
346.703
346.339
345.971
345.623
345.351
337.124
337.343
337.627
337.928
338.226
338.506
338.755
338.959
339.103
339.178
339.178
339.103
338.959
338.755
338.506
338.226
337.928
337.627
337.343
337.124
328.89
329.058
329.278
329.512
329.744
329.962
330.156
330.314
330.426
330.485
330.485
330.426
330.314
330.156
329.962
329.744
329.512
329.278
329.058
328.89
320.65
320.769
320.926
321.093
321.258
321.414
321.553
321.666
321.746
321.788
321.788
321.746
321.666
321.553
321.414
321.258
321.093
320.926
320.769
320.65
312.405
312.476
312.571
312.671
312.77
312.864
312.947
313.015
313.063
313.088
313.088
313.063
313.015
312.947
312.864
312.77
312.671
312.571
312.476
312.405
304.159
304.182
304.214
304.248
304.281
304.312
304.34
304.363
304.379
304.388
304.388
304.379
304.363
304.34
304.312
304.281
304.248
304.214
304.182
304.159
363.982
364.342
364.784
365.245
365.699
366.123
366.499
366.805
367.021
367.133
367.133
367.021
366.805
366.499
366.123
365.699
365.245
364.784
364.342
363.982
355.48
355.785
356.167
356.566
356.959
357.327
357.653
357.918
358.105
358.202
358.202
358.105
357.918
357.653
357.327
356.959
356.566
356.167
355.785
355.48
346.968
347.221
347.542
347.88
348.213
348.524
348.8
349.024
349.182
349.265
349.265
349.182
349.024
348.8
348.524
348.213
347.88
347.542
347.221
346.968
338.447
338.65
338.912
339.189
339.461
339.716
339.941
340.125
340.254
340.322
340.322
340.254
340.125
339.941
339.716
339.461
339.189
338.912
338.65
338.447
329.918
330.074
330.278
330.493
330.705
330.903
331.078
331.221
331.322
331.374
331.374
331.322
331.221
331.078
330.903
330.705
330.493
330.278
330.074
329.918
321.385
321.495
321.64
321.794
321.945
322.087
322.212
322.314
322.386
322.423
322.423
322.386
322.314
322.212
322.087
321.945
321.794
321.64
321.495
321.385
312.847
312.913
313
313.092
313.183
313.268
313.343
313.404
313.448
313.47
313.47
313.448
313.404
313.343
313.268
313.183
313.092
313
312.913
312.847
304.307
304.329
304.358
304.389
304.419
304.448
304.473
304.493
304.508
304.516
304.516
304.508
304.493
304.473
304.448
304.419
304.389
304.358
304.329
304.307
366.388
366.72
367.128
367.55
367.963
368.348
368.686
368.961
369.154
369.254
369.254
369.154
368.961
368.686
368.348
367.963
367.55
367.128
366.72
366.388
357.564
357.845
358.197
358.563
358.92
359.254
359.548
359.785
359.953
360.04
360.04
359.953
359.785
359.548
359.254
358.92
358.563
358.197
357.845
357.564
348.73
348.963
349.259
349.569
349.872
350.154
350.403
350.604
350.746
350.819
350.819
350.746
350.604
350.403
350.154
349.872
349.569
349.259
348.963
348.73
339.888
340.075
340.317
340.57
340.818
341.049
341.252
341.417
341.533
341.593
341.593
341.533
341.417
341.252
341.049
340.818
340.57
340.317
340.075
339.888
331.039
331.183
331.37
331.567
331.76
331.94
332.098
332.226
332.316
332.363
332.363
332.316
332.226
332.098
331.94
331.76
331.567
331.37
331.183
331.039
322.185
322.287
322.42
322.561
322.699
322.827
322.94
323.032
323.097
323.13
323.13
323.097
323.032
322.94
322.827
322.699
322.561
322.42
322.287
322.185
313.327
313.388
313.468
313.553
313.636
313.713
313.781
313.836
313.874
313.895
313.895
313.874
313.836
313.781
313.713
313.636
313.553
313.468
313.388
313.327
304.468
304.488
304.515
304.543
304.571
304.597
304.62
304.638
304.651
304.658
304.658
304.651
304.638
304.62
304.597
304.571
304.543
304.515
304.488
304.468
368.988
369.295
369.669
370.054
370.429
370.777
371.082
371.327
371.5
371.59
371.59
371.5
371.327
371.082
370.777
370.429
370.054
369.669
369.295
368.988
359.815
360.074
360.397
360.731
361.056
361.358
361.622
361.835
361.985
362.062
362.062
361.985
361.835
361.622
361.358
361.056
360.731
360.397
360.074
359.815
350.633
350.848
351.12
351.403
351.678
351.933
352.157
352.337
352.464
352.529
352.529
352.464
352.337
352.157
351.933
351.678
351.403
351.12
350.848
350.633
341.443
341.617
341.838
342.07
342.295
342.504
342.687
342.834
342.938
342.992
342.992
342.938
342.834
342.687
342.504
342.295
342.07
341.838
341.617
341.443
332.248
332.381
332.553
332.733
332.908
333.071
333.213
333.328
333.409
333.451
333.451
333.409
333.328
333.213
333.071
332.908
332.733
332.553
332.381
332.248
323.049
323.143
323.265
323.394
323.519
323.635
323.737
323.819
323.877
323.907
323.907
323.877
323.819
323.737
323.635
323.519
323.394
323.265
323.143
323.049
313.846
313.902
313.976
314.053
314.128
314.198
314.259
314.308
314.343
314.361
314.361
314.343
314.308
314.259
314.198
314.128
314.053
313.976
313.902
313.846
304.642
304.66
304.685
304.711
304.736
304.759
304.78
304.796
304.808
304.814
304.814
304.808
304.796
304.78
304.759
304.736
304.711
304.685
304.66
304.642
371.771
372.054
372.397
372.748
373.088
373.402
373.676
373.896
374.05
374.129
374.129
374.05
373.896
373.676
373.402
373.088
372.748
372.397
372.054
371.771
362.223
362.462
362.757
363.062
363.357
363.629
363.866
364.057
364.191
364.26
364.26
364.191
364.057
363.866
363.629
363.357
363.062
362.757
362.462
362.223
352.667
352.865
353.114
353.372
353.622
353.852
354.053
354.215
354.328
354.386
354.386
354.328
354.215
354.053
353.852
353.622
353.372
353.114
352.865
352.667
343.106
343.265
343.468
343.679
343.884
344.072
344.237
344.369
344.462
344.509
344.509
344.462
344.369
344.237
344.072
343.884
343.679
343.468
343.265
343.106
333.54
333.662
333.82
333.984
334.143
334.29
334.418
334.521
334.593
334.63
334.63
334.593
334.521
334.418
334.29
334.143
333.984
333.82
333.662
333.54
323.971
324.057
324.17
324.287
324.401
324.506
324.597
324.671
324.722
324.749
324.749
324.722
324.671
324.597
324.506
324.401
324.287
324.17
324.057
323.971
314.4
314.451
314.519
314.589
314.657
314.72
314.775
314.82
314.851
314.867
314.867
314.851
314.82
314.775
314.72
314.657
314.589
314.519
314.451
314.4
304.827
304.844
304.867
304.891
304.913
304.935
304.953
304.968
304.978
304.984
304.984
304.978
304.968
304.953
304.935
304.913
304.891
304.867
304.844
304.827
374.709
374.969
375.283
375.603
375.911
376.194
376.44
376.637
376.774
376.845
376.845
376.774
376.637
376.44
376.194
375.911
375.603
375.283
374.969
374.709
364.759
364.979
365.25
365.527
365.795
366.04
366.254
366.424
366.544
366.605
366.605
366.544
366.424
366.254
366.04
365.795
365.527
365.25
364.979
364.759
354.806
354.989
355.217
355.452
355.678
355.886
356.067
356.211
356.313
356.365
356.365
356.313
356.211
356.067
355.886
355.678
355.452
355.217
354.989
354.806
344.851
344.998
345.184
345.376
345.562
345.732
345.88
345.998
346.081
346.124
346.124
346.081
345.998
345.88
345.732
345.562
345.376
345.184
344.998
344.851
334.895
335.007
335.152
335.301
335.445
335.578
335.693
335.785
335.85
335.883
335.883
335.85
335.785
335.693
335.578
335.445
335.301
335.152
335.007
334.895
324.937
325.017
325.12
325.227
325.33
325.425
325.507
325.573
325.619
325.643
325.643
325.619
325.573
325.507
325.425
325.33
325.227
325.12
325.017
324.937
314.979
315.027
315.089
315.153
315.215
315.272
315.321
315.361
315.388
315.403
315.403
315.388
315.361
315.321
315.272
315.215
315.153
315.089
315.027
314.979
305.021
305.037
305.058
305.079
305.1
305.119
305.136
305.149
305.158
305.163
305.163
305.158
305.149
305.136
305.119
305.1
305.079
305.058
305.037
305.021
377.725
377.964
378.251
378.543
378.823
379.079
379.3
379.477
379.6
379.664
379.664
379.6
379.477
379.3
379.079
378.823
378.543
378.251
377.964
377.725
367.351
367.554
367.802
368.055
368.298
368.52
368.712
368.866
368.973
369.028
369.028
368.973
368.866
368.712
368.52
368.298
368.055
367.802
367.554
367.351
356.984
357.151
357.361
357.575
357.781
357.969
358.132
358.262
358.353
358.399
358.399
358.353
358.262
358.132
357.969
357.781
357.575
357.361
357.151
356.984
346.621
346.756
346.927
347.103
347.271
347.425
347.559
347.665
347.74
347.778
347.778
347.74
347.665
347.559
347.425
347.271
347.103
346.927
346.756
346.621
336.264
336.368
336.5
336.637
336.768
336.888
336.992
337.075
337.133
337.163
337.163
337.133
337.075
336.992
336.888
336.768
336.637
336.5
336.368
336.264
325.912
325.985
326.08
326.177
326.271
326.357
326.432
326.491
326.532
326.553
326.553
326.532
326.491
326.432
326.357
326.271
326.177
326.08
325.985
325.912
315.563
315.607
315.664
315.722
315.779
315.83
315.875
315.911
315.936
315.948
315.948
315.936
315.911
315.875
315.83
315.779
315.722
315.664
315.607
315.563
305.217
305.231
305.25
305.27
305.289
305.306
305.321
305.333
305.341
305.346
305.346
305.341
305.333
305.321
305.306
305.289
305.27
305.25
305.231
305.217
380.624
380.845
381.11
381.379
381.635
381.868
382.069
382.229
382.34
382.397
382.397
382.34
382.229
382.069
381.868
381.635
381.379
381.11
380.845
380.624
369.814
370.001
370.23
370.463
370.685
370.888
371.063
371.202
371.299
371.348
371.348
371.299
371.202
371.063
370.888
370.685
370.463
370.23
370.001
369.814
359.029
359.184
359.378
359.576
359.764
359.936
360.085
360.203
360.285
360.327
360.327
360.285
360.203
360.085
359.936
359.764
359.576
359.378
359.184
359.029
348.269
348.394
348.552
348.714
348.869
349.01
349.132
349.228
349.296
349.33
349.33
349.296
349.228
349.132
349.01
348.869
348.714
348.552
348.394
348.269
337.53
337.626
337.749
337.875
337.995
338.105
338.2
338.276
338.328
338.355
338.355
338.328
338.276
338.2
338.105
337.995
337.875
337.749
337.626
337.53
326.808
326.876
326.963
327.053
327.14
327.218
327.286
327.34
327.378
327.397
327.397
327.378
327.34
327.286
327.218
327.14
327.053
326.963
326.876
326.808
316.098
316.138
316.191
316.245
316.297
316.344
316.385
316.417
316.44
316.452
316.452
316.44
316.417
316.385
316.344
316.297
316.245
316.191
316.138
316.098
305.395
305.409
305.426
305.445
305.462
305.478
305.492
305.502
305.51
305.514
305.514
305.51
305.502
305.492
305.478
305.462
305.445
305.426
305.409
305.395
382.897
383.105
383.354
383.606
383.846
384.063
384.25
384.398
384.502
384.555
384.555
384.502
384.398
384.25
384.063
383.846
383.606
383.354
383.105
382.897
371.67
371.847
372.063
372.282
372.491
372.681
372.844
372.974
373.064
373.11
373.11
373.064
372.974
372.844
372.681
372.491
372.282
372.063
371.847
371.67
360.524
360.671
360.854
361.041
361.218
361.38
361.518
361.629
361.705
361.745
361.745
361.705
361.629
361.518
361.38
361.218
361.041
360.854
360.671
360.524
349.444
349.563
349.712
349.865
350.011
350.144
350.258
350.349
350.412
350.444
350.444
350.412
350.349
350.258
350.144
350.011
349.865
349.712
349.563
349.444
338.415
338.507
338.623
338.742
338.856
338.96
339.049
339.12
339.169
339.194
339.194
339.169
339.12
339.049
338.96
338.856
338.742
338.623
338.507
338.415
327.426
327.49
327.573
327.659
327.74
327.815
327.878
327.929
327.964
327.982
327.982
327.964
327.929
327.878
327.815
327.74
327.659
327.573
327.49
327.426
316.463
316.502
316.552
316.603
316.652
316.697
316.735
316.766
316.787
316.798
316.798
316.787
316.766
316.735
316.697
316.652
316.603
316.552
316.502
316.463
305.517
305.53
305.546
305.564
305.58
305.595
305.608
305.618
305.625
305.629
305.629
305.625
305.618
305.608
305.595
305.58
305.564
305.546
305.53
305.517
)
;

boundaryField
{
    hotSide
    {
        type            fixedGradient;
        gradient        nonuniform List<scalar> 
400
(
528.464
530.329
534.065
539.685
547.208
556.656
568.057
581.438
596.83
614.263
633.765
655.364
679.085
704.949
732.977
763.186
795.589
830.197
867.021
906.067
536.639
538.439
542.048
547.483
554.769
563.936
575.019
588.056
603.085
620.143
639.268
660.492
683.845
709.355
737.044
766.931
799.031
833.356
869.917
908.719
545.485
547.208
550.666
555.881
562.887
571.723
582.435
595.071
609.681
626.312
645.008
665.81
688.754
713.872
741.189
770.726
802.499
836.522
872.804
911.349
554.858
556.491
559.772
564.733
571.415
579.871
590.16
602.343
616.482
632.636
650.858
671.199
693.699
718.395
745.315
774.482
805.914
839.622
875.615
913.898
564.494
566.025
569.109
573.785
580.107
588.142
597.965
609.653
623.281
638.922
656.64
676.493
698.528
722.786
749.298
778.088
809.173
842.566
878.272
916.295
573.992
575.415
578.288
582.659
588.599
596.191
605.526
616.698
629.8
644.915
662.121
681.482
703.054
726.878
752.99
781.413
812.164
845.253
880.686
918.464
582.807
584.122
586.785
590.854
596.416
603.571
612.429
623.1
635.693
650.306
667.025
685.924
707.061
730.484
756.226
784.313
814.761
847.577
882.765
920.324
590.29
591.507
593.98
597.778
603.002
609.768
618.203
628.433
640.582
654.757
671.056
689.558
710.326
733.408
758.84
786.647
816.842
849.432
884.42
921.8
595.765
596.908
599.235
602.827
607.793
614.264
622.379
632.279
644.094
657.945
673.933
692.142
712.639
735.474
760.681
788.285
818.299
850.728
885.571
922.825
598.667
599.769
602.017
605.496
610.323
616.634
624.576
634.297
645.934
659.611
675.433
693.487
713.84
736.544
761.633
789.13
819.049
851.394
886.163
923.35
598.667
599.769
602.017
605.496
610.323
616.634
624.576
634.297
645.934
659.611
675.433
693.487
713.84
736.544
761.633
789.13
819.049
851.394
886.163
923.35
595.765
596.908
599.235
602.827
607.793
614.264
622.379
632.279
644.094
657.945
673.933
692.142
712.639
735.474
760.681
788.285
818.299
850.728
885.571
922.825
590.29
591.507
593.98
597.778
603.002
609.768
618.203
628.433
640.582
654.757
671.056
689.558
710.326
733.408
758.84
786.647
816.842
849.432
884.42
921.8
582.807
584.122
586.785
590.854
596.416
603.571
612.429
623.1
635.693
650.306
667.025
685.924
707.061
730.484
756.226
784.313
814.761
847.577
882.765
920.324
573.992
575.415
578.288
582.659
588.599
596.191
605.526
616.698
629.8
644.915
662.121
681.482
703.054
726.878
752.99
781.413
812.164
845.253
880.686
918.464
564.494
566.025
569.109
573.785
580.107
588.142
597.965
609.653
623.281
638.922
656.64
676.493
698.528
722.786
749.298
778.088
809.173
842.566
878.272
916.295
554.858
556.491
559.772
564.733
571.415
579.871
590.16
602.343
616.482
632.636
650.858
671.199
693.699
718.395
745.315
774.482
805.914
839.622
875.615
913.898
545.485
547.208
550.666
555.881
562.887
571.723
582.435
595.071
609.681
626.312
645.008
665.81
688.754
713.872
741.189
770.726
802.499
836.522
872.804
911.349
536.639
538.439
542.048
547.483
554.769
563.936
575.019
588.056
603.085
620.143
639.268
660.492
683.845
709.355
737.044
766.931
799.031
833.356
869.917
908.719
528.464
530.329
534.065
539.685
547.208
556.656
568.057
581.438
596.83
614.263
633.765
655.364
679.085
704.949
732.977
763.186
795.589
830.197
867.021
906.067
)
;
    }
    coldSide
    {
        type            mixed;
        refValue        uniform 300;
        refGradient     uniform 0;
        valueFraction   uniform 0.991591;
        source          uniform 0;
        value           nonuniform List<scalar> 
400
(
300.028
300.028
300.029
300.029
300.029
300.03
300.03
300.031
300.032
300.033
300.034
300.035
300.036
300.038
300.039
300.041
300.042
300.044
300.045
300.046
300.029
300.029
300.029
300.029
300.03
300.03
300.031
300.031
300.032
300.033
300.034
300.035
300.036
300.038
300.039
300.041
300.042
300.044
300.045
300.047
300.029