/*--------------------------------*- C++ -*----------------------------------*\
| =========                 |                                                 |
| \\      /  F ield         | OpenFOAM: The Open Source CFD Toolbox           |
|  \\    /   O peration     | Version:  2212                                  |
|   \\  /    A nd           | Website:  www.openfoam.com                      |
|    \\/     M anipulation  |                                                 |
\*---------------------------------------------------------------------------*/
FoamFile
{
    version     2.0;
    format      ascii;
    arch        "LSB;label=32;scalar=64";
    class       volScalarField;
    location    "0";
    object      T;
}
// * * * * * * * * * * * * * * * * * * * * * * * * * * * * * * * * * * * * * //

dimensions      [0 0 0 1 0 0 0];

internalField   nonuniform List<scalar> 
3200
(
335.52
334.256
333.283
333.087
333.345
333.828
334.623
335.293
335.991
336.415
336.838
336.918
336.528
336.325
335.998
335.847
335.805
336.057
336.976
338.342
330.867
329.811
328.96
328.774
329.032
329.397
330.117
330.67
331.286
331.632
332
332.053
331.697
331.548
331.271
331.121
331.094
331.298
332.071
333.238
326.176
325.332
324.583
324.41
324.639
324.929
325.538
326.019
326.542
326.799
327.121
327.169
326.84
326.753
326.522
326.361
326.352
326.524
327.181
328.157
321.435
320.802
320.177
320.023
320.218
320.419
320.924
321.329
321.777
321.971
322.219
322.258
321.972
321.93
321.747
321.616
321.598
321.736
322.286
323.083
316.692
316.218
315.745
315.579
315.772
315.893
316.313
316.622
316.977
317.13
317.263
317.341
317.101
317.081
316.933
316.827
316.821
316.93
317.362
317.975
311.928
311.613
311.294
311.134
311.294
311.354
311.69
311.882
312.136
312.253
312.328
312.395
312.245
312.203
312.112
312.07
312.036
312.112
312.42
312.873
307.164
306.998
306.812
306.681
306.797
306.827
307.026
307.133
307.294
307.353
307.397
307.445
307.375
307.347
307.28
307.275
307.216
307.289
307.469
307.741
302.393
302.348
302.275
302.232
302.278
302.29
302.361
302.401
302.448
302.464
302.483
302.505
302.477
302.47
302.442
302.446
302.42
302.444
302.501
302.595
335.821
334.519
333.672
333.419
333.673
334.407
335.153
335.828
336.489
337.043
337.398
337.514
337.16
336.841
336.448
336.186
336.037
336.359
337.252
338.588
331.131
330.043
329.317
329.076
329.29
329.907
330.552
331.126
331.678
332.159
332.485
332.562
332.228
331.962
331.658
331.406
331.281
331.532
332.315
333.461
326.399
325.509
324.896
324.683
324.864
325.374
325.893
326.41
326.859
327.257
327.533
327.58
327.296
327.09
326.834
326.615
326.518
326.696
327.369
328.341
321.639
320.929
320.427
320.239
320.403
320.823
321.213
321.628
322.018
322.329
322.561
322.58
322.38
322.164
321.997
321.817
321.711
321.859
322.409
323.204
316.868
316.317
315.932
315.773
315.914
316.241
316.516
316.823
317.164
317.373
317.564
317.591
317.42
317.231
317.127
316.988
316.909
316.996
317.446
318.055
312.066
311.694
311.4
311.286
311.395
311.624
311.816
312.034
312.298
312.423
312.563
312.595
312.477
312.319
312.258
312.154
312.113
312.154
312.474
312.922
307.251
307.038
306.851
306.781
306.863
306.976
307.096
307.253
307.402
307.463
307.57
307.585
307.501
307.388
307.373
307.295
307.288
307.293
307.492
307.753
302.425
302.36
302.288
302.268
302.299
302.329
302.384
302.43
302.479
302.5
302.535
302.556
302.516
302.48
302.467
302.441
302.435
302.445
302.509
302.594
336.377
335.229
334.329
334.122
334.432
335.068
335.925
336.606
337.309
337.886
338.209
338.341
338.094
337.749
337.254
336.79
336.707
337.019
337.962
339.187
331.613
330.632
329.874
329.667
329.959
330.5
331.215
331.781
332.397
332.877
333.154
333.278
333.049
332.754
332.343
331.913
331.867
332.137
332.928
333.978
326.825
325.98
325.363
325.189
325.441
325.881
326.453
326.953
327.492
327.839
328.084
328.189
328.015
327.732
327.384
327.023
326.99
327.228
327.877
328.763
322.005
321.304
320.806
320.638
320.857
321.197
321.67
322.107
322.559
322.776
322.979
323.097
322.938
322.701
322.446
322.136
322.107
322.32
322.818
323.553
317.181
316.582
316.213
316.055
316.268
316.508
316.879
317.225
317.597
317.712
317.868
317.993
317.848
317.669
317.475
317.237
317.213
317.386
317.771
318.326
312.318
311.847
311.588
311.474
311.653
311.817
312.06
312.333
312.587
312.629
312.771
312.872
312.744
312.635
312.488
312.311
312.299
312.43
312.713
313.097
307.416
307.106
306.966
306.881
307.003
307.103
307.248
307.409
307.561
307.583
307.676
307.723
307.658
307.591
307.5
307.401
307.378
307.462
307.645
307.866
302.485
302.376
302.333
302.299
302.349
302.378
302.425
302.478
302.535
302.542
302.573
302.577
302.563
302.549
302.523
302.48
302.473
302.507
302.568
302.631
337.183
336.167
335.381
335.153
335.538
336.056
336.905
337.786
338.547
338.982
339.345
339.471
339.335
338.795
338.255
337.913
337.809
338.017
338.901
340.042
332.319
331.459
330.8
330.579
330.917
331.349
332.074
332.812
333.456
333.81
334.129
334.253
334.128
333.663
333.195
332.912
332.81
332.987
333.762
334.706
327.434
326.717
326.149
325.945
326.255
326.597
327.202
327.815
328.37
328.627
328.896
329.027
328.914
328.523
328.127
327.886
327.804
327.952
328.614
329.365
322.532
321.947
321.444
321.26
321.539
321.81
322.301
322.823
323.264
323.432
323.637
323.787
323.685
323.37
323.04
322.824
322.77
322.901
323.434
324.057
317.55
317.126
316.706
316.554
316.805
316.991
317.38
317.779
318.134
318.227
318.395
318.528
318.441
318.22
317.924
317.76
317.738
317.855
318.254
318.733
312.561
312.265
311.93
311.832
312.035
312.162
312.448
312.704
312.995
313.016
313.151
313.25
313.183
313.032
312.808
312.706
312.681
312.776
313.057
313.384
307.551
307.368
307.16
307.118
307.232
307.313
307.468
307.634
307.818
307.809
307.928
307.951
307.932
307.827
307.68
307.632
307.615
307.683
307.848
308.04
302.538
302.465
302.401
302.382
302.429
302.449
302.5
302.558
302.626
302.622
302.667
302.671
302.664
302.634
302.575
302.559
302.559
302.571
302.642
302.694
338.321
337.252
336.543
336.24
336.626
337.245
338.068
338.889
339.737
340.297
340.693
340.754
340.521
339.971
339.558
339.151
338.945
339.219
340.069
341.13
333.305
332.416
331.793
331.509
331.855
332.37
333.077
333.785
334.509
334.948
335.306
335.349
335.132
334.655
334.3
333.985
333.797
334.047
334.754
335.666
328.238
327.512
326.999
326.739
327.046
327.457
328.056
328.66
329.245
329.594
329.898
329.937
329.745
329.358
329.029
328.798
328.63
328.864
329.464
330.192
323.136
322.552
322.151
321.932
322.182
322.529
323.002
323.507
323.958
324.207
324.488
324.543
324.363
324.031
323.752
323.592
323.434
323.655
324.152
324.697
318.023
317.583
317.256
317.103
317.301
317.563
317.915
318.32
318.667
318.828
319.055
319.13
318.957
318.715
318.481
318.371
318.24
318.43
318.825
319.222
312.896
312.584
312.337
312.247
312.395
312.551
312.797
313.116
313.346
313.461
313.63
313.687
313.56
313.371
313.202
313.127
313.043
313.183
313.486
313.744
307.746
307.556
307.421
307.363
307.458
307.531
307.693
307.891
308.019
308.098
308.193
308.228
308.151
308.041
307.924
307.872
307.828
307.922
308.103
308.254
302.605
302.54
302.491
302.476
302.504
302.522
302.582
302.645
302.684
302.716
302.741
302.767
302.727
302.698
302.646
302.63
302.62
302.651
302.715
302.767
339.602
338.536
337.88
337.572
337.872
338.678
339.427
340.338
341.04
341.645
342.097
342.146
341.908
341.322
341
340.547
340.277
340.486
341.252
342.323
334.397
333.513
332.945
332.683
332.929
333.612
334.243
335.055
335.638
336.142
336.515
336.555
336.36
335.841
335.556
335.204
334.952
335.126
335.798
336.667
329.159
328.447
327.944
327.756
327.933
328.503
329.045
329.729
330.215
330.612
330.924
330.959
330.787
330.354
330.098
329.842
329.624
329.743
330.322
331.034
323.874
323.337
322.94
322.76
322.919
323.371
323.829
324.357
324.759
325.063
325.328
325.351
325.213
324.87
324.629
324.461
324.267
324.352
324.812
325.408
318.583
318.177
317.893
317.741
317.854
318.214
318.567
318.98
319.276
319.499
319.724
319.729
319.638
319.378
319.167
319.059
318.891
318.972
319.315
319.775
313.27
312.995
312.82
312.707
312.786
313.035
313.285
313.586
313.792
313.934
314.105
314.096
314.057
313.889
313.696
313.643
313.517
313.579
313.824
314.123
307.961
307.794
307.71
307.63
307.703
307.847
307.982
308.183
308.286
308.383
308.464
308.473
308.453
308.364
308.232
308.218
308.13
308.157
308.322
308.486
302.673
302.596
302.59
302.55
302.576
302.642
302.67
302.749
302.779
302.818
302.832
302.843
302.829
302.808
302.759
302.766
302.726
302.733
302.797
302.842
341.052
340.055
339.349
339.123
339.417
340.14
340.861
341.822
342.506
343.242
343.508
343.709
343.383
342.934
342.414
341.983
341.814
342.052
342.669
343.655
335.656
334.827
334.225
334.02
334.248
334.867
335.476
336.298
336.888
337.514
337.755
337.913
337.637
337.254
336.784
336.422
336.278
336.473
337.023
337.832
330.21
329.56
329.059
328.879
329.069
329.57
330.054
330.754
331.243
331.777
331.994
332.107
331.877
331.551
331.172
330.872
330.728
330.887
331.358
332.02
324.761
324.255
323.851
323.688
323.845
324.244
324.605
325.197
325.571
326.006
326.23
326.275
326.121
325.834
325.525
325.304
325.17
325.292
325.671
326.178
319.292
318.91
318.59
318.449
318.576
318.891
319.148
319.607
319.892
320.223
320.432
320.441
320.353
320.124
319.875
319.703
319.61
319.691
319.983
320.379
313.802
313.551
313.312
313.206
313.3
313.502
313.673
314.014
314.213
314.441
314.611
314.607
314.554
314.384
314.205
314.101
314.011
314.071
314.292
314.592
308.311
308.151
308.011
307.937
308.009
308.112
308.215
308.41
308.544
308.661
308.795
308.779
308.754
308.627
308.532
308.496
308.421
308.451
308.601
308.784
302.795
302.721
302.684
302.665
302.687
302.717
302.758
302.824
302.862
302.898
302.958
302.95
302.937
302.885
302.86
302.853
302.824
302.826
302.891
302.944
342.672
341.726
341.043
340.693
341.043
341.598
342.422
343.279
344.069
344.776
345.12
345.259
344.898
344.545
343.953
343.509
343.466
343.712
344.364
345.262
337.068
336.278
335.692
335.387
335.645
336.142
336.832
337.576
338.216
338.827
339.142
339.235
338.948
338.637
338.12
337.744
337.718
337.937
338.479
339.215
331.429
330.782
330.29
330.002
330.233
330.65
331.212
331.841
332.361
332.856
333.133
333.198
332.984
332.723
332.263
331.979
331.968
332.138
332.581
333.181
325.769
325.255
324.83
324.59
324.776
325.111
325.573
326.086
326.494
326.887
327.098
327.188
327.011
326.769
326.417
326.214
326.199
326.338
326.683
327.143
320.072
319.679
319.348
319.164
319.314
319.574
319.922
320.329
320.618
320.93
321.093
321.16
321.038
320.827
320.575
320.422
320.386
320.5
320.783
321.126
314.353
314.087
313.837
313.724
313.802
314.012
314.251
314.539
314.758
314.946
315.081
315.114
315.048
314.885
314.711
314.608
314.569
314.661
314.87
315.078
308.616
308.465
308.312
308.254
308.293
308.413
308.557
308.743
308.869
308.997
309.064
309.066
309.039
308.946
308.853
308.778
308.752
308.795
308.932
309.047
302.882
302.843
302.788
302.765
302.791
302.812
302.874
302.931
302.971
303.019
303.036
303.04
303.023
303.008
302.966
302.945
302.933
302.944
303.004
303.034
344.445
343.461
342.723
342.502
342.763
343.249
344.014
344.851
345.728
346.418
346.687
346.727
346.416
346.063
345.569
345.211
345.294
345.481
346.084
346.894
338.618
337.78
337.131
336.915
337.16
337.563
338.211
338.943
339.695
340.282
340.499
340.537
340.255
339.955
339.535
339.227
339.306
339.452
339.978
340.621
332.757
332.054
331.484
331.282
331.515
331.846
332.385
332.994
333.64
334.104
334.305
334.344
334.077
333.851
333.493
333.21
333.314
333.408
333.86
334.38
326.866
326.272
325.808
325.652
325.831
326.122
326.542
327.022
327.581
327.909
328.093
328.128
327.908
327.718
327.455
327.188
327.298
327.36
327.725
328.141
320.929
320.473
320.099
319.986
320.107
320.38
320.684
321.043
321.495
321.721
321.879
321.873
321.732
321.573
321.386
321.192
321.248
321.302
321.575
321.903
314.944
314.652
314.383
314.296
314.345
314.58
314.81
315.054
315.382
315.54
315.651
315.63
315.557
315.432
315.312
315.164
315.18
315.219
315.422
315.649
308.954
308.803
308.661
308.594
308.6
308.782
308.898
309.048
309.248
309.333
309.413
309.383
309.366
309.285
309.22
309.119
309.13
309.129
309.254
309.406
302.998
302.947
302.908
302.882
302.879
302.954
302.98
303.03
303.11
303.129
303.158
303.142
303.14
303.112
303.091
303.061
303.054
303.071
303.101
303.154
346.294
345.4
344.631
344.313
344.532
344.937
345.618
346.417
347.263
347.922
348.257
348.447
348.101
347.685
347.245
346.938
346.963
347.122
347.791
348.594
340.207
339.453
338.804
338.512
338.691
339.056
339.6
340.309
341.022
341.58
341.86
342.019
341.715
341.371
340.971
340.705
340.748
340.888
341.446
342.117
334.074
333.46
332.939
332.649
332.83
333.13
333.542
334.162
334.755
335.217
335.45
335.595
335.334
335.025
334.682
334.47
334.49
334.644
335.102
335.63
327.913
327.427
327.03
326.76
326.92
327.16
327.486
327.991
328.483
328.834
329.024
329.145
328.929
328.66
328.375
328.218
328.218
328.399
328.748
329.164
321.747
321.375
321.108
320.857
320.976
321.146
321.392
321.804
322.191
322.455
322.573
322.68
322.502
322.292
322.099
321.972
321.959
322.109
322.392
322.684
315.548
315.299
315.129
314.925
315.004
315.119
315.301
315.597
315.883
316.064
316.116
316.204
316.078
315.931
315.814
315.716
315.702
315.816
316.013
316.204
309.369
309.207
309.11
308.957
309.026
309.081
309.198
309.385
309.565
309.641
309.671
309.737
309.655
309.563
309.508
309.441
309.424
309.484
309.603
309.751
303.149
303.09
303.065
303
303.022
303.044
303.09
303.141
303.213
303.237
303.241
303.271
303.238
303.214
303.203
303.158
303.155
303.175
303.201
303.276
348.067
347.188
346.582
346.168
346.395
346.681
347.322
347.999
348.822
349.361
349.835
349.946
349.638
349.345
349.024
348.747
348.668
348.929
349.549
350.422
341.729
341.002
340.47
340.121
340.292
340.558
341.078
341.659
342.351
342.821
343.211
343.331
343.04
342.798
342.535
342.319
342.22
342.438
342.979
343.714
335.373
334.771
334.323
334.026
334.151
334.416
334.81
335.274
335.875
336.267
336.564
336.7
336.457
336.216
336.02
335.851
335.754
335.943
336.373
337
328.977
328.495
328.148
327.884
327.986
328.235
328.537
328.895
329.388
329.698
329.913
330.045
329.852
329.63
329.479
329.364
329.261
329.45
329.775
330.252
322.58
322.197
321.943
321.717
321.812
322.002
322.216
322.509
322.873
323.114
323.251
323.383
323.23
323.075
322.928
322.874
322.773
322.916
323.189
323.526
316.165
315.876
315.692
315.534
315.602
315.754
315.882
316.105
316.362
316.527
316.593
316.712
316.604
316.501
316.411
316.366
316.278
316.361
316.573
316.806
309.723
309.535
309.438
309.336
309.393
309.465
309.554
309.669
309.839
309.948
309.96
310.029
309.978
309.914
309.873
309.841
309.772
309.823
309.951
310.092
303.26
303.194
303.166
303.137
303.151
303.176
303.207
303.246
303.305
303.333
303.327
303.366
303.348
303.333
303.32
303.304
303.278
303.292
303.33
303.37
349.829
349.104
348.526
348.145
348.313
348.53
348.965
349.666
350.383
350.856
351.222
351.426
351.189
350.952
350.65
350.5
350.432
350.766
351.451
352.232
343.275
342.678
342.161
341.838
341.99
342.155
342.521
343.124
343.725
344.134
344.441
344.563
344.405
344.2
343.946
343.806
343.746
344.043
344.63
345.28
336.676
336.184
335.759
335.464
335.616
335.749
336.064
336.542
337.045
337.421
337.614
337.722
337.586
337.425
337.248
337.083
337.051
337.276
337.787
338.31
330.032
329.646
329.283
329.062
329.212
329.311
329.568
329.954
330.342
330.678
330.788
330.864
330.744
330.658
330.511
330.348
330.356
330.511
330.915
331.331
323.409
323.095
322.807
322.613
322.782
322.839
323.028
323.337
323.618
323.895
323.95
323.997
323.908
323.872
323.746
323.618
323.631
323.743
324.048
324.368
316.741
316.508
316.32
316.161
316.294
316.348
316.467
316.69
316.874
317.115
317.108
317.15
317.069
317.073
316.986
316.881
316.897
316.963
317.182
317.415
310.064
309.928
309.81
309.714
309.792
309.835
309.895
310.049
310.144
310.311
310.298
310.29
310.259
310.261
310.213
310.133
310.165
310.195
310.319
310.449
303.371
303.331
303.287
303.258
303.277
303.309
303.32
303.365
303.395
303.461
303.459
303.454
303.45
303.445
303.419
303.401
303.41
303.417
303.465
303.505
351.817
350.99
350.29
350.042
350.098
350.345
350.7
351.258
351.878
352.449
352.603
352.734
352.819
352.524
352.246
352.193
352.278
352.549
353.162
353.978
345.007
344.293
343.686
343.475
343.546
343.729
344.022
344.497
345.045
345.519
345.637
345.733
345.839
345.565
345.313
345.273
345.364
345.583
346.086
346.776
338.159
337.556
337.034
336.866
336.918
337.054
337.314
337.704
338.167
338.542
338.67
338.703
338.817
338.602
338.376
338.335
338.441
338.615
339.035
339.557
331.244
330.796
330.357
330.218
330.235
330.356
330.562
330.875
331.261
331.573
331.672
331.681
331.782
331.627
331.435
331.409
331.501
331.627
331.977
332.36
324.312
324.008
323.651
323.548
323.546
323.659
323.812
324.034
324.343
324.598
324.659
324.654
324.739
324.633
324.489
324.477
324.531
324.612
324.879
325.149
317.368
317.193
316.923
316.854
316.841
316.913
317.028
317.181
317.41
317.599
317.655
317.613
317.672
317.616
317.524
317.51
317.539
317.591
317.775
317.966
310.426
310.34
310.19
310.124
310.121
310.18
310.242
310.316
310.471
310.586
310.629
310.591
310.62
310.592
310.513
310.515
310.527
310.559
310.683
310.787
303.504
303.469
303.41
303.385
303.395
303.42
303.437
303.47
303.513
303.557
303.573
303.547
303.555
303.554
303.535
303.525
303.526
303.542
303.587
303.618
353.661
352.849
352.26
351.97
351.922
351.954
352.456
352.828
353.448
353.82
354.126
354.244
354.232
354.08
353.859
353.86
353.992
354.283
354.856
355.667
346.596
345.926
345.404
345.151
345.113
345.142
345.558
345.873
346.406
346.708
346.953
347.061
347.045
346.912
346.712
346.713
346.833
347.095
347.587
348.265
339.512
338.968
338.516
338.274
338.252
338.282
338.621
338.879
339.33
339.569
339.771
339.85
339.855
339.731
339.566
339.559
339.669
339.875
340.298
340.847
332.409
331.958
331.578
331.361
331.35
331.368
331.648
331.874
332.233
332.428
332.559
332.632
332.642
332.531
332.395
332.413
332.501
332.677
333.012
333.422
325.246
324.895
324.603
324.431
324.425
324.447
324.644
324.844
325.079
325.264
325.348
325.386
325.412
325.337
325.21
325.246
325.305
325.437
325.692
325.996
318.055
317.823
317.617
317.472
317.466
317.487
317.619
317.798
317.935
318.06
318.138
318.134
318.168
318.131
318.02
318.045
318.086
318.185
318.38
318.575
310.846
310.704
310.6
310.502
310.485
310.503
310.59
310.714
310.788
310.852
310.914
310.887
310.921
310.896
310.816
310.837
310.857
310.924
311.051
311.15
303.639
303.594
303.562
303.53
303.517
303.518
303.568
303.594
303.607
303.641
303.662
303.645
303.655
303.661
303.623
303.627
303.629
303.663
303.709
303.73
355.483
354.859
354.238
353.868
353.742
353.781
354.208
354.466
354.95
355.302
355.58
355.715
355.758
355.6
355.444
355.499
355.643
356.115
356.744
357.552
348.185
347.654
347.131
346.794
346.685
346.703
347.068
347.286
347.704
347.986
348.23
348.342
348.39
348.253
348.094
348.16
348.277
348.661
349.238
349.887
340.824
340.41
339.979
339.682
339.6
339.594
339.882
340.093
340.43
340.648
340.836
340.951
341.011
340.886
340.743
340.793
340.898
341.218
341.692
342.196
333.471
333.112
332.763
332.519
332.46
332.444
332.68
332.845
333.132
333.304
333.436
333.535
333.598
333.496
333.384
333.415
333.521
333.715
334.137
334.498
326.094
325.799
325.51
325.347
325.281
325.251
325.446
325.56
325.797
325.923
326.029
326.106
326.165
326.073
326.012
326.029
326.09
326.226
326.56
326.836
318.675
318.454
318.257
318.127
318.085
318.051
318.2
318.302
318.435
318.534
318.622
318.663
318.711
318.655
318.601
318.639
318.652
318.745
318.974
319.194
311.233
311.095
310.979
310.893
310.87
310.849
310.92
311.013
311.082
311.129
311.193
311.22
311.237
311.211
311.167
311.224
311.218
311.252
311.404
311.541
303.76
303.719
303.682
303.653
303.637
303.636
303.65
303.698
303.716
303.727
303.751
303.762
303.774
303.759
303.756
303.768
303.762
303.774
303.817
303.876
357.474
356.872
356.159
355.795
355.649
355.509
355.788
356.085
356.463
356.819
357.054
357.243
357.269
357.146
357.142
357.217
357.417
357.943
358.688
359.394
349.931
349.405
348.815
348.471
348.322
348.201
348.45
348.685
349.002
349.305
349.502
349.649
349.701
349.573
349.577
349.647
349.8
350.249
350.901
351.499
342.321
341.884
341.39
341.104
340.977
340.872
341.087
341.267
341.519
341.775
341.918
342.029
342.118
341.986
341.996
342.087
342.158
342.539
343.104
343.599
334.697
334.333
333.918
333.686
333.598
333.486
333.666
333.819
334.005
334.219
334.297
334.413
334.52
334.405
334.38
334.483
334.52
334.822
335.289
335.691
327.027
326.76
326.414
326.231
326.169
326.095
326.223
326.346
326.485
326.63
326.685
326.779
326.903
326.801
326.768
326.841
326.859
327.079
327.46
327.77
319.357
319.163
318.893
318.764
318.702
318.676
318.789
318.853
318.943
319.039
319.078
319.145
319.247
319.16
319.148
319.202
319.188
319.337
319.649
319.847
311.629
311.525
311.365
311.283
311.223
311.213
311.298
311.323
311.383
311.444
311.454
311.517
311.554
311.504
311.504
311.537
311.511
311.612
311.805
311.93
303.895
303.863
303.811
303.795
303.758
303.764
303.781
303.78
303.819
303.836
303.844
303.856
303.872
303.857
303.851
303.871
303.863
303.891
303.964
303.993
359.393
358.793
358.043
357.57
357.457
357.308
357.494
357.765
357.956
358.279
358.456
358.616
358.616
358.665
358.754
358.857
359.117
359.656
360.345
361.106
351.578
351.07
350.412
350.003
349.91
349.769
349.913
350.154
350.304
350.574
350.72
350.873
350.844
350.876
350.988
351.032
351.291
351.746
352.351
352.966
343.719
343.291
342.743
342.399
342.319
342.182
342.319
342.521
342.615
342.859
342.969
343.094
343.051
343.089
343.197
343.221
343.416
343.806
344.344
344.846
335.822
335.47
335.029
334.751
334.708
334.575
334.694
334.849
334.905
335.105
335.204
335.297
335.244
335.285
335.354
335.39
335.533
335.879
336.314
336.724
327.915
327.635
327.264
327.057
327.048
326.917
327.01
327.135
327.185
327.316
327.406
327.478
327.423
327.47
327.514
327.528
327.635
327.932
328.253
328.593
319.974
319.77
319.486
319.346
319.34
319.247
319.322
319.38
319.445
319.514
319.584
319.643
319.605
319.647
319.666
319.663
319.733
319.962
320.173
320.451
312.002
311.887
311.717
311.643
311.626
311.556
311.615
311.64
311.685
311.704
311.752
311.816
311.763
311.813
311.818
311.804
311.848
311.987
312.101
312.295
304.017
303.984
303.924
303.908
303.905
303.878
303.902
303.905
303.919
303.919
303.937
303.974
303.942
303.967
303.958
303.957
303.965
304.019
304.056
304.127
361.261
360.549
359.874
359.391
359.159
359.011
359.177
359.353
359.446
359.702
359.866
360.022
360.018
360.173
360.272
360.44
360.764
361.397
362.075
362.789
353.191
352.567
352.02
351.573
351.384
351.227
351.38
351.516
351.545
351.807
351.949
352.066
352.049
352.188
352.31
352.416
352.724
353.257
353.827
354.408
345.096
344.519
344.132
343.749
343.551
343.41
343.555
343.654
343.623
343.874
343.999
344.093
344.073
344.185
344.314
344.381
344.664
345.126
345.575
346.044
336.933
336.454
336.161
335.853
335.693
335.551
335.679
335.756
335.712
335.931
336.045
336.107
336.079
336.175
336.296
336.324
336.593
336.957
337.313
337.674
328.764
328.389
328.157
327.936
327.795
327.671
327.789
327.842
327.83
327.981
328.052
328.11
328.066
328.159
328.252
328.258
328.497
328.781
329.046
329.332
320.558
320.303
320.144
319.958
319.862
319.752
319.88
319.901
319.913
320.005
320.038
320.082
320.058
320.16
320.213
320.2
320.378
320.599
320.781
320.975
312.36
312.198
312.124
311.99
311.92
311.862
311.952
311.957
311.975
312.031
312.023
312.063
312.053
312.141
312.163
312.145
312.256
312.378
312.492
312.601
304.14
304.089
304.074
304.022
304
303.968
304.007
304.015
304.008
304.028
304.029
304.04
304.043
304.075
304.088
304.079
304.118
304.146
304.185
304.216
362.873
362.117
361.498
361.025
360.685
360.554
360.59
360.748
360.884
361.051
361.211
361.359
361.52
361.494
361.72
361.835
362.265
362.914
363.676
364.215
354.559
353.926
353.376
352.977
352.68
352.52
352.578
352.709
352.827
352.984
353.1
353.218
353.354
353.325
353.519
353.6
353.983
354.569
355.185
355.649
346.214
345.696
345.215
344.889
344.619
344.478
344.528
344.644
344.748
344.868
344.962
345.073
345.178
345.146
345.322
345.396
345.725
346.187
346.714
347.063
337.855
337.429
337.035
336.766
336.538
336.455
336.451
336.562
336.67
336.733
336.796
336.909
336.995
336.963
337.111
337.185
337.431
337.804
338.219
338.494
329.476
329.138
328.844
328.616
328.434
328.389
328.366
328.462
328.565
328.604
328.611
328.749
328.791
328.768
328.881
328.959
329.135
329.444
329.739
329.945
321.089
320.833
320.633
320.458
320.322
320.31
320.273
320.351
320.439
320.464
320.413
320.56
320.592
320.554
320.638
320.705
320.853
321.045
321.244
321.394
312.683
312.514
312.403
312.289
312.204
312.205
312.179
312.236
312.289
312.292
312.266
312.365
312.381
312.354
312.417
312.438
312.544
312.646
312.736
312.859
304.259
304.189
304.164
304.119
304.083
304.09
304.075
304.107
304.13
304.115
304.109
304.142
304.144
304.14
304.167
304.168
304.211
304.242
304.267
304.323
363.939
363.331
362.696
362.198
361.905
361.678
361.693
361.791
361.95
361.975
362.278
362.223
362.514
362.513
362.679
362.996
363.475
364.076
364.673
365.421
355.422
354.899
354.358
353.927
353.679
353.485
353.481
353.581
353.712
353.705
353.962
353.902
354.152
354.164
354.297
354.581
354.983
355.498
356.029
356.65
346.906
346.468
346.003
345.644
345.454
345.29
345.237
345.373
345.47
345.415
345.645
345.609
345.787
345.832
345.941
346.172
346.5
346.932
347.41
347.933
338.376
338.032
337.652
337.358
337.21
337.06
337.027
337.149
337.225
337.137
337.34
337.354
337.434
337.498
337.587
337.744
338.028
338.409
338.782
339.218
329.868
329.591
329.285
329.051
328.967
328.835
328.836
328.902
328.966
328.871
329.043
329.07
329.11
329.162
329.248
329.364
329.591
329.872
330.143
330.509
321.357
321.14
320.923
320.761
320.716
320.62
320.634
320.639
320.694
320.626
320.755
320.757
320.799
320.837
320.893
320.98
321.153
321.344
321.534
321.806
312.837
312.687
312.568
312.479
312.432
312.395
312.403
312.41
312.43
312.389
312.465
312.47
312.491
312.508
312.554
312.601
312.713
312.825
312.933
313.099
304.305
304.244
304.214
304.186
304.165
304.158
304.154
304.171
304.163
304.154
304.181
304.178
304.188
304.189
304.203
304.224
304.267
304.293
304.33
304.389
)
;

boundaryField
{
    hotSide
    {
        type            fixedGradient;
        gradient        nonuniform List<scalar> 
400
(
367.782
370.699
376.698
385.706
397.426
411.428
427.248
444.46
462.706
481.704
501.232
521.123
541.249
561.51
581.828
602.143
622.403
642.572
662.625
682.553
350.131
353.248
359.665
369.293
381.775
396.602
413.244
431.234
450.188
469.813
489.887
510.243
530.761
551.346
571.93
592.457
612.883
633.175
653.313
673.295
340.532
344.106
350.943
360.946
373.761
388.887
405.799
424.025
443.182
462.969
483.163
503.597
524.149
544.731
565.277
585.738
606.078
626.271
646.303
666.177
338.501
342.767
350.038
360.216
373.002
387.97
404.658
422.632
441.524
461.039
480.949
501.084
521.322
541.574
561.78
581.899
601.903
621.774
641.509
661.114
342.031
347.112
354.862
365.181
377.827
392.46
408.694
426.153
444.499
463.448
482.779
502.322
521.958
541.606
561.213
580.748
600.195
619.55
638.815
658.003
348.855
354.784
363.078
373.63
386.233
400.604
416.416
433.34
451.068
469.336
487.932
506.703
525.54
544.38
563.188
581.952
600.67
619.352
638.008
656.656
357.15
363.913
372.816
383.737
396.482
410.791
426.366
442.897
460.093
477.703
495.533
513.45
531.377
549.28
567.157
585.022
602.895
620.799
638.757
656.785
365.573
373.123
382.669
394.08
407.154
421.63
437.206
453.564
470.402
487.468
504.582
521.643
538.619
555.528
572.412
589.321
606.303
623.396
640.628
658.017
373.116
381.35
391.515
403.469
416.999
431.829
447.628
464.039
480.722
497.4
513.903
530.169
546.231
562.174
578.098
594.094
610.234
626.569
643.131
659.936
379.009
387.746
398.405
410.841
424.834
440.085
456.227
472.849
489.55
506.011
522.061
537.686
552.99
568.133
583.271
598.53
614.002
629.743
645.785
662.139
382.72
391.692
402.61
415.327
429.619
445.175
461.598
478.436
495.237
511.644
527.48
542.763
557.652
572.353
587.059
601.917
617.026
632.445
648.205
664.315
384.024
392.905
403.768
416.467
430.773
446.367
462.85
479.761
496.646
513.146
529.077
544.454
559.427
574.199
588.96
603.858
618.994
634.429
650.196
666.306
383.075
391.542
402.046
414.439
428.489
443.879
460.218
477.076
494.037
510.77
527.09
542.968
558.495
573.821
589.099
604.456
619.99
635.761
651.81
668.155
380.425
388.218
398.147
410.066
423.739
438.849
455.02
471.854
488.975
506.081
522.98
539.596
555.947
572.113
588.193
604.285
620.469
636.807
653.34
670.097
377.024
383.972
393.224
404.641
417.98
432.909
449.046
466.002
483.421
501.013
518.573
535.988
553.224
570.298
587.264
604.184
621.12
638.126
655.244
672.505
374.241
380.258
388.824
399.81
412.945
427.857
444.13
461.355
479.171
497.285
515.485
533.636
551.669
569.566
587.344
605.038
622.692
640.349
658.047
675.82
373.94
379.024
386.945
397.58
410.613
425.603
442.077
459.589
477.766
496.314
515.016
533.73
552.37
570.9
589.312
607.624
625.863
644.063
662.257
680.475
378.404
382.667
389.993
400.267
413.127
428.071
444.576
462.173
480.483
499.213
518.152
537.156
556.133
575.033
593.838
612.548
631.18
649.758
668.306
686.85
389.672
393.346
400.113
409.868
422.251
436.761
452.878
470.142
488.18
506.709
525.522
544.473
563.465
582.437
601.36
620.222
639.025
657.784
676.515
695.234
408.336
411.685
417.919
426.953
438.491
452.107
467.35
483.803
501.122
519.036
537.342
555.888
574.57
593.318
612.086
630.85
649.601
668.34
687.071
705.805
)
;
    }
    coldSide
    {
        type            mixed;
        refValue        uniform 300;
        refGradient     uniform 0;
        valueFraction   uniform 0.991591;
        source          uniform 0;
        value           nonuniform List<scalar> 
400
(
300.02
300.02
300.021
300.021
300.022
300.022
300.024
300.024
300.025
300.026
300.027
300.028
300.029
300.031
300.032
300.033
300.034
300.035
300.036
300.036
300.02
300.02
300.02
300.021
300.021
300.022
300.023
300.024
300.025
300.026
300.027
300.028
300.029
300.03
300.031
300.032
300.033
300.034
300.035
300.036