/*--------------------------------*- C++ -*----------------------------------*\
| =========                 |                                                 |
| \\      /  F ield         | OpenFOAM: The Open Source CFD Toolbox           |
|  \\    /   O peration     | Version:  2212                                  |
|   \\  /    A nd           | Website:  www.openfoam.com                      |
|    \\/     M anipulation  |                                                 |
\*---------------------------------------------------------------------------*/
FoamFile
{
    version     2.0;
    format      ascii;
    arch        "LSB;label=32;scalar=64";
    class       volScalarField;
    location    "0";
    object      Tdirect;
}
// * * * * * * * * * * * * * * * * * * * * * * * * * * * * * * * * * * * * * //

dimensions      [0 0 0 1 0 0 0];

internalField   nonuniform List<scalar> 
3200
(
343.602
344.511
345.671
346.935
348.237
349.515
350.694
351.69
352.415
352.799
352.799
352.415
351.69
350.694
349.515
348.237
346.935
345.671
344.511
343.602
337.815
338.584
339.584
340.678
341.804
342.91
343.93
344.79
345.416
345.747
345.747
345.416
344.79
343.93
342.91
341.804
340.678
339.584
338.584
337.815
332.017
332.655
333.498
334.422
335.374
336.308
337.169
337.895
338.423
338.702
338.702
338.423
337.895
337.169
336.308
335.374
334.422
333.498
332.655
332.017
326.211
326.725
327.412
328.167
328.945
329.708
330.412
331.004
331.436
331.663
331.663
331.436
331.004
330.412
329.708
328.945
328.167
327.412
326.725
326.211
320.399
320.793
321.326
321.913
322.518
323.111
323.657
324.117
324.452
324.629
324.629
324.452
324.117
323.657
323.111
322.518
321.913
321.326
320.793
320.399
314.581
314.86
315.24
315.659
316.091
316.514
316.904
317.233
317.472
317.598
317.598
317.472
317.233
316.904
316.514
316.091
315.659
315.24
314.86
314.581
308.76
308.926
309.154
309.406
309.665
309.919
310.154
310.351
310.494
310.57
310.57
310.494
310.351
310.154
309.919
309.665
309.406
309.154
308.926
308.76
302.937
302.992
303.069
303.153
303.24
303.325
303.403
303.47
303.518
303.543
303.543
303.518
303.47
303.403
303.325
303.24
303.153
303.069
302.992
302.937
343.715
344.616
345.766
347.018
348.307
349.571
350.737
351.72
352.436
352.814
352.814
352.436
351.72
350.737
349.571
348.307
347.018
345.766
344.616
343.715
337.912
338.675
339.666
340.75
341.865
342.958
343.966
344.816
345.434
345.761
345.761
345.434
344.816
343.966
342.958
341.865
340.75
339.666
338.675
337.912
332.099
332.732
333.567
334.483
335.425
336.349
337.2
337.917
338.439
338.714
338.714
338.439
337.917
337.2
336.349
335.425
334.483
333.567
332.732
332.099
326.278
326.787
327.469
328.217
328.987
329.742
330.437
331.023
331.449
331.673
331.673
331.449
331.023
330.437
329.742
328.987
328.217
327.469
326.787
326.278
320.451
320.842
321.37
321.951
322.55
323.137
323.677
324.132
324.462
324.637
324.637
324.462
324.132
323.677
323.137
322.55
321.951
321.37
320.842
320.451
314.618
314.895
315.272
315.687
316.114
316.533
316.919
317.243
317.479
317.604
317.604
317.479
317.243
316.919
316.533
316.114
315.687
315.272
314.895
314.618
308.782
308.947
309.173
309.423
309.679
309.931
310.162
310.357
310.499
310.573
310.573
310.499
310.357
310.162
309.931
309.679
309.423
309.173
308.947
308.782
302.944
302.999
303.075
303.159
303.245
303.329
303.406
303.472
303.519
303.544
303.544
303.519
303.472
303.406
303.329
303.245
303.159
303.075
302.999
302.944
343.941
344.828
345.958
347.187
348.45
349.686
350.825
351.784
352.482
352.85
352.85
352.482
351.784
350.825
349.686
348.45
347.187
345.958
344.828
343.941
338.107
338.858
339.833
340.896
341.989
343.059
344.043
344.872
345.475
345.793
345.793
345.475
344.872
344.043
343.059
341.989
340.896
339.833
338.858
338.107
332.264
332.887
333.708
334.606
335.53
336.434
337.266
337.965
338.474
338.742
338.742
338.474
337.965
337.266
336.434
335.53
334.606
333.708
332.887
332.264
326.412
326.914
327.584
328.318
329.073
329.812
330.491
331.062
331.477
331.696
331.696
331.477
331.062
330.491
329.812
329.073
328.318
327.584
326.914
326.412
320.555
320.94
321.459
322.03
322.617
323.191
323.719
324.163
324.485
324.655
324.655
324.485
324.163
323.719
323.191
322.617
322.03
321.459
320.94
320.555
314.693
314.965
315.335
315.743
316.162
316.572
316.949
317.266
317.496
317.617
317.617
317.496
317.266
316.949
316.572
316.162
315.743
315.335
314.965
314.693
308.827
308.99
309.212
309.456
309.708
309.954
310.18
310.37
310.508
310.581
310.581
310.508
310.37
310.18
309.954
309.708
309.456
309.212
308.99
308.827
302.959
303.013
303.088
303.17
303.254
303.337
303.412
303.476
303.522
303.547
303.547
303.522
303.476
303.412
303.337
303.254
303.17
303.088
303.013
302.959
344.282
345.148
346.25
347.446
348.671
349.868
350.968
351.893
352.564
352.918
352.918
352.564
351.893
350.968
349.868
348.671
347.446
346.25
345.148
344.282
338.402
339.135
340.086
341.12
342.181
343.216
344.168
344.967
345.547
345.853
345.853
345.547
344.967
344.168
343.216
342.181
341.12
340.086
339.135
338.402
332.513
333.121
333.922
334.796
335.692
336.567
337.371
338.046
338.535
338.793
338.793
338.535
338.046
337.371
336.567
335.692
334.796
333.922
333.121
332.513
326.616
327.105
327.758
328.473
329.206
329.921
330.577
331.128
331.528
331.739
331.739
331.528
331.128
330.577
329.921
329.206
328.473
327.758
327.105
326.616
320.713
321.089
321.595
322.15
322.72
323.276
323.786
324.214
324.525
324.688
324.688
324.525
324.214
323.786
323.276
322.72
322.15
321.595
321.089
320.713
314.805
315.071
315.432
315.829
316.236
316.633
316.997
317.303
317.524
317.641
317.641
317.524
317.303
316.997
316.633
316.236
315.829
315.432
315.071
314.805
308.895
309.053
309.27
309.508
309.752
309.991
310.209
310.393
310.526
310.596
310.596
310.526
310.393
310.209
309.991
309.752
309.508
309.27
309.053
308.895
302.982
303.035
303.107
303.187
303.269
303.349
303.422
303.484
303.528
303.552
303.552
303.528
303.484
303.422
303.349
303.269
303.187
303.107
303.035
302.982
344.741
345.581
346.646
347.799
348.977
350.125
351.176
352.057
352.696
353.033
353.033
352.696
352.057
351.176
350.125
348.977
347.799
346.646
345.581
344.741
338.799
339.509
340.429
341.426
342.446
343.439
344.348
345.11
345.662
345.953
345.953
345.662
345.11
344.348
343.439
342.446
341.426
340.429
339.509
338.799
332.847
333.437
334.212
335.055
335.917
336.756
337.524
338.167
338.634
338.879
338.879
338.634
338.167
337.524
336.756
335.917
335.055
334.212
333.437
332.847
326.889
327.364
327.995
328.684
329.389
330.075
330.703
331.228
331.609
331.809
331.809
331.609
331.228
330.703
330.075
329.389
328.684
327.995
327.364
326.889
320.925
321.29
321.779
322.315
322.863
323.396
323.884
324.292
324.588
324.743
324.743
324.588
324.292
323.884
323.396
322.863
322.315
321.779
321.29
320.925
314.957
315.215
315.564
315.946
316.338
316.719
317.067
317.358
317.569
317.68
317.68
317.569
317.358
317.067
316.719
316.338
315.946
315.564
315.215
314.957
308.986
309.139
309.349
309.578
309.813
310.042
310.251
310.426
310.553
310.619
310.619
310.553
310.426
310.251
310.042
309.813
309.578
309.349
309.139
308.986
303.012
303.064
303.134
303.211
303.29
303.366
303.436
303.495
303.537
303.56
303.56
303.537
303.495
303.436
303.366
303.29
303.211
303.134
303.064
303.012
345.322
346.13
347.153
348.255
349.378
350.467
351.462
352.293
352.894
353.211
353.211
352.894
352.293
351.462
350.467
349.378
348.255
347.153
346.13
345.322
339.3
339.984
340.867
341.821
342.793
343.736
344.596
345.315
345.835
346.108
346.108
345.835
345.315
344.596
343.736
342.793
341.821
340.867
339.984
339.3
333.271
333.838
334.582
335.388
336.21
337.007
337.734
338.341
338.78
339.011
339.011
338.78
338.341
337.734
337.007
336.21
335.388
334.582
333.838
333.271
327.235
327.692
328.298
328.957
329.629
330.28
330.875
331.371
331.729
331.918
331.918
331.729
331.371
330.875
330.28
329.629
328.957
328.298
327.692
327.235
321.194
321.545
322.015
322.527
323.049
323.556
324.018
324.403
324.682
324.828
324.828
324.682
324.403
324.018
323.556
323.049
322.527
322.015
321.545
321.194
315.149
315.397
315.732
316.098
316.471
316.833
317.163
317.438
317.637
317.741
317.741
317.637
317.438
317.163
316.833
316.471
316.098
315.732
315.397
315.149
309.101
309.249
309.45
309.669
309.893
310.111
310.309
310.474
310.593
310.656
310.656
310.593
310.474
310.309
310.111
309.893
309.669
309.45
309.249
309.101
303.051
303.1
303.168
303.241
303.316
303.389
303.455
303.511
303.551
303.572
303.572
303.551
303.511
303.455
303.389
303.316
303.241
303.168
303.1
303.051
346.027
346.8
347.774
348.821
349.882
350.907
351.84
352.617
353.177
353.471
353.471
353.177
352.617
351.84
350.907
349.882
348.821
347.774
346.8
346.027
339.91
340.564
341.405
342.311
343.229
344.117
344.924
345.596
346.081
346.335
346.335
346.081
345.596
344.924
344.117
343.229
342.311
341.405
340.564
339.91
333.786
334.328
335.037
335.802
336.579
337.329
338.011
338.579
338.989
339.203
339.203
338.989
338.579
338.011
337.329
336.579
335.802
335.037
334.328
333.786
327.656
328.092
328.67
329.296
329.931
330.544
331.102
331.566
331.9
332.076
332.076
331.9
331.566
331.102
330.544
329.931
329.296
328.67
328.092
327.656
321.521
321.856
322.304
322.79
323.284
323.761
324.194
324.555
324.815
324.951
324.951
324.815
324.555
324.194
323.761
323.284
322.79
322.304
321.856
321.521
315.382
315.619
315.939
316.286
316.639
316.979
317.289
317.546
317.732
317.829
317.829
317.732
317.546
317.289
316.979
316.639
316.286
315.939
315.619
315.382
309.241
309.382
309.574
309.782
309.994
310.199
310.385
310.539
310.65
310.709
310.709
310.65
310.539
310.385
310.199
309.994
309.782
309.574
309.382
309.241
303.098
303.145
303.209
303.279
303.35
303.419
303.481
303.533
303.57
303.59
303.59
303.57
303.533
303.481
303.419
303.35
303.279
303.209
303.145
303.098
346.862
347.596
348.519
349.505
350.5
351.457
352.324
353.044
353.562
353.833
353.833
353.562
353.044
352.324
351.457
350.5
349.505
348.519
347.596
346.862
340.632
341.253
342.049
342.903
343.765
344.594
345.344
345.967
346.415
346.649
346.649
346.415
345.967
345.344
344.594
343.765
342.903
342.049
341.253
340.632
334.395
334.911
335.581
336.303
337.032
337.733
338.367
338.893
339.272
339.47
339.47
339.272
338.893
338.367
337.733
337.032
336.303
335.581
334.911
334.395
328.153
328.568
329.115
329.705
330.301
330.874
331.393
331.823
332.132
332.294
332.294
332.132
331.823
331.393
330.874
330.301
329.705
329.115
328.568
328.153
321.907
322.226
322.65
323.108
323.572
324.018
324.421
324.755
324.995
325.121
325.121
324.995
324.755
324.421
324.018
323.572
323.108
322.65
322.226
321.907
315.658
315.883
316.186
316.513
316.844
317.163
317.451
317.689
317.861
317.951
317.951
317.861
317.689
317.451
317.163
316.844
316.513
316.186
315.883
315.658
309.406
309.541
309.722
309.919
310.118
310.309
310.482
310.625
310.728
310.782
310.782
310.728
310.625
310.482
310.309
310.118
309.919
309.722
309.541
309.406
303.153
303.198
303.259
303.325
303.391
303.456
303.514
303.562
303.596
303.614
303.614
303.596
303.562
303.514
303.456
303.391
303.325
303.259
303.198
303.153
347.83
348.524
349.392
350.315
351.242
352.13
352.93
353.592
354.067
354.315
354.315
354.067
353.592
352.93
352.13
351.242
350.315
349.392
348.524
347.83
341.469
342.056
342.805
343.604
344.407
345.176
345.869
346.442
346.852
347.067
347.067
346.852
346.442
345.869
345.176
344.407
343.604
342.805
342.056
341.469
335.102
335.589
336.22
336.896
337.575
338.225
338.811
339.295
339.642
339.824
339.824
339.642
339.295
338.811
338.225
337.575
336.896
336.22
335.589
335.102
328.731
329.122
329.637
330.19
330.745
331.277
331.756
332.152
332.435
332.584
332.584
332.435
332.152
331.756
331.277
330.745
330.19
329.637
329.122
328.731
322.356
322.657
323.056
323.485
323.917
324.331
324.703
325.011
325.231
325.347
325.347
325.231
325.011
324.703
324.331
323.917
323.485
323.056
322.657
322.356
315.978
316.191
316.475
316.782
317.091
317.386
317.652
317.872
318.03
318.112
318.112
318.03
317.872
317.652
317.386
317.091
316.782
316.475
316.191
315.978
309.598
309.725
309.896
310.08
310.266
310.443
310.603
310.735
310.829
310.879
310.879
310.829
310.735
310.603
310.443
310.266
310.08
309.896
309.725
309.598
303.218
303.26
303.317
303.379
303.441
303.501
303.554
303.598
303.63
303.647
303.647
303.63
303.598
303.554
303.501
303.441
303.379
303.317
303.26
303.218
348.937
349.588
350.4
351.26
352.119
352.937
353.67
354.275
354.707
354.932
354.932
354.707
354.275
353.67
352.937
352.119
351.26
350.4
349.588
348.937
342.425
342.977
343.677
344.422
345.166
345.874
346.51
347.033
347.407
347.602
347.602
347.407
347.033
346.51
345.874
345.166
344.422
343.677
342.977
342.425
335.91
336.367
336.958
337.587
338.216
338.816
339.353
339.796
340.112
340.276
340.276
340.112
339.796
339.353
338.816
338.216
337.587
336.958
336.367
335.91
329.391
329.759
330.24
330.755
331.269
331.76
332.199
332.561
332.819
332.954
332.954
332.819
332.561
332.199
331.76
331.269
330.755
330.24
329.759
329.391
322.868
323.151
323.524
323.924
324.325
324.706
325.048
325.329
325.53
325.635
325.635
325.53
325.329
325.048
324.706
324.325
323.924
323.524
323.151
322.868
316.344
316.544
316.81
317.096
317.382
317.655
317.899
318.1
318.243
318.318
318.318
318.243
318.1
317.899
317.655
317.382
317.096
316.81
316.544
316.344
309.818
309.937
310.097
310.269
310.441
310.604
310.751
310.871
310.958
311.003
311.003
310.958
310.871
310.751
310.604
310.441
310.269
310.097
309.937
309.818
303.291
303.331
303.385
303.442
303.5
303.555
303.604
303.644
303.673
303.688
303.688
303.673
303.644
303.604
303.555
303.5
303.442
303.385
303.331
303.291
350.185
350.794
351.55
352.346
353.138
353.887
354.556
355.105
355.496
355.7
355.7
355.496
355.105
354.556
353.887
353.138
352.346
351.55
350.794
350.185
343.505
344.021
344.673
345.362
346.048
346.697
347.277
347.752
348.091
348.267
348.267
348.091
347.752
347.277
346.697
346.048
345.362
344.673
344.021
343.505
336.821
337.249
337.799
338.382
338.962
339.511
340.002
340.404
340.69
340.839
340.839
340.69
340.404
340.002
339.511
338.962
338.382
337.799
337.249
336.821
330.135
330.479
330.928
331.404
331.879
332.328
332.73
333.058
333.293
333.414
333.414
333.293
333.058
332.73
332.328
331.879
331.404
330.928
330.479
330.135
323.447
323.711
324.059
324.43
324.799
325.148
325.46
325.716
325.898
325.993
325.993
325.898
325.716
325.46
325.148
324.799
324.43
324.059
323.711
323.447
316.757
316.944
317.192
317.457
317.721
317.97
318.193
318.376
318.506
318.574
318.574
318.506
318.376
318.193
317.97
317.721
317.457
317.192
316.944
316.757
310.066
310.178
310.326
310.485
310.644
310.794
310.928
311.037
311.115
311.156
311.156
311.115
311.037
310.928
310.794
310.644
310.485
310.326
310.178
310.066
303.374
303.412
303.461
303.515
303.568
303.618
303.663
303.7
303.726
303.74
303.74
303.726
303.7
303.663
303.618
303.568
303.515
303.461
303.412
303.374
351.579
352.146
352.847
353.581
354.307
354.99
355.598
356.094
356.446
356.63
356.63
356.446
356.094
355.598
354.99
354.307
353.581
352.847
352.146
351.579
344.71
345.19
345.795
346.431
347.06
347.652
348.179
348.608
348.914
349.072
349.072
348.914
348.608
348.179
347.652
347.06
346.431
345.795
345.19
344.71
337.84
338.238
338.747
339.285
339.817
340.318
340.764
341.127
341.385
341.52
341.52
341.385
341.127
340.764
340.318
339.817
339.285
338.747
338.238
337.84
330.967
331.287
331.703
332.143
332.578
332.988
333.353
333.65
333.861
333.971
333.971
333.861
333.65
333.353
332.988
332.578
332.143
331.703
331.287
330.967
324.093
324.339
324.662
325.004
325.342
325.661
325.945
326.176
326.34
326.426
326.426
326.34
326.176
325.945
325.661
325.342
325.004
324.662
324.339
324.093
317.219
317.393
317.622
317.867
318.109
318.337
318.539
318.705
318.822
318.883
318.883
318.822
318.705
318.539
318.337
318.109
317.867
317.622
317.393
317.219
310.343
310.447
310.585
310.731
310.877
311.014
311.135
311.235
311.305
311.342
311.342
311.305
311.235
311.135
311.014
310.877
310.731
310.585
310.447
310.343
303.467
303.502
303.548
303.597
303.646
303.692
303.733
303.766
303.79
303.802
303.802
303.79
303.766
303.733
303.692
303.646
303.597
303.548
303.502
303.467
353.122
353.648
354.295
354.969
355.632
356.253
356.803
357.25
357.566
357.73
357.73
357.566
357.25
356.803
356.253
355.632
354.969
354.295
353.648
353.122
346.044
346.49
347.048
347.632
348.207
348.745
349.221
349.609
349.883
350.025
350.025
349.883
349.609
349.221
348.745
348.207
347.632
347.048
346.49
346.044
338.966
339.336
339.806
340.3
340.786
341.242
341.645
341.973
342.205
342.325
342.325
342.205
341.973
341.645
341.242
340.786
340.3
339.806
339.336
338.966
331.888
332.185
332.569
332.973
333.371
333.744
334.073
334.341
334.531
334.629
334.629
334.531
334.341
334.073
333.744
333.371
332.973
332.569
332.185
331.888
324.809
325.037
325.334
325.649
325.958
326.248
326.505
326.713
326.861
326.937
326.937
326.861
326.713
326.505
326.248
325.958
325.649
325.334
325.037
324.809
317.729
317.891
318.103
318.327
318.549
318.756
318.939
319.088
319.194
319.248
319.248
319.194
319.088
318.939
318.756
318.549
318.327
318.103
317.891
317.729
310.65
310.746
310.873
311.008
311.141
311.265
311.376
311.465
311.528
311.561
311.561
311.528
311.465
311.376
311.265
311.141
311.008
310.873
310.746
310.65
303.57
303.602
303.645
303.69
303.734
303.776
303.813
303.843
303.864
303.875
303.875
303.864
303.843
303.813
303.776
303.734
303.69
303.645
303.602
303.57
354.815
355.302
355.897
356.515
357.118
357.681
358.176
358.577
358.86
359.007
359.007
358.86
358.577
358.176
357.681
357.118
356.515
355.897
355.302
354.815
347.509
347.92
348.434
348.969
349.493
349.98
350.41
350.757
351.003
351.13
351.13
351.003
350.757
350.41
349.98
349.493
348.969
348.434
347.92
347.509
340.203
340.544
340.978
341.43
341.873
342.286
342.649
342.944
343.151
343.259
343.259
343.151
342.944
342.649
342.286
341.873
341.43
340.978
340.544
340.203
332.898
333.173
333.526
333.896
334.259
334.597
334.894
335.135
335.305
335.393
335.393
335.305
335.135
334.894
334.597
334.259
333.896
333.526
333.173
332.898
325.594
325.805
326.079
326.366
326.648
326.911
327.143
327.33
327.462
327.531
327.531
327.462
327.33
327.143
326.911
326.648
326.366
326.079
325.805
325.594
318.29
318.439
318.634
318.84
319.041
319.229
319.395
319.529
319.623
319.672
319.672
319.623
319.529
319.395
319.229
319.041
318.84
318.634
318.439
318.29
310.986
311.075
311.192
311.316
311.437
311.55
311.649
311.73
311.786
311.816
311.816
311.786
311.73
311.649
311.55
311.437
311.316
311.192
311.075
310.986
303.683
303.712
303.752
303.793
303.834
303.871
303.905
303.932
303.951
303.961
303.961
303.951
303.932
303.905
303.871
303.834
303.793
303.752
303.712
303.683
356.658
357.107
357.653
358.217
358.766
359.274
359.72
360.079
360.332
360.463
360.463
360.332
360.079
359.72
359.274
358.766
358.217
357.653
357.107
356.658
349.102
349.482
349.954
350.442
350.917
351.359
351.745
352.056
352.276
352.389
352.389
352.276
352.056
351.745
351.359
350.917
350.442
349.954
349.482
349.102
341.548
341.863
342.261
342.674
343.077
343.45
343.777
344.041
344.226
344.322
344.322
344.226
344.041
343.777
343.45
343.077
342.674
342.261
341.863
341.548
333.997
334.25
334.575
334.913
335.242
335.548
335.815
336.031
336.183
336.262
336.262
336.183
336.031
335.815
335.548
335.242
334.913
334.575
334.25
333.997
326.447
326.642
326.893
327.156
327.413
327.65
327.859
328.027
328.145
328.206
328.206
328.145
328.027
327.859
327.65
327.413
327.156
326.893
326.642
326.447
318.899
319.037
319.216
319.404
319.587
319.757
319.906
320.026
320.11
320.154
320.154
320.11
320.026
319.906
319.757
319.587
319.404
319.216
319.037
318.899
311.352
311.434
311.542
311.654
311.764
311.867
311.956
312.028
312.079
312.105
312.105
312.079
312.028
311.956
311.867
311.764
311.654
311.542
311.434
311.352
303.805
303.833
303.869
303.906
303.943
303.978
304.008
304.032
304.049
304.058
304.058
304.049
304.032
304.008
303.978
303.943
303.906
303.869
303.833
303.805
358.644
359.057
359.558
360.072
360.569
361.028
361.428
361.75
361.976
362.092
362.092
361.976
361.75
361.428
361.028
360.569
360.072
359.558
359.057
358.644
350.818
351.167
351.6
352.045
352.476
352.874
353.221
353.5
353.696
353.797
353.797
353.696
353.5
353.221
352.874
352.476
352.045
351.6
351.167
350.818
342.996
343.286
343.651
344.028
344.393
344.73
345.024
345.26
345.425
345.511
345.511
345.425
345.26
345.024
344.73
344.393
344.028
343.651
343.286
342.996
335.179
335.412
335.71
336.018
336.317
336.593
336.833
337.027
337.162
337.232
337.232
337.162
337.027
336.833
336.593
336.317
336.018
335.71
335.412
335.179
327.365
327.544
327.775
328.015
328.247
328.462
328.649
328.8
328.905
328.96
328.96
328.905
328.8
328.649
328.462
328.247
328.015
327.775
327.544
327.365
319.554
319.681
319.845
320.016
320.183
320.336
320.47
320.578
320.653
320.692
320.692
320.653
320.578
320.47
320.336
320.183
320.016
319.845
319.681
319.554
311.745
311.82
311.919
312.022
312.122
312.214
312.294
312.359
312.404
312.428
312.428
312.404
312.359
312.294
312.214
312.122
312.022
311.919
311.82
311.745
303.937
303.962
303.995
304.03
304.063
304.094
304.121
304.143
304.158
304.166
304.166
304.158
304.143
304.121
304.094
304.063
304.03
303.995
303.962
303.937
360.753
361.133
361.591
362.059
362.51
362.924
363.284
363.572
363.773
363.877
363.877
363.773
363.572
363.284
362.924
362.51
362.059
361.591
361.133
360.753
352.637
352.958
353.354
353.76
354.151
354.51
354.822
355.071
355.246
355.336
355.336
355.246
355.071
354.822
354.51
354.151
353.76
353.354
352.958
352.637
344.529
344.795
345.129
345.472
345.804
346.108
346.372
346.583
346.731
346.807
346.807
346.731
346.583
346.372
346.108
345.804
345.472
345.129
344.795
344.529
336.428
336.643
336.915
337.196
337.467
337.716
337.932
338.106
338.227
338.289
338.289
338.227
338.106
337.932
337.716
337.467
337.196
336.915
336.643
336.428
328.334
328.499
328.71
328.928
329.139
329.333
329.502
329.637
329.731
329.779
329.779
329.731
329.637
329.502
329.333
329.139
328.928
328.71
328.499
328.334
320.245
320.361
320.512
320.668
320.819
320.957
321.078
321.174
321.242
321.276
321.276
321.242
321.174
321.078
320.957
320.819
320.668
320.512
320.361
320.245
312.159
312.229
312.319
312.413
312.503
312.587
312.659
312.717
312.757
312.778
312.778
312.757
312.717
312.659
312.587
312.503
312.413
312.319
312.229
312.159
304.076
304.099
304.129
304.161
304.191
304.219
304.243
304.263
304.276
304.283
304.283
304.276
304.263
304.243
304.219
304.191
304.161
304.129
304.099
304.076
362.93
363.28
363.7
364.127
364.536
364.911
365.234
365.493
365.673
365.766
365.766
365.673
365.493
365.234
364.911
364.536
364.127
363.7
363.28
362.93
354.506
354.802
355.164
355.535
355.89
356.215
356.496
356.72
356.877
356.957
356.957
356.877
356.72
356.496
356.215
355.89
355.535
355.164
354.802
354.506
346.097
346.342
346.648
346.962
347.263
347.539
347.777
347.967
348.099
348.167
348.167
348.099
347.967
347.777
347.539
347.263
346.962
346.648
346.342
346.097
337.702
337.9
338.149
338.406
338.653
338.878
339.073
339.229
339.338
339.393
339.393
339.338
339.229
339.073
338.878
338.653
338.406
338.149
337.9
337.702
329.319
329.471
329.664
329.864
330.056
330.232
330.384
330.505
330.59
330.633
330.633
330.59
330.505
330.384
330.232
330.056
329.864
329.664
329.471
329.319
320.945
321.053
321.191
321.334
321.471
321.597
321.705
321.792
321.852
321.884
321.884
321.852
321.792
321.705
321.597
321.471
321.334
321.191
321.053
320.945
312.579
312.643
312.726
312.811
312.894
312.969
313.035
313.087
313.123
313.142
313.142
313.123
313.087
313.035
312.969
312.894
312.811
312.726
312.643
312.579
304.216
304.237
304.265
304.294
304.322
304.347
304.369
304.386
304.398
304.405
304.405
304.398
304.386
304.369
304.347
304.322
304.294
304.265
304.237
304.216
365.035
365.358
365.746
366.138
366.513
366.854
367.148
367.382
367.544
367.628
367.628
367.544
367.382
367.148
366.854
366.513
366.138
365.746
365.358
365.035
356.291
356.565
356.9
357.241
357.566
357.863
358.118
358.321
358.463
358.536
358.536
358.463
358.321
358.118
357.863
357.566
357.241
356.9
356.565
356.291
347.579
347.806
348.089
348.378
348.654
348.905
349.122
349.295
349.415
349.476
349.476
349.415
349.295
349.122
348.905
348.654
348.378
348.089
347.806
347.579
338.895
339.077
339.309
339.545
339.772
339.978
340.156
340.297
340.396
340.446
340.446
340.396
340.297
340.156
339.978
339.772
339.545
339.309
339.077
338.895
330.234
330.375
330.554
330.738
330.915
331.076
331.214
331.325
331.401
331.441
331.441
331.401
331.325
331.214
331.076
330.915
330.738
330.554
330.375
330.234
321.593
321.692
321.82
321.952
322.078
322.193
322.293
322.371
322.426
322.455
322.455
322.426
322.371
322.293
322.193
322.078
321.952
321.82
321.692
321.593
312.965
313.024
313.101
313.18
313.256
313.325
313.385
313.432
313.465
313.482
313.482
313.465
313.432
313.385
313.325
313.256
313.18
313.101
313.024
312.965
304.345
304.365
304.391
304.417
304.443
304.466
304.486
304.502
304.513
304.518
304.518
304.513
304.502
304.486
304.466
304.443
304.417
304.391
304.365
304.345
366.694
366.998
367.363
367.731
368.081
368.399
368.673
368.89
369.041
369.118
369.118
369.041
368.89
368.673
368.399
368.081
367.731
367.363
366.998
366.694
357.644
357.902
358.218
358.539
358.845
359.122
359.361
359.55
359.682
359.749
359.749
359.682
359.55
359.361
359.122
358.845
358.539
358.218
357.902
357.644
348.667
348.882
349.149
349.422
349.682
349.918
350.121
350.282
350.394
350.451
350.451
350.394
350.282
350.121
349.918
349.682
349.422
349.149
348.882
348.667
339.749
339.922
340.141
340.365
340.578
340.772
340.939
341.072
341.164
341.211
341.211
341.164
341.072
340.939
340.772
340.578
340.365
340.141
339.922
339.749
330.877
331.011
331.181
331.355
331.522
331.673
331.804
331.907
331.979
332.016
332.016
331.979
331.907
331.804
331.673
331.522
331.355
331.181
331.011
330.877
322.041
322.136
322.257
322.382
322.501
322.61
322.703
322.777
322.829
322.855
322.855
322.829
322.777
322.703
322.61
322.501
322.382
322.257
322.136
322.041
313.23
313.286
313.359
313.434
313.506
313.571
313.628
313.672
313.703
313.719
313.719
313.703
313.672
313.628
313.571
313.506
313.434
313.359
313.286
313.23
304.433
304.452
304.476
304.502
304.526
304.548
304.567
304.581
304.592
304.597
304.597
304.592
304.581
304.567
304.548
304.526
304.502
304.476
304.452
304.433
)
;

boundaryField
{
    hotSide
    {
        type            fixedGradient;
        gradient        nonuniform List<scalar> 
400
(
462.086
463.322
465.804
469.552
474.591
480.955
488.684
497.819
508.403
520.482
534.096
549.285
566.087
584.533
604.653
626.471
650.008
675.28
702.3
731.079
474.039
475.181
477.478
480.954
485.647
491.6
498.865
507.496
517.549
529.08
542.142
556.783
573.049
590.977
610.6
631.948
655.041
679.899
706.534
734.957
486.976
488.005
490.08
493.235
497.518
502.987
509.709
517.754
527.195
538.1
550.535
564.56
580.227
597.582
616.661
637.497
660.113
684.528
710.755
738.803
500.681
501.578
503.396
506.178
509.988
514.902
521.005
528.388
537.14
547.347
559.09
572.44
587.457
604.195
622.695
642.99
665.106
689.061
714.866
742.53
514.771
515.52
517.049
519.415
522.698
526.997
532.419
539.077
547.082
556.54
567.545
580.181
594.519
610.616
628.519
648.263
669.873
693.365
718.752
746.036
528.66
529.251
530.471
532.392
535.117
538.766
543.474
549.379
556.614
565.304
575.56
587.478
601.137
616.6
633.918
653.124
674.245
697.295
722.282
749.207
541.551
541.984
542.896
544.376
546.548
549.558
553.568
558.741
565.232
573.187
582.731
593.972
606.997
621.872
638.65
657.366
678.043
700.693
725.322
751.927
552.492
552.782
553.417
554.501
556.178
558.62
562.011
566.539
572.38
579.696
588.626
599.286
611.77
626.148
642.473
660.778
681.086
703.407
727.741
754.085
560.499
560.68
561.102
561.883
563.184
565.194
568.119
572.162
577.517
584.357
592.833
603.066
615.153
629.169
645.164
663.174
683.216
705.301
729.426
755.584
564.742
564.863
565.17
565.786
566.883
568.659
571.331
575.113
580.207
586.793
595.026
605.032
616.91
630.734
646.556
664.41
684.314
706.275
730.29
756.352
564.742
564.863
565.17
565.786
566.883
568.659
571.331
575.113
580.207
586.793
595.026
605.032
616.91
630.734
646.556
664.41
684.314
706.275
730.29
756.352
560.499
560.68
561.102
561.883
563.184
565.194
568.119
572.162
577.517
584.357
592.833
603.066
615.153
629.169
645.164
663.174
683.216
705.301
729.426
755.584
552.492
552.782
553.417
554.501
556.178
558.62
562.011
566.539
572.38
579.696
588.626
599.286
611.77
626.148
642.473
660.778
681.086
703.407
727.741
754.085
541.551
541.984
542.896
544.376
546.548
549.558
553.568
558.741
565.232
573.187
582.731
593.972
606.997
621.872
638.65
657.366
678.043
700.693
725.322
751.927
528.66
529.251
530.471
532.392
535.117
538.766
543.474
549.379
556.614
565.304
575.56
587.478
601.137
616.6
633.918
653.124
674.245
697.295
722.282
749.207
514.771
515.52
517.049
519.415
522.698
526.997
532.419
539.077
547.082
556.54
567.545
580.181
594.519
610.616
628.519
648.263
669.873
693.365
718.752
746.036
500.681
501.578
503.396
506.178
509.988
514.902
521.005
528.388
537.14
547.347
559.09
572.44
587.457
604.195
622.695
642.99
665.106
689.061
714.866
742.53
486.976
488.005
490.08
493.235
497.518
502.987
509.709
517.754
527.195
538.1
550.535
564.56
580.227
597.582
616.661
637.497
660.113
684.528
710.755
738.803
474.039
475.181
477.478
480.954
485.647
491.6
498.865
507.496
517.549
529.08
542.142
556.783
573.049
590.977
610.6
631.948
655.041
679.899
706.534
734.957
462.086
463.322
465.804
469.552
474.591
480.955
488.684
497.819
508.403
520.482
534.096
549.285
566.087
584.533
604.653
626.471
650.008
675.28
702.3
731.079
)
;
    }
    coldSide
    {
        type            mixed;
        refValue        uniform 300;
        refGradient     uniform 0;
        valueFraction   uniform 0.991591;
        source          uniform 0;
        value           nonuniform List<scalar> 
400
(
300.025
300.025
300.025
300.025
300.025
300.026
300.026
300.027
300.027
300.028
300.028
300.029
300.03
300.031
300.032
300.033
300.034
300.035
300.037
300.037
300.025
300.025
300.025
300.026
300.026
300.026
300.026
300.027
300.027
300.028
300.029
300.029
300.03
300.031
300.032
300.033