/*--------------------------------*- C++ -*----------------------------------*\
| =========                 |                                                 |
| \\      /  F ield         | OpenFOAM: The Open Source CFD Toolbox           |
|  \\    /   O peration     | Version:  2212                                  |
|   \\  /    A nd           | Website:  www.openfoam.com                      |
|    \\/     M anipulation  |                                                 |
\*---------------------------------------------------------------------------*/
FoamFile
{
    version     2.0;
    format      ascii;
    arch        "LSB;label=32;scalar=64";
    class       volScalarField;
    location    "0";
    object      Tdirect;
}
// * * * * * * * * * * * * * * * * * * * * * * * * * * * * * * * * * * * * * //

dimensions      [0 0 0 1 0 0 0];

internalField   nonuniform List<scalar> 
3200
(
318.829
319.011
319.243
319.495
319.755
320.011
320.247
320.446
320.591
320.667
320.667
320.591
320.446
320.247
320.011
319.755
319.495
319.243
319.011
318.829
316.253
316.407
316.607
316.825
317.05
317.271
317.475
317.647
317.772
317.839
317.839
317.772
317.647
317.475
317.271
317.05
316.825
316.607
316.407
316.253
313.707
313.834
314.003
314.187
314.378
314.564
314.736
314.881
314.987
315.043
315.043
314.987
314.881
314.736
314.564
314.378
314.187
314.003
313.834
313.707
311.184
311.287
311.424
311.575
311.731
311.883
312.024
312.142
312.229
312.274
312.274
312.229
312.142
312.024
311.883
311.731
311.575
311.424
311.287
311.184
308.682
308.76
308.867
308.984
309.105
309.224
309.333
309.425
309.492
309.527
309.527
309.492
309.425
309.333
309.224
309.105
308.984
308.867
308.76
308.682
306.194
306.249
306.325
306.409
306.496
306.58
306.658
306.724
306.772
306.797
306.797
306.772
306.724
306.658
306.58
306.496
306.409
306.325
306.249
306.194
303.716
303.75
303.795
303.845
303.897
303.948
303.995
304.034
304.063
304.078
304.078
304.063
304.034
303.995
303.948
303.897
303.845
303.795
303.75
303.716
301.245
301.256
301.271
301.288
301.306
301.323
301.338
301.352
301.361
301.366
301.366
301.361
301.352
301.338
301.323
301.306
301.288
301.271
301.256
301.245
318.9
319.08
319.31
319.56
319.818
320.07
320.303
320.5
320.643
320.719
320.719
320.643
320.5
320.303
320.07
319.818
319.56
319.31
319.08
318.9
316.314
316.466
316.665
316.881
317.104
317.323
317.524
317.694
317.818
317.883
317.883
317.818
317.694
317.524
317.323
317.104
316.881
316.665
316.466
316.314
313.758
313.884
314.051
314.234
314.423
314.607
314.777
314.921
315.025
315.08
315.08
315.025
314.921
314.777
314.607
314.423
314.234
314.051
313.884
313.758
311.226
311.328
311.464
311.614
311.768
311.918
312.057
312.174
312.26
312.304
312.304
312.26
312.174
312.057
311.918
311.768
311.614
311.464
311.328
311.226
308.714
308.792
308.898
309.014
309.134
309.251
309.359
309.45
309.516
309.551
309.551
309.516
309.45
309.359
309.251
309.134
309.014
308.898
308.792
308.714
306.217
306.272
306.347
306.43
306.516
306.6
306.677
306.741
306.789
306.814
306.814
306.789
306.741
306.677
306.6
306.516
306.43
306.347
306.272
306.217
303.73
303.763
303.808
303.858
303.909
303.96
304.006
304.045
304.073
304.088
304.088
304.073
304.045
304.006
303.96
303.909
303.858
303.808
303.763
303.73
301.25
301.261
301.276
301.293
301.31
301.327
301.342
301.355
301.365
301.37
301.37
301.365
301.355
301.342
301.327
301.31
301.293
301.276
301.261
301.25
319.042
319.219
319.445
319.691
319.943
320.19
320.418
320.609
320.749
320.823
320.823
320.749
320.609
320.418
320.19
319.943
319.691
319.445
319.219
319.042
316.436
316.586
316.781
316.994
317.212
317.426
317.623
317.788
317.909
317.972
317.972
317.909
317.788
317.623
317.426
317.212
316.994
316.781
316.586
316.436
313.86
313.985
314.149
314.329
314.513
314.694
314.86
315
315.102
315.155
315.155
315.102
315
314.86
314.694
314.513
314.329
314.149
313.985
313.86
311.31
311.41
311.544
311.691
311.841
311.989
312.125
312.239
312.322
312.366
312.366
312.322
312.239
312.125
311.989
311.841
311.691
311.544
311.41
311.31
308.779
308.856
308.96
309.074
309.191
309.306
309.411
309.5
309.564
309.598
309.598
309.564
309.5
309.411
309.306
309.191
309.074
308.96
308.856
308.779
306.263
306.317
306.391
306.473
306.557
306.639
306.714
306.777
306.823
306.847
306.847
306.823
306.777
306.714
306.639
306.557
306.473
306.391
306.317
306.263
303.758
303.79
303.835
303.884
303.934
303.983
304.028
304.066
304.094
304.108
304.108
304.094
304.066
304.028
303.983
303.934
303.884
303.835
303.79
303.758
301.259
301.27
301.285
301.301
301.318
301.334
301.35
301.362
301.372
301.376
301.376
301.372
301.362
301.35
301.334
301.318
301.301
301.285
301.27
301.259
319.255
319.428
319.648
319.887
320.132
320.371
320.591
320.776
320.91
320.981
320.981
320.91
320.776
320.591
320.371
320.132
319.887
319.648
319.428
319.255
316.619
316.766
316.956
317.163
317.375
317.582
317.772
317.932
318.048
318.109
318.109
318.048
317.932
317.772
317.582
317.375
317.163
316.956
316.766
316.619
314.015
314.136
314.296
314.471
314.65
314.825
314.986
315.121
315.219
315.27
315.27
315.219
315.121
314.986
314.825
314.65
314.471
314.296
314.136
314.015
311.435
311.533
311.664
311.807
311.953
312.096
312.227
312.337
312.417
312.459
312.459
312.417
312.337
312.227
312.096
311.953
311.807
311.664
311.533
311.435
308.876
308.951
309.053
309.164
309.277
309.389
309.49
309.576
309.638
309.671
309.671
309.638
309.576
309.49
309.389
309.277
309.164
309.053
308.951
308.876
306.332
306.386
306.458
306.537
306.618
306.698
306.77
306.831
306.876
306.899
306.899
306.876
306.831
306.77
306.698
306.618
306.537
306.458
306.386
306.332
303.799
303.831
303.874
303.922
303.971
304.018
304.062
304.099
304.125
304.139
304.139
304.125
304.099
304.062
304.018
303.971
303.922
303.874
303.831
303.799
301.273
301.283
301.298
301.314
301.33
301.346
301.361
301.373
301.382
301.387
301.387
301.382
301.373
301.361
301.346
301.33
301.314
301.298
301.283
301.273
319.54
319.708
319.921
320.151
320.387
320.616
320.826
321.002
321.13
321.197
321.197
321.13
321.002
320.826
320.616
320.387
320.151
319.921
319.708
319.54
316.865
317.007
317.191
317.39
317.594
317.792
317.974
318.126
318.237
318.295
318.295
318.237
318.126
317.974
317.792
317.594
317.39
317.191
317.007
316.865
314.221
314.339
314.494
314.662
314.835
315.002
315.156
315.285
315.378
315.427
315.427
315.378
315.285
315.156
315.002
314.835
314.662
314.494
314.339
314.221
311.604
311.698
311.825
311.962
312.103
312.24
312.366
312.471
312.547
312.587
312.587
312.547
312.471
312.366
312.24
312.103
311.962
311.825
311.698
311.604
309.006
309.079
309.177
309.284
309.394
309.5
309.598
309.679
309.739
309.77
309.77
309.739
309.679
309.598
309.5
309.394
309.284
309.177
309.079
309.006
306.425
306.477
306.547
306.623
306.701
306.777
306.847
306.905
306.947
306.97
306.97
306.947
306.905
306.847
306.777
306.701
306.623
306.547
306.477
306.425
303.855
303.886
303.928
303.974
304.021
304.066
304.108
304.143
304.168
304.182
304.182
304.168
304.143
304.108
304.066
304.021
303.974
303.928
303.886
303.855
301.292
301.302
301.316
301.331
301.347
301.362
301.376
301.388
301.396
301.401
301.401
301.396
301.388
301.376
301.362
301.347
301.331
301.316
301.302
301.292
319.897
320.059
320.263
320.484
320.708
320.926
321.125
321.291
321.411
321.474
321.474
321.411
321.291
321.125
320.926
320.708
320.484
320.263
320.059
319.897
317.173
317.309
317.486
317.676
317.871
318.059
318.231
318.375
318.479
318.533
318.533
318.479
318.375
318.231
318.059
317.871
317.676
317.486
317.309
317.173
314.48
314.594
314.742
314.903
315.068
315.227
315.372
315.494
315.581
315.627
315.627
315.581
315.494
315.372
315.227
315.068
314.903
314.742
314.594
314.48
311.814
311.906
312.027
312.159
312.293
312.423
312.542
312.641
312.713
312.75
312.75
312.713
312.641
312.542
312.423
312.293
312.159
312.027
311.906
311.814
309.17
309.24
309.334
309.436
309.541
309.642
309.734
309.811
309.867
309.896
309.896
309.867
309.811
309.734
309.642
309.541
309.436
309.334
309.24
309.17
306.542
306.591
306.658
306.731
306.806
306.878
306.944
306.999
307.039
307.06
307.06
307.039
306.999
306.944
306.878
306.806
306.731
306.658
306.591
306.542
303.925
303.955
303.995
304.039
304.083
304.127
304.166
304.199
304.223
304.236
304.236
304.223
304.199
304.166
304.127
304.083
304.039
303.995
303.955
303.925
301.315
301.325
301.338
301.353
301.368
301.383
301.396
301.407
301.415
301.419
301.419
301.415
301.407
301.396
301.383
301.368
301.353
301.338
301.325
301.315
320.328
320.483
320.677
320.887
321.099
321.304
321.49
321.645
321.757
321.816
321.816
321.757
321.645
321.49
321.304
321.099
320.887
320.677
320.483
320.328
317.544
317.674
317.842
318.023
318.207
318.384
318.546
318.68
318.777
318.828
318.828
318.777
318.68
318.546
318.384
318.207
318.023
317.842
317.674
317.544
314.792
314.901
315.042
315.195
315.351
315.501
315.637
315.75
315.832
315.875
315.875
315.832
315.75
315.637
315.501
315.351
315.195
315.042
314.901
314.792
312.069
312.156
312.271
312.396
312.523
312.646
312.757
312.85
312.917
312.952
312.952
312.917
312.85
312.757
312.646
312.523
312.396
312.271
312.156
312.069
309.367
309.434
309.524
309.621
309.719
309.815
309.901
309.974
310.025
310.053
310.053
310.025
309.974
309.901
309.815
309.719
309.621
309.524
309.434
309.367
306.682
306.73
306.793
306.863
306.933
307.001
307.063
307.115
307.152
307.171
307.171
307.152
307.115
307.063
307.001
306.933
306.863
306.793
306.73
306.682
304.009
304.037
304.076
304.117
304.16
304.201
304.238
304.269
304.291
304.303
304.303
304.291
304.269
304.238
304.201
304.16
304.117
304.076
304.037
304.009
301.343
301.353
301.365
301.379
301.394
301.407
301.42
301.43
301.438
301.441
301.441
301.438
301.43
301.42
301.407
301.394
301.379
301.365
301.353
301.343
320.833
320.98
321.164
321.361
321.56
321.752
321.925
322.069
322.172
322.227
322.227
322.172
322.069
321.925
321.752
321.56
321.361
321.164
320.98
320.833
317.978
318.103
318.262
318.432
318.605
318.77
318.92
319.045
319.134
319.181
319.181
319.134
319.045
318.92
318.77
318.605
318.432
318.262
318.103
317.978
315.158
315.261
315.395
315.539
315.685
315.825
315.952
316.057
316.133
316.173
316.173
316.133
316.057
315.952
315.825
315.685
315.539
315.395
315.261
315.158
312.367
312.45
312.559
312.677
312.796
312.91
313.014
313.1
313.162
313.194
313.194
313.162
313.1
313.014
312.91
312.796
312.677
312.559
312.45
312.367
309.598
309.662
309.746
309.838
309.931
310.02
310.1
310.167
310.215
310.24
310.24
310.215
310.167
310.1
310.02
309.931
309.838
309.746
309.662
309.598
306.847
306.892
306.952
307.018
307.084
307.148
307.205
307.253
307.287
307.305
307.305
307.287
307.253
307.205
307.148
307.084
307.018
306.952
306.892
306.847
304.108
304.135
304.171
304.21
304.25
304.288
304.323
304.351
304.372
304.383
304.383
304.372
304.351
304.323
304.288
304.25
304.21
304.171
304.135
304.108
301.376
301.385
301.397
301.41
301.424
301.437
301.448
301.458
301.465
301.468
301.468
301.465
301.458
301.448
301.437
301.424
301.41
301.397
301.385
301.376
321.413
321.552
321.725
321.91
322.095
322.273
322.433
322.565
322.66
322.709
322.709
322.66
322.565
322.433
322.273
322.095
321.91
321.725
321.552
321.413
318.478
318.595
318.745
318.905
319.065
319.219
319.357
319.472
319.554
319.597
319.597
319.554
319.472
319.357
319.219
319.065
318.905
318.745
318.595
318.478
315.578
315.676
315.802
315.937
316.073
316.203
316.32
316.417
316.486
316.522
316.522
316.486
316.417
316.32
316.203
316.073
315.937
315.802
315.676
315.578
312.709
312.787
312.89
313.001
313.112
313.218
313.314
313.393
313.449
313.479
313.479
313.449
313.393
313.314
313.218
313.112
313.001
312.89
312.787
312.709
309.863
309.923
310.003
310.089
310.175
310.258
310.333
310.394
310.438
310.461
310.461
310.438
310.394
310.333
310.258
310.175
310.089
310.003
309.923
309.863
307.036
307.078
307.135
307.197
307.258
307.317
307.37
307.414
307.446
307.462
307.462
307.446
307.414
307.37
307.317
307.258
307.197
307.135
307.078
307.036
304.221
304.247
304.281
304.317
304.355
304.39
304.422
304.448
304.467
304.477
304.477
304.467
304.448
304.422
304.39
304.355
304.317
304.281
304.247
304.221
301.414
301.423
301.434
301.446
301.459
301.471
301.481
301.49
301.497
301.5
301.5
301.497
301.49
301.481
301.471
301.459
301.446
301.434
301.423
301.414
322.069
322.199
322.362
322.533
322.705
322.869
323.015
323.136
323.222
323.267
323.267
323.222
323.136
323.015
322.869
322.705
322.533
322.362
322.199
322.069
319.042
319.153
319.293
319.442
319.59
319.732
319.859
319.963
320.038
320.077
320.077
320.038
319.963
319.859
319.732
319.59
319.442
319.293
319.153
319.042
316.054
316.145
316.263
316.389
316.515
316.634
316.742
316.83
316.894
316.926
316.926
316.894
316.83
316.742
316.634
316.515
316.389
316.263
316.145
316.054
313.096
313.17
313.266
313.369
313.472
313.57
313.657
313.73
313.781
313.808
313.808
313.781
313.73
313.657
313.57
313.472
313.369
313.266
313.17
313.096
310.163
310.22
310.294
310.374
310.454
310.531
310.599
310.655
310.695
310.716
310.716
310.695
310.655
310.599
310.531
310.454
310.374
310.294
310.22
310.163
307.25
307.29
307.343
307.4
307.457
307.512
307.56
307.601
307.629
307.644
307.644
307.629
307.601
307.56
307.512
307.457
307.4
307.343
307.29
307.25
304.349
304.373
304.405
304.439
304.474
304.506
304.536
304.56
304.577
304.586
304.586
304.577
304.56
304.536
304.506
304.474
304.439
304.405
304.373
304.349
301.457
301.465
301.476
301.487
301.499
301.51
301.52
301.528
301.533
301.536
301.536
301.533
301.528
301.52
301.51
301.499
301.487
301.476
301.465
301.457
322.802
322.923
323.074
323.234
323.392
323.542
323.675
323.785
323.863
323.904
323.904
323.863
323.785
323.675
323.542
323.392
323.234
323.074
322.923
322.802
319.673
319.776
319.907
320.044
320.182
320.311
320.427
320.522
320.59
320.625
320.625
320.59
320.522
320.427
320.311
320.182
320.044
319.907
319.776
319.673
316.585
316.67
316.78
316.896
317.012
317.122
317.22
317.301
317.358
317.388
317.388
317.358
317.301
317.22
317.122
317.012
316.896
316.78
316.67
316.585
313.528
313.597
313.687
313.782
313.877
313.967
314.047
314.113
314.16
314.184
314.184
314.16
314.113
314.047
313.967
313.877
313.782
313.687
313.597
313.528
310.499
310.551
310.621
310.695
310.769
310.839
310.901
310.952
310.988
311.007
311.007
310.988
310.952
310.901
310.839
310.769
310.695
310.621
310.551
310.499
307.489
307.526
307.575
307.628
307.681
307.731
307.776
307.812
307.838
307.852
307.852
307.838
307.812
307.776
307.731
307.681
307.628
307.575
307.526
307.489
304.493
304.515
304.545
304.576
304.608
304.638
304.665
304.687
304.702
304.71
304.71
304.702
304.687
304.665
304.638
304.608
304.576
304.545
304.515
304.493
301.505
301.512
301.522
301.533
301.544
301.554
301.563
301.57
301.575
301.578
301.578
301.575
301.57
301.563
301.554
301.544
301.533
301.522
301.512
301.505
323.611
323.725
323.865
324.012
324.157
324.293
324.415
324.514
324.584
324.621
324.621
324.584
324.514
324.415
324.293
324.157
324.012
323.865
323.725
323.611
320.371
320.467
320.587
320.714
320.84
320.959
321.064
321.15
321.211
321.242
321.242
321.211
321.15
321.064
320.959
320.84
320.714
320.587
320.467
320.371
317.171
317.251
317.353
317.46
317.567
317.667
317.756
317.829
317.88
317.907
317.907
317.88
317.829
317.756
317.667
317.567
317.46
317.353
317.251
317.171
314.007
314.071
314.154
314.242
314.329
314.411
314.483
314.543
314.585
314.607
314.607
314.585
314.543
314.483
314.411
314.329
314.242
314.154
314.071
314.007
310.869
310.918
310.983
311.051
311.119
311.183
311.239
311.285
311.318
311.335
311.335
311.318
311.285
311.239
311.183
311.119
311.051
310.983
310.918
310.869
307.753
307.787
307.833
307.882
307.931
307.976
308.017
308.05
308.073
308.085
308.085
308.073
308.05
308.017
307.976
307.931
307.882
307.833
307.787
307.753
304.651
304.672
304.699
304.729
304.758
304.785
304.809
304.829
304.843
304.851
304.851
304.843
304.829
304.809
304.785
304.758
304.729
304.699
304.672
304.651
301.558
301.565
301.574
301.584
301.594
301.603
301.611
301.618
301.623
301.625
301.625
301.623
301.618
301.611
301.603
301.594
301.584
301.574
301.565
301.558
324.499
324.604
324.733
324.868
325.001
325.125
325.235
325.324
325.387
325.42
325.42
325.387
325.324
325.235
325.125
325.001
324.868
324.733
324.604
324.499
321.135
321.224
321.335
321.452
321.567
321.675
321.77
321.847
321.902
321.93
321.93
321.902
321.847
321.77
321.675
321.567
321.452
321.335
321.224
321.135
317.815
317.888
317.982
318.081
318.178
318.269
318.35
318.415
318.462
318.486
318.486
318.462
318.415
318.35
318.269
318.178
318.081
317.982
317.888
317.815
314.53
314.59
314.667
314.747
314.827
314.901
314.967
315.021
315.059
315.078
315.078
315.059
315.021
314.967
314.901
314.827
314.747
314.667
314.59
314.53
311.275
311.321
311.38
311.443
311.505
311.563
311.614
311.656
311.685
311.701
311.701
311.685
311.656
311.614
311.563
311.505
311.443
311.38
311.321
311.275
308.042
308.074
308.117
308.162
308.206
308.247
308.284
308.314
308.335
308.346
308.346
308.335
308.314
308.284
308.247
308.206
308.162
308.117
308.074
308.042
304.825
304.844
304.869
304.896
304.923
304.948
304.97
304.988
305
305.007
305.007
305
304.988
304.97
304.948
304.923
304.896
304.869
304.844
304.825
301.616
301.623
301.631
301.64
301.649
301.657
301.665
301.671
301.675
301.677
301.677
301.675
301.671
301.665
301.657
301.649
301.64
301.631
301.623
301.616
325.464
325.561
325.68
325.804
325.924
326.037
326.136
326.216
326.273
326.302
326.302
326.273
326.216
326.136
326.037
325.924
325.804
325.68
325.561
325.464
321.966
322.048
322.151
322.258
322.362
322.46
322.546
322.615
322.664
322.69
322.69
322.664
322.615
322.546
322.46
322.362
322.258
322.151
322.048
321.966
318.514
318.582
318.669
318.759
318.848
318.93
319.003
319.062
319.103
319.125
319.125
319.103
319.062
319.003
318.93
318.848
318.759
318.669
318.582
318.514
315.1
315.155
315.226
315.3
315.372
315.44
315.499
315.547
315.581
315.599
315.599
315.581
315.547
315.499
315.44
315.372
315.3
315.226
315.155
315.1
311.717
311.759
311.814
311.871
311.928
311.98
312.026
312.064
312.09
312.104
312.104
312.09
312.064
312.026
311.98
311.928
311.871
311.814
311.759
311.717
308.357
308.387
308.426
308.467
308.507
308.545
308.578
308.604
308.623
308.633
308.633
308.623
308.604
308.578
308.545
308.507
308.467
308.426
308.387
308.357
305.013
305.031
305.054
305.079
305.103
305.126
305.146
305.162
305.173
305.179
305.179
305.173
305.162
305.146
305.126
305.103
305.079
305.054
305.031
305.013
301.679
301.685
301.693
301.701
301.71
301.717
301.724
301.729
301.733
301.735
301.735
301.733
301.729
301.724
301.717
301.71
301.701
301.693
301.685
301.679
326.506
326.595
326.705
326.817
326.927
327.029
327.118
327.189
327.24
327.266
327.266
327.24
327.189
327.118
327.029
326.927
326.817
326.705
326.595
326.506
322.862
322.938
323.033
323.13
323.225
323.314
323.391
323.453
323.497
323.519
323.519
323.497
323.453
323.391
323.314
323.225
323.13
323.033
322.938
322.862
319.268
319.331
319.411
319.493
319.574
319.648
319.714
319.766
319.804
319.823
319.823
319.804
319.766
319.714
319.648
319.574
319.493
319.411
319.331
319.268
315.714
315.765
315.83
315.897
315.963
316.024
316.078
316.121
316.151
316.167
316.167
316.151
316.121
316.078
316.024
315.963
315.897
315.83
315.765
315.714
312.193
312.232
312.282
312.335
312.386
312.433
312.475
312.509
312.532
312.544
312.544
312.532
312.509
312.475
312.433
312.386
312.335
312.282
312.232
312.193
308.696
308.724
308.759
308.797
308.834
308.868
308.897
308.921
308.938
308.947
308.947
308.938
308.921
308.897
308.868
308.834
308.797
308.759
308.724
308.696
305.217
305.233
305.255
305.277
305.299
305.319
305.337
305.352
305.362
305.367
305.367
305.362
305.352
305.337
305.319
305.299
305.277
305.255
305.233
305.217
301.748
301.753
301.76
301.768
301.775
301.782
301.788
301.793
301.796
301.798
301.798
301.796
301.793
301.788
301.782
301.775
301.768
301.76
301.753
301.748
327.619
327.702
327.802
327.905
328.004
328.096
328.176
328.24
328.285
328.309
328.309
328.285
328.24
328.176
328.096
328.004
327.905
327.802
327.702
327.619
323.821
323.891
323.977
324.066
324.152
324.232
324.301
324.357
324.396
324.416
324.416
324.396
324.357
324.301
324.232
324.152
324.066
323.977
323.891
323.821
320.074
320.132
320.205
320.28
320.353
320.42
320.479
320.526
320.559
320.576
320.576
320.559
320.526
320.479
320.42
320.353
320.28
320.205
320.132
320.074
316.37
316.417
316.476
316.538
316.598
316.653
316.701
316.739
316.766
316.78
316.78
316.766
316.739
316.701
316.653
316.598
316.538
316.476
316.417
316.37
312.701
312.737
312.783
312.831
312.877
312.92
312.957
312.987
313.009
313.019
313.019
313.009
312.987
312.957
312.92
312.877
312.831
312.783
312.737
312.701
309.058
309.083
309.116
309.15
309.183
309.214
309.241
309.262
309.277
309.285
309.285
309.277
309.262
309.241
309.214
309.183
309.15
309.116
309.083
309.058
305.433
305.449
305.468
305.489
305.509
305.527
305.543
305.556
305.565
305.57
305.57
305.565
305.556
305.543
305.527
305.509
305.489
305.468
305.449
305.433
301.82
301.825
301.832
301.839
301.845
301.852
301.857
301.861
301.864
301.866
301.866
301.864
301.861
301.857
301.852
301.845
301.839
301.832
301.825
301.82
328.794
328.87
328.962
329.056
329.146
329.228
329.3
329.358
329.398
329.419
329.419
329.398
329.358
329.3
329.228
329.146
329.056
328.962
328.87
328.794
324.83
324.894
324.973
325.054
325.132
325.204
325.266
325.316
325.351
325.369
325.369
325.351
325.316
325.266
325.204
325.132
325.054
324.973
324.894
324.83
320.921
320.974
321.041
321.109
321.176
321.236
321.289
321.332
321.361
321.376
321.376
321.361
321.332
321.289
321.236
321.176
321.109
321.041
320.974
320.921
317.059
317.101
317.156
317.212
317.266
317.316
317.359
317.394
317.418
317.43
317.43
317.418
317.394
317.359
317.316
317.266
317.212
317.156
317.101
317.059
313.233
313.266
313.309
313.352
313.394
313.433
313.467
313.494
313.513
313.522
313.522
313.513
313.494
313.467
313.433
313.394
313.352
313.309
313.266
313.233
309.437
309.46
309.49
309.521
309.552
309.579
309.603
309.623
309.636
309.643
309.643
309.636
309.623
309.603
309.579
309.552
309.521
309.49
309.46
309.437
305.66
305.674
305.692
305.711
305.729
305.746
305.76
305.772
305.78
305.784
305.784
305.78
305.772
305.76
305.746
305.729
305.711
305.692
305.674
305.66
301.896
301.901
301.907
301.913
301.919
301.925
301.93
301.933
301.936
301.938
301.938
301.936
301.933
301.93
301.925
301.919
301.913
301.907
301.901
301.896
330.002
330.072
330.156
330.241
330.323
330.398
330.462
330.514
330.55
330.568
330.568
330.55
330.514
330.462
330.398
330.323
330.241
330.156
330.072
330.002
325.862
325.921
325.993
326.067
326.138
326.203
326.259
326.304
326.336
326.352
326.352
326.336
326.304
326.259
326.203
326.138
326.067
325.993
325.921
325.862
321.784
321.833
321.894
321.957
322.017
322.072
322.119
322.157
322.184
322.197
322.197
322.184
322.157
322.119
322.072
322.017
321.957
321.894
321.833
321.784
317.757
317.797
317.847
317.898
317.947
317.992
318.031
318.062
318.084
318.095
318.095
318.084
318.062
318.031
317.992
317.947
317.898
317.847
317.797
317.757
313.772
313.803
313.841
313.881
313.92
313.955
313.985
314.009
314.026
314.035
314.035
314.026
314.009
313.985
313.955
313.92
313.881
313.841
313.803
313.772
309.82
309.841
309.869
309.897
309.925
309.95
309.971
309.989
310.001
310.007
310.007
310.001
309.989
309.971
309.95
309.925
309.897
309.869
309.841
309.82
305.889
305.902
305.919
305.936
305.952
305.967
305.98
305.991
305.998
306.002
306.002
305.998
305.991
305.98
305.967
305.952
305.936
305.919
305.902
305.889
301.973
301.977
301.982
301.988
301.994
301.999
302.003
302.007
302.009
302.01
302.01
302.009
302.007
302.003
301.999
301.994
301.988
301.982
301.977
301.973
331.166
331.231
331.308
331.387
331.462
331.53
331.589
331.635
331.668
331.684
331.684
331.668
331.635
331.589
331.53
331.462
331.387
331.308
331.231
331.166
326.845
326.9
326.967
327.035
327.1
327.159
327.21
327.251
327.279
327.294
327.294
327.279
327.251
327.21
327.159
327.1
327.035
326.967
326.9
326.845
322.597
322.642
322.699
322.757
322.812
322.862
322.905
322.94
322.964
322.976
322.976
322.964
322.94
322.905
322.862
322.812
322.757
322.699
322.642
322.597
318.41
318.446
318.492
318.54
318.585
318.626
318.662
318.69
318.71
318.72
318.72
318.71
318.69
318.662
318.626
318.585
318.54
318.492
318.446
318.41
314.272
314.3
314.336
314.373
314.408
314.44
314.468
314.49
314.505
314.513
314.513
314.505
314.49
314.468
314.44
314.408
314.373
314.336
314.3
314.272
310.172
310.192
310.218
310.244
310.269
310.292
310.312
310.328
310.339
310.344
310.344
310.339
310.328
310.312
310.292
310.269
310.244
310.218
310.192
310.172
306.099
306.111
306.127
306.143
306.158
306.172
306.183
306.193
306.2
306.203
306.203
306.2
306.193
306.183
306.172
306.158
306.143
306.127
306.111
306.099
302.043
302.047
302.052
302.057
302.062
302.067
302.071
302.074
302.076
302.077
302.077
302.076
302.074
302.071
302.067
302.062
302.057
302.052
302.047
302.043
332.085
332.146
332.219
332.293
332.363
332.426
332.481
332.524
332.554
332.57
332.57
332.554
332.524
332.481
332.426
332.363
332.293
332.219
332.146
332.085
327.592
327.643
327.706
327.77
327.831
327.887
327.935
327.972
327.999
328.012
328.012
327.999
327.972
327.935
327.887
327.831
327.77
327.706
327.643
327.592
323.195
323.238
323.291
323.346
323.398
323.445
323.485
323.518
323.54
323.552
323.552
323.54
323.518
323.485
323.445
323.398
323.346
323.291
323.238
323.195
318.878
318.912
318.956
319.001
319.043
319.082
319.115
319.142
319.16
319.17
319.17
319.16
319.142
319.115
319.082
319.043
319.001
318.956
318.912
318.878
314.623
314.65
314.684
314.719
314.752
314.782
314.808
314.829
314.843
314.851
314.851
314.843
314.829
314.808
314.782
314.752
314.719
314.684
314.65
314.623
310.417
310.436
310.46
310.485
310.509
310.53
310.549
310.564
310.574
310.579
310.579
310.574
310.564
310.549
310.53
310.509
310.485
310.46
310.436
310.417
306.244
306.255
306.27
306.285
306.299
306.312
306.323
306.332
306.338
306.342
306.342
306.338
306.332
306.323
306.312
306.299
306.285
306.27
306.255
306.244
302.091
302.095
302.099
302.104
302.109
302.114
302.117
302.12
302.122
302.124
302.124
302.122
302.12
302.117
302.114
302.109
302.104
302.099
302.095
302.091
)
;

boundaryField
{
    hotSide
    {
        type            fixedGradient;
        gradient        nonuniform List<scalar> 
400
(
208.897
209.703
211.318
213.744
216.987
221.054
225.953
231.692
238.28
245.726
254.037
263.223
273.289
284.244
296.092
308.838
322.487
337.042
352.505
368.879
211.287
212.074
213.651
216.023
219.197
223.182
227.988
233.627
240.108
247.444
255.646
264.721
274.681
285.532
297.28
309.933
323.493
337.965
353.352
369.654
213.872
214.637
216.17
218.478
221.57
225.458
230.156
235.677
242.036
249.247
257.323
266.276
276.116
286.852
298.492
311.042
324.507
338.891
354.195
370.423
216.612
217.35
218.832
221.065
224.063
227.84
232.414
237.803
244.024
251.096
259.033
267.851
277.561
288.174
299.698
312.14
325.505
339.797
355.017
371.168
219.428
220.137
221.561
223.711
226.603
230.257
234.695
239.939
246.012
252.933
260.723
269.398
278.972
289.457
300.862
313.194
326.458
340.657
355.794
371.869
222.205
222.882
224.244
226.305
229.085
232.61
236.905
241.999
247.917
254.685
262.325
270.857
280.295
290.654
301.941
314.166
327.332
341.443
356.499
372.503
224.781
225.427
226.727
228.7
231.37
234.767
238.923
243.87
249.64
256.261
263.759
272.155
281.467
291.707
302.887
315.014
328.091
342.122
357.107
373.047
226.968
227.585
228.83
230.724
233.295
236.578
240.61
245.429
251.068
257.562
264.937
273.217
282.421
292.562
303.651
315.696
328.699
342.664
357.591
373.478
228.569
229.164
230.366
232.2
234.696
237.893
241.831
246.553
252.095
258.494
265.778
273.973
283.097
293.166
304.189
316.174
329.125
343.043
357.927
373.777
229.417
230
231.18
232.98
235.435
238.585
242.474
247.143
252.633
258.981
266.216
274.366
283.448
293.479
304.468
316.422
329.344
343.237
358.1
373.931
229.417
230
231.18
232.98
235.435
238.585
242.474
247.143
252.633
258.981
266.216
274.366
283.448
293.479
304.468
316.422
329.344
343.237
358.1
373.931
228.569
229.164
230.366
232.2
234.696
237.893
241.831
246.553
252.095
258.494
265.778
273.973
283.097
293.166
304.189
316.174
329.125
343.043
357.927
373.777
226.968
227.585
228.83
230.724
233.295
236.578
240.61
245.429
251.068
257.562
264.937
273.217
282.421
292.562
303.651
315.696
328.699
342.664
357.591
373.478
224.781
225.427
226.727
228.7
231.37
234.767
238.923
243.87
249.64
256.261
263.759
272.155
281.467
291.707
302.887
315.014
328.091
342.122
357.107
373.047
222.205
222.882
224.244
226.305
229.085
232.61
236.905
241.999
247.917
254.685
262.325
270.857
280.295
290.654
301.941
314.166
327.332
341.443
356.499
372.503
219.428
220.137
221.561
223.711
226.603
230.257
234.695
239.939
246.012
252.933
260.723
269.398
278.972
289.457
300.862
313.194
326.458
340.657
355.794
371.869
216.612
217.35
218.832
221.065
224.063
227.84
232.414
237.803
244.024
251.096
259.033
267.851
277.561
288.174
299.698
312.14
325.505
339.797
355.017
371.168
213.872
214.637
216.17
218.478
221.57
225.458
230.156
235.677
242.036
249.247
257.323
266.276
276.116
286.852
298.492
311.042
324.507
338.891
354.195
370.423
211.287
212.074
213.651
216.023
219.197
223.182
227.988
233.627
240.108
247.444
255.646
264.721
274.681
285.532
297.28
309.933
323.493
337.965
353.352
369.654
208.897
209.703
211.318
213.744
216.987
221.054
225.953
231.692
238.28
245.726
254.037
263.223
273.289
284.244
296.092
308.838
322.487
337.042
352.505
368.879
)
;
    }
    coldSide
    {
        type            mixed;
        refValue        uniform 300;
        refGradient     uniform 0;
        valueFraction   uniform 0.991591;
        source          uniform 0;
        value           nonuniform List<scalar> 
400
(
300.01
300.011
300.011
300.011
300.011
300.011
300.011
300.012
300.012
300.012
300.013
300.013
300.014
300.014
300.015
300.015
300.016
300.017
300.017
300.018
300.011
300.011
300.011
300.011
300.011
300.011
300.011
300.012
300.012
300.012
300.013
300.013
300.014
300.014
300.015
300.015
300.016
300.017
300.017
300.018
300.011
300.011
300.011