/*--------------------------------*- C++ -*----------------------------------*\
| =========                 |                                                 |
| \\      /  F ield         | OpenFOAM: The Open Source CFD Toolbox           |
|  \\    /   O peration     | Version:  2212                                  |
|   \\  /    A nd           | Website:  www.openfoam.com                      |
|    \\/     M anipulation  |                                                 |
\*---------------------------------------------------------------------------*/
FoamFile
{
    version     2.0;
    format      ascii;
    arch        "LSB;label=32;scalar=64";
    class       volScalarField;
    location    "0";
    object      T;
}
// * * * * * * * * * * * * * * * * * * * * * * * * * * * * * * * * * * * * * //

dimensions      [0 0 0 1 0 0 0];

internalField   nonuniform List<scalar> 
3200
(
335.106
333.97
333.015
332.608
332.382
332.62
332.807
332.985
333.204
333.312
333.381
333.279
332.821
332.3
331.677
331.098
330.921
331.218
331.756
332.832
330.423
329.493
328.695
328.349
328.133
328.348
328.498
328.668
328.874
328.961
329.007
328.949
328.556
328.095
327.56
327.088
326.926
327.193
327.654
328.584
325.747
324.992
324.35
324.029
323.86
324.036
324.14
324.304
324.519
324.561
324.591
324.577
324.244
323.841
323.401
323.004
322.88
323.107
323.481
324.271
321.058
320.491
319.979
319.687
319.543
319.706
319.776
319.935
320.113
320.113
320.163
320.142
319.895
319.58
319.2
318.888
318.787
318.958
319.278
319.924
316.395
315.971
315.577
315.33
315.205
315.371
315.409
315.534
315.671
315.63
315.703
315.703
315.506
315.275
314.958
314.736
314.665
314.781
315.034
315.548
311.736
311.431
311.146
310.972
310.849
311.014
311.003
311.12
311.2
311.169
311.209
311.224
311.109
310.926
310.704
310.542
310.492
310.585
310.76
311.133
307.053
306.87
306.706
306.616
306.507
306.638
306.611
306.687
306.727
306.724
306.734
306.738
306.684
306.562
306.433
306.32
306.312
306.36
306.482
306.698
302.367
302.309
302.245
302.218
302.179
302.223
302.221
302.251
302.259
302.247
302.254
302.253
302.236
302.202
302.165
302.119
302.12
302.137
302.171
302.247
335.284
334.168
333.271
332.902
332.705
332.862
333.139
333.613
333.66
333.81
333.873
333.621
333.217
332.603
332.129
331.547
331.227
331.461
332.11
333.008
330.57
329.676
328.909
328.601
328.431
328.539
328.779
329.2
329.238
329.354
329.438
329.196
328.873
328.345
327.955
327.447
327.162
327.408
327.94
328.681
325.846
325.143
324.518
324.247
324.116
324.215
324.409
324.75
324.782
324.891
324.969
324.741
324.499
324.042
323.711
323.309
323.049
323.307
323.717
324.326
321.126
320.593
320.102
319.878
319.771
319.863
320
320.278
320.305
320.388
320.458
320.283
320.086
319.71
319.435
319.139
318.91
319.118
319.445
319.948
316.428
316.038
315.656
315.486
315.434
315.473
315.582
315.794
315.808
315.869
315.935
315.798
315.64
315.351
315.128
314.911
314.75
314.915
315.153
315.539
311.736
311.483
311.207
311.073
311.052
311.043
311.155
311.293
311.319
311.334
311.396
311.28
311.184
310.987
310.808
310.668
310.574
310.687
310.847
311.118
307.053
306.908
306.724
306.664
306.634
306.626
306.704
306.78
306.806
306.802
306.852
306.764
306.721
306.598
306.493
306.415
306.376
306.425
306.517
306.677
302.368
302.32
302.251
302.227
302.223
302.215
302.243
302.271
302.275
302.279
302.302
302.266
302.249
302.205
302.173
302.155
302.142
302.16
302.18
302.234
335.801
334.568
333.747
333.408
333.35
333.501
333.848
334.241
334.402
334.516
334.576
334.376
333.886
333.293
332.619
332.183
331.703
331.976
332.478
333.399
331.033
330.006
329.333
329.02
328.956
329.079
329.385
329.744
329.85
329.959
329.991
329.876
329.455
328.926
328.372
328.001
327.583
327.842
328.274
329.03
326.274
325.445
324.908
324.637
324.516
324.64
324.899
325.222
325.299
325.379
325.401
325.338
325
324.522
324.062
323.759
323.427
323.656
324.01
324.614
321.497
320.868
320.438
320.212
320.053
320.176
320.396
320.66
320.725
320.787
320.789
320.787
320.496
320.093
319.705
319.462
319.205
319.401
319.723
320.173
316.719
316.27
315.949
315.752
315.59
315.701
315.863
316.093
316.133
316.189
316.188
316.187
315.984
315.657
315.351
315.141
314.96
315.102
315.376
315.707
311.939
311.627
311.431
311.255
311.146
311.228
311.336
311.526
311.534
311.58
311.566
311.587
311.442
311.195
310.99
310.815
310.696
310.805
311.023
311.225
307.176
306.983
306.882
306.759
306.688
306.735
306.804
306.943
306.935
306.962
306.934
306.969
306.884
306.719
306.602
306.476
306.435
306.496
306.643
306.748
302.411
302.344
302.308
302.265
302.244
302.259
302.285
302.328
302.32
302.335
302.319
302.337
302.313
302.25
302.219
302.166
302.147
302.176
302.226
302.261
336.405
335.313
334.534
334.073
333.997
334.14
334.623
334.971
335.283
335.481
335.487
335.244
334.683
334.166
333.413
332.893
332.555
332.777
333.259
334.1
331.547
330.645
330.014
329.581
329.497
329.618
330.053
330.342
330.598
330.776
330.797
330.577
330.124
329.687
329.051
328.609
328.322
328.547
328.955
329.622
326.708
325.962
325.46
325.062
324.993
325.083
325.453
325.695
325.887
326.061
326.08
325.874
325.529
325.16
324.646
324.245
324.048
324.258
324.584
325.102
321.854
321.283
320.867
320.511
320.474
320.527
320.835
321.059
321.206
321.329
321.344
321.173
320.916
320.63
320.211
319.85
319.74
319.911
320.186
320.586
316.994
316.576
316.229
315.945
315.933
315.967
316.2
316.387
316.522
316.59
316.617
316.474
316.28
316.094
315.753
315.462
315.376
315.509
315.76
316.049
312.135
311.855
311.606
311.395
311.368
311.41
311.565
311.724
311.82
311.859
311.889
311.762
311.654
311.535
311.27
311.046
310.99
311.082
311.277
311.482
307.287
307.124
306.97
306.837
306.815
306.852
306.949
307.034
307.093
307.128
307.155
307.068
307.011
306.946
306.768
306.642
306.611
306.661
306.77
306.909
302.446
302.385
302.329
302.293
302.277
302.304
302.329
302.351
302.368
302.393
302.395
302.363
302.351
302.328
302.263
302.222
302.218
302.231
302.26
302.313
337.303
336.282
335.538
334.953
334.928
335.159
335.579
335.812
336.248
336.56
336.576
336.284
335.72
335.119
334.531
333.894
333.465
333.605
334.139
334.903
332.325
331.508
330.856
330.33
330.313
330.515
330.863
331.057
331.416
331.711
331.738
331.47
330.99
330.506
329.999
329.473
329.083
329.227
329.682
330.334
327.337
326.707
326.151
325.672
325.671
325.839
326.153
326.288
326.593
326.85
326.879
326.639
326.233
325.877
325.418
325.01
324.66
324.787
325.185
325.729
322.364
321.884
321.416
321.02
321.009
321.141
321.417
321.517
321.752
321.979
322.022
321.789
321.481
321.214
320.825
320.481
320.203
320.313
320.627
321.065
317.404
317.04
316.632
316.355
316.358
316.454
316.672
316.728
316.932
317.089
317.149
316.96
316.706
316.527
316.195
315.94
315.729
315.807
316.063
316.387
312.437
312.169
311.884
311.696
311.687
311.755
311.9
311.945
312.11
312.204
312.27
312.116
311.93
311.824
311.554
311.4
311.249
311.309
311.477
311.718
307.464
307.317
307.128
307.006
307.007
307.068
307.166
307.17
307.276
307.322
307.353
307.275
307.157
307.119
306.922
306.86
306.755
306.791
306.889
307.042
302.5
302.459
302.393
302.342
302.34
302.373
302.405
302.402
302.431
302.467
302.46
302.446
302.407
302.382
302.316
302.303
302.26
302.267
302.311
302.357
338.31
337.321
336.518
336.01
335.855
336.122
336.643
336.985
337.38
337.696
337.725
337.348
336.869
336.26
335.648
335.056
334.637
334.666
335.169
336.006
333.165
332.368
331.683
331.243
331.088
331.344
331.791
332.065
332.411
332.692
332.728
332.388
331.969
331.454
330.958
330.441
330.111
330.107
330.555
331.247
328.051
327.39
326.832
326.47
326.325
326.545
326.924
327.121
327.427
327.662
327.709
327.424
327.044
326.631
326.225
325.798
325.514
325.513
325.919
326.47
322.955
322.42
321.984
321.668
321.572
321.718
322.035
322.179
322.437
322.649
322.652
322.457
322.121
321.824
321.486
321.138
320.908
320.908
321.259
321.678
317.861
317.449
317.099
316.856
316.807
316.893
317.163
317.231
317.451
317.621
317.632
317.472
317.216
316.98
316.716
316.448
316.286
316.276
316.562
316.864
312.767
312.477
312.225
312.054
312.005
312.07
312.278
312.326
312.465
312.58
312.606
312.487
312.317
312.143
311.939
311.751
311.65
311.624
311.818
312.064
307.678
307.497
307.35
307.223
307.206
307.24
307.38
307.413
307.469
307.546
307.578
307.496
307.411
307.299
307.184
307.052
307.005
306.985
307.095
307.263
302.588
302.519
302.466
302.419
302.414
302.421
302.479
302.48
302.505
302.536
302.539
302.512
302.482
302.444
302.404
302.361
302.34
302.339
302.381
302.433
339.424
338.496
337.605
337.313
337.081
337.279
337.806
338.122
338.62
338.819
338.974
338.707
338.106
337.418
336.826
336.166
335.747
335.902
336.434
337.23
334.156
333.358
332.622
332.365
332.174
332.328
332.78
333.049
333.488
333.657
333.773
333.553
333.05
332.455
331.965
331.406
331.04
331.172
331.656
332.344
328.918
328.218
327.643
327.398
327.248
327.331
327.741
327.972
328.334
328.473
328.572
328.387
327.98
327.483
327.091
326.616
326.316
326.414
326.843
327.421
323.669
323.084
322.651
322.419
322.311
322.345
322.719
322.88
323.162
323.29
323.365
323.222
322.904
322.468
322.184
321.794
321.576
321.615
321.984
322.469
318.429
317.967
317.65
317.451
317.378
317.37
317.677
317.805
318.027
318.097
318.173
318.043
317.831
317.459
317.265
316.959
316.814
316.829
317.112
317.504
313.168
312.844
312.635
312.486
312.415
312.411
312.613
312.725
312.884
312.912
312.969
312.876
312.74
312.464
312.329
312.115
312.024
312.038
312.231
312.51
307.91
307.724
307.579
307.526
307.461
307.47
307.575
307.65
307.744
307.753
307.782
307.721
307.649
307.489
307.389
307.261
307.214
307.198
307.359
307.512
302.66
302.588
302.531
302.523
302.511
302.512
302.54
302.563
302.599
302.594
302.611
302.58
302.573
302.506
302.477
302.44
302.421
302.408
302.467
302.524
340.771
339.832
338.958
338.589
338.397
338.542
338.959
339.403
339.892
340.112
340.25
339.924
339.399
338.815
338.136
337.565
337.225
337.352
337.912
338.567
335.294
334.515
333.782
333.458
333.265
333.388
333.767
334.163
334.59
334.746
334.879
334.593
334.148
333.654
333.099
332.608
332.299
332.426
332.925
333.468
329.822
329.192
328.598
328.307
328.14
328.245
328.567
328.912
329.285
329.401
329.493
329.259
328.875
328.501
328.052
327.656
327.38
327.474
327.904
328.367
324.369
323.871
323.409
323.17
323.034
323.121
323.364
323.671
323.984
324.046
324.108
323.919
323.623
323.323
322.964
322.686
322.409
322.502
322.848
323.262
318.946
318.558
318.204
318.06
317.932
318.008
318.182
318.407
318.66
318.693
318.732
318.603
318.373
318.153
317.879
317.686
317.449
317.496
317.799
318.121
313.537
313.26
313.017
312.915
312.828
312.88
312.977
313.142
313.325
313.352
313.36
313.29
313.128
312.99
312.787
312.636
312.483
312.499
312.71
312.96
308.134
307.974
307.826
307.758
307.706
307.738
307.798
307.883
307.999
308.016
308.018
307.971
307.895
307.81
307.678
307.594
307.517
307.506
307.635
307.789
302.719
302.671
302.631
302.603
302.578
302.592
302.616
302.644
302.694
302.682
302.694
302.671
302.651
302.637
302.569
302.549
302.54
302.516
302.554
302.613
342.137
341.216
340.331
339.818
339.741
339.85
340.287
340.671
341.141
341.287
341.333
341.18
340.68
340.211
339.523
338.983
338.779
338.806
339.336
340.062
336.462
335.691
334.938
334.524
334.442
334.518
334.907
335.226
335.626
335.761
335.805
335.656
335.229
334.864
334.275
333.792
333.652
333.68
334.13
334.741
330.829
330.177
329.545
329.214
329.142
329.206
329.518
329.775
330.126
330.269
330.283
330.142
329.782
329.486
329.038
328.591
328.497
328.523
328.882
329.436
325.198
324.681
324.142
323.901
323.853
323.91
324.125
324.328
324.635
324.764
324.776
324.641
324.351
324.129
323.788
323.384
323.313
323.352
323.641
324.088
319.583
319.184
318.764
318.593
318.547
318.603
318.75
318.928
319.137
319.25
319.288
319.171
318.924
318.771
318.516
318.196
318.112
318.172
318.401
318.741
313.996
313.701
313.421
313.284
313.246
313.304
313.394
313.546
313.657
313.769
313.809
313.701
313.505
313.399
313.25
313
312.936
312.972
313.171
313.409
308.42
308.228
308.072
307.985
307.96
307.996
308.044
308.154
308.212
308.264
308.295
308.226
308.097
308.05
307.968
307.819
307.762
307.789
307.901
308.062
302.826
302.759
302.713
302.675
302.665
302.691
302.697
302.738
302.755
302.762
302.785
302.757
302.716
302.695
302.678
302.634
302.604
302.607
302.643
302.709
343.62
342.601
341.792
341.261
341.176
341.249
341.544
342.02
342.357
342.661
342.624
342.446
341.98
341.546
340.955
340.519
340.241
340.267
340.786
341.489
337.764
336.871
336.188
335.734
335.672
335.708
335.979
336.39
336.693
336.946
336.927
336.778
336.366
336.027
335.509
335.116
334.923
334.95
335.398
335.973
331.926
331.16
330.571
330.206
330.17
330.214
330.425
330.753
331.014
331.234
331.237
331.103
330.754
330.48
330.054
329.713
329.598
329.602
329.958
330.459
326.098
325.445
324.979
324.709
324.699
324.712
324.858
325.132
325.355
325.54
325.553
325.435
325.128
324.958
324.571
324.283
324.231
324.259
324.507
324.931
320.289
319.767
319.442
319.237
319.217
319.219
319.333
319.535
319.709
319.855
319.886
319.787
319.527
319.412
319.098
318.882
318.876
318.889
319.063
319.396
314.486
314.118
313.887
313.767
313.738
313.729
313.806
313.951
314.09
314.185
314.199
314.139
313.948
313.866
313.632
313.479
313.498
313.511
313.629
313.883
308.708
308.481
308.332
308.277
308.249
308.252
308.277
308.386
308.468
308.528
308.52
308.488
308.37
308.327
308.201
308.103
308.108
308.118
308.177
308.331
302.928
302.841
302.791
302.777
302.768
302.77
302.778
302.808
302.843
302.855
302.851
302.853
302.801
302.79
302.755
302.71
302.71
302.725
302.736
302.784
345.057
344.102
343.257
342.748
342.652
342.673
342.992
343.338
343.744
343.817
343.802
343.747
343.374
342.895
342.399
341.871
341.651
341.906
342.288
342.98
338.986
338.189
337.46
337.017
336.929
336.943
337.235
337.543
337.9
337.942
337.939
337.852
337.56
337.166
336.724
336.316
336.115
336.345
336.686
337.269
332.93
332.283
331.684
331.309
331.229
331.228
331.484
331.749
332.041
332.075
332.072
331.991
331.764
331.436
331.067
330.738
330.587
330.793
331.041
331.537
326.881
326.397
325.929
325.593
325.531
325.544
325.725
325.96
326.171
326.223
326.234
326.158
325.968
325.699
325.426
325.141
325.04
325.218
325.4
325.796
320.886
320.529
320.171
319.895
319.832
319.872
319.985
320.154
320.322
320.372
320.407
320.345
320.202
319.959
319.773
319.55
319.488
319.623
319.735
320.041
314.912
314.673
314.402
314.202
314.161
314.188
314.273
314.393
314.491
314.543
314.588
314.525
314.423
314.244
314.125
313.943
313.921
314.028
314.092
314.311
308.947
308.812
308.64
308.547
308.493
308.519
308.587
308.622
308.688
308.734
308.758
308.727
308.652
308.545
308.504
308.367
308.348
308.439
308.463
308.604
303.004
302.95
302.893
302.864
302.836
302.859
302.889
302.89
302.904
302.929
302.94
302.927
302.904
302.873
302.855
302.799
302.797
302.825
302.843
302.883
346.558
345.758
344.916
344.345
344.122
344.066
344.318
344.635
344.956
345.014
345.108
345.071
344.666
344.243
343.763
343.317
343.236
343.358
343.864
344.407
340.284
339.612
338.899
338.391
338.219
338.148
338.372
338.642
338.922
338.975
339.053
339.043
338.677
338.349
337.894
337.54
337.464
337.581
338.027
338.486
334.034
333.493
332.884
332.438
332.328
332.237
332.458
332.672
332.895
332.946
333.008
333.016
332.705
332.448
332.059
331.752
331.698
331.795
332.171
332.553
327.815
327.383
326.898
326.511
326.426
326.36
326.534
326.725
326.886
326.942
326.986
327.016
326.735
326.542
326.223
325.961
325.945
326.011
326.332
326.607
321.624
321.287
320.914
320.575
320.527
320.48
320.601
320.778
320.893
320.962
320.975
321.001
320.786
320.628
320.379
320.186
320.179
320.233
320.502
320.689
315.427
315.199
314.93
314.691
314.657
314.628
314.704
314.847
314.921
314.976
314.996
314.982
314.839
314.704
314.534
314.42
314.415
314.469
314.662
314.801
309.253
309.131
308.956
308.821
308.797
308.781
308.806
308.922
308.957
309.009
309.008
309.001
308.903
308.814
308.738
308.672
308.647
308.706
308.812
308.89
303.1
303.054
302.999
302.961
302.953
302.934
302.95
302.993
302.998
303.022
303.021
303.013
302.991
302.953
302.924
302.916
302.889
302.925
302.95
302.98
348.072
347.286
346.485
345.898
345.66
345.49
345.696
345.914
346.097
346.375
346.416
346.324
346.013
345.551
345.116
344.656
344.763
344.867
345.349
345.877
341.592
340.939
340.239
339.725
339.523
339.378
339.57
339.741
339.885
340.14
340.164
340.127
339.85
339.441
339.068
338.686
338.794
338.905
339.283
339.734
335.131
334.616
334.047
333.563
333.393
333.298
333.476
333.589
333.71
333.923
333.951
333.928
333.687
333.355
333.029
332.727
332.821
332.934
333.237
333.609
328.718
328.29
327.848
327.449
327.285
327.227
327.394
327.464
327.558
327.731
327.732
327.761
327.541
327.288
327.01
326.776
326.843
326.965
327.182
327.481
322.303
321.964
321.645
321.334
321.213
321.167
321.304
321.347
321.417
321.554
321.548
321.571
321.409
321.221
321.013
320.839
320.883
320.978
321.132
321.357
315.917
315.661
315.442
315.258
315.143
315.118
315.222
315.238
315.284
315.389
315.396
315.405
315.288
315.154
315.013
314.892
314.911
314.988
315.096
315.257
309.556
309.382
309.28
309.165
309.086
309.078
309.137
309.149
309.178
309.233
309.25
309.24
309.177
309.109
309.018
308.932
308.946
309.008
309.068
309.159
303.207
303.131
303.111
303.076
303.051
303.043
303.064
303.07
303.081
303.085
303.105
303.09
303.073
303.054
303.018
303
302.997
303.013
303.044
303.071
349.624
348.771
347.988
347.474
347.134
347.067
347.117
347.306
347.428
347.685
347.648
347.537
347.273
346.908
346.591
346.26
346.214
346.441
346.98
347.525
342.929
342.197
341.528
341.092
340.784
340.751
340.775
340.951
341.039
341.265
341.253
341.148
340.942
340.632
340.362
340.074
340.036
340.239
340.723
341.178
336.259
335.64
335.069
334.731
334.467
334.448
334.467
334.629
334.688
334.867
334.886
334.791
334.617
334.364
334.118
333.884
333.854
334.031
334.457
334.832
329.623
329.102
328.65
328.403
328.168
328.17
328.183
328.32
328.347
328.501
328.521
328.455
328.309
328.109
327.89
327.697
327.69
327.835
328.186
328.502
323.034
322.615
322.262
322.083
321.869
321.894
321.884
322.005
322.022
322.129
322.184
322.128
322.017
321.847
321.682
321.508
321.527
321.658
321.918
322.17
316.443
316.156
315.877
315.769
315.599
315.632
315.61
315.708
315.72
315.793
315.839
315.811
315.728
315.628
315.489
315.343
315.378
315.491
315.672
315.837
309.856
309.709
309.516
309.465
309.357
309.376
309.345
309.426
309.438
309.471
309.508
309.502
309.448
309.378
309.306
309.196
309.243
309.299
309.41
309.499
303.292
303.259
303.18
303.16
303.131
303.143
303.132
303.15
303.161
303.174
303.186
303.182
303.162
303.146
303.123
303.082
303.101
303.119
303.148
303.181
351.078
350.327
349.641
348.978
348.58
348.421
348.449
348.614
348.734
348.903
348.818
348.672
348.566
348.204
348.026
347.805
347.781
347.929
348.495
349.028
344.18
343.554
342.948
342.376
342.048
341.915
341.935
342.097
342.176
342.337
342.259
342.123
342.057
341.75
341.582
341.383
341.375
341.515
342.032
342.458
337.335
336.81
336.269
335.826
335.544
335.435
335.475
335.617
335.65
335.783
335.731
335.602
335.543
335.32
335.152
334.989
334.987
335.122
335.552
335.895
330.518
330.073
329.636
329.285
329.048
328.978
329.019
329.113
329.14
329.266
329.209
329.12
329.049
328.874
328.75
328.625
328.613
328.739
329.077
329.335
323.717
323.36
323.03
322.775
322.588
322.538
322.551
322.613
322.669
322.746
322.713
322.647
322.58
322.437
322.36
322.255
322.246
322.352
322.608
322.815
316.947
316.685
316.437
316.272
316.127
316.098
316.107
316.165
316.199
316.245
316.222
316.167
316.109
316.022
315.964
315.884
315.891
315.976
316.162
316.291
310.18
310.016
309.882
309.775
309.672
309.646
309.654
309.698
309.724
309.752
309.739
309.701
309.657
309.613
309.58
309.536
309.533
309.584
309.704
309.773
303.403
303.353
303.317
303.28
303.24
303.222
303.234
303.253
303.257
303.275
303.261
303.244
303.235
303.22
303.217
303.204
303.19
303.214
303.252
303.263
352.503
351.832
351.201
350.578
350.208
349.958
349.901
349.989
350.093
350.15
349.99
349.955
349.811
349.606
349.391
349.266
349.211
349.504
350.097
350.571
345.389
344.822
344.29
343.794
343.427
343.238
343.18
343.241
343.365
343.414
343.253
343.234
343.143
342.952
342.781
342.651
342.609
342.884
343.403
343.794
338.338
337.856
337.429
337.019
336.665
336.532
336.5
336.534
336.631
336.69
336.534
336.558
336.472
336.333
336.171
336.065
336.038
336.275
336.708
337.041
331.325
330.923
330.603
330.258
329.964
329.883
329.838
329.849
329.931
330.01
329.866
329.887
329.797
329.715
329.569
329.502
329.467
329.67
330.013
330.298
324.324
324.023
323.789
323.508
323.283
323.241
323.184
323.169
323.251
323.344
323.206
323.213
323.16
323.109
322.986
322.951
322.915
323.075
323.33
323.572
317.357
317.148
316.983
316.785
316.622
316.604
316.547
316.516
316.582
316.678
316.575
316.56
316.546
316.492
316.438
316.408
316.356
316.456
316.681
316.814
310.425
310.291
310.189
310.072
309.98
309.972
309.933
309.898
309.956
310.019
309.972
309.938
309.938
309.888
309.89
309.877
309.825
309.879
310.035
310.088
303.496
303.452
303.412
303.381
303.341
303.34
303.334
303.313
303.335
303.36
303.342
303.33
303.334
303.32
303.321
303.303
303.293
303.304
303.373
303.382
354.052
353.435
352.633
352.089
351.578
351.39
351.342
351.289
351.274
351.285
351.161
351.184
351.147
350.837
350.785
350.725
350.756
350.987
351.503
352.216
346.715
346.218
345.517
345.079
344.607
344.469
344.415
344.373
344.37
344.381
344.242
344.308
344.296
344.016
343.952
343.906
343.956
344.141
344.588
345.208
339.446
339.015
338.443
338.089
337.691
337.58
337.539
337.472
337.5
337.517
337.364
337.448
337.438
337.226
337.163
337.12
337.151
337.319
337.703
338.231
332.205
331.865
331.392
331.126
330.798
330.717
330.673
330.604
330.656
330.669
330.535
330.602
330.601
330.436
330.384
330.36
330.359
330.51
330.82
331.279
325.035
324.76
324.378
324.208
323.941
323.876
323.839
323.789
323.821
323.847
323.725
323.783
323.787
323.687
323.609
323.611
323.588
323.73
323.94
324.307
317.872
317.678
317.426
317.299
317.089
317.056
317.032
316.977
317.007
317.051
316.943
316.991
316.978
316.934
316.869
316.859
316.855
316.942
317.114
317.349
310.728
310.623
310.473
310.38
310.28
310.249
310.237
310.173
310.218
310.246
310.182
310.203
310.2
310.194
310.118
310.136
310.137
310.182
310.287
310.4
303.601
303.565
303.516
303.495
303.435
303.43
303.427
303.413
303.426
303.437
303.408
303.414
303.43
303.418
303.389
303.405
303.403
303.416
303.449
303.483
355.675
354.968
354.127
353.638
352.984
352.773
352.797
352.516
352.392
352.444
352.499
352.37
352.365
352.187
352.086
352.08
352.072
352.507
353.09
353.596
348.119
347.522
346.799
346.417
345.811
345.644
345.672
345.438
345.314
345.369
345.429
345.302
345.325
345.185
345.078
345.08
345.078
345.429
345.975
346.379
340.614
340.133
339.524
339.235
338.705
338.546
338.568
338.369
338.286
338.345
338.385
338.291
338.313
338.196
338.095
338.133
338.125
338.389
338.877
339.202
333.155
332.772
332.305
332.058
331.629
331.492
331.509
331.325
331.288
331.338
331.364
331.306
331.286
331.208
331.131
331.194
331.19
331.389
331.799
332.047
325.756
325.462
325.115
324.904
324.581
324.471
324.478
324.323
324.291
324.351
324.368
324.35
324.305
324.245
324.181
324.234
324.269
324.408
324.74
324.923
318.392
318.192
317.924
317.775
317.548
317.471
317.487
317.365
317.324
317.391
317.398
317.391
317.352
317.298
317.262
317.32
317.339
317.442
317.677
317.817
311.034
310.919
310.765
310.679
310.516
310.478
310.501
310.414
310.396
310.444
310.433
310.434
310.415
310.381
310.368
310.408
310.414
310.467
310.6
310.712
303.701
303.657
303.608
303.58
303.51
303.511
303.508
303.488
303.489
303.502
303.489
303.495
303.483
303.477
303.47
303.483
303.499
303.511
303.554
303.591
357.059
356.339
355.541
354.893
354.385
354.182
354.003
353.759
353.641
353.54
353.506
353.438
353.458
353.404
353.325
353.336
353.558
353.787
354.407
354.83
349.31
348.688
347.998
347.468
346.978
346.837
346.687
346.494
346.351
346.27
346.251
346.212
346.233
346.208
346.14
346.145
346.32
346.513
347.08
347.391
341.631
341.084
340.514
340.101
339.66
339.554
339.427
339.275
339.118
339.069
339.05
339.021
339.052
339.037
338.978
338.99
339.118
339.307
339.781
340.011
333.999
333.549
333.084
332.77
332.374
332.301
332.222
332.099
331.959
331.907
331.883
331.869
331.9
331.889
331.84
331.861
331.939
332.132
332.513
332.7
326.418
326.062
325.694
325.479
325.137
325.085
325.052
324.945
324.828
324.778
324.756
324.771
324.784
324.778
324.737
324.761
324.806
324.997
325.265
325.402
318.856
318.6
318.326
318.189
317.942
317.903
317.874
317.804
317.73
317.668
317.679
317.692
317.679
317.696
317.652
317.687
317.71
317.845
318.033
318.116
311.322
311.161
311.007
310.927
310.78
310.754
310.715
310.685
310.653
310.613
310.62
310.629
310.624
310.628
310.605
310.62
310.629
310.706
310.833
310.86
303.805
303.739
303.69
303.665
303.628
303.61
303.59
303.578
303.573
303.555
303.555
303.56
303.558
303.565
303.547
303.567
303.56
303.586
303.621
303.623
358.077
357.383
356.58
355.83
355.461
355.094
354.962
354.798
354.599
354.451
354.409
354.364
354.315
354.296
354.242
354.286
354.384
354.827
355.4
356.022
350.14
349.549
348.852
348.22
347.89
347.566
347.49
347.345
347.179
347.036
347.009
346.956
346.922
346.921
346.855
346.915
347.023
347.384
347.872
348.408
342.295
341.822
341.199
340.686
340.389
340.129
340.088
339.962
339.807
339.693
339.663
339.628
339.596
339.606
339.52
339.598
339.724
339.99
340.388
340.855
334.535
334.149
333.628
333.212
332.967
332.763
332.725
332.606
332.485
332.395
332.359
332.357
332.309
332.336
332.209
332.353
332.455
332.659
332.964
333.335
326.841
326.53
326.111
325.777
325.61
325.457
325.413
325.309
325.202
325.144
325.104
325.129
325.072
325.109
324.993
325.133
325.213
325.38
325.588
325.89
319.178
318.916
318.615
318.373
318.276
318.172
318.145
318.047
317.975
317.944
317.916
317.932
317.878
317.915
317.819
317.946
317.996
318.112
318.251
318.491
311.517
311.332
311.168
311.01
310.972
310.922
310.893
310.816
310.781
310.749
310.736
310.774
310.743
310.758
310.679
310.776
310.802
310.862
310.954
311.104
303.865
303.798
303.743
303.682
303.671
303.667
303.644
303.63
303.61
303.607
303.592
303.613
303.6
303.61
303.579
303.624
303.62
303.639
303.668
303.722
)
;

boundaryField
{
    hotSide
    {
        type            fixedGradient;
        gradient        nonuniform List<scalar> 
400
(
372.845
375.478
380.699
388.447
398.479
410.439
423.946
438.65
454.257
470.531
487.29
504.393
521.734
539.226
556.803
574.41
592.002
609.544
627.012
644.397
354.59
357.399
362.979
371.256
381.934
394.597
408.808
424.18
440.4
457.224
474.466
491.99
509.69
527.488
545.323
563.145
580.913
598.596
616.174
633.641
342.885
346.081
352.023
360.629
371.607
384.544
399.008
414.609
431.031
448.025
465.404
483.029
500.796
518.63
536.473
554.281
572.018
589.66
607.191
624.612
337.33
341.107
347.423
356.197
367.181
380.022
394.338
409.771
426.016
442.826
460.013
477.432
494.98
512.582
530.185
547.75
565.251
582.67
600
617.246
336.28
340.738
347.468
356.385
367.288
379.892
393.878
408.932
424.772
441.163
457.917
474.892
491.988
509.134
526.284
543.409
560.494
577.531
594.522
611.474
337.874
343.042
350.241
359.381
370.286
382.718
396.406
411.07
426.453
442.333
458.533
474.919
491.404
507.929
524.465
541
557.53
574.061
590.601
607.162
340.615
346.481
354.204
363.681
374.746
387.178
400.724
415.123
430.127
445.523
461.147
476.884
492.668
508.471
524.289
540.132
556.017
571.96
587.979
604.088
343.395
349.918
358.195
368.111
379.494
392.121
405.732
420.054
434.83
449.844
464.939
480.029
495.087
510.124
525.178
540.289
555.496
570.828
586.31
601.954
345.38
352.472
361.28
371.68
383.491
396.472
410.338
424.78
439.505
454.273
468.935
483.436
497.803
512.107
526.431
540.851
555.428
570.202
585.199
600.431
345.932
353.437
362.669
373.502
385.744
399.138
413.365
428.065
442.891
457.565
471.934
485.984
499.8
513.517
527.266
541.154
555.255
569.616
584.261
599.199
344.618
352.304
361.756
372.849
385.386
399.096
413.633
428.6
443.603
458.328
472.615
486.476
500.041
513.485
526.969
540.616
554.508
568.693
583.193
598.016
341.272
348.855
358.258
369.354
381.942
395.744
410.406
425.525
440.698
455.606
470.085
484.138
497.888
511.504
525.146
538.935
552.955
567.255
581.86
596.779
336.058
343.257
352.349
363.204
375.619
389.31
403.932
419.1
434.444
449.666
464.595
479.196
493.54
507.747
521.944
536.237
550.703
565.394
580.339
595.553
329.501
336.089
344.683
355.158
367.302
380.83
395.402
410.656
426.253
441.916
457.464
472.819
487.989
503.033
518.03
533.06
548.187
563.461
578.917
594.574
322.491
328.316
336.327
346.404
358.325
371.786
386.434
401.912
417.888
434.092
450.331
466.493
482.538
498.472
514.335
530.175
546.042
561.98
578.023
594.197
316.322
321.305
328.726
338.472
350.292
363.838
378.718
394.549
410.988
427.762
444.667
461.572
478.406
495.145
511.797
528.388
544.953
561.529
578.145
594.83
312.77
316.909
323.777
333.264
345.072
358.782
373.943
390.132
406.992
424.242
441.676
459.155
476.595
493.955
511.225
528.415
545.548
562.652
579.754
596.879
314.028
317.428
323.785
332.994
344.71
358.451
373.716
390.055
407.102
424.578
442.279
460.067
477.851
495.582
513.238
530.817
548.332
565.803
583.251
600.698
322.058
324.941
330.814
339.581
350.898
364.282
379.231
395.301
412.133
429.456
447.069
464.832
482.65
500.464
518.242
535.973
553.658
571.307
588.935
606.555
337.415
340.032
345.44
353.561
364.11
376.678
390.826
406.154
422.33
439.091
456.242
473.637
491.174
508.784
526.424
544.068
561.708
579.342
596.974
614.611
)
;
    }
    coldSide
    {
        type            mixed;
        refValue        uniform 300;
        refGradient     uniform 0;
        valueFraction   uniform 0.991591;
        source          uniform 0;
        value           nonuniform List<scalar> 
400
(
300.02
300.02
300.02
300.021
300.021
300.022
300.022
300.023
300.024
300.025
300.025
300.026
300.027
300.028
300.029
300.029
300.03
300.031
300.032
300.032
300.019
300.02
300.02
300.02
300.021
300.021
300.022
300.022
300.023
300.024
300.025
300.026
300.026
300.027
300.028
300.029
300.03
300.031
300.031
300.032
300.019
300.019