/*--------------------------------*- C++ -*----------------------------------*\
| =========                 |                                                 |
| \\      /  F ield         | OpenFOAM: The Open Source CFD Toolbox           |
|  \\    /   O peration     | Version:  2212                                  |
|   \\  /    A nd           | Website:  www.openfoam.com                      |
|    \\/     M anipulation  |                                                 |
\*---------------------------------------------------------------------------*/
FoamFile
{
    version     2.0;
    format      ascii;
    arch        "LSB;label=32;scalar=64";
    class       volScalarField;
    location    "./ITHACAoutput/true/16.1";
    object      trueState;
}
// * * * * * * * * * * * * * * * * * * * * * * * * * * * * * * * * * * * * * //

dimensions      [0 0 0 1 0 0 0];

internalField   nonuniform List<scalar> 
3200
(
345.094
345.344
345.663
346.011
346.369
346.721
347.046
347.32
347.519
347.625
347.625
347.519
347.32
347.046
346.721
346.369
346.011
345.663
345.344
345.094
339.127
339.338
339.614
339.915
340.225
340.529
340.81
341.047
341.219
341.31
341.31
341.219
341.047
340.81
340.529
340.225
339.915
339.614
339.338
339.127
333.141
333.317
333.549
333.803
334.065
334.322
334.559
334.759
334.904
334.981
334.981
334.904
334.759
334.559
334.322
334.065
333.803
333.549
333.317
333.141
327.14
327.281
327.47
327.678
327.892
328.102
328.296
328.459
328.578
328.641
328.641
328.578
328.459
328.296
328.102
327.892
327.678
327.47
327.281
327.14
321.127
321.235
321.382
321.543
321.71
321.873
322.023
322.15
322.242
322.291
322.291
322.242
322.15
322.023
321.873
321.71
321.543
321.382
321.235
321.127
315.104
315.181
315.286
315.401
315.52
315.636
315.744
315.834
315.9
315.935
315.935
315.9
315.834
315.744
315.636
315.52
315.401
315.286
315.181
315.104
309.075
309.121
309.184
309.253
309.324
309.394
309.459
309.513
309.553
309.573
309.573
309.553
309.513
309.459
309.394
309.324
309.253
309.184
309.121
309.075
303.043
303.058
303.079
303.102
303.126
303.149
303.171
303.189
303.202
303.209
303.209
303.202
303.189
303.171
303.149
303.126
303.102
303.079
303.058
303.043
345.283
345.531
345.847
346.192
346.547
346.894
347.215
347.486
347.683
347.787
347.787
347.683
347.486
347.215
346.894
346.547
346.192
345.847
345.531
345.283
339.291
339.5
339.774
340.072
340.379
340.68
340.957
341.191
341.361
341.451
341.451
341.361
341.191
340.957
340.68
340.379
340.072
339.774
339.5
339.291
333.28
333.454
333.684
333.936
334.195
334.449
334.684
334.881
335.025
335.101
335.101
335.025
334.881
334.684
334.449
334.195
333.936
333.684
333.454
333.28
327.253
327.394
327.581
327.787
327.999
328.207
328.398
328.559
328.677
328.738
328.738
328.677
328.559
328.398
328.207
327.999
327.787
327.581
327.394
327.253
321.215
321.323
321.468
321.628
321.793
321.954
322.103
322.228
322.319
322.367
322.367
322.319
322.228
322.103
321.954
321.793
321.628
321.468
321.323
321.215
315.167
315.243
315.347
315.461
315.579
315.694
315.801
315.89
315.955
315.989
315.989
315.955
315.89
315.801
315.694
315.579
315.461
315.347
315.243
315.167
309.113
309.159
309.221
309.289
309.36
309.429
309.493
309.547
309.586
309.606
309.606
309.586
309.547
309.493
309.429
309.36
309.289
309.221
309.159
309.113
303.055
303.07
303.091
303.114
303.138
303.161
303.183
303.2
303.214
303.22
303.22
303.214
303.2
303.183
303.161
303.138
303.114
303.091
303.07
303.055
345.661
345.905
346.216
346.554
346.902
347.242
347.556
347.82
348.012
348.113
348.113
348.012
347.82
347.556
347.242
346.902
346.554
346.216
345.905
345.661
339.618
339.825
340.093
340.386
340.687
340.981
341.252
341.481
341.646
341.734
341.734
341.646
341.481
341.252
340.981
340.687
340.386
340.093
339.825
339.618
333.557
333.728
333.955
334.202
334.456
334.705
334.934
335.126
335.266
335.34
335.34
335.266
335.126
334.934
334.705
334.456
334.202
333.955
333.728
333.557
327.48
327.618
327.803
328.005
328.213
328.416
328.603
328.76
328.875
328.935
328.935
328.875
328.76
328.603
328.416
328.213
328.005
327.803
327.618
327.48
321.392
321.498
321.64
321.798
321.959
322.117
322.262
322.385
322.473
322.52
322.52
322.473
322.385
322.262
322.117
321.959
321.798
321.64
321.498
321.392
315.293
315.368
315.47
315.583
315.698
315.811
315.914
316.002
316.065
316.098
316.098
316.065
316.002
315.914
315.811
315.698
315.583
315.47
315.368
315.293
309.189
309.234
309.295
309.362
309.431
309.499
309.561
309.614
309.652
309.672
309.672
309.652
309.614
309.561
309.499
309.431
309.362
309.295
309.234
309.189
303.081
303.096
303.116
303.139
303.162
303.185
303.205
303.223
303.236
303.242
303.242
303.236
303.223
303.205
303.185
303.162
303.139
303.116
303.096
303.081
346.229
346.467
346.77
347.099
347.437
347.766
348.069
348.324
348.508
348.606
348.606
348.508
348.324
348.069
347.766
347.437
347.099
346.77
346.467
346.229
340.111
340.312
340.574
340.859
341.151
341.436
341.698
341.918
342.077
342.162
342.162
342.077
341.918
341.698
341.436
341.151
340.859
340.574
340.312
340.111
333.974
334.141
334.362
334.602
334.849
335.09
335.311
335.497
335.632
335.703
335.703
335.632
335.497
335.311
335.09
334.849
334.602
334.362
334.141
333.974
327.821
327.956
328.136
328.332
328.534
328.731
328.912
329.063
329.174
329.232
329.232
329.174
329.063
328.912
328.731
328.534
328.332
328.136
327.956
327.821
321.657
321.76
321.9
322.053
322.209
322.362
322.503
322.621
322.706
322.751
322.751
322.706
322.621
322.503
322.362
322.209
322.053
321.9
321.76
321.657
315.483
315.556
315.656
315.765
315.877
315.986
316.086
316.17
316.231
316.264
316.264
316.231
316.17
316.086
315.986
315.877
315.765
315.656
315.556
315.483
309.303
309.347
309.406
309.472
309.539
309.605
309.665
309.715
309.752
309.771
309.771
309.752
309.715
309.665
309.605
309.539
309.472
309.406
309.347
309.303
303.119
303.133
303.153
303.175
303.198
303.22
303.24
303.257
303.269
303.276
303.276
303.269
303.257
303.24
303.22
303.198
303.175
303.153
303.133
303.119
346.987
347.218
347.512
347.829
348.153
348.469
348.758
349.001
349.177
349.269
349.269
349.177
349.001
348.758
348.469
348.153
347.829
347.512
347.218
346.987
340.768
340.964
341.217
341.491
341.772
342.045
342.296
342.505
342.657
342.737
342.737
342.657
342.505
342.296
342.045
341.772
341.491
341.217
340.964
340.768
334.53
334.692
334.906
335.138
335.375
335.606
335.817
335.994
336.123
336.19
336.19
336.123
335.994
335.817
335.606
335.375
335.138
334.906
334.692
334.53
328.277
328.407
328.581
328.771
328.965
329.154
329.326
329.471
329.576
329.631
329.631
329.576
329.471
329.326
329.154
328.965
328.771
328.581
328.407
328.277
322.011
322.111
322.246
322.394
322.544
322.691
322.825
322.938
323.019
323.062
323.062
323.019
322.938
322.825
322.691
322.544
322.394
322.246
322.111
322.011
315.736
315.807
315.903
316.009
316.116
316.221
316.317
316.397
316.455
316.486
316.486
316.455
316.397
316.317
316.221
316.116
316.009
315.903
315.807
315.736
309.455
309.497
309.555
309.618
309.683
309.746
309.803
309.851
309.886
309.905
309.905
309.886
309.851
309.803
309.746
309.683
309.618
309.555
309.497
309.455
303.17
303.184
303.203
303.224
303.246
303.267
303.287
303.303
303.314
303.321
303.321
303.314
303.303
303.287
303.267
303.246
303.224
303.203
303.184
303.17
347.937
348.159
348.441
348.744
349.053
349.353
349.627
349.856
350.021
350.108
350.108
350.021
349.856
349.627
349.353
349.053
348.744
348.441
348.159
347.937
341.591
341.78
342.023
342.285
342.553
342.812
343.049
343.247
343.39
343.465
343.465
343.39
343.247
343.049
342.812
342.553
342.285
342.023
341.78
341.591
335.227
335.383
335.588
335.81
336.036
336.255
336.455
336.623
336.743
336.807
336.807
336.743
336.623
336.455
336.255
336.036
335.81
335.588
335.383
335.227
328.847
328.973
329.14
329.321
329.506
329.685
329.849
329.985
330.084
330.136
330.136
330.084
329.985
329.849
329.685
329.506
329.321
329.14
328.973
328.847
322.455
322.551
322.681
322.822
322.966
323.105
323.232
323.338
323.415
323.455
323.455
323.415
323.338
323.232
323.105
322.966
322.822
322.681
322.551
322.455
316.053
316.122
316.214
316.315
316.417
316.517
316.608
316.683
316.738
316.767
316.767
316.738
316.683
316.608
316.517
316.417
316.315
316.214
316.122
316.053
309.645
309.686
309.742
309.802
309.864
309.923
309.978
310.023
310.056
310.074
310.074
310.056
310.023
309.978
309.923
309.864
309.802
309.742
309.686
309.645
303.234
303.247
303.266
303.286
303.307
303.327
303.345
303.36
303.371
303.377
303.377
303.371
303.36
303.345
303.327
303.307
303.286
303.266
303.247
303.234
349.079
349.292
349.56
349.848
350.14
350.422
350.679
350.893
351.047
351.128
351.128
351.047
350.893
350.679
350.422
350.14
349.848
349.56
349.292
349.079
342.582
342.762
342.993
343.242
343.495
343.739
343.962
344.147
344.28
344.35
344.35
344.28
344.147
343.962
343.739
343.495
343.242
342.993
342.762
342.582
336.065
336.214
336.409
336.62
336.834
337.04
337.228
337.384
337.497
337.556
337.556
337.497
337.384
337.228
337.04
336.834
336.62
336.409
336.214
336.065
329.533
329.653
329.812
329.984
330.159
330.328
330.481
330.609
330.701
330.749
330.749
330.701
330.609
330.481
330.328
330.159
329.984
329.812
329.653
329.533
322.988
323.081
323.204
323.338
323.474
323.605
323.724
323.824
323.895
323.933
323.933
323.895
323.824
323.724
323.605
323.474
323.338
323.204
323.081
322.988
316.435
316.5
316.588
316.684
316.781
316.874
316.96
317.03
317.082
317.108
317.108
317.082
317.03
316.96
316.874
316.781
316.684
316.588
316.5
316.435
309.875
309.913
309.966
310.024
310.082
310.138
310.189
310.232
310.263
310.279
310.279
310.263
310.232
310.189
310.138
310.082
310.024
309.966
309.913
309.875
303.31
303.324
303.341
303.36
303.38
303.399
303.416
303.43
303.44
303.446
303.446
303.44
303.43
303.416
303.399
303.38
303.36
303.341
303.324
303.31
350.415
350.617
350.871
351.142
351.416
351.68
351.918
352.116
352.259
352.334
352.334
352.259
352.116
351.918
351.68
351.416
351.142
350.871
350.617
350.415
343.74
343.911
344.13
344.365
344.602
344.83
345.037
345.208
345.331
345.396
345.396
345.331
345.208
345.037
344.83
344.602
344.365
344.13
343.911
343.74
337.045
337.187
337.371
337.57
337.771
337.964
338.138
338.283
338.387
338.442
338.442
338.387
338.283
338.138
337.964
337.771
337.57
337.371
337.187
337.045
330.335
330.449
330.6
330.762
330.926
331.084
331.227
331.345
331.43
331.475
331.475
331.43
331.345
331.227
331.084
330.926
330.762
330.6
330.449
330.335
323.612
323.7
323.817
323.943
324.071
324.193
324.304
324.396
324.462
324.497
324.497
324.462
324.396
324.304
324.193
324.071
323.943
323.817
323.7
323.612
316.881
316.943
317.026
317.116
317.207
317.295
317.374
317.44
317.487
317.512
317.512
317.487
317.44
317.374
317.295
317.207
317.116
317.026
316.943
316.881
310.142
310.179
310.229
310.283
310.338
310.391
310.438
310.478
310.506
310.521
310.521
310.506
310.478
310.438
310.391
310.338
310.283
310.229
310.179
310.142
303.4
303.413
303.429
303.448
303.466
303.484
303.499
303.513
303.522
303.527
303.527
303.522
303.513
303.499
303.484
303.466
303.448
303.429
303.413
303.4
351.945
352.136
352.375
352.629
352.884
353.129
353.349
353.531
353.662
353.73
353.73
353.662
353.531
353.349
353.129
352.884
352.629
352.375
352.136
351.945
345.066
345.228
345.434
345.654
345.875
346.087
346.277
346.435
346.548
346.607
346.607
346.548
346.435
346.277
346.087
345.875
345.654
345.434
345.228
345.066
338.168
338.302
338.476
338.662
338.849
339.028
339.189
339.322
339.418
339.468
339.468
339.418
339.322
339.189
339.028
338.849
338.662
338.476
338.302
338.168
331.254
331.362
331.503
331.655
331.808
331.955
332.087
332.196
332.274
332.314
332.314
332.274
332.196
332.087
331.955
331.808
331.655
331.503
331.362
331.254
324.327
324.41
324.52
324.638
324.757
324.871
324.974
325.058
325.119
325.151
325.151
325.119
325.058
324.974
324.871
324.757
324.638
324.52
324.41
324.327
317.392
317.45
317.529
317.613
317.698
317.779
317.853
317.913
317.956
317.979
317.979
317.956
317.913
317.853
317.779
317.698
317.613
317.529
317.45
317.392
310.449
310.484
310.531
310.582
310.633
310.682
310.726
310.762
310.788
310.802
310.802
310.788
310.762
310.726
310.682
310.633
310.582
310.531
310.484
310.449
303.503
303.515
303.531
303.548
303.565
303.581
303.596
303.608
303.617
303.621
303.621
303.617
303.608
303.596
303.581
303.565
303.548
303.531
303.515
303.503
353.672
353.851
354.074
354.311
354.548
354.773
354.975
355.141
355.26
355.322
355.322
355.26
355.141
354.975
354.773
354.548
354.311
354.074
353.851
353.672
346.563
346.715
346.908
347.112
347.317
347.512
347.687
347.831
347.934
347.988
347.988
347.934
347.831
347.687
347.512
347.317
347.112
346.908
346.715
346.563
339.435
339.561
339.723
339.896
340.07
340.234
340.382
340.504
340.591
340.637
340.637
340.591
340.504
340.382
340.234
340.07
339.896
339.723
339.561
339.435
332.291
332.392
332.524
332.666
332.808
332.943
333.064
333.163
333.234
333.272
333.272
333.234
333.163
333.064
332.943
332.808
332.666
332.524
332.392
332.291
325.134
325.212
325.315
325.425
325.535
325.64
325.734
325.811
325.867
325.896
325.896
325.867
325.811
325.734
325.64
325.535
325.425
325.315
325.212
325.134
317.968
318.023
318.096
318.175
318.254
318.329
318.396
318.451
318.491
318.511
318.511
318.491
318.451
318.396
318.329
318.254
318.175
318.096
318.023
317.968
310.796
310.828
310.872
310.92
310.967
311.012
311.052
311.086
311.109
311.122
311.122
311.109
311.086
311.052
311.012
310.967
310.92
310.872
310.828
310.796
303.619
303.63
303.645
303.661
303.677
303.692
303.705
303.716
303.724
303.728
303.728
303.724
303.716
303.705
303.692
303.677
303.661
303.645
303.63
303.619
355.595
355.763
355.971
356.19
356.408
356.614
356.798
356.949
357.057
357.113
357.113
357.057
356.949
356.798
356.614
356.408
356.19
355.971
355.763
355.595
348.23
348.372
348.552
348.741
348.93
349.109
349.269
349.399
349.493
349.541
349.541
349.493
349.399
349.269
349.109
348.93
348.741
348.552
348.372
348.23
340.846
340.964
341.115
341.275
341.435
341.586
341.721
341.832
341.911
341.952
341.952
341.911
341.832
341.721
341.586
341.435
341.275
341.115
340.964
340.846
333.446
333.54
333.664
333.795
333.925
334.049
334.16
334.25
334.315
334.348
334.348
334.315
334.25
334.16
334.049
333.925
333.795
333.664
333.54
333.446
326.033
326.105
326.201
326.303
326.405
326.501
326.587
326.657
326.707
326.733
326.733
326.707
326.657
326.587
326.501
326.405
326.303
326.201
326.105
326.033
318.61
318.662
318.73
318.803
318.875
318.944
319.006
319.056
319.092
319.11
319.11
319.092
319.056
319.006
318.944
318.875
318.803
318.73
318.662
318.61
311.181
311.212
311.253
311.297
311.34
311.382
311.419
311.449
311.47
311.481
311.481
311.47
311.449
311.419
311.382
311.34
311.297
311.253
311.212
311.181
303.749
303.759
303.773
303.787
303.802
303.816
303.828
303.838
303.845
303.849
303.849
303.845
303.838
303.828
303.816
303.802
303.787
303.773
303.759
303.749
357.716
357.872
358.065
358.267
358.467
358.655
358.822
358.959
359.056
359.106
359.106
359.056
358.959
358.822
358.655
358.467
358.267
358.065
357.872
357.716
350.069
350.201
350.367
350.542
350.716
350.879
351.024
351.142
351.226
351.269
351.269
351.226
351.142
351.024
350.879
350.716
350.542
350.367
350.201
350.069
342.402
342.512
342.652
342.8
342.946
343.084
343.207
343.307
343.378
343.415
343.415
343.378
343.307
343.207
343.084
342.946
342.8
342.652
342.512
342.402
334.719
334.807
334.922
335.043
335.163
335.275
335.376
335.458
335.516
335.546
335.546
335.516
335.458
335.376
335.275
335.163
335.043
334.922
334.807
334.719
327.024
327.091
327.18
327.274
327.367
327.455
327.533
327.597
327.642
327.665
327.665
327.642
327.597
327.533
327.455
327.367
327.274
327.18
327.091
327.024
319.318
319.366
319.43
319.497
319.563
319.626
319.682
319.727
319.76
319.777
319.777
319.76
319.727
319.682
319.626
319.563
319.497
319.43
319.366
319.318
311.607
311.635
311.673
311.714
311.754
311.791
311.825
311.852
311.872
311.882
311.882
311.872
311.852
311.825
311.791
311.754
311.714
311.673
311.635
311.607
303.891
303.901
303.913
303.927
303.94
303.953
303.964
303.973
303.98
303.983
303.983
303.98
303.973
303.964
303.953
303.94
303.927
303.913
303.901
303.891
360.035
360.179
360.358
360.543
360.726
360.897
361.048
361.171
361.258
361.303
361.303
361.258
361.171
361.048
360.897
360.726
360.543
360.358
360.179
360.035
352.079
352.201
352.355
352.516
352.674
352.822
352.953
353.06
353.135
353.174
353.174
353.135
353.06
352.953
352.822
352.674
352.516
352.355
352.201
352.079
344.103
344.205
344.334
344.47
344.604
344.73
344.84
344.931
344.994
345.028
345.028
344.994
344.931
344.84
344.73
344.604
344.47
344.334
344.205
344.103
336.111
336.193
336.299
336.41
336.519
336.622
336.713
336.787
336.839
336.866
336.866
336.839
336.787
336.713
336.622
336.519
336.41
336.299
336.193
336.111
328.107
328.169
328.251
328.338
328.423
328.503
328.574
328.631
328.672
328.693
328.693
328.672
328.631
328.574
328.503
328.423
328.338
328.251
328.169
328.107
320.092
320.137
320.195
320.257
320.318
320.375
320.426
320.467
320.496
320.511
320.511
320.496
320.467
320.426
320.375
320.318
320.257
320.195
320.137
320.092
312.072
312.098
312.133
312.17
312.207
312.241
312.272
312.296
312.314
312.323
312.323
312.314
312.296
312.272
312.241
312.207
312.17
312.133
312.098
312.072
304.047
304.056
304.068
304.08
304.092
304.104
304.114
304.122
304.128
304.131
304.131
304.128
304.122
304.114
304.104
304.092
304.08
304.068
304.056
304.047
362.55
362.684
362.848
363.018
363.184
363.339
363.475
363.586
363.664
363.704
363.704
363.664
363.586
363.475
363.339
363.184
363.018
362.848
362.684
362.55
354.259
354.372
354.514
354.661
354.805
354.939
355.058
355.153
355.221
355.256
355.256
355.221
355.153
355.058
354.939
354.805
354.661
354.514
354.372
354.259
345.948
346.042
346.161
346.286
346.408
346.521
346.621
346.702
346.76
346.789
346.789
346.76
346.702
346.621
346.521
346.408
346.286
346.161
346.042
345.948
337.621
337.697
337.794
337.896
337.995
338.088
338.17
338.237
338.283
338.308
338.308
338.283
338.237
338.17
338.088
337.995
337.896
337.794
337.697
337.621
329.281
329.339
329.415
329.494
329.571
329.644
329.708
329.759
329.795
329.814
329.814
329.795
329.759
329.708
329.644
329.571
329.494
329.415
329.339
329.281
320.932
320.973
321.027
321.083
321.139
321.19
321.236
321.273
321.299
321.312
321.312
321.299
321.273
321.236
321.19
321.139
321.083
321.027
320.973
320.932
312.576
312.6
312.633
312.667
312.7
312.731
312.758
312.78
312.796
312.804
312.804
312.796
312.78
312.758
312.731
312.7
312.667
312.633
312.6
312.576
304.216
304.224
304.235
304.246
304.258
304.268
304.277
304.285
304.29
304.293
304.293
304.29
304.285
304.277
304.268
304.258
304.246
304.235
304.224
304.216
365.258
365.381
365.532
365.687
365.838
365.978
366.1
366.199
366.269
366.305
366.305
366.269
366.199
366.1
365.978
365.838
365.687
365.532
365.381
365.258
356.605
356.71
356.84
356.974
357.105
357.226
357.333
357.418
357.479
357.51
357.51
357.479
357.418
357.333
357.226
357.105
356.974
356.84
356.71
356.605
347.933
348.02
348.129
348.243
348.354
348.456
348.546
348.619
348.67
348.696
348.696
348.67
348.619
348.546
348.456
348.354
348.243
348.129
348.02
347.933
339.245
339.314
339.404
339.497
339.587
339.672
339.745
339.805
339.846
339.868
339.868
339.846
339.805
339.745
339.672
339.587
339.497
339.404
339.314
339.245
330.544
330.598
330.667
330.739
330.81
330.875
330.933
330.979
331.011
331.028
331.028
331.011
330.979
330.933
330.875
330.81
330.739
330.667
330.598
330.544
321.834
321.872
321.921
321.973
322.023
322.07
322.111
322.144
322.168
322.18
322.18
322.168
322.144
322.111
322.07
322.023
321.973
321.921
321.872
321.834
313.118
313.14
313.17
313.201
313.231
313.259
313.284
313.304
313.318
313.325
313.325
313.318
313.304
313.284
313.259
313.231
313.201
313.17
313.14
313.118
304.398
304.405
304.415
304.426
304.436
304.445
304.453
304.46
304.465
304.467
304.467
304.465
304.46
304.453
304.445
304.436
304.426
304.415
304.405
304.398
368.145
368.259
368.397
368.539
368.675
368.802
368.912
369
369.063
369.095
369.095
369.063
369
368.912
368.802
368.675
368.539
368.397
368.259
368.145
359.106
359.202
359.321
359.443
359.562
359.672
359.767
359.844
359.898
359.926
359.926
359.898
359.844
359.767
359.672
359.562
359.443
359.321
359.202
359.106
350.047
350.127
350.227
350.331
350.431
350.524
350.605
350.67
350.715
350.739
350.739
350.715
350.67
350.605
350.524
350.431
350.331
350.227
350.127
350.047
340.973
341.037
341.119
341.204
341.286
341.362
341.428
341.481
341.519
341.538
341.538
341.519
341.481
341.428
341.362
341.286
341.204
341.119
341.037
340.973
331.888
331.937
332
332.066
332.13
332.189
332.241
332.282
332.311
332.326
332.326
332.311
332.282
332.241
332.189
332.13
332.066
332
331.937
331.888
322.794
322.829
322.874
322.921
322.967
323.009
323.046
323.075
323.096
323.107
323.107
323.096
323.075
323.046
323.009
322.967
322.921
322.874
322.829
322.794
313.694
313.715
313.742
313.77
313.798
313.823
313.845
313.863
313.875
313.882
313.882
313.875
313.863
313.845
313.823
313.798
313.77
313.742
313.715
313.694
304.591
304.598
304.607
304.616
304.626
304.634
304.641
304.647
304.652
304.654
304.654
304.652
304.647
304.641
304.634
304.626
304.616
304.607
304.598
304.591
371.182
371.287
371.413
371.542
371.666
371.78
371.879
371.958
372.014
372.042
372.042
372.014
371.958
371.879
371.78
371.666
371.542
371.413
371.287
371.182
361.73
361.818
361.927
362.039
362.147
362.246
362.331
362.4
362.448
362.473
362.473
362.448
362.4
362.331
362.246
362.147
362.039
361.927
361.818
361.73
352.262
352.335
352.427
352.522
352.613
352.696
352.769
352.827
352.868
352.889
352.889
352.868
352.827
352.769
352.696
352.613
352.522
352.427
352.335
352.262
342.781
342.84
342.915
342.993
343.067
343.136
343.195
343.243
343.276
343.293
343.293
343.276
343.243
343.195
343.136
343.067
342.993
342.915
342.84
342.781
333.292
333.337
333.395
333.455
333.513
333.567
333.613
333.65
333.676
333.69
333.69
333.676
333.65
333.613
333.567
333.513
333.455
333.395
333.337
333.292
323.796
323.828
323.869
323.912
323.954
323.992
324.025
324.051
324.07
324.08
324.08
324.07
324.051
324.025
323.992
323.954
323.912
323.869
323.828
323.796
314.295
314.314
314.339
314.365
314.39
314.413
314.433
314.449
314.46
314.466
314.466
314.46
314.449
314.433
314.413
314.39
314.365
314.339
314.314
314.295
304.792
304.799
304.807
304.816
304.824
304.832
304.838
304.844
304.847
304.849
304.849
304.847
304.844
304.838
304.832
304.824
304.816
304.807
304.799
304.792
374.289
374.385
374.501
374.618
374.731
374.834
374.923
374.994
375.044
375.069
375.069
375.044
374.994
374.923
374.834
374.731
374.618
374.501
374.385
374.289
364.403
364.484
364.584
364.686
364.784
364.873
364.951
365.012
365.055
365.078
365.078
365.055
365.012
364.951
364.873
364.784
364.686
364.584
364.484
364.403
354.508
354.576
354.66
354.746
354.829
354.905
354.971
355.023
355.059
355.078
355.078
355.059
355.023
354.971
354.905
354.829
354.746
354.66
354.576
354.508
344.609
344.663
344.732
344.803
344.871
344.933
344.986
345.029
345.059
345.074
345.074
345.059
345.029
344.986
344.933
344.871
344.803
344.732
344.663
344.609
334.707
334.748
334.802
334.857
334.909
334.958
335
335.033
335.056
335.068
335.068
335.056
335.033
335
334.958
334.909
334.857
334.802
334.748
334.707
324.803
324.832
324.87
324.91
324.948
324.982
325.012
325.036
325.053
325.061
325.061
325.053
325.036
325.012
324.982
324.948
324.91
324.87
324.832
324.803
314.899
314.916
314.939
314.963
314.985
315.006
315.024
315.039
315.049
315.054
315.054
315.049
315.039
315.024
315.006
314.985
314.963
314.939
314.916
314.899
304.994
305
305.008
305.016
305.023
305.03
305.036
305.041
305.044
305.046
305.046
305.044
305.041
305.036
305.03
305.023
305.016
305.008
305
304.994
377.266
377.355
377.462
377.57
377.673
377.767
377.848
377.912
377.957
377.98
377.98
377.957
377.912
377.848
377.767
377.673
377.57
377.462
377.355
377.266
366.933
367.009
367.101
367.195
367.284
367.366
367.436
367.492
367.531
367.551
367.551
367.531
367.492
367.436
367.366
367.284
367.195
367.101
367.009
366.933
356.613
356.675
356.753
356.833
356.909
356.978
357.038
357.085
357.118
357.135
357.135
357.118
357.085
357.038
356.978
356.909
356.833
356.753
356.675
356.613
346.305
346.356
346.419
346.484
346.547
346.603
346.652
346.691
346.718
346.732
346.732
346.718
346.691
346.652
346.603
346.547
346.484
346.419
346.356
346.305
336.01
336.049
336.098
336.149
336.197
336.242
336.28
336.31
336.331
336.342
336.342
336.331
336.31
336.28
336.242
336.197
336.149
336.098
336.049
336.01
325.726
325.753
325.788
325.825
325.859
325.891
325.918
325.94
325.955
325.963
325.963
325.955
325.94
325.918
325.891
325.859
325.825
325.788
325.753
325.726
315.449
315.466
315.487
315.509
315.53
315.549
315.565
315.578
315.587
315.592
315.592
315.587
315.578
315.565
315.549
315.53
315.509
315.487
315.466
315.449
305.178
305.184
305.191
305.198
305.205
305.212
305.217
305.221
305.224
305.226
305.226
305.224
305.221
305.217
305.212
305.205
305.198
305.191
305.184
305.178
379.593
379.676
379.777
379.878
379.974
380.062
380.137
380.197
380.238
380.26
380.26
380.238
380.197
380.137
380.062
379.974
379.878
379.777
379.676
379.593
368.836
368.907
368.994
369.082
369.166
369.243
369.308
369.36
369.397
369.415
369.415
369.397
369.36
369.308
369.243
369.166
369.082
368.994
368.907
368.836
358.146
358.205
358.279
358.354
358.425
358.49
358.546
358.591
358.622
358.637
358.637
358.622
358.591
358.546
358.49
358.425
358.354
358.279
358.205
358.146
347.511
347.559
347.619
347.681
347.74
347.793
347.839
347.875
347.901
347.914
347.914
347.901
347.875
347.839
347.793
347.74
347.681
347.619
347.559
347.511
336.92
336.956
337.003
337.051
337.097
337.139
337.175
337.203
337.223
337.233
337.233
337.223
337.203
337.175
337.139
337.097
337.051
337.003
336.956
336.92
326.361
326.387
326.42
326.455
326.488
326.517
326.543
326.564
326.578
326.585
326.585
326.578
326.564
326.543
326.517
326.488
326.455
326.42
326.387
326.361
315.825
315.841
315.861
315.882
315.901
315.919
315.935
315.947
315.956
315.96
315.96
315.956
315.947
315.935
315.919
315.901
315.882
315.861
315.841
315.825
305.303
305.308
305.315
305.322
305.329
305.335
305.34
305.344
305.347
305.348
305.348
305.347
305.344
305.34
305.335
305.329
305.322
305.315
305.308
305.303
)
;

boundaryField
{
    hotSide
    {
        type            fixedGradient;
        gradient        nonuniform List<scalar> 
400
(
475.536
477.547
481.573
487.617
495.688
505.795
517.949
532.161
548.442
566.806
587.264
609.827
634.504
661.305
690.237
721.308
754.524
789.887
827.404
867.075
478.826
480.812
484.786
490.756
498.732
508.726
520.751
534.824
550.96
569.173
589.479
611.891
636.42
663.078
691.874
722.816
755.909
791.159
828.569
868.142
482.387
484.342
488.255
494.136
501.999
511.86
523.737
537.648
553.615
571.656
591.789
614.031
638.396
664.896
693.543
724.344
757.305
792.433
829.731
869.201
486.16
488.078
491.92
497.699
505.432
515.14
526.846
540.575
556.353
574.202
594.144
616.2
640.386
666.717
695.204
725.856
758.68
793.681
830.863
870.227
490.039
491.916
495.679
501.343
508.931
518.469
529.988
543.518
559.09
576.732
596.472
618.331
642.33
668.484
696.807
727.307
759.992
794.866
831.932
871.192
493.862
495.696
499.373
504.915
512.349
521.709
533.031
546.354
561.713
579.145
598.678
620.34
644.152
670.132
698.293
728.645
761.195
795.948
832.904
872.065
497.41
499.201
502.794
508.214
515.496
524.68
535.81
548.931
564.086
581.315
600.652
622.128
645.765
671.583
699.596
729.813
762.241
796.883
833.741
872.814
500.422
502.173
505.69
511.001
518.147
527.174
538.134
551.077
566.053
583.106
602.275
623.59
647.079
672.76
700.648
730.752
763.079
797.63
834.407
873.408
502.626
504.347
507.805
513.033
520.076
528.984
539.815
552.625
567.467
584.389
603.433
624.631
648.01
673.592
701.389
731.412
763.665
798.151
834.871
873.82
503.794
505.498
508.925
514.108
521.094
529.938
540.699
553.438
568.208
585.06
604.036
625.172
648.494
674.022
701.772
731.752
763.967
798.42
835.109
874.032
503.794
505.498
508.925
514.108
521.094
529.938
540.699
553.438
568.208
585.06
604.036
625.172
648.494
674.022
701.772
731.752
763.967
798.42
835.109
874.032
502.626
504.347
507.805
513.033
520.076
528.984
539.815
552.625
567.467
584.389
603.433
624.631
648.01
673.592
701.389
731.412
763.665
798.151
834.871
873.82
500.422
502.173
505.69
511.001
518.147
527.174
538.134
551.077
566.053
583.106
602.275
623.59
647.079
672.76
700.648
730.752
763.079
797.63
834.407
873.408
497.41
499.201
502.794
508.214
515.496
524.68
535.81
548.931
564.086
581.315
600.652
622.128
645.765
671.583
699.596
729.813
762.241
796.883
833.741
872.814
493.862
495.696
499.373
504.915
512.349
521.709
533.031
546.354
561.713
579.145
598.678
620.34
644.152
670.132
698.293
728.645
761.195
795.948
832.904
872.065
490.039
491.916
495.679
501.343
508.931
518.469
529.988
543.518
559.09
576.732
596.472
618.331
642.33
668.484
696.807
727.307
759.992
794.866
831.932
871.192
486.16
488.078
491.92
497.699
505.432
515.14
526.846
540.575
556.353
574.202
594.144
616.2
640.386
666.717
695.204
725.856
758.68
793.681
830.863
870.227
482.387
484.342
488.255
494.136
501.999
511.86
523.737
537.648
553.615
571.656
591.789
614.031
638.396
664.896
693.543
724.344
757.305
792.433
829.731
869.201
478.826
480.812
484.786
490.756
498.732
508.726
520.751
534.824
550.96
569.173
589.479
611.891
636.42
663.078
691.874
722.816
755.909
791.159
828.569
868.142
475.536
477.547
481.573
487.617
495.688
505.795
517.949
532.161
548.442
566.806
587.264
609.827
634.504
661.305
690.237
721.308
754.524
789.887
827.404
867.075
)
;
    }
    coldSide
    {
        type            mixed;
        refValue        uniform 300;
        refGradient     uniform 0;
        valueFraction   uniform 0.991591;
        source          uniform 0;
        value           nonuniform List<scalar> 
400
(
300.026
300.026
300.026
300.026
300.027
300.027
300.028
300.029
300.029
300.03
300.032
300.033
300.034
300.035
300.037
300.039
300.04
300.042
300.044
300.045
300.026
300.026
300.026
300.026
300.027
300.027
300.028
300.029
300.03
300.031
300.032
300.033
300.034
300.036
300.037