/*--------------------------------*- C++ -*----------------------------------*\
| =========                 |                                                 |
| \\      /  F ield         | OpenFOAM: The Open Source CFD Toolbox           |
|  \\    /   O peration     | Version:  2212                                  |
|   \\  /    A nd           | Website:  www.openfoam.com                      |
|    \\/     M anipulation  |                                                 |
\*---------------------------------------------------------------------------*/
FoamFile
{
    version     2.0;
    format      ascii;
    arch        "LSB;label=32;scalar=64";
    class       volScalarField;
    location    "0";
    object      Ttrue;
}
// * * * * * * * * * * * * * * * * * * * * * * * * * * * * * * * * * * * * * //

dimensions      [0 0 0 1 0 0 0];

internalField   nonuniform List<scalar> 
3200
(
349.049
349.742
350.627
351.592
352.586
353.562
354.462
355.222
355.776
356.068
356.068
355.776
355.222
354.462
353.562
352.586
351.592
350.627
349.742
349.049
342.529
343.116
343.88
344.714
345.574
346.418
347.197
347.853
348.332
348.584
348.584
348.332
347.853
347.197
346.418
345.574
344.714
343.88
343.116
342.529
336.002
336.489
337.132
337.838
338.565
339.277
339.935
340.489
340.892
341.105
341.105
340.892
340.489
339.935
339.277
338.565
337.838
337.132
336.489
336.002
329.469
329.861
330.386
330.962
331.556
332.139
332.675
333.128
333.457
333.631
333.631
333.457
333.128
332.675
332.139
331.556
330.962
330.386
329.861
329.469
322.931
323.232
323.639
324.087
324.549
325.001
325.419
325.77
326.026
326.161
326.161
326.026
325.77
325.419
325.001
324.549
324.087
323.639
323.232
322.931
316.39
316.603
316.893
317.213
317.543
317.866
318.164
318.414
318.597
318.693
318.693
318.597
318.414
318.164
317.866
317.543
317.213
316.893
316.603
316.39
309.846
309.973
310.147
310.339
310.537
310.731
310.91
311.06
311.17
311.228
311.228
311.17
311.06
310.91
310.731
310.537
310.339
310.147
309.973
309.846
303.301
303.343
303.401
303.466
303.532
303.597
303.657
303.707
303.744
303.763
303.763
303.744
303.707
303.657
303.597
303.532
303.466
303.401
303.343
303.301
349.21
349.898
350.775
351.731
352.715
353.68
354.57
355.32
355.867
356.155
356.155
355.867
355.32
354.57
353.68
352.715
351.731
350.775
349.898
349.21
342.668
343.251
344.008
344.835
345.686
346.521
347.29
347.939
348.411
348.66
348.66
348.411
347.939
347.29
346.521
345.686
344.835
344.008
343.251
342.668
336.12
336.603
337.241
337.939
338.659
339.364
340.014
340.561
340.959
341.17
341.17
340.959
340.561
340.014
339.364
338.659
337.939
337.241
336.603
336.12
329.565
329.954
330.474
331.045
331.633
332.209
332.74
333.187
333.512
333.684
333.684
333.512
333.187
332.74
332.209
331.633
331.045
330.474
329.954
329.565
323.006
323.305
323.708
324.152
324.609
325.057
325.469
325.816
326.068
326.202
326.202
326.068
325.816
325.469
325.057
324.609
324.152
323.708
323.305
323.006
316.443
316.655
316.942
317.259
317.586
317.905
318.2
318.447
318.627
318.722
318.722
318.627
318.447
318.2
317.905
317.586
317.259
316.942
316.655
316.443
309.878
310.004
310.177
310.367
310.563
310.755
310.932
311.08
311.188
311.245
311.245
311.188
311.08
310.932
310.755
310.563
310.367
310.177
310.004
309.878
303.311
303.354
303.411
303.475
303.541
303.605
303.664
303.714
303.75
303.769
303.769
303.75
303.714
303.664
303.605
303.541
303.475
303.411
303.354
303.311
349.533
350.21
351.073
352.011
352.975
353.919
354.788
355.52
356.053
356.334
356.334
356.053
355.52
354.788
353.919
352.975
352.011
351.073
350.21
349.533
342.948
343.521
344.265
345.077
345.911
346.728
347.479
348.112
348.572
348.815
348.815
348.572
348.112
347.479
346.728
345.911
345.077
344.265
343.521
342.948
336.356
336.831
337.458
338.144
338.849
339.539
340.174
340.708
341.096
341.301
341.301
341.096
340.708
340.174
339.539
338.849
338.144
337.458
336.831
336.356
329.758
330.141
330.652
331.213
331.789
332.353
332.871
333.308
333.624
333.792
333.792
333.624
333.308
332.871
332.353
331.789
331.213
330.652
330.141
329.758
323.156
323.45
323.846
324.282
324.73
325.168
325.571
325.91
326.156
326.286
326.286
326.156
325.91
325.571
325.168
324.73
324.282
323.846
323.45
323.156
316.55
316.758
317.041
317.352
317.672
317.985
318.273
318.514
318.69
318.783
318.783
318.69
318.514
318.273
317.985
317.672
317.352
317.041
316.758
316.55
309.942
310.067
310.236
310.423
310.615
310.803
310.975
311.121
311.226
311.281
311.281
311.226
311.121
310.975
310.803
310.615
310.423
310.236
310.067
309.942
303.333
303.374
303.431
303.494
303.558
303.621
303.679
303.728
303.763
303.782
303.782
303.763
303.728
303.679
303.621
303.558
303.494
303.431
303.374
303.333
350.019
350.68
351.521
352.434
353.369
354.283
355.123
355.829
356.341
356.612
356.612
356.341
355.829
355.123
354.283
353.369
352.434
351.521
350.68
350.019
343.368
343.928
344.654
345.443
346.253
347.044
347.77
348.38
348.823
349.056
349.056
348.823
348.38
347.77
347.044
346.253
345.443
344.654
343.928
343.368
336.711
337.176
337.787
338.454
339.139
339.807
340.42
340.935
341.309
341.506
341.506
341.309
340.935
340.42
339.807
339.139
338.454
337.787
337.176
336.711
330.049
330.422
330.921
331.466
332.026
332.572
333.073
333.493
333.799
333.959
333.959
333.799
333.493
333.073
332.572
332.026
331.466
330.921
330.422
330.049
323.382
323.669
324.055
324.479
324.914
325.338
325.728
326.055
326.292
326.416
326.416
326.292
326.055
325.728
325.338
324.914
324.479
324.055
323.669
323.382
316.712
316.915
317.19
317.493
317.804
318.107
318.385
318.618
318.787
318.876
318.876
318.787
318.618
318.385
318.107
317.804
317.493
317.19
316.915
316.712
310.039
310.16
310.326
310.507
310.694
310.876
311.043
311.183
311.284
311.338
311.338
311.284
311.183
311.043
310.876
310.694
310.507
310.326
310.16
310.039
303.365
303.406
303.461
303.522
303.585
303.646
303.702
303.748
303.782
303.8
303.8
303.782
303.748
303.702
303.646
303.585
303.522
303.461
303.406
303.365
350.671
351.312
352.125
353.005
353.904
354.78
355.583
356.255
356.743
357
357
356.743
356.255
355.583
354.78
353.904
353.005
352.125
351.312
350.671
343.932
344.475
345.176
345.938
346.716
347.474
348.168
348.75
349.172
349.393
349.393
349.172
348.75
348.168
347.474
346.716
345.938
345.176
344.475
343.932
337.188
337.638
338.229
338.872
339.53
340.171
340.757
341.249
341.604
341.792
341.792
341.604
341.249
340.757
340.171
339.53
338.872
338.229
337.638
337.188
330.438
330.8
331.282
331.808
332.346
332.87
333.349
333.75
334.041
334.194
334.194
334.041
333.75
333.349
332.87
332.346
331.808
331.282
330.8
330.438
323.684
323.963
324.336
324.745
325.163
325.57
325.943
326.254
326.48
326.599
326.599
326.48
326.254
325.943
325.57
325.163
324.745
324.336
323.963
323.684
316.928
317.125
317.391
317.683
317.982
318.272
318.538
318.761
318.922
319.006
319.006
318.922
318.761
318.538
318.272
317.982
317.683
317.391
317.125
316.928
310.169
310.286
310.446
310.622
310.801
310.975
311.135
311.269
311.365
311.416
311.416
311.365
311.269
311.135
310.975
310.801
310.622
310.446
310.286
310.169
303.409
303.448
303.502
303.56
303.621
303.679
303.732
303.777
303.81
303.827
303.827
303.81
303.777
303.732
303.679
303.621
303.56
303.502
303.448
303.409
351.49
352.107
352.888
353.729
354.586
355.418
356.177
356.812
357.271
357.512
357.512
357.271
356.812
356.177
355.418
354.586
353.729
352.888
352.107
351.49
344.641
345.163
345.837
346.565
347.307
348.027
348.684
349.233
349.629
349.838
349.838
349.629
349.233
348.684
348.027
347.307
346.565
345.837
345.163
344.641
337.787
338.22
338.787
339.403
340.03
340.638
341.193
341.657
341.992
342.168
342.168
341.992
341.657
341.193
340.638
340.03
339.403
338.787
338.22
337.787
330.928
331.276
331.739
332.242
332.755
333.252
333.706
334.085
334.358
334.502
334.502
334.358
334.085
333.706
333.252
332.755
332.242
331.739
331.276
330.928
324.065
324.333
324.691
325.083
325.481
325.868
326.22
326.515
326.727
326.839
326.839
326.727
326.515
326.22
325.868
325.481
325.083
324.691
324.333
324.065
317.199
317.389
317.645
317.924
318.209
318.485
318.737
318.947
319.098
319.178
319.178
319.098
318.947
318.737
318.485
318.209
317.924
317.645
317.389
317.199
310.332
310.445
310.599
310.766
310.937
311.103
311.254
311.38
311.471
311.519
311.519
311.471
311.38
311.254
311.103
310.937
310.766
310.599
310.445
310.332
303.464
303.501
303.553
303.609
303.666
303.722
303.772
303.815
303.845
303.861
303.861
303.845
303.815
303.772
303.722
303.666
303.609
303.553
303.501
303.464
352.48
353.07
353.814
354.613
355.423
356.205
356.917
357.51
357.938
358.163
358.163
357.938
357.51
356.917
356.205
355.423
354.613
353.814
353.07
352.48
345.498
345.997
346.639
347.33
348.032
348.709
349.325
349.838
350.208
350.402
350.402
350.208
349.838
349.325
348.709
348.032
347.33
346.639
345.997
345.498
338.511
338.925
339.465
340.05
340.643
341.216
341.736
342.17
342.482
342.646
342.646
342.482
342.17
341.736
341.216
340.643
340.05
339.465
338.925
338.511
331.519
331.853
332.293
332.771
333.256
333.724
334.15
334.504
334.759
334.893
334.893
334.759
334.504
334.15
333.724
333.256
332.771
332.293
331.853
331.519
324.525
324.781
325.123
325.494
325.871
326.235
326.566
326.841
327.039
327.143
327.143
327.039
326.841
326.566
326.235
325.871
325.494
325.123
324.781
324.525
317.528
317.709
317.953
318.218
318.487
318.747
318.983
319.18
319.322
319.396
319.396
319.322
319.18
318.983
318.747
318.487
318.218
317.953
317.709
317.528
310.529
310.637
310.784
310.943
311.104
311.261
311.402
311.52
311.605
311.65
311.65
311.605
311.52
311.402
311.261
311.104
310.943
310.784
310.637
310.529
303.53
303.566
303.615
303.668
303.722
303.775
303.822
303.862
303.89
303.905
303.905
303.89
303.862
303.822
303.775
303.722
303.668
303.615
303.566
303.53
353.645
354.205
354.909
355.662
356.422
357.152
357.814
358.364
358.759
358.966
358.966
358.759
358.364
357.814
357.152
356.422
355.662
354.909
354.205
353.645
346.505
346.98
347.587
348.239
348.897
349.53
350.102
350.578
350.92
351.099
351.099
350.92
350.578
350.102
349.53
348.897
348.239
347.587
346.98
346.505
339.362
339.755
340.267
340.818
341.374
341.909
342.394
342.795
343.084
343.235
343.235
343.084
342.795
342.394
341.909
341.374
340.818
340.267
339.755
339.362
332.215
332.532
332.949
333.399
333.854
334.292
334.688
335.016
335.252
335.376
335.376
335.252
335.016
334.688
334.292
333.854
333.399
332.949
332.532
332.215
325.065
325.309
325.632
325.982
326.336
326.676
326.984
327.239
327.423
327.519
327.519
327.423
327.239
326.984
326.676
326.336
325.982
325.632
325.309
325.065
317.914
318.086
318.317
318.567
318.82
319.063
319.282
319.465
319.596
319.664
319.664
319.596
319.465
319.282
319.063
318.82
318.567
318.317
318.086
317.914
310.761
310.864
311.002
311.152
311.304
311.45
311.582
311.691
311.77
311.811
311.811
311.77
311.691
311.582
311.45
311.304
311.152
311.002
310.864
310.761
303.607
303.642
303.688
303.738
303.789
303.838
303.882
303.919
303.945
303.959
303.959
303.945
303.919
303.882
303.838
303.789
303.738
303.688
303.642
303.607
354.986
355.515
356.178
356.883
357.591
358.268
358.879
359.384
359.746
359.936
359.936
359.746
359.384
358.879
358.268
357.591
356.883
356.178
355.515
354.986
347.666
348.114
348.686
349.296
349.909
350.496
351.025
351.462
351.775
351.939
351.939
351.775
351.462
351.025
350.496
349.909
349.296
348.686
348.114
347.666
340.343
340.714
341.196
341.712
342.23
342.727
343.174
343.543
343.808
343.947
343.947
343.808
343.543
343.174
342.727
342.23
341.712
341.196
340.714
340.343
333.017
333.316
333.708
334.13
334.554
334.96
335.326
335.628
335.845
335.958
335.958
335.845
335.628
335.326
334.96
334.554
334.13
333.708
333.316
333.017
325.689
325.918
326.223
326.551
326.881
327.196
327.481
327.715
327.884
327.972
327.972
327.884
327.715
327.481
327.196
326.881
326.551
326.223
325.918
325.689
318.359
318.521
318.739
318.973
319.209
319.434
319.637
319.805
319.925
319.988
319.988
319.925
319.805
319.637
319.434
319.209
318.973
318.739
318.521
318.359
311.028
311.125
311.255
311.396
311.538
311.673
311.795
311.896
311.968
312.006
312.006
311.968
311.896
311.795
311.673
311.538
311.396
311.255
311.125
311.028
303.697
303.729
303.773
303.82
303.867
303.913
303.954
303.987
304.012
304.024
304.024
304.012
303.987
303.954
303.913
303.867
303.82
303.773
303.729
303.697
356.508
357.005
357.625
358.281
358.937
359.561
360.121
360.583
360.912
361.084
361.084
360.912
360.583
360.121
359.561
358.937
358.281
357.625
357.005
356.508
348.983
349.404
349.939
350.507
351.075
351.616
352.101
352.5
352.786
352.935
352.935
352.786
352.5
352.101
351.616
351.075
350.507
349.939
349.404
348.983
341.456
341.805
342.255
342.736
343.216
343.674
344.084
344.422
344.663
344.789
344.789
344.663
344.422
344.084
343.674
343.216
342.736
342.255
341.805
341.456
333.926
334.207
334.575
334.968
335.361
335.735
336.07
336.347
336.544
336.647
336.647
336.544
336.347
336.07
335.735
335.361
334.968
334.575
334.207
333.926
326.396
326.611
326.896
327.202
327.508
327.799
328.06
328.274
328.428
328.508
328.508
328.428
328.274
328.06
327.799
327.508
327.202
326.896
326.611
326.396
318.864
319.017
319.22
319.438
319.656
319.864
320.051
320.204
320.314
320.371
320.371
320.314
320.204
320.051
319.864
319.656
319.438
319.22
319.017
318.864
311.331
311.423
311.544
311.675
311.807
311.931
312.043
312.135
312.201
312.236
312.236
312.201
312.135
312.043
311.931
311.807
311.675
311.544
311.423
311.331
303.798
303.829
303.87
303.914
303.958
303.999
304.037
304.068
304.09
304.101
304.101
304.09
304.068
304.037
303.999
303.958
303.914
303.87
303.829
303.798
358.213
358.679
359.256
359.863
360.467
361.039
361.55
361.969
362.268
362.423
362.423
362.268
361.969
361.55
361.039
360.467
359.863
359.256
358.679
358.213
350.459
350.853
351.35
351.877
352.4
352.896
353.338
353.701
353.96
354.094
354.094
353.96
353.701
353.338
352.896
352.4
351.877
351.35
350.853
350.459
342.703
343.029
343.449
343.894
344.337
344.756
345.131
345.437
345.656
345.77
345.77
345.656
345.437
345.131
344.756
344.337
343.894
343.449
343.029
342.703
334.946
335.209
335.551
335.915
336.277
336.62
336.926
337.177
337.356
337.449
337.449
337.356
337.177
336.926
336.62
336.277
335.915
335.551
335.209
334.946
327.188
327.39
327.655
327.938
328.22
328.487
328.725
328.92
329.059
329.132
329.132
329.059
328.92
328.725
328.487
328.22
327.938
327.655
327.39
327.188
319.43
319.573
319.762
319.964
320.165
320.356
320.526
320.666
320.765
320.817
320.817
320.765
320.666
320.526
320.356
320.165
319.964
319.762
319.573
319.43
311.671
311.756
311.87
311.991
312.112
312.227
312.329
312.413
312.472
312.503
312.503
312.472
312.413
312.329
312.227
312.112
311.991
311.87
311.756
311.671
303.912
303.941
303.979
304.02
304.06
304.098
304.133
304.161
304.181
304.191
304.191
304.181
304.161
304.133
304.098
304.06
304.02
303.979
303.941
303.912
360.105
360.538
361.073
361.634
362.187
362.709
363.173
363.552
363.821
363.96
363.96
363.821
363.552
363.173
362.709
362.187
361.634
361.073
360.538
360.105
352.096
352.463
352.924
353.409
353.889
354.342
354.744
355.072
355.305
355.426
355.426
355.305
355.072
354.744
354.342
353.889
353.409
352.924
352.463
352.096
344.087
344.391
344.78
345.19
345.596
345.979
346.319
346.596
346.793
346.896
346.896
346.793
346.596
346.319
345.979
345.596
345.19
344.78
344.391
344.087
336.077
336.322
336.639
336.974
337.307
337.62
337.898
338.125
338.286
338.37
338.37
338.286
338.125
337.898
337.62
337.307
336.974
336.639
336.322
336.077
328.067
328.255
328.501
328.762
329.021
329.264
329.481
329.657
329.783
329.848
329.848
329.783
329.657
329.481
329.264
329.021
328.762
328.501
328.255
328.067
320.058
320.191
320.366
320.552
320.737
320.911
321.066
321.192
321.282
321.328
321.328
321.282
321.192
321.066
320.911
320.737
320.552
320.366
320.191
320.058
312.048
312.127
312.233
312.345
312.456
312.56
312.653
312.729
312.783
312.811
312.811
312.783
312.729
312.653
312.56
312.456
312.345
312.233
312.127
312.048
304.039
304.065
304.1
304.138
304.175
304.21
304.241
304.267
304.285
304.294
304.294
304.285
304.267
304.241
304.21
304.175
304.138
304.1
304.065
304.039
362.185
362.587
363.081
363.596
364.102
364.576
364.995
365.336
365.578
365.703
365.703
365.578
365.336
364.995
364.576
364.102
363.596
363.081
362.587
362.185
353.896
354.236
354.662
355.108
355.547
355.958
356.321
356.617
356.826
356.934
356.934
356.826
356.617
356.321
355.958
355.547
355.108
354.662
354.236
353.896
345.608
345.89
346.249
346.626
346.997
347.345
347.653
347.903
348.08
348.171
348.171
348.08
347.903
347.653
347.345
346.997
346.626
346.249
345.89
345.608
337.321
337.547
337.84
338.149
338.452
338.737
338.989
339.193
339.338
339.413
339.413
339.338
339.193
338.989
338.737
338.452
338.149
337.84
337.547
337.321
329.034
329.208
329.435
329.675
329.911
330.133
330.329
330.488
330.6
330.659
330.659
330.6
330.488
330.329
330.133
329.911
329.675
329.435
329.208
329.034
320.748
320.871
321.033
321.205
321.373
321.532
321.672
321.785
321.866
321.908
321.908
321.866
321.785
321.672
321.532
321.373
321.205
321.033
320.871
320.748
312.463
312.536
312.633
312.736
312.838
312.933
313.017
313.085
313.133
313.158
313.158
313.133
313.085
313.017
312.933
312.838
312.736
312.633
312.536
312.463
304.178
304.202
304.235
304.269
304.303
304.335
304.363
304.386
304.402
304.411
304.411
304.402
304.386
304.363
304.335
304.303
304.269
304.235
304.202
304.178
364.454
364.826
365.28
365.752
366.212
366.642
367.02
367.326
367.542
367.654
367.654
367.542
367.326
367.02
366.642
366.212
365.752
365.28
364.826
364.454
355.859
356.174
356.566
356.974
357.374
357.746
358.074
358.339
358.527
358.624
358.624
358.527
358.339
358.074
357.746
357.374
356.974
356.566
356.174
355.859
347.267
347.528
347.858
348.204
348.542
348.857
349.134
349.359
349.517
349.6
349.6
349.517
349.359
349.134
348.857
348.542
348.204
347.858
347.528
347.267
338.677
338.886
339.156
339.438
339.715
339.973
340.2
340.384
340.514
340.581
340.581
340.514
340.384
340.2
339.973
339.715
339.438
339.156
338.886
338.677
330.088
330.249
330.458
330.678
330.893
331.094
331.27
331.413
331.514
331.567
331.567
331.514
331.413
331.27
331.094
330.893
330.678
330.458
330.249
330.088
321.501
321.615
321.764
321.921
322.075
322.218
322.344
322.447
322.519
322.556
322.556
322.519
322.447
322.344
322.218
322.075
321.921
321.764
321.615
321.501
312.915
312.983
313.072
313.166
313.259
313.345
313.421
313.482
313.525
313.548
313.548
313.525
313.482
313.421
313.345
313.259
313.166
313.072
312.983
312.915
304.329
304.352
304.382
304.413
304.444
304.473
304.499
304.519
304.534
304.541
304.541
304.534
304.519
304.499
304.473
304.444
304.413
304.382
304.352
304.329
366.909
367.252
367.669
368.1
368.518
368.906
369.247
369.521
369.714
369.814
369.814
369.714
369.521
369.247
368.906
368.518
368.1
367.669
367.252
366.909
357.983
358.273
358.634
359.006
359.369
359.706
360.001
360.239
360.406
360.493
360.493
360.406
360.239
360.001
359.706
359.369
359.006
358.634
358.273
357.983
349.061
349.302
349.605
349.921
350.228
350.513
350.763
350.964
351.106
351.179
351.179
351.106
350.964
350.763
350.513
350.228
349.921
349.605
349.302
349.061
340.143
340.336
340.584
340.842
341.093
341.327
341.531
341.696
341.812
341.872
341.872
341.812
341.696
341.531
341.327
341.093
340.842
340.584
340.336
340.143
331.228
331.376
331.568
331.769
331.964
332.146
332.305
332.433
332.523
332.57
332.57
332.523
332.433
332.305
332.146
331.964
331.769
331.568
331.376
331.228
322.314
322.419
322.556
322.7
322.84
322.969
323.083
323.175
323.239
323.272
323.272
323.239
323.175
323.083
322.969
322.84
322.7
322.556
322.419
322.314
313.403
313.466
313.548
313.634
313.718
313.796
313.864
313.919
313.958
313.978
313.978
313.958
313.919
313.864
313.796
313.718
313.634
313.548
313.466
313.403
304.493
304.514
304.541
304.57
304.598
304.624
304.647
304.666
304.679
304.685
304.685
304.679
304.666
304.647
304.624
304.598
304.57
304.541
304.514
304.493
369.541
369.856
370.239
370.631
371.011
371.361
371.667
371.912
372.084
372.173
372.173
372.084
371.912
371.667
371.361
371.011
370.631
370.239
369.856
369.541
360.258
360.525
360.855
361.195
361.524
361.828
362.093
362.306
362.455
362.533
362.533
362.455
362.306
362.093
361.828
361.524
361.195
360.855
360.525
360.258
350.982
351.203
351.482
351.769
352.048
352.305
352.53
352.71
352.836
352.901
352.901
352.836
352.71
352.53
352.305
352.048
351.769
351.482
351.203
350.982
341.712
341.89
342.117
342.352
342.58
342.791
342.974
343.122
343.225
343.279
343.279
343.225
343.122
342.974
342.791
342.58
342.352
342.117
341.89
341.712
332.446
332.583
332.759
332.942
333.119
333.283
333.426
333.541
333.621
333.663
333.663
333.621
333.541
333.426
333.283
333.119
332.942
332.759
332.583
332.446
323.184
323.281
323.406
323.537
323.664
323.781
323.883
323.965
324.023
324.053
324.053
324.023
323.965
323.883
323.781
323.664
323.537
323.406
323.281
323.184
313.925
313.983
314.058
314.136
314.213
314.283
314.344
314.394
314.428
314.446
314.446
314.428
314.394
314.344
314.283
314.213
314.136
314.058
313.983
313.925
304.668
304.687
304.712
304.738
304.764
304.788
304.808
304.825
304.836
304.842
304.842
304.836
304.825
304.808
304.788
304.764
304.738
304.712
304.687
304.668
372.322
372.612
372.962
373.319
373.663
373.979
374.254
374.473
374.627
374.706
374.706
374.627
374.473
374.254
373.979
373.663
373.319
372.962
372.612
372.322
362.658
362.903
363.205
363.515
363.814
364.088
364.326
364.516
364.65
364.718
364.718
364.65
364.516
364.326
364.088
363.814
363.515
363.205
362.903
362.658
353.005
353.208
353.463
353.725
353.978
354.21
354.412
354.573
354.686
354.744
354.744
354.686
354.573
354.412
354.21
353.978
353.725
353.463
353.208
353.005
343.361
343.525
343.732
343.947
344.154
344.344
344.509
344.641
344.734
344.781
344.781
344.734
344.641
344.509
344.344
344.154
343.947
343.732
343.525
343.361
333.725
333.851
334.012
334.179
334.34
334.488
334.617
334.72
334.792
334.829
334.829
334.792
334.72
334.617
334.488
334.34
334.179
334.012
333.851
333.725
324.096
324.185
324.3
324.42
324.535
324.641
324.732
324.806
324.857
324.884
324.884
324.857
324.806
324.732
324.641
324.535
324.42
324.3
324.185
324.096
314.472
314.525
314.594
314.666
314.735
314.799
314.854
314.898
314.929
314.945
314.945
314.929
314.898
314.854
314.799
314.735
314.666
314.594
314.525
314.472
304.851
304.869
304.892
304.916
304.939
304.96
304.979
304.994
305.004
305.009
305.009
305.004
304.994
304.979
304.96
304.939
304.916
304.892
304.869
304.851
375.179
375.446
375.767
376.093
376.406
376.691
376.938
377.135
377.273
377.344
377.344
377.273
377.135
376.938
376.691
376.406
376.093
375.767
375.446
375.179
365.113
365.338
365.615
365.898
366.169
366.417
366.632
366.803
366.922
366.984
366.984
366.922
366.803
366.632
366.417
366.169
365.898
365.615
365.338
365.113
355.065
355.252
355.486
355.726
355.955
356.166
356.347
356.492
356.594
356.646
356.646
356.594
356.492
356.347
356.166
355.955
355.726
355.486
355.252
355.065
345.036
345.186
345.377
345.573
345.761
345.933
346.082
346.201
346.284
346.326
346.326
346.284
346.201
346.082
345.933
345.761
345.573
345.377
345.186
345.036
335.021
335.136
335.284
335.437
335.583
335.717
335.833
335.926
335.991
336.024
336.024
335.991
335.926
335.833
335.717
335.583
335.437
335.284
335.136
335.021
325.018
325.1
325.205
325.314
325.419
325.515
325.598
325.664
325.71
325.734
325.734
325.71
325.664
325.598
325.515
325.419
325.314
325.205
325.1
325.018
315.024
315.073
315.136
315.202
315.265
315.322
315.372
315.412
315.44
315.454
315.454
315.44
315.412
315.372
315.322
315.265
315.202
315.136
315.073
315.024
305.036
305.052
305.073
305.095
305.116
305.136
305.152
305.166
305.175
305.18
305.18
305.175
305.166
305.152
305.136
305.116
305.095
305.073
305.052
305.036
377.931
378.178
378.474
378.773
379.059
379.319
379.544
379.722
379.846
379.91
379.91
379.846
379.722
379.544
379.319
379.059
378.773
378.474
378.178
377.931
367.448
367.656
367.912
368.172
368.421
368.647
368.842
368.997
369.105
369.161
369.161
369.105
368.997
368.842
368.647
368.421
368.172
367.912
367.656
367.448
357.004
357.178
357.393
357.614
357.825
358.017
358.182
358.314
358.406
358.453
358.453
358.406
358.314
358.182
358.017
357.825
357.614
357.393
357.178
357.004
346.597
346.736
346.913
347.093
347.266
347.424
347.559
347.667
347.743
347.781
347.781
347.743
347.667
347.559
347.424
347.266
347.093
346.913
346.736
346.597
336.219
336.326
336.463
336.604
336.739
336.862
336.967
337.052
337.11
337.14
337.14
337.11
337.052
336.967
336.862
336.739
336.604
336.463
336.326
336.219
325.866
325.942
326.04
326.14
326.237
326.324
326.4
326.46
326.502
326.524
326.524
326.502
326.46
326.4
326.324
326.237
326.14
326.04
325.942
325.866
315.53
315.575
315.634
315.694
315.752
315.805
315.851
315.887
315.912
315.925
315.925
315.912
315.887
315.851
315.805
315.752
315.694
315.634
315.575
315.53
305.205
305.22
305.239
305.26
305.279
305.297
305.312
305.324
305.333
305.337
305.337
305.333
305.324
305.312
305.297
305.279
305.26
305.239
305.22
305.205
380.092
380.324
380.602
380.883
381.15
381.393
381.602
381.768
381.883
381.942
381.942
381.883
381.768
381.602
381.393
381.15
380.883
380.602
380.324
380.092
369.211
369.408
369.649
369.894
370.128
370.339
370.521
370.666
370.767
370.818
370.818
370.767
370.666
370.521
370.339
370.128
369.894
369.649
369.408
369.211
358.423
358.587
358.792
359
359.198
359.378
359.533
359.656
359.742
359.786
359.786
359.742
359.656
359.533
359.378
359.198
359
358.792
358.587
358.423
347.711
347.843
348.011
348.181
348.344
348.492
348.62
348.721
348.791
348.827
348.827
348.791
348.721
348.62
348.492
348.344
348.181
348.011
347.843
347.711
337.059
337.161
337.29
337.424
337.551
337.666
337.766
337.845
337.9
337.928
337.928
337.9
337.845
337.766
337.666
337.551
337.424
337.29
337.161
337.059
326.452
326.524
326.617
326.712
326.803
326.886
326.957
327.014
327.053
327.073
327.073
327.053
327.014
326.957
326.886
326.803
326.712
326.617
326.524
326.452
315.876
315.919
315.975
316.032
316.087
316.137
316.18
316.214
316.238
316.25
316.25
316.238
316.214
316.18
316.137
316.087
316.032
315.975
315.919
315.876
305.32
305.334
305.353
305.372
305.391
305.407
305.422
305.433
305.441
305.445
305.445
305.441
305.433
305.422
305.407
305.391
305.372
305.353
305.334
305.32
)
;

boundaryField
{
    hotSide
    {
        type            fixedGradient;
        gradient        nonuniform List<scalar> 
400
(
520.871
522.621
526.129
531.41
538.482
547.373
558.112
570.731
585.264
601.743
620.2
640.667
663.172
687.738
714.388
743.141
774.013
807.016
842.16
879.453
529.996
531.674
535.041
540.114
546.922
555.499
565.884
578.118
592.245
608.306
626.343
646.391
668.486
692.657
718.928
747.322
777.855
810.542
845.392
882.413
539.872
541.464
544.661
549.489
555.984
564.192
574.162
585.95
599.609
615.192
632.75
652.328
673.966
697.699
723.555
751.558
781.727
814.076
848.614
885.349
550.334
551.825
554.826
559.37
565.504
573.288
582.786
594.067
607.2
622.251
639.281
658.343
679.485
702.747
728.161
755.751
785.538
817.536
851.752
888.194
561.09
562.469
565.249
569.474
575.207
582.52
591.499
602.227
614.79
629.269
645.735
664.253
684.876
707.649
732.607
759.777
789.177
820.822
854.718
890.87
571.692
572.95
575.494
579.381
584.687
591.505
599.938
610.092
622.067
635.959
651.853
669.823
689.928
712.217
736.728
763.488
792.515
823.822
857.413
893.291
581.533
582.67
584.979
588.529
593.413
599.744
607.644
617.238
628.646
641.977
657.328
674.781
694.401
716.242
740.341
766.726
795.414
826.416
859.734
895.368
589.886
590.913
593.011
596.258
600.764
606.661
614.089
623.191
634.102
646.946
661.828
678.837
698.045
719.506
743.259
769.331
797.737
828.487
861.581
897.015
595.998
596.942
598.878
601.894
606.113
611.68
618.751
627.483
638.023
650.504
665.039
681.722
700.628
721.812
745.314
771.159
799.364
829.933
862.867
898.159
599.237
600.136
601.983
604.873
608.936
614.325
621.204
629.737
640.077
652.364
666.713
683.223
701.969
723.006
746.376
772.103
800.201
830.677
863.527
898.745
599.237
600.136
601.983
604.873
608.936
614.325
621.204
629.737
640.077
652.364
666.713
683.223
701.969
723.006
746.376
772.103
800.201
830.677
863.527
898.745
595.998
596.942
598.878
601.894
606.113
611.68
618.751
627.483
638.023
650.504
665.039
681.722
700.628
721.812
745.314
771.159
799.364
829.933
862.867
898.159
589.886
590.913
593.011
596.258
600.764
606.661
614.089
623.191
634.102
646.946
661.828
678.837
698.045
719.506
743.259
769.331
797.737
828.487
861.581
897.015
581.533
582.67
584.979
588.529
593.413
599.744
607.644
617.238
628.646
641.977
657.328
674.781
694.401
716.242
740.341
766.726
795.414
826.416
859.734
895.368
571.692
572.95
575.494
579.381
584.687
591.505
599.938
610.092
622.067
635.959
651.853
669.823
689.928
712.217
736.728
763.488
792.515
823.822
857.413
893.291
561.09
562.469
565.249
569.474
575.207
582.52
591.499
602.227
614.79
629.269
645.735
664.253
684.876
707.649
732.607
759.777
789.177
820.822
854.718
890.87
550.334
551.825
554.826
559.37
565.504
573.288
582.786
594.067
607.2
622.251
639.281
658.343
679.485
702.747
728.161
755.751
785.538
817.536
851.752
888.194
539.872
541.464
544.661
549.489
555.984
564.192
574.162
585.95
599.609
615.192
632.75
652.328
673.966
697.699
723.555
751.558
781.727
814.076
848.614
885.349
529.996
531.674
535.041
540.114
546.922
555.499
565.884
578.118
592.245
608.306
626.343
646.391
668.486
692.657
718.928
747.322
777.855
810.542
845.392
882.413
520.871
522.621
526.129
531.41
538.482
547.373
558.112
570.731
585.264
601.743
620.2
640.667
663.172
687.738
714.388
743.141
774.013
807.016
842.16
879.453
)
;
    }
    coldSide
    {
        type            mixed;
        refValue        uniform 300;
        refGradient     uniform 0;
        valueFraction   uniform 0.991591;
        source          uniform 0;
        value           nonuniform List<scalar> 
400
(
300.028
300.028
300.028
300.028
300.029
300.029
300.03
300.03
300.031
300.032
300.033
300.034
300.035
300.036
300.038
300.039
300.041
300.042
300.044
300.045
300.028
300.028
300.028
300.029
300.029
300.029
300.03
300.031
300.031
300.032
300.033
300.034
300.035