/*--------------------------------*- C++ -*----------------------------------*\
| =========                 |                                                 |
| \\      /  F ield         | OpenFOAM: The Open Source CFD Toolbox           |
|  \\    /   O peration     | Version:  2212                                  |
|   \\  /    A nd           | Website:  www.openfoam.com                      |
|    \\/     M anipulation  |                                                 |
\*---------------------------------------------------------------------------*/
FoamFile
{
    version     2.0;
    format      ascii;
    arch        "LSB;label=32;scalar=64";
    class       volScalarField;
    location    "0";
    object      stateMean;
}
// * * * * * * * * * * * * * * * * * * * * * * * * * * * * * * * * * * * * * //

dimensions      [0 0 0 1 0 0 0];

internalField   nonuniform List<scalar> 
3200
(
322.694
323.082
321.917
322.635
322.407
323.602
324.338
324.357
323.579
325.187
324.92
325.036
324.174
324.871
323.333
322.943
321.773
323.641
323.088
320.187
322.505
319.281
318.911
320.89
319.263
319.212
320.888
323.029
320.133
320.957
320.378
319.94
321.005
321.052
320.058
320.341
319.413
320.09
319.161
319.759
317.736
317.393
317.044
317.11
316.048
317.263
317.885
317.968
318.024
319.369
317.931
316.961
318.053
317.854
317.874
316.6
316.383
315.67
317.903
318.199
313.982
314.561
314.966
314.919
314.388
313.768
314.262
315.414
313.309
314.444
313.521
314.584
315.556
313.729
313.986
313.644
315.102
312.491
313.226
314.662
309.365
312.158
310.592
310.341
309.806
312.621
311.594
312.483
311.647
312.285
312.654
312.407
311.413
312.524
311.165
311.131
310.764
310.909
310.776
310.18
308.158
307.699
307.725
308.413
308.503
308.729
308.632
307.225
308.742
307.098
308.43
308.446
308.42
309.5
308.151
308.09
308.344
308.07
307.309
306.677
305.19
305.928
303.514
304.617
303.89
303.579
305.186
305.644
305.42
304.844
305.216
305.416
304.302
304.918
305.141
304.268
304.581
304.667
304.001
305.124
302.255
301.988
302.508
301.864
302.633
300.657
301.208
301.268
300.949
301.188
300.358
301.867
301.736
301.448
301.743
301.917
300.956
302.165
301.86
302.715
324.494
324.076
321.939
324.16
322.634
321.726
322.942
324.728
325.163
325.269
325.568
323.49
324.508
322.831
323.821
323.186
323.825
322.828
321.657
324.4
320.673
320.078
320.37
320.871
320.438
322.193
320.203
322.511
321.798
323.085
322.961
322.312
322.857
319.296
322.174
320.618
320.653
320.353
320.107
320.338
318.472
317.558
317.482
316.017
314.787
316.302
317.511
319.147
317.35
319.083
317.948
318.649
318.041
317.438
317.634
316.939
316.95
317.168
315.829
317.91
313.131
312.859
313.524
313.866
313.471
313.698
313.63
315.574
314.867
314.974
314.698
315.217
314.468
315.318
313.143
314.363
313.257
314.097
312.215
315.501
311.917
310.597
311.297
311.596
309.615
310.371
312.077
311.303
311.702
311.98
311.114
311.719
311.311
312.161
310.527
311.623
310.501
311.624
310.766
310.859
308.471
308.814
306.363
308.752
307.103
308.066
307.795
308.92
307.536
308.117
308.95
309.667
308.598
307.76
307.65
307.979
308.493
308.583
308.639
307.659
304.634
305.408
304.575
304.748
305.027
305.266
305.068
304.827
305.065
305.256
302.767
305.047
305.479
304.39
304.654
305.077
304.228
304.876
304.787
304.283
302.582
300.473
301.392
302.837
302.001
301.992
300.913
302.002
302.054
302.015
301.693
301.835
301.227
301.084
301.63
301.467
300.757
303.978
301.725
301.436
324.012
323.218
321.003
322.443
323.761
323.018
325.537
325.721
325.289
325.331
325.706
325.873
323.764
324.196
322.997
323.615
322.514
322.735
322.66
322.196
321.974
320.684
320.63
321.061
320.97
321.257
322.127
322.571
322.66
320.673
320.352
321.276
323.27
321.927
320.311
320.177
321.78
319.063
321.206
320.901
315.988
318.035
316.08
315.818
317.551
317.753
318.481
318.992
318.808
319.26
319.305
318.65
317.818
317.909
317.276
317.008
315.755
316.98
316.646
318.045
314.559
314.785
313.55
313.252
314.013
312.917
314.69
314.258
315.639
314.541
315.401
315.062
315.851
314.256
314.279
314.114
314.258
312.784
313.412
314.182
311.507
311.635
310.237
311.994
311.796
311.077
311.938
313.718
310.847
313.061
311.22
311.386
310.86
312.342
310.407
311.116
310.688
310.078
310.439
311.649
307.897
307.979
307.364
308.492
308.678
308.539
307.749
308.658
309.313
308.415
308.777
308.678
308.485
309.243
308.32
307.724
308.375
307.72
305.627
308.1
305.326
305.456
305.871
304.851
304.335
305.586
304.985
306.035
304.598
305.175
306.053
306.523
305.642
304.928
305.758
303.863
304.171
305.076
304.459
303.772
301.507
302.894
300.743
302.242
301.778
303.089
300.905
302.572
301.096
301.903
301.698
300.407
302.256
300.347
301.349
301.98
302.412
301.472
301.296
301.259
325.802
324.956
323.523
322.724
323.636
325.332
324.396
325.33
324.983
326.915
325.135
325.203
323.881
325.401
323.861
324.3
323.329
322.982
323.885
322.324
321.244
320.741
320.524
321.34
320.687
321.809
321.55
322.381
321.908
323.145
323
322.124
322.886
322.275
322.358
319.189
321.094
319.476
320.375
321.278
318.927
317.178
317.275
317.516
317.123
316.682
318.881
318.074
319.244
319.596
319.031
318.692
318.247
318.784
318.86
318.806
316.514
317.335
317.359
317.166
315.103
314.028
313.24
313.053
314.337
315.2
313.76
314.932
314.632
314.689
314.791
315.432
316.048
314.544
315.466
313.196
314.579
314.165
314.474
315.737
310.899
312.39
310.287
310.838
309.842
312.644
311.445
311.923
311.934
311.722
311.726
311.605
311.712
311.318
313.23
311.683
313.606
310.42
311.888
310.669
306.589
308.848
308.374
307.905
308.448
308.143
308.856
308.798
309.255
309.089
307.451
309.067
309.392
307.427
309.316
309.887
308.315
309.032
309.004
307.282
304.619
305.979
302.957
304.78
302.949
305.078
304.077
305.296
305.448
304.993
305.336
305.245
305.307
305.472
305.606
305.27
304.705
304.984
304.658
305.31
301.093
301.824
300.229
302.129
301.403
302.448
301.863
303.651
301.833
302.994
302.109
301.073
302.944
301.86
301.764
301.821
301.772
301.748
301.748
301.313
323.555
323.865
323.295
322.495
323.936
324.261
324.434
324.293
326.165
325.786
326.109
326.427
326.161
326.775
325.98
324.647
323.897
323.296
322.055
324.391
321.586
319.941
321.019
320.878
321.16
322.563
321.899
321.373
323.46
323.186
322.985
325.041
322.102
321.788
321.531
320.549
320.875
319.357
321.446
321.942
317.282
318.148
318.908
317.036
317.469
318.788
318.713
318.353
319.418
319.904
320.098
318.296
319.52
318.628
318.079
318.284
317.801
316.371
316.882
316.245
314.451
315.449
314.795
314.182
316.774
314.656
316.059
316.514
315.15
316.173
315.364
315.619
315.453
314.795
315.485
314.254
313.997
314.785
314.725
314.341
311.098
311.89
311.207
312.097
311.487
311.993
311.359
312.465
311.39
313.138
311.713
312.987
310.739
312.901
311.245
313.797
309.634
309.62
311.101
311.742
307.667
308.563
307.112
307.9
308.732
310.172
309.216
308.785
309.253
308.782
308.045
309.839
308.623
308.565
307.84
308.458
308.289
307.57
308.429
308.633
304.834
304.057
304.866
304.921
304.971
304.794
304.546
304.69
305.475
305.355
303.991
305.27
304.129
304.201
306.096
306.84
305.015
305.499
304.347
303.894
301.357
301.465
301.79
302.177
300.506
300.837
301.545
300.836
301.928
300.793
301.519
302.49
302.427
301.392
302.038
301.083
302.315
302.488
301.202
302.843
325.496
325.155
323.919
323.3
324.823
326.103
326.295
325.896
325.612
326.738
328.755
326.797
325.959
325.377
325.652
324.313
323.998
324.585
325.022
325.798
322.023
320.509
320.822
321.675
322.248
322.564
322.562
323.14
323.352
323.648
323.224
323.725
323.312
323.151
322.382
322.08
321.599
321.914
320.77
321.46
317.917
318.934
318.526
316.433
319.025
318.127
318.607
319.001
318.707
320.817
321.961
320.465
319.563
319.653
319.166
318.189
318.371
318.507
317.965
318.131
315.339
314.409
314.208
314.669
315.895
316.158
314.337
315.814
316.518
315.439
317.277
315.738
315.794
315.992
315.028
314.707
316.377
314.723
314.004
314.631
311.655
311.959
312.35
310.619
311.319
312.627
312.064
312.32
314.111
312.299
312.396
314.492
313.436
311.552
312.569
311.18
311.782
310.833
311.098
313.27
308.898
308.61
308.238
308.336
307.792
307.461
309.622
307.862
309.443
309.68
309.678
309.696
308.396
308.188
308.325
308.918
307.971
308.467
306.946
307.777
304.457
304.53
303.689
305.21
303.838
305.324
305.9
305.112
305.443
305.544
305.232
306.09
304.355
306.347
306.331
305.296
304.239
305.293
306.394
304.788
301.574
301.902
300.605
301.216
301.399
302.601
301.032
302.73
302.574
303.269
303.07
302.047
301.154
301.439
301.429
301.825
302.53
302.164
301.408
302.225
325.077
325.024
325.08
325.52
325.798
325.259
326.008
327.141
325.378
328.269
327.511
327.734
327.146
327.678
325.286
325.916
326.675
324.344
325.173
325.38
321.208
322.839
320.873
322.127
323.003
322.831
322.461
323.143
324.748
323.445
323.352
324.522
324.199
322.494
322.888
321.436
322.551
321.647
320.955
320.718
317.582
318.428
318.518
318.331
318.49
318.995
320.321
320.587
321.161
320.747
321.183
321.081
319.598
318.694
318.833
319.344
317.169
318.315
318.608
318.807
315.962
315.606
313.506
315.322
315.093
317.046
316.283
317.12
315.46
316.041
317.306
315.842
315.986
314.988
315.295
315.072
315.845
315.949
314.893
314.748
313.833
310.999
312.604
311.627
311.603
313.476
311.434
313.08
312.146
312.781
313.228
313.147
314.511
313.167
312.094
313.701
312.53
311.951
313.351
311.098
308.787
307.746
308.585
308.118
308.739
308.192
309.434
310.067
308.466
309.053
308.902
309.721
309.903
309.181
309.773
308.476
307.921
310.335
309.52
308.403
306.063
305.638
306.158
305.894
305.438
305.856
306.751
304.308
305.738
306.634
305.234
306.02
305.6
306.24
304.915
304.221
305.241
304.704
305.142
306.646
301.842
301.144
301.538
302.705
302.257
303.712
302.056
301.394
302.935
301.783
302.368
301.222
303.103
302.672
303.465
302.66
302.751
302.562
301.054
301.525
326.862
324.897
325.057
324.459
325.156
326.692
327.541
327.967
329.307
328.245
329.199
328.876
327.215
327.782
327.103
325.414
324.211
325.678
324.981
326.335
322.676
321.103
320.948
322.423
322.29
323.164
322.71
323.731
324.862
323.546
324.149
324.887
323.75
323.323
323.406
323.363
322.414
321.688
322.006
324.14
320.582
317.678
319.181
320
320.056
320.447
320.164
319.309
320.893
320.524
320.022
320.226
320.328
320.786
319.665
318.685
319.266
318.462
317.948
316.677
314.197
316.863
314.499
317.016
316.06
314.986
316.967
316.482
316.688
318.168
317.107
317.822
315.959
317.929
317.179
315.357
315.246
314.704
316.621
315.233
313.071
311.845
311.742
312.617
311.886
312.452
312.983
313.624
313.323
312.76
313.452
313.073
312.556
312.665
311.964
311.393
312.286
311.546
313.537
311.696
308.48
308.325
308.257
308.076
308.059
308.542
309.434
310.375
308.595
310.305
309.158
309.535
308.845
309.712
309.678
309.222
309.258
309.175
309.355
309.097
306.341
305.435
303.932
306.249
305.154
304.597
306.729
305.717
305.682
306.22
305.63
304.38
305.826
305.331
304.138
305.312
306.905
304.191
305.354
306.414
302.143
301.165
303.059
302.254
302.607
301.775
301.307
301.662
299.456
303.369
301.607
301.7
302.011
301.333
300.321
302.281
300.991
300.617
302.14
301.824
326.7
325.984
326.64
326.022
327.845
326.89
328.15
327.897
328.239
329.929
328.756
329.159
328.02
327.067
328.531
326.999
326.466
325.955
324.561
325.658
322.883
324.519
322.824
323.104
322.928
324.317
324.108
326.079
325.086
324.891
324.914
324.604
324.238
324.599
324.159
324.241
322.93
322.612
322.406
322.808
319.754
319.514
320.809
319.445
318.182
318.877
319.163
320.343
320.904
321.119
323.182
321.835
321.034
321.411
320.363
318.94
319.908
320.472
319.002
319.078
316.657
317.149
314.637
316.182
315.379
317.523
316.581
316.966
317.239
318.258
318.985
317.351
315.89
316.076
316.639
316.631
316.282
315.362
317.222
316.558
313.294
312.652
314.324
312.262
312.226
312.314
312.162
313.797
313.089
313.151
313.736
313.429
312.815
312.993
312.82
312.466
311.99
312.898
313.698
312.163
307.846
307.594
308.43
309.34
309.572
310.019
310.593
309.498
308.947
309.461
309.14
310.878
310.677
309.526
308.566
308.425
308.035
309.805
308.131
307.843
306.607
305.048
305.248
304.838
306.637
306.548
306.283
306.126
305.145
305.016
304.574
305.901
305.773
306.237
305.161
306.074
305.251
304.318
303.655
305.422
302.618
302.97
301.343
300.397
301.392
303.359
301.668
302.215
303.64
301.071
301.549
301.668
301.811
301.419
302.654
300.074
300.456
302.225
300.887
302.005
327.371
326.681
328.202
326.728
325.706
327.908
327.888
328.631
330.28
329.786
330.533
329.813
329.093
329.4
328.244
328.54
326.459
327.676
326.871
326.556
324.602
322.91
324.169
323.49
323.711
323.614
324.454
323.91
324.114
324.509
324.389
325.412
324.573
324.203
323.855
325.623
323.235
323.537
322.938
323.984
320.642
320.74
320.417
319.546
319.99
320.579
321.668
321.696
322.401
322.676
322.072
321.028
322.278
322.022
319.882
320.675
318.636
320.069
320.426
319.779
317.752
317.133
317.147
316.055
317.272
317.956
317.96
317.872
317.919
317.065
317.493
318.424
318.44
318.174
315.726
315.388
315.972
316.733
315.393
318.633
313.279
314.458
312.799
312.306
312.69
313.462
314.104
315.55
313.164
315.173
313.862
314.131
313.487
313.841
314.457
313.622
312.837
313.382
311.966
312.205
309.416
309.054
309.767
308.373
309.578
308.751
309.279
309.2
308.71
310.369
311.169
310.895
310.555
309.364
309.461
309.089
308.648
308.342
308.187
309.616
305.379
304.073
306.619
305.023
305.138
304.763
306.638
306.731
305.959
306.447
306.066
304.153
306.311
306.373
306.194
306.179
305.898
305.987
304.017
304.985
302.196
302.86
301.587
301.762
301.889
301.413
301.716
302.856
303.47
302.073
301.581
302.663
303.407
302.187
302.579
302.112
301.069
301.457
302.39
302.729
327.981
328.73
330.321
328.721
326.9
329.477
329.033
329.732
329.479
330.469
330.832
330.303
329.667
329.317
328.984
329.272
328.69
326.835
327.646
327.947
325.433
322.868
324.792
323.955
324.079
324.648
325.559
325.147
325.57
325.065
325.061
326.615
324.868
325.834
324.44
325.905
323.626
323.392
323.336
324.383
319.735
320.5
321.588
320.978
321.774
321.175
323.543
322.241
321.881
323.789
322.99
322.126
323.601
322.999
321.488
320.656
321.842
320.746
321.079
320.734
317.838
317.302
316.491
316.377
317.176
315.755
317.062
318.829
316.945
317.61
317.904
316.555
318.076
319.681
318.405
317.961
317.268
318.956
317.287
316.113
314.082
311.702
313.477
312.275
313.341
313.472
312.564
313.626
315.217
314.797
314.105
314.585
315.006
313.933
314.186
312.199
313.593
312.924
312.539
314.082
310.07
311.717
309.677
309.194
308.286
309.978
309.978
309.747
310.016
310.478
310.961
310.602
309.851
309.514
309.367
307.538
309.659
308.778
309.852
310.015
306.334
304.797
306.417
306.275
305.993
305.787
306.475
307.919
305.022
305.493
305.368
304.244
305.406
305.749
306.885
304.773
304.163
304.865
305.387
304.985
302.909
303.131
302.305
300.959
301.884
302.695
301.756
302
302.128
302.677
303.127
301.54
302.419
301.479
303.69
301.412
301.781
301.809
301.916
300.736
329.603
329.427
329.382
328.836
327.973
329.618
329.729
331.095
330.639
331.477
331.546
331.256
331.244
329.118
327.791
330.615
328.351
328.197
330.473
328.736
325.516
324.994
325.14
326.522
326.722
324.787
325.343
324.509
326.353
326.492
326.92
326.896
326.869
325.334
324.906
325.135
323.727
324.949
324.686
324.346
321.909
322.119
320.478
320.399
322.074
320.9
320.489
323.269
321.761
322.162
324.082
323.018
323.232
322.944
320.607
320.978
321.379
322.422
320.988
322.202
316.654
317.753
316.655
317.7
316.206
318.196
318.395
317.675
317.454
319.516
318.916
319.196
318.111
316.751
318.199
317.5
316.514
317.192
317.769
317.257
313.897
313.402
314.249
313.435
313.679
313.127
313.281
314.212
313.502
315.029
315.602
314.16
313.737
315.118
313.337
313.336
312.348
313.539
314.368
313.595
309.483
310.747
310.198
309.951
308.986
309.316
310.706
310.85
311.054
310.052
310.643
311.006
309.21
309.875
310.571
309.397
310.331
309.417
310.041
310.829
307.813
305.881
304.172
305.31
305.145
306.031
306.718
305.76
305.342
306.323
305.673
305
306.491
305.869
306.603
305.429
305.512
306.203
306.441
306.868
301.848
302.291
301.757
301.38
300.697
302.621
302.19
302.253
302.471
302.731
302.329
303.032
301.565
302.286
301.737
302.653
302.838
301.128
301.427
302.209
331.179
330.537
328.306
330.177
329.762
329.04
330.604
329.942
330.224
331.05
331.252
332.417
332.063
329.471
330.664
329.528
328.999
329.449
328.768
330.741
326.071
324.514
326.082
324.809
323.378
325.927
326.096
325.771
326.398
326.085
326.332
328.669
326.056
325.259
325.503
325.725
325.33
326.205
325.25
325.171
323.263
322.735
320.561
320.616
322.593
321.863
321.78
323.083
323.365
322.017
323.953
324.041
323.394
322.179
322.826
321.534
321.664
321.63
322.735
321.804
317.266
318.674
318.233
318.351
317.815
318.153
318.32
317.326
319.395
318.743
320.596
319.901
319.968
318.327
318.983
317.518
316.646
317.133
317.951
317.738
315.521
313.586
312.595
313.525
313.727
314.726
314.668
315.854
314.497
314.599
315.571
315.88
314.706
315.883
314.907
314.541
313.257
313.779
314.922
314.029
309.978
310.992
308.652
309.837
310.63
309.937
309.74
310.221
310.49
310.537
310.256
311.065
311.182
310.301
311.301
309.036
311.256
309.954
310.831
308.746
306.403
305.478
305.681
305.963
307.565
306.211
306.533
306.246
306.742
305.086
307.148
306.913
306.466
306.142
305.688
306.051
305.295
306.655
305.056
305.854
301.744
304.173
302.666
303.82
302.449
302.422
302.055
302.87
302.979
304.082
302.299
301.016
301.953
302.347
302.793
300.857
301.943
302.804
302.172
302.296
330.793
330.089
330.196
329.573
331.251
330.273
331.941
330.78
333.443
331.866
331.716
332.346
330.894
330.671
330.732
329.279
327.58
329.596
330.495
331.382
326.781
325.234
326.546
325.69
325.852
327.786
327.894
327.538
327.469
328.411
326.46
329.119
327.559
326.815
327.76
326.358
326.925
325.349
324.688
325.684
321.943
322.086
321.665
322.226
322.271
322.492
322.477
323.592
323.873
322.914
324.665
323.902
322.147
323.896
322.369
322.802
321.412
322.493
322.208
320.817
318.121
318.001
318.718
319.104
318.691
316.922
318.761
319.303
317.552
319.539
318.703
319.16
320.363
318.09
319.865
318.259
318.302
317.75
318.796
317.901
315.168
315.506
313.497
314.901
315.669
315.02
314.671
315.121
315.091
315.182
314.198
315.537
315.274
314.108
314.699
313.836
313.715
314.813
315.086
315.227
310.364
311.413
309.894
310.282
309.946
311.75
310.458
310.737
311.689
310.088
310.273
310.08
310.661
309.786
310.48
310.128
309.473
309.75
310.584
310.725
306.154
306.375
306.686
305.726
306.234
305.625
304.906
305.683
307.331
307.051
306.899
306.366
308.434
307.114
306.28
306.171
307.279
305.867
306.858
305.37
301.745
303.196
300.426
301.099
301.304
302.365
301.771
303.059
302.427
301.975
302.232
302.08
301.942
302.269
302.256
302.567
302.617
301.769
302.351
301.878
331.637
331.142
331.063
331.827
330.259
332.451
332.452
333.189
332.465
332.599
333.08
332.715
332.653
331.279
331.959
331.748
329.901
331.748
330.033
329.904
329.637
326.438
326.702
326.938
326.67
327.524
327.046
327.29
329.527
327.76
327.883
329.497
326.877
328.128
327.511
328.751
326.949
326.559
326.93
326.178
323.077
323.093
323.879
322.234
323.588
323.306
323.454
324.337
323.543
323.99
323.336
323.23
324.542
323.677
324.338
322.501
322.208
322.902
321.985
322.967
319.94
318.744
319.292
318.77
318.465
318.493
317.95
320.686
319.33
319.246
319.933
318.723
319.852
319.543
320.66
319.424
318.244
318.572
319.788
319.175
314.744
315.312
315.298
314.08
314.952
314.566
314.77
315.237
314.562
315.8
315.998
314.798
315.614
315.795
313.974
314.715
314.52
314.485
314.819
314.825
311.255
310.595
310.077
310.424
311.549
310.224
311.205
310.528
310.822
312.055
310.443
312.095
311.714
310.78
311.233
311.373
309.973
309.713
310.211
309.674
306.015
307.352
305.291
306.527
305.799
306.809
307.248
305.845
307.102
306.84
306.332
307.713
306.429
306.096
306.537
306.256
306.412
306.126
306.793
306.871
302.818
302.574
300.583
302.738
302.455
301.365
302.514
301.735
301.541
302.975
301.78
302.327
302.249
301.615
302.175
301.777
302.754
301.596
301.564
302.195
332.699
331.484
332.722
331.362
331.22
332.049
332.692
331.588
332.209
334.661
332.108
333.384
333.372
332.297
331.015
331.726
331.726
331.544
330.97
332.351
326.913
327.698
328.278
328.019
328.576
328.622
326.282
327.789
328.963
328.904
328.647
329.843
328.513
327.37
326.624
326.671
326.477
327.432
328.351
328.602
323.218
324.33
323.856
323.107
323.363
323.649
323.168
324.992
323.389
325.388
323.877
324.362
324.358
322.249
324.229
323.173
324.182
322.809
323.073
323.05
320.489
318.916
320.426
320.157
319.304
320.436
318.6
321.024
319.195
320.145
321.392
319.675
319.884
319.976
319.027
319.394
318.785
319.393
319.636
319.891
315.446
315.21
314.724
315.837
314.663
316.768
315.05
315.543
314.615
314.662
313.628
316.131
316.83
314.722
315.871
315.108
315.797
315.724
314.668
315.492
310.858
309.726
310.775
311.937
310.654
310.33
310.928
311.162
310.211
310.084
311.152
312.96
311.026
311.292
311.034
310.694
311.464
310.972
310.004
310.722
305.531
306.871
308.783
307.64
305.632
307.219
305.093
305.586
307.462
306.091
306.798
305.794
307.384
307.437
306.358
307.281
306.643
307.592
305.876
305.521
302.766
302.168
302.638
303.009
301.814
302.523
301.943
302.486
300.715
301.582
302.199
302.618
301.671
302.299
301.762
302.464
301.196
301.946
302.161
301.5
332.82
333.52
332.692
331.852
332.45
332.764
333.999
333.03
332.349
333.537
336.224
333.842
332.18
332.979
332.479
330.857
332.577
331.701
330.513
332.552
327.409
328.815
328.964
328.708
328.315
328.931
329.304
328.923
330.337
329.067
329.655
329.517
329.514
327.963
328.859
327.608
328.554
326.22
328.292
327.284
326.03
324.145
325.55
323.996
323.532
323.49
323.407
323.74
324.513
323.858
324.799
323.321
324.589
323.144
323.991
324.289
323.351
324.238
324.601
323.547
320.145
320.535
320.477
319.67
318.49
318.868
319.234
319.958
319.858
319.346
320.137
320.04
320.32
319.137
320.039
319.8
320.631
317.919
320.297
318.094
315.045
315.334
313.48
314.748
313.651
315.081
315.74
315.179
316.592
316.43
316.367
316.055
315.764
315.137
314.305
315.551
314.661
314.992
314.492
315.718
311.312
311.347
310.997
310.27
310.035
311.794
311.409
309.813
311.437
311.301
311.558
310.609
310.894
311.7
311.989
310.427
311.598
311.058
310.62
311.448
306.901
306.343
306.025
308.36
306.687
306.644
305.848
306.603
306.592
307.543
308.1
306.216
306.353
305.748
306.25
307.067
306.81
305.827
306.915
307.115
303.056
302.868
302.77
303.188
300.273
302.634
301.451
301.857
300.686
304.074
301.847
302.838
300.899
301.825
303.379
302.148
302.691
301.649
301.712
301.904
333.297
333.87
333.23
333.516
333.292
333.856
334.039
333.097
334.348
333.611
334.01
333.513
331.671
333.36
332.697
332.64
331.402
332.96
331.405
332.272
329.499
328.962
330.204
328.863
329.395
329.224
328.455
327.904
329.842
328.966
330.467
329.095
329.582
329.032
329.476
328.559
328.966
328.24
328.419
328.46
326.073
326.126
324.043
324.446
325.156
326.164
325.181
324.796
324.334
325.827
325.052
326.311
325.526
325.459
324.802
323.604
324.799
324.33
324.616
323.811
321.188
320.926
320.657
320.315
319.457
320.168
319.132
320.937
319.982
320.18
320.932
319.83
320.598
320.528
319.826
320.389
320.631
318.733
319.848
319.332
317.055
314.804
316.223
314.517
317.805
316.315
315.979
316.328
315.623
316.947
316.098
316.606
317.223
317.965
316.602
316.059
316.012
315.034
314.697
316.175
312.614
310.745
309.842
310.95
311.07
310.795
311.029
311.433
310.605
310.329
310.92
311.013
311.756
311.406
310.035
310.834
310.82
311.857
311.586
310.722
306.413
305.219
306.82
307.112
307.144
306.034
306.851
307.215
306.904
307.763
308.058
306.975
307.329
307.845
306.711
306.788
307.911
306.681
306.605
306.712
301.731
303.002
301.942
302.099
302.596
303.218
302.5
303.269
302.824
302.066
301.617
302.912
301.651
301.155
302.2
301.833
302.505
302.736
302.253
300.22
335.148
333.44
333.643
333.559
334.827
334.042
332.125
335.109
334.63
334.919
334.171
333.811
334.419
334.562
333.747
332.786
333.653
332.121
333.642
332.685
330.602
330.099
330.071
330.249
328.146
330.907
329.495
330.812
329.075
330.994
331.211
330.613
331.047
328.767
331.035
328.872
330.707
329.214
330.112
328.913
326.268
326.138
324.817
324.694
324.352
325.379
324.288
324.221
325.86
325.971
326.629
325.985
324.47
324.518
325.225
324.591
323.639
324.37
324.721
324.371
322.473
320.26
319.715
320.933
321.705
321.172
320.838
320.177
320.285
320.423
320.859
320.667
320.539
322.21
320.336
319.94
321.034
320.571
318.956
319.438
316.463
315.827
315.422
315.732
316.194
315.716
316.506
315.095
315.916
316.151
315.652
316.127
316.408
315.677
315.739
315.551
315.415
314.065
317.169
316.102
310.465
313.403
311.74
311.293
312.009
312.198
311.823
312.832
310.881
311.681
310.443
311.516
310.981
311.138
311.142
311.436
311.363
310.452
311.878
310.014
307.774
305.995
306.572
307.275
308.942
306.901
307.384
305.544
306.472
306.637
305.674
307.47
305.852
305.624
306.666
307.555
308.583
307.457
305.448
306.997
302.717
303.914
301.831
301.148
302.445
302.018
301.294
301.775
304.184
301.646
301.661
301.161
303.081
303.293
303.15
301.558
302.805
303.175
301.771
301.488
335.921
334.559
334.982
335.104
335.154
334.187
335.872
334.387
334.154
333.952
334.301
335.23
334.137
333.302
333.816
334.066
332.552
333.651
333.062
334.536
330.381
330.05
330.738
329.082
330.767
329.009
329.958
329.282
328.898
333.03
330.963
330.341
329.296
329.488
329.291
329.494
329.719
328.478
330.736
330.175
323.582
326.831
324.198
325.773
325.75
325.291
325.042
325.344
325.156
324.988
325.961
325.999
326.196
323.901
324.797
324.861
325.241
325.135
325.41
325.886
320.731
321.838
320.203
321.151
320.708
320.483
320.803
320.697
320.744
321.353
321.447
322.045
321.58
320.464
321.909
321.397
320.739
320.369
321.911
320.497
316.221
316.613
317.028
316.108
317.711
315.221
316.147
317.774
316.272
316
316.512
315.504
316.42
316.447
316.185
315.844
317.216
317.127
315.266
315.416
311.542
312.108
312.158
311.933
311.19
312.386
311.795
312.127
311.891
310.486
311.997
312.064
312.764
312.297
312.862
311.99
311.132
310.451
312.419
311.246
307.139
307.907
307.152
306.767
307.638
305.787
307.995
307.621
307.371
306.487
306.494
307.063
307.564
307.218
308.015
305.553
306.544
305.115
306.618
307.077
302.515
301.827
301.961
302.44
302.724
301.658
302.848
302.956
301.254
302.793
301.742
301.632
301.133
302.632
303.289
303.284
300.972
303.834
302.148
302.08
)
;

boundaryField
{
    hotSide
    {
        type            fixedGradient;
        gradient        nonuniform List<scalar> 
400
(
321.511
322.87
325.591
329.677
335.133
341.965
350.181
359.788
370.794
383.208
397.037
412.289
428.971
447.088
466.647
487.651
510.105
534.011
559.372
586.191
323.738
325.08
327.767
331.802
337.194
343.949
352.078
361.591
372.498
384.81
398.537
413.687
430.268
448.289
467.755
488.672
511.043
534.872
560.161
586.913
326.149
327.47
330.116
334.091
339.406
346.071
354.099
363.503
374.296
386.491
400.101
415.136
431.606
449.52
468.885
489.706
511.988
535.735
560.948
587.63
328.704
330
332.597
336.503
341.73
348.292
356.205
365.485
376.15
388.215
401.695
416.604
432.954
450.753
470.009
490.73
512.919
536.579
561.714
588.325
331.33
332.599
335.142
338.97
344.099
350.546
358.332
367.477
378.003
389.928
403.271
418.047
434.27
451.949
471.095
491.712
513.807
537.382
562.439
588.978
333.918
335.158
337.643
341.389
346.414
352.74
360.392
369.397
379.779
391.562
404.765
419.407
435.503
453.065
472.101
492.618
514.622
538.114
563.096
589.569
336.321
337.531
339.959
343.622
348.544
354.751
362.274
371.142
381.385
393.031
406.101
420.618
436.595
454.047
472.983
493.409
515.33
538.747
563.663
590.076
338.36
339.543
341.92
345.509
350.339
356.44
363.847
372.595
382.718
394.244
407.2
421.608
437.485
454.844
473.695
494.045
515.897
539.253
564.114
590.478
339.852
341.015
343.352
346.885
351.645
357.665
364.985
373.643
383.675
395.113
407.984
422.312
438.116
455.407
474.197
494.491
516.294
539.606
564.428
590.758
340.643
341.795
344.11
347.613
352.334
358.311
365.584
374.193
384.176
395.567
408.393
422.679
438.443
455.699
474.456
494.722
516.498
539.788
564.589
590.901
340.643
341.795
344.11
347.613
352.334
358.311
365.584
374.193
384.176
395.567
408.393
422.679
438.443
455.699
474.456
494.722
516.498
539.788
564.589
590.901
339.852
341.015
343.352
346.885
351.645
357.665
364.985
373.643
383.675
395.113
407.984
422.312
438.116
455.407
474.197
494.491
516.294
539.606
564.428
590.758
338.36
339.543
341.92
345.509
350.339
356.44
363.847
372.595
382.718
394.244
407.2
421.608
437.485
454.844
473.695
494.045
515.897
539.253
564.114
590.478
336.321
337.531
339.959
343.622
348.544
354.751
362.274
371.142
381.385
393.031
406.101
420.618
436.595
454.047
472.983
493.409
515.33
538.747
563.663
590.076
333.918
335.158
337.643
341.389
346.414
352.74
360.392
369.397
379.779
391.562
404.765
419.407
435.503
453.065
472.101
492.618
514.622
538.114
563.096
589.569
331.33
332.599
335.142
338.97
344.099
350.546
358.332
367.477
378.003
389.928
403.271
418.047
434.27
451.949
471.095
491.712
513.807
537.382
562.439
588.978
328.704
330
332.597
336.503
341.73
348.292
356.205
365.485
376.15
388.215
401.695
416.604
432.954
450.753
470.009
490.73
512.919
536.579
561.714
588.325
326.149
327.47
330.116
334.091
339.406
346.071
354.099
363.503
374.296
386.491
400.101
415.136
431.606
449.52
468.885
489.706
511.988
535.735
560.948
587.63
323.738
325.08
327.767
331.802
337.194
343.949
352.078
361.591
372.498
384.81
398.537
413.687
430.268
448.289
467.755
488.672
511.043
534.872
560.161
586.913
321.511
322.87
325.591
329.677
335.133
341.965
350.181
359.788
370.794
383.208
397.037
412.289
428.971
447.088
466.647
487.651
510.105
534.011
559.372
586.191
)
;
    }
    coldSide
    {
        type            mixed;
        refValue        uniform 300;
        refGradient     uniform 0;
        valueFraction   uniform 0.991591;
        source          uniform 0;
        value           nonuniform List<scalar> 
400
(
300.019
300.022
300.013
300.009
300.011
300.013
300.015
300.018
300.022
300.018
300.024
300.016
300.015
300.015
300.024
300.023
300.026
300.015
300.023
300.021
300.017
300.004
300.024
300.015
300.012
300.016
300.01
300.01
300.025
300.024
300.026
300.019
300.035
300.027
300.022
300.018
300.024
300.025