/*--------------------------------*- C++ -*----------------------------------*\
| =========                 |                                                 |
| \\      /  F ield         | OpenFOAM: The Open Source CFD Toolbox           |
|  \\    /   O peration     | Version:  2212                                  |
|   \\  /    A nd           | Website:  www.openfoam.com                      |
|    \\/     M anipulation  |                                                 |
\*---------------------------------------------------------------------------*/
FoamFile
{
    version     2.0;
    format      ascii;
    arch        "LSB;label=32;scalar=64";
    class       volScalarField;
    location    "./ITHACAoutput/true/19.8";
    object      error;
}
// * * * * * * * * * * * * * * * * * * * * * * * * * * * * * * * * * * * * * //

dimensions      [0 0 0 1 0 0 0];

internalField   nonuniform List<scalar> 
3200
(
-3.76896
0.766283
-0.133061
0.385127
1.8581
0.562295
1.84455
1.26181
0.828138
0.440684
0.495341
2.77825
0.454463
0.455901
0.586342
1.01319
-1.94799
0.377149
0.366834
-2.80029
-1.96841
-0.360262
-1.02352
1.10076
1.12708
4.71367
0.369025
2.00476
1.38105
-1.60231
-0.522179
1.4925
-0.429112
1.09564
-0.49169
-1.05292
1.43267
1.26648
-2.93335
0.234085
-1.85871
-0.40341
-0.608583
-0.212018
-0.11749
0.964139
-0.329008
0.368725
0.276003
1.04319
-1.15631
0.766343
0.979362
1.08573
0.104541
-0.109077
0.358877
-0.493088
-1.33204
-3.59476
-0.838271
0.279128
-0.811857
0.326173
-0.177629
2.41073
1.00241
0.283067
2.03837
1.81907
0.706108
-0.422349
0.75117
1.0114
-0.142061
-1.11929
-0.107801
0.111288
-1.09744
-1.45637
0.17592
-1.27934
-0.322592
0.184
0.561083
0.781299
0.56908
0.884205
-2.55396
2.30945
0.808688
-0.147462
0.832686
-0.403774
-0.374234
0.801204
-0.640514
-1.74907
-1.15404
1.697
-0.328191
-1.18868
-0.867174
0.899756
-0.488463
-0.402465
1.52302
-1.52846
1.44621
0.705191
0.409255
-0.13498
0.191593
-0.269628
0.665932
0.388574
-1.22785
0.0754679
-1.04845
-1.02105
0.615662
-0.380385
0.803353
-0.143383
1.981
-0.0134451
0.268547
0.0319594
1.27687
1.00878
-1.11718
0.16359
-0.472549
-0.351947
2.30367
-0.641401
-0.337559
-0.470438
0.133347
-1.1317
-0.0227593
0.402471
0.439351
0.173679
-0.802461
0.229812
-0.175573
-0.216731
0.544084
1.0169
-0.117375
-0.176924
-0.650612
0.551694
0.326958
-1.39421
0.908204
0.352364
0.071565
-0.499629
-0.635079
-0.889651
-0.565927
-1.43367
1.49939
2.22221
2.17673
1.00365
2.60002
0.955866
0.882394
0.59664
-0.166984
0.447762
0.213721
1.04183
-2.13728
-1.37329
-2.2651
-3.64711
-1.56198
-0.120467
0.645414
-0.145126
1.2752
-0.0302537
1.04152
0.0928027
0.691627
-0.331663
0.149513
1.33687
0.144133
-0.34963
0.203231
-0.808269
0.0431151
-1.85583
-0.158716
-3.97347
-0.689863
-2.11967
0.499659
0.177313
3.00511
0.466468
1.83331
1.43179
0.310446
1.70755
0.7284
0.174804
-0.930413
-1.01167
1.40427
-0.971708
1.05227
-0.174929
-2.27393
-2.36463
-0.105073
0.598936
2.60944
-1.10495
0.457197
-0.198821
0.385607
1.51847
0.354203
-0.883028
0.957618
-0.469442
0.359698
0.315471
0.577119
1.6278
-0.751879
1.26804
-0.487978
-1.07696
0.507022
-1.91989
-0.485481
-0.511752
-0.710932
0.266633
-0.0440864
1.02603
0.960901
-0.166098
1.50039
0.805368
-0.284778
1.76373
0.00959772
0.514135
0.197046
0.286337
-0.398339
-0.866152
-0.256454
-1.51676
-0.464834
0.176921
0.10849
-0.126002
1.21246
-0.925725
0.426308
1.69235
0.758358
0.849337
0.366372
1.9709
-0.219756
-0.25431
1.51276
-0.665195
-1.0795
-0.966329
-1.00037
1.37556
-0.756331
-0.656448
0.507508
-1.40498
-1.04185
-0.0157527
0.812772
-0.0301267
-0.695917
-0.0106125
-2.26541
-0.602586
-0.0638205
-0.53168
-0.782136
0.0820524
-0.352729
-1.18405
-0.3929
-0.5431
-0.276304
0.425628
-0.0552254
-0.234984
0.00290492
-0.276574
-1.461
0.816814
1.70649
2.1954
-0.713579
-0.507372
-0.303078
0.80937
-0.810995
-0.342483
0.508832
0.68774
-2.32128
-0.177527
1.02716
0.806738
0.654827
2.04303
1.5509
2.82301
1.12907
-0.320904
-2.0606
-0.280436
-0.0312428
-0.900193
-0.150446
-1.29421
-1.33224
-0.166618
-1.59305
-3.56916
-1.97717
-2.77331
1.57776
-0.578156
1.71108
1.03743
-0.0825477
2.14487
-0.0867462
-1.65821
0.550613
0.947053
0.855288
1.06367
-1.21178
-0.00911578
-0.836529
-0.241443
-2.62323
-2.50114
-1.18277
-0.0818008
-0.617446
-0.376859
1.42423
1.11604
1.15087
1.58695
1.27081
0.642092
2.47344
0.994739
0.334251
0.0212813
-0.399694
1.1609
0.892758
0.607442
-1.6135
-2.76737
-2.93969
-0.558919
0.376518
-0.240647
-0.162568
1.43038
-1.1756
-1.14081
-0.337308
1.68293
1.12645
0.233882
0.312599
-0.601206
0.25679
-0.36372
0.0529777
0.0709349
-1.93748
-0.608944
-1.21656
0.183076
0.213748
-0.84475
0.404977
-0.921914
0.74766
0.321841
-0.617843
0.183114
1.35331
0.752429
0.450043
0.720901
0.217141
0.627611
-1.03714
1.03736
0.760625
-1.80373
-1.6177
-0.541665
0.248306
-0.894846
0.147629
1.9091
0.750658
-0.356286
2.16692
1.40275
0.828805
-0.433596
-0.610496
0.458834
0.398598
0.456433
-0.488894
-1.06417
-0.525673
0.248957
0.425848
0.450693
0.395635
0.0470504
-0.552098
-0.866917
0.0726741
0.807229
-0.286197
-0.0106544
0.997323
-0.058165
0.0385902
0.660828
1.10838
-0.375938
0.0127873
0.698478
-1.17784
-0.699037
-0.534374
-0.221016
-0.29809
2.00517
-0.927771
1.02745
-0.0236774
1.4239
-1.03022
-0.0343377
0.144165
0.612
0.989006
0.961924
0.826016
-0.0359772
1.04889
-0.0108392
1.14069
-0.763345
-4.14305
-2.45595
-0.724916
1.20481
2.62093
0.966331
1.29713
1.07
1.00101
1.55478
0.138397
-1.67446
1.24612
-1.62967
2.16829
-0.0976416
-1.15883
-3.12956
-1.57757
-2.97584
-2.63
0.423492
-0.626292
0.358262
0.953565
-0.337739
-0.567266
-0.0938512
1.41031
0.754259
0.0578983
0.14702
0.250331
2.09388
-0.203097
-0.472637
-0.200737
-1.39139
0.122996
-4.01371
-1.45135
0.529104
-0.64548
2.23118
0.460804
1.5098
0.466416
-0.865227
1.67249
0.85077
0.461592
-2.5732
2.32147
-1.04238
-1.1829
-0.0828051
-0.127601
-0.786812
-1.75099
-2.26508
-0.466201
1.61595
0.190969
-0.707499
1.24112
0.766709
-0.271449
-0.527092
-0.532768
2.65715
0.546089
0.652112
0.994823
-0.481652
-1.62937
-0.335242
0.276279
0.000228702
0.433332
-1.77646
-0.132164
-0.484366
1.68478
0.203148
0.637008
-1.02392
1.83406
1.19977
-0.255366
0.2337
1.34752
-1.31564
-1.21286
-0.496807
1.28459
-0.3812
0.976703
-0.776959
-1.05816
-0.169281
-0.0499872
0.808449
0.763773
1.1405
-0.781261
0.853793
0.226995
0.622606
-1.13675
-0.837595
0.264832
-0.576631
-1.09248
0.476693
0.160855
-1.11588
-2.62921
-1.4525
0.626732
-0.646289
0.38534
-1.21797
-1.2802
0.270892
-0.749951
0.481677
-1.57625
-0.481698
-0.279032
-1.18614
-0.893889
-0.139729
-0.343929
1.67976
0.474899
-1.62343
0.942376
-0.212947
-0.352287
-0.217461
0.589103
-0.994781
0.0965016
0.698831
-0.37254
0.102494
-0.871533
-0.142511
-0.0892177
0.994309
-1.28741
-0.434345
0.614746
0.381481
-0.633343
-0.570609
0.840189
-0.27373
-1.04192
0.26024
-3.69009
-0.995241
-0.488243
-0.20663
1.54082
2.21974
0.806558
-0.0725304
0.231353
-0.635947
-0.0245221
-1.06751
0.370968
0.841276
1.3548
-2.1154
-0.0411356
0.138268
-3.62807
-2.44645
0.564026
-1.65334
1.15132
0.369465
0.990342
1.51324
0.407634
1.93163
1.74874
0.472864
0.00162865
-0.556125
-0.522042
1.15559
-0.274704
-0.246642
-0.128424
-0.324599
0.415096
-3.5948
-0.68484
-1.65051
0.890107
0.178077
-0.562307
0.17139
-0.588117
0.495292
-0.783644
0.620702
0.674606
-0.371538
-0.936068
0.589468
0.235801
-0.201694
-0.681279
-1.50195
-0.214805
-0.975677
-2.05505
-0.289266
-1.14392
-1.04131
2.38638
-1.2486
-0.254504
0.408991
-0.735672
-0.313028
0.0717122
0.509013
-1.09674
-0.716715
-0.259345
0.957959
0.90923
-0.394078
-3.01542
-2.66475
-1.27161
0.582582
-0.137097
-0.439146
0.0115585
1.02451
1.12262
-0.59499
0.813587
0.121993
-0.522438
0.0865552
-1.28441
0.390834
0.833967
-0.637149
-0.200022
0.018053
-0.355146
-0.0967667
-0.232639
0.250258
0.954158
0.622962
-0.640038
0.715855
-0.642527
0.779096
1.53768
-0.473854
-1.10357
1.04481
-0.691308
0.174266
0.317705
1.79956
0.596316
0.257113
-1.18553
-1.56565
0.520134
-0.859494
0.817781
-0.78905
-0.556316
1.00323
0.573429
-1.22829
-0.121324
-0.614133
-1.04364
-1.11169
1.55933
0.771814
-0.14615
1.17017
0.338185
-1.69452
0.103991
-0.744374
-0.64978
-1.78656
0.327424
-2.32414
-0.11356
-0.497766
-1.72772
-1.68094
-1.75734
2.00716
-0.125515
-1.29397
0.245913
0.894092
0.228285
1.03825
-0.716897
-0.0326192
1.27584
-2.06997
-3.42867
-3.26226
-1.15448
-0.35112
-0.154961
0.144691
0.983949
0.02234
1.79984
-0.322764
-1.99675
-1.9762
-0.421942
-1.75785
-1.29492
-2.14065
-0.545584
-0.819842
-2.78094
-4.1096
-3.72854
-0.308184
-1.73484
-0.272809
-0.42046
-0.261045
0.322217
-0.172907
0.0739307
-0.211657
-0.0554597
-0.0222948
-0.63809
-1.65312
-0.0515192
-0.00581083
-0.209495
-1.09928
-0.0902428
-4.30856
-2.14709
-0.931293
-0.0890575
-1.51842
-0.909695
-0.259383
-0.116709
0.370182
-0.767214
0.211713
-0.0581532
-0.0827132
-2.72
1.06652
-0.406744
-0.913872
0.725958
-2.69786
0.898033
-2.00417
-3.12256
-0.477625
-1.18242
-0.241473
1.11904
0.0294295
0.507678
0.703915
1.94877
-0.228003
0.131185
-0.629483
0.732548
0.463939
1.25514
1.54963
-0.877733
-0.595395
-0.695595
-2.15855
-1.38458
-1.94719
2.1299
-0.475159
-1.20432
-0.338736
-0.576423
0.742621
0.0499611
0.46567
0.446152
0.289157
-1.26498
2.16995
1.4594
-1.08519
0.39313
0.33615
-1.53333
-2.15434
-0.13707
-0.153917
-2.07793
-0.364369
0.962114
-0.819818
-0.188838
-0.156292
0.662935
1.20154
1.07696
0.560925
-1.66874
-1.26792
1.35632
0.447818
0.520435
0.497457
-0.650229
-2.45355
-0.27155
0.89273
1.54065
-0.00247674
0.180504
0.745883
-0.575805
0.512516
0.558428
-0.652685
-0.896067
-1.1657
-0.0683008
-0.811626
-1.05749
0.850326
0.0366457
-0.507835
1.59384
-0.761154
0.163538
1.61248
0.624983
-0.967842
-1.02287
1.93306
-0.00173985
-0.683781
0.604755
-0.881816
0.394978
-0.101448
0.842546
1.90327
-0.306098
-0.0291441
-1.44892
1.20922
-0.126032
-0.173262
-3.69684
-2.4692
-0.948361
-1.10382
-0.637899
1.13165
-0.541335
-1.78033
0.597329
-2.23136
-1.20154
-1.55527
-1.20054
0.0546525
0.130721
-1.60949
-0.954
-1.44805
-2.10158
-5.08928
-2.39255
-0.393624
1.38042
-2.28633
-0.100376
-1.29362
1.46139
0.359235
-1.05366
-1.25213
0.184238
0.818372
0.570077
0.840693
-1.01003
-2.27463
-0.767818
-1.67519
-1.03789
-3.32286
-3.63236
-3.24242
-0.0897828
-1.95992
0.310193
-0.141219
-0.0935598
-1.27472
-0.455712
0.67147
0.460373
-0.671555
-0.343795
-0.164173
0.441813
-0.283103
-1.65617
-0.498179
-1.1225
-1.91758
-1.00226
-0.404746
0.297069
-0.0986482
0.861942
1.22754
-0.245203
0.197096
-0.656768
-1.73129
0.706195
-2.33445
-0.0939945
-1.40091
-0.67301
1.32297
-0.0813623
-0.367083
-1.29876
-2.3168
-0.726608
-0.0708978
0.394954
0.346787
-0.0153766
0.638965
0.477372
0.189191
0.506015
-0.11972
-1.27839
-0.422819
-0.224024
-0.0350267
-2.09313
-0.678588
0.354556
-1.14747
-1.21873
-2.45314
-0.129884
0.133063
-0.942866
-0.785117
-0.422384
-0.489683
0.809224
1.31814
0.981891
1.60045
-0.0202717
-1.16814
0.165448
-0.0290604
-0.256263
-0.393275
-0.61453
0.938473
-0.411214
-1.69821
-0.535202
0.145775
1.10567
-0.534994
1.54828
0.0768031
-0.32425
0.466789
0.149436
0.19147
-0.219454
-1.18794
0.471888
-0.979289
1.67888
-0.973547
1.15546
-0.0857904
-0.190606
0.167151
0.125476
-1.07014
0.246355
-0.149529
-1.67424
-1.18903
-0.407733
-0.661996
-0.0405716
0.350356
2.70856
-0.63571
-0.581958
-0.842322
-1.1802
0.146378
2.08483
-1.12937
-0.199337
0.0438475
-2.30995
-2.25247
-1.78269
-0.445425
-1.53978
1.85717
1.3089
-0.0837807
-0.819328
1.45134
-1.33697
-1.47018
-0.783186
-0.381358
-0.49255
-0.106133
0.424837
-1.06398
-3.73959
-3.86862
-2.64936
-0.493011
-1.50471
-0.316344
-0.669024
0.416289
0.754157
0.0331439
0.304084
-0.0712884
-0.0323294
0.314623
-0.358964
-0.56865
0.0102371
-2.60374
0.326886
-1.59429
-0.550983
-1.62016
-2.19093
-0.661244
-1.00256
-1.17445
0.832817
1.0632
-0.436254
-0.727278
-1.00277
0.869016
-0.777504
-1.08727
-2.91875
-0.958091
-1.29777
0.23978
-0.0202674
-0.783577
-1.47905
-2.26089
-1.01326
-2.54581
1.35431
0.55727
-1.09455
-0.783854
0.24671
-0.0864578
0.406085
0.112551
-0.379744
-0.564848
0.171415
-1.19259
-2.14833
1.11851
-1.56219
0.277021
-0.479165
-2.52866
-1.34155
0.248836
0.128859
0.094442
-0.927296
0.0189062
-0.603939
0.90862
1.4506
0.36664
1.53867
0.955404
0.455406
-1.18611
0.89415
0.747703
0.980647
-0.776773
-0.811008
-1.97381
-1.49319
0.258571
1.49473
-0.400392
1.06599
-0.218641
0.0833508
-0.540156
-0.600897
1.76158
-0.722916
1.56144
-0.450169
1.0308
0.90588
0.0722121
-0.136068
-0.481952
-1.64439
-1.54309
-0.300604
-0.607911
-2.33146
-0.0692221
0.135413
1.64193
1.23562
0.0544569
1.16374
0.348946
-0.0378582
-1.03145
0.529202
0.91447
-0.649289
0.379286
-0.714118
-0.526751
0.106675
1.26986
1.67038
0.043398
-1.44206
0.683626
-0.12387
-0.536748
-0.908038
-0.205892
0.682883
0.638053
1.12126
-0.345093
0.560469
-0.19702
-0.874881
-1.32123
1.34424
0.699722
0.241479
-0.916954
-3.37614
-3.2316
-0.984488
-1.49578
-1.18997
-0.603063
0.172972
0.293275
0.109214
-0.296978
-2.45988
-2.35377
-0.44229
-1.72937
-0.775323
-1.72751
-2.43498
-1.23274
-1.81719
-4.68278
-4.22438
-0.517767
0.654732
-0.38694
-0.042479
-0.0703666
-0.199123
-0.74815
-1.82591
-2.36987
-3.01088
-0.577639
-1.07367
-0.573212
-0.378024
-1.83108
-1.38706
-1.58402
-2.13923
-2.92473
-0.663425
-1.71127
-1.81413
-0.238868
-0.110375
-0.282155
-0.337453
-1.62595
0.129867
0.180435
0.251654
-1.95494
1.1076
-0.613827
-0.13017
-0.227845
-0.0798029
-0.724158
-2.73199
-3.36662
-0.862971
-2.05514
-1.96308
-0.470979
-0.926492
-1.11271
0.607189
0.914893
-0.242395
0.912481
-1.99228
0.284888
-0.0620366
-0.278146
-1.02195
-0.487748
-0.309634
-1.59687
-0.922351
-1.5792
-3.67559
-1.80191
-1.02986
-0.562547
-1.19747
1.22132
0.303108
-1.21154
0.0557639
-0.28859
0.931301
-2.50047
-0.109501
0.974141
-0.553692
-0.446846
1.08031
-0.817129
-0.41978
-2.69894
-1.51659
-1.57659
0.33144
-1.21703
-1.36283
-1.14551
0.226787
-1.32024
-0.682831
1.09717
-1.65894
0.763412
0.978624
1.55619
0.507243
2.46883
-0.433697
-0.6109
-0.416992
-4.38365
-2.36049
1.68634
0.183281
2.05219
0.882047
1.03211
1.35345
0.583782
0.255386
0.904575
0.332113
-0.129919
-1.59682
0.386657
-0.285217
0.256336
0.0255978
1.34267
-1.81635
0.132532
0.00699419
0.173821
-0.164858
1.7343
-0.345414
1.13615
-0.410008
1.13444
0.512623
-0.267713
-0.106281
0.366135
-0.0224484
-0.275397
0.701925
1.07823
0.258573
-0.344077
0.3476
0.329687
-3.56381
-3.00213
-2.92322
-0.90114
-2.63538
-0.228352
-2.13545
-0.612485
-1.88283
-1.97742
0.125741
-0.729132
-0.844456
-1.49611
-0.874472
-1.87995
-1.01543
-2.81922
-2.50542
-3.59905
-1.71779
0.226552
-0.636072
-0.329534
0.377925
-0.13446
-1.20373
-0.282106
-0.145665
-0.361013
-0.126867
-1.40736
0.326199
0.873404
0.4546
-0.090334
0.262803
-3.39367
-0.0644771
-2.55497
-1.94872
-0.939139
-1.39701
-0.582648
0.403146
-1.3194
0.151283
-3.19595
0.670008
-0.935607
0.0116329
-0.49294
0.40061
-1.40249
0.276562
-0.266346
-0.829459
-0.537728
-0.727481
-3.32905
-1.7538
-1.12042
-1.54998
-1.5013
-0.811245
1.04611
-1.08841
-0.356017
0.0931994
0.482308
-1.59641
-0.541548
-0.898301
-0.116959
-0.541992
-1.83162
-1.76117
-2.44511
-1.397
-1.3134
-0.702838
-1.70385
0.67637
-0.103008
-0.306479
0.451641
0.139874
-1.79422
-0.24065
0.353307
2.30028
-1.06164
-0.582011
-0.515501
-1.43222
0.318972
-1.80782
-2.20702
-2.01483
-2.19544
-1.00813
1.03271
0.372451
1.01292
-1.22218
-0.109687
0.187125
1.96125
2.46761
1.10264
0.112341
0.753227
1.41207
-0.49317
-0.0589523
-1.13677
-0.192169
-2.08098
-2.08197
-0.675492
-0.383497
-1.22007
1.27181
0.133924
0.748213
0.483448
-0.109892
-0.254937
0.8759
0.0353591
1.17643
-0.728792
0.555173
-1.49379
-0.85029
-0.315108
-0.559646
0.426809
-0.0638551
-0.106286
-0.754949
1.3034
0.214055
-0.85686
0.342488
0.0498866
-0.19546
-0.545317
-0.0381988
-1.26401
1.17489
-0.179063
1.23218
0.182618
-1.03797
-1.19026
-0.792685
-1.00877
2.45032
-1.60533
-3.20091
-1.64117
-1.12896
-2.15791
-1.13876
-0.202772
0.311266
-0.0466215
-2.60519
-0.321032
0.87424
-1.60103
-2.39691
-1.61415
-0.236437
-1.21274
-2.12442
0.547928
-3.83928
-2.96678
-3.51819
0.171414
-1.14053
0.0498917
-0.522909
-0.184442
0.0699779
-0.469641
-0.28216
0.0694104
0.392334
-0.889959
-0.335042
-1.71898
0.153654
-0.556693
-0.333305
-1.38215
-0.0194007
-2.64312
-2.90288
-1.26764
-2.16022
0.842593
0.0142537
0.842249
0.169401
-0.642947
-1.7333
0.404688
-0.17734
-1.76834
-1.16885
-0.330838
1.19111
-0.771753
-2.21413
-0.720316
-1.64913
-2.02337
-2.89879
0.117896
-0.696667
-2.41296
-0.363047
-0.921648
-0.2765
0.548696
0.364904
0.679538
-0.991855
-0.976724
-1.09064
-1.70658
0.588348
-1.06961
-0.701056
-2.73608
-2.45078
-1.03159
-2.0648
-1.75175
-0.294794
-0.16718
-1.35701
0.723563
-1.64523
-1.83826
1.03113
1.3611
-1.23011
-2.33786
-0.887679
0.517731
-0.625536
-1.90999
-1.66135
-0.570169
-1.8561
-2.19003
-1.17948
-1.03311
0.190673
-0.529968
0.072705
-0.988443
0.276522
0.899181
1.17788
-1.34692
1.02824
-0.718033
-1.31778
-0.795094
0.273679
-0.130965
1.65578
-2.39445
0.0567694
-1.42964
0.0816581
-1.36894
0.786493
0.435505
-0.0692605
0.656409
0.316972
0.950185
-0.812104
0.855585
-1.86415
-0.727296
0.0215244
0.359613
0.222074
-0.761513
0.0286087
-0.773302
0.277301
-0.699856
0.671029
-1.82361
0.0353295
1.11538
-1.03367
0.784428
0.357265
0.196085
-0.256939
0.732051
-0.162075
-0.114726
-1.1916
-0.104594
0.132536
-0.00912272
0.0568963
-1.34626
-1.38159
0.0473425
-4.31085
-2.96749
-1.86506
-0.359226
-0.371981
-1.04763
-0.664547
-0.0911643
-1.99338
0.800614
-1.03106
-1.07994
0.0925014
-1.02327
-0.799341
-1.37325
-0.847978
-3.02413
-3.14697
-3.54234
-2.97888
-2.15167
-1.41448
-2.0921
-0.363503
-1.41151
0.643721
-1.54261
0.472484
-0.973884
-1.68597
-1.50902
-0.552815
0.114222
-1.25205
-0.749967
-0.483793
-2.0329
-2.82391
-3.17175
-2.52037
-0.856619
-1.8948
-1.78139
1.6987
-0.952158
1.21769
-0.15611
-0.984144
-1.96975
-0.664739
-0.597497
0.122107
0.188766
-1.07575
-0.308951
-0.0353754
-3.65815
-0.757153
-1.40969
-1.00746
-2.30751
0.00423491
0.421434
0.394936
-1.2614
-0.445439
-1.48657
-0.74996
-1.5053
-1.58097
-1.95205
1.52382
0.267195
0.48471
1.89951
-1.0215
-0.0708894
-0.873946
-1.47529
-1.29163
-1.36885
-1.09552
-0.0274124
0.286876
0.357183
-0.434918
0.770162
-1.90939
0.345034
-2.09796
-1.47998
0.737922
0.37008
1.07296
-1.20245
-0.189995
-1.26642
-1.54625
-2.57766
-2.15577
-1.65681
-2.19796
-0.175976
-0.476102
1.05507
1.6508
-0.536802
-1.07822
0.217426
-1.28398
0.594474
-0.957915
-0.35989
1.03076
-0.696227
0.532653
0.642359
0.451513
-0.261743
-0.643101
-2.36957
-0.380568
-1.95007
-2.24163
1.1243
-0.379244
1.09682
0.453618
-0.294055
0.365443
0.624228
1.16859
1.00133
-0.828211
1.35407
-0.541708
-0.431275
-1.24669
0.449857
0.316951
-1.9411
0.0578367
-1.16424
-1.31824
-0.188787
-1.22056
-0.126115
1.09671
-0.0175042
-1.07298
-0.143307
-0.622344
-1.967
-0.888474
-0.717772
0.374378
-1.86095
0.152161
0.617315
-1.57049
-0.673118
-0.821672
-0.366688
-0.754877
-0.858139
-0.327506
0.117001
-0.263467
-1.15157
-1.46039
-0.0188782
-0.587691
-0.489624
-1.69911
-1.44673
-1.42957
-2.49817
-3.24724
-4.09915
-3.50485
-0.0717874
-0.865707
0.078557
0.058954
-1.4404
1.6039
-0.0925592
-0.504988
-0.114391
0.0294831
-0.218793
-0.159731
-0.832937
0.0267077
-1.97346
0.0294953
-1.07566
0.303976
-2.20367
-2.4286
-1.49878
-2.47844
-0.750545
0.518885
-0.218294
1.01633
0.182196
0.363507
-1.50676
-0.0385136
0.236176
0.159396
1.27606
-0.980457
-0.693544
-0.826741
-0.43523
-0.88133
-3.29697
-0.240212
-0.944174
-0.466746
-1.90979
-0.190618
0.277579
0.408001
0.0417696
-1.39653
-0.487814
-2.95568
-0.689985
-0.701725
-0.903719
-0.132052
-0.614428
-0.140442
-0.487509
-1.36464
-1.84418
-1.30911
-1.87989
-1.15764
0.979182
-0.181628
-0.103955
0.431166
-0.281387
-0.987252
-1.55231
-1.34632
-0.272507
0.151018
0.156556
-1.38204
-0.958922
-0.550894
-0.0866518
-0.688435
-1.4573
-1.63299
0.895287
0.614367
-0.185072
0.710218
0.360732
0.381665
-0.0696964
-1.49923
0.885764
-1.71729
0.160482
0.600434
0.013583
-0.604308
-1.22837
1.12635
-0.400326
0.230837
-1.30042
-0.461038
0.229918
0.0320107
-0.733185
0.660224
0.503981
-0.19885
2.37039
0.713001
-0.343602
-0.288493
0.329135
-0.101724
-0.493809
0.256415
0.578041
-0.0982883
-0.462071
-0.245519
0.355864
-1.65401
-0.65168
-1.7624
0.773964
0.141715
-0.815388
0.806107
0.680798
-0.267806
-0.506062
-0.146956
1.34879
0.286971
0.450853
-1.83233
1.14544
1.10694
-0.562069
-1.33467
-0.386941
-2.85501
-1.68504
-2.67395
-0.930748
2.53233
-0.241209
-0.208462
0.348554
-0.5718
0.379764
0.54642
0.579669
-0.218538
-0.103579
-2.39993
0.433789
-0.765776
-2.13448
-2.13478
-3.50621
-1.34411
-1.99131
-2.48154
-1.60217
-0.403755
0.597517
0.235234
-1.10166
0.619684
0.676174
-0.982095
-2.0811
-0.598959
-1.01404
0.954175
-0.859298
0.879274
-0.625054
-1.44581
-2.87401
-1.41108
-2.04273
-3.11867
0.479379
-0.542267
0.448383
1.25729
-0.233378
0.932411
-0.2795
0.0884813
0.788899
-0.00266357
-0.653792
0.18006
-1.07747
-0.955137
-2.23273
-1.49899
-0.324919
-3.2816
-1.4376
-1.14543
-2.45814
0.0172472
-0.975109
-0.573678
-0.157637
0.0830418
-1.11329
0.444672
0.690823
0.234332
-0.850318
0.666561
-0.790592
0.497391
-0.408745
-0.765185
-2.50817
-0.615563
0.877127
-0.261096
-0.23428
0.690723
2.26133
-0.0273062
-0.409158
0.689366
-1.52729
1.6129
-2.41262
0.174223
-0.73841
0.080821
-0.287125
0.719627
-1.50175
-1.02592
-2.77169
0.235736
-1.56449
-0.236766
-1.86609
-0.826185
-0.126754
-0.859055
0.454654
-1.13033
-0.634275
0.163993
0.774838
-0.209817
-1.73076
1.80004
1.53801
-0.716583
0.600188
-0.272802
-0.374918
-0.0513349
0.283528
-1.66142
0.0425731
-0.711699
1.03846
0.93819
-1.35646
-0.550068
1.31308
-1.07378
-0.667071
1.00583
-1.74729
1.90979
1.26332
0.0925428
0.0126628
-0.462811
-0.7825
-0.389587
1.04101
-1.45463
-0.0276724
-0.309763
-1.39049
0.0403649
1.0662
-1.64723
-0.64126
-1.33325
0.170357
-0.745045
-0.284359
-0.177652
0.635876
0.707639
-0.323762
-0.024728
-0.647905
-2.88347
-2.50874
0.0574081
-1.21569
-1.0539
0.0319897
-0.919749
1.06131
0.598767
0.520668
0.772903
-2.36739
0.685388
0.651651
0.232696
0.499756
-1.64153
-2.16418
-2.00354
-2.13945
-2.7513
0.115416
-0.0859343
-0.510557
2.09221
-0.027904
0.0623663
-0.228477
0.45126
0.153159
0.255892
0.617846
-0.148626
0.576934
-0.303278
0.362031
-0.579413
0.994558
-0.200264
-1.08977
-2.28595
-1.1453
-1.98889
-0.286099
-1.21088
0.676421
0.144637
1.28197
0.8862
-0.319108
1.00626
-0.499873
0.329696
1.57392
0.796168
-0.0563635
0.364038
-1.0358
-1.70323
-1.67585
-1.28262
-0.711202
-1.87431
-0.250541
0.900362
0.570957
-0.08474
-0.0326764
1.74773
-0.42008
0.819802
0.694177
-0.535651
0.340972
0.447198
-0.694782
1.96851
-0.93073
-2.55157
-0.783125
-1.14282
-1.71273
0.854518
0.122478
0.0125533
0.325011
1.33745
-0.342563
-0.944346
0.895825
0.382387
0.892728
0.426521
1.35343
-2.17166
0.348576
0.898107
1.41554
-0.0364533
-0.621064
-0.587338
0.0269841
0.439458
-0.0971073
-0.637587
1.07599
0.988325
1.25
-0.161862
0.697469
-0.37502
0.988825
0.694552
-0.386042
-0.273925
-0.0916432
-0.403654
-0.465045
0.705402
-0.373937
-0.889398
-0.71686
0.826867
-0.521507
1.84908
-0.418198
-0.00111521
0.495835
-0.401123
-1.05142
-0.255544
0.469283
0.508048
2.07859
2.08427
-0.1855
-1.29426
-1.30231
-0.595224
-1.10557
-0.465461
-0.0190447
-0.535035
-1.002
-0.880751
-1.2676
-0.113757
0.837616
0.275769
-0.0786546
-0.486126
1.40912
-0.19901
0.152357
0.23495
-0.658175
0.490937
-0.756296
0.27371
-0.689266
-1.20063
-2.36657
-0.0336312
0.091971
0.794088
-0.394593
1.71099
-0.304961
0.627309
0.37099
0.882356
0.673023
0.915254
0.508601
-0.963894
0.365103
-0.343844
0.13124
-1.4565
-3.78051
-3.4226
-2.09413
-0.269037
0.674945
0.738862
0.907299
-0.506704
0.352753
-0.220367
-0.711797
0.423343
1.90308
0.925281
2.26226
2.31306
1.32656
-0.515788
0.385571
-0.70614
-0.963694
-2.21804
-0.763316
-0.212802
0.191038
1.03306
0.366652
-0.503
0.0843057
0.713222
2.03418
-0.474263
-0.073113
1.32642
0.0186621
1.19448
-0.840347
0.578845
-1.00451
-0.870618
-0.112088
-0.98302
-0.933615
-2.12322
0.158849
0.0727123
1.5571
1.80238
0.269382
1.81214
0.405
1.03175
0.901897
0.241522
0.57785
0.0124827
-0.293886
-0.416798
0.366139
-0.620904
-0.407981
0.152555
-0.831726
1.40446
-1.7244
0.361513
-1.41514
0.223019
-0.0374119
-0.15841
1.33087
-0.0661293
0.456465
-0.187838
1.73337
0.0699397
1.67112
0.545355
-0.634389
-0.49172
-0.906792
1.62656
0.953999
-0.644241
1.59223
-0.160594
-1.25291
1.33365
0.111564
1.09281
-1.00022
1.59594
0.694487
0.624757
0.415238
-1.17203
0.807114
-0.316728
-1.74808
-1.31888
0.978383
0.0747097
1.01878
0.511645
1.5925
-0.367666
0.703483
-0.327488
0.380206
-0.74177
0.999732
1.02251
0.759842
-0.665847
0.300402
-0.399216
0.161226
-0.948552
1.33771
0.129428
0.488558
0.504188
-1.0998
-2.40044
-0.378868
-1.45232
-0.461899
0.926621
0.659404
1.76925
-0.3672
1.92754
-0.800943
0.483023
0.501648
0.750239
0.507929
0.904497
0.945594
-0.386401
0.4733
-2.24901
-2.23593
0.467862
-1.05815
0.642273
1.51799
1.45783
1.66245
2.8938
0.839134
1.23581
0.385487
0.539488
1.48577
0.0612825
1.00427
0.969719
0.159193
-1.08251
-1.93284
-1.34893
-0.315441
-1.60037
0.472798
0.4948
0.283163
1.49684
0.558797
1.79761
0.0825204
-0.117167
0.861259
0.548663
1.41934
0.304103
0.519434
0.214629
1.48696
0.346958
0.7489
-0.866082
-0.430544
-0.93014
0.706116
0.49093
2.54113
0.751648
0.564228
-0.609727
0.336631
1.77207
0.612539
1.1155
1.68984
2.55947
1.533
1.63159
0.545871
-0.778144
-0.759351
-0.702878
-0.762972
-0.406513
-0.695329
0.0330688
1.19517
1.37719
0.837719
0.587003
1.77906
0.793718
1.52121
1.69255
-0.613717
1.5341
0.566744
-0.852665
0.619536
0.093894
-1.16501
-2.19535
-1.10929
-0.923279
-0.761089
0.0908028
0.0933771
2.14301
-0.166914
0.916148
0.737473
1.4737
-0.809068
-0.237253
-0.5891
1.26049
0.545433
0.958116
0.962973
1.39056
-0.241213
-1.30571
-1.47619
0.854503
-0.426177
1.78154
0.708076
1.80054
2.13508
-0.650043
0.419795
0.452585
-0.345738
-0.0241378
2.02387
2.21016
1.69853
0.748052
0.46564
-1.1811
-0.398727
0.0175013
-0.0288904
0.733308
-0.643998
0.919967
-0.248874
-1.91844
2.45676
2.07995
-0.858104
-0.120753
0.638044
-0.0681991
0.508153
-2.51398
0.980862
0.746109
-0.786638
-2.01151
-0.309405
-0.943924
-2.10191
2.01087
-0.702756
-1.11697
0.270167
0.495746
-0.0380743
0.905722
-0.429715
0.505532
-0.830316
0.83108
1.25906
1.38077
0.547751
0.733357
0.0326873
0.713696
-1.70461
-1.07899
-0.937571
-1.91749
1.19688
0.843698
1.01452
1.46183
1.30181
3.08344
2.31796
2.85313
3.3424
1.71305
3.67848
1.24366
0.746121
1.14355
-0.0675222
-1.4021
1.25263
-1.93842
-2.02093
0.643459
-0.118117
1.44483
2.68995
3.35929
2.16609
3.4404
0.269664
3.05589
0.440828
1.83081
2.28524
0.99266
0.921059
1.50157
1.31401
1.26221
-0.674354
-0.497025
0.221712
0.201724
2.45998
0.414351
0.687884
3.51046
1.10444
1.18656
0.177623
1.55696
3.64645
1.65467
1.78168
3.08351
0.953979
1.27489
0.613944
0.407728
-2.14265
-1.75207
-0.150399
-0.345335
0.734991
-0.255478
-0.149325
2.25793
0.792313
1.07297
-0.111548
-0.0639934
0.250163
-0.159087
1.38444
1.18626
0.869721
0.628362
0.0397211
-1.16644
0.694094
-1.39386
-0.950242
0.0410736
3.16245
1.57442
0.340525
0.683706
0.337535
-1.00764
1.57965
2.1277
2.27806
2.73009
0.297017
1.0881
2.01228
2.12577
0.382049
1.38808
0.693495
-1.31903
0.334014
-1.70967
-1.02468
0.255721
1.10449
0.880054
2.60053
1.20138
0.492293
1.91962
1.0167
0.73507
1.37763
1.56641
2.9615
0.630547
1.36323
-0.276411
-0.0316994
-0.405331
0.817792
1.10841
-0.587721
0.615082
0.0337489
1.04543
0.962175
0.0176226
0.666262
0.351954
-0.662286
0.260172
0.699518
0.254152
1.83279
-0.754901
-0.671049
0.200947
-0.927155
0.171292
0.288047
2.13242
0.693257
-1.5754
0.896072
0.84692
1.15235
-0.313582
0.868913
-0.959087
0.242741
-0.879914
0.324842
1.30702
-0.0611298
0.295984
-1.28699
0.561791
0.0351925
-1.78736
1.21011
2.01742
1.0782
2.41298
3.79651
2.55353
3.33025
3.12921
1.8865
2.73543
2.51969
1.89778
3.01017
4.19921
0.162391
2.03834
0.417495
0.306763
-1.27161
-0.388895
0.0471021
1.9194
-0.189179
1.28322
-0.233113
1.54384
0.136533
3.47142
0.0225817
0.0738244
2.35104
0.292374
2.06021
0.0388812
2.24134
0.038244
3.06984
0.0967936
-0.129728
-1.53137
0.236565
1.04754
0.0150125
1.47563
2.32791
2.18812
3.05349
1.75452
1.04906
2.10459
1.53498
0.39004
1.5594
4.6871
0.00488225
2.78942
1.06954
0.916395
-0.0760239
0.62272
0.322833
-0.288176
0.334519
0.983055
0.207926
2.99821
1.75503
1.37321
2.17597
2.7082
1.86602
1.455
0.763094
3.35095
1.6322
2.12051
2.3706
-0.45468
0.514169
-1.1199
-1.17851
-0.00707818
2.28432
2.29802
2.29773
0.690077
1.67104
0.211154
0.749303
1.41996
0.681863
1.0532
1.51033
2.22243
-1.35588
2.03461
0.748217
1.27959
1.00817
-0.918596
-1.59994
2.3444
0.958642
0.798468
0.734787
1.1122
3.2211
0.117098
0.741273
1.08706
2.69862
2.17278
1.64081
1.68053
2.51622
1.25591
1.02209
-1.9665
-0.614169
0.279198
1.47454
0.39582
0.064441
1.30673
0.445094
0.659451
-1.24414
-0.793499
2.85925
0.687023
0.209823
2.44572
2.51565
-0.609706
0.609679
3.03209
0.617113
-1.87406
-0.22013
-0.303969
0.866607
0.32399
1.21454
0.107618
-0.0971919
1.73045
0.811393
0.10328
1.07278
-0.393214
1.70335
-0.202868
-0.854606
1.3886
-0.794777
0.872555
0.0928841
-0.673653
-2.47925
-1.24301
-0.0269979
0.97132
1.39215
2.02152
1.74487
3.25424
2.23847
3.54158
2.38267
3.80115
2.72683
3.80348
3.4922
2.90676
2.16041
1.18981
1.31494
-0.168661
2.5883
0.247269
1.37135
0.940077
2.8247
0.546488
2.0867
1.71011
2.44459
4.88677
4.80614
4.78689
3.01107
2.96594
4.50157
2.91755
3.26145
1.72601
1.67715
1.33024
1.32891
-0.987952
0.038758
0.431265
-0.00853869
2.34033
2.25768
1.43878
1.85389
3.21374
2.58168
3.25174
2.61961
2.88168
3.84817
1.89056
2.32076
3.45332
0.264091
0.617887
-1.16079
0.560253
-1.03561
1.00901
0.0447475
0.040589
3.25956
1.2905
1.14355
1.61591
1.59724
2.31559
2.69332
1.88406
3.31536
1.56999
1.29286
2.11027
-0.432639
2.89906
0.752681
-0.274362
-0.000480472
0.20548
0.86173
1.24715
0.684452
0.157618
2.02538
2.43773
1.76038
0.252038
1.95478
0.807909
1.13904
0.449329
2.20414
0.416946
2.49848
0.930281
0.252683
1.3393
-0.00624271
-0.660814
0.397736
1.82743
1.79199
-0.18579
1.32712
-0.0792567
2.37439
1.20456
3.39741
0.173268
2.66813
2.88431
0.653435
0.733007
1.6581
1.51347
0.597859
0.638094
1.10569
1.03382
-0.205282
0.836344
-0.86918
0.484414
-0.45653
0.838321
0.775305
0.599321
0.0519749
0.793328
0.104932
1.18249
1.37599
0.490798
0.789626
-0.383153
0.182271
1.04942
1.15043
-0.482247
-0.776031
-0.194761
-2.07478
0.222184
-1.44455
-1.11739
0.909155
0.489313
-1.74027
1.58609
-1.02543
-0.285573
0.307327
-0.544072