/*--------------------------------*- C++ -*----------------------------------*\
| =========                 |                                                 |
| \\      /  F ield         | OpenFOAM: The Open Source CFD Toolbox           |
|  \\    /   O peration     | Version:  2212                                  |
|   \\  /    A nd           | Website:  www.openfoam.com                      |
|    \\/     M anipulation  |                                                 |
\*---------------------------------------------------------------------------*/
FoamFile
{
    version     2.0;
    format      ascii;
    arch        "LSB;label=32;scalar=64";
    class       volScalarField;
    location    "0";
    object      stateMean;
}
// * * * * * * * * * * * * * * * * * * * * * * * * * * * * * * * * * * * * * //

dimensions      [0 0 0 1 0 0 0];

internalField   nonuniform List<scalar> 
3200
(
328.954
324.591
325.711
325.433
324.208
325.747
324.688
325.46
326.032
326.492
326.438
324.082
326.268
326.077
325.723
325.053
327.766
325.201
324.99
327.985
323.661
322.199
323.053
321.136
321.325
317.948
322.487
321.014
321.757
324.803
323.723
321.645
323.448
321.76
323.154
323.505
320.804
320.763
324.772
321.459
320.119
318.784
319.151
318.929
319.015
318.112
319.569
319.009
319.202
318.488
320.687
318.712
318.399
318.154
318.971
319.007
318.358
319.035
319.713
321.855
315.714
314.695
315.917
314.922
315.574
313.13
314.673
315.505
313.832
314.094
315.207
316.292
315.037
314.664
315.683
316.515
315.356
314.994
316.071
316.332
311.356
312.886
312.032
311.636
311.374
311.267
311.583
311.355
314.857
310.028
311.528
312.45
311.406
312.556
312.422
311.134
312.461
313.458
312.761
309.835
308.547
309.461
309.212
307.524
308.995
308.989
307.138
310.252
307.323
308.088
308.384
308.904
308.532
308.931
307.921
308.118
309.652
308.27
309.32
309.24
304.312
305.34
304.2
305.194
303.12
305.162
304.924
305.199
303.981
304.264
306.39
305.094
305.704
305.545
302.845
305.742
305.389
305.473
304.827
306.06
301.674
301.259
301.237
301.518
302.51
301.494
301.915
301.969
301.217
300.749
301.883
301.938
302.403
301.187
301.397
303.102
300.784
301.324
301.589
302.151
325.922
326.348
326.243
327.349
324.661
324.178
324.445
325.805
324.345
326.061
326.135
326.348
326.976
326.174
326.186
325.118
328.052
327.05
327.723
328.934
323.343
322.046
321.469
322.465
321.257
322.77
321.89
323
322.519
323.605
323.123
321.874
322.949
323.282
322.537
323.34
322.277
323.97
322.085
325.754
319.024
320.574
318.113
318.61
315.961
318.676
317.471
318.008
319.229
317.884
318.864
319.364
320.37
320.316
317.738
319.938
317.735
318.788
320.728
320.699
315.041
314.434
312.554
316.41
314.994
315.794
315.341
314.32
315.565
316.845
315.004
316.388
315.478
315.412
315.018
313.823
316.057
313.895
315.521
316.013
311.072
313.573
312.239
312.376
312.689
311.823
312.236
311.253
311.381
312.541
310.875
311.537
312.564
310.428
312.08
311.464
311.667
311.468
312.051
312.445
308.508
309.822
308.842
308.279
308.429
308.743
307.478
309.678
308.37
307.128
308.062
307.947
308.386
306.719
308.837
308.791
306.943
309.042
309.384
309.218
305.948
303.604
305.779
305.726
304.611
306.572
306.253
305.264
304.462
305.319
305.985
305.286
307.513
305.814
305.231
305.651
305.852
304.941
305.333
306.132
302.05
302.211
301.958
301.272
301.769
301.965
301.742
302.035
303.228
300.954
300.065
299.572
302.472
302.252
302.033
300.905
302.509
302.024
301.159
300.969
327.812
325.838
324.848
325.301
325.693
324.541
325.249
324.159
325.986
327.506
329.246
327.395
327.013
327.7
326.734
327.642
327.44
326.042
327.253
329.06
323.933
324.872
320.706
323.065
320.983
321.861
323.168
321.098
323.444
325.076
322.867
322.41
322.388
322.021
324.11
322.703
323.324
322.525
324.722
324.457
319.664
318.682
319.373
319.304
317.678
318.158
318.281
317.978
318.391
319.071
317.24
318.667
319.231
319.411
319.674
317.941
318.034
318.149
320.213
321.248
317.996
315.71
314.902
315.659
315.725
314.272
317.008
317.081
316.356
314.378
314.935
315.785
315.627
316.433
315.445
315.926
315.365
315.208
317.088
315.665
312.889
311.562
311.63
312.797
311.659
313.095
311.525
312.036
313.037
312.268
311.098
311.667
311.908
311.552
311.956
311.436
312.989
310.807
310.984
313.476
309.937
308.912
308.193
309.413
308.45
306.767
307.997
309.164
306.685
307.472
308.046
309.286
309.418
308.289
308.277
308.142
309.007
309.505
308.896
308.07
304.562
304.568
304.665
305.061
305.707
306.069
305.172
304.474
305.594
305.332
304.324
305.366
305.242
304.584
304.094
305.531
305.095
304.363
306.197
305.687
302.204
301.902
301.993
299.706
302.655
300.715
301.781
300.345
302.808
301.816
301.638
301.166
300.78
300.795
300.916
301.763
300.662
301.706
300.54
302.433
329.941
328.419
326.897
325.195
324.012
325.894
325.772
326.175
326.372
325.885
327.302
329.047
325.999
328.699
324.692
326.731
327.559
329.302
327.541
328.774
324.85
321.937
323.166
322.379
321.985
323.474
323.883
323.562
322.169
322.883
323.579
323.432
323.218
321.222
323.339
323.412
322.938
323.931
322.237
326.234
320.154
318.289
319.616
316.906
318.846
317.964
319.161
320.62
318.176
319.046
319.435
322.421
317.434
320.669
320.657
319.39
319.265
319.758
320.569
320.968
315.702
313.713
315.263
316.296
314.488
315.098
316.261
316.621
316.703
313.553
315.664
315.518
315.099
316.472
317.494
316.064
315.313
315.454
314.896
317.012
311.943
312.367
310.294
311.882
311.556
313.323
310.562
311.277
312.791
312.333
311.219
313.852
313.69
312.893
311.014
312.574
311.108
312.756
312.941
311.98
308.468
307.661
307.773
307.473
309.471
307.911
308.608
308.27
310.072
309.795
308.692
309.512
309.985
308.358
308.604
309.806
311.242
309.989
307.842
309.064
304.662
306.296
306.399
304.893
305.96
304.774
306.873
305.814
305.636
306.557
306.265
305.497
305.676
303.617
304.781
306.833
304.222
305.332
305.43
305.264
301.101
302.696
301.617
301.03
302.118
301.658
302.646
301.929
301.883
300.805
303.086
302.228
301.171
301.393
302.393
302.316
300.889
301.988
302.743
301.43
329.898
327.363
327.058
326.997
325.473
325.012
326.625
327.672
327.49
328.421
327.81
328.789
327.228
326.591
325.877
329.129
326.831
326.432
329.996
328.654
322.009
324.361
321.731
322.703
322.276
321.942
323.22
321.841
322.129
323.46
323.931
324.434
324.295
322.472
323.73
323.513
323.2
323.207
322.293
326.168
319.684
320.762
318.368
319.241
320.144
319.571
320.476
319.515
320.883
319.525
319.471
320.471
320.946
319.299
319.506
319.784
320.1
320.76
319.326
319.975
317.532
315.856
316.831
316.859
313.566
317.332
316.457
315.893
317.111
316.726
316.341
315.866
317.399
316.919
316.342
314.994
314.909
316.081
318.582
318.142
313.27
311.484
312.297
312.701
312.354
311.442
311.437
313.233
311.88
312.602
313.246
312.607
313.922
312.169
311.633
313.003
312.462
312.142
312.422
312.095
308.784
308.35
307.712
308.116
309.453
308.17
309.595
308.228
307.509
309.542
310.172
308.002
309.698
308.778
308.568
307.013
308.143
308.409
309.786
310.117
304.607
306.015
304.378
306.029
305.84
304.325
304.795
306.629
305.546
306.052
306.482
306.537
303.842
304.596
305.474
304.114
304.902
306.891
305.052
305.871
302.367
303.514
301.413
304.079
301.884
302.282
303.526
303.49
303.574
299.814
301.947
303.111
301.563
300.904
301.556
300.732
302.472
301.773
300.451
303.787
330.151
330.138
328.224
327.631
327.648
327.555
326.905
328.026
326.362
328.545
330.219
330.138
328.47
329.647
328.995
329.634
327.826
327.89
329.657
330.832
326.743
323.452
325.047
323.766
324.098
324.118
323.699
324.331
324.183
324.521
324.364
324.279
324.796
325.674
323.909
323.684
323.702
324.411
323.234
327.323
321.517
320.409
319.708
321.29
320.839
320.339
320.335
319.964
321.184
320.249
320.519
320.5
323.054
319.151
320.487
320.843
319.046
322.317
318.58
321.374
318.902
316.344
317.163
316.347
315.115
316.329
315.963
315.861
314.684
316.897
316.538
317.262
315.832
316.007
315.103
314.684
316.984
316.576
316.562
317.938
313.616
314.245
310.257
312.96
313.788
313.019
313.344
312.098
312.844
312.456
312.476
312.605
314.106
310.598
311.221
313.669
312.092
312.051
313.831
314.385
308.854
308.918
310.906
309.261
308.006
309.857
309.289
309.308
308.527
308.008
308.133
308.629
310.821
310.368
307.681
308.52
308.377
308.331
309.414
311.171
305.499
304.362
303.752
305.337
305.196
304.673
306.032
304.975
304.952
306.175
306.418
306.676
305.556
306.268
306.476
304.527
305.298
305.801
303.661
305.988
301.586
300.148
301.148
302.755
302.824
299.882
301.829
302.522
301.24
302.731
301.454
301.946
300.995
299.924
302.121
301.83
303.236
300.564
301.886
301.923
331.037
329.956
328.621
328.976
328.711
327.136
328.987
330.373
328.103
330.987
329.958
330.255
329.794
328.391
328.137
329.682
328.826
329.121
329.589
332.429
325.939
324.064
322.45
326.288
324.277
325.639
323.038
324.268
325.773
326.019
324.583
323.901
324.057
323.658
325.355
326.452
324.77
325.505
324.708
326.869
323.448
323.162
320.144
322.16
320.037
320.631
320.714
322.003
321.262
320.175
320.386
321.478
321.072
320.784
320.048
320.63
321.856
320.552
321.042
321.734
317.144
316.63
316.038
316.553
315.713
315.463
317.042
316.689
317.606
318.713
316.276
319.283
316.98
318.198
317.364
315.252
316.535
316.702
317.524
318.459
313.239
312.647
312.266
312.407
312.863
312.299
312.544
312.9
312.633
313.285
314.443
313.562
313.313
313.056
315.031
313.527
312.399
313.808
313.795
314.965
309.047
308.829
309.966
309.874
309.578
309.711
308.471
308.011
308.382
307.783
309.403
310.532
309.164
309.309
309.477
309.549
309.704
308.085
309.373
310.615
305.882
305.227
304.304
305.985
303.942
305.452
305.888
305.126
305.466
305.435
305.845
306.803
305.121
306.543
303.85
306.464
304.295
305.496
305.564
305.18
301.666
302.87
301.566
301.975
303.513
303.041
302.271
302.535
301.921
301.534
299.175
302.516
302.455
302.705
303.032
301.693
299.74
302.941
301.999
301.747
330.374
330.456
330.162
329.012
330.296
327.081
327.794
329.324
330.157
327.939
330.727
330.808
330.023
329.484
329.431
328.862
328.142
329.443
331.944
331.933
326.817
324.779
325.942
324.915
325.432
324.505
324.31
325.149
324.963
325.383
325.344
324.952
325.541
325.633
324.911
327.367
324.272
326.031
324.837
325.788
322.53
321.098
321.567
321.876
320.007
319.91
321.53
321.921
322.269
320.435
322.082
322.353
324.113
322.052
322.271
320.6
320.722
321.348
321.916
322.6
317.58
319.192
315.396
316.305
318.07
317.868
316.936
317.351
316.918
317.241
317.734
317.889
317.094
318.376
319.232
315.856
318.424
316.473
317.125
319.096
314.183
312.653
312.854
312.976
314.085
313.224
313.923
312.474
311.978
313.086
311.914
312.474
312.928
314.505
312.349
312.41
312.089
313.76
313.713
314.815
310.644
308.935
307.757
309.714
308.311
309.657
309.409
310.078
310.171
307.825
310.31
308.009
309.988
308.461
308.532
309.305
309.45
309.734
310.838
310.694
305.788
306.121
307.878
305.653
305.487
304.017
304.455
305.665
304.574
305.4
305.787
306.769
305.19
304.777
306.308
305.243
306.298
306.074
305.406
304.217
300.168
301.803
303.3
301.186
302.007
302.432
302.814
302.121
301.239
301.287
300.804
302.267
301.355
302.103
302.77
303.204
300.526
301.158
301.605
302.755
332.27
332.258
330.175
330.862
330.733
330.314
329.69
329.696
329.971
330.424
332.587
332.434
330.431
331.592
330.486
331.271
331.801
330.424
330.843
333.577
329.105
325.51
324.48
325.674
325.481
325.656
325.916
326.574
327.73
328.315
328.956
326.482
326.9
326.29
325.964
327.27
326.674
326.719
327.131
327.806
321.601
322.742
322.965
321.518
321.518
321.814
321.98
323.361
321.671
321.656
321.584
323.756
320.627
322.257
321.662
321.636
321.359
321.875
323.763
324.305
317.917
319.184
319.19
317.803
318.363
318.652
317.023
316.79
318.001
316.875
319.779
317.474
317.767
317.908
318.561
317.925
317.642
318.824
318.051
318.633
316.895
315.078
314.382
313.997
314.713
312.373
313.362
314.936
313.71
314.076
312.856
316.266
313.834
312.691
314.148
313.963
312.354
314.169
313.696
315.918
310.937
311.038
309.184
310.79
310.995
310.834
309.512
311.1
310.493
308.729
311.485
309.047
308.801
308.183
309.181
307.163
310.007
310.126
309.878
313.804
308.008
303.986
305.522
303.688
304.893
304.777
304.486
305.28
305.627
304.986
305.559
306.012
307.461
305.452
306.094
305.519
305.714
304.362
307.488
305.515
301.884
301.726
302.075
300.188
302.279
300.809
302.365
300.83
301.457
302.241
302.079
301.604
301.986
302.23
301.243
300.856
301.663
302.254
301.552
301.561
333.394
332.956
333.032
331.173
333.07
330.819
332.865
331.457
332.811
332.947
330.844
331.657
331.689
332.226
331.465
332.315
331.287
332.928
332.459
333.429
327.404
325.564
326.56
326.395
325.829
326.476
327.666
326.844
326.779
327.031
326.797
328.04
326.236
325.589
325.887
326.297
325.802
329.318
325.855
328.241
323.563
322.64
323.211
322.516
321.65
323.486
322.118
325.549
321.743
323.381
322.433
322.906
321.952
323.671
321.89
322.319
322.762
322.352
322.428
324.943
319.359
318.795
319.316
319.365
318.773
317.009
319.227
318.564
318.164
317.8
319.878
318.799
319.106
318.256
318.597
319.794
319.625
320.211
319.072
318.918
314.348
315.403
313.094
313.949
314.228
313.542
313.919
315.907
314.392
313.818
311.871
315.213
314.695
314.575
315.426
313.603
315.654
315.977
315.714
315.84
310.732
308.729
309.44
308.854
311.143
310.083
309.832
308.096
307.617
308.996
309.987
309.332
308.645
310.512
310.032
311.058
310.059
311.893
311.844
310.399
306.213
307.072
304.611
305.781
305.2
305.496
306.117
306.285
305.17
306.02
304.879
306.775
305.475
307.501
306.829
306.263
306.475
305.456
305.916
305.936
302.707
300.657
301.756
302.838
301.65
301.952
302.207
302.564
302.063
303.292
300.853
302.204
300.787
301.829
303.04
303.182
302.774
302.979
299.51
303.557
334.076
332.632
332.263
333.444
332.575
331.782
331.395
331.857
334.49
332.244
331.049
333.486
334.207
333.32
331.815
332.649
333.41
330.586
334.83
333.842
330.101
326.51
327.946
326.887
327.59
327.374
327.231
327.861
327.737
327.42
327.097
328.345
327.726
329.02
327.036
327.624
327.27
328.187
326.7
329.226
325.272
323.718
324.714
321.822
322.762
322.038
322.804
323.693
324.837
322.728
323.31
324.872
324.219
323.304
321.689
323.548
324.879
323.274
324.099
324.392
321.117
318.166
319.066
320.872
318.913
319.557
318.987
318.225
318.453
318.162
319.834
319.795
319.865
320.418
318.047
319.62
319.16
321.105
320.735
319.25
316.185
315.922
314.531
314.474
315.734
313.719
316.148
316.389
313.555
313.243
315.834
316.924
315.439
313.985
315.069
316.287
315.968
314.806
316.026
316.31
311.241
311.13
309.953
310.725
310.172
311.28
310.058
309.471
309.216
311.754
309.379
311.112
311.688
311.13
310.018
310.376
308.539
312.538
310.04
311.492
305.95
307.423
305.296
305.676
306.211
305.515
305.879
305.267
307.044
305.384
308.104
306.959
306.195
305.836
305.949
306.904
306.083
306.855
305.777
306.732
301.349
303.851
302.002
300.932
303.091
301.283
301.718
301.886
302.344
301.358
302.252
302.202
303.274
302.18
301.934
302.066
301.99
303.383
303.409
301.973
336.338
335.102
334.133
332.767
332.918
333.724
333.456
332.977
334.946
332.187
334.019
334.033
332.793
333.814
333.475
333.919
333.256
335.292
335.282
335.569
330.553
329.817
329.194
329.993
328.385
329.545
327.59
329.858
327.901
329.377
330.089
329.882
328.868
328.12
329.385
328.771
328.385
329.813
330.489
330.746
325.721
324.134
325.269
325.257
321.878
324.624
322.539
323.982
324.859
325.871
324.566
324.472
323.704
323.568
324.748
323.886
323.511
327.032
324.034
324.611
319.902
321.264
319.031
318.698
318.807
320.541
319.794
320.892
320.196
320.971
321.047
321.398
317.881
319.082
318.795
317.302
320.14
319.106
319.83
320.37
315.936
316.06
315.848
314.844
314.595
314.585
315.431
314.27
316.98
314.743
317.186
316.551
314.302
314.626
313.869
316.084
315.007
316.018
316.237
317.222
312.591
312.125
312.71
310.734
311.08
309.593
309.035
311.255
311.818
310.535
312.036
310.146
311.676
311.046
309.617
311.3
310.025
309.87
310.016
310.697
306.899
308.646
306.683
308.28
308.6
305.26
306.786
305.329
305.985
306.74
306.081
305.815
305.257
305.406
307.212
305.004
306.872
306.733
307.523
305.806
301.778
304.043
302.052
303.284
303.447
302.327
303.367
302.278
301.059
302.177
303.232
302.299
302.774
304.113
303.026
302.847
301.746
303.971
301.95
301.478
334.858
334.061
334.333
334.007
334.521
334.742
334.316
333.956
334.396
335.316
335.624
334.152
334.661
334.478
335.583
335.213
335.07
336.009
336.635
337.387
332.163
328.815
329.715
328.881
329.01
330.612
327.658
329.429
329.893
329.529
329.386
329.607
329.496
330.095
329.145
331.042
328.931
329.925
328.439
330.862
326.541
325.681
326.75
325.116
323.939
324.763
323.605
324.501
324.364
326.257
324.789
324.492
324.524
323.345
325.525
325.152
325.192
324.707
325.063
327.409
319.876
320.637
320.233
321.752
320.109
319.711
319.644
320.061
321.536
320.645
323.113
320.829
320.805
320.956
320.121
320.532
319.982
320.254
321.058
321.48
316.527
317.141
316.476
314.399
315.618
315.596
315.109
315.861
316.595
317.175
316.969
315.881
315.429
315.383
316.874
316.395
315.929
315.405
315.949
316.675
312.477
309.979
310.301
311.142
310.289
310.678
310.692
311.172
312.621
310.246
312.849
310.962
310.502
311.06
311.643
312.227
309.831
311.315
310.643
312.144
306.962
306.289
306.511
307.302
305.934
306.114
306.838
304.286
305.955
307.018
306.962
306.339
306.758
307.133
306.362
306.016
306.667
307.005
306.765
306.145
303.831
302.835
303.953
301.426
302.066
303.031
301.417
301.548
302.501
302.741
302.382
300.884
301.942
301.772
304.048
301.063
301.093
302.753
303.518
302.564
337.513
336.435
337.537
335.912
332.564
335.444
335.505
335.024
335.999
335.075
334.909
334.847
335.592
335.401
337.603
334.662
335.747
336.997
336.885
338.164
331.179
331.904
332.493
331.715
330.616
329.707
330.152
331.555
329.879
329.847
331.505
332.58
331.052
331.401
329.351
331.071
329.234
330.636
331.359
332.709
326.512
327.209
328.367
324.855
325.96
325.049
324.309
325.855
324.729
325.961
325.594
324.872
325.625
326.22
325.317
326.495
326.289
327.481
326.665
325.426
323.723
321.931
321.705
323.088
320.682
321.738
321.394
321.024
320.815
322.028
320.47
320.207
320.632
321.67
320.096
321.49
320.133
320.969
321.258
322.949
316.457
315.004
316.194
316.221
315.35
313.83
316.162
316.58
315.507
317.736
314.596
318.609
315.997
316.873
316.01
316.328
315.267
317.435
316.907
318.613
311.051
312.879
311.59
313.258
312.256
311.593
312.356
311.068
312.671
312.184
311.386
310.766
311.733
313.228
309.666
309.892
312.109
310.753
311.588
311.662
306.818
306.5
308.467
306.786
307.564
305.836
305.955
308.264
307.469
305.611
307.998
307.586
305.902
308.64
304.964
305.589
306.736
306.793
307.247
307.55
302.656
301.231
303.734
302.315
302.605
303.692
302.268
301.247
303.964
302.96
303.652
302.147
303.058
302.592
302.48
301.659
301.579
302.603
302.297
302.914
339.016
338.728
336.266
337.646
337.588
336.599
337.635
335.723
336.233
336.336
336.084
339.199
336.099
336.063
336.398
336.034
338.072
338.487
338.223
338.272
333.854
331.06
331.351
331.869
329.356
331.56
331.544
331.893
331.255
331.575
331.472
331.088
331.814
331.029
331.835
331.086
331.937
330.27
331.375
332.193
328.452
327.371
328.29
326.666
327.667
325.851
326.445
325.358
325.789
327.012
325.687
327.175
326.31
325.016
325.731
326.512
326.016
327.337
327.929
327.842
322.59
322.066
323.291
321.732
320.643
321.031
321.737
321.727
319.974
322.157
320.917
321.028
322.23
321.311
321.155
322.238
319.512
322.348
323.907
322.09
317.654
318.261
315.741
316.524
316.682
316.415
315.442
317.154
317.778
315.949
316.463
315.941
316.384
315.426
318.912
316.346
315.748
315.18
316.584
317.132
312.351
311.764
311.386
311.957
312.533
310.852
310.968
310.729
312.157
311.306
312.378
311.006
311.284
312.342
312.202
311.987
312.264
312.29
311.086
312.138
307.942
307.785
306.262
307.632
305.282
307.569
307.169
306.685
307.592
308.247
307.452
306.722
306.673
305.089
305.067
307.317
308.404
308.391
307.663
308.159
302.827
302.386
302.909
303.383
303.269
303.663
302.514
301.567
302.132
302.489
302.896
300.999
302.604
302.248
302.16
303.046
301.89
303.13
302.093
303.051
338.911
340.155
337.918
337.889
337.282
338.558
336.528
338.605
337.716
337.994
337.483
337.67
337.385
337.73
339.127
337.711
338.325
337.753
339.245
341.491
335.88
334.617
332.874
332.015
332.033
331.941
333.421
332.614
333.224
333.735
332.6
331.101
332.042
330.652
330.535
331.445
333.206
332.219
333.229
333.421
329.52
328.12
327.64
327.307
326.535
327.265
328.191
327.649
327.051
325.746
328.254
327.837
326.407
327.669
326.438
328.408
326.919
328.432
328.228
327.414
323.213
323.209
324.454
322.231
322.374
320.942
320.743
322.313
320.795
322.216
321.589
321.705
322.34
321.967
322.487
322.741
322.807
321.965
322.896
322.638
317.073
318.092
315.9
319.073
317.031
318.849
317.247
317.535
317.677
316.198
317.595
317.063
317.686
315.737
317.364
315.722
316.804
317.938
317.752
318.133
310.646
311.343
312.972
310.769
312.554
313.675
311.113
312.356
311.389
313.489
310.893
311.788
311.843
312.032
313.594
311.586
312.678
314.076
313.616
311.295
307.282
306.353
306.878
305.818
307.797
306.744
307.789
307.094
308.225
306.487
306.464
306.723
308.14
307.162
307.846
307.268
308.359
306.052
307.243
306.868
301.96
303.569
304.875
302.86
303.94
302.956
301.572
301.844
300.737
302.874
300.579
303.307
302.02
301.997
301.744
301.98
301.577
301.529
302.855
301.991
341.621
341.68
339.063
340.678
339.064
338.267
338.395
338.246
337.052
339.127
338.73
339.561
339.369
338.367
339.724
338.702
338.65
339.372
340.527
341.305
335.231
334.258
335.618
333.622
333.674
333.955
332.8
333.785
332.58
334.312
334.512
333.517
333.795
332.878
333.934
333.65
333.88
332.531
333.596
333.133
329.362
328.978
329.541
327.97
328.248
326.256
328.095
328.323
329.525
328.593
327.158
328.302
327.772
327.157
326.238
327.206
327.044
328.065
329.325
329.255
323.903
324.003
323.699
324.041
323.364
322.25
322.109
322.681
322.955
321.774
322.759
322.021
321.826
324.1
321.911
322.83
324.199
322.672
323.146
324.365
320.17
319.115
318.969
318.849
318.037
318.072
316.054
318.389
317.324
317.513
316.776
319.049
318.459
318.786
316.905
317.583
317.13
317.083
316.615
318.216
314.112
314.304
312.001
313.312
311.133
312.233
311.163
310.847
313.645
312.582
312.549
313.341
313.006
310.94
310.731
311.216
312.138
312.39
314.009
313.205
307.658
307.718
306.974
308.368
306.822
308.007
309.689
305.325
305.71
308.652
307.915
307.152
307.85
307.263
310.272
306.761
306.978
308.494
309.701
307.985
303.515
304.677
300.57
303.29
303.709
302.328
302.106
302.644
301.703
303.04
302.104
303.439
301.775
301.343
301.217
302.044
301.854
302.548
301.861
304.276
342.159
342.084
343.143
340.11
340.541
340.441
340.056
340.265
338.518
339.301
338.766
338.259
339.854
337.84
340.212
340.639
340.163
341.294
342.548
339.827
337.277
337.416
334.821
335.653
334.157
332.974
332.358
333.594
332.35
335.535
332.749
335.349
333.929
333.432
334.671
334.681
334.033
334.15
334.133
336.013
330.21
329.538
329.616
327.417
329.521
329.299
326.522
328.964
328.907
329.929
328.55
326.448
328.413
328.25
326.903
328.981
328.602
329.204
329.352
331.856
325.936
324.371
324.614
323.583
324.619
324.556
322.186
323.682
323.422
324.617
324.569
324.245
324.633
323.06
323.221
323.494
323.69
324.229
325.387
323.49
320.127
319.712
318.758
315.675
317.299
318.566
318.252
318.621
319.983
317.403
316.855
316.697
316.229
318.639
317.819
316.861
316.711
318.417
317.374
318.04
314.663
313.03
315.1
314.443
313.188
312.363
312.608
310.904
312.315
313.03
311.602
312.499
312.77
312.11
311.901
310.483
312.787
312.027
313.64
313.376
308.403
307.192
306.918
308.63
307.443
308.038
307.039
307.132
308.083
307.439
307.753
308.763
307.834
307.384
307.818
306.225
308.797
308.697
307.809
308.925
302.507
302.394
300.555
302
304.273
301.807
301.86
301.558
303.027
301.845
303.673
302.47
303.59
302.382
301.396
302.759
302.397
303.974
302.12
302.643
344.515
341.58
340.846
341.86
340.596
339.277
340.576
339.844
340.076
341.335
340.486
340.685
341.276
340.12
338.875
342.847
340.9
342.446
342.483
344
337.118
336.734
334.926
337.099
335.688
337.261
335.532
336.978
333.671
337.133
337.082
334.791
336.823
335.016
336.989
334.73
336.872
333.775
336.684
336.859
332.392
330.667
329.91
330.998
329.589
328.785
328.966
328.134
329.455
330.173
329.117
329.675
330.797
329.595
326.426
331.06
328.224
329.888
329.988
330.937
324.481
324.815
325.47
324.892
324.287
325.102
322.345
323.615
324.016
323.223
322.691
323.523
323.915
324.58
321.959
323.638
323.106
322.811
325.593
324.59
320.557
320.642
319.504
317.249
317.268
317.299
318.933
317.973
319.448
318.917
318.246
318.977
318.591
318.113
317.375
320.922
317.498
318.749
318.183
318.429
314.759
315.459
311.539
312.949
313.134
313.219
312.861
310.767
313.881
313.263
312.917
311.299
311.815
312.332
312.273
311.416
312.652
312.861
315.826
314.454
308.014
306.83
307.923
308.27
307.042
307.917
307.714
309.626
309.181
305.533
307.705
308.178
305.936
305.857
308.972
307.739
305.302
307.702
310.179
308.513
303.081
301.913
302.461
301.575
302.687
302.897
301.073
301.995
302.706
301.737
303.203
301.106
303.009
303.658
301.411
303.59
301.917
302.692
303.454
305.256
345.275
344.117
343.188
342.837
342.274
342.611
341.154
342.211
340.936
342.11
340.692
341.751
340.646
340.916
341.449
342.136
343.039
342.844
344.259
341.444
337.539
336.464
336.955
335.131
337.468
335.98
336.402
335.703
333.287
333.38
333.399
335.163
335.182
333.61
335.149
334.753
336.23
336.218
336.505
336.457
332.695
331.708
331.367
331.859
329.559
329.686
330.544
330.16
328.821
329.464
328.794
329.415
329.132
328.135
330.053
329.578
328.397
331.534
331.129
332.868
325.204
326.833
324.83
325.836
325.881
322.699
324.701
324.872
324.417
324.445
323.726
323.34
324.132
322.676
324.389
324.629
323.771
326.272
322.898
325.011
320.206
319.958
319.785
319.161
318.808
319.4
319.95
318.103
317.704
318.389
319.897
318.187
319.32
318.969
319.635
317.851
319.606
317.492
319.028
319.679
312.846
314.209
314.887
313.851
312.445
312.501
314.497
312.998
314.413
311.965
313.134
310.937
314.152
311.643
311.409
313.619
313.516
312.568
312.69
313.587
307.859
307.401
307.487
308.741
307.713
309.431
308.088
309.038
307.749
307.815
307.991
308.535
307.788
308.467
307.38
307.173
308.045
307.731
308.89
308.315
301.795
301.698
303.334
303.633
303.057
304.941
302.648
304.317
303.991
301.966
302.386
304.614
301.286
303.895
303.152
302.555
303.401
303.328
302.419
303.396
)
;

boundaryField
{
    hotSide
    {
        type            fixedGradient;
        gradient        nonuniform List<scalar> 
400
(
321.511
322.87
325.591
329.677
335.133
341.965
350.181
359.788
370.794
383.208
397.037
412.289
428.971
447.088
466.647
487.651
510.105
534.011
559.372
586.191
323.738
325.08
327.767
331.802
337.194
343.949
352.078
361.591
372.498
384.81
398.537
413.687
430.268
448.289
467.755
488.672
511.043
534.872
560.161
586.913
326.149
327.47
330.116
334.091
339.406
346.071
354.099
363.503
374.296
386.491
400.101
415.136
431.606
449.52
468.885
489.706
511.988
535.735
560.948
587.63
328.704
330
332.597
336.503
341.73
348.292
356.205
365.485
376.15
388.215
401.695
416.604
432.954
450.753
470.009
490.73
512.919
536.579
561.714
588.325
331.33
332.599
335.142
338.97
344.099
350.546
358.332
367.477
378.003
389.928
403.271
418.047
434.27
451.949
471.095
491.712
513.807
537.382
562.439
588.978
333.918
335.158
337.643
341.389
346.414
352.74
360.392
369.397
379.779
391.562
404.765
419.407
435.503
453.065
472.101
492.618
514.622
538.114
563.096
589.569
336.321
337.531
339.959
343.622
348.544
354.751
362.274
371.142
381.385
393.031
406.101
420.618
436.595
454.047
472.983
493.409
515.33
538.747
563.663
590.076
338.36
339.543
341.92
345.509
350.339
356.44
363.847
372.595
382.718
394.244
407.2
421.608
437.485
454.844
473.695
494.045
515.897
539.253
564.114
590.478
339.852
341.015
343.352
346.885
351.645
357.665
364.985
373.643
383.675
395.113
407.984
422.312
438.116
455.407
474.197
494.491
516.294
539.606
564.428
590.758
340.643
341.795
344.11
347.613
352.334
358.311
365.584
374.193
384.176
395.567
408.393
422.679
438.443
455.699
474.456
494.722
516.498
539.788
564.589
590.901
340.643
341.795
344.11
347.613
352.334
358.311
365.584
374.193
384.176
395.567
408.393
422.679
438.443
455.699
474.456
494.722
516.498
539.788
564.589
590.901
339.852
341.015
343.352
346.885
351.645
357.665
364.985
373.643
383.675
395.113
407.984
422.312
438.116
455.407
474.197
494.491
516.294
539.606
564.428
590.758
338.36
339.543
341.92
345.509
350.339
356.44
363.847
372.595
382.718
394.244
407.2
421.608
437.485
454.844
473.695
494.045
515.897
539.253
564.114
590.478
336.321
337.531
339.959
343.622
348.544
354.751
362.274
371.142
381.385
393.031
406.101
420.618
436.595
454.047
472.983
493.409
515.33
538.747
563.663
590.076
333.918
335.158
337.643
341.389
346.414
352.74
360.392
369.397
379.779
391.562
404.765
419.407
435.503
453.065
472.101
492.618
514.622
538.114
563.096
589.569
331.33
332.599
335.142
338.97
344.099
350.546
358.332
367.477
378.003
389.928
403.271
418.047
434.27
451.949
471.095
491.712
513.807
537.382
562.439
588.978
328.704
330
332.597
336.503
341.73
348.292
356.205
365.485
376.15
388.215
401.695
416.604
432.954
450.753
470.009
490.73
512.919
536.579
561.714
588.325
326.149
327.47
330.116
334.091
339.406
346.071
354.099
363.503
374.296
386.491
400.101
415.136
431.606
449.52
468.885
489.706
511.988
535.735
560.948
587.63
323.738
325.08
327.767
331.802
337.194
343.949
352.078
361.591
372.498
384.81
398.537
413.687
430.268
448.289
467.755
488.672
511.043
534.872
560.161
586.913
321.511
322.87
325.591
329.677
335.133
341.965
350.181
359.788
370.794
383.208
397.037
412.289
428.971
447.088
466.647
487.651
510.105
534.011
559.372
586.191
)
;
    }
    coldSide
    {
        type            mixed;
        refValue        uniform 300;
        refGradient     uniform 0;
        valueFraction   uniform 0.991591;
        source          uniform 0;
        value           nonuniform List<scalar> 
400
(
300.014
300.017
300.019
300.009
300.02
300.013
300.014
300.001
300.016
300.023
300.011
300.015
300.032
300.022
300.024
300.016
300.03
300.021
300.026
300.015
300.011
300.019
300.016
300.023
300.03
300.001
300.024
300.015
300.015
300.006
300.032
300.034
300.024
300.01