/*--------------------------------*- C++ -*----------------------------------*\
| =========                 |                                                 |
| \\      /  F ield         | OpenFOAM: The Open Source CFD Toolbox           |
|  \\    /   O peration     | Version:  2212                                  |
|   \\  /    A nd           | Website:  www.openfoam.com                      |
|    \\/     M anipulation  |                                                 |
\*---------------------------------------------------------------------------*/
FoamFile
{
    version     2.0;
    format      ascii;
    arch        "LSB;label=32;scalar=64";
    class       volScalarField;
    location    "0";
    object      stateMean;
}
// * * * * * * * * * * * * * * * * * * * * * * * * * * * * * * * * * * * * * //

dimensions      [0 0 0 1 0 0 0];

internalField   nonuniform List<scalar> 
3200
(
347.254
348.162
349.423
350.28
351.235
351.916
352.46
352.881
353.091
353.302
353.188
352.954
352.585
352.066
351.391
350.494
349.642
348.606
347.466
346.399
341.165
342.045
342.957
343.773
344.559
345.191
345.665
346.034
346.238
346.312
346.361
346.056
345.785
345.243
344.732
344.038
343.246
342.293
341.276
340.396
334.939
335.725
336.455
337.131
337.78
338.323
338.809
339.114
339.295
339.356
339.323
339.066
338.798
338.518
338.029
337.371
336.674
335.906
335.057
334.427
328.729
329.255
329.947
330.58
330.999
331.389
331.783
332.072
332.232
332.322
332.233
332.107
331.908
331.542
331.161
330.641
330.083
329.473
328.761
328.174
322.336
322.789
323.288
323.792
324.207
324.573
324.862
325.016
325.126
325.213
325.197
325.072
324.931
324.63
324.341
323.916
323.466
323.042
322.4
322.029
316.083
316.392
316.687
317.064
317.313
317.584
317.779
317.942
317.962
318.08
318.018
318.012
317.735
317.66
317.371
317.109
316.863
316.409
316.053
315.784
309.638
309.825
310.12
310.244
310.43
310.557
310.655
310.76
310.742
310.843
310.896
310.729
310.708
310.63
310.412
310.345
310.091
309.924
309.659
309.429
303.159
303.333
303.377
303.453
303.423
303.524
303.572
303.571
303.674
303.633
303.624
303.653
303.602
303.591
303.534
303.375
303.427
303.386
303.293
303.137
348.425
349.355
350.543
351.549
352.279
353.088
353.654
354.116
354.35
354.406
354.319
354.142
353.8
353.23
352.509
351.676
350.798
349.646
348.431
347.375
342.078
342.84
343.87
344.764
345.442
346.101
346.62
347.019
347.172
347.309
347.261
347.083
346.722
346.226
345.638
344.964
344.141
343.172
342.135
341.208
335.737
336.428
337.165
337.942
338.602
339.106
339.545
339.924
340.047
340.098
340.055
339.918
339.68
339.215
338.747
338.109
337.478
336.641
335.798
335.023
329.356
329.912
330.485
331.186
331.665
332.131
332.432
332.741
332.895
332.916
332.895
332.761
332.485
332.162
331.827
331.248
330.703
330.06
329.411
328.816
322.813
323.263
323.863
324.276
324.629
324.971
325.318
325.503
325.61
325.666
325.598
325.544
325.367
325.063
324.81
324.388
323.974
323.381
322.942
322.433
316.368
316.726
317.054
317.367
317.686
317.901
318.095
318.214
318.378
318.378
318.266
318.255
318.179
317.926
317.683
317.465
317.129
316.698
316.389
316.055
309.831
310.072
310.245
310.405
310.497
310.775
310.861
310.93
311.082
311.076
311.023
311.01
310.945
310.789
310.6
310.504
310.301
310.075
309.827
309.728
303.367
303.405
303.401
303.519
303.527
303.617
303.674
303.757
303.694
303.668
303.711
303.648
303.611
303.635
303.599
303.58
303.455
303.381
303.31
303.287
349.785
350.763
351.939
352.953
353.926
354.609
355.256
355.63
355.961
356.078
355.983
355.798
355.289
354.785
354.028
353.136
352.257
351.091
349.94
348.756
343.262
344.152
345.14
345.982
346.773
347.439
347.987
348.298
348.603
348.611
348.617
348.372
348.013
347.664
346.95
346.151
345.353
344.434
343.349
342.52
336.686
337.395
338.25
338.968
339.743
340.198
340.705
341.025
341.147
341.327
341.226
341.045
340.753
340.372
339.809
339.203
338.508
337.664
336.747
336.02
330.088
330.73
331.414
332.034
332.491
332.952
333.357
333.612
333.763
333.796
333.813
333.645
333.334
333.122
332.652
332.131
331.56
330.851
330.173
329.538
323.478
323.827
324.464
324.918
325.314
325.678
325.98
326.193
326.278
326.358
326.32
326.281
326.087
325.822
325.481
325.045
324.51
324.046
323.463
323.017
316.796
317.11
317.459
317.765
318.155
318.392
318.56
318.731
318.853
318.849
318.801
318.77
318.616
318.446
318.158
317.872
317.614
317.166
316.806
316.392
310.059
310.264
310.47
310.727
310.946
311.037
311.173
311.208
311.304
311.259
311.35
311.293
311.192
311.07
310.96
310.794
310.611
310.373
310.135
309.889
303.381
303.496
303.487
303.617
303.59
303.646
303.72
303.795
303.745
303.797
303.835
303.836
303.775
303.703
303.64
303.647
303.56
303.423
303.361
303.365
351.327
352.342
353.521
354.614
355.491
356.34
356.89
357.35
357.598
357.689
357.724
357.419
356.97
356.404
355.683
354.838
353.741
352.634
351.356
350.264
344.505
345.463
346.478
347.359
348.13
348.943
349.436
349.791
349.992
350.137
350.123
349.874
349.488
349.001
348.312
347.563
346.676
345.715
344.607
343.69
337.754
338.574
339.377
340.24
340.921
341.475
341.929
342.172
342.462
342.577
342.422
342.179
341.99
341.559
340.962
340.35
339.592
338.731
337.822
337.087
331.007
331.564
332.242
332.933
333.485
334.043
334.347
334.654
334.765
334.808
334.885
334.683
334.451
334.047
333.572
333.094
332.477
331.775
331.07
330.394
324.197
324.668
325.099
325.638
326.101
326.501
326.696
326.991
327.136
327.071
327.153
327.027
326.835
326.441
326.182
325.807
325.286
324.756
324.165
323.662
317.309
317.576
318.044
318.324
318.637
318.913
319.109
319.296
319.43
319.426
319.351
319.302
319.18
319.015
318.7
318.468
318.061
317.668
317.306
316.919
310.391
310.538
310.858
311.072
311.211
311.38
311.53
311.624
311.719
311.67
311.657
311.555
311.485
311.442
311.281
311.031
310.87
310.614
310.424
310.236
303.48
303.558
303.623
303.665
303.795
303.777
303.842
303.893
303.913
303.928
303.858
303.88
303.886
303.817
303.801
303.677
303.709
303.565
303.453
303.474
352.839
353.914
355.1
356.249
357.191
357.916
358.583
358.931
359.308
359.43
359.398
359.127
358.626
358.1
357.328
356.415
355.33
354.165
352.819
351.687
345.884
346.834
347.94
348.788
349.677
350.378
350.865
351.267
351.484
351.631
351.592
351.311
351.042
350.466
349.818
348.969
348.052
347
345.858
344.925
338.953
339.679
340.499
341.333
342.094
342.689
343.185
343.456
343.676
343.867
343.69
343.488
343.227
342.811
342.205
341.49
340.738
339.818
338.96
338.12
331.903
332.497
333.222
333.898
334.466
334.976
335.303
335.631
335.785
335.824
335.827
335.671
335.417
335.07
334.536
334.007
333.35
332.702
331.927
331.256
324.864
325.295
325.842
326.38
326.827
327.22
327.489
327.692
327.912
327.968
327.903
327.773
327.565
327.353
326.952
326.518
325.999
325.434
324.853
324.347
317.83
318.156
318.51
318.869
319.216
319.505
319.688
319.787
319.913
319.984
319.944
319.905
319.663
319.471
319.286
318.956
318.525
318.258
317.809
317.452
310.697
310.866
311.086
311.366
311.523
311.69
311.814
311.925
312.007
312.023
311.98
311.949
311.862
311.786
311.55
311.375
311.162
310.93
310.673
310.489
303.623
303.619
303.663
303.754
303.863
303.971
303.963
304.04
304.022
304.036
304.005
304.02
303.987
303.956
303.924
303.764
303.778
303.696
303.571
303.482
354.353
355.347
356.713
357.845
358.782
359.639
360.301
360.741
360.994
361.15
361.084
360.807
360.335
359.722
358.86
357.984
356.893
355.646
354.277
353.157
347.214
348.072
349.197
350.215
351.049
351.774
352.359
352.676
353.011
353.061
353.005
352.734
352.43
351.855
351.131
350.31
349.39
348.265
347.198
346.151
340.023
340.752
341.712
342.482
343.241
343.862
344.399
344.678
344.921
344.937
344.908
344.787
344.462
343.971
343.375
342.659
341.865
340.94
340.049
339.194
332.742
333.374
334.17
334.879
335.488
335.959
336.354
336.649
336.735
336.914
336.86
336.632
336.476
336.051
335.549
334.977
334.355
333.543
332.758
332.112
325.533
326.062
326.577
327.109
327.613
328.029
328.31
328.5
328.698
328.703
328.64
328.574
328.338
328.056
327.706
327.256
326.755
326.125
325.547
325.053
318.275
318.576
319.105
319.419
319.8
320.05
320.245
320.417
320.614
320.54
320.454
320.345
320.253
320.085
319.787
319.491
319.091
318.707
318.216
317.966
311.03
311.211
311.451
311.699
311.809
312.04
312.148
312.238
312.31
312.315
312.259
312.326
312.206
312.08
311.969
311.736
311.457
311.226
310.961
310.794
303.746
303.777
303.833
303.945
303.986
304.054
304.144
304.09
304.12
304.165
304.146
304.106
304.106
304.04
303.975
303.955
303.962
303.75
303.698
303.708
355.705
356.921
358.191
359.339
360.335
361.197
361.838
362.299
362.629
362.718
362.671
362.356
361.908
361.284
360.488
359.478
358.354
357.15
355.739
354.492
348.406
349.456
350.484
351.546
352.412
353.123
353.704
354.093
354.415
354.445
354.337
354.242
353.869
353.15
352.463
351.672
350.676
349.534
348.367
347.404
341.069
341.92
342.839
343.709
344.376
345.092
345.494
345.865
346.11
346.194
346.07
345.929
345.521
345.161
344.519
343.822
342.977
342.031
341.012
340.207
333.717
334.348
335.106
335.776
336.424
336.867
337.325
337.604
337.767
337.86
337.754
337.626
337.363
336.958
336.466
335.855
335.188
334.403
333.59
332.964
326.224
326.725
327.295
327.828
328.385
328.73
329.033
329.301
329.431
329.442
329.479
329.332
329.069
328.752
328.436
327.954
327.387
326.813
326.22
325.681
318.765
319.139
319.501
319.89
320.272
320.639
320.724
320.935
320.924
321.054
320.98
320.932
320.832
320.607
320.381
319.939
319.609
319.196
318.714
318.35
311.279
311.507
311.751
311.953
312.161
312.373
312.423
312.564
312.591
312.679
312.634
312.63
312.46
312.47
312.166
312.021
311.719
311.542
311.262
311.043
303.708
303.809
303.976
303.997
304.058
304.126
304.171
304.222
304.211
304.286
304.224
304.265
304.175
304.163
304.137
304.024
303.998
303.891
303.782
303.702
357.084
358.304
359.621
360.815
361.857
362.684
363.379
363.896
364.155
364.244
364.215
363.916
363.403
362.775
362.002
360.995
359.732
358.464
357.073
355.845
349.607
350.637
351.775
352.783
353.762
354.414
354.938
355.43
355.703
355.819
355.734
355.44
355.13
354.402
353.771
352.942
351.949
350.872
349.636
348.54
342.086
342.872
343.88
344.682
345.56
346.132
346.596
347.015
347.228
347.296
347.231
347.036
346.686
346.205
345.622
344.872
343.95
343.03
342.064
341.192
334.464
335.16
335.957
336.678
337.266
337.83
338.302
338.524
338.69
338.788
338.679
338.516
338.275
337.815
337.402
336.777
336.052
335.223
334.444
333.679
326.944
327.402
327.992
328.632
329.046
329.432
329.755
330.017
330.052
330.179
330.143
330.059
329.745
329.504
329.088
328.664
328.092
327.466
326.819
326.383
319.228
319.572
319.944
320.389
320.747
321.089
321.29
321.469
321.536
321.607
321.515
321.488
321.252
321.123
320.784
320.491
320.047
319.645
319.214
318.774
311.578
311.775
311.927
312.273
312.453
312.737
312.827
312.874
312.942
312.995
312.902
312.85
312.766
312.647
312.583
312.236
312.029
311.777
311.541
311.347
303.908
303.981
303.959
304.137
304.209
304.203
304.346
304.341
304.278
304.363
304.327
304.387
304.325
304.291
304.177
304.15
304.003
304.007
303.844
303.785
358.417
359.666
360.923
362.206
363.258
364.063
364.778
365.276
365.623
365.682
365.584
365.299
364.942
364.24
363.352
362.229
361.094
359.808
358.35
356.992
350.722
351.723
352.967
354.029
354.921
355.679
356.261
356.674
356.995
357.053
357.021
356.713
356.349
355.71
355.096
354.063
353.026
351.988
350.625
349.57
343.027
343.927
344.847
345.721
346.588
347.164
347.742
348.068
348.285
348.434
348.228
348.111
347.753
347.204
346.634
345.854
345.043
344.038
342.937
342.067
335.181
335.978
336.701
337.501
338.076
338.634
339.089
339.385
339.586
339.601
339.602
339.413
339.183
338.706
338.155
337.614
336.849
336.055
335.221
334.457
327.491
328
328.568
329.142
329.661
330.145
330.465
330.649
330.861
330.913
330.785
330.748
330.528
330.128
329.772
329.285
328.681
328.093
327.453
326.902
319.65
319.992
320.459
320.932
321.194
321.534
321.811
321.937
322.06
322.05
322.082
321.893
321.79
321.574
321.239
320.864
320.514
320.048
319.602
319.26
311.837
312.054
312.274
312.54
312.773
313.03
313.111
313.278
313.316
313.194
313.228
313.189
313.136
312.993
312.765
312.626
312.371
312.148
311.747
311.586
303.994
304.066
304.159
304.165
304.239
304.268
304.335
304.454
304.462
304.487
304.426
304.502
304.356
304.38
304.278
304.22
304.086
304.056
303.949
303.877
359.685
360.865
362.232
363.496
364.534
365.473
366.123
366.684
366.932
367.098
367.002
366.691
366.267
365.531
364.603
363.687
362.389
360.996
359.528
358.231
351.82
352.82
354.044
355.071
356.038
356.809
357.477
357.877
358.152
358.239
358.13
357.905
357.521
356.925
356.153
355.303
354.227
352.983
351.722
350.552
343.959
344.745
345.77
346.702
347.5
348.125
348.646
349.062
349.295
349.449
349.283
349.097
348.733
348.2
347.595
346.838
345.912
344.854
343.79
342.85
336.012
336.672
337.539
338.251
338.89
339.503
339.844
340.198
340.342
340.453
340.416
340.192
339.917
339.519
338.891
338.279
337.552
336.769
335.877
335.12
328.108
328.587
329.239
329.819
330.328
330.668
331.077
331.34
331.429
331.472
331.535
331.378
331.077
330.705
330.389
329.877
329.267
328.572
327.949
327.37
320.107
320.368
320.952
321.262
321.715
321.933
322.198
322.415
322.44
322.572
322.49
322.46
322.209
322.016
321.712
321.344
321.005
320.51
320.072
319.606
312.042
312.276
312.537
312.783
313.043
313.181
313.388
313.476
313.53
313.507
313.558
313.467
313.333
313.241
313.028
312.863
312.603
312.355
311.972
311.842
304.04
304.187
304.178
304.359
304.339
304.402
304.439
304.468
304.466
304.549
304.558
304.511
304.57
304.44
304.366
304.231
304.256
304.134
304.049
304.002
360.753
362.054
363.381
364.64
365.813
366.683
367.407
367.958
368.305
368.332
368.253
367.932
367.5
366.702
365.86
364.773
363.505
362.109
360.596
359.333
352.753
353.896
355.044
356.161
357.099
357.919
358.507
359.001
359.266
359.385
359.29
359.007
358.486
357.986
357.144
356.25
355.14
353.91
352.652
351.59
344.756
345.606
346.639
347.642
348.42
349.04
349.584
349.948
350.215
350.291
350.225
350.033
349.689
349.162
348.492
347.732
346.754
345.641
344.652
343.741
336.676
337.407
338.158
338.995
339.736
340.188
340.619
340.999
341.172
341.222
341.117
340.987
340.639
340.245
339.721
339.094
338.242
337.408
336.568
335.805
328.558
329.191
329.774
330.272
330.852
331.28
331.652
331.882
332.046
332.059
332.023
331.925
331.681
331.368
330.918
330.423
329.86
329.261
328.415
327.874
320.376
320.817
321.24
321.66
322.056
322.371
322.663
322.831
322.871
322.954
322.877
322.844
322.697
322.426
322.115
321.765
321.287
320.865
320.319
319.947
312.339
312.584
312.757
313.062
313.268
313.512
313.575
313.718
313.805
313.813
313.709
313.735
313.576
313.453
313.314
313.04
312.802
312.581
312.171
312.044
304.098
304.147
304.29
304.396
304.42
304.559
304.548
304.605
304.588
304.582
304.662
304.569
304.525
304.461
304.444
304.401
304.318
304.245
304.162
304.051
361.787
363.13
364.538
365.804
366.938
367.821
368.531
369.106
369.389
369.549
369.469
369.164
368.619
367.903
366.982
365.987
364.582
363.182
361.602
360.209
353.748
354.78
356.041
357.124
358.054
358.908
359.53
359.98
360.27
360.39
360.33
360.031
359.519
358.922
358.212
357.19
356.052
354.804
353.516
352.367
345.477
346.348
347.374
348.356
349.233
349.93
350.44
350.854
351.05
351.134
351.047
350.904
350.458
350.008
349.332
348.476
347.513
346.452
345.295
344.461
337.305
338.059
338.905
339.691
340.342
340.946
341.338
341.627
341.803
341.923
341.801
341.644
341.361
340.939
340.38
339.661
338.964
338.125
337.182
336.38
328.988
329.643
330.294
330.901
331.456
331.829
332.203
332.374
332.594
332.65
332.545
332.503
332.223
331.812
331.456
331.025
330.25
329.699
328.934
328.412
320.757
321.241
321.626
322.025
322.445
322.835
322.954
323.267
323.249
323.393
323.35
323.192
323.049
322.86
322.466
322.132
321.608
321.181
320.712
320.308
312.478
312.782
313.012
313.359
313.527
313.679
313.807
313.857
313.983
314.062
314.033
313.89
313.825
313.652
313.467
313.317
313.01
312.744
312.424
312.256
304.235
304.286
304.33
304.417
304.528
304.603
304.536
304.675
304.683
304.657
304.719
304.695
304.645
304.578
304.513
304.443
304.451
304.249
304.176
304.159
362.706
364.126
365.374
366.815
367.967
368.84
369.588
370.172
370.503
370.57
370.482
370.139
369.611
368.889
367.935
366.842
365.499
364.087
362.539
361.089
354.494
355.592
356.815
357.937
358.984
359.79
360.431
360.915
361.169
361.295
361.198
360.965
360.434
359.788
359.034
358.098
356.904
355.639
354.331
353.108
346.211
347.213
348.187
349.126
349.975
350.602
351.182
351.562
351.801
351.913
351.881
351.631
351.172
350.736
349.989
349.221
348.216
347.057
346.041
345.114
337.876
338.561
339.438
340.232
340.944
341.476
341.923
342.306
342.527
342.484
342.516
342.238
341.996
341.569
340.961
340.42
339.467
338.598
337.717
336.913
329.559
330.101
330.754
331.285
331.917
332.279
332.681
332.912
332.997
333.145
333.018
332.879
332.624
332.271
331.914
331.384
330.813
330.114
329.412
328.808
321.139
321.453
321.964
322.422
322.839
323.057
323.325
323.514
323.667
323.613
323.649
323.575
323.401
323.124
322.749
322.47
321.964
321.556
321.012
320.586
312.699
312.899
313.188
313.526
313.75
313.878
314.036
314.21
314.184
314.242
314.22
314.178
314.058
313.857
313.704
313.464
313.175
312.983
312.606
312.353
304.204
304.3
304.407
304.486
304.609
304.665
304.675
304.769
304.785
304.792
304.722
304.737
304.742
304.653
304.573
304.529
304.329
304.378
304.235
304.185
363.538
364.889
366.359
367.684
368.807
369.773
370.547
371.102
371.411
371.545
371.425
371.129
370.578
369.795
368.904
367.667
366.385
364.866
363.295
361.903
355.262
356.333
357.546
358.788
359.811
360.557
361.269
361.712
361.984
362.065
361.916
361.636
361.195
360.615
359.737
358.729
357.654
356.384
354.969
353.825
346.752
347.722
348.782
349.788
350.583
351.341
351.86
352.31
352.548
352.566
352.504
352.305
351.865
351.289
350.572
349.838
348.789
347.805
346.626
345.621
338.382
339.14
339.929
340.755
341.432
342.019
342.445
342.778
343.063
343.108
343.011
342.842
342.504
342.106
341.518
340.874
340.028
339.122
338.199
337.482
329.879
330.434
331.093
331.717
332.247
332.749
333.108
333.428
333.517
333.529
333.496
333.306
333.066
332.79
332.271
331.754
331.129
330.455
329.772
329.188
321.353
321.752
322.22
322.738
323.022
323.438
323.642
323.79
323.962
324.048
324.011
323.832
323.638
323.46
323.177
322.708
322.304
321.822
321.253
320.82
312.838
313.073
313.354
313.656
313.885
314.114
314.194
314.337
314.323
314.416
314.476
314.335
314.183
314.068
313.901
313.716
313.405
313.078
312.836
312.437
304.309
304.438
304.473
304.552
304.649
304.71
304.726
304.751
304.798
304.87
304.776
304.81
304.794
304.717
304.671
304.561
304.479
304.399
304.311
304.239
364.302
365.665
367.032
368.425
369.588
370.6
371.334
371.844
372.272
372.36
372.186
371.898
371.415
370.586
369.581
368.491
367.091
365.601
364.02
362.585
355.828
356.924
358.27
359.393
360.411
361.235
361.901
362.43
362.645
362.799
362.694
362.382
361.909
361.317
360.466
359.404
358.225
356.938
355.522
354.383
347.287
348.21
349.292
350.287
351.155
351.855
352.484
352.929
353.104
353.238
353.093
352.859
352.468
351.843
351.185
350.351
349.404
348.308
347.133
346.183
338.814
339.573
340.45
341.245
341.914
342.507
343.028
343.278
343.48
343.556
343.554
343.266
342.995
342.52
341.964
341.215
340.519
339.56
338.575
337.777
330.287
330.739
331.47
332.116
332.7
333.085
333.444
333.737
333.825
333.914
333.843
333.75
333.467
333.135
332.715
332.095
331.514
330.729
329.991
329.451
321.614
321.994
322.556
322.899
323.336
323.662
323.891
324.052
324.28
324.286
324.252
324.15
323.927
323.726
323.375
322.944
322.574
322.012
321.512
321.045
312.944
313.227
313.513
313.803
314.037
314.227
314.417
314.486
314.57
314.582
314.56
314.544
314.313
314.281
314.041
313.851
313.585
313.2
312.93
312.672
304.378
304.464
304.604
304.598
304.766
304.727
304.83
304.864
304.881
304.833
304.898
304.854
304.841
304.801
304.709
304.656
304.533
304.425
304.37
304.25
364.934
366.24
367.666
369.104
370.218
371.266
371.962
372.536
372.951
372.95
372.903
372.545
371.992
371.27
370.277
369.151
367.732
366.19
364.611
363.112
356.357
357.451
358.844
359.901
360.9
361.841
362.53
362.99
363.29
363.343
363.296
362.963
362.504
361.836
361.011
359.971
358.833
357.537
356.015
354.839
347.847
348.658
349.802
350.713
351.623
352.436
352.998
353.345
353.573
353.703
353.603
353.418
352.955
352.426
351.65
350.839
349.738
348.707
347.466
346.532
339.177
339.963
340.811
341.612
342.326
342.914
343.393
343.666
343.972
343.934
343.899
343.732
343.426
343.007
342.32
341.645
340.792
339.889
338.983
338.181
330.467
331.064
331.79
332.39
332.932
333.384
333.784
333.967
334.226
334.247
334.201
334.057
333.739
333.397
332.965
332.419
331.688
331.034
330.391
329.712
321.792
322.196
322.721
323.173
323.57
323.886
324.15
324.342
324.476
324.484
324.416
324.343
324.191
323.912
323.533
323.093
322.697
322.257
321.677
321.32
313.112
313.296
313.624
313.898
314.13
314.302
314.513
314.595
314.719
314.733
314.666
314.636
314.475
314.387
314.152
313.897
313.687
313.357
312.999
312.777
304.368
304.502
304.596
304.631
304.752
304.758
304.925
304.973
304.913
304.97
304.901
304.931
304.88
304.843
304.776
304.707
304.539
304.513
304.359
304.271
365.427
366.68
368.234
369.588
370.859
371.829
372.612
373.119
373.482
373.617
373.477
373.139
372.545
371.711
370.763
369.626
368.176
366.669
365.106
363.56
356.762
357.85
359.18
360.392
361.468
362.31
363.016
363.444
363.793
363.837
363.741
363.443
362.978
362.27
361.417
360.401
359.147
357.961
356.532
355.261
348.154
349.082
350.139
351.211
352.073
352.822
353.361
353.766
353.964
354.053
354.053
353.763
353.314
352.766
352.087
351.217
350.159
349.082
347.923
346.864
339.488
340.28
341.147
341.944
342.689
343.234
343.74
344.033
344.255
344.246
344.212
344.051
343.702
343.231
342.658
341.937
341.041
340.175
339.261
338.464
330.762
331.288
332.039
332.651
333.23
333.644
334.002
334.204
334.4
334.534
334.457
334.317
333.95
333.653
333.204
332.592
331.983
331.359
330.545
329.895
321.957
322.401
322.868
323.33
323.756
324.104
324.34
324.514
324.649
324.622
324.619
324.499
324.325
324.065
323.775
323.387
322.9
322.435
321.865
321.424
313.262
313.376
313.723
314.02
314.28
314.513
314.643
314.773
314.821
314.819
314.864
314.801
314.619
314.47
314.223
313.997
313.714
313.465
313.112
312.873
304.389
304.556
304.572
304.713
304.799
304.914
304.883
304.995
304.941
304.923
304.96
304.932
304.861
304.802
304.733
304.696
304.652
304.472
304.403
304.267
365.759
367.109
368.595
370.026
371.23
372.214
372.988
373.545
373.822
373.999
373.847
373.458
373
372.13
371.172
369.991
368.558
367.071
365.416
363.957
357.07
358.216
359.544
360.799
361.734
362.687
363.345
363.8
364.167
364.203
364.104
363.786
363.31
362.618
361.812
360.758
359.46
358.224
356.76
355.53
348.392
349.334
350.482
351.445
352.366
353.12
353.609
354.072
354.32
354.408
354.28
354.026
353.682
353.087
352.334
351.475
350.485
349.312
348.091
347.03
339.712
340.427
341.322
342.178
342.923
343.439
343.926
344.327
344.528
344.576
344.508
344.331
343.891
343.447
342.903
342.135
341.362
340.377
339.407
338.574
330.887
331.487
332.119
332.788
333.39
333.865
334.224
334.506
334.621
334.732
334.696
334.445
334.231
333.789
333.375
332.773
332.204
331.473
330.653
330.032
322.093
322.502
323.01
323.487
323.896
324.22
324.518
324.613
324.803
324.825
324.714
324.662
324.482
324.181
323.86
323.459
323.046
322.496
321.979
321.448
313.28
313.483
313.795
314.038
314.32
314.547
314.692
314.854
314.899
314.893
314.929
314.784
314.653
314.494
314.307
314.085
313.754
313.541
313.175
312.893
304.523
304.478
304.622
304.651
304.829
304.876
304.961
305.042
305.016
305.039
305.05
305.031
304.945
304.97
304.792
304.695
304.665
304.553
304.435
304.355
366.019
367.358
368.92
370.263
371.453
372.489
373.233
373.767
374.168
374.245
374.096
373.771
373.274
372.405
371.489
370.146
368.855
367.366
365.624
364.154
357.316
358.47
359.774
360.968
361.991
362.884
363.639
364.107
364.381
364.47
364.366
364.048
363.55
362.863
361.968
360.944
359.741
358.432
356.988
355.707
348.534
349.475
350.645
351.615
352.56
353.317
353.837
354.225
354.525
354.592
354.547
354.266
353.845
353.255
352.584
351.692
350.688
349.523
348.274
347.225
339.775
340.543
341.467
342.287
342.983
343.626
344.061
344.478
344.659
344.687
344.706
344.419
344.106
343.621
343.023
342.288
341.5
340.508
339.569
338.774
331.023
331.624
332.252
332.903
333.413
333.967
334.277
334.539
334.723
334.773
334.74
334.624
334.394
334.027
333.505
332.904
332.32
331.612
330.762
330.141
322.24
322.618
323.173
323.536
324.027
324.291
324.569
324.702
324.802
324.922
324.825
324.767
324.566
324.259
323.969
323.578
323.083
322.622
322.034
321.599
313.273
313.569
313.924
314.136
314.467
314.57
314.697
314.816
314.968
314.995
314.932
314.879
314.807
314.607
314.375
314.203
313.857
313.534
313.275
312.924
304.489
304.481
304.686
304.747
304.834
304.904
304.925
305.042
305.073
304.961
305.065
304.954
304.872
304.955
304.9
304.662
304.61
304.543
304.512
304.458
366.119
367.456
368.966
370.354
371.614
372.616
373.358
373.961
374.282
374.411
374.296
373.827
373.36
372.548
371.613
370.379
369.021
367.371
365.685
364.229
357.344
358.589
359.844
361.075
362.237
363.063
363.632
364.239
364.44
364.55
364.44
364.181
363.69
363.006
362.136
361.127
359.808
358.547
357.125
355.833
348.611
349.633
350.722
351.636
352.603
353.438
354.002
354.436
354.646
354.672
354.612
354.371
353.953
353.383
352.657
351.755
350.78
349.567
348.371
347.308
339.895
340.629
341.573
342.37
343.183
343.707
344.167
344.528
344.765
344.859
344.766
344.517
344.22
343.686
343.021
342.363
341.525
340.585
339.669
338.784
331.052
331.679
332.348
332.979
333.609
334.002
334.402
334.732
334.868
334.87
334.892
334.64
334.373
334.028
333.565
333.039
332.35
331.637
330.844
330.23
322.248
322.653
323.107
323.553
323.987
324.339
324.585
324.724
324.901
324.929
324.931
324.808
324.577
324.349
324.015
323.599
323.138
322.604
322.026
321.616
313.358
313.631
313.922
314.253
314.472
314.633
314.74
314.855
315.029
315.043
314.959
314.852
314.851
314.588
314.421
314.097
313.886
313.527
313.3
313.006
304.466
304.559
304.633
304.701
304.803
304.969
304.947
305.045
305.042
305.041
305.046
304.916
305.035
304.916
304.761
304.805
304.755
304.563
304.44
304.417
)
;

boundaryField
{
    hotSide
    {
        type            fixedGradient;
        gradient        nonuniform List<scalar> 
400
(
321.511
322.87
325.591
329.677
335.133
341.965
350.181
359.788
370.794
383.208
397.037
412.289
428.971
447.088
466.647
487.651
510.105
534.011
559.372
586.191
323.738
325.08
327.767
331.802
337.194
343.949
352.078
361.591
372.498
384.81
398.537
413.687
430.268
448.289
467.755
488.672
511.043
534.872
560.161
586.913
326.149
327.47
330.116
334.091
339.406
346.071
354.099
363.503
374.296
386.491
400.101
415.136
431.606
449.52
468.885
489.706
511.988
535.735
560.948
587.63
328.704
330
332.597
336.503
341.73
348.292
356.205
365.485
376.15
388.215
401.695
416.604
432.954
450.753
470.009
490.73
512.919
536.579
561.714
588.325
331.33
332.599
335.142
338.97
344.099
350.546
358.332
367.477
378.003
389.928
403.271
418.047
434.27
451.949
471.095
491.712
513.807
537.382
562.439
588.978
333.918
335.158
337.643
341.389
346.414
352.74
360.392
369.397
379.779
391.562
404.765
419.407
435.503
453.065
472.101
492.618
514.622
538.114
563.096
589.569
336.321
337.531
339.959
343.622
348.544
354.751
362.274
371.142
381.385
393.031
406.101
420.618
436.595
454.047
472.983
493.409
515.33
538.747
563.663
590.076
338.36
339.543
341.92
345.509
350.339
356.44
363.847
372.595
382.718
394.244
407.2
421.608
437.485
454.844
473.695
494.045
515.897
539.253
564.114
590.478
339.852
341.015
343.352
346.885
351.645
357.665
364.985
373.643
383.675
395.113
407.984
422.312
438.116
455.407
474.197
494.491
516.294
539.606
564.428
590.758
340.643
341.795
344.11
347.613
352.334
358.311
365.584
374.193
384.176
395.567
408.393
422.679
438.443
455.699
474.456
494.722
516.498
539.788
564.589
590.901
340.643
341.795
344.11
347.613
352.334
358.311
365.584
374.193
384.176
395.567
408.393
422.679
438.443
455.699
474.456
494.722
516.498
539.788
564.589
590.901
339.852
341.015
343.352
346.885
351.645
357.665
364.985
373.643
383.675
395.113
407.984
422.312
438.116
455.407
474.197
494.491
516.294
539.606
564.428
590.758
338.36
339.543
341.92
345.509
350.339
356.44
363.847
372.595
382.718
394.244
407.2
421.608
437.485
454.844
473.695
494.045
515.897
539.253
564.114
590.478
336.321
337.531
339.959
343.622
348.544
354.751
362.274
371.142
381.385
393.031
406.101
420.618
436.595
454.047
472.983
493.409
515.33
538.747
563.663
590.076
333.918
335.158
337.643
341.389
346.414
352.74
360.392
369.397
379.779
391.562
404.765
419.407
435.503
453.065
472.101
492.618
514.622
538.114
563.096
589.569
331.33
332.599
335.142
338.97
344.099
350.546
358.332
367.477
378.003
389.928
403.271
418.047
434.27
451.949
471.095
491.712
513.807
537.382
562.439
588.978
328.704
330
332.597
336.503
341.73
348.292
356.205
365.485
376.15
388.215
401.695
416.604
432.954
450.753
470.009
490.73
512.919
536.579
561.714
588.325
326.149
327.47
330.116
334.091
339.406
346.071
354.099
363.503
374.296
386.491
400.101
415.136
431.606
449.52
468.885
489.706
511.988
535.735
560.948
587.63
323.738
325.08
327.767
331.802
337.194
343.949
352.078
361.591
372.498
384.81
398.537
413.687
430.268
448.289
467.755
488.672
511.043
534.872
560.161
586.913
321.511
322.87
325.591
329.677
335.133
341.965
350.181
359.788
370.794
383.208
397.037
412.289
428.971
447.088
466.647
487.651
510.105
534.011
559.372
586.191
)
;
    }
    coldSide
    {
        type            mixed;
        refValue        uniform 300;
        refGradient     uniform 0;
        valueFraction   uniform 0.991591;
        source          uniform 0;
        value           nonuniform List<scalar> 
400
(
300.027
300.028
300.028
300.029
300.03
300.031
300.031
300.033
300.034
300.034
300.034
300.036
300.035
300.036
300.037
300.037
300.037
300.038
300.038
300.038
300.028
300.029
300.029
300.03
300.03
300.032
300.032
300.033
300.034
300.035
300.035
300.036
300.036
300.037
300.038
300.038
300.038
300.038
300.038
300.038