/*--------------------------------*- C++ -*----------------------------------*\
| =========                 |                                                 |
| \\      /  F ield         | OpenFOAM: The Open Source CFD Toolbox           |
|  \\    /   O peration     | Version:  2212                                  |
|   \\  /    A nd           | Website:  www.openfoam.com                      |
|    \\/     M anipulation  |                                                 |
\*---------------------------------------------------------------------------*/
FoamFile
{
    version     2.0;
    format      ascii;
    arch        "LSB;label=32;scalar=64";
    class       volScalarField;
    location    "0";
    object      T;
}
// * * * * * * * * * * * * * * * * * * * * * * * * * * * * * * * * * * * * * //

dimensions      [0 0 0 1 0 0 0];

internalField   nonuniform List<scalar> 
3200
(
350.034
348.89
347.995
347.811
347.777
348.015
348.529
348.952
349.201
349.373
349.185
348.593
347.727
346.699
345.582
344.362
343.56
343.035
343.333
344.154
343.137
342.198
341.451
341.294
341.304
341.489
341.957
342.318
342.577
342.719
342.584
342.05
341.297
340.431
339.451
338.383
337.707
337.225
337.478
338.138
336.339
335.601
334.986
334.808
334.867
335.023
335.449
335.731
335.97
336.104
336.005
335.566
334.888
334.18
333.353
332.451
331.889
331.451
331.666
332.174
329.644
329.076
328.593
328.416
328.482
328.601
328.962
329.179
329.403
329.521
329.425
329.092
328.522
327.925
327.262
326.558
326.083
325.701
325.887
326.247
323.009
322.582
322.223
322.056
322.13
322.227
322.518
322.657
322.855
322.95
322.883
322.627
322.196
321.687
321.184
320.648
320.276
319.964
320.117
320.369
316.427
316.118
315.867
315.758
315.795
315.866
316.09
316.161
316.32
316.416
316.344
316.158
315.86
315.485
315.114
314.761
314.494
314.247
314.372
314.526
309.861
309.676
309.53
309.461
309.473
309.528
309.651
309.7
309.788
309.881
309.806
309.692
309.525
309.287
309.069
308.857
308.699
308.535
308.631
308.725
303.311
303.237
303.193
303.173
303.173
303.195
303.226
303.256
303.277
303.307
303.294
303.258
303.198
303.123
303.036
302.97
302.927
302.852
302.895
302.926
350.095
348.993
348.112
347.904
347.877
348.205
348.74
349.215
349.483
349.694
349.577
348.956
348.078
347.058
345.799
344.593
343.773
343.154
343.306
343.996
343.198
342.301
341.538
341.379
341.356
341.696
342.12
342.532
342.789
342.985
342.905
342.358
341.616
340.729
339.637
338.592
337.874
337.346
337.46
338.021
336.409
335.679
335.051
334.907
334.907
335.22
335.565
335.918
336.141
336.31
336.265
335.799
335.185
334.405
333.496
332.636
331.981
331.561
331.645
332.094
329.687
329.155
328.631
328.469
328.479
328.781
329.055
329.323
329.549
329.697
329.655
329.273
328.749
328.115
327.374
326.722
326.116
325.797
325.854
326.197
323.027
322.651
322.264
322.087
322.085
322.352
322.573
322.778
322.967
323.09
323.07
322.763
322.328
321.871
321.275
320.821
320.302
320.019
320.076
320.351
316.419
316.181
315.899
315.749
315.754
315.96
316.12
316.265
316.422
316.504
316.502
316.268
315.936
315.617
315.179
314.874
314.52
314.279
314.335
314.528
309.836
309.714
309.537
309.453
309.444
309.553
309.681
309.775
309.856
309.931
309.923
309.758
309.559
309.372
309.108
308.935
308.724
308.548
308.611
308.721
303.28
303.246
303.199
303.171
303.158
303.197
303.239
303.271
303.297
303.331
303.333
303.267
303.202
303.141
303.05
302.997
302.932
302.869
302.888
302.928
350.167
349.098
348.26
348.151
348.275
348.629
349.114
349.731
350.254
350.387
350.263
349.607
348.737
347.639
346.143
344.868
344.015
343.407
343.456
344.047
343.243
342.379
341.672
341.615
341.717
342.042
342.437
342.99
343.441
343.567
343.492
342.914
342.175
341.224
339.954
338.816
338.101
337.576
337.575
338.077
336.433
335.743
335.188
335.109
335.224
335.498
335.804
336.296
336.695
336.809
336.747
336.261
335.645
334.841
333.793
332.826
332.214
331.769
331.741
332.158
329.702
329.157
328.723
328.666
328.754
328.975
329.241
329.645
329.978
330.058
330.026
329.634
329.119
328.496
327.651
326.854
326.353
325.992
325.94
326.272
323.061
322.604
322.304
322.288
322.315
322.484
322.716
323.042
323.296
323.343
323.332
323.017
322.623
322.17
321.504
320.89
320.475
320.218
320.166
320.415
316.43
316.129
315.907
315.9
315.912
316.03
316.214
316.472
316.633
316.677
316.653
316.426
316.156
315.856
315.351
314.927
314.626
314.446
314.392
314.593
309.858
309.664
309.54
309.549
309.535
309.617
309.733
309.906
309.966
310.021
310.009
309.842
309.695
309.52
309.216
308.981
308.783
308.688
308.629
308.767
303.301
303.23
303.198
303.198
303.194
303.217
303.264
303.329
303.335
303.358
303.372
303.293
303.249
303.188
303.09
303.02
302.952
302.911
302.889
302.938
350.518
349.395
348.553
348.503
348.756
349.087
349.688
350.331
350.958
351.159
351.112
350.424
349.483
348.28
346.861
345.432
344.505
343.863
343.951
344.491
343.546
342.634
341.908
341.905
342.135
342.424
342.948
343.508
344.075
344.258
344.232
343.652
342.814
341.782
340.561
339.33
338.535
337.969
338.009
338.463
336.672
335.957
335.333
335.35
335.584
335.808
336.263
336.751
337.232
337.391
337.355
336.917
336.18
335.291
334.281
333.261
332.597
332.1
332.128
332.492
329.886
329.349
328.842
328.852
329.055
329.244
329.653
330.034
330.437
330.56
330.534
330.21
329.551
328.837
328.021
327.192
326.66
326.238
326.256
326.531
323.188
322.791
322.393
322.413
322.565
322.73
323.036
323.327
323.642
323.738
323.751
323.504
322.955
322.395
321.793
321.148
320.723
320.4
320.429
320.624
316.554
316.26
315.986
316.014
316.112
316.244
316.428
316.668
316.866
316.916
316.98
316.776
316.398
315.978
315.56
315.101
314.82
314.572
314.593
314.722
309.95
309.746
309.602
309.627
309.655
309.769
309.856
310.014
310.124
310.144
310.202
310.079
309.843
309.584
309.35
309.067
308.879
308.746
308.753
308.833
303.333
303.262
303.221
303.232
303.234
303.274
303.296
303.358
303.397
303.407
303.42
303.381
303.287
303.215
303.136
303.042
302.966
302.922
302.925
302.967
350.975
349.902
349.223
349.056
349.419
349.81
350.406
351.094
351.863
352.102
351.943
351.426
350.377
349.204
347.742
346.225
345.222
344.541
344.714
345.279
343.938
343.069
342.482
342.367
342.728
343.048
343.562
344.177
344.871
345.039
344.939
344.506
343.597
342.567
341.317
340.009
339.133
338.541
338.657
339.135
337.004
336.333
335.818
335.745
336.091
336.331
336.779
337.302
337.896
338.031
337.975
337.624
336.867
335.959
334.92
333.834
333.057
332.58
332.637
333.056
330.191
329.656
329.214
329.167
329.465
329.676
330.04
330.479
330.957
331.052
331.02
330.778
330.153
329.38
328.524
327.669
327.031
326.643
326.656
327.014
323.414
323.046
322.667
322.622
322.897
323.067
323.359
323.676
324.063
324.134
324.087
323.948
323.459
322.841
322.17
321.523
321.003
320.717
320.724
320.997
316.688
316.461
316.17
316.127
316.335
316.487
316.675
316.919
317.196
317.244
317.192
317.124
316.768
316.316
315.827
315.368
315.001
314.786
314.816
314.999
310.005
309.892
309.698
309.673
309.794
309.896
310.003
310.137
310.329
310.356
310.323
310.29
310.062
309.8
309.504
309.221
309.001
308.873
308.902
309.007
303.347
303.323
303.244
303.247
303.272
303.317
303.344
303.391
303.469
303.468
303.465
303.447
303.37
303.289
303.183
303.089
303.015
302.978
302.977
303.032
351.671
350.656
349.844
349.793
350.128
350.598
351.324
352.094
352.794
353.211
352.959
352.518
351.43
350.052
348.612
347.074
345.977
345.315
345.429
346.069
344.539
343.696
343.022
343.003
343.308
343.72
344.351
345.051
345.658
346.007
345.816
345.417
344.466
343.319
342.08
340.738
339.788
339.204
339.291
339.799
337.536
336.838
336.281
336.306
336.54
336.921
337.468
338.059
338.581
338.854
338.72
338.353
337.583
336.613
335.554
334.443
333.648
333.141
333.189
333.629
330.615
330.055
329.617
329.66
329.828
330.179
330.608
331.078
331.534
331.747
331.641
331.336
330.712
329.934
329.066
328.183
327.522
327.081
327.125
327.499
323.751
323.341
323.01
323.046
323.17
323.441
323.766
324.144
324.505
324.651
324.581
324.355
323.871
323.276
322.605
321.931
321.412
321.025
321.072
321.364
316.945
316.655
316.414
316.454
316.543
316.74
316.964
317.229
317.483
317.593
317.553
317.404
317.059
316.625
316.142
315.657
315.296
315.009
315.036
315.283
310.16
309.984
309.852
309.879
309.936
310.041
310.19
310.336
310.49
310.564
310.544
310.461
310.242
309.981
309.693
309.414
309.174
309.006
309.026
309.189
303.393
303.34
303.302
303.313
303.328
303.357
303.413
303.463
303.517
303.542
303.539
303.505
303.434
303.343
303.253
303.164
303.083
303.02
303.028
303.083
352.501
351.568
350.739
350.655
350.961
351.472
352.212
353.026
353.669
354.244
354.117
353.529
352.484
351.058
349.509
348.147
346.903
346.179
346.389
346.883
345.265
344.471
343.798
343.751
344.026
344.485
345.118
345.852
346.418
346.898
346.8
346.266
345.396
344.162
342.823
341.647
340.564
339.927
340.097
340.508
338.135
337.479
336.942
336.915
337.162
337.562
338.085
338.73
339.224
339.593
339.545
339.07
338.332
337.301
336.158
335.184
334.271
333.73
333.845
334.215
331.091
330.609
330.134
330.123
330.338
330.684
331.094
331.646
332.041
332.313
332.311
331.9
331.323
330.478
329.55
328.763
328.019
327.578
327.644
327.946
324.127
323.798
323.392
323.376
323.549
323.822
324.154
324.603
324.919
325.092
325.105
324.765
324.33
323.68
322.974
322.349
321.789
321.429
321.474
321.713
317.234
316.985
316.695
316.662
316.803
317.008
317.223
317.575
317.812
317.895
317.927
317.684
317.372
316.908
316.434
315.951
315.573
315.302
315.316
315.499
310.343
310.185
310.019
309.994
310.075
310.22
310.335
310.555
310.702
310.731
310.757
310.627
310.428
310.158
309.855
309.592
309.349
309.182
309.199
309.293
303.461
303.406
303.361
303.338
303.377
303.432
303.458
303.542
303.591
303.595
303.602
303.563
303.486
303.397
303.306
303.216
303.125
303.078
303.078
303.115
353.369
352.515
351.706
351.467
351.845
352.309
353.151
353.912
354.631
355.116
355.258
354.631
353.515
352.154
350.63
349.162
347.935
347.3
347.32
347.638
346.004
345.319
344.637
344.426
344.8
345.196
345.923
346.604
347.207
347.617
347.769
347.233
346.286
345.096
343.791
342.5
341.442
340.879
340.916
341.15
338.765
338.237
337.654
337.491
337.795
338.14
338.774
339.354
339.839
340.179
340.348
339.895
339.085
338.097
337.001
335.881
334.991
334.525
334.545
334.741
331.621
331.214
330.717
330.628
330.872
331.159
331.633
332.146
332.551
332.813
332.97
332.607
331.931
331.138
330.228
329.299
328.578
328.218
328.222
328.361
324.547
324.252
323.824
323.769
323.958
324.193
324.569
324.989
325.31
325.481
325.623
325.358
324.818
324.207
323.488
322.768
322.218
321.926
321.965
322.023
317.524
317.309
316.983
316.945
317.09
317.261
317.548
317.855
318.075
318.185
318.305
318.115
317.731
317.289
316.758
316.266
315.873
315.661
315.679
315.704
310.524
310.389
310.185
310.159
310.263
310.356
310.551
310.713
310.834
310.915
311.001
310.873
310.65
310.393
310.046
309.773
309.523
309.393
309.409
309.411
303.523
303.476
303.414
303.397
303.439
303.469
303.549
303.592
303.627
303.662
303.697
303.65
303.568
303.483
303.36
303.287
303.187
303.146
303.162
303.156
354.267
353.531
352.713
352.411
352.76
353.252
354.09
354.887
355.741
356.074
356.223
355.555
354.46
353.159
351.66
350.233
348.931
348.407
348.357
348.618
346.772
346.182
345.495
345.235
345.549
346.003
346.729
347.441
348.18
348.442
348.615
348.031
347.072
345.979
344.688
343.44
342.319
341.836
341.787
341.972
339.413
338.936
338.362
338.159
338.438
338.825
339.461
340.063
340.678
340.89
341.048
340.578
339.751
338.843
337.74
336.675
335.744
335.335
335.28
335.399
332.132
331.756
331.306
331.157
331.359
331.714
332.248
332.733
333.221
333.396
333.515
333.162
332.482
331.728
330.824
329.951
329.19
328.874
328.823
328.879
324.904
324.64
324.303
324.19
324.336
324.652
325.049
325.443
325.8
325.936
326.062
325.799
325.247
324.663
323.929
323.26
322.645
322.444
322.407
322.415
317.739
317.578
317.338
317.251
317.371
317.605
317.882
318.152
318.401
318.508
318.611
318.439
318.031
317.615
317.067
316.599
316.143
316.029
316.006
316.008
310.654
310.537
310.4
310.355
310.428
310.587
310.735
310.892
311.049
311.116
311.172
311.098
310.819
310.576
310.246
309.97
309.686
309.615
309.609
309.6
303.571
303.534
303.478
303.466
303.491
303.548
303.601
303.656
303.7
303.73
303.747
303.725
303.632
303.536
303.432
303.338
303.251
303.212
303.213
303.214
355.084
354.466
353.847
353.558
353.823
354.243
355.036
355.891
356.555
356.945
357.024
356.561
355.429
354.205
352.608
351.265
350.108
349.616
349.438
349.715
347.479
346.986
346.45
346.238
346.494
346.843
347.533
348.294
348.895
349.193
349.277
348.888
347.924
346.872
345.518
344.336
343.31
342.888
342.704
342.908
339.992
339.62
339.146
338.976
339.217
339.527
340.132
340.767
341.282
341.511
341.602
341.273
340.491
339.584
338.478
337.449
336.57
336.231
336.052
336.206
332.606
332.321
331.933
331.784
331.987
332.287
332.757
333.29
333.713
333.906
333.978
333.719
333.066
332.329
331.463
330.602
329.887
329.599
329.462
329.549
325.29
325.075
324.767
324.649
324.813
325.069
325.466
325.848
326.189
326.348
326.386
326.21
325.683
325.118
324.474
323.769
323.229
322.988
322.899
322.935
318.042
317.896
317.662
317.569
317.691
317.896
318.176
318.447
318.679
318.822
318.844
318.737
318.341
317.952
317.482
316.948
316.582
316.413
316.364
316.352
310.821
310.736
310.61
310.538
310.603
310.733
310.904
311.065
311.219
311.296
311.319
311.259
311.024
310.787
310.499
310.18
309.947
309.857
309.81
309.792
303.634
303.599
303.549
303.524
303.555
303.603
303.651
303.707
303.754
303.786
303.788
303.776
303.694
303.608
303.523
303.413
303.327
303.301
303.281
303.286
356.12
355.478
354.819
354.686
354.808
355.131
356.042
356.677
357.398
357.851
357.815
357.372
356.345
354.946
353.561
352.341
351.218
350.585
350.506
350.748
348.364
347.851
347.293
347.194
347.343
347.612
348.41
348.978
349.597
349.972
349.953
349.599
348.704
347.501
346.294
345.24
344.274
343.718
343.634
343.793
340.758
340.335
339.864
339.816
339.939
340.179
340.84
341.331
341.857
342.178
342.189
341.906
341.124
340.116
339.09
338.215
337.384
336.926
336.835
336.933
333.225
332.899
332.52
332.514
332.588
332.804
333.352
333.754
334.188
334.44
334.467
334.253
333.583
332.771
331.928
331.206
330.542
330.155
330.086
330.139
325.77
325.532
325.243
325.266
325.309
325.466
325.922
326.21
326.554
326.764
326.773
326.608
326.074
325.475
324.792
324.224
323.747
323.439
323.373
323.408
318.368
318.237
318.008
318.04
318.057
318.156
318.525
318.713
318.942
319.113
319.099
318.988
318.61
318.193
317.694
317.284
316.963
316.743
316.693
316.721
311.016
310.947
310.792
310.813
310.85
310.891
311.127
311.245
311.349
311.473
311.45
311.384
311.162
310.915
310.627
310.395
310.187
310.069
310.025
310.031
303.69
303.669
303.615
303.619
303.636
303.656
303.727
303.779
303.804
303.848
303.835
303.817
303.744
303.656
303.553
303.487
303.418
303.388
303.351
303.36
357.19
356.52
355.842
355.696
355.856
356.175
356.771
357.453
358.118
358.48
358.593
357.99
357.114
355.836
354.415
353.225
352.209
351.647
351.566
351.836
349.273
348.737
348.169
348.076
348.212
348.509
349.043
349.62
350.228
350.515
350.634
350.115
349.368
348.273
347.038
345.972
345.104
344.625
344.524
344.738
341.51
341.071
340.615
340.539
340.661
340.94
341.383
341.887
342.416
342.609
342.751
342.296
341.668
340.762
339.71
338.801
338.083
337.659
337.568
337.751
333.84
333.492
333.165
333.091
333.202
333.426
333.773
334.207
334.659
334.791
334.909
334.55
334.04
333.294
332.437
331.673
331.104
330.753
330.655
330.813
326.249
325.972
325.764
325.679
325.799
325.928
326.211
326.593
326.93
326.997
327.091
326.813
326.448
325.872
325.208
324.611
324.177
323.898
323.789
323.892
318.732
318.51
318.404
318.304
318.423
318.475
318.695
318.994
319.237
319.256
319.333
319.123
318.894
318.476
318.008
317.577
317.264
317.057
316.959
317.034
311.241
311.107
311.063
310.985
311.073
311.093
311.218
311.418
311.547
311.55
311.609
311.465
311.346
311.097
310.815
310.558
310.364
310.222
310.167
310.216
303.762
303.717
303.708
303.679
303.714
303.727
303.753
303.825
303.87
303.873
303.885
303.841
303.809
303.717
303.621
303.533
303.476
303.42
303.4
303.424
358.391
357.581
356.928
356.705
356.904
357.172
357.652
358.216
358.959
359.316
359.219
358.735
357.768
356.649
355.345
354.177
353.276
352.769
352.609
352.846
350.296
349.656
349.133
348.934
349.127
349.363
349.766
350.28
350.955
351.25
351.17
350.747
349.941
348.968
347.829
346.836
346.025
345.574
345.443
345.593
342.351
341.852
341.431
341.278
341.423
341.613
341.965
342.421
342.996
343.264
343.196
342.837
342.167
341.346
340.381
339.56
338.816
338.459
338.345
338.454
334.495
334.145
333.803
333.693
333.79
333.966
334.272
334.642
335.126
335.354
335.281
335
334.429
333.779
333.005
332.316
331.668
331.404
331.294
331.39
326.739
326.503
326.256
326.163
326.213
326.362
326.626
326.909
327.275
327.469
327.415
327.191
326.769
326.251
325.665
325.115
324.585
324.384
324.301
324.356
319.062
318.899
318.754
318.671
318.7
318.793
319.009
319.199
319.451
319.613
319.581
319.408
319.116
318.746
318.338
317.927
317.543
317.402
317.347
317.382
311.42
311.334
311.266
311.192
311.241
311.28
311.415
311.512
311.674
311.76
311.759
311.641
311.482
311.261
311.022
310.763
310.536
310.44
310.397
310.439
303.826
303.786
303.783
303.749
303.764
303.772
303.818
303.852
303.91
303.937
303.941
303.894
303.857
303.777
303.695
303.603
303.532
303.504
303.483
303.499
359.521
358.758
358.1
357.788
357.855
358.101
358.465
359.017
359.502
359.825
359.782
359.381
358.482
357.488
356.288
355.118
354.3
353.8
353.802
354.105
351.271
350.667
350.105
349.86
349.927
350.136
350.49
350.942
351.394
351.676
351.67
351.331
350.53
349.67
348.638
347.633
346.907
346.469
346.439
346.678
343.15
342.7
342.227
342.032
342.086
342.266
342.607
342.958
343.364
343.61
343.612
343.346
342.669
341.919
341.059
340.234
339.589
339.235
339.155
339.369
335.139
334.835
334.416
334.289
334.326
334.509
334.792
335.075
335.416
335.638
335.617
335.418
334.857
334.241
333.545
332.892
332.313
332.047
331.943
332.099
327.238
327.047
326.703
326.599
326.654
326.804
327.017
327.234
327.518
327.683
327.657
327.533
327.081
326.595
326.069
325.57
325.083
324.899
324.799
324.901
319.388
319.309
319.041
318.956
319.011
319.126
319.274
319.429
319.638
319.764
319.747
319.655
319.333
318.969
318.613
318.246
317.904
317.754
317.71
317.756
311.616
311.598
311.41
311.356
311.42
311.491
311.581
311.656
311.783
311.868
311.845
311.798
311.614
311.384
311.178
310.959
310.764
310.65
310.638
310.657
303.887
303.88
303.827
303.787
303.815
303.858
303.878
303.905
303.931
303.981
303.969
303.95
303.892
303.818
303.758
303.679
303.612
303.561
303.577
303.578
360.714
359.917
359.235
358.881
358.795
359.109
359.319
359.845
360.224
360.48
360.456
359.943
359.148
358.179
357.016
355.953
355.393
354.947
354.973
355.331
352.316
351.651
351.068
350.775
350.747
351.026
351.205
351.668
352.004
352.252
352.253
351.802
351.084
350.271
349.253
348.345
347.851
347.474
347.44
347.737
344.026
343.511
343.018
342.791
342.787
343.018
343.185
343.583
343.874
344.118
344.109
343.739
343.108
342.44
341.567
340.806
340.409
340.063
340.019
340.235
335.86
335.477
335.068
334.887
334.911
335.102
335.246
335.584
335.814
336.033
336.008
335.734
335.212
334.667
333.948
333.322
333.017
332.711
332.668
332.823
327.792
327.531
327.211
327.067
327.089
327.249
327.387
327.634
327.791
328.004
327.955
327.764
327.376
326.927
326.369
325.88
325.663
325.408
325.358
325.46
319.813
319.637
319.418
319.298
319.318
319.433
319.558
319.728
319.831
319.968
319.968
319.819
319.558
319.237
318.828
318.468
318.338
318.132
318.083
318.17
311.883
311.769
311.658
311.579
311.589
311.669
311.743
311.829
311.902
311.982
311.978
311.912
311.744
311.538
311.32
311.075
311.014
310.866
310.86
310.903
303.975
303.942
303.909
303.889
303.883
303.906
303.95
303.962
303.989
304.003
304.006
303.996
303.936
303.86
303.807
303.714
303.678
303.641
303.637
303.656
361.836
361.016
360.255
359.999
359.952
360.111
360.274
360.63
360.897
361.121
360.9
360.454
359.768
358.748
357.879
357.015
356.498
355.98
356.121
356.372
353.257
352.602
351.97
351.738
351.723
351.876
352.03
352.338
352.588
352.801
352.602
352.219
351.621
350.73
349.979
349.251
348.812
348.363
348.45
348.621
344.848
344.315
343.793
343.618
343.6
343.757
343.9
344.153
344.344
344.576
344.378
344.074
343.569
342.8
342.186
341.565
341.199
340.799
340.86
340.989
336.562
336.122
335.727
335.584
335.567
335.717
335.831
336.052
336.184
336.378
336.238
335.988
335.575
334.938
334.427
333.919
333.62
333.307
333.362
333.449
328.368
328.008
327.733
327.619
327.594
327.734
327.821
328.005
328.085
328.257
328.153
327.967
327.627
327.135
326.738
326.335
326.1
325.861
325.928
325.968
320.235
319.983
319.786
319.71
319.684
319.773
319.846
319.986
320.042
320.157
320.1
319.973
319.719
319.341
319.066
318.778
318.614
318.468
318.51
318.514
312.154
311.995
311.882
311.827
311.815
311.861
311.896
311.984
312.032
312.103
312.059
311.99
311.836
311.59
311.452
311.272
311.163
311.097
311.111
311.086
304.075
304.017
303.987
303.965
303.966
303.967
303.994
304.029
304.02
304.06
304.039
304.015
303.962
303.887
303.84
303.779
303.736
303.71
303.72
303.702
363.028
362.09
361.474
361.056
360.958
361.028
361.229
361.46
361.675
361.753
361.453
361.023
360.458
359.691
358.763
358.065
357.575
357.09
357.243
357.808
354.284
353.535
352.985
352.657
352.578
352.671
352.862
353.055
353.25
353.326
353.054
352.72
352.214
351.561
350.737
350.149
349.746
349.294
349.423
349.89
345.713
345.112
344.664
344.39
344.328
344.432
344.579
344.756
344.893
344.979
344.746
344.478
344.054
343.495
342.82
342.285
341.971
341.621
341.681
342.054
337.242
336.787
336.424
336.21
336.16
336.244
336.398
336.529
336.623
336.706
336.5
336.294
335.954
335.504
334.945
334.497
334.267
333.988
334.017
334.328
328.874
328.554
328.26
328.101
328.097
328.128
328.235
328.36
328.425
328.499
328.323
328.173
327.919
327.563
327.153
326.764
326.601
326.41
326.408
326.676
320.572
320.363
320.148
320.049
320.071
320.061
320.137
320.239
320.292
320.338
320.207
320.104
319.92
319.66
319.377
319.091
318.974
318.863
318.845
319.039
312.326
312.221
312.09
312.028
312.038
312.024
312.077
312.145
312.169
312.223
312.134
312.071
311.941
311.786
311.63
311.464
311.378
311.327
311.324
311.43
304.134
304.099
304.045
304.025
304.031
304.025
304.051
304.073
304.07
304.097
304.06
304.041
304
303.953
303.898
303.84
303.819
303.795
303.794
303.824
364.229
363.359
362.622
362.249
361.96
361.944
362.014
362.372
362.383
362.46
362.184
361.769
361.155
360.488
359.752
359.029
358.633
358.203
358.399
358.903
355.327
354.626
353.984
353.667
353.435
353.452
353.528
353.825
353.851
353.903
353.685
353.313
352.796
352.23
351.594
350.964
350.608
350.239
350.407
350.81
346.574
346.035
345.479
345.195
345.046
345.071
345.14
345.36
345.427
345.46
345.282
344.963
344.537
344.072
343.52
343.008
342.674
342.381
342.518
342.826
337.954
337.556
337.085
336.849
336.746
336.785
336.841
336.998
337.059
337.108
336.945
336.693
336.357
335.98
335.498
335.114
334.827
334.579
334.677
334.922
329.424
329.146
328.755
328.569
328.521
328.547
328.589
328.721
328.767
328.821
328.676
328.495
328.223
327.95
327.549
327.254
327.045
326.826
326.918
327.097
320.983
320.787
320.492
320.361
320.347
320.367
320.381
320.495
320.491
320.58
320.472
320.329
320.145
319.959
319.658
319.429
319.296
319.13
319.201
319.321
312.564
312.476
312.289
312.205
312.214
312.209
312.223
312.295
312.284
312.36
312.293
312.203
312.078
311.988
311.79
311.647
311.603
311.476
311.519
311.606
304.213
304.179
304.12
304.092
304.092
304.092
304.09
304.125
304.109
304.133
304.119
304.09
304.045
304.017
303.945
303.906
303.891
303.844
303.851
303.896
365.324
364.488
363.583
363.207
362.947
362.849
362.973
363.139
363.114
363.079
362.822
362.466
362.006
361.236
360.561
359.859
359.551
359.242
359.558
359.833
356.263
355.555
354.804
354.473
354.249
354.187
354.312
354.461
354.433
354.438
354.201
353.899
353.52
352.856
352.25
351.64
351.387
351.119
351.388
351.57
347.391
346.782
346.181
345.874
345.687
345.647
345.754
345.881
345.889
345.908
345.699
345.454
345.117
344.564
344.079
343.545
343.329
343.077
343.325
343.439
338.616
338.134
337.656
337.392
337.252
337.214
337.323
337.399
337.437
337.453
337.287
337.079
336.8
336.366
335.995
335.534
335.35
335.139
335.34
335.419
329.951
329.556
329.187
329.02
328.906
328.875
328.957
329.001
329.048
329.08
328.936
328.753
328.568
328.216
327.935
327.582
327.436
327.272
327.424
327.469
321.359
321.057
320.806
320.69
320.611
320.599
320.669
320.677
320.721
320.749
320.654
320.509
320.394
320.138
319.931
319.686
319.574
319.437
319.551
319.578
312.805
312.63
312.473
312.418
312.372
312.358
312.399
312.401
312.421
312.449
312.396
312.311
312.236
312.078
311.986
311.816
311.762
311.67
311.727
311.737
304.294
304.231
304.183
304.161
304.145
304.134
304.157
304.158
304.163
304.171
304.156
304.127
304.097
304.051
304.017
303.959
303.942
303.91
303.916
303.92
366.286
365.216
364.471
363.979
363.645
363.579
363.605
363.67
363.676
363.688
363.35
363.038
362.554
361.905
361.247
360.696
360.24
360.152
360.443
360.762
357.039
356.116
355.479
355.111
354.827
354.805
354.819
354.902
354.901
354.927
354.642
354.381
353.964
353.384
352.799
352.348
351.92
351.867
352.073
352.307
347.99
347.173
346.669
346.405
346.172
346.172
346.172
346.252
346.262
346.285
346.049
345.838
345.485
344.987
344.489
344.144
343.741
343.688
343.86
344.011
339.086
338.404
337.991
337.81
337.628
337.642
337.658
337.697
337.728
337.757
337.562
337.386
337.098
336.712
336.256
336.013
335.695
335.61
335.752
335.862
330.291
329.759
329.453
329.318
329.186
329.193
329.212
329.235
329.289
329.299
329.17
329.013
328.782
328.502
328.129
327.943
327.694
327.621
327.725
327.816
321.591
321.177
320.99
320.923
320.828
320.796
320.845
320.849
320.882
320.877
320.81
320.688
320.515
320.348
320.061
319.923
319.759
319.697
319.753
319.832
312.961
312.698
312.586
312.558
312.504
312.467
312.507
312.498
312.52
312.525
312.475
312.416
312.31
312.208
312.041
311.961
311.868
311.801
311.852
311.886
304.342
304.26
304.211
304.204
304.185
304.174
304.192
304.173
304.197
304.202
304.176
304.163
304.12
304.09
304.028
304.009
303.974
303.955
303.973
303.985
)
;

boundaryField
{
    hotSide
    {
        type            fixedGradient;
        gradient        nonuniform List<scalar> 
400
(
564.687
563.261
564.371
567.946
573.732
581.367
590.464
600.67
611.699
623.333
635.414
647.842
660.56
673.556
686.85
700.497
714.57
729.15
744.3
760.048
545.124
543.954
545.492
549.652
556.124
564.475
574.261
585.088
596.649
608.711
621.117
633.767
646.613
659.651
672.917
686.481
700.44
714.897
729.939
745.605
532.718
532.074
534.105
538.712
545.582
554.285
564.373
575.45
587.199
599.387
611.851
624.494
637.271
650.185
663.28
676.637
690.36
704.56
719.33
734.718
526.999
527.137
529.736
534.693
541.734
550.485
560.544
571.542
583.173
595.203
607.47
619.877
632.381
644.992
657.76
670.767
684.115
697.911
712.242
727.161
526.19
527.268
530.538
535.888
543.083
551.812
561.729
572.504
583.849
595.541
607.42
619.395
631.431
643.547
655.801
668.277
681.077
694.3
708.029
722.32
528.255
530.35
534.405
540.292
547.795
556.638
566.511
577.11
588.164
599.458
610.843
622.24
633.635
645.064
656.605
668.355
680.422
692.907
705.895
719.445
531.481
534.619
539.558
546.152
554.182
563.374
573.423
584.021
594.894
605.827
616.682
627.404
638.013
648.586
659.234
670.086
681.267
692.89
705.043
717.793
534.515
538.663
544.539
551.975
560.734
570.521
581
591.825
602.689
613.354
623.692
633.682
643.403
652.994
662.627
672.473
682.687
693.396
704.697
716.658
536.247
541.288
548.057
556.372
565.975
576.533
587.654
598.923
609.958
620.476
630.347
639.603
648.403
656.979
665.58
674.428
683.711
693.569
704.103
715.378
535.769
541.463
548.937
558.003
568.387
579.721
591.55
603.371
614.706
625.2
634.715
643.343
651.344
659.051
666.789
674.83
683.384
692.601
702.578
713.374
532.428
538.405
546.231
555.719
566.585
578.438
590.781
603.044
614.67
625.247
634.624
642.936
650.518
657.771
665.069
672.714
680.927
689.86
699.609
710.23
525.954
531.759
539.475
548.913
559.786
571.692
584.126
596.511
608.285
619.032
628.594
637.097
644.867
652.301
659.772
667.582
675.958
685.055
694.976
705.777
516.569
521.754
528.913
537.856
548.289
559.816
571.955
584.173
595.971
606.975
617.027
626.197
634.726
642.938
651.156
659.661
668.676
678.364
688.836
700.158
505.016
509.232
515.52
523.694
533.461
544.433
556.158
568.158
580.002
591.366
602.085
612.165
621.747
631.06
640.356
649.882
659.848
670.422
681.725
693.833
492.527
495.556
500.831
508.178
517.298
527.8
539.238
551.165
563.188
575.005
586.443
597.456
608.111
618.558
628.99
639.615
650.631
662.21
674.48
687.525
480.804
482.559
486.824
493.436
502.076
512.316
523.683
535.724
548.046
560.357
572.471
584.311
595.898
607.332
618.764
630.379
642.369
654.913
668.149
682.163
472.074
472.589
475.929
481.942
490.265
500.404
511.83
524.059
536.691
549.43
562.086
574.567
586.869
599.061
611.273
623.677
636.467
649.833
663.928
678.84
468.99
468.436
470.963
476.43
484.429
494.406
505.784
518.055
530.817
543.778
556.748
569.63
582.404
595.121
607.894
620.883
634.285
648.299
663.087
678.733
473.894
472.585
474.402
479.222
486.643
496.116
507.072
519.016
531.558
544.414
557.399
570.41
583.416
596.451
609.61
623.034
636.905
651.409
666.699
682.849
487.511
485.793
486.996
491.019
497.535
506.082
516.168
527.353
539.279
551.678
564.367
577.239
590.25
603.418
616.811
630.543
644.756
659.601
675.196
691.596
)
;
    }
    coldSide
    {
        type            mixed;
        refValue        uniform 300;
        refGradient     uniform 0;
        valueFraction   uniform 0.991591;
        source          uniform 0;
        value           nonuniform List<scalar> 
400
(
300.028
300.028
300.028
300.028
300.028
300.029
300.029
300.03
300.03
300.031
300.031
300.032
300.032
300.033
300.033
300.034
300.035
300.035
300.036
300.037
300.027
300.027
300.027
300.027
300.028
300.028
300.029
300.029
300.03
300.03
300.031
300.031
300.032
300.033
300.033
300.034
300.034