/*--------------------------------*- C++ -*----------------------------------*\
| =========                 |                                                 |
| \\      /  F ield         | OpenFOAM: The Open Source CFD Toolbox           |
|  \\    /   O peration     | Version:  2212                                  |
|   \\  /    A nd           | Website:  www.openfoam.com                      |
|    \\/     M anipulation  |                                                 |
\*---------------------------------------------------------------------------*/
FoamFile
{
    version     2.0;
    format      ascii;
    arch        "LSB;label=32;scalar=64";
    class       volScalarField;
    location    "./ITHACAoutput/true/4.6";
    object      error;
}
// * * * * * * * * * * * * * * * * * * * * * * * * * * * * * * * * * * * * * //

dimensions      [0 0 0 1 0 0 0];

internalField   nonuniform List<scalar> 
3200
(
-2.06952
-2.34438
-1.81625
0.763408
2.01601
4.71347
3.56448
4.31711
5.98919
5.43576
2.73983
5.10986
3.0808
3.36496
3.00875
3.9119
2.5252
1.79937
-1.01456
-3.84472
-3.78023
-2.53949
-0.584793
-1.15924
3.53107
2.99717
1.70154
1.04625
3.92113
3.77654
3.70808
3.27278
3.80853
0.645974
2.79313
3.01744
2.02824
-0.748019
-2.66928
-1.83819
-4.32321
-2.03344
-1.89238
1.13187
1.02296
0.815201
1.47903
2.69974
3.20506
3.9162
-0.0764606
3.22469
1.72698
0.00206051
3.42061
3.65676
1.96545
2.69014
-0.323773
-4.29661
-3.39408
-1.05541
3.25063
2.37145
-0.48055
1.15058
0.751508
2.35061
2.40485
2.90486
1.06228
0.645816
0.344908
2.13476
1.04185
2.11521
-0.338956
-0.309591
-0.347851
-2.75995
-0.891571
-3.47872
-0.106305
0.967328
2.46887
-1.38326
2.04527
0.535507
-0.985764
0.0621888
3.11721
0.542782
1.50366
0.992251
2.26793
0.472204
-1.14066
0.652207
-0.57452
-0.647881
0.183937
-0.826304
-2.34669
1.03817
-1.87964
-0.270689
1.96082
1.05779
3.24256
0.935046
2.29926
0.19325
0.674487
0.236335
0.95706
3.46169
-0.652978
0.595248
1.76107
0.766383
-2.91249
1.08007
0.581381
-0.417323
2.43122
0.414214
0.637178
-2.68218
2.3852
-1.99257
0.417566
0.97007
-2.29917
-0.363956
2.79279
2.19735
-1.19114
1.26528
1.41057
1.49124
-1.44494
-1.80229
-1.96344
-1.73905
1.06813
-1.33383
2.39562
0.0281772
0.774078
-0.262973
-1.70344
1.58287
0.776396
0.608482
1.0064
0.895721
0.233957
0.191731
0.588152
-0.273702
-4.57656
-4.03594
-1.38424
3.43369
2.3582
1.18461
0.436908
4.33466
3.86173
2.51736
2.88094
4.75779
3.32472
1.19204
3.92048
2.55764
0.687459
0.81991
-1.10397
-1.34423
-3.98482
-0.233911
-0.68965
0.528536
0.0698839
-0.596317
5.49588
-0.10215
2.23926
-0.146953
0.187697
1.96674
-0.27808
2.01623
0.453313
3.86491
0.315268
-0.270494
-0.0484319
-2.98688
-2.02671
-3.51633
0.060932
1.04667
1.67094
3.89949
3.44993
2.36536
2.98246
4.29138
1.09816
3.56689
2.35809
0.827572
2.79313
3.41595
2.97581
0.622878
0.82394
-0.0885649
-3.80638
-2.49876
-0.963608
-0.469032
0.133261
2.93686
2.55455
1.66649
1.34086
1.09292
2.56197
2.29836
2.7584
3.57174
0.0622639
1.27955
-0.256837
1.96857
0.767118
-2.65255
-2.18845
-0.289031
0.273857
-0.545659
1.17077
-0.142471
0.463318
1.92921
1.66215
0.430391
2.91972
3.52935
0.401448
3.21922
0.204485
1.00998
0.930598
0.213608
-2.77491
-0.197916
-2.44127
-1.49557
0.894482
-0.171262
-2.42015
-0.513985
-0.710473
1.94095
1.91874
-1.62809
1.01877
0.0166763
-0.978526
0.182687
0.185435
-0.505239
-1.19386
0.64572
0.796304
0.926672
-1.71749
0.332298
-0.748821
-0.434778
-1.60551
-1.96186
1.02881
1.06571
2.30475
3.42801
0.459805
0.134856
-0.888213
0.926135
2.17265
-0.334945
2.06062
0.129349
-2.19145
-0.182168
-1.48219
-1.30259
0.685648
1.01063
-1.31472
0.731862
-1.00324
0.146518
0.121915
1.47978
-1.82774
0.49764
2.46763
1.74194
1.99405
0.223425
-0.0241326
-0.597527
0.243037
-0.452195
-3.5245
-4.17263
-0.961183
0.159201
0.401964
1.44223
1.78029
2.41865
4.4
4.20319
3.08124
-0.0825896
1.58987
3.14716
4.72336
5.02373
2.74239
0.988548
-0.655038
-1.33396
-4.09964
-4.93818
-0.961464
-1.33822
1.06194
1.05465
0.0927576
2.86253
1.04445
1.48179
1.48323
3.18982
1.10622
0.383892
3.3798
-0.994335
-0.7275
0.883757
-1.23631
-3.40444
-4.14108
-0.221021
-0.45555
-0.0293249
-0.0763435
1.47742
0.23238
1.92219
1.02731
0.760265
1.51522
0.603401
4.04068
-2.09677
2.54397
1.5652
1.01795
2.06162
-0.323631
-1.37305
-1.84815
-3.36944
-2.80991
0.261518
0.482202
-0.201533
1.40933
1.54671
1.30881
1.53046
2.18587
3.62215
0.51934
2.58428
0.716825
2.14595
2.80065
1.15032
-1.75342
-1.17407
-1.98795
-1.38513
-2.04509
-0.624225
-0.643365
0.757009
0.96695
-0.326532
-1.38824
1.70564
1.81238
2.03856
1.33512
0.825639
1.23728
0.450659
1.18247
-0.0281838
2.05137
1.60959
-3.44855
-0.479036
-1.62334
0.295221
2.0818
0.448397
-1.10822
0.589353
2.5668
0.234415
2.03409
1.31386
1.91937
-0.553379
3.18739
0.275595
0.720739
-1.98796
-0.603689
-1.19394
-1.6208
-0.597738
2.53976
1.64651
-1.99992
0.266039
0.134719
-1.8928
-0.614232
1.27464
-0.415215
1.61237
-0.935587
2.55805
2.84241
-0.0642443
3.04055
-2.60859
-0.91446
0.536885
2.36005
1.02318
-0.0776146
-0.112815
-1.08535
-0.0840853
-0.177188
-1.15546
-0.151722
2.43215
-1.03287
-1.11437
-1.49531
0.978047
0.422344
0.786058
-1.53784
-1.37755
-0.309423
-2.64445
-4.87943
-5.13842
-2.1362
0.0238013
1.22207
1.91954
-0.0629076
0.427012
2.12167
3.54718
2.69328
3.27482
2.2179
1.69178
1.78646
1.43854
2.75487
2.31493
-0.0390246
-0.541721
-4.53337
-0.861863
-0.139003
0.869528
0.10806
0.0221794
2.69507
-0.123629
2.07731
-0.225822
0.0128531
1.738
0.0982403
0.635927
-0.227373
2.50822
0.151799
2.55458
-0.637912
-2.57124
-1.73959
0.989745
-2.26852
-0.387592
-1.39717
1.56824
-0.367779
1.22271
-0.990443
2.64042
0.993247
2.43221
2.51925
2.06862
2.34026
2.70442
0.0415595
2.72754
-0.557681
-2.99324
-1.42653
-0.970676
-1.79869
2.67031
0.599178
-0.933916
0.919441
0.326763
2.19729
1.53632
2.61823
2.05835
0.582785
1.13501
1.46127
1.97382
0.969871
-0.151381
-0.711701
-2.78209
-2.00661
-1.56675
-1.16998
-0.563043
-0.337694
-1.38505
0.592961
2.42008
0.886388
0.296293
0.0283164
-0.370082
-0.427031
2.59209
-0.0498101
2.02727
1.98467
-0.505835
1.9029
-1.21693
-1.88969
-1.4789
-0.207691
0.0838491
-1.86711
-1.22159
1.25687
0.0731727
-1.00282
1.61607
-0.132788
-0.350969
2.46437
-1.45454
0.402083
-0.455203
1.05731
-1.69844
-0.77681
-0.631725
-0.992982
0.998201
-1.71941
-1.4252
-1.21436
-2.4847
1.43921
2.37077
-1.84453
-1.30409
-1.34338
-0.580893
0.465306
0.0710231
-1.15426
0.687109
1.89373
-0.297179
-0.621874
-0.108793
1.24688
-1.54896
-0.75393
-2.13339
1.12114
-0.317196
-0.692495
-0.803526
-0.633947
-0.021677
-0.818984
-1.75185
-0.331113
0.118618
-1.57359
2.48961
0.992185
-0.586011
0.11687
0.269084
-4.79078
-2.28936
-0.802281
-0.0765669
-1.03735
2.86552
3.37839
2.87807
0.147545
2.00499
-0.486225
1.50341
1.25245
0.527201
0.0405007
2.6934
1.08904
0.344679
-2.42519
-2.16068
-6.09921
-2.76222
0.590232
0.357277
0.860472
2.29531
1.89785
1.52441
1.82527
1.41687
1.11146
-0.501842
3.1265
0.506047
1.14387
1.40299
-0.162062
0.48674
0.519013
-3.83159
-4.5499
-3.04721
-2.103
-0.621133
0.637679
1.74977
1.89344
-0.625377
1.00044
-0.481777
1.61772
2.77499
0.35236
0.171985
0.926664
1.17535
0.956753
0.338736
-2.05611
-1.27696
-4.74334
-3.34641
-1.32011
-0.720681
2.32463
-1.58296
3.11365
-0.475324
1.82202
0.100922
0.869074
0.811499
0.968261
-0.246576
1.5705
1.05719
-0.997459
-1.08372
-0.213238
-3.11493
-0.984427
-0.466562
-2.40058
-0.982691
-0.435195
0.267953
-1.06454
-0.60269
-1.63431
-0.827089
-0.273684
-1.34616
0.360452
0.0195804
1.52937
0.834171
-0.55748
1.19083
-2.37437
-3.31716
-2.55136
-1.43913
-3.58693
0.870379
-1.02415
0.460801
-0.984095
0.206716
-0.512855
1.63851
0.949072
0.387886
0.328325
-0.31281
-0.829374
-0.185147
1.97989
-0.255115
0.29805
0.327211
0.301865
-2.85178
1.54159
-1.37127
1.06041
-1.41564
0.644634
0.320305
-0.00478258
2.51164
-0.650996
2.94326
1.969
-0.0157605
-0.501431
2.62971
3.19737
-3.03043
-1.81097
-1.04273
-2.2248
-0.521581
0.902249
0.827144
0.469109
1.31512
0.362358
0.133677
0.0394707
0.0590346
1.04714
-0.373935
-0.26803
0.630988
0.10304
3.18142
0.549862
0.746565
-1.2705
-0.564136
-6.81577
-3.52157
-0.363742
0.249685
-1.16867
-0.278931
-0.934552
2.7177
2.07068
-1.11593
1.11191
-1.70653
1.30314
-0.483083
3.43724
0.18246
-0.727232
0.3647
-1.29078
-2.46887
-4.62803
0.00136953
-2.33717
0.320026
1.61215
-0.544296
-0.363715
0.0703701
-0.368868
-0.188076
-0.0835553
-0.287935
0.89001
1.00806
0.0512343
1.55345
-0.334028
-0.679311
-0.28668
-2.06236
-4.53159
0.26039
-1.57472
1.23603
0.957398
-0.4011
2.67995
2.62156
0.474997
0.452651
-1.84513
-0.614392
-1.37955
1.94064
0.826415
1.98167
-0.984846
2.02478
-1.19218
-4.43631
-5.44796
-2.47985
0.989548
-0.517135
-0.104776
0.640993
-0.299276
-0.570731
-0.00516168
1.34533
-2.57092
-0.280742
2.09512
-1.23966
0.189107
0.5944
2.6286
0.565533
-1.06724
-3.62696
-3.5901
-2.29073
-0.621417
-0.326111
-1.55966
2.28299
1.31234
1.15812
0.0568476
-2.26577
-0.318435
-0.160205
-0.568553
-1.17734
1.44572
1.7173
0.576863
-0.771278
-1.18248
0.0342265
-2.63922
-0.560417
-3.10155
1.23235
-1.29181
1.35635
-1.58321
2.98549
1.4467
-0.37173
1.29092
0.526165
0.887396
-2.79815
-0.269683
-1.15886
0.574526
-0.257863
-0.904473
-3.65632
-1.43326
-1.7294
0.580076
2.4846
1.12916
0.0102916
0.404891
-0.148383
-2.37833
-3.14981
0.0121781
-0.0217241
-0.210673
-2.05033
-1.49366
-0.0742186
-0.0934845
-1.5342
-0.230089
0.0334421
-0.517931
-0.884462
0.98836
1.10942
-1.01534
-0.524608
-1.8768
-0.0261789
-1.22079
-0.568642
1.77072
1.59162
0.56141
-0.829041
-2.4852
-0.994983
0.560148
-1.51285
0.0802458
-0.61363
-4.34523
-2.76004
-0.063015
1.68636
0.373714
0.878807
-1.54122
0.021421
0.968601
-0.517994
0.544425
0.850232
-2.37827
-0.400521
0.0765375
1.06312
0.355884
-0.537242
-1.82924
-2.32952
-1.66559
-3.86859
-2.21388
-1.09898
-0.796553
-1.39556
-1.4797
-0.752753
-0.627801
-2.45888
-1.69456
-1.05435
-1.09335
0.595993
2.58133
-2.02211
-0.619718
-3.21187
-2.99528
-3.04794
-5.21555
-4.9602
-3.45179
0.819773
0.237488
-1.07337
-1.24287
-1.90404
0.416483
-0.644079
-0.604034
-2.31235
0.846195
-0.714188
-0.0375887
2.12694
-2.35197
-0.36885
-1.36467
-1.31254
-2.49196
-3.91072
0.29088
-1.35731
0.414643
-0.403334
1.61066
-0.907438
0.498497
-0.271288
0.337569
-1.53636
-2.35198
0.595759
1.99476
-0.430765
-1.05674
-0.717817
-0.893907
-3.49781
-3.93144
-2.56409
-1.76517
0.637112
-3.37919
-0.03309
0.867484
3.31202
-1.2441
1.62204
-0.731319
-1.75005
-1.43938
1.02546
0.0765455
0.680969
0.551673
-1.41031
-2.95308
-3.07799
-2.67015
-2.04544
0.555622
-1.11831
0.985109
2.4891
1.80526
1.16972
2.98317
-0.432007
-0.817576
-0.423411
-3.01426
-1.53132
-0.527247
0.503444
-0.639606
-1.80232
-0.395849
0.359129
0.417479
-1.4749
-1.16878
-1.30899
-2.91786
-2.03998
0.373864
1.39105
-1.6237
-1.0539
-1.74519
1.28168
-0.224978
-3.36334
-0.95491
0.187225
-0.493
0.84315
1.96499
-0.419602
-0.900906
-0.0516522
-1.12235
1.07702
0.0475997
0.955181
0.818699
-1.70721
-0.133555
-0.828403
1.55236
-0.202696
-0.535277
0.774389
0.811208
-0.283113
-0.37076
-1.63894
1.6954
0.742936
-3.60807
-1.66372
-2.568
-1.80566
-0.965193
-0.486603
-0.799532
-0.97517
2.09437
-1.70097
-2.88124
-3.55442
-1.67447
0.302336
-0.83203
0.269215
-1.90364
-0.676258
-2.65015
-3.09889
-4.15226
0.216979
-4.57951
-0.048269
-0.120734
0.206488
-2.09125
-0.170919
-1.11878
-0.689089
0.0521088
-0.0727347
-0.14009
0.192899
-0.324663
0.0575995
-0.583215
-2.63888
0.371328
-1.84551
-5.62618
-2.35897
-3.37908
0.0528043
1.46088
-1.13253
-2.19139
0.362267
-2.656
-2.15804
-1.38205
-1.67223
0.744554
-1.53884
-0.711396
-0.470173
-0.336923
-2.51112
-1.7509
-3.48689
-2.12834
-3.04623
0.178724
0.377968
-0.963486
-0.978444
-0.5433
0.31269
0.899983
1.73487
-0.264065
0.735569
-0.946467
1.55983
-1.18906
0.579547
-1.01285
-4.2154
-2.42781
-1.52128
-3.48873
-3.57031
-2.83311
-2.19047
-0.739282
-1.56044
-4.66831
-0.808676
-0.147128
-2.8345
0.8044
0.173847
-2.38084
-2.27096
-2.38419
-0.869148
-1.10795
-2.11094
-2.60641
-1.6987
-1.15695
-2.33921
-2.10757
1.44703
-1.95511
1.75638
0.0664704
0.298932
-1.55382
-0.25193
0.732415
-1.36932
-1.68458
-0.0533356
-0.774195
1.1169
-2.34337
-0.0740756
-3.31816
-0.10502
-2.00166
-0.612131
0.267572
0.871672
-1.74518
0.486101
0.771439
-0.641283
0.14202
2.52164
1.58408
-2.48373
0.336075
-1.20985
-0.716258
0.577965
0.171724
0.656917
-0.0862648
-0.380727
1.3226
-1.25287
0.693406
0.0878621
0.175614
-0.150127
-0.534855
-0.304732
0.323004
-1.55748
3.72258
0.428098
-1.65395
-0.615408
0.619323
-0.0544873
0.168228
0.754661
0.0979336
0.506671
-5.20138
-2.50866
-2.26873
1.20658
-0.540679
1.07192
1.23204
0.622771
-2.72679
-1.98546
-2.37426
-0.784178
-2.9546
-1.61004
-1.81523
-2.05647
-1.64158
0.368917
-2.3189
-5.87207
-3.47916
-2.11954
-0.0707445
-0.423143
-1.11101
-0.466015
-0.683013
0.0163173
-0.90686
-0.171551
-1.06858
-3.07512
-1.5592
-1.87937
-0.856137
-3.52516
-2.04811
-0.455765
-1.31373
-2.69111
-7.26055
-4.02968
-1.58662
-2.12758
-1.0301
-1.19118
0.681114
0.0268075
-2.58581
-0.825726
-2.87288
-1.03418
-1.55036
0.258719
-0.359929
1.82334
-1.55009
-1.05748
-2.88557
-4.21248
-4.0967
0.278681
-0.768647
0.927031
0.710812
0.587604
-0.9128
0.607891
-0.707091
-1.97085
-0.0523599
-2.27216
-1.75286
-0.0836429
2.31342
0.315141
-0.34625
0.144694
0.536176
-1.83881
-1.50046
-2.80812
-1.50286
-1.44078
0.525437
0.036226
-1.18588
-1.18209
1.97888
-0.623897
-1.93831
1.42057
-0.868252
0.79431
2.04731
0.267439
-0.447451
0.556923
0.142229
-1.26296
-1.21976
-1.17336
-1.42618
-2.42645
0.0354989
-0.813035
-0.248883
-0.751062
-0.579623
-0.475713
-1.62242
-2.10216
-1.01613
-0.679484
-0.459563
-0.152273
-1.47822
-1.01429
-1.41348
-3.15999
-2.38976
-2.09675
-2.10495
-0.234652
-1.34557
-0.743278
-0.647641
-1.63196
0.819254
-1.53952
1.90172
-1.91392
2.22752
-0.6998
-1.45781
-0.211505
-0.125791
-0.769722
-0.119412
-0.586913
0.606753
-0.494826
2.05981
0.497269
-2.15238
0.375232
-2.04764
0.232813
-1.20008
0.383802
1.11729
-0.947511
-0.476785
0.784518
-0.152964
-0.452001
-1.7428
-2.71613
-1.65663
-1.38067
-5.43512
-3.71199
-2.25826
-1.55998
-1.44057
0.52144
-1.58501
-0.436166
-0.866606
-1.56754
-1.3459
-0.932806
-5.03396
-0.593996
-1.93377
-3.92337
-1.85534
-1.84319
-3.00448
-4.5738
-6.03297
0.196333
-2.37539
-0.419746
0.666657
-0.0280769
0.433329
-0.0417768
-4.18193
0.490798
-0.0946555
-4.24932
-0.225303
-2.29923
-0.0625807
-4.58759
-0.931569
-3.74231
-0.64447
-4.03993
-3.14763
-2.21415
-1.5475
-0.0379922
-1.22809
-0.199431
-2.72907
-0.108898
-0.651802
-3.80031
-1.22473
-1.92439
-2.46947
-1.03477
-2.30907
-0.14272
0.267441
-0.549779
-1.89023
-3.509
-3.4147
-2.76732
-1.91224
0.630601
-0.098832
0.313164
-2.21816
0.622254
-0.699582
0.452403
0.149896
1.05315
-0.306354
0.947632
-2.27603
-3.79802
-0.217309
0.326119
-2.48708
-5.60433
-1.22704
-2.74698
-1.24819
-2.72391
-2.94199
-0.714754
-1.21528
-1.39274
0.00362557
-3.51345
-0.942907
-0.0745707
-1.61686
1.06476
-0.727419
0.289433
-1.5233
-1.28523
1.46923
-4.22623
-2.36597
1.23777
-0.7275
0.958099
-2.58902
0.705287
0.851792
-0.505697
0.997795
-0.24779
-2.11734
1.57211
-0.831399
-2.61269
-1.30436
-1.57026
-1.32664
-0.769819
-0.0461464
-3.41826
-1.68245
0.584898
-2.27233
0.513715
-1.7937
-0.699829
-3.41029
-3.47153
1.77124
-1.9659
-1.80945
-0.822893
-0.581574
1.04007
0.079838
-0.950444
0.373851
-2.48442
0.526355
-1.19023
-1.12715
-0.608394
-2.53456
-0.0299101
-0.239593
-0.870904
-0.602506
1.28691
-1.1297
1.62912
0.204833
1.6958
-0.421756
-0.679739
1.51107
-0.822359
-0.828493
-0.455244
1.63549
-2.01979
-4.58386
-3.63721
0.454453
-2.5512
-2.0407
1.1874
1.02573
-0.329554
-3.39821
-1.18495
-2.43132
-0.824433
-1.40804
-2.62481
-1.55142
-1.78519
0.755038
-0.400352
-2.54604
-4.94742
-5.3498
-0.20469
-5.04367
0.141606
-3.00998
0.30756
0.388234
0.0347918
-0.16884
-0.645975
-0.677298
-2.48721
-0.121442
-2.01002
0.0384447
-2.95304
0.404544
-3.73888
-0.236669
-3.21918
-2.58616
-4.14454
-3.07615
-1.20821
0.259714
-0.73702
-1.55532
0.241966
-2.18173
-3.37709
-5.33155
-2.5142
-3.76122
-1.03567
-0.382968
0.642258
-1.81339
-5.25549
-2.46122
-2.86211
-3.57867
-3.78177
-0.247475
-2.41573
-2.97099
-1.61138
-0.287009
-0.718781
2.30118
0.2065
0.57939
-1.06105
-1.57742
-0.782645
-0.741927
1.37815
-1.04155
-0.660912
-1.20657
-4.94118
-3.14184
-2.30566
-0.996202
-1.72695
0.392322
-0.470199
0.504456
1.11544
-1.1589
-1.21315
-2.09365
0.67242
-1.78576
-0.56428
-3.44972
-0.139485
0.0891594
-2.09134
1.78028
-2.66398
-3.42358
-2.09076
0.941354
0.883398
-1.29548
-1.74615
-2.47983
-1.42641
0.770902
-1.49974
-1.71333
-1.00356
-1.21675
-2.57742
-2.07185
0.611782
0.384255
-0.625669
-0.354984
-1.82757
0.819529
-1.28049
-0.344018
-0.917504
-0.2976
-0.593625
-0.700213
1.54103
-2.831
-0.0668659
-0.583075
-1.65632
-2.03105
0.57979
-1.06181
-1.53776
-0.637436
-1.28611
-0.660649
-1.11255
-0.993218
-0.106158
-1.43151
1.96517
-1.32748
0.240636
0.0590862
0.291554
0.35101
-2.03624
-0.482572
-2.26776
0.555307
1.07438
-1.08473
-0.465284
1.32814
0.265781
0.932622
-2.60759
-2.89758
-2.68877
-3.78817
1.52285
-1.08595
-0.0109907
-0.245829
-0.747165
-0.331454
-1.20975
-3.39084
-4.26254
-0.812261
-2.21585
-0.778495
-2.37993
0.820403
-2.73189
-2.06434
-4.23874
-4.51651
-4.02159
-1.99398
-1.13043
-0.121278
-0.832867
1.52064
-1.40901
0.366525
-1.72409
-2.48634
-1.68508
-2.7028
0.444489
-1.45664
-1.54519
-1.08573
-1.27248
-3.29194
-2.32487
-3.61214
-0.677867
-2.31094
1.23608
-1.75752
2.02635
-2.67122
-2.11053
0.80647
-0.954881
-2.09687
-3.25217
-2.15999
-1.0797
-0.333457
-1.73173
-0.374012
-0.698233
0.343943
-1.94931
-0.723892
-4.1668
-4.62889
-0.125352
-0.937834
-0.3476
-0.108022
-3.14084
-1.10049
-3.61482
-1.04012
1.45223
-2.93127
-3.86943
-1.0701
-2.19495
-1.34266
-0.189239
-1.58509
-2.9217
-2.9772
-2.28459
0.601877
-0.717363
-4.24723
1.78606
-1.80559
-0.0138482
-0.851378
-2.48686
-0.361014
-2.12858
1.89127
-1.97631
-0.601918
0.402522
1.50176
-0.256549
-1.87467
-2.67455
-0.225069
-0.13999
-0.299782
0.251824
1.03423
-2.0292
-1.58617
0.652889
-1.53758
-0.596729
-2.22464
-2.0356
-2.10644
1.3574
-0.510301
1.57671
-3.29632
-0.288322
-1.77852
-3.63786
-1.33643
0.947763
0.237817
-2.08942
0.439086
1.3052
-1.08885
0.837057
-1.38891
-2.00275
0.377579
-0.715156
-0.9122
-0.153101
-0.722936
-0.283953
-1.87985
1.14515
1.66637
-1.04916
-1.93527
-1.68028
1.06513
0.131801
-2.55885
-0.13936
1.1315
-0.594612
-1.77769
-1.80307
1.31804
-2.01359
-1.87636
-0.726556
0.188954
0.420988
1.12603
1.67783
-0.288805
-0.855742
-7.24429
-2.28467
-2.24367
1.1963
-1.34393
1.71857
-1.60083
-0.478689
-1.41908
-3.78904
-1.00743
-1.87875
-1.03366
-2.88736
-1.76623
-1.03376
-1.38169
-0.21044
-1.98193
-2.91382
-4.66142
0.322004
0.800028
-0.392732
-0.443702
-0.240896
1.18147
-0.351801
-1.50531
-0.227101
0.135473
-3.32214
-0.161922
-2.55783
-1.21842
1.20125
0.0124156
-3.48487
0.0211521
-3.06681
-2.63238
-2.5009
-2.07525
0.238208
0.965151
2.29536
-1.37238
0.444718
0.657139
-1.50643
-0.108385
-1.59711
-0.803448
-0.532487
-0.140234
-4.71685
-2.04803
-1.61039
-3.56575
-2.6381
-3.89078
-2.54562
-1.25273
-0.406166
1.94754
0.632967
-1.50977
-0.473507
-1.50983
-0.430918
-2.43258
-1.6964
-2.72188
-0.654262
-1.97716
-1.97502
1.17336
-1.34381
-0.826811
-2.36384
-3.60635
-3.40644
-0.652404
-0.647913
-0.891536
0.363971
0.502448
0.32801
0.398813
-1.38074
-3.82721
-1.8995
-3.89341
-0.211995
-1.37787
1.56715
-0.459778
0.817257
-1.52423
-3.89114
-1.77365
-2.25815
-0.120162
0.447465
0.917021
0.945019
0.860604
-3.03037
-1.74778
1.75101
-0.0946652
1.53783
-0.596504
-2.21802
0.741871
-2.51648
0.614183
-0.688246
0.261861
0.00951162
1.74293
-1.3022
-0.575203
2.87177
-0.245766
0.0614113
-2.16351
0.221971
-0.652284
0.719256
0.271514
-0.928723
2.34111
-0.0346995
0.216736
1.38024
1.61022
1.39535
-1.62597
-0.762796
-1.00829
-1.60695
1.98514
-0.939785
-1.04302
-1.19918
-0.623945
3.25108
-0.128293
1.25101
-0.364606
-1.10652
-0.760284
0.722025
-1.02572
-0.29656
-1.46826
0.327598
0.549845
-0.252196
-4.22543
-3.04252
-0.588331
2.08163
0.718396
0.841663
0.450698
-0.525295
-1.47347
-0.875788
-0.955959
-4.39113
-2.08412
-0.947247
-1.94843
-1.20011
0.562762
-0.991237
-4.88449
-5.00831
-3.97103
-3.68847
-1.84371
0.528387
-3.19282
-0.381095
0.250439
-0.772161
-0.474415
-1.44375
-1.34384
-2.77778
-4.14505
-1.36159
0.547039
0.247446
1.73259
-1.02942
-2.44332
-2.40176
-1.60978
0.723595
0.587036
-1.09014
-1.03905
1.15208
1.08501
-1.00402
-0.149463
-0.345613
-2.44956
-2.23565
-0.992185
-1.84496
-1.32539
0.953985
-2.10562
-0.881518
0.146969
-2.76359
-2.08837
-3.67502
-0.709581
-0.969953
-0.589288
-0.640162
1.14596
0.783028
0.1059
-0.147349
-1.6984
0.802236
-2.11226
0.418317
0.389261
-0.112045
0.88746
-0.0546919
-2.50766
-1.6197
0.238953
-1.97839
-1.58588
1.12009
-0.910441
2.13593
1.44947
0.5581
-3.01563
-1.75815
-0.154368
-2.28697
-0.0790877
-2.28749
1.23372
-2.17221
0.308124
-2.56406
-2.12662
-1.20839
-2.59601
-1.31798
-0.622511
0.0738268
1.75735
0.538278
-0.257584
-1.76781
-1.86593
-0.556185
-1.83927
2.42515
1.88771
-1.90304
0.540624
0.378945
-0.685015
0.638589
-0.961173
0.160169
-1.76838
-1.52203
2.27972
0.849943
0.114256
-2.43329
-1.26193
-2.36611
-0.611283
-2.52037
-1.37435
0.0358682
-1.05396
-0.853717
-0.255015
-1.42011
1.09082
0.202936
-1.67165
-0.119569
-0.290428
-0.589749
-0.0041899
-1.28913
-0.786204
0.187003
1.93757
-0.367318
-0.198584
-0.460084
0.547015
3.1088
-1.49863
-2.26958
4.30988
-0.633167
0.723529
-0.954764
0.38242
-0.987034
-4.86088
-2.85486
3.00837
-0.407706
0.317639
1.45503
0.459428
0.499193
0.668534
0.561373
1.76076
0.33518
-1.78927
0.631478
0.939182
0.751259
-0.841111
-0.919848
-1.13214
-1.54999
-2.12699
-0.222581
1.37861
-0.0733012
1.38662
-0.290648
0.766638
-0.0806219
-1.27513
0.339766
-0.750464
-0.975694
0.555195
-0.952125
-0.494772
1.36704
-0.22903
-1.85142
-0.0170553
-2.41099
-5.00191
-1.96638
-0.101204
-0.0910404
0.45067
-0.302496
0.176038
-0.0891082
-1.24845
-0.963556
-0.972985
0.542307
-0.635854
2.38953
0.37468
-0.257298
1.74681
-2.84682
-2.7225
-1.93887
-1.06975
-1.93366
-3.26122
0.738736
0.473493
0.659696
1.83275
1.67842
-0.11034
2.15855
2.17795
-0.487961
0.656104
2.86579
-0.975533
-1.23273
-0.458253
-0.745499
-2.58077
-1.67918
-2.67105
-2.66046
0.414447
-1.12729
-0.00137395
0.762915
-2.28214
1.24623
-0.592676
-1.05895
-0.0852931
-1.49484
-1.27671
1.43756
-0.179605
0.44283
0.440504
1.00689
-0.000822587
-2.24629
-0.0801833
-2.5659
-0.0131214
0.217602
-0.867948
-1.62412
0.735152
-0.183044
1.22927
0.958342
-0.661843
2.02059
0.533505
0.655651
-0.97036
-0.53015
-0.972947
-2.04007
-0.0514181
-2.42841
-3.43059
-1.40959
0.00758233
-2.36602
0.320048
1.5327
1.59744
0.387289
0.699767
-0.735093
-0.227003
-0.270645
1.527
-0.828177
-0.942808
-0.518464
-1.40543
-3.22166
1.19964
-0.840449
-0.423088
-2.31111
1.44704
0.0524413
-0.883537
-0.363716
-0.619173
0.945603
0.533029
0.19377
-2.37734
0.00817441
0.367172
0.495609
-0.39976
0.12056
-3.24423
-1.42349
-1.38099
-0.940753
-3.66627
-1.35028
-1.93121
1.55043
1.63458
3.33801
1.17889
1.26695
1.37179
-0.745072
-0.758453
0.741016
1.22044
-0.907498
2.43793
1.91436
0.189621
1.39341
0.00282785
-3.75832
-3.00023
-2.48344
1.88843
1.08684
2.42808
1.17412
-0.510723
1.68839
3.07366
0.647339
0.177786
0.995355
1.05963
1.06148
-0.235064
1.91527
1.04127
-1.36596
0.688856
-0.555703
-2.52645
-0.555514
0.313222
0.989924
-2.74455
-0.000419474
1.65343
-1.03235
2.77669
0.727353
0.727542
-0.243626
0.346592
1.39097
-0.888241
-0.719548
0.605915
0.9292
-0.118917
-1.91185
-0.988475
1.25244
1.0819
0.711736
0.359968
0.463215
0.277245
0.48777
1.27316
-0.946336
0.757711
-0.132542
-0.513184
-0.188846
1.65247
0.458717
1.45183
0.132544
-0.295203
-1.45265
-3.21469
-1.34504
0.343606
0.456733
-0.228454
0.424136
-1.28397
-1.0826
-0.855951
-0.730452
0.0515491
0.549745
-0.323569
0.275454
-0.853609
-2.34805
0.576072
2.14625
-0.211413
-1.07985
-0.283051
-1.57559
0.882623
-0.276158
0.965292
2.34752
0.869813
-0.397508
1.55851
1.27571
1.71669
-0.959357
1.48117
0.859874
1.0381
1.49842
-1.50423
0.929146
0.138207
-1.88589
0.0116542
0.0824592
-0.667698
0.580593
0.429725
-1.56558
0.914168
0.147282
-0.536539
1.75724
-2.05247
-0.853924
0.736334
-0.420212
-1.11538
1.67273
1.06095
-2.1707
-0.923115
-0.954539
1.85409
-0.570124
-0.319927
-0.0126964
1.67145
-0.245572
0.282933
-0.0190086
-0.709002
-0.3514
-0.383237
1.2371
-0.646624
0.741635
1.12453
-2.22364
0.994113
1.75455
-0.374952
1.25325
-0.0778233
1.91725
-1.51758
3.76543
-0.290625
-0.569187
4.3321
1.35272
1.56682
2.08585
3.32393
2.76533
0.235568
3.5978
3.80127
1.88181
1.89377
3.40702
0.627152
-0.763118
-0.658607
-0.270863
1.25212
-0.0643411
2.82314
0.891783
0.149311
0.47812
2.7786
0.630444
0.0194152
1.61875
0.333483
1.56639
-0.432066
0.136792
0.691639
0.491083
0.156458
-1.259
-0.568046
0.100462
0.771448
2.01549
0.116503
4.25926
0.801757
0.424399
-0.283015
2.26006
1.60548
0.993442
1.50574
-0.771988
-0.816174
0.546833
2.69975
0.972211
-1.69404
-2.50273
-1.14814
-2.03594
0.602311
0.238618
1.13878
1.12555
0.986446
1.65223
2.32934
1.42066
1.91595
1.53711
-0.305178
1.22774
-1.7223
3.09142
-1.2988
0.372964
-1.68133
-0.719306
-1.41274
-0.081203
1.23226
1.54609
2.30432
0.463902
0.0846922
-0.174344
0.362706
1.33039
3.21819
-1.31212
2.65218
3.37471
1.74482
1.07676
-0.327598
0.309779
1.97027
-0.708958
-0.455483
-1.3116
0.537654
-0.800099
1.11896
-0.139997
1.62441
-1.52988
0.811199
-0.151792
-0.11722
1.21019
0.650644
0.196971
-0.114005
0.420632
0.414588
0.463016
0.546821
-1.29889
0.682646
0.858334
-0.205818
2.17151
0.549801
-1.52672
-1.81968
1.48965
-0.614368
2.38
-0.481395
-0.019265
-0.647112
-0.754385
0.768068
-0.108183
0.304955
-1.99942
0.408339
1.67602
-2.81004
0.0188916
-1.54244
0.0268849
1.26203
1.47649
-0.850755
0.952526
0.337443
-0.858168
1.44655
2.20741
2.75543
3.20081
1.43308
0.26642
1.1811
0.32864
1.7389
-1.13587
-2.14578
0.420868
4.76442
1.47484
3.71043
2.799
5.06516
2.81155
3.8476
3.87028
3.64798
4.39128
1.36827
1.23238
1.14802
2.44769
3.26211
1.75769
1.34721
-3.74621
0.111796
-0.405926
3.22086
4.03048
0.824772
2.54983
2.36926
4.30556
3.63582
2.10745
1.69642
3.92264
2.09933
2.14714
3.24818
2.40497
1.02049
-0.250224
-0.870409
-2.09895
1.60521
0.457985
-2.23018
2.24387
0.430084
1.31917
3.06193
2.97058
-0.558392
-0.0932415
1.4875
1.73092
2.30512
2.0574
2.19862
3.43543
0.795127
-0.350657
-0.562904
0.499218
1.12035
0.694576
2.37427
1.90072
2.38458
1.21808
1.87377
0.615217
-1.55796
0.841526
0.674221
3.53329
1.92938
2.21186
-1.65951
-1.35462
2.00714
0.770738
1.61528
0.534852
0.0405083
-1.47447
0.645835
1.64273
1.72715
-0.206671
1.9334
0.157562
2.38824
3.85554
-1.70073
0.885655
1.52461
1.65127
-0.657708
3.31557
1.65889
-0.75704
0.36871
0.289665
-0.921088
-3.41971
2.70238
0.881397
-0.0744177
-0.591444
0.0051503
-0.0179628
1.68364
0.596579
1.50811
1.4441
1.05938
2.40463
0.185434
1.44437
2.22654
0.700118
0.337011
-0.206591
-0.168866
0.624452
-1.08114
0.154466
-1.05103
-0.507005
-3.12871
2.06265
3.21847
0.461585
-0.509045
2.57716
0.609144
-0.536869
4.14969
1.15965
1.76888
0.560262
0.749001
-0.638076
0.667971
0.255931
1.97761
1.13282
0.136178
-1.52411
1.78559
0.478794
-0.352662
0.156401
0.101197
-0.113554
-0.215518
1.31936
-1.2833
1.1664
-1.69067
1.62251
-0.506086
-0.912549
0.928326
3.24901
1.82503
2.53972
6.13959
4.90372
5.54282
4.94445
4.80581
3.31201
3.27703
3.72858
2.93843
2.13566
3.41329
4.13931
2.46781
4.03883
0.540325
-0.389148
2.28987
0.643096
2.13346
0.045688
3.06522
0.215031
4.26461
0.0241438
4.01362
0.504781
0.445741
4.08878
0.471491
2.75819
0.207729
0.583577
-0.371861
1.55827
-0.467258
2.01628
1.81749
3.15513
3.48753
0.415378
4.48228
1.43341
2.4393
4.35779
2.26901
1.49143
5.73727
3.07168
0.866198
0.80537
-0.971871
1.87523
1.83231
2.12799
-0.436586
-2.36753
3.18819
0.265781
3.68531
3.7336
5.59376
1.48701
3.34647
1.73528
3.01337
2.5991
-0.100258
4.39957
2.10526
2.62083
3.0453
2.07979
1.77423
3.02125
-0.376419
1.0656
-1.01445
-2.02428
0.905916
1.52191
1.74253
0.681397
1.80859
1.02047
1.40223
0.649035
0.749982
3.94214
1.96605
3.48916
2.4375
0.0728803
1.22934
2.73607
-1.09748
0.190324
0.251385
-0.950087
-1.74456
-0.711133
0.691521
1.68952
2.54971
0.837621
0.115447
4.33996
2.86562
0.618137
0.5674
2.96318
1.03758
1.14077
1.16205
-0.373686
0.415545
-1.70351
-1.51824
0.678825
-0.344166
3.56132
2.94957
0.396278
-0.558948
1.43006
-0.0829194
2.46352
0.66458
-0.22409
-1.00322
2.1155
0.709333
0.353696
0.865834
-1.11704
-1.33
0.00150199
-0.230399
0.908484
0.701324
-0.724007
0.450299
1.71755
-1.94256
1.00566
0.192823
-2.13012
-2.0614
1.02987
1.63468
-0.677061
0.18221
-0.0931845
0.195194
1.19408
-0.244266
0.620579
1.68249
1.40262
4.53296
6.24045
5.612
5.97018
5.82348
4.28208
5.6262
8.09206
4.07238
4.22896
4.98586
2.22938
3.90053
4.59907
3.44035
3.635
2.19145
3.56922
2.65091
4.543
5.3714
5.28405
2.52464
2.98879
6.71101
4.24459
2.91689
5.02076
3.88454
5.66954
3.07443
4.81361
3.49267
7.05416
2.03776
4.96743
1.77925
1.28297
-0.139839
3.06284
1.66345
2.71288
4.2206
3.15064
5.21669
3.52512
5.80821
0.482075
3.25534
4.2444
1.5448
4.56458
1.25488
2.26384
2.79001
1.62507
2.1515
0.213917
1.4895
3.65082
0.721764
2.05418
2.90743
2.72542
1.55684
5.195
3.42506
1.75352
3.11838
4.65222
1.05646
0.641652
1.81231
1.8593
2.84788
2.91762
2.57514
1.48997
2.85499
1.13889
3.04305
2.20937
4.76627
-0.263773
1.10881
2.78743
4.61046
2.17811
3.89351
2.62232
1.69326
1.64184
1.87661
0.996637
1.81727
1.47091
2.32165
0.377627
0.151201
0.616729
-0.652376
3.63942
1.14063
1.69388
2.72221
2.87877
1.055
0.985294
1.41672
1.53108
0.29442
3.85022
0.87955
1.41768
0.994935
1.60996
0.293717
0.393477
-0.740024
1.19353
-0.825271
0.629015
0.439398
-0.000435334
0.119992
1.35604
3.26691
0.302419
2.29288
0.895856
1.29024
1.84218
1.39468
3.04456
-1.19
-0.518059
0.82162
-0.826542
-1.15624
-2.1482
-0.47187
-0.0964814
2.81998
-1.47497
0.26704
1.87978
1.89256
0.81687
-1.40531
0.631825
1.61826
1.82798
-1.14157
2.14501
-0.745663
-1.23998
-0.0307136
-0.465281
)
;

boundaryField
{
    hotSide
    {
        type            calculated;
        value           nonuniform List<scalar> 
400
(
-1.00231
-3.50841
-2.45445
-3.8064
-3.71362
-5.73315
-3.25568
-2.50993
-4.09279
-4.31406
-3.44811
-1.74476
-6.07186
-3.03071
-3.64108
-2.41847
1.20096
-0.83295
2.27833
3.07283
-1.22614
-2.91716
-3.05274
-4.01672
-1.165
-2.39352
-1.62703
-0.524268
-1.36103
-2.55422
-2.46712
-1.50394
-1.08252
-1.8203
-1.60967
-0.0791051
3.21752
1.75342
4.61709
2.80951
-0.642793
-0.210728
0.212495
-0.962085
0.37275
0.812924
1.11629
-1.38475
-1.07993