/*--------------------------------*- C++ -*----------------------------------*\
| =========                 |                                                 |
| \\      /  F ield         | OpenFOAM: The Open Source CFD Toolbox           |
|  \\    /   O peration     | Version:  2212                                  |
|   \\  /    A nd           | Website:  www.openfoam.com                      |
|    \\/     M anipulation  |                                                 |
\*---------------------------------------------------------------------------*/
FoamFile
{
    version     2.0;
    format      ascii;
    arch        "LSB;label=32;scalar=64";
    class       volScalarField;
    location    "0";
    object      relativeErrorField;
}
// * * * * * * * * * * * * * * * * * * * * * * * * * * * * * * * * * * * * * //

dimensions      [0 0 0 1 0 0 0];

internalField   nonuniform List<scalar> 
3200
(
0.0059757
0.00675396
0.00521732
0.00218604
0.00575427
0.0134111
0.0101124
0.0122176
0.0169194
0.0153415
0.0077327
0.0144353
0.00871876
0.00954633
0.00856066
0.0111656
0.00723099
0.00516884
0.00292287
0.0111016
0.011113
0.00745089
0.00171142
0.00338314
0.0102758
0.00869777
0.00492517
0.00302187
0.0113076
0.0108816
0.0106843
0.00943791
0.0110001
0.0018698
0.00810563
0.00878107
0.00591927
0.00218911
0.0078317
0.00540388
0.0129439
0.00607811
0.00564412
0.0033678
0.00303626
0.0024138
0.0043697
0.00796135
0.0094387
0.0115247
0.000225011
0.00949649
0.00509274
6.08764e-06
0.0101284
0.0108536
0.00584803
0.00802349
0.000967784
0.0128643
0.0103533
0.00321503
0.00988424
0.00719656
0.00145532
0.00347749
0.00226715
0.00708029
0.00723549
0.00873468
0.00319418
0.00194307
0.0010389
0.00644013
0.00314886
0.0064058
0.00102862
0.000941379
0.00105964
0.00841896
0.00277185
0.0108036
0.00032967
0.00299512
0.00763187
0.00426919
0.00630313
0.0016483
0.00303148
0.000191156
0.00958169
0.00166919
0.0046283
0.00305793
0.00699958
0.0014597
0.0035318
0.00202261
0.00178425
0.00201423
0.000583049
0.00261722
0.00742509
0.00328106
0.00593345
0.00085349
0.0061759
0.00332867
0.0101971
0.00293949
0.00722814
0.000607726
0.00212249
0.000744373
0.00301763
0.0109275
0.0020637
0.00188341
0.00557799
0.0024293
0.00941652
0.0034904
0.00187761
0.00134682
0.00784055
0.00133487
0.00205205
0.0086333
0.00767428
0.00640966
0.00134322
0.00312116
0.00740047
0.00117213
0.00900018
0.00708634
0.00384414
0.00408631
0.00455843
0.0048214
0.00476696
0.00594493
0.00647506
0.00573369
0.00352077
0.0043955
0.00789274
9.28165e-05
0.00254949
0.000866059
0.00561002
0.00521333
0.00255747
0.00200474
0.00331647
0.00295247
0.000771361
0.000632293
0.00194004
0.00090296
0.0132095
0.0116228
0.00397492
0.0098293
0.00672902
0.00336966
0.00123923
0.0122649
0.0109076
0.00710377
0.00812976
0.0134385
0.0094073
0.00338105
0.011152
0.00729811
0.00196793
0.00235442
0.00317923
0.00387989
0.0117104
0.00068607
0.00201766
0.00154205
0.000203318
0.00173012
0.0159049
0.000294991
0.00645652
0.000423366
0.00054075
0.00567075
0.000803043
0.00583492
0.00131521
0.0112444
0.000919826
0.000791364
0.000142052
0.00877769
0.00606624
0.0105076
0.000181684
0.00311351
0.00495844
0.0115441
0.0101909
0.00697429
0.00878203
0.0126274
0.00323132
0.0105029
0.00695283
0.00244459
0.00826879
0.0101367
0.00885213
0.00185727
0.00246212
0.000265087
0.0116081
0.00761002
0.00292941
0.00142306
0.000403499
0.00887487
0.00770549
0.00501904
0.00403385
0.003286
0.00770289
0.00691439
0.00830762
0.0107737
0.000188154
0.00387433
0.000779255
0.00598454
0.00233627
0.0080893
0.00680242
0.000897457
0.000849129
0.00168924
0.00361861
0.000439655
0.0014277
0.00593758
0.00511112
0.00132283
0.00897396
0.0108528
0.00123555
0.00991992
0.000631027
0.00312164
0.00288093
0.000662319
0.00861623
0.000615189
0.00773726
0.00473639
0.00282984
0.000541198
0.00763886
0.00162045
0.00223756
0.00610739
0.00603362
0.00511791
0.00320251
5.24398e-05
0.00307903
0.000575353
0.000584624
0.00159471
0.00377267
0.00204284
0.00252186
0.00293696
0.00555241
0.00107377
0.00241817
0.00140305
0.00517732
0.006322
0.00331314
0.00343011
0.00741517
0.0110268
0.00147904
0.000433878
0.00285881
0.0029825
0.00700128
0.00108011
0.00664973
0.000417708
0.00708137
0.000588922
0.00488969
0.00429651
0.00226108
0.00333198
0.00433348
0.00241172
0.00330529
0.000482626
0.00040153
0.00487334
0.00601929
0.001639
0.00812831
0.005739
0.00657106
0.000736435
7.95635e-05
0.00197048
0.000801643
0.00149177
0.0101648
0.0120073
0.00275814
0.000455435
0.00114632
0.00410036
0.0050473
0.00684092
0.0124237
0.0118573
0.00869224
0.000233197
0.0044968
0.0089225
0.0134289
0.0143266
0.00784529
0.00283666
0.00188496
0.00384718
0.0120393
0.0144741
0.00281113
0.00390213
0.00308796
0.0030585
0.000268333
0.0082636
0.00301059
0.00426781
0.00427195
0.00919452
0.00319346
0.00111054
0.0098015
0.00289139
0.00212133
0.00258393
0.00362371
0.00999777
0.0123874
0.00066008
0.0013576
8.71894e-05
0.000226445
0.00437204
0.0006862
0.0056659
0.00302417
0.00223653
0.00445743
0.00177629
0.0119104
0.00619161
0.00752822
0.00464261
0.00302659
0.00614392
0.000966526
0.00410726
0.00563335
0.0102568
0.00853841
0.000793131
0.00145951
0.000608808
0.00424985
0.00465716
0.00393656
0.00460058
0.00657073
0.0108945
0.00156373
0.00779291
0.00216545
0.00649529
0.0084938
0.00349544
0.00533752
0.00357869
0.00617675
0.00429924
0.0063388
0.00193183
0.00198793
0.00233547
0.00297895
0.00100477
0.00426809
0.00524153
0.00556957
0.00626747
0.00410833
0.00254361
0.00381717
0.00139249
0.00365946
8.73565e-05
0.00636718
0.00500115
0.0109266
0.00151666
0.00513439
0.000932695
0.00656947
0.0014134
0.00348964
0.00185419
0.00807045
0.000736798
0.00639342
0.004131
0.00603861
0.00174253
0.0100471
0.000869687
0.00227704
0.00628761
0.00191132
0.00378295
0.00523888
0.00193118
0.00820038
0.00531259
0.00644837
0.0008572
0.0004338
0.00609165
0.00197604
0.00409978
0.00133551
0.00518714
0.00301103
0.00823703
0.00915849
0.000207144
0.00981058
0.0084226
0.00295445
0.00173536
0.00778523
0.00337469
0.000255938
0.000371924
0.00357728
0.000277078
0.000583742
0.00380594
0.000499686
0.00800957
0.00340147
0.00367011
0.00492537
0.00322216
0.00139171
0.00259083
0.0050699
0.00454252
0.00102055
0.00872341
0.0140555
0.0147695
0.00612329
6.80224e-05
0.00348198
0.00545308
0.000178225
0.00120703
0.00598744
0.0100016
0.00759394
0.00924167
0.00626933
0.00479303
0.00507503
0.00409875
0.00787321
0.0066356
0.00011217
0.00156046
0.013299
0.00252362
0.000406032
0.00253326
0.000313975
6.42757e-05
0.00779159
0.000356701
0.00598488
0.000650111
3.70024e-05
0.00500729
0.000283449
0.0018385
0.000658923
0.00728783
0.000442249
0.007462
0.00186787
0.00754293
0.00519897
0.0029533
0.00675502
0.00115153
0.00414137
0.00463798
0.00108545
0.00360242
0.00291445
0.00776449
0.00292076
0.00715695
0.00742236
0.00610524
0.00692121
0.00801624
0.000123473
0.00812184
0.00166406
0.00894564
0.0043449
0.00295265
0.00546192
0.00809342
0.00181254
0.00281984
0.00277135
0.000983502
0.00660657
0.00461667
0.00786785
0.00618882
0.00175408
0.00342113
0.00441211
0.00597091
0.00293957
0.000459683
0.00216489
0.00847368
0.006231
0.00486019
0.00362443
0.00174162
0.00104297
0.00427135
0.00182613
0.00744454
0.00272441
0.00091029
8.69953e-05
0.00113748
0.00131361
0.00798281
0.000153609
0.00626121
0.00613902
0.001567
0.00590297
0.00377887
0.00598477
0.00468033
0.000656637
0.000264809
0.00589004
0.00384948
0.00395672
0.00023016
0.00315239
0.00507856
0.000417291
0.00110328
0.00775151
0.00457898
0.00126705
0.001436
0.00333915
0.00536981
0.00245841
0.00200071
0.00320875
0.00322417
0.00555028
0.00459749
0.00391466
0.00800447
0.0046336
0.00762885
0.00593326
0.00419401
0.00432037
0.00186855
0.0014973
0.000228661
0.00371846
0.002215
0.00610891
0.000959298
0.00200864
0.000351555
0.00411278
0.00510842
0.00248591
0.00703275
0.00369501
0.00104516
0.00228129
0.00264659
0.00208778
7.13841e-05
0.00269698
0.00576937
0.00109059
0.000390762
0.00518498
0.00820512
0.00327076
0.00193224
0.000385432
0.000887563
0.0137779
0.00657024
0.00229636
0.00021853
0.00295208
0.00813157
0.00956217
0.00812845
0.000416054
0.00564909
0.00136995
0.00423936
0.00353726
0.00149219
0.00011493
0.00766484
0.00310823
0.000986574
0.00696005
0.00621396
0.0178671
0.00807707
0.00172189
0.00103966
0.00249748
0.00664539
0.0054821
0.00439499
0.0052551
0.00407633
0.00319767
0.00144485
0.00901392
0.00146176
0.00331174
0.00407212
0.000471592
0.00141997
0.00151766
0.0112243
0.0135813
0.00908192
0.00625525
0.0018435
0.00188841
0.00517057
0.00558408
0.00184131
0.00294212
0.00141592
0.00475443
0.00816073
0.00103746
0.000507215
0.00273829
0.00348067
0.00283961
0.00100755
0.00612804
0.00381169
0.0144325
0.0101694
0.00400499
0.00218245
0.00702668
0.00477622
0.00937929
0.00142986
0.00547551
0.000303129
0.00261036
0.0024387
0.0029127
0.000742763
0.00473862
0.00319559
0.00302063
0.0032878
0.000648005
0.00947779
0.00305442
0.0014462
0.00743123
0.00303764
0.00134327
0.000825883
0.00327684
0.00185316
0.00502122
0.00254008
0.000840512
0.00413594
0.00110832
6.02718e-05
0.00471383
0.00257475
0.00172325
0.00368635
0.0073598
0.0102923
0.00807557
0.00455191
0.0113344
0.00274745
0.00322936
0.00145149
0.00309689
0.000650004
0.00161171
0.00514766
0.00298166
0.00121898
0.00103239
0.000984395
0.00261247
0.000583811
0.00624974
0.000806144
0.000942722
0.00103569
0.000975105
0.00920802
0.00497467
0.00442219
0.00341745
0.00455937
0.00207496
0.0010305
1.53813e-05
0.0080762
0.00209328
0.00946582
0.00633476
5.07302e-05
0.00161496
0.00847496
0.0103112
0.00977913
0.0058474
0.00336829
0.00733751
0.00171995
0.00297463
0.00272642
0.00154592
0.00433292
0.00119363
0.000440265
0.000129981
0.000194394
0.00344812
0.00123141
0.000882759
0.00207851
0.000339487
0.0104842
0.00181245
0.00246135
0.00418954
0.00186055
0.019562
0.0100869
0.00103923
0.000711413
0.00332059
0.000790413
0.00264179
0.00766672
0.00583286
0.00314101
0.0031297
0.00480708
0.00367619
0.00136558
0.00974017
0.000518431
0.00207206
0.00104197
0.00369721
0.00708592
0.0135332
3.99781e-06
0.00680721
0.00092986
0.00467274
0.00157388
0.00104944
0.000202677
0.00106101
0.000540612
0.000240175
0.000828219
0.00256336
0.00290861
0.000148148
0.0045026
0.000970543
0.00197855
0.000836851
0.00603074
0.0135059
0.00077492
0.00467739
0.00366374
0.00283185
0.00118397
0.00789596
0.00771194
0.00139575
0.0013293
0.00541862
0.00180535
0.00405829
0.00571775
0.00243942
0.00586149
0.0029192
0.00601418
0.00354794
0.0132219
0.0165553
0.00752671
0.00299863
0.00156435
0.000316394
0.00193231
0.000900779
0.0017156
1.55013e-05
0.00403824
0.00771708
0.000843111
0.00629786
0.00373122
0.000570072
0.00179491
0.00795161
0.00171374
0.00323923
0.0110216
0.0111279
0.00709362
0.00192189
0.00100719
0.00481024
0.00703156
0.00403701
0.00355893
0.000174563
0.00695484
0.000977444
0.000491945
0.00174717
0.00362172
0.00445279
0.00529643
0.00178164
0.00238537
0.00366174
0.000106088
0.00834749
0.00177132
0.00979408
0.0038876
0.00407104
0.00427019
0.00497993
0.00938365
0.00454464
0.00116741
0.00405412
0.00165289
0.00278916
0.00880146
0.000849039
0.00365204
0.00181242
0.00081428
0.00285878
0.0115644
0.0046277
0.00558156
0.00187112
0.0080095
0.00363774
3.31355e-05
0.00130289
0.000477259
0.00764713
0.0101259
3.91498e-05
6.98502e-05
0.000677611
0.00659772
0.0048091
0.000239105
0.000301362
0.00494878
0.000742605
0.000107978
0.0017079
0.00291614
0.00325808
0.00365636
0.00334558
0.00172824
0.00618167
8.62123e-05
0.00401986
0.00187232
0.00583033
0.00524091
0.00184884
0.00273063
0.00818712
0.0032785
0.00184611
0.00498702
0.000264577
0.00202347
0.0124408
0.00788704
0.000179636
0.00479483
0.00105981
0.0024859
0.00434972
6.03404e-05
0.00272469
0.00145608
0.00153038
0.00239172
0.00669931
0.00113037
0.000216504
0.00301487
0.00101189
0.00153151
0.00522721
0.0066696
0.00485999
0.0112694
0.00643546
0.00318729
0.00230484
0.00402908
0.00426338
0.00216522
0.00180362
0.00705969
0.00486526
0.00302906
0.00314491
0.0017172
0.00745249
0.00585102
0.00179732
0.00933649
0.00872539
0.00889352
0.0155155
0.0147352
0.0102354
0.00242605
0.000701424
0.0031641
0.00365737
0.00559488
0.00122253
0.00188957
0.00177208
0.00678758
0.00248648
0.00210163
0.000110805
0.00628193
0.00696047
0.00109373
0.00405399
0.00390463
0.00756087
0.0118519
0.000880205
0.00410048
0.00125057
0.0012145
0.00484289
0.00272515
0.00149575
0.000813631
0.00101242
0.00460988
0.00706331
0.00179131
0.00600653
0.00129919
0.00319245
0.00217212
0.00270909
0.0106127
0.0121709
0.00793074
0.00545311
0.00196565
0.0104118
0.000101826
0.00266636
0.0101703
0.00381762
0.00497555
0.0022433
0.00537019
0.0044199
0.00315194
0.000235549
0.00209817
0.00170205
0.00435683
0.00913388
0.00952882
0.00843781
0.00645947
0.00175311
0.00352516
0.00310227
0.00783131
0.00567497
0.00367452
0.0093665
0.00135604
0.00256632
0.00132942
0.0094689
0.00481381
0.00165884
0.00158543
0.00201618
0.00568672
0.00125008
0.00113487
0.00134722
0.00475768
0.00376816
0.00421774
0.00939616
0.00656543
0.00120261
0.00447268
0.00521909
0.00338701
0.00560868
0.00411973
0.000723376
0.0108189
0.00307326
0.000602908
0.00158851
0.00271833
0.00633857
0.00135407
0.00297022
0.00017027
0.00369912
0.00354901
0.000156819
0.00314627
0.00269623
0.00562155
0.000439727
0.00272734
0.00511082
0.00066737
0.00176257
0.0025503
0.00267203
0.000932729
0.00122173
0.00540173
0.00558885
0.0024494
0.0103005
0.00474104
0.00730123
0.00512131
0.00273082
0.00137351
0.00225201
0.00274189
0.00588131
0.00477344
0.00808563
0.00998136
0.00470812
0.000851578
0.00234854
0.000761692
0.00539921
0.00192271
0.00755204
0.00884687
0.0120851
0.000630525
0.013281
0.000139684
0.000348632
0.000595018
0.00601484
0.000490833
0.00320925
0.00197551
0.000149388
0.000208641
0.000402301
0.000554814
0.00093555
0.000166325
0.00168774
0.00765298
0.00107905
0.00537134
0.0167005
0.00699296
0.0099997
0.000155974
0.00430712
0.00333304
0.00643881
0.001063
0.00778598
0.00632303
0.00404941
0.0049021
0.00218474
0.00452148
0.00209365
0.00138621
0.000995207
0.00743116
0.00519038
0.0103503
0.00644586
0.00921569
0.000539915
0.00114005
0.0029016
0.00294222
0.00163152
0.000937948
0.00269742
0.00519752
0.000791118
0.00220464
0.00283903
0.00468414
0.00357554
0.00174534
0.00305502
0.0127345
0.00734482
0.00460732
0.0107848
0.0110275
0.00874059
0.00674963
0.00227518
0.00479663
0.0143344
0.00248089
0.000451078
0.00868733
0.00246537
0.000532994
0.00730405
0.00697316
0.00732872
0.00267485
0.00341402
0.0065126
0.00805036
0.00525122
0.00365215
0.00737967
0.0066434
0.00455716
0.0061517
0.00552159
0.000208801
0.000938411
0.0048755
0.000790298
0.00229757
0.00429659
0.00528826
0.000167541
0.00243386
0.00351431
0.00738005
0.000233498
0.010468
0.000331518
0.00645526
0.00197335
0.000862141
0.00280706
0.00561691
0.00156369
0.00248038
0.00206106
0.000456317
0.00810093
0.00508894
0.00798032
0.00108013
0.00388999
0.00230406
0.0018602
0.000553005
0.00211665
0.000278095
0.00122783
0.00435956
0.00412919
0.00228491
0.000289469
0.000578465
0.000494421
0.00176117
0.00100328
0.00106333
0.005127
0.0122542
0.00140931
0.00544537
0.00202641
0.00203964
0.000179478
0.00055424
0.00248676
0.000322767
0.00167009
0.0148
0.00712593
0.00643061
0.00341223
0.00152557
0.00301793
0.00346198
0.00174713
0.00764094
0.00556026
0.00664908
0.0021974
0.00828888
0.00452414
0.00511071
0.00580249
0.00464241
0.00104568
0.00658691
0.0167084
0.0100965
0.0061418
0.000204611
0.00122138
0.00320041
0.00133984
0.00196034
4.6766e-05
0.00259644
0.000490907
0.00305783
0.00880439
0.00446873
0.00539405
0.00246148
0.0101547
0.00591175
0.00131819
0.0038068
0.00780958
0.0214976
0.0119165
0.00468434
0.00627058
0.00303073
0.00349881
0.00199763
7.85265e-05
0.00756786
0.00241553
0.00840415
0.00302671
0.00454142
0.000758794
0.00105721
0.00536456
0.00456855
0.00312208
0.00853316
0.0124727
0.0123812
0.000841371
0.00231751
0.002791
0.00213693
0.00176407
0.00273694
0.00182082
0.00211639
0.00589668
0.000156658
0.00680079
0.00525033
0.000250795
0.00694521
0.000947412
0.00104245
0.00043626
0.00161878
0.00555732
0.00463067
0.00865937
0.00462941
0.00443307
0.00161483
0.000111211
0.00363691
0.00362232
0.0060604
0.00191013
0.00593435
0.00435055
0.00266062
0.00243603
0.00628505
0.000821919
0.00137674
0.00171554
0.00043859
0.00389772
0.00384576
0.0036973
0.00449047
0.0076335
0.000111584
0.00255355
0.000781117
0.00235579
0.00181727
0.00149115
0.00508554
0.00659081
0.00318719
0.00213255
0.00144338
0.000478639
0.00465039
0.00319359
0.00445394
0.00996309
0.00770111
0.00675447
0.00677766
0.000755155
0.00432808
0.00238959
0.00208119
0.00524238
0.00263101
0.00494343
0.00610646
0.00614648
0.00715548
0.00224881
0.00468677
0.000680312
0.000404819
0.0024784
0.000384674
0.00189135
0.00199947
0.00163043
0.00678586
0.00163792
0.00708831
0.00123552
0.0067412
0.000766367
0.00395002
0.00126321
0.00367737
0.0031187
0.00156946
0.00258277
0.000503663
0.00148855
0.00574047
0.00894805
0.00545851
0.0045498
0.0154071
0.0105056
0.00637856
0.00439694
0.00405184
0.00146371
0.00444126
0.00122036
0.00242215
0.00437885
0.00375969
0.00260718
0.0140846
0.0016644
0.00542821
0.0110352
0.00522946
0.00520617
0.00850324
0.0129655
0.0174496
0.000567085
0.00684897
0.001208
0.00191503
8.05109e-05
0.00124061
0.000119451
0.0119461
0.00140133
0.000270262
0.0121386
0.000644198
0.00658267
0.000179451
0.0131783
0.002681
0.0107902
0.00186147
0.011685
0.00929317
0.00652948
0.00455665
0.000111689
0.00360451
0.000584449
0.00798682
0.000318341
0.00190387
0.0110958
0.00357586
0.00562101
0.00721896
0.00302834
0.00676691
0.000418893
0.00078622
0.00161884
0.00557423
0.0103601
0.0102954
0.00833553
0.00575265
0.00189451
0.000296521
0.000938373
0.00663895
0.00186065
0.00209047
0.00135139
0.000447759
0.00314699
0.000916052
0.00283626
0.00681996
0.011395
0.000652861
0.000981074
0.00749142
0.0168973
0.00377972
0.00845524
0.00383809
0.00836688
0.00902712
0.0021909
0.00372175
0.00426203
1.10889e-05
0.010743
0.00288311
0.000228077
0.00494786
0.00326078
0.00222973
0.000888088
0.00467906
0.00395199
0.0045223
0.0130183
0.00744935
0.00389504
0.00228764
0.00301041
0.00812853
0.00221269
0.00267053
0.00158459
0.00312535
0.000775982
0.0066307
0.00492426
0.00260517
0.00819126
0.00409216
0.00493
0.00416838
0.00242072
0.000145214
0.0107625
0.00541719
0.00188264
0.00731077
0.00165199
0.00576534
0.00224838
0.0109519
0.0111448
0.00568495
0.00630892
0.00580684
0.00264114
0.00186706
0.00334013
0.0002565
0.00305493
0.00120222
0.00799315
0.0016942
0.0038323
0.00371328
0.00200407
0.00834762
9.84933e-05
0.000788845
0.00286695
0.00198312
0.00423532
0.00371763
0.00536089
0.000674037
0.00558053
0.00138803
0.00223733
0.00497433
0.00270756
0.0027282
0.00149935
0.00538736
0.006654
0.0129394
0.0102519
0.00127856
0.00716358
0.0057191
0.00332166
0.00286471
0.000919175
0.00946915
0.00330026
0.00677156
0.00229729
0.00392725
0.00733074
0.00433996
0.00500302
0.0021201
0.00112635
0.00717628
0.0139657
0.0154163
0.000589088
0.0144918
0.000406171
0.00861887
0.000879254
0.00110829
9.92029e-05
0.000481014
0.00183954
0.00192873
0.0070859
0.000346271
0.00573798
0.000109906
0.0084558
0.00116036
0.0107428
0.00068112
0.0092766
0.00761104
0.0121841
0.00903052
0.00354163
0.000760176
0.00215422
0.00454036
0.000705636
0.0063579
0.00983766
0.0155311
0.00732677
0.0109687
0.00302338
0.00111937
0.00187987
0.00531558
0.0154283
0.00723546
0.00842317
0.010761
0.0113615
0.000742614
0.00724005
0.00889319
0.00481776
0.000857219
0.00214497
0.00686295
0.000615664
0.00172741
0.00316443
0.00470731
0.00233755
0.00221824
0.00412527
0.00312157
0.00198324
0.00362489
0.014858
0.00965741
0.00708216
0.00305714
0.00529442
0.00120159
0.00143876
0.0015423
0.00340799
0.00353906
0.00370379
0.00639198
0.00205344
0.00545601
0.0017252
0.0105558
0.000427207
0.000273342
0.00641789
0.00546837
0.00818857
0.0107626
0.00656927
0.00295578
0.0027718
0.00406186
0.00547116
0.00776526
0.00446439
0.00241192
0.00469138
0.00535952
0.00313986
0.0038082
0.00807085
0.00649168
0.00191819
0.00120566
0.00196455
0.00111538
0.00574528
0.00263623
0.00411773
0.00110582
0.00294793
0.000955765
0.00190567
0.002247
0.0049437
0.00907996
0.000214438
0.00186991
0.00531237
0.00651567
0.00186056
0.00340865
0.00493863
0.00204807
0.0041341
0.00212449
0.0035788
0.003271
0.000349575
0.00471327
0.00646934
0.0043694
0.000791942
0.00019443
0.000959288
0.00115483
0.00669901
0.00158761
0.00746098
0.00182711
0.00353536
0.0035699
0.00153148
0.00437223
0.000875086
0.0030711
0.00858765
0.00814137
0.0075442
0.0106108
0.00425795
0.003031
3.06256e-05
0.000683993
0.00207641
0.000920347
0.00335764
0.00941118
0.0118358
0.00225732
0.00616539
0.00216927
0.00664266
0.00229388
0.00765213
0.00579216
0.0119097
0.0129616
0.0115275
0.00570696
0.00323029
0.00034602
0.00237277
0.00432655
0.00400468
0.00104095
0.00489458
0.00705857
0.00478571
0.00768187
0.00126467
0.00414986
0.00440859
0.00310254
0.00364195
0.00943604
0.006672
0.0105928
0.00198588
0.00676136
0.00361159
0.00512821
0.00590509
0.00777556
0.00613783
0.00234384
0.00277423
0.00609205
0.00945175
0.00628167
0.00314288
0.000971744
0.00505294
0.00109279
0.00204289
0.00100761
0.0057165
0.00217029
0.012482
0.0138512
0.00037467
0.00279995
0.00103667
0.000321858
0.00935112
0.00327467
0.0107533
0.00309415
0.00432131
0.00872715
0.0115292
0.00319143
0.00655313
0.00401311
0.000566269
0.00474826
0.00875952
0.00912981
0.00700128
0.00184291
0.00219452
0.0129812
0.00545427
0.0055098
4.2232e-05
0.00259527
0.00757903
0.00110024
0.00648859
0.00576769
0.00603073
0.00183814
0.00123027
0.00459412
0.000785537
0.00574506
0.00820171
0.000706323
0.000439114
0.000939757
0.000788894
0.00323782
0.00634878
0.00495996
0.00204066
0.00480429
0.00186422
0.00694993
0.00636043
0.00658386
0.00424459
0.00159659
0.00493614
0.0103264
0.000903835
0.00557879
0.0114165
0.00429441
0.00304462
0.000763675
0.00670677
0.00140884
0.00418622
0.00349113
0.00268308
0.00445109
0.00641765
0.00120992
0.00229189
0.00292394
0.000490881
0.00231871
0.000911084
0.00603408
0.00367731
0.00535308
0.00337132
0.00637116
0.00553113
0.00350575
0.000433744
0.00841977
0.000458496
0.00372221
0.00195587
0.00584699
0.00593026
0.00433502
0.00662289
0.00617196
0.0023901
0.000621662
0.00138524
0.00370565
0.00552237
0.000950688
0.00281721
0.0202507
0.0063784
0.00625411
0.00332918
0.00373404
0.00476778
0.00443526
0.00132483
0.00392449
0.0104745
0.00278498
0.00519574
0.00286079
0.00799973
0.00490002
0.00287225
0.00384509
0.000586592
0.00553319
0.00814529
0.0133172
0.000918918
0.00227993
0.00111759
0.00126084
0.000683632
0.00334892
0.000996246
0.00425994
0.000642456
0.000383247
0.00940143
0.000458537
0.00725026
0.0034577
0.00341351
3.5331e-05
0.0099312
6.03628e-05
0.00876158
0.00768961
0.00729867
0.00604924
0.000693493
0.00280639
0.00666657
0.00398186
0.00128925
0.00190395
0.00436331
0.000313931
0.00462735
0.00232921
0.00154497
0.00040729
0.0137153
0.00596241
0.0046942
0.0104064
0.0077063
0.0116269
0.0076013
0.00373696
0.00121035
0.00579756
0.00188244
0.00448623
0.00140603
0.0044811
0.00127862
0.00721795
0.00503483
0.00808236
0.00194411
0.00588007
0.00587937
0.00349654
0.00400867
0.00246888
0.00706394
0.0110305
0.0104128
0.00199269
0.00197732
0.00271858
0.00110901
0.00152991
0.000998211
0.00121321
0.00419942
0.0116402
0.00577836
0.0118486
0.000645506
0.00419834
0.00477873
0.00140316
0.00249621
0.00465925
0.0119016
0.00555565
0.00707015
0.000376004
0.00139933
0.00286601
0.00295185
0.00268683
0.00945709
0.00545288
0.00546212
0.0002953
0.00479785
0.00186155
0.00692475
0.0023173
0.00786488
0.00192069
0.00215361
0.000819873
2.97934e-05
0.00559413
0.00417846
0.00184503
0.0092081
0.000787733
0.000196769
0.00693
0.000710824
0.00208846
0.00230268
0.000869245
0.00297355
0.00749701
0.000111147
0.000694447
0.00442396
0.00516303
0.00447576
0.00521734
0.00244828
0.00331809
0.00528768
0.00653133
0.0030916
0.00343079
0.00394396
0.00205186
0.0106903
0.000421834
0.00411325
0.0011988
0.0036383
0.0025
0.0023744
0.00337346
0.000975467
0.0048301
0.00107783
0.00180927
0.000829931
0.0117463
0.00844796
0.00163124
0.00576307
0.00198602
0.00232365
0.0012428
0.00144711
0.00405643
0.00241019
0.00263082
0.0120887
0.00574143
0.00261204
0.0053792
0.00331771
0.00155803
0.00274835
0.0135624
0.0139226
0.0112893
0.0104753
0.00522953
0.00149675
0.00903262
0.00107684
0.000706906
0.0021777
0.00133717
0.00406804
0.00378652
0.00782935
0.0116901
0.0038433
0.00154574
0.000700035
0.00490786
0.00291986
0.00693905
0.00682797
0.00468252
0.00210297
0.00170422
0.00316119
0.00300968
0.00333358
0.00313667
0.00290036
0.000431539
0.000997603
0.00707061
0.0064549
0.00286619
0.00533359
0.00383506
0.00276327
0.00610585
0.00255913
0.000427133
0.00803868
0.00621863
0.0109355
0.00210952
0.00288083
0.00174859
0.0018979
0.00339484
0.00231824
0.000313391
0.000435954
0.00502496
0.00237406
0.00625357
0.00123924
0.00115405
0.00033247
0.00263582
0.000162594
0.00746188
0.00482303
0.00072881
0.00603077
0.00483076
0.00340932
0.00276912
0.00649195
0.00440281
0.00169442
0.00915238
0.00533498
0.00046842
0.00694093
0.000240114
0.00694834
0.00374976
0.00660678
0.000937863
0.0078104
0.00648262
0.00368561
0.00811477
0.00411816
0.00194406
0.000230427
0.00548203
0.0016783
0.000802761
0.00550737
0.00581156
0.00173205
0.00572777
0.00755329
0.00588092
0.00593083
0.00168561
0.00118211
0.00213806
0.00199427
0.00300327
0.000500665
0.0056686
0.00487772
0.00730354
0.00272202
0.000365792
0.00778777
0.0040377
0.007569
0.00195513
0.00806052
0.00439537
0.000114721
0.00337153
0.00273158
0.000816179
0.0045465
0.00349345
0.000650145
0.00535722
0.000383283
0.000955326
0.00193974
1.37794e-05
0.00423911
0.00258501
0.000614792
0.00636934
0.00120739
0.000652718
0.00151219
0.00179791
0.0102182
0.00492604
0.00746075
0.0141692
0.00208183
0.00237921
0.00313996
0.00125782
0.00324673
0.0134321
0.00788032
0.0082932
0.00112241
0.000873309
0.00399558
0.00126027
0.00136817
0.00183119
0.00153719
0.00482144
0.000918097
0.00490397
0.00173222
0.00257903
0.00206549
0.00231557
0.00253575
0.00312506
0.00428308
0.00601486
0.000628846
0.0038904
0.000206606
0.00390378
0.000817382
0.00215396
0.000226345
0.003578
0.000953113
0.00210521
0.00273778
0.0015587
0.00267511
0.00139144
0.00384864
0.000645543
0.00522466
4.81855e-05
0.00681799
0.014483
0.00568913
0.000292511
0.000262861
0.00129991
0.0008717
0.000506874
0.000256403
0.00359068
0.00277062
0.00279773
0.00155973
0.00182963
0.00688025
0.00107971
0.000742147
0.00504357
0.00822818
0.00787671
0.00561398
0.00317325
0.0057322
0.00965955
0.00218619
0.00140005
0.0019491
0.00541121
0.00495279
0.000325473
0.00636586
0.00642305
0.00143935
0.00193608
0.00846128
0.00288225
0.00364499
0.00135614
0.00220813
0.00765049
0.00498105
0.00812192
0.00808557
0.00125873
0.00342136
4.16718e-06
0.00231246
0.00691356
0.00377369
0.00179411
0.00320508
0.000258152
0.00452509
0.00386599
0.00435498
0.000544398
0.0013431
0.00133695
0.00305805
2.49998e-06
0.00683035
0.000250082
0.00799978
4.08891e-05
0.000677747
0.00270199
0.0050537
0.00228661
0.000569154
0.00382138
0.00297882
0.00205721
0.00628134
0.00165887
0.00203933
0.00301942
0.0016504
0.00303036
0.00635727
0.000160307
0.00757393
0.0109818
0.00451126
2.42593e-05
0.00756759
0.00102334
0.00489937
0.00510506
0.00123744
0.00223553
0.00234821
0.000725146
0.000864621
0.00487896
0.00264666
0.00301373
0.00165777
0.00449519
0.0103075
0.00383933
0.00269039
0.00139104
0.00759791
0.00475675
0.000172368
0.00290377
0.00119524
0.00203455
0.00310696
0.00175128
0.000636623
0.00781064
2.68573e-05
0.00120641
0.00162853
0.00131369
0.000396222
0.0106634
0.00467933
0.00454008
0.00309302
0.0100664
0.00370377
0.00529092
0.0042425
0.0044675
0.00911323
0.00321547
0.00345302
0.00373676
0.00202902
0.00206546
0.00201853
0.00332628
0.00247524
0.00665588
0.00523216
0.000518869
0.00381753
7.7567e-06
0.0103191
0.00843639
0.00697726
0.00529999
0.00304696
0.00679999
0.00328503
0.00142773
0.00471668
0.00858249
0.0018071
0.000496306
0.0027793
0.00296017
0.00296736
0.000657673
0.00536382
0.0029192
0.00383364
0.00193535
0.00156259
0.0072796
0.00159948
0.000901029
0.00284498
0.00788046
1.20343e-06
0.00474004
0.0029578
0.00795227
0.00208265
0.00208319
0.000697728
0.000993028
0.00398762
0.00254828
0.00206605
0.00174136
0.00267298
0.000342395
0.00550871
0.00292019
0.0036978
0.00319185
0.00209812
0.00106033
0.0013635
0.000815581
0.00143418
0.00374214
0.00278104
0.00222671
0.000389577
0.00150891
0.000555536
0.00486413
0.00135121
0.00427984
0.000391035
0.000871576
0.00429147
0.0097432
0.00407468
0.00104029
0.00138192
0.000690801
0.00128178
0.00387838
0.00326883
0.00258376
0.00220462
0.000155583
0.00165945
0.000976993
0.000832039
0.00257969
0.00710005
0.00174299
0.00649789
0.000640455
0.00327285
0.000880698
0.00490068
0.00274407
0.000858176
0.00299836
0.00728877
0.00269969
0.00123341
0.00483485
0.00395711
0.005325
0.00297614
0.00459584
0.00266884
0.00322317
0.00465433
0.00467449
0.00288871
0.000429878
0.00586786
3.72519e-05
0.000263519
0.00213322
0.0018544
0.00137215
0.00499776
0.00291762
0.000469975
0.00171187
0.00560625
0.00654814
0.00272452
0.00234963
0.00134113
0.00356058
0.00534117
0.00338863
0.00693514
0.00295005
0.00305112
0.00609283
0.00187338
0.00105115
4.17113e-05
0.00549065
0.000806624
0.000929272
6.24284e-05
0.00232842
0.001154
0.00125855
0.00406273
0.00212366
0.00243585
0.00369371
0.00730458
0.00326594
0.00576477
0.00123206
0.00411838
0.000212245
0.00522415
0.00413063
0.0102376
0.000789322
0.00154438
0.0117443
0.00366474
0.00424277
0.00564686
0.00899861
0.00748816
0.000638193
0.00975363
0.010314
0.0051109
0.00514884
0.0092734
0.00170887
0.00208122
0.00184098
0.000756539
0.0034939
0.00017936
0.00786246
0.00248146
0.000415158
0.00132861
0.00771795
0.00175077
5.39168e-05
0.0044963
0.000926686
0.00435533
0.00120226
0.000380967
0.00192804
0.00137031
0.000436998
0.00351924
0.00162836
0.000287792
0.00220813
0.00576403
0.000332911
0.0121617
0.00228781
0.00121038
0.000806863
0.0064421
0.00457629
0.00283225
0.00429436
0.00220286
0.00233047
0.00156259
0.00772094
0.00278278
0.00485292
0.00717434
0.00337734
0.00598561
0.00176954
0.000700537
0.00334094
0.00330002
0.00289059
0.00483939
0.00682058
0.00415921
0.00560924
0.00450082
0.00089387
0.00359767
0.00504966
0.00906956
0.00381305
0.00109574
0.00494305
0.00211589
0.00426715
0.000245167
0.00371837
0.00466266
0.00694547
0.00139754
0.00025503
0.000524809
0.00109154