/*--------------------------------*- C++ -*----------------------------------*\
| =========                 |                                                 |
| \\      /  F ield         | OpenFOAM: The Open Source CFD Toolbox           |
|  \\    /   O peration     | Version:  2212                                  |
|   \\  /    A nd           | Website:  www.openfoam.com                      |
|    \\/     M anipulation  |                                                 |
\*---------------------------------------------------------------------------*/
FoamFile
{
    version     2.0;
    format      ascii;
    arch        "LSB;label=32;scalar=64";
    class       volScalarField;
    location    "./ITHACAoutput/true/4.6";
    object      trueState;
}
// * * * * * * * * * * * * * * * * * * * * * * * * * * * * * * * * * * * * * //

dimensions      [0 0 0 1 0 0 0];

internalField   nonuniform List<scalar> 
3200
(
346.322
347.112
348.12
349.219
350.351
351.462
352.487
353.353
353.984
354.317
354.317
353.984
353.353
352.487
351.462
350.351
349.219
348.12
347.112
346.322
340.162
340.83
341.7
342.651
343.63
344.591
345.478
346.226
346.77
347.058
347.058
346.77
346.226
345.478
344.591
343.63
342.651
341.7
340.83
340.162
333.996
334.551
335.283
336.087
336.915
337.726
338.475
339.106
339.566
339.808
339.808
339.566
339.106
338.475
337.726
336.915
336.087
335.283
334.551
333.996
327.826
328.272
328.87
329.526
330.203
330.866
331.477
331.993
332.368
332.566
332.566
332.368
331.993
331.477
330.866
330.203
329.526
328.87
328.272
327.826
321.652
321.995
322.458
322.968
323.494
324.009
324.484
324.885
325.176
325.33
325.33
325.176
324.885
324.484
324.009
323.494
322.968
322.458
321.995
321.652
315.475
315.718
316.048
316.412
316.788
317.156
317.495
317.781
317.988
318.098
318.098
317.988
317.781
317.495
317.156
316.788
316.412
316.048
315.718
315.475
309.296
309.441
309.639
309.858
310.083
310.304
310.508
310.679
310.804
310.87
310.87
310.804
310.679
310.508
310.304
310.083
309.858
309.639
309.441
309.296
303.116
303.165
303.231
303.304
303.38
303.454
303.522
303.58
303.621
303.643
303.643
303.621
303.58
303.522
303.454
303.38
303.304
303.231
303.165
303.116
346.46
347.243
348.243
349.332
350.452
351.551
352.564
353.419
354.042
354.37
354.37
354.042
353.419
352.564
351.551
350.452
349.332
348.243
347.243
346.46
340.281
340.944
341.807
342.748
343.718
344.669
345.545
346.283
346.821
347.105
347.105
346.821
346.283
345.545
344.669
343.718
342.748
341.807
340.944
340.281
334.097
334.647
335.373
336.169
336.989
337.792
338.532
339.155
339.609
339.848
339.848
339.609
339.155
338.532
337.792
336.989
336.169
335.373
334.647
334.097
327.908
328.351
328.943
329.593
330.263
330.919
331.524
332.033
332.403
332.598
332.598
332.403
332.033
331.524
330.919
330.263
329.593
328.943
328.351
327.908
321.716
322.056
322.515
323.02
323.541
324.051
324.521
324.916
325.203
325.355
325.355
325.203
324.916
324.521
324.051
323.541
323.02
322.515
322.056
321.716
315.521
315.761
316.089
316.45
316.821
317.186
317.521
317.803
318.008
318.116
318.116
318.008
317.803
317.521
317.186
316.821
316.45
316.089
315.761
315.521
309.324
309.467
309.664
309.88
310.104
310.322
310.523
310.693
310.816
310.881
310.881
310.816
310.693
310.523
310.322
310.104
309.88
309.664
309.467
309.324
303.126
303.174
303.239
303.312
303.387
303.46
303.527
303.584
303.625
303.647
303.647
303.625
303.584
303.527
303.46
303.387
303.312
303.239
303.174
303.126
346.737
347.508
348.49
349.559
350.657
351.732
352.722
353.556
354.162
354.482
354.482
354.162
353.556
352.722
351.732
350.657
349.559
348.49
347.508
346.737
340.52
341.173
342.021
342.945
343.895
344.825
345.681
346.402
346.926
347.202
347.202
346.926
346.402
345.681
344.825
343.895
342.945
342.021
341.173
340.52
334.299
334.84
335.554
336.336
337.139
337.924
338.647
339.256
339.698
339.931
339.931
339.698
339.256
338.647
337.924
337.139
336.336
335.554
334.84
334.299
328.073
328.509
329.091
329.729
330.386
331.028
331.619
332.115
332.476
332.667
332.667
332.476
332.115
331.619
331.028
330.386
329.729
329.091
328.509
328.073
321.844
322.179
322.63
323.126
323.636
324.136
324.594
324.98
325.26
325.408
325.408
325.26
324.98
324.594
324.136
323.636
323.126
322.63
322.179
321.844
315.612
315.849
316.171
316.525
316.89
317.246
317.573
317.849
318.049
318.154
318.154
318.049
317.849
317.573
317.246
316.89
316.525
316.171
315.849
315.612
309.379
309.52
309.713
309.926
310.144
310.358
310.555
310.72
310.84
310.904
310.904
310.84
310.72
310.555
310.358
310.144
309.926
309.713
309.52
309.379
303.144
303.191
303.256
303.327
303.4
303.472
303.538
303.593
303.634
303.655
303.655
303.634
303.593
303.538
303.472
303.4
303.327
303.256
303.191
303.144
347.154
347.907
348.865
349.904
350.97
352.01
352.967
353.77
354.354
354.662
354.662
354.354
353.77
352.967
352.01
350.97
349.904
348.865
347.907
347.154
340.881
341.519
342.345
343.244
344.166
345.067
345.894
346.589
347.093
347.359
347.359
347.093
346.589
345.894
345.067
344.166
343.244
342.345
341.519
340.881
334.603
335.132
335.828
336.588
337.368
338.129
338.827
339.414
339.839
340.064
340.064
339.839
339.414
338.827
338.129
337.368
336.588
335.828
335.132
334.603
328.322
328.747
329.315
329.936
330.573
331.195
331.766
332.245
332.592
332.776
332.776
332.592
332.245
331.766
331.195
330.573
329.936
329.315
328.747
328.322
322.037
322.364
322.804
323.287
323.782
324.265
324.709
325.081
325.351
325.493
325.493
325.351
325.081
324.709
324.265
323.782
323.287
322.804
322.364
322.037
315.75
315.981
316.295
316.64
316.994
317.339
317.655
317.921
318.114
318.215
318.215
318.114
317.921
317.655
317.339
316.994
316.64
316.295
315.981
315.75
309.461
309.599
309.788
309.995
310.207
310.414
310.604
310.764
310.879
310.94
310.94
310.879
310.764
310.604
310.414
310.207
309.995
309.788
309.599
309.461
303.172
303.218
303.281
303.35
303.421
303.491
303.554
303.608
303.647
303.667
303.667
303.647
303.608
303.554
303.491
303.421
303.35
303.281
303.218
303.172
347.714
348.444
349.37
350.372
351.397
352.394
353.308
354.074
354.63
354.922
354.922
354.63
354.074
353.308
352.394
351.397
350.372
349.37
348.444
347.714
341.365
341.983
342.782
343.649
344.536
345.399
346.19
346.852
347.332
347.585
347.585
347.332
346.852
346.19
345.399
344.536
343.649
342.782
341.983
341.365
335.012
335.525
336.198
336.931
337.68
338.41
339.078
339.637
340.042
340.256
340.256
340.042
339.637
339.078
338.41
337.68
336.931
336.198
335.525
335.012
328.656
329.068
329.617
330.216
330.829
331.425
331.971
332.428
332.759
332.933
332.933
332.759
332.428
331.971
331.425
330.829
330.216
329.617
329.068
328.656
322.296
322.613
323.039
323.505
323.981
324.444
324.868
325.223
325.48
325.616
325.616
325.48
325.223
324.868
324.444
323.981
323.505
323.039
322.613
322.296
315.935
316.159
316.463
316.795
317.136
317.467
317.769
318.023
318.206
318.303
318.303
318.206
318.023
317.769
317.467
317.136
316.795
316.463
316.159
315.935
309.572
309.706
309.888
310.088
310.292
310.491
310.673
310.825
310.935
310.993
310.993
310.935
310.825
310.673
310.491
310.292
310.088
309.888
309.706
309.572
303.209
303.254
303.315
303.381
303.45
303.517
303.577
303.628
303.665
303.685
303.685
303.665
303.628
303.577
303.517
303.45
303.381
303.315
303.254
303.209
348.419
349.122
350.011
350.97
351.946
352.893
353.757
354.48
355.003
355.278
355.278
355.003
354.48
353.757
352.893
351.946
350.97
350.011
349.122
348.419
341.975
342.57
343.337
344.166
345.011
345.831
346.579
347.204
347.656
347.894
347.894
347.656
347.204
346.579
345.831
345.011
344.166
343.337
342.57
341.975
335.527
336.021
336.667
337.368
338.082
338.775
339.407
339.935
340.317
340.517
340.517
340.317
339.935
339.407
338.775
338.082
337.368
336.667
336.021
335.527
329.076
329.474
330
330.574
331.158
331.724
332.241
332.672
332.984
333.147
333.147
332.984
332.672
332.241
331.724
331.158
330.574
330
329.474
329.076
322.623
322.928
323.337
323.782
324.237
324.677
325.078
325.413
325.656
325.783
325.783
325.656
325.413
325.078
324.677
324.237
323.782
323.337
322.928
322.623
316.169
316.384
316.676
316.994
317.318
317.633
317.919
318.159
318.331
318.422
318.422
318.331
318.159
317.919
317.633
317.318
316.994
316.676
316.384
316.169
309.713
309.841
310.016
310.207
310.402
310.591
310.763
310.906
311.01
311.065
311.065
311.01
310.906
310.763
310.591
310.402
310.207
310.016
309.841
309.713
303.256
303.299
303.357
303.421
303.487
303.55
303.608
303.656
303.691
303.709
303.709
303.691
303.656
303.608
303.55
303.487
303.421
303.357
303.299
303.256
349.274
349.946
350.793
351.703
352.625
353.516
354.327
355.002
355.49
355.745
355.745
355.49
355.002
354.327
353.516
352.625
351.703
350.793
349.946
349.274
342.714
343.283
344.013
344.801
345.6
346.371
347.073
347.657
348.078
348.299
348.299
348.078
347.657
347.073
346.371
345.6
344.801
344.013
343.283
342.714
336.151
336.623
337.239
337.904
338.58
339.232
339.825
340.319
340.674
340.861
340.861
340.674
340.319
339.825
339.232
338.58
337.904
337.239
336.623
336.151
329.586
329.966
330.468
331.012
331.564
332.098
332.582
332.986
333.276
333.429
333.429
333.276
332.986
332.582
332.098
331.564
331.012
330.468
329.966
329.586
323.019
323.311
323.7
324.123
324.553
324.967
325.344
325.658
325.883
326.002
326.002
325.883
325.658
325.344
324.967
324.553
324.123
323.7
323.311
323.019
316.451
316.658
316.935
317.237
317.544
317.84
318.109
318.333
318.494
318.579
318.579
318.494
318.333
318.109
317.84
317.544
317.237
316.935
316.658
316.451
309.882
310.005
310.172
310.353
310.537
310.715
310.877
311.011
311.108
311.159
311.159
311.108
311.011
310.877
310.715
310.537
310.353
310.172
310.005
309.882
303.313
303.354
303.41
303.47
303.532
303.592
303.646
303.691
303.723
303.74
303.74
303.723
303.691
303.646
303.592
303.532
303.47
303.41
303.354
303.313
350.281
350.919
351.721
352.578
353.444
354.276
355.03
355.656
356.106
356.341
356.341
356.106
355.656
355.03
354.276
353.444
352.578
351.721
350.919
350.281
343.585
344.125
344.817
345.559
346.308
347.029
347.682
348.223
348.612
348.816
348.816
348.612
348.223
347.682
347.029
346.308
345.559
344.817
344.125
343.585
336.887
337.335
337.918
338.545
339.179
339.788
340.34
340.797
341.126
341.298
341.298
341.126
340.797
340.34
339.788
339.179
338.545
337.918
337.335
336.887
330.187
330.548
331.023
331.536
332.054
332.553
333.003
333.377
333.646
333.787
333.787
333.646
333.377
333.003
332.553
332.054
331.536
331.023
330.548
330.187
323.486
323.763
324.132
324.531
324.934
325.321
325.672
325.962
326.171
326.28
326.28
326.171
325.962
325.672
325.321
324.934
324.531
324.132
323.763
323.486
316.785
316.981
317.243
317.528
317.816
318.093
318.343
318.551
318.7
318.778
318.778
318.7
318.551
318.343
318.093
317.816
317.528
317.243
316.981
316.785
310.082
310.199
310.357
310.528
310.701
310.867
311.017
311.142
311.232
311.278
311.278
311.232
311.142
311.017
310.867
310.701
310.528
310.357
310.199
310.082
303.38
303.419
303.472
303.529
303.587
303.643
303.693
303.735
303.765
303.78
303.78
303.765
303.735
303.693
303.643
303.587
303.529
303.472
303.419
303.38
351.444
352.047
352.802
353.604
354.411
355.182
355.878
356.453
356.866
357.081
357.081
356.866
356.453
355.878
355.182
354.411
353.604
352.802
352.047
351.444
344.591
345.101
345.752
346.447
347.145
347.814
348.416
348.914
349.271
349.458
349.458
349.271
348.914
348.416
347.814
347.145
346.447
345.752
345.101
344.591
337.737
338.16
338.708
339.296
339.886
340.452
340.961
341.382
341.683
341.841
341.841
341.683
341.382
340.961
340.452
339.886
339.296
338.708
338.16
337.737
330.881
331.222
331.669
332.15
332.633
333.095
333.511
333.856
334.102
334.231
334.231
334.102
333.856
333.511
333.095
332.633
332.15
331.669
331.222
330.881
324.026
324.287
324.634
325.008
325.383
325.743
326.067
326.334
326.526
326.626
326.626
326.526
326.334
326.067
325.743
325.383
325.008
324.634
324.287
324.026
317.17
317.355
317.602
317.869
318.137
318.394
318.625
318.816
318.953
319.025
319.025
318.953
318.816
318.625
318.394
318.137
317.869
317.602
317.355
317.17
310.314
310.424
310.572
310.733
310.894
311.048
311.187
311.302
311.384
311.427
311.427
311.384
311.302
311.187
311.048
310.894
310.733
310.572
310.424
310.314
303.457
303.494
303.544
303.598
303.652
303.703
303.75
303.788
303.816
303.83
303.83
303.816
303.788
303.75
303.703
303.652
303.598
303.544
303.494
303.457
352.768
353.334
354.04
354.787
355.534
356.245
356.883
357.409
357.784
357.98
357.98
357.784
357.409
356.883
356.245
355.534
354.787
354.04
353.334
352.768
345.736
346.215
346.824
347.471
348.118
348.734
349.286
349.741
350.066
350.236
350.236
350.066
349.741
349.286
348.734
348.118
347.471
346.824
346.215
345.736
338.703
339.101
339.614
340.161
340.708
341.229
341.697
342.081
342.356
342.499
342.499
342.356
342.081
341.697
341.229
340.708
340.161
339.614
339.101
338.703
331.671
331.991
332.41
332.857
333.305
333.731
334.113
334.428
334.652
334.769
334.769
334.652
334.428
334.113
333.731
333.305
332.857
332.41
331.991
331.671
324.639
324.885
325.21
325.558
325.906
326.237
326.534
326.779
326.954
327.045
327.045
326.954
326.779
326.534
326.237
325.906
325.558
325.21
324.885
324.639
317.608
317.782
318.013
318.262
318.51
318.747
318.96
319.134
319.259
319.324
319.324
319.259
319.134
318.96
318.747
318.51
318.262
318.013
317.782
317.608
310.577
310.68
310.819
310.968
311.118
311.26
311.387
311.492
311.567
311.606
311.606
311.567
311.492
311.387
311.26
311.118
310.968
310.819
310.68
310.577
303.545
303.58
303.627
303.677
303.727
303.774
303.817
303.852
303.877
303.89
303.89
303.877
303.852
303.817
303.774
303.727
303.677
303.627
303.58
303.545
354.255
354.785
355.442
356.134
356.822
357.473
358.055
358.532
358.872
359.049
359.049
358.872
358.532
358.055
357.473
356.822
356.134
355.442
354.785
354.255
347.022
347.47
348.037
348.636
349.232
349.797
350.301
350.714
351.009
351.162
351.162
351.009
350.714
350.301
349.797
349.232
348.636
348.037
347.47
347.022
339.79
340.161
340.639
341.146
341.65
342.128
342.554
342.904
343.153
343.282
343.282
343.153
342.904
342.554
342.128
341.65
341.146
340.639
340.161
339.79
332.559
332.858
333.248
333.662
334.075
334.466
334.814
335.1
335.304
335.41
335.41
335.304
335.1
334.814
334.466
334.075
333.662
333.248
332.858
332.559
325.329
325.559
325.861
326.183
326.504
326.808
327.08
327.302
327.46
327.543
327.543
327.46
327.302
327.08
326.808
326.504
326.183
325.861
325.559
325.329
318.1
318.263
318.479
318.709
318.938
319.155
319.349
319.508
319.621
319.68
319.68
319.621
319.508
319.349
319.155
318.938
318.709
318.479
318.263
318.1
310.872
310.969
311.099
311.237
311.374
311.505
311.621
311.717
311.785
311.82
311.82
311.785
311.717
311.621
311.505
311.374
311.237
311.099
310.969
310.872
303.644
303.677
303.72
303.767
303.813
303.856
303.895
303.927
303.95
303.962
303.962
303.95
303.927
303.895
303.856
303.813
303.767
303.72
303.677
303.644
355.908
356.402
357.011
357.649
358.28
358.874
359.402
359.834
360.14
360.299
360.299
360.14
359.834
359.402
358.874
358.28
357.649
357.011
356.402
355.908
348.452
348.869
349.395
349.948
350.494
351.01
351.467
351.841
352.106
352.244
352.244
352.106
351.841
351.467
351.01
350.494
349.948
349.395
348.869
348.452
340.998
341.344
341.787
342.255
342.717
343.153
343.54
343.856
344.081
344.197
344.197
344.081
343.856
343.54
343.153
342.717
342.255
341.787
341.344
340.998
333.546
333.825
334.186
334.568
334.947
335.304
335.62
335.879
336.062
336.158
336.158
336.062
335.879
335.62
335.304
334.947
334.568
334.186
333.825
333.546
326.097
326.31
326.591
326.888
327.182
327.46
327.706
327.907
328.05
328.124
328.124
328.05
327.907
327.706
327.46
327.182
326.888
326.591
326.31
326.097
318.648
318.8
318.999
319.212
319.422
319.62
319.796
319.94
320.042
320.095
320.095
320.042
319.94
319.796
319.62
319.422
319.212
318.999
318.8
318.648
311.201
311.291
311.411
311.539
311.665
311.784
311.89
311.976
312.038
312.069
312.069
312.038
311.976
311.89
311.784
311.665
311.539
311.411
311.291
311.201
303.755
303.785
303.825
303.868
303.91
303.95
303.985
304.014
304.035
304.046
304.046
304.035
304.014
303.985
303.95
303.91
303.868
303.825
303.785
303.755
357.731
358.189
358.751
359.338
359.914
360.454
360.932
361.32
361.595
361.738
361.738
361.595
361.32
360.932
360.454
359.914
359.338
358.751
358.189
357.731
350.029
350.416
350.901
351.409
351.909
352.377
352.791
353.127
353.365
353.489
353.489
353.365
353.127
352.791
352.377
351.909
351.409
350.901
350.416
350.029
342.33
342.651
343.06
343.49
343.912
344.309
344.659
344.944
345.145
345.25
345.25
345.145
344.944
344.659
344.309
343.912
343.49
343.06
342.651
342.33
334.635
334.893
335.227
335.578
335.924
336.248
336.535
336.768
336.933
337.018
337.018
336.933
336.768
336.535
336.248
335.924
335.578
335.227
334.893
334.635
326.942
327.141
327.399
327.673
327.942
328.194
328.417
328.598
328.726
328.793
328.793
328.726
328.598
328.417
328.194
327.942
327.673
327.399
327.141
326.942
319.252
319.392
319.577
319.772
319.964
320.145
320.304
320.434
320.525
320.573
320.573
320.525
320.434
320.304
320.145
319.964
319.772
319.577
319.392
319.252
311.564
311.647
311.758
311.875
311.991
312.099
312.195
312.273
312.328
312.356
312.356
312.328
312.273
312.195
312.099
311.991
311.875
311.758
311.647
311.564
303.876
303.904
303.941
303.98
304.019
304.056
304.088
304.114
304.132
304.142
304.142
304.132
304.114
304.088
304.056
304.019
303.98
303.941
303.904
303.876
359.725
360.148
360.666
361.202
361.727
362.216
362.647
362.996
363.242
363.369
363.369
363.242
362.996
362.647
362.216
361.727
361.202
360.666
360.148
359.725
351.753
352.111
352.557
353.023
353.477
353.902
354.275
354.577
354.79
354.901
354.901
354.79
354.577
354.275
353.902
353.477
353.023
352.557
352.111
351.753
343.786
344.083
344.46
344.853
345.238
345.597
345.913
346.169
346.349
346.443
346.443
346.349
346.169
345.913
345.597
345.238
344.853
344.46
344.083
343.786
335.825
336.063
336.371
336.692
337.007
337.301
337.56
337.769
337.917
337.993
337.993
337.917
337.769
337.56
337.301
337.007
336.692
336.371
336.063
335.825
327.867
328.05
328.288
328.539
328.784
329.012
329.214
329.376
329.491
329.551
329.551
329.491
329.376
329.214
329.012
328.784
328.539
328.288
328.05
327.867
319.912
320.042
320.212
320.391
320.566
320.729
320.873
320.989
321.072
321.114
321.114
321.072
320.989
320.873
320.729
320.566
320.391
320.212
320.042
319.912
311.96
312.037
312.139
312.247
312.352
312.45
312.536
312.606
312.656
312.681
312.681
312.656
312.606
312.536
312.45
312.352
312.247
312.139
312.037
311.96
304.009
304.035
304.069
304.105
304.14
304.173
304.202
304.226
304.242
304.251
304.251
304.242
304.226
304.202
304.173
304.14
304.105
304.069
304.035
304.009
361.886
362.277
362.752
363.242
363.719
364.161
364.548
364.861
365.081
365.194
365.194
365.081
364.861
364.548
364.161
363.719
363.242
362.752
362.277
361.886
353.622
353.952
354.362
354.787
355.2
355.584
355.92
356.191
356.381
356.48
356.48
356.381
356.191
355.92
355.584
355.2
354.787
354.362
353.952
353.622
345.365
345.639
345.984
346.344
346.694
347.018
347.302
347.532
347.693
347.776
347.776
347.693
347.532
347.302
347.018
346.694
346.344
345.984
345.639
345.365
337.114
337.334
337.616
337.91
338.197
338.462
338.695
338.883
339.015
339.083
339.083
339.015
338.883
338.695
338.462
338.197
337.91
337.616
337.334
337.114
328.869
329.038
329.257
329.485
329.708
329.915
330.096
330.242
330.345
330.398
330.398
330.345
330.242
330.096
329.915
329.708
329.485
329.257
329.038
328.869
320.628
320.747
320.903
321.066
321.226
321.373
321.503
321.607
321.681
321.719
321.719
321.681
321.607
321.503
321.373
321.226
321.066
320.903
320.747
320.628
312.389
312.461
312.554
312.652
312.748
312.837
312.914
312.977
313.021
313.044
313.044
313.021
312.977
312.914
312.837
312.748
312.652
312.554
312.461
312.389
304.153
304.177
304.208
304.241
304.273
304.303
304.329
304.35
304.365
304.372
304.372
304.365
304.35
304.329
304.303
304.273
304.241
304.208
304.177
304.153
364.209
364.568
365.004
365.451
365.883
366.282
366.63
366.909
367.106
367.207
367.207
367.106
366.909
366.63
366.282
365.883
365.451
365.004
364.568
364.209
355.629
355.933
356.308
356.696
357.071
357.417
357.718
357.961
358.131
358.219
358.219
358.131
357.961
357.718
357.417
357.071
356.696
356.308
355.933
355.629
347.059
347.31
347.627
347.955
348.272
348.565
348.821
349.026
349.17
349.244
349.244
349.17
349.026
348.821
348.565
348.272
347.955
347.627
347.31
347.059
338.497
338.7
338.958
339.226
339.486
339.726
339.935
340.103
340.221
340.282
340.282
340.221
340.103
339.935
339.726
339.486
339.226
338.958
338.7
338.497
329.942
330.098
330.299
330.507
330.709
330.896
331.059
331.189
331.281
331.328
331.328
331.281
331.189
331.059
330.896
330.709
330.507
330.299
330.098
329.942
321.394
321.504
321.647
321.796
321.94
322.074
322.19
322.284
322.349
322.383
322.383
322.349
322.284
322.19
322.074
321.94
321.796
321.647
321.504
321.394
312.849
312.915
313
313.09
313.177
313.257
313.327
313.383
313.422
313.443
313.443
313.422
313.383
313.327
313.257
313.177
313.09
313
312.915
312.849
304.307
304.329
304.358
304.388
304.417
304.444
304.467
304.486
304.499
304.506
304.506
304.499
304.486
304.467
304.444
304.417
304.388
304.358
304.329
304.307
366.668
366.998
367.397
367.804
368.196
368.555
368.868
369.118
369.293
369.383
369.383
369.293
369.118
368.868
368.555
368.196
367.804
367.397
366.998
366.668
357.749
358.029
358.373
358.726
359.066
359.378
359.649
359.866
360.018
360.096
360.096
360.018
359.866
359.649
359.378
359.066
358.726
358.373
358.029
357.749
348.845
349.077
349.367
349.666
349.954
350.218
350.448
350.632
350.76
350.826
350.826
350.76
350.632
350.448
350.218
349.954
349.666
349.367
349.077
348.845
339.954
340.14
340.377
340.621
340.857
341.073
341.261
341.412
341.517
341.571
341.571
341.517
341.412
341.261
341.073
340.857
340.621
340.377
340.14
339.954
331.072
331.215
331.399
331.589
331.773
331.941
332.087
332.205
332.287
332.329
332.329
332.287
332.205
332.087
331.941
331.773
331.589
331.399
331.215
331.072
322.199
322.3
322.431
322.567
322.698
322.819
322.924
323.007
323.066
323.096
323.096
323.066
323.007
322.924
322.819
322.698
322.567
322.431
322.3
322.199
313.332
313.393
313.471
313.553
313.631
313.704
313.767
313.817
313.852
313.87
313.87
313.852
313.817
313.767
313.704
313.631
313.553
313.471
313.393
313.332
304.469
304.489
304.515
304.543
304.569
304.593
304.614
304.631
304.643
304.649
304.649
304.643
304.631
304.614
304.593
304.569
304.543
304.515
304.489
304.469
369.2
369.503
369.869
370.24
370.596
370.921
371.203
371.427
371.584
371.665
371.665
371.584
371.427
371.203
370.921
370.596
370.24
369.869
369.503
369.2
359.923
360.18
360.496
360.818
361.127
361.409
361.654
361.849
361.985
362.054
362.054
361.985
361.849
361.654
361.409
361.127
360.818
360.496
360.18
359.923
350.669
350.883
351.149
351.421
351.683
351.923
352.13
352.295
352.41
352.469
352.469
352.41
352.295
352.13
351.923
351.683
351.421
351.149
350.883
350.669
341.435
341.607
341.824
342.047
342.262
342.458
342.627
342.763
342.857
342.906
342.906
342.857
342.763
342.627
342.458
342.262
342.047
341.824
341.607
341.435
332.218
332.35
332.518
332.692
332.859
333.012
333.144
333.249
333.323
333.361
333.361
333.323
333.249
333.144
333.012
332.859
332.692
332.518
332.35
332.218
323.014
323.108
323.228
323.352
323.471
323.581
323.675
323.75
323.803
323.83
323.83
323.803
323.75
323.675
323.581
323.471
323.352
323.228
323.108
323.014
313.82
313.876
313.948
314.023
314.094
314.16
314.217
314.262
314.294
314.31
314.31
314.294
314.262
314.217
314.16
314.094
314.023
313.948
313.876
313.82
304.632
304.651
304.675
304.7
304.724
304.746
304.765
304.78
304.791
304.796
304.796
304.791
304.78
304.765
304.746
304.724
304.7
304.675
304.651
304.632
371.642
371.923
372.26
372.601
372.926
373.223
373.478
373.682
373.823
373.896
373.896
373.823
373.682
373.478
373.223
372.926
372.601
372.26
371.923
371.642
361.995
362.233
362.524
362.82
363.103
363.361
363.583
363.76
363.883
363.946
363.946
363.883
363.76
363.583
363.361
363.103
362.82
362.524
362.233
361.995
352.389
352.586
352.832
353.083
353.323
353.542
353.731
353.881
353.985
354.039
354.039
353.985
353.881
353.731
353.542
353.323
353.083
352.832
352.586
352.389
342.819
342.978
343.179
343.385
343.582
343.761
343.916
344.039
344.125
344.168
344.168
344.125
344.039
343.916
343.761
343.582
343.385
343.179
342.978
342.819
333.28
333.402
333.559
333.719
333.872
334.012
334.133
334.228
334.295
334.329
334.329
334.295
334.228
334.133
334.012
333.872
333.719
333.559
333.402
333.28
323.766
323.852
323.963
324.078
324.188
324.288
324.374
324.443
324.49
324.515
324.515
324.49
324.443
324.374
324.288
324.188
324.078
323.963
323.852
323.766
314.268
314.32
314.387
314.456
314.522
314.582
314.634
314.675
314.704
314.718
314.718
314.704
314.675
314.634
314.582
314.522
314.456
314.387
314.32
314.268
304.782
304.799
304.821
304.844
304.867
304.887
304.904
304.918
304.928
304.933
304.933
304.928
304.918
304.904
304.887
304.867
304.844
304.821
304.799
304.782
373.563
373.827
374.144
374.464
374.769
375.045
375.283
375.472
375.603
375.67
375.67
375.603
375.472
375.283
375.045
374.769
374.464
374.144
373.827
373.563
363.562
363.786
364.061
364.34
364.606
364.847
365.054
365.219
365.333
365.392
365.392
365.333
365.219
365.054
364.847
364.606
364.34
364.061
363.786
363.562
353.65
353.836
354.069
354.306
354.532
354.737
354.913
355.053
355.151
355.201
355.201
355.151
355.053
354.913
354.737
354.532
354.306
354.069
353.836
353.65
343.809
343.96
344.15
344.344
344.53
344.699
344.844
344.959
345.039
345.08
345.08
345.039
344.959
344.844
344.699
344.53
344.344
344.15
343.96
343.809
334.026
334.141
334.289
334.441
334.586
334.718
334.831
334.921
334.983
335.015
335.015
334.983
334.921
334.831
334.718
334.586
334.441
334.289
334.141
334.026
324.285
324.368
324.473
324.582
324.686
324.78
324.861
324.926
324.97
324.993
324.993
324.97
324.926
324.861
324.78
324.686
324.582
324.473
324.368
324.285
314.576
314.625
314.688
314.754
314.816
314.873
314.922
314.96
314.987
315.001
315.001
314.987
314.96
314.922
314.873
314.816
314.754
314.688
314.625
314.576
304.884
304.9
304.922
304.944
304.964
304.984
305
305.013
305.022
305.027
305.027
305.022
305.013
305
304.984
304.964
304.944
304.922
304.9
304.884
)
;

boundaryField
{
    hotSide
    {
        type            fixedGradient;
        gradient        nonuniform List<scalar> 
400
(
492.264
493.774
496.8
501.361
507.479
515.184
524.509
535.491
548.168
562.578
578.757
596.74
616.559
638.243
661.815
687.298
714.71
744.064
775.373
808.645
502.657
504.084
506.949
511.274
517.091
524.438
533.36
543.904
556.119
570.053
585.752
603.259
622.612
643.844
666.985
692.059
719.085
748.08
779.054
812.016
513.903
515.232
517.904
521.95
527.411
534.338
542.788
552.823
564.505
577.895
593.049
610.019
628.852
649.586
672.254
696.884
723.495
752.105
782.724
815.36
525.817
527.032
529.481
533.203
538.253
544.696
552.608
562.067
573.151
585.934
600.486
616.87
635.138
655.335
677.499
701.659
727.835
756.045
786.298
818.6
538.067
539.153
541.351
544.711
549.302
555.211
562.531
571.36
581.794
593.926
607.837
623.6
641.277
660.918
682.563
706.243
731.979
759.787
789.675
821.648
550.141
551.089
553.019
555.992
560.098
565.443
572.142
580.316
590.081
601.545
614.804
629.943
647.03
666.12
687.256
710.469
735.781
763.203
792.744
824.405
561.348
562.159
563.82
566.41
570.036
574.825
580.917
588.454
597.573
608.398
621.039
635.589
652.124
670.703
691.371
714.157
739.082
766.158
795.387
826.77
570.86
571.547
572.967
575.212
578.408
582.703
588.257
595.234
603.787
614.056
626.163
640.209
656.274
674.421
694.694
717.123
741.728
768.516
797.49
828.646
577.821
578.412
579.648
581.631
584.499
588.418
593.567
600.122
608.253
618.109
629.82
643.495
659.216
677.047
697.034
719.206
743.58
770.163
798.955
829.948
581.51
582.049
583.185
585.024
587.714
591.431
596.36
602.688
610.592
620.227
631.727
645.204
660.742
678.407
698.243
720.28
744.534
771.01
799.707
830.616
581.51
582.049
583.185
585.024
587.714
591.431
596.36
602.688
610.592
620.227
631.727
645.204
660.742
678.407
698.243
720.28
744.534
771.01
799.707
830.616
577.821
578.412
579.648
581.631
584.499
588.418
593.567
600.122
608.253
618.109
629.82
643.495
659.216
677.047
697.034
719.206
743.58
770.163
798.955
829.948
570.86
571.547
572.967
575.212
578.408
582.703
588.257
595.234
603.787
614.056
626.163
640.209
656.274
674.421
694.694
717.123
741.728
768.516
797.49
828.646
561.348
562.159
563.82
566.41
570.036
574.825
580.917
588.454
597.573
608.398
621.039
635.589
652.124
670.703
691.371
714.157
739.082
766.158
795.387
826.77
550.141
551.089
553.019
555.992
560.098
565.443
572.142
580.316
590.081
601.545
614.804
629.943
647.03
666.12
687.256
710.469
735.781
763.203
792.744
824.405
538.067
539.153
541.351
544.711
549.302
555.211
562.531
571.36
581.794
593.926
607.837
623.6
641.277
660.918
682.563
706.243
731.979
759.787
789.675
821.648
525.817
527.032
529.481
533.203
538.253
544.696
552.608
562.067
573.151
585.934
600.486
616.87
635.138
655.335
677.499
701.659
727.835
756.045
786.298
818.6
513.903
515.232
517.904
521.95
527.411
534.338
542.788
552.823
564.505
577.895
593.049
610.019
628.852
649.586
672.254
696.884
723.495
752.105
782.724
815.36
502.657
504.084
506.949
511.274
517.091
524.438
533.36
543.904
556.119
570.053
585.752
603.259
622.612
643.844
666.985
692.059
719.085
748.08
779.054
812.016
492.264
493.774
496.8
501.361
507.479
515.184
524.509
535.491
548.168
562.578
578.757
596.74
616.559
638.243
661.815
687.298
714.71
744.064
775.373
808.645
)
;
    }
    coldSide
    {
        type            mixed;
        refValue        uniform 300;
        refGradient     uniform 0;
        valueFraction   uniform 0.991591;
        source          uniform 0;
        value           nonuniform List<scalar> 
400
(
300.026
300.026
300.026
300.027
300.027
300.027
300.028
300.028
300.029
300.03
300.031
300.032
300.033
300.034
300.035
300.036
300.038
300.039
300.04
300.041
300.027
300.027
300.027
300.027
300.027
300.028
300.028
300.029
300.029
300.03
300.031
300.032
300.033
300.034
300.035
300.036
300.038
300.039