/*--------------------------------*- C++ -*----------------------------------*\
| =========                 |                                                 |
| \\      /  F ield         | OpenFOAM: The Open Source CFD Toolbox           |
|  \\    /   O peration     | Version:  2212                                  |
|   \\  /    A nd           | Website:  www.openfoam.com                      |
|    \\/     M anipulation  |                                                 |
\*---------------------------------------------------------------------------*/
FoamFile
{
    version     2.0;
    format      ascii;
    arch        "LSB;label=32;scalar=64";
    class       volScalarField;
    location    "./ITHACAoutput/true/13.3";
    object      error;
}
// * * * * * * * * * * * * * * * * * * * * * * * * * * * * * * * * * * * * * //

dimensions      [0 0 0 1 0 0 0];

internalField   nonuniform List<scalar> 
3200
(
3.95646
2.97051
3.13744
3.34115
4.72619
4.50702
3.44621
5.97293
7.28413
4.04749
3.82752
3.32813
5.12535
2.2892
2.93102
4.13214
3.32712
3.49486
4.69834
3.89215
3.42313
3.62148
3.72992
3.28271
3.95092
2.77665
3.93171
4.089
6.67108
4.42558
4.17174
4.07548
5.24516
3.11939
3.89532
3.53918
1.74881
2.64879
1.59897
0.717597
3.0909
2.09341
4.20817
2.73707
2.00767
2.52849
3.59637
4.42016
3.15115
5.05074
4.37631
3.96639
4.09601
4.41622
1.28188
3.90723
2.21236
1.71753
2.26552
1.39277
1.50704
1.5404
1.46261
2.79811
2.94373
2.82107
2.32914
3.6746
2.46123
2.34641
3.35597
3.53849
4.32668
4.48524
0.28052
2.02929
1.22958
0.553602
0.568204
0.841464
3.02591
2.20491
1.68899
0.847907
1.54341
1.2854
2.96454
2.06171
2.65943
1.94929
1.05846
2.8892
2.21496
1.01285
4.13371
2.17388
1.12332
0.779335
0.652646
2.28444
0.46634
2.42405
1.81751
-0.11864
-0.0894969
2.63614
1.37476
0.380367
1.69914
0.458473
0.296421
-0.014805
0.0538167
3.54825
-0.203964
1.31174
0.193371
1.85985
-0.315453
1.10256
1.09835
1.19445
3.03273
0.486222
1.82262
2.20459
0.764443
2.60468
1.4832
1.10308
-0.00508926
1.61523
1.16655
0.499939
0.666929
1.62022
1.69749
-0.00977749
1.24107
0.0761021
-1.41925
-1.75038
1.69059
1.24569
0.895131
-0.72495
1.50938
2.7502
0.694124
-0.69258
0.351269
-0.980267
-0.802385
0.524603
0.084488
-0.259807
0.658027
-0.655298
1.35407
-1.11774
1.43884
2.87405
4.04318
3.05675
4.89399
4.77779
4.45385
3.3201
2.80069
4.57434
5.00651
6.74883
4.47776
3.6989
3.73321
3.03882
2.78451
2.59226
4.06287
2.84851
2.7824
-0.953041
2.59952
1.71191
4.61538
0.530991
5.04885
0.533954
3.55868
0.147119
0.231324
3.37559
0.532955
3.45278
-0.41992
1.64689
0.360224
2.02954
0.0540847
2.1045
1.65082
2.63212
2.1678
2.74644
1.1423
4.04365
5.24526
2.87228
2.9832
2.20376
4.09099
2.25399
1.6182
2.86096
3.8019
1.32587
2.36766
2.41301
2.28334
1.90607
2.49399
2.19624
2.52448
2.46886
0.916607
2.40425
1.49295
2.76536
3.76898
2.24665
2.85963
2.94315
3.17415
3.65508
2.56711
1.15839
4.05133
2.11117
1.5694
2.57368
1.14681
1.14504
1.74545
0.516208
2.42475
1.70816
2.5955
2.16494
1.54834
1.96348
2.19452
1.53492
2.75175
0.763432
2.90904
2.82118
1.74061
1.10381
1.61415
2.75697
3.07983
3.30026
1.33213
1.97529
1.10497
-0.078515
2.61283
1.56816
2.17574
2.08848
2.69718
0.74854
2.41657
1.47495
-0.11194
1.46952
2.00227
-0.592858
1.1969
1.07593
1.24548
0.84051
0.65148
2.26953
1.47852
0.199502
0.566624
2.16016
1.43803
-1.45733
3.16466
0.818108
0.807051
0.0217293
1.0584
1.1447
0.55953
0.886433
0.960234
1.4364
-1.21065
-0.383504
-1.15043
-0.120018
-1.72311
-1.20931
0.665837
0.964478
0.409378
-1.57362
-0.275665
-1.32398
1.22157
-0.149119
0.332774
1.52774
0.837042
1.32211
-0.815194
0.584
4.69968
3.90013
1.84494
4.61677
3.08204
2.63818
1.73604
2.24009
4.46216
3.726
1.55195
3.92439
1.12537
3.35574
2.14805
2.73321
1.94621
2.77904
2.27904
-1.27587
0.444298
2.22156
2.79807
2.66635
3.44816
4.09322
3.44739
2.87138
3.99372
3.78256
2.79272
3.00028
3.78655
3.04249
1.94038
2.36098
2.45539
2.17221
2.20978
1.56756
1.00804
2.25329
1.91813
1.20988
2.62191
4.50822
2.08165
3.23063
1.84971
3.60645
3.8965
3.18928
2.69855
0.340863
1.0383
3.14856
1.90184
1.84254
0.593664
2.8929
0.380559
1.87498
0.750526
1.1318
1.40531
2.19234
-1.38287
1.95547
2.74346
0.253142
2.97879
2.12101
-0.0898627
3.18012
2.48512
2.7901
0.790364
0.844869
-0.40143
1.72661
0.585666
0.59785
0.679024
4.57561
2.79042
4.51759
0.57308
0.483009
0.0544192
1.58035
0.788702
0.0930772
2.19083
0.703576
2.67567
2.31325
3.07507
0.81769
2.94574
0.577659
0.669612
-0.318599
1.20941
1.04043
0.588636
0.68444
1.22734
2.47421
-1.87448
0.766612
1.47108
2.28045
1.05633
0.118112
2.50302
1.83542
2.37812
-0.155239
1.40577
2.14236
-0.300925
1.4514
-0.230485
1.74834
1.35265
-0.287483
-1.49921
1.73909
-0.511267
0.837077
-0.15952
1.48442
0.210852
1.61467
1.26452
1.30078
0.385275
-1.2224
-0.98793
-0.100882
2.10482
0.063738
0.724042
-1.25963
2.06292
0.411581
0.42826
1.50791
-0.576821
0.547953
-1.53094
-0.808975
-1.47901
-1.15558
0.11742
0.931468
0.0452517
1.00761
2.26365
1.52685
2.77804
2.22329
3.50357
2.80736
3.06685
3.81603
4.46817
1.7143
2.72737
4.30607
1.46279
2.5841
2.63503
1.58016
4.17119
1.12075
1.8962
3.1
0.904656
1.78007
2.34298
-0.551136
2.89718
0.48926
0.57509
-0.110895
0.651476
-0.0294143
2.18941
0.0840237
0.081846
1.87071
-0.481754
2.3409
0.608005
0.525856
-0.0670217
0.563104
0.207522
1.34489
0.823727
1.09043
2.91554
2.24821
2.63078
1.45155
0.201333
2.09839
1.41705
2.77416
1.10062
1.86717
2.60198
-0.844396
1.88767
1.42466
2.97201
1.53667
0.965191
0.0858475
0.10066
0.517653
0.163864
0.837914
2.17006
1.14335
1.49599
1.87619
2.11406
0.40296
2.26277
0.430608
1.83402
1.60893
2.16523
2.55882
1.56442
1.22157
0.694491
0.205314
2.6374
1.83651
1.94802
-0.0444838
0.627074
1.08924
1.36305
2.51446
0.744908
0.180621
1.92949
2.91559
2.40915
1.61294
1.02219
1.88454
0.554409
1.06152
0.544642
-0.108818
0.656026
-1.0158
0.313794
-1.30854
1.70097
0.518867
1.30152
1.94841
1.7126
1.64166
0.346328
1.54903
-0.703721
0.855906
-0.355892
0.520468
-0.895617
0.785439
1.12162
-0.0471129
0.0978315
-0.35023
-0.375405
2.08251
2.59357
-0.288225
1.08633
0.263292
-0.767257
-0.618865
0.993862
2.39224
1.68295
-0.159066
0.200337
1.09109
-0.99435
1.33958
-2.0407
-0.0136672
0.557114
0.989623
-0.640808
-0.341164
-0.0959018
-0.0750213
0.7605
1.12861
1.63264
-0.228335
-1.51489
0.239583
-0.466245
0.92851
0.416109
0.210004
-0.35172
0.600302
-0.0351198
0.353284
1.01283
0.264797
0.999478
4.63296
0.604222
0.907888
2.34067
0.579036
1.39375
3.88988
1.55596
1.83601
1.11848
1.33752
1.60795
1.7561
1.69927
1.16176
1.51365
0.242616
0.0398505
0.301357
2.23681
0.620548
-0.0681018
1.08736
2.13155
1.27735
2.93399
1.77945
0.0923716
1.32901
-0.140267
0.111574
1.08936
1.01224
0.667203
0.671079
-0.229094
-0.221017
-0.373311
1.01197
0.744272
0.683815
0.364813
0.799623
1.19944
0.550628
0.110575
2.59926
0.145367
2.20718
1.23596
0.244081
-0.715157
-0.258503
0.284214
-1.52632
2.80945
0.364617
0.219306
1.18082
2.35331
1.28948
-0.300797
2.7911
1.05417
1.36126
1.49346
1.03967
1.42587
1.8679
-0.708217
-0.622958
0.165414
-0.939831
-0.262119
-1.17152
0.162286
0.774268
-0.156575
1.60155
0.132068
-1.16469
0.513268
3.42738
-0.194623
0.313104
1.1388
1.9733
1.57661
1.10487
0.432375
2.65965
1.21482
1.72697
-0.818039
1.14253
-0.405271
0.548623
0.268993
0.488618
1.53585
1.65948
1.03666
-0.358097
1.14568
0.697414
-0.153237
-0.572028
2.37148
1.37709
-1.48137
-0.0490568
0.539806
1.39005
-3.60376
1.76769
-0.119197
-0.124019
-0.885671
0.460634
-0.361754
3.22375
-0.448866
0.520549
0.783253
1.06271
0.703557
0.275801
-0.184428
-0.321164
-0.419119
0.939567
0.830967
-1.40339
0.525887
0.31972
-1.95838
-0.51692
0.774479
-0.865676
0.27435
1.10737
-0.0391896
0.261422
-0.919481
-0.762498
0.0800932
-0.475641
-0.624436
0.831617
0.664676
0.406155
-0.367402
0.80442
0.58549
-0.293678
-1.0739
2.16684
0.142996
0.126028
-0.272917
2.70692
0.355073
-0.455478
2.30148
1.54018
-0.717529
2.92131
1.28104
2.01882
0.762161
1.15492
0.158562
0.92114
-1.13754
-1.63474
-0.151327
-0.800565
1.05535
-0.86789
1.42361
1.90649
0.101086
0.238993
1.59347
0.0020403
1.78707
-0.357069
-0.825061
0.320831
-0.196005
0.691811
-0.173951
0.0748783
-0.372039
-1.47819
0.149625
-0.681176
1.01593
0.958247
-1.26851
1.49459
1.27099
0.913748
0.0565552
-0.0252767
-0.113409
2.58877
-0.00870791
1.3865
-0.447176
1.82623
0.831681
-1.3376
0.524923
-0.311004
-0.427247
0.698161
0.0992791
-0.0478485
1.10922
0.697236
1.11276
0.762022
0.465819
0.255889
1.29596
0.885101
0.754765
0.741119
0.518279
-0.672158
0.289079
-0.484677
-0.591442
0.296579
-0.146989
-0.278312
-0.64315
1.01438
0.476382
0.64159
0.938323
1.9279
-1.95925
-0.232702
1.79561
1.12678
-0.230557
0.195493
-0.000178283
-0.533073
0.149694
0.598804
0.182861
-1.73596
-0.984136
-0.387789
2.35171
0.526522
1.15615
-0.80722
-0.707542
-0.351783
0.618528
2.06453
1.9794
0.622568
0.493877
0.19968
-1.22272
-0.743223
1.01841
0.243649
-0.191389
0.203882
0.405782
-0.664615
-0.888305
1.02492
-1.22521
-1.53715
-0.375425
1.74581
-0.60294
-0.959742
0.585621
-0.0163808
0.292309
1.66742
1.36334
0.3332
-0.0308556
0.532839
-0.791008
0.600277
-1.29492
0.122937
0.437024
-0.0239636
0.0382639
-1.62594
-1.52254
-2.56557
0.498078
-0.397321
-1.19187
-0.774024
0.661081
-0.217779
-0.498525
1.50987
-0.0126179
1.60633
-0.454295
-0.689752
0.905165
0.208927
-1.21496
0.752063
0.690295
-0.238507
-0.803287
-0.436817
0.058172
0.168562
1.35642
-0.45731
0.475233
0.656685
0.00166395
1.60249
-1.39534
0.432188
-2.71452
-3.05479
-2.12629
1.01846
-0.15938
0.665501
0.402411
-1.12159
0.418276
1.4402
-0.798429
1.49428
-0.395672
1.6959
0.203288
1.50027
0.247642
-0.437154
0.186879
1.67918
-0.596872
-2.1909
-2.03565
-1.41128
0.676689
-0.625808
-1.55531
1.96731
0.586283
0.30405
0.579045
-0.282193
2.28849
1.44454
0.78252
-0.70044
0.185217
-0.0180214
1.91737
-0.310179
0.962322
-0.784459
1.26579
-0.492839
1.08105
1.10687
0.853502
0.0955395
0.568898
1.2266
-1.8842
-0.118186
1.32953
-0.769931
0.491643
0.920192
1.37619
-0.660595
0.752371
-0.988974
0.987732
-0.0331004
-1.91761
-1.17537
1.64177
0.358009
0.366836
-0.0156872
1.82114
0.370572
0.268505
0.400709
0.98295
0.403388
0.357243
1.1154
1.93561
1.73673
-1.06411
0.20132
0.265433
-0.29107
1.20074
-0.499975
-0.993005
0.515419
0.446671
0.691663
0.1777
-0.549962
0.396101
0.0510029
0.152533
2.15105
0.853589
0.483542
-1.36842
-0.460511
0.440722
-1.187
0.245937
0.897837
-1.95194
0.293696
1.34066
1.88469
1.11217
0.334322
-0.180682
-0.480286
-1.08621
1.97754
0.474832
-0.118678
0.161469
2.00951
2.48146
-0.114977
0.473977
1.35465
-1.25846
2.03364
-0.91496
-0.594168
0.173258
1.45214
0.391998
0.124262
-0.857509
-0.3635
0.815941
0.983704
0.502595
-2.12824
0.032006
0.79008
0.168421
0.924202
-1.22229
0.766437
0.00547342
-1.1046
-0.837972
-1.21813
-1.11989
-2.09579
-1.89876
1.43632
-0.453165
0.139976
0.0260026
-0.186628
0.523694
-0.698871
-0.814473
0.999428
-1.08754
-0.361001
-1.01551
-1.07291
-1.56323
-0.934292
-1.12827
-0.95211
0.542988
0.616995
-1.82853
1.23838
0.712317
-0.187531
-0.716727
0.327179
1.89722
0.207492
0.389088
0.0770621
0.126741
-1.5558
-0.204649
0.116294
0.128339
-1.76542
0.252088
-0.691782
-0.504143
1.03789
0.924464
-0.310533
-1.7654
-1.07918
-0.574145
0.968023
-0.762529
0.89198
0.975481
0.209233
-1.50473
0.640618
-1.82674
0.204825
-0.480543
-2.02053
-1.39459
-0.226961
-0.903852
1.92116
0.142625
0.629076
-1.3239
1.13172
2.19043
-0.18714
-1.07791
-0.4567
-0.463791
0.632571
0.592788
-0.457823
-0.62573
0.375498
0.566859
0.0443562
0.899117
-0.547657
0.207368
1.87937
0.64401
2.85613
1.44343
-2.08705
-0.550284
-0.0124597
2.42079
1.39684
-0.613911
-1.56487
-0.152804
-0.940898
-0.318002
-2.0833
-0.6899
-0.691563
0.0184547
-0.0399285
1.36072
-1.14746
1.62935
1.54425
0.853603
-0.105787
-0.253786
-0.439863
0.162153
0.624832
-0.732335
-1.09033
-0.471172
-0.592727
-2.26939
-0.240799
-0.505089
0.99633
0.406833
-2.26922
-0.555556
1.18788
-0.924174
1.36308
1.38251
-0.427245
-1.42332
0.451611
-0.634123
0.746504
1.32775
-1.06808
0.0303771
-0.617968
-0.767128
-1.70826
-0.103527
-0.803991
-0.27313
2.03683
-0.0913781
1.78682
-1.20902
0.902493
1.04027
-0.600574
0.369831
-0.849882
1.65491
0.227198
1.56614
-0.197402
-0.0301521
-0.0788363
-0.253287
0.547949
0.296783
0.428755
-0.272999
2.14678
-0.646928
-0.335967
-0.112693
0.358125
-1.82136
0.887194
-2.21985
-1.5395
-1.2156
-1.07119
-0.615045
-1.83198
-0.352855
-0.788526
-1.49906
-1.93479
-1.29137
-3.71689
-2.14769
-2.91539
1.7471
2.23454
0.962901
-0.590995
-1.06189
-1.39556
-2.27435
0.653401
-0.203683
1.13913
-0.817386
0.166776
-1.96212
-0.694796
-0.031572
-0.390433
0.203442
-0.763798
-0.980517
-0.715505
-0.947486
0.812161
0.659606
-1.15344
-1.76244
-0.367157
-2.078
-0.41777
-0.791761
-1.6357
-0.388795
1.16409
0.326637
0.389376
-1.30266
-1.40301
-1.70208
-0.457588
-1.3487
-0.802085
0.594386
0.216276
2.27094
-0.612916
0.367926
-0.337385
-1.74991
-0.0692908
1.53226
-0.647939
-0.291386
-0.929469
-0.709757
-1.04785
-0.539698
-1.94204
-0.719716
-1.36974
-1.88345
0.395475
0.588173
0.767204
0.089707
-0.885034
0.544507
-1.87306
-0.884073
1.37315
-1.69847
0.425038
-0.0918575
-0.0674341
0.39711
-0.659543
0.604497
-3.39159
-2.00093
-0.723912
0.114779
-0.519633
1.03025
1.80817
-0.073915
8.47288e-05
-1.40527
0.380563
0.854322
-0.911232
-1.86938
0.0488429
0.0890381
0.131109
-0.428714
-2.54861
-0.518072
-1.54874
-0.783479
-1.53787
1.89601
-1.71743
-0.949585
0.149248
-0.220349
-1.85823
0.177594
1.20627
-0.814448
0.416834
-1.23127
-0.846159
1.95883
-0.00604253
2.16353
-0.587316
-1.38174
1.26154
-0.686253
-0.784984
-0.507609
-0.082475
2.47972
-0.98965
-0.170223
0.209139
1.33716
0.48044
0.964312
-2.35164
-0.81812
1.48465
0.266479
-1.18822
0.492396
0.491434
-0.131347
-1.38585
-0.549949
-0.0439214
-1.08494
-0.712256
0.262267
-1.11466
0.495487
-1.61336
-1.51107
-1.44837
-0.271415
-1.19097
0.458933
-1.46078
-1.40212
-0.560075
-3.11099
-3.3229
-1.22678
1.4132
-2.25648
-1.89192
-1.39635
-0.750869
1.25313
-0.711645
-1.47981
0.6875
-0.93295
0.0433292
-1.61765
0.202972
-0.634779
0.0550331
-0.319644
-0.743981
0.134542
-0.70715
-0.2721
-1.18942
-0.194057
-0.49613
-0.286195
-1.22365
0.714006
0.790443
-0.0604563
-1.80655
-0.611845
-1.17922
1.7734
-1.70499
-2.31566
-0.686589
1.22672
-1.32784
-1.13914
-1.26157
-1.46612
-0.666723
-1.69268
-0.988917
0.996197
-1.84475
0.554731
0.53176
1.1934
0.74039
1.25603
1.59746
0.658085
-1.4887
-0.157308
-2.04421
-0.403315
0.0949901
-1.00398
0.286944
0.0413315
-1.22074
-1.6766
0.528615
-2.44901
-1.25233
-1.19975
1.59279
0.440077
-0.409115
0.173165
-2.10368
0.338799
-0.343282
0.402466
-0.684916
-2.01611
-0.914347
-0.0666163
-2.42474
-0.796631
-0.0251283
-1.60386
0.699064
-1.24091
-0.746186
0.585765
-2.43209
-0.442303
-0.620001
-0.332705
0.200246
0.117273
0.527619
-0.746602
0.0292225
-0.258516
0.280691
0.175865
-0.8772
-0.236359
0.0418943
-0.716261
-1.75288
-1.75077
-0.229495
-0.847801
-2.2535
-0.477501
1.033
-0.367885
0.662657
0.0288558
-0.920305
-0.444593
1.0225
-0.253209
-0.145551
-0.312205
-1.14407
0.52452
0.512122
-0.0565867
-0.481978
-1.29075
0.331242
0.165213
0.602615
-0.326918
-0.35019
1.39483
-1.75557
0.409218
-0.392216
-0.630652
0.664518
-0.136496
-0.134109
-1.43261
0.0740066
-0.980812
0.721062
-0.705118
-0.661514
-0.305032
0.108088
1.41212
-0.283399
-1.00837
1.07357
-2.09235
-0.990387
-0.628965
-0.720556
-1.61839
-2.40898
1.01576
-1.01586
-2.5713
-1.49539
-2.45563
-0.963879
-2.53161
-1.36569
-2.99384
-1.15099
-0.568887
-0.823748
0.52314
0.136188
-0.8517
-0.139347
-1.31121
0.0927737
-0.8446
-0.205607
0.139771
-0.244239
-0.0917549
-2.72866
-0.564298
-2.34488
-0.181253
-1.83748
0.415851
-1.98912
-1.42807
1.40487
-1.44491
1.71292
-0.794456
-0.732278
-0.67403
0.581378
0.0730316
0.740608
-3.39875
-2.35468
-0.84425
-1.74307
0.399946
-1.49817
-1.25915
-1.74181
-1.98109
-2.00734
-0.313879
0.129581
-1.30137
-0.666075
-0.814526
-1.13029
-0.503121
0.518789
-2.31086
0.0691843
-1.13707
-0.675735
0.477432
-0.554727
-0.302304
-0.859105
-1.79671
-0.479863
-1.9564
-2.97072
0.418848
-0.0436899
-0.13371
-0.87435
0.566286
0.0324936
-1.15111
-0.695092
-2.05469
0.643592
-0.149822
-0.602902
1.41925
-2.17735
1.72513
-0.0962684
-0.584131
-1.54695
-2.18597
-1.29562
-1.19625
0.247635
-1.03816
-1.94662
1.28237
-0.592856
-1.57763
-1.3934
-0.300182
-1.29024
-0.952587
-1.55282
-0.847469
-2.27956
0.0838052
-0.703715
-0.595678
-1.50472
0.523358
1.01607
2.20956
-1.45275
-0.151788
0.0548553
-2.79577
-0.0388515
0.359533
-0.145523
2.07216
-0.244395
0.886985
-1.82713
0.212031
0.360397
0.476392
-0.908599
0.280704
-2.0572
-0.957161
0.174781
0.464955
-0.439962
-0.913355
0.792028
-0.409007
-1.61493
0.601613
0.473075
0.0359341
0.159552
0.316162
0.843463
-0.201994
-0.68481
0.0739045
0.923383
-0.310329
-2.76009
-1.29334
-0.176983
-1.42026
0.226424
-0.436309
-1.08532
-1.15289
0.334612
-2.38671
-3.08416
-2.1642
-1.83679
-1.37577
-1.47824
-3.45127
-0.931641
-1.60821
-3.03323
-1.52993
-1.8397
-1.31485
-1.98907
0.669714
-0.592117
-0.650545
-1.00901
-1.8796
-0.607686
-0.798097
-1.2503
-1.00096
-1.87493
-0.979114
-0.833663
-0.905042
-2.41048
-2.35256
-0.955175
-1.02021
-2.25394
0.0107484
-1.40976
-0.545953
-0.790368
-1.12167
-1.02985
-0.0669245
-2.38779
0.502247
0.645036
-2.58621
-0.88571
-0.932451
-1.22518
-0.937347
-0.502525
-1.75097
0.477531
-1.60037
-2.17372
-1.05195
0.14414
0.104342
0.925452
0.536502
0.823309
-0.348931
1.2374
0.207457
-0.93616
0.374001
-1.32497
-1.26566
-0.776239
0.124264
-1.18976
-3.20074
0.537356
-2.77991
0.593897
-1.17894
-1.1657
0.438294
1.19638
-0.576595
0.148164
-1.72893
0.284809
-0.477656
-0.865649
-2.42519
-1.12461
-0.570653
-0.63354
1.52271
0.451642
-0.584461
-1.92347
-1.03455
-1.37862
0.0230569
0.00200256
-0.606258
1.49384
-0.230023
-0.382432
-2.20689
0.378391
-0.188014
-1.00141
-0.273108
-0.634593
-1.0719
-0.578503
-0.700942
-0.0995762
-0.07874
-0.68435
-0.23616
1.22911
-0.443043
-2.27938
0.132686
-0.637902
-1.24124
0.851095
-0.74505
0.402096
0.234625
0.796637
-0.121296
-0.843334
0.633231
0.329782
1.0259
-0.573936
-0.300926
-0.984788
-0.233106
0.410642
-0.716893
-0.974796
-0.250775
-1.38768
-0.0991046
0.907422
1.54034
0.718046
-1.35101
1.09383
-0.328954
0.261495
0.700815
-0.9219
-0.602514
-0.607307
-0.649299
0.579725
-0.975024
1.05975
0.26501
-1.60664
1.11243
2.46238
0.679832
-0.139908
-1.98377
-1.96886
0.0497495
-1.88418
-1.58626
-1.29778
-1.59763
-2.76033
-1.55458
-2.4732
-3.42505
-1.24112
-0.0907132
-1.06035
-0.487899
-2.4317
0.772374
-0.731294
-1.06191
0.0537023
-1.76749
0.207277
-0.0701003
0.265624
-0.557482
-0.326574
0.059401
-2.10452
0.542554
-3.12777
0.28165
-1.68326
-0.167505
-0.182813
-0.722021
-1.38245
-0.318711
-1.53354
0.191339
-0.273395
-3.47072
-2.22454
-2.81797
-0.249812
0.394449
-1.98805
-0.195799
-1.17652
-2.94189
-0.86775
-2.86178
0.142368
-1.68852
-1.79358
-2.7578
-0.864942
1.07947
-1.09791
-1.68442
0.614913
-1.03029
0.499023
-0.304643
-0.87646
0.304041
-2.5468
-0.911548
-2.77225
-1.48054
-1.07834
-2.22657
-0.323079
-1.22874
-0.469824
-0.988541
-0.237598
1.67063
-0.315111
-1.04354
-0.36785
-0.0813277
-0.126318
-0.17929
-0.406312
-0.901278
-0.0374955
-1.2549
-2.60859
-1.6697
-2.12285
-2.75684
-1.562
-1.67038
-0.445898
1.11306
0.705164
2.03086
-0.503754
-2.12649
1.16004
-2.54427
-0.941549
0.0840102
0.24704
0.685923
-0.882528
2.0885
-0.789396
-1.87595
0.201367
-0.394554
-0.314322
0.183028
-0.920945
-1.97054
-0.737956
-0.715475
-0.048564
0.258946
-0.500541
-0.656407
-0.475756
-1.39532
-2.20905
-2.30685
-0.84032
-0.659949
1.6471
0.108716
-2.00753
-1.27001
-0.557414
-0.251256
-0.913733
1.81054
-0.251805
-1.63718
-0.451365
0.253623
0.00522517
-0.667956
-1.57846
-0.0475155
-0.0739976
0.392577
-2.63512
0.436778
0.0896931
0.0563337
-0.000166176
0.449852
-0.334463
0.365196
-0.692657
-1.11129
0.623367
0.631145
1.92034
-0.51322
-0.54234
-0.551608
-1.49834
-0.501037
-1.5818
-2.49941
-2.48204
-2.11924
-0.407845
-2.46966
-1.8443
-3.91435
-3.21136
-1.16444
-1.01451
-1.89463
-3.05272
-0.0243743
-1.24332
0.344439
-2.20803
1.67504
-1.32722
0.0170796
-0.931864
-0.824809
-0.333245
-1.57215
0.977197
-2.31298
-0.763132
-2.37998
-0.356168
-0.0606353
-1.30479
-0.40084
-0.186197
1.34638
1.02202
0.41719
-1.18707
1.17015
-0.0672387
-0.378875
0.613858
-0.052913
-0.735532
0.182136
0.0498417
-1.04291
-2.18306
-1.67295
-0.415711
-2.84735
-1.2866
-1.30936
-0.0338981
-0.609334
2.09787
0.729592
-0.647159
-2.26006
0.775528
-0.125686
-0.427008
-0.601783
-1.26453
-2.60525
-1.99698
0.691788
-1.33804
-1.8388
0.0202266
-0.758236
-1.11316
1.1405
-0.3079
1.48066
1.15244
-0.362545
0.559398
0.811272
1.34717
0.637554
0.198074
-0.380379
-0.437135
-0.262331
-0.49214
-1.26853
-0.475454
-0.178877
-0.962013
-1.85492
-0.270794
-0.341883
0.306573
0.721138
0.0842053
-0.217854
1.33222
-0.733001
-1.01131
-0.020473
-0.309208
-1.94708
-0.195208
-0.214302
0.913651
-0.419912
-0.591835
-1.64759
0.181272
-1.90007
0.632753
-0.710696
-0.630059
0.756318
-0.0939733
1.2618
-0.727214
-1.0618
-0.342102
0.395289
1.34349
0.799872
0.0304659
-0.504808
0.613863
-0.499026
-0.531736
-0.210658
-1.66416
-0.236975
0.110083
-1.45438
-2.02636
1.12423
0.293373
-1.86511
-0.519668
1.2734
-1.1261
-0.11586
1.41684
0.591729
-1.21042
-1.23925
-0.722902
-0.652203
0.105606
0.117072
1.48325
-0.597406
-0.139256
-1.70851
0.942127
0.147486
1.77263
0.263006
0.648786
-1.75832
1.12671
-2.11931
-0.783047
0.4689
-1.25537
-1.08922
-0.292871
-1.06868
-3.0808
-0.887608
-1.14058
-1.49966
-1.75964
-0.495982
0.837722
1.02397
-0.221689
-1.03064
0.75626
-0.393929
0.33725
-1.28219
-0.438957
-1.51463
0.207891
0.451615
-1.26745
-0.0761309
-0.64018
-0.34452
0.177872
0.298193
-1.03635
0.130043
-0.97691
-0.0125354
0.264368
0.744011
0.330937
-1.04321
1.4827
-0.141881
-1.04734
-0.722794
-1.05311
-0.566264
-1.29612
-0.510726
-3.22664
-3.14809
-1.34594
-1.6068
-0.144009
-1.38015
-0.29243
0.415776
0.925415
-0.200607
-0.145618
-0.0778625
-1.50838
1.07432
-0.394993
-0.289748
-0.0136307
-0.610767
-1.09064
-1.02338
1.40377
-1.26553
-0.502538
0.385412
0.682469
0.272041
-1.01558
0.382269
0.275395
-0.102236
1.31008
-1.37772
1.29575
0.618101
-0.569981
0.341654
-0.232417
-1.47783
-1.35479
-1.58018
-1.52558
-1.90647
-0.0925682
1.64838
-1.42359
-0.916765
-0.366755
1.82849
-0.070529
1.9443
0.671328
-0.525546
0.698267
1.30602
-0.0646457
0.187907
0.982283
-1.05582
-0.919947
-0.706485
-0.244748
-0.998275
-0.975096
0.622975
0.416144
0.908261
0.653447
-0.759327
-1.33139
-0.0904267
-1.27436
-0.203736
-2.30154
0.789033
1.02872
-0.111201
-0.425139
0.0935861
0.431427
-2.85648
-0.739292
-1.16851
-1.103
0.433284
-0.396138
-0.312721
0.172721
0.327902
0.444652
-0.811347
-0.749341
-0.204572
-0.253075
-0.913308
-0.67408
-1.17205
-0.319443
-1.43418
0.44794
0.212378
1.82504
-1.32421
0.402712
-0.69484
0.963055
0.686489
-0.00444775
0.457743
0.988717
0.54689
-1.00441
-0.625926
-1.12737
-0.237802
0.000327722
-0.336584
-1.14725
-1.89883
-1.72688
-2.03988
-2.18335
-1.02299
0.553443
-2.27756
-3.23722
0.979362
0.219036
2.74166
1.08446
-0.0288834
0.574155
-0.498391
-1.45338
-1.27749
-0.989369
-0.0700772
-1.13585
-2.2621
-1.64131
-1.9695
-1.78105
-0.993698
-2.06972
-0.919618
-1.24528
0.74994
1.48849
1.79973
0.19754
0.756288
-0.0546325
-1.03607
1.10665
-0.0346594
0.80044
0.607044
-1.56666
-1.894
-0.992049
-1.05622
-2.98426
-0.647869
-0.918399
0.483122
0.0560099
-0.657206
-0.436248
1.91475
1.08535
0.252366
-0.264624
-0.452075
1.01777
-1.03625
-0.288738
-0.159432
0.468346
1.57495
-1.74006
-0.685627
1.67101
-1.01057
-1.39971
0.30033
-1.44584
0.130667
-1.34825
1.51598
2.03073
1.25277
1.00466
-1.03307
-0.543721
0.975576
-1.93443
-0.55302
-1.17042
0.0513865
-1.02303
-0.0255922
0.279475
0.504281
0.332131
-0.252114
0.235829
-1.15202
0.632251
0.68148
1.0038
1.03045
0.811107
-0.689356
-0.740424
0.341037
1.46856
0.0978663
1.2809
0.182949
-0.324457
-0.51874
-0.714982
-1.44096
0.49626
0.180834
0.594645
0.0584926
-0.429909
0.721654
1.549
1.13846
-1.50408
-2.11588
0.368764
-0.187144
-0.479822
-0.327513
-1.60404
-0.0191617
0.408189
1.4787
-1.32562
1.59956
0.950917
-1.53308
-0.124916
0.220776
0.200811
-0.340012
-0.809093
-1.93549
-2.24554
-0.890157
-0.477803
0.174996
0.613814
-0.0691299
-0.808278
-1.51736
-1.59532
0.0155479
-0.444436
-0.608239
-2.32003
-1.32828
-0.737261
-0.431488
-0.32117
2.08887
0.650953
1.18302
1.02236
-0.832951
1.05754
0.172923
0.418327
0.398668
-1.1908
-0.485932
-2.66826
-0.945724
0.30107
-1.0091
-0.974835
-0.542649
0.749731
0.721976
0.938639
1.30379
-0.564948
1.24859
0.48913
0.739388
0.320266
-0.621523
0.24508
1.13241
0.168339
-0.187596
0.33749
-0.21234
-0.165317
0.176924
-1.19445
-0.205553
-1.29778
-0.353115
1.00919
0.427265
1.40716
2.5509
0.472696
-0.0283559
1.19358
-0.592698
0.560939
1.02018
-1.34758
1.70231
-0.852175
-0.839727
-0.301353
0.927574
1.35467
-0.783391
0.359562
0.902498
0.304903
1.51998
-0.404182
1.10371
-0.756159
0.876704
0.182277
0.342386
0.00670226
-1.27105
-0.498728
0.790052
1.35575
-0.722409
-0.551347
-1.2787
-0.817383
-0.467135
-0.696868
0.434704
-0.120171
1.94009
-1.44457
1.53268
-0.377316
-1.99019
0.802714
0.215838
-0.409064
-0.565262
0.470152
0.709087
-0.897871
-0.226658
-0.0397097
-0.566032
0.576267
0.672371
-0.663
0.101599
-1.75445
0.919512
-0.596412
1.09139
1.28077
0.223072
0.130345
-1.14292
-0.24869
0.0131769
1.24834
-0.202376
-0.227452
-0.741047
-1.25113
-0.451781
-1.07761
-0.0125286
-0.513326
1.23631
-0.50596
0.593461
0.457025
0.280955
1.27733
2.07726
0.374866
-0.728535
-1.15959
-0.596612
0.408207
0.302855
-1.1132
-0.129021
1.40871
0.408237
2.16736
-0.428166
-1.22118
-0.102606
0.719683
-0.150173
-0.82979
-0.0531444
-0.557265
-0.0825278
-2.2435
-0.0150582
0.0353131
0.235461
-0.726627
0.652941
0.563053
-0.645535
-0.0246538
-0.376268
-1.21782
1.1271
-1.31878
0.579483
-1.53059
3.16324
1.53795
3.41448
1.0177
1.42849
1.89245
1.11715
0.284765
1.06868
0.802564
0.577023
2.05791
-0.0258096
1.13216
0.666415
0.416008
1.60534
-0.910933
0.982095
2.5476
1.77044
3.77833
1.0679
2.18734
2.4769
0.902982
0.404226
1.57628
0.575416
1.06045
-0.89787
1.62891
0.528112
-1.19972
-0.342582
0.492998
0.758728
1.62132
-0.417878
2.02271
2.52827
1.57859
0.731915
0.939329
0.737208
0.372982
-0.595979
1.61541
1.56541
1.76128
0.980713
-0.868271
-0.640499
0.129822
0.26837
-0.535581
0.196245
0.426118
2.15185
-0.0746456
2.84542
1.99132
2.90074
-0.810765
0.423013
2.85123
-0.00650042
-0.181592
0.258337
-0.656872
-0.572227
0.956397
0.817792
-1.2642
0.361765
0.260574
-1.27587
0.446025
0.167021
0.916229
2.21665
1.08455
0.507822
-0.0943092
-1.65819
0.657787
1.19205
-0.893899
-0.414458
-1.59204
1.09572
0.610402
0.147558
1.89946
-0.405714
-1.35474
1.76347
-0.744805
0.478875
-0.4293
0.201163
-0.332105
1.22987
0.640164
-1.43538
0.524092
-0.408469
0.134486
0.857733
-0.204043
0.675179
-1.18939
-1.16217
1.64787
-0.130699
0.40161
-0.280819
1.06499
2.4524
0.814024
0.10732
-0.592368
0.503442
0.341388
-0.91309
1.72293
0.58921
-0.0808098
-0.0906854
-2.30149
0.369497
-0.260764
-0.287881
-0.501797
0.107878
0.146
0.328505
0.147441
-0.853228
0.301382
-0.901288
-0.312493
-0.029858
0.64503
-0.350025
0.0855137
0.596955
0.0468013
1.48734
-0.7208
-0.167137
1.39087
-1.28886
-0.283681
-0.994776
-0.453213
-0.18524
1.25369
-1.12386
1.2689
4.8401
4.49958
4.36598
1.86116
1.2568
0.263304
1.26074
-0.182777
0.927072
1.75738
0.0405287
1.40243
1.40635
2.03435
1.74941
-1.6841
1.59487
1.87562
3.22269
3.1786
3.31205
-0.177087
4.60927
-0.643798
1.84946
0.0602867
0.327355
0.140268
0.6812
0.407392
0.200153
-0.799127
0.201368
1.56945
0.129792
0.31372
-0.440905
-0.480538
-0.277068
0.198958
3.27111
3.95322
2.90069
1.66443
1.93818
-0.455665
0.0787041
2.22266
1.59043
-0.419129
0.949903
0.27463
0.714052
1.11398
1.89828
1.16133
1.51392
0.47006
-0.11786
2.54075
1.45032
1.16477
3.69431
-0.66015
-0.0483874
1.16526
-0.0615083
0.400371
0.26736
0.196447
-0.885724
0.943813
0.0013015
1.56086
0.173979
0.383435
-0.162313
0.143364
0.986726
0.606573
1.61631
1.74576
2.54328
0.930397
2.27903
2.38823
1.44333
1.25082
1.72291
0.865494
0.0443567
-0.500977
-0.105921
0.601531
-0.0048014
-0.218162
1.4221
0.75295
-1.05224
-0.0572795
1.35647
1.91627
1.49833
1.20777
2.01278
1.53679
0.378779
-1.20328
1.70435
0.12272
0.424233
0.766564
1.19651
0.247089
2.95172
-0.12601
0.800733
-1.77018
1.51236
-0.613388
-0.302719
2.60865
1.25423
1.71009
-0.537592
0.731674
1.19507
0.625991
0.455763
1.21842
0.0431082
1.71668
-0.396909
0.880807
-0.897047
0.446956
-0.847763
0.819674
-0.936369
1.00333
0.698632
1.32555
0.428069
-0.427955
0.0398603
1.55813
-0.246173
-0.646992
-0.00185809
0.384142
-0.877221
0.806017
0.291655
0.776927
-0.05268
-1.03369
-1.22243
-0.834401
-0.0604442
-1.23263
4.3399
4.40319
4.23614
3.15296
3.38385
3.20165
1.31074
1.83098
3.08303
1.79431
1.16005
2.56801
0.137979
2.66875
3.32071
0.976273
2.58211
3.10449
2.35431
4.40672
6.35144
5.59009
5.03491
2.93763
3.12038
1.58717
0.46481
1.65217
1.81963
-0.811344
3.7079
0.606667
0.940359
0.631042
0.933997
0.801953
0.395975
1.55838
3.58716
5.54132
4.55824
1.50537
4.18292
2.74618
3.95889
2.61676
2.52934
-0.0735799
0.635479
2.39176
1.69625
1.30048
1.53257
0.461421
0.790316
1.53928
0.19202
3.1743
0.637118
0.610186
3.8203
2.0674
2.15232
1.02363
1.52664
2.28341
3.14411
1.52248
0.729743
1.19104
1.23511
1.32365
1.33649
2.00672
-0.981799
1.38393
2.32989
1.82533
0.743043
1.06855
2.70454
2.99416
1.5062
2.8887
1.50326
0.41707
1.57424
0.00133481
1.30848
1.11948
-0.05382
-0.0988887
0.765552
1.29789
-0.128145
-0.514256
1.22771
0.88829
0.733791
2.20475
1.70813
1.03962
0.903399
3.74111
2.24094
1.51882
-0.543926
0.254773
0.277172
1.16796
2.87353
-0.243344
1.33834
0.896231
1.27409
0.545398
2.28179
0.542871
0.286766
0.603321
2.71108
0.420461
-0.425296
0.830367
0.94363
-1.18178
-0.44728
-0.143502
0.775702
-1.71367
0.272963
-0.0869892
-0.0479746
0.13263
-1.4886
-0.914218
-2.37061
-0.195705
0.666073
0.413779
-1.31532
1.39388
1.50652
0.547756
0.241041
0.6606
-2.24142
0.101869
-0.341826
0.420335
-0.501068
-1.51426
-1.32511
1.2227
-0.0169405
-0.0261106
1.53948
-1.04613
2.15287
0.435349
)
;

boundaryField
{
    hotSide
    {
        type            calculated;
        value           nonuniform List<scalar> 
400
(
3.46089
0.939806
4.19373
2.26173
0.482754
-0.404212
-1.78263
-1.71128
-1.26529
-0.386245
0.730337
-2.13841
0.35486
-0.168863
-0.697938
-0.436044
1.14379
2.16394
3.7837
3.2235
2.48823
2.3882
3.40715
1.71965
-0.252988
-0.409348
0.195711
-2.67644
-0.944164
-1.75361
-0.956246
-0.483399
1.71254
1.1275
0.933819
0.101013
-0.28854
0.543792
3.44788
3.2911
2.66954