/*--------------------------------*- C++ -*----------------------------------*\
| =========                 |                                                 |
| \\      /  F ield         | OpenFOAM: The Open Source CFD Toolbox           |
|  \\    /   O peration     | Version:  2212                                  |
|   \\  /    A nd           | Website:  www.openfoam.com                      |
|    \\/     M anipulation  |                                                 |
\*---------------------------------------------------------------------------*/
FoamFile
{
    version     2.0;
    format      ascii;
    arch        "LSB;label=32;scalar=64";
    class       volScalarField;
    location    "0";
    object      relativeErrorField;
}
// * * * * * * * * * * * * * * * * * * * * * * * * * * * * * * * * * * * * * //

dimensions      [0 0 0 1 0 0 0];

internalField   nonuniform List<scalar> 
3200
(
0.0122842
0.00921347
0.00971851
0.0103348
0.0145976
0.0139006
0.0106148
0.0183769
0.0223929
0.0124375
0.0117615
0.0102313
0.0157691
0.00705103
0.00903993
0.0127627
0.0102914
0.0108257
0.0145726
0.0120845
0.0107282
0.0113398
0.0116661
0.0102546
0.0123261
0.00865175
0.0122366
0.0127138
0.0207274
0.0137454
0.012957
0.0126628
0.0163086
0.00970848
0.0121374
0.0110416
0.00546294
0.00828461
0.00500683
0.00224896
0.00977809
0.00661765
0.0132899
0.00863482
0.00632682
0.00795953
0.01131
0.0138891
0.00989566
0.0158559
0.0137386
0.0124558
0.0128706
0.0138883
0.00403527
0.0123129
0.00697946
0.00542417
0.00716174
0.00440605
0.0048125
0.0049161
0.00466413
0.00891507
0.00937054
0.00897216
0.00740161
0.0116692
0.0078121
0.0074457
0.0106493
0.0112314
0.01374
0.0142533
0.00089217
0.00645969
0.00391756
0.00176538
0.00181339
0.00268709
0.00975426
0.00710439
0.00543868
0.00272844
0.00496296
0.00413044
0.00952
0.00661718
0.00853225
0.00625263
0.00339518
0.00926943
0.00710906
0.00325254
0.0132831
0.00699028
0.00361468
0.00250952
0.00210288
0.00736408
0.00151759
0.00788586
0.00591001
0.000385593
0.000290726
0.00855907
0.00446154
0.00123393
0.00551054
0.00148667
0.000961193
4.80147e-05
0.000174584
0.0115152
0.000662233
0.00426111
0.000628476
0.00604771
0.00102622
0.00358801
0.00360856
0.00392348
0.00995907
0.00159621
0.00598159
0.00723294
0.00250733
0.00854121
0.00486284
0.00361624
1.66842e-05
0.00529571
0.00382532
0.00163977
0.0021881
0.00531733
0.00557263
3.2108e-05
0.00407663
0.000250027
0.00470783
0.00580584
0.00560701
0.00413101
0.00296818
0.00240362
0.00500397
0.00911689
0.00230088
0.00229569
0.00116435
0.00324938
0.0026599
0.00173919
0.000280125
0.000861496
0.00218219
0.00217336
0.00449133
0.00370767
0.00446638
0.00891242
0.0125216
0.00945333
0.0151133
0.0147335
0.0137166
0.0102137
0.00860889
0.0140549
0.0153827
0.0207449
0.013775
0.0113915
0.0115123
0.00938426
0.00861138
0.00802815
0.0125989
0.00884221
0.00871842
0.00298368
0.0081291
0.00534682
0.014397
0.00165429
0.0157116
0.00166003
0.0110559
0.000456893
0.000718401
0.0104871
0.00165692
0.0107448
0.00130825
0.00513722
0.00112509
0.00634669
0.000169323
0.00659429
0.00522153
0.00831932
0.00684515
0.0086632
0.00359932
0.0127277
0.0164938
0.00902453
0.00936743
0.00691777
0.0128419
0.00707766
0.00508429
0.00899634
0.0119668
0.00417771
0.0074684
0.00761946
0.00721693
0.00602889
0.0079631
0.00700827
0.00804932
0.00786513
0.00291747
0.00764579
0.00474393
0.00878114
0.0119621
0.00712866
0.00907363
0.00934108
0.0100792
0.0116142
0.00816371
0.00368702
0.0129065
0.00673149
0.00500801
0.00821754
0.00369644
0.00368905
0.00561995
0.00166094
0.00779634
0.00548849
0.00833437
0.0069481
0.00496727
0.00629783
0.0070389
0.00492422
0.0088314
0.00245145
0.00934706
0.00907099
0.00560055
0.00355403
0.0052004
0.00888639
0.0100218
0.0107356
0.00433141
0.00641949
0.00358923
0.00025491
0.00847906
0.00508697
0.00705596
0.00677196
0.00874569
0.00242753
0.00783917
0.00478646
0.000363429
0.00477337
0.00650717
0.00192768
0.00389345
0.00350107
0.00409174
0.00276076
0.00213928
0.00745033
0.00485213
0.000654518
0.00185844
0.00708335
0.00471462
0.00477748
0.0103745
0.0026822
0.00264639
7.12687e-05
0.00347235
0.00375662
0.0018368
0.0029108
0.00315401
0.00471898
0.00401582
0.00127203
0.00381546
0.000398006
0.00571362
0.00400951
0.0022074
0.0031972
0.00135699
0.00521605
0.00091374
0.00438869
0.00404946
0.000494362
0.00110332
0.00506578
0.00277581
0.00438484
0.00270387
0.00193717
0.0145822
0.0120892
0.00571145
0.0142726
0.00951446
0.0081329
0.00534501
0.00688946
0.0137128
0.0114458
0.00476738
0.0120602
0.00346112
0.0103318
0.00662194
0.00843761
0.00601662
0.00860318
0.00706431
0.00395878
0.00139164
0.00695247
0.00874697
0.00832514
0.0107528
0.0127489
0.0107254
0.00892492
0.012405
0.0117449
0.00867141
0.00931924
0.0117695
0.00946564
0.00604359
0.00736254
0.00766645
0.0067905
0.0069156
0.00490995
0.0031874
0.00711974
0.00605502
0.00381531
0.00825934
0.0141867
0.00654444
0.0101485
0.0058072
0.0113191
0.0122294
0.0100128
0.00847709
0.00107163
0.00326739
0.00991834
0.00599737
0.00581639
0.00187581
0.00914726
0.00121477
0.00598157
0.00239247
0.00360479
0.00447201
0.00697057
0.00439339
0.00620843
0.00870605
0.000803117
0.00945048
0.00673078
0.000285306
0.0101033
0.00790145
0.00887875
0.00251732
0.00269321
0.00128065
0.00551146
0.00188735
0.00192575
0.00218589
0.0147198
0.00897062
0.0145134
0.00183996
0.00154997
0.000174565
0.00506841
0.00252948
0.000298571
0.00703033
0.00225894
0.00859594
0.00743663
0.00989253
0.00263228
0.00948859
0.00186155
0.0021786
0.00103624
0.00393187
0.00338086
0.00191181
0.00222189
0.00398253
0.00802544
0.00607848
0.00248558
0.00476966
0.00739493
0.00342634
0.000383255
0.00812551
0.00596121
0.00772763
0.000504689
0.00457224
0.00697022
0.000988528
0.00476688
0.000756787
0.00573891
0.00443873
0.000943102
0.00491691
0.00570232
0.00167612
0.00274401
0.000522921
0.00486647
0.000691366
0.00529555
0.00414831
0.00426853
0.00126467
0.00401371
0.00324469
0.000331393
0.00698161
0.000211403
0.00240125
0.00417709
0.0068402
0.00136458
0.00141975
0.00499859
0.001912
0.00181625
0.00507449
0.00268152
0.00490276
0.00383093
0.000389301
0.00308855
0.00015006
0.00334171
0.00750797
0.00506452
0.00861399
0.00688712
0.0108396
0.00867391
0.0094626
0.0117583
0.0137508
0.00527031
0.00837852
0.013223
0.00449192
0.00793836
0.00810094
0.00486295
0.0128527
0.00345801
0.00585869
0.00959098
0.00280236
0.00551955
0.00733455
0.00172385
0.00905205
0.00152686
0.00179256
0.000345253
0.00202608
9.13954e-05
0.00679841
0.000260814
0.000254055
0.00580883
0.00149689
0.00728017
0.00189293
0.0016391
0.000209158
0.00175938
0.000649091
0.00421008
0.00260333
0.00344383
0.00919943
0.0070867
0.00828407
0.00456622
0.000632759
0.00658985
0.00444765
0.00870462
0.00345348
0.00586044
0.00817133
0.00265381
0.00593815
0.0044861
0.00936822
0.00484866
0.00304829
0.000271315
0.000321185
0.00165079
0.000522162
0.00266785
0.00690344
0.00363424
0.00475153
0.00595531
0.00670722
0.00127815
0.00717727
0.00136618
0.00582145
0.00511023
0.00688239
0.00814015
0.004981
0.00389262
0.00221472
0.000655115
0.00849654
0.00591384
0.00626917
0.000143066
0.00201541
0.00349854
0.00437536
0.00806735
0.00238908
0.00057918
0.0061871
0.00935093
0.00772946
0.00517751
0.00328319
0.00605692
0.00178305
0.00341622
0.00175383
0.000350564
0.00213391
0.00330314
0.00101995
0.00425125
0.00552352
0.00168412
0.0042226
0.00631907
0.00555285
0.00532211
0.00112276
0.00502249
0.0022823
0.00277687
0.00115514
0.00169011
0.00290973
0.00255297
0.00364726
0.000153248
0.00032133
0.00115012
0.00123247
0.00683504
0.00850991
0.000945444
0.00356246
0.000863242
0.00251517
0.00202855
0.00325773
0.00784208
0.0055178
0.000521636
0.00065715
0.00358002
0.00326357
0.00439789
0.00670144
4.48903e-05
0.00184784
0.00328219
0.00212512
0.0011313
0.000317979
0.000248721
0.0025211
0.00374113
0.00541159
0.000756825
0.00502117
0.000794128
0.00154551
0.00307806
0.00137954
0.000696305
0.0011663
0.00199079
0.000116479
0.00117178
0.00313775
0.000819565
0.00308974
0.0143035
0.00186297
0.00279565
0.00719913
0.00177917
0.00427942
0.0119391
0.00477569
0.00563738
0.00343668
0.00411379
0.00495135
0.00541452
0.00524624
0.00359142
0.00468486
0.000751624
0.000124653
0.000941888
0.00698383
0.00193529
0.000212143
0.0033834
0.00662564
0.00396706
0.00910637
0.00552116
0.000286604
0.00412492
0.000435627
0.000346814
0.00338961
0.0031532
0.0020808
0.00209526
0.000716031
0.000691345
0.00117905
0.00319399
0.002347
0.00215427
0.00114816
0.0025142
0.00376801
0.00172851
0.000346926
0.00815284
0.000455958
0.00692497
0.00387988
0.000766773
0.00224862
0.000813576
0.000895378
0.00481313
0.00886725
0.0011516
0.000699383
0.00376365
0.00749526
0.00410368
0.000956488
0.00886822
0.003347
0.00431941
0.00473679
0.00329675
0.00452137
0.00592442
0.00224724
0.0019779
0.000525575
0.00298851
0.000834179
0.00373126
0.000517259
0.0024692
0.000504204
0.00515513
0.000424861
0.00374444
0.00164908
0.011005
0.000624562
0.00100429
0.00365147
0.00632612
0.00505437
0.00354271
0.00138686
0.00853502
0.00390067
0.00554858
0.00262997
0.00367549
0.0013045
0.00176668
0.000874711
0.0015884
0.00499069
0.00539
0.00336553
0.00116204
0.00371623
0.00226142
0.000496759
0.00185415
0.00768682
0.00446421
0.00480346
0.000159125
0.00175169
0.00451279
0.011705
0.00574405
0.000387486
0.000403283
0.00290847
0.00151241
0.00118746
0.0105791
0.00147258
0.00170728
0.00256825
0.00348384
0.0023061
0.000903944
0.000604466
0.0010527
0.00137398
0.0030808
0.00272538
0.00460406
0.00172575
0.00104948
0.00642998
0.00169753
0.00256864
0.00287094
0.000909779
0.00367182
0.000129933
0.000866665
0.003048
0.00252744
0.00026547
0.00157647
0.00206964
0.0027564
0.00220319
0.00134637
0.00121801
0.00266706
0.00194138
0.000973871
0.00356148
0.00718657
0.000442508
0.000389645
0.000842817
0.00834909
0.00109379
0.00140138
0.00707311
0.00472903
0.00220164
0.00896047
0.00392931
0.00619449
0.00234016
0.00354939
0.000487849
0.00283754
0.00350857
0.00504837
0.000467862
0.00247739
0.00329796
0.00271005
0.00444086
0.00594073
0.000314643
0.0007431
0.00494974
6.33258e-06
0.00554335
0.00110726
0.00255849
0.000995196
0.00060835
0.00214896
0.000540865
0.000233068
0.0011593
0.00461112
0.000467214
0.00212868
0.00320603
0.00302204
0.00399709
0.00470513
0.00399744
0.00287125
0.000177565
7.93053e-05
0.00035564
0.00811602
2.73001e-05
0.00434795
0.00140301
0.00573377
0.00261338
0.00420696
0.00165252
0.000979982
0.00134742
0.00220323
0.000316395
0.000152408
0.00353063
0.00221761
0.00353644
0.00241995
0.00147828
0.000811604
0.00410869
0.0028055
0.00239237
0.00234963
0.00164383
0.0021331
0.000918028
0.00154035
0.00188112
0.00094401
0.000468193
0.000886959
0.00206998
0.00326345
0.00153177
0.00206174
0.00301344
0.00618782
0.00628505
0.000746145
0.00575566
0.00361115
0.0007389
0.000626634
5.71655e-07
0.00171004
0.000480462
0.00192307
0.000587619
0.00558183
0.00316614
0.0012481
0.00764438
0.00171099
0.00375554
0.00262098
0.00229632
0.00114122
0.00200579
0.00669276
0.00641526
0.0020175
0.00160047
0.000647167
0.00396378
0.00241015
0.00330382
0.000790759
0.000621426
0.000662275
0.00131864
0.00216037
0.00291645
0.00336437
0.00402088
0.0050433
0.00123141
0.00572488
0.0019767
0.00314583
0.00191926
5.36808e-05
0.000957917
0.00546465
0.00446874
0.00109237
0.000101182
0.00174774
0.00259525
0.00196999
0.00425068
0.000403621
0.00144933
7.9467e-05
0.000126878
0.00539095
0.00504765
0.00850488
0.001651
0.00131692
0.00395026
0.00256532
0.002191
0.000721796
0.00165236
0.00500481
4.18283e-05
0.00532545
0.00150626
0.00228713
0.00300167
0.000692875
0.00375472
0.00232216
0.0021291
0.000734772
0.00247175
0.00134256
0.000178606
0.000517089
0.00415841
0.00140153
0.00145646
0.00201322
5.10439e-06
0.00492013
0.0042886
0.00132986
0.00836265
0.009422
0.00656539
0.00314745
0.000497482
0.00207571
0.00125393
0.00349133
0.00130068
0.00447398
0.00247806
0.00463421
0.00122643
0.00525513
0.000629932
0.00465023
0.000768013
0.00135678
0.000580538
0.00522161
0.00185797
0.00682696
0.00634924
0.00440511
0.00213335
0.00197172
0.0048963
0.00618789
0.00184243
0.000954676
0.00181671
0.000884783
0.00717196
0.00452597
0.00245175
0.00219513
0.000580727
5.65407e-05
0.00602028
0.000974757
0.00302685
0.00246957
0.00398809
0.00155374
0.00344241
0.00352283
0.00271463
0.000303651
0.00180679
0.00389284
0.00597602
0.000374642
0.00421291
0.00243921
0.00155757
0.00291584
0.00436246
0.00209517
0.00238779
0.00314092
0.00313928
0.000105278
0.0061032
0.00374274
0.00528067
0.00115107
0.00117883
5.03821e-05
0.00584552
0.0011888
0.000860936
0.00128429
0.00314945
0.00129228
0.00114446
0.00357382
0.00620375
0.00556864
0.0034137
0.000646201
0.000852483
0.000935352
0.00386061
0.00160814
0.00322635
0.00167416
0.00145031
0.00224487
0.000576504
0.0017835
0.00128406
0.000165289
0.000494216
0.00696876
0.00276537
0.00156671
0.00443474
0.00149286
0.00142924
0.00385091
0.000798213
0.00291522
0.0063402
0.00095424
0.00440038
0.00618498
0.00364897
0.00109662
0.000592508
0.00157462
0.00356035
0.00648071
0.00155589
0.000388847
0.000529051
0.0065846
0.00813214
0.000376866
0.00155393
0.00444231
0.00412791
0.00667226
0.00300261
0.00195021
0.000574532
0.00481507
0.00129971
0.000411969
0.00284267
0.00120491
0.00270444
0.00326029
0.00166568
0.00705312
0.00010607
0.00261845
0.000558197
0.00306327
0.00405159
0.00254076
1.81461e-05
0.00366239
0.00277859
0.00403936
0.00345544
0.00646128
0.00584776
0.00441866
0.00139256
0.000429681
7.9742e-05
0.000571871
0.0016038
0.00213962
0.00249354
0.00306072
0.00333246
0.00110708
0.00311727
0.00329703
0.00480911
0.00287742
0.00347843
0.00293776
0.00169253
0.00192186
0.00569049
0.00385017
0.00221247
0.000581929
0.0022222
0.0010137
0.0058752
0.000642379
0.00120459
0.000238641
0.000392681
0.00482372
0.000635047
0.000361211
0.000399013
0.00549408
0.000785221
0.00215633
0.00158753
0.00326634
0.00290715
0.00097572
0.00554243
0.00338534
0.00179976
0.00303263
0.00238782
0.00279256
0.00305398
0.000655204
0.00471403
0.00200814
0.00573042
0.000643044
0.00150991
0.00635394
0.00438892
0.000714691
0.00287539
0.00610879
0.000453223
0.00199767
0.00420123
0.00358899
0.00694229
0.000592823
0.0034134
0.00144595
0.0014684
0.00200314
0.00187783
0.00145101
0.00198436
0.0011916
0.0018001
0.000140952
0.00285896
0.00174224
0.000666488
0.0060381
0.00206807
0.00916681
0.00463021
0.00669132
0.00176344
3.99129e-05
0.00775249
0.00447268
0.00196574
0.00501142
0.000489484
0.00301521
0.00101955
0.00668276
0.00221425
0.00222078
5.9292e-05
0.000128331
0.00441869
0.00372518
0.00528773
0.00500961
0.00276803
0.000342913
0.000822379
0.00142495
0.000525195
0.00202354
0.00237169
0.00353143
0.00152638
0.0019207
0.00735631
0.000780855
0.00163853
0.00323338
0.00132076
0.00736886
0.00182288
0.00389701
0.00303123
0.00446977
0.00453241
0.00140035
0.00466417
0.00147966
0.00207739
0.00244539
0.00434942
0.00349904
9.95276e-05
0.00202505
0.00251436
0.00560032
0.000339481
0.00263704
0.000896044
0.00668319
0.00030298
0.00592419
0.00400822
0.00299175
0.00344819
0.00199058
0.00122571
0.00281654
0.0054842
0.000752894
0.00518993
0.00065417
9.9925e-05
0.000261282
0.00083951
0.0018163
0.000983834
0.00142143
0.000905127
0.00711803
0.00199249
0.00103395
0.000346478
0.00109993
0.00558824
0.00271937
0.00679808
0.00471108
0.00371794
0.00327536
0.00188061
0.00560317
0.00107979
0.00241478
0.00459483
0.00593627
0.00396625
0.0114277
0.00660957
0.00897917
0.00543724
0.00694956
0.00299215
0.00183482
0.00329378
0.00432502
0.00704298
0.00202208
0.000630047
0.00352278
0.00252778
0.000515882
0.00607217
0.00215157
9.78454e-05
0.00121105
0.000631611
0.00237345
0.00304948
0.00222675
0.00297959
0.00255261
0.00207163
0.00361982
0.00552674
0.00115049
0.0065071
0.0013075
0.00247699
0.00511618
0.00121608
0.00364181
0.00102228
0.0012193
0.00408192
0.00439963
0.00534162
0.00143715
0.00423894
0.00252234
0.00188881
0.00068696
0.00720891
0.00194441
0.00116646
0.00106898
0.00554136
0.00021932
0.00484835
0.00204985
0.000921843
0.00294101
0.00224654
0.0033182
0.00170999
0.00615697
0.00228323
0.00434813
0.00598241
0.00125672
0.00188877
0.00246282
0.000287836
0.00283831
0.00174536
0.00600098
0.00283121
0.00439588
0.00543593
0.00136014
0.000293949
0.000215822
0.00127127
0.00211216
0.00193671
0.0108714
0.00641699
0.00232276
0.000368454
0.00166867
0.00334346
0.00586658
0.000239735
2.74708e-07
0.00455454
0.00123299
0.00276704
0.0029506
0.00605201
0.000158111
0.000288228
0.000424459
0.00138819
0.00825463
0.0016785
0.00501952
0.0025402
0.00498791
0.00615157
0.00557356
0.00311458
0.000489449
0.000722472
0.00609136
0.000582033
0.00395251
0.00266813
0.00136533
0.00403256
0.0027711
0.00641502
1.979e-05
0.00708663
0.00192405
0.00452746
0.00413448
0.00224957
0.00257378
0.00166467
0.000270513
0.00822091
0.00328077
0.000564262
0.000693214
0.00443184
0.00159223
0.00319564
0.00779268
0.00271092
0.00491942
0.000882987
0.00393728
0.00163167
0.00162856
0.0004353
0.00459319
0.00182286
0.000145593
0.00359665
0.00236131
0.000806099
0.0034235
0.00152043
0.00494594
0.00462791
0.00443184
0.00082982
0.00363879
0.00140152
0.00445988
0.00428081
0.00171039
0.0095051
0.0101594
0.0037538
0.00432818
0.00691749
0.00580546
0.00428867
0.00230786
0.00389293
0.00220939
0.00459061
0.00213095
0.00288931
0.000134082
0.00500221
0.000627275
0.00196093
0.000169969
0.000987215
0.00229827
0.000415795
0.00218671
0.00084201
0.0036836
0.000601491
0.00153908
0.000888527
0.00380134
0.00224194
0.00248065
0.000189602
0.00566161
0.00191611
0.00369042
0.00554654
0.0053299
0.00723626
0.00214513
0.00383267
0.00414941
0.00356101
0.00394572
0.00458828
0.00208797
0.00530473
0.00310143
0.00312636
0.0057924
0.00176059
0.00168696
0.00378385
0.00234612
0.00397769
0.00505611
0.00208185
0.00470755
0.000497288
0.00646123
0.00127478
0.000300286
0.00317477
0.000907745
0.000130818
0.00386593
0.00531276
0.00167605
0.00776928
0.00397462
0.0038489
0.00510813
0.00141072
0.00131086
0.000554585
0.00673435
0.00108414
0.00109812
0.00128715
0.0021902
0.00644702
0.00292422
0.000213098
0.00775904
0.00255019
8.04771e-05
0.00513899
0.00224094
0.00397964
0.00239383
0.00189963
0.00788538
0.0014336
0.00200887
0.00107764
0.000648392
0.000379619
0.00170752
0.0024158
9.4548e-05
0.000836414
0.000908241
0.000569146
0.00283954
0.000765325
0.000135697
0.00232077
0.00568146
0.00567638
0.000744252
0.00277954
0.0073871
0.00156498
0.00338489
0.00120522
0.0021705
9.44991e-05
0.00301345
0.00145563
0.00334755
0.000828983
0.000476545
0.00102229
0.00374669
0.00171804
0.00167776
0.000185421
0.00157965
0.00423115
0.00108599
0.000547642
0.00199743
0.00108354
0.00116059
0.00462239
0.00581746
0.00135595
0.00129955
0.0020895
0.00220167
0.000452236
0.000444335
0.00474674
0.000245222
0.00325013
0.00238955
0.00233688
0.00219252
0.00101106
0.000358288
0.00433029
0.000868452
0.00308747
0.00328418
0.00639512
0.00302453
0.00191935
0.00219751
0.00493354
0.00734193
0.00309577
0.00309677
0.00784181
0.00456335
0.0074992
0.00294603
0.00774452
0.00418154
0.0091744
0.00352951
0.00176374
0.00255241
0.00161977
0.000421344
0.002633
0.000430471
0.00404795
0.000286257
0.00260505
0.000634041
0.000431018
0.000753323
0.000283114
0.0084239
0.00174323
0.00724911
0.000560769
0.00568931
0.00128853
0.00616695
0.00447642
0.00440155
0.00452416
0.00535973
0.00248422
0.00228836
0.00210516
0.00181496
0.000227917
0.0023109
0.010605
0.00734851
0.0026356
0.00544403
0.00124983
0.00468469
0.0039399
0.00545379
0.00620686
0.00629217
0.00099478
0.00041052
0.00412066
0.00210791
0.00257629
0.00357318
0.00158978
0.00163867
0.00729724
0.000218439
0.00359013
0.00213384
0.00150804
0.00175285
0.000955676
0.00271729
0.00568598
0.00151944
0.00619797
0.00941514
0.00134223
0.000139964
0.000428176
0.0027987
0.00181184
0.000103921
0.00368017
0.00222158
0.00656559
0.00205632
0.000478692
0.00192653
0.00453605
0.00696111
0.00551731
0.000308013
0.00186974
0.00495377
0.00700292
0.00415189
0.00387634
0.000802264
0.00336236
0.00630266
0.00415071
0.00191836
0.00510355
0.00450659
0.000970712
0.00417195
0.00308017
0.00502142
0.00274092
0.00737423
0.000271176
0.00227774
0.00192865
0.00487343
0.00169553
0.00329249
0.0072406
0.00475994
0.000497246
0.000179668
0.00915528
0.000127204
0.00117696
0.000476317
0.00678186
0.000799828
0.00290283
0.00597991
0.000694011
0.00117979
0.00155976
0.00297538
0.00091939
0.00673923
0.00313614
0.000572748
0.00154097
0.00145807
0.00302675
0.00262451
0.00135522
0.00535066
0.00199319
0.00156726
0.000119043
0.000528558
0.00104737
0.00279424
0.000669191
0.00226882
0.000244864
0.00305958
0.00102832
0.00914661
0.00428624
0.000586564
0.00434413
0.000692122
0.00133265
0.00331227
0.00351566
0.0010196
0.00726767
0.00938626
0.00658391
0.00558674
0.00418451
0.00449709
0.0105035
0.0028369
0.0049004
0.0092496
0.00466915
0.00561913
0.00401917
0.00608396
0.00207173
0.0018307
0.00200998
0.00311529
0.00579909
0.00187364
0.00245927
0.00385082
0.00308182
0.00577164
0.00301403
0.00256674
0.00278746
0.00742769
0.0072535
0.00294699
0.00314985
0.00696394
3.32318e-05
0.00436102
0.0017081
0.00247168
0.0035057
0.00321676
0.000208913
0.00744954
0.00156615
0.00201057
0.00805882
0.00275951
0.00290514
0.00381774
0.0029217
0.00156701
0.00546278
0.00149067
0.00499878
0.00679382
0.0032897
0.000450966
0.000330175
0.00292739
0.00169625
0.00260173
0.0011021
0.0039065
0.000654671
0.00295322
0.00117954
0.00417821
0.00399119
0.00244814
0.000392004
0.00375452
0.0101048
0.00169724
0.00878475
0.00187772
0.00372924
0.00368871
0.00140282
0.00382809
0.00184425
0.000473717
0.00552566
0.000909909
0.00152552
0.00276393
0.0077419
0.00358971
0.00182151
0.00202244
0.00486186
0.00144243
0.00186724
0.0061474
0.00330773
0.00440954
7.3776e-05
6.4095e-06
0.0019628
0.00483543
0.000744359
0.0012372
0.00713747
0.00122345
0.000607761
0.00323645
0.000882537
0.00205051
0.00346356
0.00186941
0.00226538
0.000321883
0.00025459
0.00221331
0.000764001
0.00397742
0.00143409
0.00737965
0.000434572
0.00208899
0.00406414
0.00278622
0.00243864
0.00131589
0.00076772
0.00260637
0.000396814
0.0027588
0.00207149
0.00107886
0.00335645
0.00187798
0.000984806
0.00322333
0.000763115
0.00134455
0.00234767
0.00319265
0.000830976
0.00459806
0.000328363
0.00300639
0.005103
0.00237869
0.00447531
0.00362325
0.00108961
0.000866146
0.0023213
0.00305365
0.00199579
0.00201174
0.00215095
0.00192058
0.00323036
0.00351126
0.000878107
0.0053238
0.00339308
0.0075062
0.00207088
0.000425865
0.00603395
0.00598445
0.000151125
0.00572076
0.00481452
0.00393825
0.00484817
0.008378
0.00472003
0.00751288
0.0104106
0.00377506
0.000276121
0.00323
0.00148729
0.00741704
0.00238348
0.00225558
0.00327329
0.000165426
0.0054411
0.000637704
0.000215554
0.000816423
0.00171295
0.00100329
0.00018249
0.00646647
0.0016676
0.00961768
0.00086652
0.00518182
0.000515985
0.000563511
0.00222698
0.00426614
0.000995071
0.00478597
0.000596824
0.000852292
0.0108138
0.00692745
0.00877145
0.000777298
0.00122702
0.00618343
0.000608991
0.00365981
0.0091538
0.00270103
0.0089119
0.000443579
0.00526387
0.00559451
0.0086067
0.0027005
0.00340999
0.00346706
0.00531685
0.00194006
0.00324911
0.00157303
0.00095994
0.0027609
0.00095754
0.00801991
0.00287049
0.00873088
0.00466381
0.00339788
0.00701867
0.00101886
0.00387669
0.00148299
0.00312169
0.000750564
0.00533993
0.00100694
0.00333349
0.00117463
0.000259605
0.000403082
0.000571945
0.00129584
0.00287394
0.000119552
0.00400118
0.00831809
0.00532515
0.00677201
0.00879709
0.00498605
0.00533393
0.00142438
0.00355678
0.00225396
0.00656869
0.00162905
0.00687496
0.00374943
0.00822133
0.0030417
0.000271338
0.000797759
0.00221476
0.00284938
0.00674307
0.00254886
0.00605793
0.000650381
0.00127462
0.00101567
0.000591576
0.00297743
0.00637236
0.00238687
0.00234195
0.000158945
0.000847375
0.00163771
0.00214734
0.00155614
0.00456331
0.00722381
0.00754308
0.00274762
0.00215785
0.00538578
0.000355513
0.0065655
0.00415405
0.0018235
0.000822079
0.0029901
0.00592571
0.000824227
0.00542394
0.0014953
0.00084017
1.73083e-05
0.00221248
0.0052281
0.000157371
0.000245071
0.00130013
0.00872685
0.0014465
0.000297045
0.00018657
5.50374e-07
0.00148998
0.00110784
0.00120971
0.00229455
0.00368152
0.0020652
0.00191922
0.00583632
0.00155876
0.00164608
0.00167309
0.00454181
0.00151793
0.00479004
0.00756644
0.00751264
0.00641452
0.00123466
0.00747869
0.00558744
0.0118653
0.00974044
0.00353425
0.0030813
0.00575817
0.00928288
7.50175e-05
0.00382483
0.00105899
0.00678461
0.0051439
0.00407353
5.23959e-05
0.00285762
0.00252863
0.00102149
0.00481909
0.00299581
0.00709291
0.0023411
0.00730471
0.00109376
0.000186314
0.00401164
0.00123311
0.000573065
0.00419412
0.00318247
0.00129845
0.00369271
0.00363825
0.000208963
0.00117697
0.00190631
0.00016428
0.00228335
0.000565414
0.000154745
0.0032387
0.00678163
0.00519914
0.00129254
0.00885747
0.00400437
0.00407723
0.000105596
0.00192128
0.00661264
0.0022988
0.0020382
0.00711501
0.00244053
0.000395392
0.00134294
0.00189223
0.00397575
0.00819106
0.00627925
0.00217567
0.00420929
0.00578658
6.36762e-05
0.00238803
0.00350733
0.00359494
0.000970832
0.0047258
0.00367731
0.00115648
0.00178382
0.00258615
0.00429316
0.00203121
0.000630915
0.00121142
0.00139206
0.000835396
0.00156735
0.00404057
0.00151477
0.000570045
0.00306667
0.00591501
0.000863803
0.00109091
0.000978483
0.00233001
0.000272021
0.000703607
0.00430163
0.00236625
0.00326396
6.6063e-05
0.000997601
0.0062812
0.000629696
0.000691289
0.0029474
0.00135477
0.00190975
0.00531752
0.000585175
0.00613521
0.00204361
0.00229587
0.00203573
0.00247405
0.00030737
0.00412656
0.00237791
0.00347147
0.00111833
0.00129204
0.00439089
0.00261403
9.95612e-05
0.00164969
0.00200614
0.00163096
0.00173803
0.000688638
0.00544086
0.000774884
0.000360012
0.00475701
0.00662859
0.00372373
0.000971688
0.0061772
0.00172104
0.00421706
0.00372906
0.000383654
0.00469151
0.00195932
0.00400788
0.00410334
0.00239366
0.00215961
0.0003497
0.000387683
0.00491198
0.00197849
0.000461212
0.00565881
0.00312055
0.000447009
0.00536994
0.000796258
0.001963
0.00531684
0.00340507
0.00640168
0.00236437
0.00141543
0.00378895
0.00328748
0.000884066
0.00322683
0.009306
0.00268247
0.00344893
0.00453745
0.00532736
0.00150251
0.00253902
0.00314247
0.000680055
0.00315995
0.00231742
0.00120648
0.00103239
0.00392334
0.00134268
0.00463184
0.000635664
0.00138089
0.00387596
0.00023287
0.00195887
0.00105464
0.000544767
0.000913757
0.00317744
0.000398921
0.00299805
3.89539e-05
0.000821232
0.00231016
0.00102708
0.0032362
0.00459759
0.000439787
0.00324546
0.0022393
0.0032623
0.00175416
0.00401553
0.00158262
0.0100016
0.00976169
0.0041753
0.00498678
0.000447148
0.00428731
0.000908729
0.00130833
0.00291118
0.000630835
0.000457738
0.000244662
0.00473801
0.00337356
0.00124004
0.000909479
4.27811e-05
0.00191694
0.00342336
0.00321279
0.00440808
0.00397522
0.00157909
0.00121151
0.00214612
0.000855789
0.00319576
0.00121815
0.000877386
0.000325621
0.00417132
0.00438537
0.00412331
0.00196644
0.001813
0.00108659
0.000739121
0.0046997
0.00430873
0.00502623
0.00485352
0.00606674
0.000294651
0.00524848
0.0045341
0.00292074
0.00116871
0.00590115
0.000227584
0.00627257
0.00216531
0.00169474
0.00225127
0.00420998
0.000208357
0.000605576
0.00316549
0.00340245
0.00296476
0.00227705
0.000788949
0.00321852
0.00314442
0.00200936
0.00134253
0.00293079
0.00210889
0.00248217
0.00435177
0.000295531
0.00416428
0.00066567
0.00751893
0.00257743
0.0033601
0.000363193
0.0013885
0.000305651
0.00140908
0.00933007
0.00241495
0.00381742
0.00360383
0.00141586
0.00129465
0.00102216
0.000564609
0.00108584
0.0014724
0.00268654
0.00248111
0.000677321
0.000837878
0.00302366
0.00223159
0.00388006
0.0010575
0.0047478
0.00148291
0.000703092
0.00604208
0.00438419
0.00133335
0.00230066
0.00318888
0.00227321
1.47286e-05
0.00138248
0.00298478
0.00165006
0.00302878
0.00188643
0.00339599
0.00071602
9.86418e-07
0.00101284
0.00345185
0.0057132
0.00519651
0.0061399
0.00657404
0.00308155
0.00166798
0.00686791
0.00976727
0.00295654
0.000661536
0.00838813
0.00331662
8.82924e-05
0.00175423
0.00152202
0.00443646
0.00389805
0.00301796
0.000213716
0.00346364
0.006898
0.00500554
0.00600776
0.00543458
0.00303327
0.00632064
0.00280973
0.00380663
0.00229356
0.00455404
0.00557809
0.000612056
0.00234231
0.000169131
0.00320612
0.00342325
0.000107178
0.00247456
0.00187633
0.00484196
0.00585366
0.00306635
0.00326529
0.00922828
0.00200408
0.002842
0.00149565
0.000173469
0.00203627
0.00135211
0.00601221
0.00340705
0.000791935
0.000830111
0.00141765
0.00319059
0.00324762
0.000904711
0.000499475
0.00146714
0.00493369
0.00545133
0.0021483
0.00523699
0.00316802
0.0043893
0.000942117
0.00453712
0.000410179
0.00423343
0.00482272
0.00645892
0.00398348
0.00319368
0.00328311
0.00172752
0.00309894
0.0061437
0.00175616
0.00371655
0.000163172
0.00324873
8.12803e-05
0.00088776
0.00160221
0.00105551
0.000801434
0.000749877
0.00366412
0.00201135
0.00219669
0.00323516
0.00332043
0.0026131
0.00222043
0.00238449
0.00109812
0.00472809
0.000315056
0.00412333
0.000588929
0.0010445
0.0016701
0.0023022
0.00464054
0.00159847
0.000582584
0.00191613
0.000188517
0.00138577
0.00235728
0.00505936
0.00371801
0.00491144
0.00690841
0.00120389
0.000610903
0.00156619
0.00106898
0.00523532
6.25407e-05
0.0013323
0.00482663
0.00432731
0.00522203
0.00310477
0.00500615
0.000407952
0.000721099
0.000655947
0.00112566
0.00267853
0.00640725
0.00743333
0.00294653
0.00158153
0.000579219
0.00203161
0.000228803
0.00267518
0.00502204
0.00528013
5.14606e-05
0.00147104
0.00201328
0.00767959
0.00439697
0.00244063
0.00142846
0.00106327
0.00628547
0.00195791
0.00355646
0.00307189
0.00250155
0.00317461
0.000518889
0.00125488
0.00119564
0.00357091
0.00145719
0.00800236
0.00283694
0.000903418
0.0030292
0.00292766
0.00163051
0.00225388
0.00217153
0.00282439
0.00397611
0.00172228
0.00380472
0.00148982
0.00225108
0.000974667
0.00189083
0.00074539
0.00344347
0.000511838
0.000570391
0.00102625
0.000645814
0.000502939
0.000538435
0.00363653
0.000626084
0.00395461
0.00107649
0.00307767
0.00132063
0.00434806
0.00787922
0.0014595
8.75192e-05
0.00368269
0.00182817
0.0017298
0.00314547
0.00415457
0.00524819
0.00262746
0.00258951
0.000929518
0.00286194
0.00418114
0.00241881
0.00111062
0.00278868
0.00094242
0.00476187
0.00126593
0.00345582
0.00236686
0.00274333
0.000570207
0.00107081
2.09571e-05
0.00397386
0.00155913
0.00246987
0.00423867
0.00225888
0.00172433
0.00400009