/*--------------------------------*- C++ -*----------------------------------*\
| =========                 |                                                 |
| \\      /  F ield         | OpenFOAM: The Open Source CFD Toolbox           |
|  \\    /   O peration     | Version:  2212                                  |
|   \\  /    A nd           | Website:  www.openfoam.com                      |
|    \\/     M anipulation  |                                                 |
\*---------------------------------------------------------------------------*/
FoamFile
{
    version     2.0;
    format      ascii;
    arch        "LSB;label=32;scalar=64";
    class       volScalarField;
    location    "./ITHACAoutput/true/7";
    object      error;
}
// * * * * * * * * * * * * * * * * * * * * * * * * * * * * * * * * * * * * * //

dimensions      [0 0 0 1 0 0 0];

internalField   nonuniform List<scalar> 
3200
(
-3.23512
0.0306881
1.2468
1.34248
2.44045
3.74371
3.01449
1.99892
2.29242
5.40029
1.92549
4.10304
2.54258
3.24115
5.95905
4.27542
2.9944
5.18658
3.301
1.41629
-3.47083
-0.606995
-1.39919
3.23128
3.38244
3.61077
2.38131
2.57877
2.62139
1.7213
4.50787
3.30542
3.2259
4.72777
4.62015
2.32214
3.1235
3.13398
1.63677
1.39326
-2.39721
-1.37411
-0.0981861
1.90939
5.42049
2.19398
3.24889
4.08321
3.55999
3.8956
2.09368
0.784688
4.15925
4.54879
4.25167
3.44711
3.2179
2.55532
1.08758
-2.08078
-0.393007
0.291805
1.457
0.924487
2.74505
3.48753
1.51346
3.45088
1.44268
4.28616
2.55547
1.92583
4.16113
4.00347
2.04107
-0.224452
1.82319
2.31045
2.05909
0.143815
0.0888193
-3.68113
-1.82096
-0.853129
4.06578
2.96448
1.61968
1.6949
0.899176
1.45428
2.13969
1.14449
2.76776
2.32717
2.08247
-0.170553
3.25579
1.1099
-0.488284
-1.18157
-3.31866
1.25071
-0.489461
-1.0951
-1.49766
4.50254
1.59892
1.3251
2.91012
1.08171
-0.0511519
1.92565
3.39714
1.52643
2.97164
0.436348
1.08131
-0.316655
2.24162
0.561636
-2.47097
2.93935
0.947653
0.330196
3.29909
3.8047
0.174539
2.31392
-0.805152
0.633577
0.997635
-0.279339
-1.60756
1.66546
1.52857
0.329515
-0.413223
-1.37646
0.268174
-0.524325
-0.191427
0.395519
0.599786
0.629776
2.33562
0.0980461
-1.05674
1.55777
4.68724
-1.02354
-0.682773
-1.59835
2.08689
0.919129
-0.685355
-0.414762
0.598906
-1.48565
2.36026
-0.144901
-1.45315
-1.04364
0.711328
5.4149
1.13893
4.36492
5.61411
2.51234
0.731494
2.22629
4.35047
5.08715
5.25228
1.75465
3.61574
6.45623
3.42687
2.07751
0.871891
-0.103878
-2.7758
0.0140177
-0.527687
-0.205623
2.85045
0.36375
4.56014
0.682778
2.7511
-0.0320763
-0.0374318
4.21777
0.183479
4.53893
0.732345
1.29923
0.403798
0.960005
0.382398
0.49194
-2.93389
-2.84884
0.105583
0.134876
2.10066
0.151794
1.40316
2.14613
1.84718
1.67192
0.880652
2.389
2.68864
1.59971
3.83962
3.85348
3.38488
3.69906
1.83878
-0.566161
-1.90168
-0.883711
1.12343
2.90548
2.51692
4.38268
4.10947
2.20726
1.0853
0.156277
3.90582
2.01244
2.58023
3.92559
1.5142
1.2644
2.48591
2.75901
1.08567
0.390142
-2.02951
1.89031
3.3232
2.2535
1.56835
3.09012
0.0492858
2.26684
-0.0443957
-0.568516
1.70689
-0.87415
1.34856
1.36639
5.12193
1.45267
2.00131
0.610422
0.280763
1.02879
-0.727022
-0.0157057
0.460494
2.18951
1.58509
1.39088
-0.45965
0.413923
3.07796
2.66882
1.1587
0.72052
1.08597
3.37059
2.42568
1.47398
1.24995
-1.60935
3.37625
-2.89006
2.42252
-3.36217
-0.371077
1.0983
0.0298844
2.24452
-0.510375
-2.30146
0.328552
-0.276212
1.51632
2.28252
0.978116
-1.06845
-0.591944
-0.717639
1.75045
-1.81496
-0.517999
-1.50606
1.66752
-0.95379
1.04235
0.397333
0.329757
-0.180601
1.38145
-2.09962
3.41426
-0.0680639
1.01832
-2.21623
-1.38376
1.13356
-0.203679
0.176298
-0.311703
1.04184
-0.656641
-0.698748
-2.19385
-0.655006
2.42052
3.07167
0.78843
2.72423
3.83646
1.09949
0.88384
0.848837
1.49432
1.08957
4.999
0.43453
2.89116
4.77834
2.34663
2.82418
1.38733
0.136846
-4.4599
-3.46568
1.62889
1.49202
3.02895
0.833877
1.30967
3.96421
4.03907
4.74387
-0.78227
2.57445
3.24932
1.83622
5.59136
4.15292
2.15053
2.54002
0.989003
-2.22886
-3.20074
-2.99258
-0.572519
1.03244
0.51864
0.971579
3.41609
1.37428
-0.224891
1.38636
1.07603
0.940192
2.79784
3.11986
2.27903
3.92112
-0.424884
2.06489
0.484901
-0.765575
-2.01948
-0.167663
-0.688088
1.06804
1.9632
0.139513
1.89568
3.62759
-0.925409
0.841489
4.35954
2.47211
1.56409
2.45354
-0.149145
5.7801
-0.767118
0.841469
0.285464
0.95516
-0.841984
-0.925295
-0.485485
1.3547
2.50283
5.45212
1.31697
-1.29228
-1.83549
-0.113642
1.14226
3.91017
0.099052
0.607809
2.43752
0.51649
2.01799
1.40664
2.42775
-1.28072
-1.07745
0.085475
3.11928
-0.0519354
1.66579
-1.13708
1.09071
1.99155
-0.738468
0.53453
1.78704
0.796773
0.683489
2.83296
1.1674
0.0197712
2.88844
1.42619
-1.23685
-0.373904
-1.53784
0.408614
1.5381
-1.0453
1.44316
-0.467208
0.0984895
2.63325
0.751971
1.10263
-0.598302
0.789414
-0.214907
3.19179
-1.56313
0.977017
1.87126
0.22175
0.0681631
0.506367
0.653999
-0.654435
1.61953
1.31133
-1.09374
0.852652
1.0551
0.268295
-0.724511
-0.770238
0.128166
-1.77965
0.954912
0.882323
0.305768
-1.19402
0.865214
0.0504105
0.817133
0.672981
-1.11914
-1.90388
0.643437
0.507148
1.40706
3.44854
2.11296
1.0131
2.66416
2.66823
2.63738
1.54993
1.23972
2.92254
1.5373
3.45461
3.91364
3.01329
-1.46776
-0.058896
-2.28807
-0.0318058
0.867688
0.306301
1.67005
0.0230493
1.87942
0.707771
2.92566
-0.0754672
-0.0597788
1.22528
0.338676
-0.11273
-0.0285753
2.32238
-0.353155
4.14361
0.838307
-0.984285
-0.945022
-0.420856
-0.927138
1.02408
1.61842
2.68648
3.15479
1.09098
1.19731
0.0460231
-0.572119
2.70711
1.88027
2.39042
0.672195
3.31323
2.8872
2.0106
0.809562
-0.00595109
-2.14922
-1.23552
0.216926
-0.351449
1.91822
2.22969
3.34146
-1.16126
3.31969
0.219964
5.01345
1.19045
2.89662
0.0170685
1.40108
1.59146
2.50337
0.084876
-0.305066
-0.231752
-1.74006
-1.28778
-1.34565
0.406259
-0.00276577
1.33013
2.49391
0.847253
2.36703
1.71029
0.816453
-0.534413
2.81964
1.98821
1.82544
1.52238
1.42034
-1.36507
-0.418363
-0.088302
0.0918435
-1.10141
0.334432
1.26095
0.476867
3.58858
-2.07198
0.476185
-0.12721
0.0812946
-0.8509
1.50115
0.125443
0.388468
-2.88823
2.34858
-0.361942
1.76447
0.495308
0.247545
1.05191
-0.503348
-0.192751
0.206412
0.886465
1.55182
1.87082
0.0962576
0.503861
-1.60289
-0.0181471
0.714278
1.37886
0.764295
0.960058
1.34793
0.0725654
-0.568768
2.56215
-0.538743
0.550248
1.94857
-0.329797
0.451604
-1.51637
0.396456
1.80169
-0.691525
1.04526
-0.226967
-0.344049
-2.59447
1.85778
-0.394306
-1.0592
2.16439
1.20463
-0.698137
-0.0831099
0.739029
-3.10433
-3.80531
0.369016
-0.689132
2.43221
1.17722
0.77921
1.60764
2.09054
0.205152
-0.293441
0.081832
1.67749
-0.39079
1.15681
0.789224
2.20295
2.58682
-1.41523
-2.1277
-1.74771
-2.19257
2.28909
1.14743
0.862103
-0.898042
1.7448
1.14003
-2.25377
0.552645
-0.253947
-0.0876822
-0.63993
-0.0435708
1.08371
2.5098
3.30545
2.71274
-0.187146
-1.10407
-0.870811
1.14181
1.51956
0.0566674
1.58298
0.463176
-1.02972
2.54365
1.19587
-0.981439
-0.437449
1.39255
3.38386
1.65487
2.9748
1.37985
-0.472745
-0.13568
-0.340751
-0.340869
-3.71642
-0.760057
-2.28223
3.7057
2.13908
1.73588
-1.37476
1.57966
3.42501
-0.261371
-1.09512
-0.811067
0.304442
-1.30901
2.62281
1.83889
2.29291
-1.77594
-2.01422
-1.1333
-2.68177
-2.64022
1.10823
0.0397505
-1.76356
1.85555
0.00683398
0.283383
0.47383
-0.97073
-0.383043
-0.614212
0.599449
0.5347
1.84251
0.926263
0.799038
1.24287
-0.961668
1.05191
0.484991
-0.281778
-2.32951
1.87928
1.90017
-0.0642173
2.7091
1.03309
0.0975997
0.539323
-2.52312
-0.0276544
0.434162
1.22016
2.34642
1.53474
-1.24781
0.948461
0.753963
-1.63548
0.650983
-0.392537
2.59631
2.27396
0.835198
3.9819
1.19712
0.552831
0.16123
0.396624
1.19001
-1.24029
0.796078
-1.54847
2.48702
0.918649
0.917594
-1.78778
-1.30319
-1.45627
-2.00352
-1.97547
0.803796
-0.940126
-0.947059
0.221239
-1.77552
-0.151695
-0.607404
1.81105
0.227679
0.515638
-0.0243733
1.36771
0.536215
-1.40895
-0.0390865
2.37782
1.07251
-2.80771
-2.83375
-2.56227
2.03696
-0.0867809
0.793443
-0.813781
-1.26896
0.127011
-0.154638
0.75845
-1.2868
0.690143
-2.18203
0.593877
3.7938
1.0712
-0.174861
1.68982
-0.970773
-3.81771
-3.70855
0.207504
-1.48913
0.48358
1.73088
0.866279
-0.586311
0.511005
-0.708087
-0.507688
0.475734
-0.191547
-0.0424613
2.35763
0.834872
2.56492
-0.689047
-1.98043
0.551642
-1.20758
-4.62155
-1.94632
-1.87822
1.9967
1.06764
3.0148
1.22737
0.637546
-3.14058
-1.32223
-2.39836
0.852055
0.587051
1.69732
-0.667836
1.08514
1.79166
0.784806
-0.727746
-1.02984
-1.67702
-1.53207
1.58091
0.143265
0.235299
0.556469
-0.0131908
-0.52338
-1.92264
-1.16403
-0.447023
1.32186
-0.0775985
2.80725
1.38896
-0.642478
-1.34554
3.19301
-1.00414
-1.10721
-1.12139
0.996038
0.585707
-1.23176
-2.13938
0.0245351
0.911662
-2.33913
-0.441445
0.184988
-1.9378
-0.131715
0.571993
0.230865
-2.04586
1.51755
2.0479
2.68346
-0.759682
-0.749639
0.960782
0.152884
-0.111819
-0.193194
0.787996
-0.00642222
-1.52098
-0.456534
-0.220576
-0.0511245
0.814135
0.520091
-0.0162239
0.648195
1.21301
1.38302
1.10149
0.0847678
0.174998
-2.51803
-1.34981
-1.00376
0.240652
0.603063
4.6737
-0.938256
-2.24676
-1.21279
-0.9781
-0.619092
0.0769651
-0.529407
-0.192407
0.0128307
0.598707
-0.381104
-0.66208
-1.3211
-1.69311
-0.640628
0.100685
1.50118
-0.943393
0.880945
0.43772
-1.32307
0.0238368
1.63351
0.544252
-0.588441
0.743882
-1.22648
1.68396
0.121057
0.816433
0.614308
-0.624873
-0.901544
-1.56598
-0.612233
-6.07349
-2.32549
-0.713255
0.551082
-0.644604
0.609924
0.425487
-0.767033
-1.73253
0.619412
-2.49641
0.886486
-2.4619
-0.78396
-0.084679
0.565619
0.923327
1.26492
0.155649
-1.20656
-3.22886
-1.51412
-2.66496
-0.147487
-1.56429
0.885477
-0.942306
-0.806443
-1.47057
-2.1703
-1.46364
-3.28506
-1.44252
-0.171996
-1.56817
0.923971
1.30748
2.22433
-1.14173
-0.0974796
-2.61574
-2.31052
-2.49222
-0.240964
0.329742
0.197025
1.2859
1.15213
0.0402372
-0.896572
-1.49106
-2.56382
-1.13144
1.14884
0.835326
-0.377017
1.33401
-0.200556
-0.479633
-0.544613
-1.25937
-3.5342
0.0357124
1.89122
2.6027
0.042094
-1.5915
-0.696209
0.564886
-1.55371
-1.95926
-0.471787
-1.69175
2.73116
-1.95634
0.216711
2.36957
1.67592
-2.52184
-1.15757
-1.37025
1.07532
1.04166
-1.5311
-0.527084
-1.30892
-2.0762
-2.45554
1.16907
0.18341
0.198608
-0.893428
-1.46595
-0.0118761
-2.31727
1.55875
0.459882
-0.198129
0.37657
0.423984
-1.63775
0.170768
-0.859362
-0.272874
-0.701566
0.295574
2.54703
-1.13756
-0.588562
-0.827363
0.0207062
0.396101
-1.30194
1.014
0.38033
0.550092
-0.216014
-0.4317
-2.25809
-1.31924
-0.70302
-0.83504
-1.47962
-0.0137973
-0.780838
-0.0727361
0.240969
1.41153
-0.0557161
0.165591
-0.347224
-2.34371
-1.169
-2.13277
-0.68129
1.26262
2.94821
0.648368
-1.08658
1.20699
2.22754
0.969308
1.33951
1.24397
2.48484
0.143248
1.2426
-1.51598
0.300679
0.820845
1.62588
-0.628674
-3.05611
0.00642971
-1.14818
2.30849
3.16211
0.80229
2.69801
1.04118
-3.57829
-4.41356
-1.64343
-0.324568
-0.887294
-1.66787
1.10452
0.152887
-1.54943
-2.02105
-3.32925
-2.19955
-3.1913
-3.68928
-0.206794
0.549807
-0.888605
-1.37722
-2.06309
-1.90573
-3.5644
0.27367
0.721507
-0.0523922
1.23886
-0.294046
1.79188
-0.378893
-2.33873
-0.119127
0.353999
-1.62155
-0.470195
-1.89479
-0.0652197
0.705115
-0.125734
1.24819
0.111391
-2.95412
-2.00189
-3.35923
-0.183411
1.08582
-0.254782
-1.43305
0.609735
-2.98866
0.17014
-2.7313
-2.94062
-3.17567
-0.641081
0.858138
1.35873
3.52007
1.14469
2.80926
-1.3704
-2.69035
-0.600764
-3.63614
0.615394
-1.96212
1.06555
0.471864
-0.728421
-1.80664
-1.63426
-0.949142
-1.07234
-1.51712
0.761588
-1.20533
2.05981
0.288104
-1.02616
-0.0955761
-3.28113
0.1571
-4.88495
-1.80091
0.306644
-0.168997
0.456738
-0.0488669
0.129448
0.192158
-2.82469
-1.33972
0.63969
-1.25419
-3.29672
-0.236606
-1.01729
-0.137574
0.0685197
0.144267
-2.50928
-2.19529
-0.766417
-1.54948
-2.21562
-0.563552
0.439943
0.522841
0.973348
-2.1861
-1.09281
4.22933
-1.53807
-0.490309
0.383613
0.672274
1.06838
0.89421
-1.04352
-0.875255
1.49905
-1.35091
-0.148714
-1.24395
0.00874074
-0.711559
0.111789
-1.75929
-0.0761189
-0.356811
0.905929
-0.200773
-2.2485
-0.975428
1.13844
-0.455464
-0.658087
-0.13652
-1.36416
-0.715856
-2.12401
-0.184674
0.281063
0.476609
-1.46924
0.52341
1.10688
0.162829
0.165579
0.653458
-0.0792297
1.86225
-1.49564
-0.148255
0.491044
1.45327
-1.63548
-1.63172
0.0723662
-0.471438
0.776028
-1.73432
-3.84169
-5.72174
-2.01578
1.61645
2.81566
0.189723
0.311135
-1.39736
-1.46663
-4.78839
-5.66098
-2.9534
-2.73514
-3.00376
-1.73596
-2.09057
0.400717
-1.89302
-1.63063
-4.08027
-4.48033
-1.84075
-1.83433
-1.17088
-0.160393
-0.83606
-2.76808
-1.24679
-3.91074
-2.42446
-3.05932
-2.33098
-2.32227
-0.384081
-2.32564
-0.660402
-0.340203
-1.30308
-1.25083
-6.22159
-4.24582
-5.23435
1.05685
-0.63629
2.5122
-0.0591467
0.326985
-2.05112
-1.0484
-2.60664
-0.0539202
-1.84215
-1.53504
-1.06501
0.274567
-2.3902
-1.38949
-0.00790671
-1.25846
-2.11475
-1.8249
-1.2014
-0.281486
-0.938324
-0.236191
0.590232
-1.64191
-1.77533
-0.00885867
-0.905435
-2.45318
-3.58015
-1.60782
-1.88673
0.60419
-1.42225
-0.621463
0.2263
-1.56808
-1.35143
-2.74897
-2.6959
0.339804
-1.65022
-0.0470549
-0.0345808
-2.78613
-1.63607
-0.539942
-1.68572
1.17782
-0.0345554
-0.4676
0.225816
0.855402
-0.76838
-0.678508
0.130971
-2.11582
-2.33871
0.0582308
-2.98292
0.134367
-1.08614
-0.446742
-2.19062
-0.898982
0.129245
-1.86947
1.4132
-0.9414
-0.9632
0.0844591
0.658353
1.29781
2.05197
-0.584799
-0.33864
-1.34964
-1.06912
0.875346
0.89052
1.11592
0.76905
-1.50807
-0.944312
-1.74843
-0.316953
-1.35927
-2.05133
1.49992
-0.669385
0.657988
1.72529
-1.35078
-0.474009
-2.21404
-0.839972
-1.48678
-1.04484
-1.39523
-1.44687
0.0611543
-0.761052
0.291758
1.25578
-2.67574
-0.207083
-2.0712
0.789336
-0.482379
0.178984
1.89353
0.248539
-0.774129
-1.46339
-0.171748
-0.241383
-2.74571
-0.76817
-6.21324
-4.17829
-0.14177
-1.54553
0.882749
-0.348673
-3.56455
-0.76688
-2.69134
-4.74006
-2.67978
-3.66286
-5.8464
-1.36495
-2.21878
-1.74027
1.18156
-1.24333
-3.53391
-3.27459
-4.11631
0.10572
-2.73847
0.574964
-1.27649
0.142087
-0.481915
-0.00344756
-0.901405
-0.323518
0.128461
-4.14553
0.537265
-0.217399
-0.497033
-2.61865
0.128471
-0.838582
0.291875
-5.62493
-3.52663
-1.20434
-2.31141
2.08248
0.984825
-0.738524
-1.14467
-1.61437
-1.80008
-2.81627
-3.78686
-4.01566
-1.53687
-0.307703
-0.52086
-1.70673
-1.6115
-1.02509
-1.44652
-1.02778
-2.6559
-0.714027
-1.40911
1.84413
-1.07802
-3.06348
0.973009
-1.7997
-1.31843
-0.822633
-0.47866
-1.79719
-0.964788
-1.61379
0.139164
-0.183504
1.23759
1.41338
0.16587
-0.480037
-0.149236
-1.04845
-4.45981
-0.840721
-3.12399
-1.05629
1.12007
1.73044
1.0247
-2.6134
-1.91336
-0.849849
-1.07461
-2.44931
0.694468
-3.10355
1.16264
-0.427779
-2.16212
-2.43609
-3.65454
-3.16683
-1.30678
-0.12406
-0.701553
0.930929
-0.221869
-0.335436
-0.34779
-2.73812
-1.94989
-0.392031
-0.0600442
-0.711607
-0.810208
-0.172533
0.931273
-1.53694
-0.0581421
-1.65195
-2.09401
-0.980732
0.855927
0.815513
1.04293
-0.833322
0.672907
-0.158656
0.652729
-2.25813
1.56557
0.416243
-2.04242
-1.37361
-0.451746
-0.720503
1.20015
1.60167
0.534717
0.170283
0.246509
0.0513776
-1.85646
1.2832
-2.36089
0.921976
1.21638
-1.2402
0.346635
1.22597
-2.28243
0.844035
-0.231733
-2.99907
0.598796
3.98074e-05
-0.545249
1.28304
-1.39
-1.43446
-6.23972
-2.79457
-2.98754
-2.69132
-0.809888
-2.37137
0.625117
-0.841255
-2.94208
-3.48461
-2.20099
-3.75058
-2.84145
-4.52684
-0.768718
-2.05371
-4.04369
-0.063341
-2.9845
-4.93403
-4.4386
-0.291888
-2.81566
-0.22799
-0.801779
-0.265882
-1.51251
-0.0298208
-0.937824
0.112697
0.398103
-1.23889
0.0976476
0.35095
-0.642867
-1.73208
-0.100337
-2.34332
-0.478932
-1.40813
-2.8274
-3.63789
-0.448033
-0.938501
0.273873
-0.670679
-0.783493
0.0972073
-1.04784
-1.97567
-0.836442
-0.912679
0.367827
-2.82508
-0.396967
-1.00792
1.16762
-1.36755
-1.86362
-2.54618
-2.14936
-3.699
0.960266
-3.23618
-0.24084
-0.713338
-0.726646
-1.82437
-3.60613
-2.59629
-4.14419
-3.57575
-0.882569
-0.947883
-0.864784
0.181712
-1.66848
-2.06496
-0.625943
-3.40641
0.086219
-2.05651
-0.164776
0.26
-1.98802
-0.718717
0.756969
-1.74592
-0.666479
-2.07516
-1.14197
-0.440547
-1.7649
0.547077
-0.569083
-1.82176
1.22398
0.0789481
1.35872
-1.61061
-2.7588
0.185001
-0.508951
-0.745595
-0.992497
-0.906527
0.55385
-0.986345
-1.51493
0.927752
-2.82543
-1.85263
-0.912371
-0.461875
-2.40223
-1.07512
0.723865
1.29211
-1.9641
-0.540131
-3.01662
1.35303
-2.14271
-0.346891
0.971016
1.15303
-0.968814
-1.71382
-1.55067
-3.87624
0.0627279
1.236
1.20374
-3.14325
-0.139212
-0.0999517
-1.83797
-3.75297
-0.772141
-0.229192
-1.26092
-1.91827
0.99469
-3.32581
1.41697
-1.1803
-1.5642
-0.328525
-1.91417
0.712797
0.357225
0.0654832
-1.33999
0.318235
-1.72162
-0.354648
1.91521
1.45688
-0.430185
-1.38128
-6.3048
-4.21699
-5.10274
-1.74607
-0.0716973
-2.91534
-1.96803
-2.00278
-3.37262
-4.8997
-2.15475
-1.86513
-1.81594
-3.93322
-0.702539
-0.0620829
1.22517
-2.27508
-1.74214
-4.2088
-4.33353
-3.35476
-3.51697
0.351435
-3.23421
-1.4446
0.280233
-2.07096
-1.17367
-2.98544
-4.98021
-3.03575
-1.2786
0.261241
-2.15502
0.734621
-1.18406
-0.131059
-1.95702
-1.98016
-2.76419
-1.43452
-0.911806
-0.272379
-0.722135
-2.31054
-3.40794
-1.29264
-1.0664
-3.34222
-4.03321
-2.36966
-2.5581
-1.13425
0.340897
-1.57367
-1.49117
0.578935
-2.72316
-1.71855
-3.14426
-2.15782
-1.36117
0.054815
0.018873
-0.505961
0.99191
-0.691826
-0.712728
-1.40409
-1.81992
-2.40803
0.561217
-1.27099
-1.96358
-1.60053
-0.852271
1.1473
-1.64472
-1.93858
-1.5506
-2.47727
-3.07481
-1.68614
-1.03307
1.51494
0.170448
1.48409
-0.140131
-0.546111
-2.35763
-2.01057
-2.61553
-0.0627031
-1.01049
-2.7706
1.69487
-0.787476
-1.29684
-3.34697
-1.31652
-1.29654
-0.0763471
-0.44691
0.132972
-0.456276
-0.805728
-1.56058
-1.9099
-1.56626
-0.575141
1.30937
0.163477
0.506522
0.588448
0.120304
-0.240258
-0.42459
-1.96908
-2.60414
-2.11578
0.400698
0.47071
0.747561
-2.70919
-1.18207
-1.28328
0.369877
1.36899
-0.798254
-0.15188
-1.84782
0.0175883
-0.668785
-0.0669891
0.442439
-1.41508
-0.629842
-1.06199
-0.749197
0.702714
0.270185
0.687602
-0.807639
-2.96608
-2.38752
2.8121
-1.1794
-1.28693
0.170661
-1.00605
-0.62863
-1.08857
0.41573
1.93953
2.12279
-2.09625
0.807156
-2.72738
-0.448137
-4.93991
-2.58609
-2.0819
-3.40391
1.01678
-1.38097
0.879172
-0.0257004
-1.54971
-4.89792
-0.529349
-1.35907
-5.10144
-1.07416
-1.52619
0.460796
-0.0219425
-2.87432
-3.26214
-3.75514
-4.98152
-0.824445
-2.98135
-0.0874681
-2.73878
0.168588
-1.69133
-0.25646
-1.54734
-0.122509
0.247572
-4.1269
-0.303581
-2.37041
0.229351
-1.07667
-0.503972
-2.57927
0.123296
-3.09155
-4.65222
-1.72666
-2.62174
-2.58162
-0.656617
-2.2036
-2.19666
-1.14487
-1.48725
-0.981001
-1.51313
-0.996628
-1.18306
1.29023
-1.31469
0.398521
-1.6085
-2.76516
-2.42704
-2.48374
-4.29366
-2.8945
-2.01639
-1.8684
-0.465582
-0.208117
0.113956
-2.03233
-1.84953
-2.99883
-1.36424
0.00992907
-1.94435
-0.669387
-0.497359
-0.217166
-1.03278
-0.69895
-1.66424
-2.40775
0.746828
0.833865
-0.391237
-2.01217
-0.410887
2.04125
-1.60508
0.045731
-0.770922
-2.38278
0.497411
-1.81554
-1.17206
-0.173881
1.46828
1.6331
0.638944
-0.407006
-1.60027
-2.36903
0.0872998
-0.698513
-0.723413
-1.17974
-2.9524
3.25781
0.600519
-1.00101
0.0331193
-0.912814
0.393252
-1.58118
-0.766598
-0.832586
-1.68107
1.16569
0.840671
-0.361137
-1.1483
-3.09519
0.0772992
-2.19989
-3.44829
0.617283
-1.51328
-0.921909
-0.740852
0.705118
-1.11345
1.25455
-0.703331
-1.10763
0.358978
1.1025
0.409181
0.732674
-0.302587
-0.319521
-1.17264
0.137712
1.15298
1.00553
-0.729749
1.36844
0.754634
0.0957846
3.67188
1.44003
1.25232
-1.55683
0.333271
-1.52023
-0.134986
0.217518
0.585768
1.22879
-0.717195
1.89623
-0.0350493
-0.493216
-4.94875
-5.55602
-3.50584
-1.50256
-0.790676
-2.54491
-1.36328
-0.911357
-1.93457
-2.25049
-3.11478
-0.712462
-2.40361
-5.90098
-2.49555
-0.682205
0.678473
-3.2608
-2.72668
-4.94797
-3.68332
-2.54846
-0.935055
-0.691699
-0.532463
0.751719
0.535292
-1.12202
-0.0106028
-2.14092
-1.20488
-1.01125
-1.41861
-0.887215
0.297527
-0.784659
-0.515815
-0.487296
-1.5224
0.0927473
-0.664403
-3.77548
-2.67575
-1.30336
0.139886
1.56344
1.03345
-0.469788
-1.30002
-0.964292
-0.676248
0.424818
-0.19313
-2.39433
-0.696995
-0.139013
-0.119415
-0.227571
-1.36018
0.318365
-0.304921
-0.265652
-2.28978
-0.332621
-1.21446
-0.335574
-0.750109
0.987921
-2.03337
0.862701
-2.61925
-0.139079
-3.97914
1.60305
1.56738
1.57564
-0.0536166
0.204192
0.323649
-2.02344
0.417709
-1.39486
0.0751588
0.782238
-2.64561
0.166005
1.37307
0.958594
0.298247
-0.635163
-1.102
-0.262764
0.5622
1.00437
0.398786
-3.00621
1.1095
0.397326
-2.33825
-3.54395
-4.44364
-1.607
-0.75011
2.59515
0.267124
0.691564
-2.22232
-0.791752
0.757645
0.0467908
0.961952
-2.42574
-2.05761
0.00818003
0.671513
2.49703
-0.409844
-2.0546
-0.912177
0.218223
-1.5457
-2.76173
-0.799832
-1.59828
1.29157
-1.1657
-2.83394
-1.75403
1.25236
-0.667517
-0.150462
-0.0710133
1.36796
-1.92141
-1.04339
-0.257116
-0.364887
1.36276
-0.585787
0.696114
-0.645985
2.2073
0.186304
-0.876555
2.00093
-0.739609
-0.455139
1.28094
2.80866
0.457914
-0.0976316
-0.512305
-1.15121
3.24888
0.438966
0.316551
0.168388
0.723438
0.167612
-0.48936
-3.03633
-2.08862
-2.19745
-1.17828
0.338597
-2.02056
-0.0844941
-0.661437
0.315971
-3.01226
-2.032
-1.05532
0.86048
-0.91737
0.847369
-0.142179
0.101253
-0.607068
-1.35766
-1.99342
-2.16685
-0.300552
-1.05067
-0.495719
0.0170446
-0.253396
0.528886
-0.521097
-0.746239
0.061567
-0.248534
-0.221438
0.265464
-0.923192
-0.204053
1.37556
0.460794
-1.16438
-0.0105311
-1.11678
-1.61843
-2.80922
-0.296726
-0.142615
1.48812
0.277283
1.40548
-1.13865
0.972839
1.58013
-0.999619
0.590617
-0.0362224
1.07289
-0.678997
1.15848
-0.843362
-0.86264
-1.52047
-2.07404
0.167247
-2.23297
-1.78685
-1.40508
0.00767821
1.38809
1.61089
0.0204082
0.208074
0.530687
-2.59293
0.358848
-0.354644
1.71546
1.03269
-2.17539
0.231544
-0.046755
-0.983561
0.0370165
-4.20601
-1.41758
-1.17455
-1.53489
0.81805
1.35117
-0.196311
-2.9542
-0.320146
-1.11309
-1.55111
-1.92278
0.261385
0.758037
1.44975
0.278497
-1.44876
-1.81289
-1.27701
-2.22825
-2.11868
-1.64684
1.37768
0.437667
-0.916067
0.911308
-0.390006
-3.64455
-0.929756
0.949274
0.0237741
-0.718785
-1.90874
-1.2995
-0.430569
-0.0493735
-0.0925621
-0.0450603
-1.3548
-1.13281
0.258136
-0.546804
-1.23289
0.798679
-0.805679
0.111391
-0.88693
-2.1002
0.80997
1.11626
-0.551808
0.796999
0.042713
-0.139663
1.13057
0.298914
0.923951
-0.795228
1.08341
-0.692855
-0.973942
0.245542
-0.228079
0.23248
-1.40354
0.259522
-1.81671
-1.52848
3.77516
-1.24067
-2.75736
0.893177
-0.713532
-0.941209
0.131414
0.564351
-1.44886
-0.404387
-1.59759
-0.27735
-2.51706
-2.15735
-3.4684
-0.318749
-0.951627
0.0396182
1.44587
-0.186398
1.9869
1.53153
0.828064
-1.79947
0.0275367
0.203157
-0.366096
-1.00651
1.57563
-1.15361
0.346909
-0.873078
-3.12188
-2.60355
0.278471
-0.141236
-0.0254902
0.712099
-0.487221
0.766023
-0.208113
-1.94182
1.4618
2.06116
1.11471
-0.052116
2.53345
0.453935
-0.561882
0.808938
-0.507378
-1.27206
-2.21768
-1.29209
-2.32511
-1.93361
3.09483
1.91864
-1.18627
-0.713298
0.973499
-0.594519
-0.847812
-2.07008
0.0342835
0.869348
-0.100129
0.0245081
-0.0207274
0.506312
0.607306
-1.08229
-2.99543
-3.21717
-0.681538
1.19893
-0.21769
1.63179
0.717461
1.34427
0.0829735
-0.125093
-0.0088314
0.373961
-0.41474
1.09004
-0.614505
2.28866
0.625681
-0.825387
1.01026
-0.868397
-3.0842
-1.25223
0.111477
-2.47952
1.35168
-0.402208
0.952106
-0.873423
-1.1073
-0.335827
0.800978
1.62664
0.86882
0.293102
1.2432
-0.737993
0.519029
1.4398
-3.31282
-2.0877
0.327139
-1.4885
-1.03479
-2.24873
1.23226
3.44525
0.596546
-0.426853
1.21835
-2.41492
-0.184619
-2.09619
-1.42139
-2.17853
-1.54017
-2.48913
-1.0648
1.38684
-1.91986
-1.03884
-0.51409
1.29669
-0.565668
2.68414
-0.195291
1.98357
1.32981
0.519535
-0.452589
-1.06366
-0.09804
-0.395533
0.673907
1.70464
2.059
-0.16846
-2.06881
-0.917855
-2.39294
-0.524135
1.39306
1.14675
-0.739162
-0.709199
-1.15184
0.430524
-3.11042
0.78606
-2.57251
-0.323973
0.137186
-0.0307272
0.772222
-1.62565
1.51888
3.13421
-0.462796
1.39188
0.853506
-1.36798
-2.40979
-1.13643
1.28131
0.00846821
2.89387
0.272483
3.71755
-1.23699
2.01914
3.63824
2.95764
0.127489
1.68733
0.779036
2.26069
1.66351
3.53362
-0.23148
-1.3246
-0.492184
-2.6841
0.906556
-1.81044
0.189425
-0.902669
0.272288
3.321
0.0616589
1.74115
-0.418814
-0.0441603
-0.036191
0.213389
2.77601
0.487674
0.188464
-0.0974657
1.97454
-0.668183
-2.0669
-0.69931
-0.877353
-0.730872
-0.0145688
1.82283
1.40042
1.11169
0.971012
2.00099
-0.337686
2.07958
2.09287
0.854636
2.44519
2.54828
0.787535
2.36366
1.26124
0.440593
0.534433
-0.138396
-2.96518
-1.14569
2.00623
0.486071
2.05958
-0.37769
-1.33259
2.32194
-1.12659
1.50375
1.10139
-1.49544
2.22766
1.93317
-2.13462
1.64796
1.58465
0.275876
-2.37096
-0.770092
-1.35637
-0.107807
-0.133342
3.84491
0.234021
1.30819
-1.28308
0.0305311
-0.978847
-0.599089
1.82485
-0.216307
0.216609
1.26787
-1.22257
0.184392
0.562715
2.17929
-0.845091
0.117597
0.589763
0.609845
0.154652
2.50657
-0.0411169
0.583094
1.51029
1.33521
1.4836
-0.640204
1.21701
2.44352
2.2202
-1.75697
0.770137
0.297763
-0.848485
2.80875
-2.06976
-0.885493
1.21599
-0.0843153
-0.932522
2.3094
-1.95868
-0.0789956
-0.379464
-1.39574
0.923484
1.79494
-0.86772
1.17835
-1.60753
1.92468
-0.772198
-0.150659
-2.74789
0.714924
-0.708574
0.265461
1.78311
-1.82452
0.35613
-2.21502
-0.604612
0.367522
-0.644324
-0.873535
-0.243061
-1.20289
-1.68858
-1.12772
1.0196
0.466211
-0.289441
0.462365
2.77036
2.24131
-0.170329
-2.66477
-0.708702
0.613403
2.3444
1.3407
1.91321
4.30947
1.54069
2.87224
1.48776
1.90467
2.1501
1.93914
2.25753
5.10545
2.51689
1.05979
2.4716
0.689598
0.233355
-1.02567
-1.61423
1.88347
-0.214462
2.56694
-0.552065
2.98633
3.20357
2.63941
2.49703
3.33107
4.02147
4.50968
2.74185
3.11967
-0.0988545
4.11526
2.33081
3.45336
0.149251
-1.51839
0.396795
0.825445
2.14505
3.23569
1.62151
2.19118
1.37902
2.3947
-0.656609
2.27347
0.998548
1.17748
1.49065
2.09451
0.919369
4.59422
2.13792
1.42033
-0.296591
-1.88474
1.45453
0.648284
1.63995
1.54754
1.7336
1.27052
3.02006
3.249
2.81305
2.72868
2.51749
1.19718
-0.231539
0.950966
1.33865
1.25927
2.16946
3.26155
-0.762374
-1.66277
1.23785
-1.34691
2.14865
3.16582
2.24946
2.78532
2.22731
-0.393071
-0.891488
-0.0674701
2.26573
0.225903
1.36596
0.527106
0.620953
0.812167
0.720675
0.939734
-0.653675
-1.77771
1.40131
0.136242
0.796335
1.12281
0.636591
2.31275
1.97116
1.30569
-0.774612
-0.40583
1.27619
1.33036
1.82867
0.541403
-0.365454
1.5306
1.18861
1.35005
-0.517221
0.0598259
-1.75543
0.396609
-0.641861
1.41421
-0.248673
0.129241
0.921423
0.640496
0.542965
-1.11049
0.416611
0.785123
-0.068463
2.77314
0.734676
0.775489
-0.286149
-0.568144
-1.77293
0.0120312
-1.54848
0.460549
0.426546
-1.00798
-1.45414
0.270892
1.09833
1.49157
0.441782
0.259516
1.70907
0.312292
-0.264358
1.19253
0.0645957
1.07041
-1.10289
0.6146
0.223817
-1.54436
3.01914
2.61857
1.57103
3.88586
3.75518
4.23623
2.76728
4.21968
6.24649
2.96974
5.01329
2.88751
3.45099
1.37115
4.63471
3.01902
3.64358
0.9181
1.29132
0.0888988
-0.261027
1.99939
-0.18456
3.97739
0.212034
4.41132
0.955027
4.21791
0.532506
-0.113146
0.692792
-0.0593394
2.48803
1.01004
2.50495
0.702583
5.3648
0.267977
-0.913948
1.74796
-0.107752
2.4646
-0.240531
2.22873
2.52577
2.84294
1.98811
2.5825
3.21708
2.35726
1.91948
3.05551
1.84669
4.9821
4.84259
3.9314
3.27125
2.0415
0.803571
-0.00736511
0.0290745
-0.290542
2.02751
1.77665
1.7699
3.79736
2.325
1.86977
3.37898
0.320659
1.52949
0.281539
1.81418
2.63825
1.07838
3.5795
2.96506
0.316268
-0.80958
1.04974
-0.187159
-0.0289953
3.1995
1.10844
-0.755677
3.34592
-0.0617366
3.23881
2.58974
2.44555
0.603484
2.48299
1.03594
1.06199
0.388695
1.15092
2.55331
-1.50818
1.62775
-0.806368
-0.805675
-0.808772
1.3128
-0.770523
1.6785
4.20287
0.694621
-0.196714
1.81155
0.0902156
0.616448
-0.18854
-1.1085
1.86939
0.325671
0.145754
-1.44784
-0.189657
-0.0342721
0.478652
-0.694245
0.336116
-0.558601
0.503766
2.15995
0.297481
2.33436
1.45587
0.937043
2.2838
-1.3605
-0.329567
1.01118
0.389947
-0.378251
0.22659
3.65192
0.901888
-0.549627
0.0317365
1.0489
0.742686
-0.57116
-2.75897
0.705091
1.94219
-2.50362
-1.00914
-0.757098
1.53295
-0.424489
0.645701
1.46273
-0.126306
1.40767
-2.07537
-0.0489421
-1.81668
-1.68433
-1.12869
0.983631
4.68657
3.24241
5.72423
5.08916
6.26225
6.23068
5.24268
6.40047
4.69894
7.07228
6.33144
4.69487
4.6308
2.51416
5.13588
3.68137
4.01268
1.86323
-1.60531
3.65483
3.38835
4.38657
2.94143
4.87776
5.69241
2.89938
5.01523
4.62919
4.58899
3.11057
4.21705
6.99925
4.59684
5.85447
5.33603
3.38477
1.68665
1.97094
-0.0224896
0.983955
2.46185
2.92041
2.37414
5.24705
0.918455
3.97637
2.20151
2.11619
6.54328
3.01355
4.63511
2.59905
2.28045
5.5633
2.93152
3.57748
3.22547
1.01271
-0.179399
2.35213
1.24065
3.4668
4.00614
4.62599
3.71369
3.23643
2.04979
3.84078
1.80138
0.660603
5.2746
4.69594
3.93063
3.67239
2.76509
1.931
2.49551
2.91554
-0.333729
-2.0767
0.9196
1.74294
3.03631
3.35642
2.84767
2.55846
2.73434
3.7485
3.312
1.80953
2.36221
2.72128
3.3252
1.10947
4.63508
3.19991
1.93956
-1.73647
0.464711
-0.231616
1.00317
3.33398
1.81681
1.75044
0.366331
0.0454935
2.43658
4.31027
2.98753
2.19276
-0.170327
0.309385
2.00133
2.42656
1.18555
1.81708
0.857473
2.19976
1.0054
-0.582303
1.63133
0.482879
-0.577929
0.449444
-0.00105215
0.591342
0.987646
-1.09308
2.73491
1.38055
1.68047
0.838959
1.98854
1.57002
1.20927
-0.36736
-1.01129
0.570821
-0.19989
0.377811
-0.13566
0.300365
-0.781169
-1.92566
-1.29625
-0.326951
2.29274
0.927601
1.44721
0.154754
-0.116399
1.14361
-0.275443
0.682137
1.25519
-0.0923906
-0.312542
1.92023
)
;

boundaryField
{
    hotSide
    {
        type            calculated;
        value           nonuniform List<scalar> 
400
(
-1.94166
-0.156532
-0.890885
0.193409
-1.77886
-1.49193
-4.71177
-2.19298
-2.42897
-4.76914
-4.76017
-4.78558
-3.3767
-3.33712
-1.37176
-0.794967
-0.62551
-0.813609
0.378445
0.870536
1.36132
0.28985
0.684252
-0.55588
-2.44547
-1.18735
-0.93211
-2.99815
-4.28058
-2.70746
-1.29
-2.67446
-1.00124
-3.92435
-0.405567
-0.418229
0.663493
1.15682
4.95511
2.99492
2.61765
2.08469
3.79896
2.02962
1.76577
3.44729
0.713843
-0.196126
-0.544622
1.35711
-1.45687
-3.53603
-0.474721
-1.85364
-0.495545
-1.71203
3.09701
2.49332
4.56767
6.70981
2.75594