/*--------------------------------*- C++ -*----------------------------------*\
| =========                 |                                                 |
| \\      /  F ield         | OpenFOAM: The Open Source CFD Toolbox           |
|  \\    /   O peration     | Version:  2212                                  |
|   \\  /    A nd           | Website:  www.openfoam.com                      |
|    \\/     M anipulation  |                                                 |
\*---------------------------------------------------------------------------*/
FoamFile
{
    version     2.0;
    format      ascii;
    arch        "LSB;label=32;scalar=64";
    class       volScalarField;
    location    "0";
    object      relativeErrorField;
}
// * * * * * * * * * * * * * * * * * * * * * * * * * * * * * * * * * * * * * //

dimensions      [0 0 0 1 0 0 0];

internalField   nonuniform List<scalar> 
3200
(
0.00924436
8.75359e-05
0.00354839
0.00381132
0.00691098
0.0105755
0.00849616
0.00562304
0.0064397
0.0151589
0.00540496
0.0115259
0.00715238
0.00913498
0.0168335
0.0121073
0.00850113
0.014761
0.0094159
0.00404706
0.0101092
0.00176524
0.004061
0.00935813
0.00977407
0.0104112
0.00685239
0.00740806
0.00752123
0.00493552
0.0129255
0.00948383
0.00926707
0.0136045
0.0133216
0.00671019
0.009046
0.00909606
0.00476
0.00405803
0.00711982
0.0040759
0.000290743
0.0056434
0.0159901
0.00645993
0.00954943
0.0119842
0.0104375
0.0114151
0.00613501
0.00230062
0.0122074
0.0133702
0.0125186
0.0101687
0.00951086
0.00756666
0.003226
0.00618
0.00119077
0.000883198
0.00440361
0.00278979
0.00827036
0.0104908
0.00454607
0.010353
0.00432434
0.0128415
0.0076563
0.00577255
0.0124838
0.0120254
0.00613974
0.000676237
0.00550178
0.00698305
0.00623219
0.000435744
0.000274655
0.0113737
0.00561992
0.00262971
0.0125165
0.00911477
0.00497426
0.00520024
0.00275688
0.00445718
0.00655787
0.00350902
0.00849193
0.00714705
0.0064029
0.000525045
0.0100357
0.00342543
0.00150866
0.00365376
0.0104783
0.0039466
0.00154323
0.00344964
0.00471335
0.0141572
0.00502321
0.00416004
0.00913138
0.00339327
0.000160461
0.0060423
0.0106651
0.00479549
0.00934363
0.00137325
0.00340619
0.000998385
0.0070734
0.00177331
0.00796976
0.00947698
0.00305386
0.00106348
0.0106195
0.0122402
0.000561225
0.00743713
0.00258701
0.00203539
0.00320493
0.000897537
0.00516682
0.00535524
0.00491761
0.00106068
0.00133089
0.00443572
0.000864639
0.00169114
0.000631008
0.0013036
0.00197651
0.00207494
0.00769373
0.00032291
0.00347972
0.00512877
0.0154305
0.00336933
0.00224757
0.00526182
0.00687085
0.00302658
0.00225718
0.00136626
0.00197323
0.00489577
0.00777924
0.000477641
0.00415033
0.00297549
0.00202351
0.0153663
0.00322397
0.0123256
0.0158175
0.00706499
0.00205422
0.00624743
0.0122083
0.014286
0.01477
0.00494364
0.0102101
0.0182756
0.0097247
0.00590987
0.00248582
0.000296685
0.00808133
4.07486e-05
0.00153094
0.000595278
0.00823386
0.00104847
0.0131181
0.00196085
0.00789123
9.19484e-05
0.0001073
0.0120982
0.000526928
0.013057
0.00211091
0.00375299
0.00116899
0.00278518
0.00111161
0.00143221
0.00871049
0.00844713
0.000312536
0.000398509
0.00619487
0.000446811
0.00412318
0.0062973
0.00541445
0.00489803
0.00257994
0.00700263
0.00788917
0.00470073
0.011302
0.0113639
0.0100011
0.0109496
0.00545219
0.00168089
0.00576008
0.00267389
0.00339443
0.00876534
0.00758105
0.0131803
0.012341
0.00662059
0.00325248
0.000468124
0.0116997
0.00603099
0.00773929
0.0117888
0.00455374
0.00380842
0.00749956
0.00833632
0.00328497
0.00118172
0.00627427
0.00583911
0.0102538
0.00694472
0.00482717
0.00949923
0.000151336
0.00695386
0.000136096
0.00174216
0.00523059
0.00267972
0.00413689
0.0041956
0.0157452
0.00447112
0.00616754
0.00188347
0.000867268
0.00318052
0.00229508
4.95504e-05
0.00145165
0.006896
0.00498774
0.00437269
0.00144386
0.00129932
0.00965694
0.00837103
0.00363437
0.00226059
0.00340888
0.0105877
0.00762592
0.00463809
0.00393678
0.00507328
0.0106518
0.00912341
0.00781262
0.010839
0.00119569
0.003537
9.61864e-05
0.0072203
0.00164096
0.0073965
0.00105558
0.000887278
0.00487087
0.00733336
0.0031435
0.00343528
0.0019042
0.00230981
0.00563722
0.00584819
0.00166994
0.00485703
0.0054965
0.0031435
0.00343481
0.00130906
0.00108621
0.000594783
0.00454879
0.00691258
0.0112396
0.00022405
0.00335207
0.0072957
0.00455574
0.00373255
0.000670788
0.000580721
0.00102694
0.00343312
0.00216416
0.00230322
0.00625962
0.00186567
0.00687929
0.0087091
0.00222997
0.00768678
0.0108013
0.00308986
0.00248049
0.00238057
0.00419084
0.00305785
0.0140484
0.00122339
0.00815778
0.0135149
0.0066534
0.00802652
0.00395157
0.000390458
0.012973
0.010066
0.00472191
0.00431605
0.00874312
0.00240193
0.00376512
0.011378
0.0115792
0.0135912
0.00224121
0.00738042
0.00932613
0.00527888
0.0161056
0.0119875
0.00622097
0.00736317
0.00287253
0.00648333
0.0094956
0.00886686
0.00169353
0.00304843
0.00152852
0.00285819
0.0100327
0.00403044
0.00065888
0.00405955
0.00315085
0.00275455
0.00820542
0.00916271
0.00670445
0.0115562
0.00125454
0.00610802
0.00143673
0.00227122
0.00611303
0.000506996
0.00207783
0.00322029
0.00591013
0.000419362
0.00569024
0.0108762
0.00277218
0.00251966
0.0130537
0.00740553
0.00468942
0.00736478
0.000448313
0.0174008
0.00231297
0.002541
0.000863214
0.00289131
0.00260172
0.00285682
0.00149728
0.00417299
0.00770013
0.0167536
0.00404238
0.00396291
0.00562492
0.000348135
0.00349924
0.0119829
0.000303753
0.00186565
0.00749019
0.00158902
0.00621617
0.0043382
0.00749561
0.00395739
0.00340007
0.000269573
0.0098298
0.000163521
0.00524008
0.00357377
0.00342525
0.00625
0.00231636
0.00167622
0.00560396
0.00249924
0.00214496
0.00889661
0.00366906
6.21944e-05
0.00909436
0.00449437
0.00390079
0.00117992
0.00495842
0.00131701
0.00495507
0.00336566
0.00464411
0.00150267
0.000316612
0.00846152
0.00241561
0.00354147
0.00192166
0.00253589
0.000690568
0.0102606
0.00502746
0.00314406
0.00602509
0.000714377
0.000219698
0.00163267
0.00215555
0.00215673
0.00533637
0.00432002
0.00360253
0.00280792
0.00347403
0.000883261
0.00238493
0.00253531
0.000421872
0.00585823
0.00314369
0.00290513
0.00100694
0.00393281
0.00285035
0.000166103
0.00269291
0.00221812
0.00318845
0.00541507
0.00182616
0.00143603
0.00397477
0.00971919
0.00594246
0.00284417
0.0074697
0.00747604
0.00738961
0.00434567
0.00348039
0.0082193
0.00433263
0.00975882
0.0110817
0.00855213
0.00417464
0.000167796
0.00664682
9.22613e-05
0.00251223
0.000885022
0.00481532
6.63235e-05
0.00539789
0.0020296
0.00838007
0.000216034
0.000171124
0.00350962
0.000971183
0.000323772
8.22245e-05
0.00669623
0.0010204
0.011997
0.00243174
0.00285934
0.00280041
0.0012456
0.0027396
0.00302071
0.00476522
0.00789606
0.00925757
0.00319708
0.00350524
0.000134668
0.00167407
0.00792534
0.00551006
0.00701457
0.0019757
0.00975535
0.00851633
0.00594111
0.00239605
1.76351e-05
0.00649963
0.00373266
0.000654477
0.00105878
0.00577015
0.0066972
0.0100231
0.00347938
0.00993837
0.000658237
0.0150026
0.00356392
0.00867891
5.11987e-05
0.00420833
0.00478722
0.00754168
0.000256075
0.000921641
0.000700861
0.00537274
0.00397308
0.00414718
0.0012506
8.50373e-06
0.00408489
0.00765072
0.00259683
0.00725025
0.00523684
0.00249995
0.00163691
0.00864221
0.00609935
0.00560602
0.00468076
0.00437225
0.00420703
0.00129074
0.000272647
0.00028967
0.0034718
0.00105335
0.00396822
0.00149939
0.0112737
0.00650417
0.00149381
0.000398875
0.00025484
0.00266738
0.00470696
0.000393521
0.00121944
0.00907355
0.00738451
0.00113903
0.00555753
0.00156128
0.000780744
0.00339053
0.00162182
0.000620759
0.000664408
0.00285186
0.00498976
0.00601261
0.000309236
0.00161822
0.0051471
5.82732e-05
0.00229401
0.0044297
0.00245635
0.00308699
0.00433643
0.000233576
0.00183173
0.00825542
0.00173647
0.00181338
0.00642089
0.00108656
0.00148761
0.00499408
0.00130547
0.00593172
0.0022764
0.0034405
0.000747029
0.00113239
0.00853979
0.00611554
0.00129818
0.00348778
0.00712831
0.00396813
0.00230011
0.000273862
0.00243553
0.00882671
0.0108022
0.00104537
0.00194787
0.00685913
0.00331259
0.0021882
0.00450698
0.0058536
0.000574065
0.00082112
0.000229133
0.00470279
0.00109743
0.00325514
0.00222571
0.00622674
0.00732809
0.00401746
0.0060498
0.00506819
0.00634926
0.00661673
0.00331017
0.00248206
0.00258048
0.00500467
0.00326511
0.00644792
0.00158019
0.000726118
0.000250855
0.00183279
0.000124975
0.00311401
0.00722589
0.00953577
0.00784132
0.000541941
0.00320169
0.0025766
0.00337442
0.00448376
0.000166925
0.00465489
0.00135971
0.00301824
0.00744612
0.00349746
0.00286892
0.00127874
0.00407266
0.00990572
0.00485062
0.00873291
0.00405756
0.00139257
0.000400351
0.00100703
0.00100858
0.0112249
0.0022934
0.00687744
0.0111512
0.00642761
0.00520871
0.00411982
0.00472876
0.0102449
0.000781494
0.00327437
0.00242606
0.000911356
0.00392278
0.00787006
0.00552557
0.00689982
0.00535174
0.00607771
0.00342295
0.00827209
0.00813766
0.00341227
0.000122255
0.00541768
0.00569389
2.09491e-05
0.000867949
0.00145036
0.00297035
0.00117208
0.00188005
0.001836
0.00163909
0.00565387
0.00284549
0.00245748
0.00382683
0.00296405
0.00324469
0.00152852
0.000887569
0.00733218
0.00591019
0.00597087
0.000201624
0.00849944
0.00323917
0.000305876
0.00168983
0.00790554
8.66686e-05
0.00136128
0.00382811
0.00736708
0.00482258
0.00392429
0.00298531
0.00237489
0.00515443
0.0020973
0.00126423
0.00835796
0.00731655
0.00268589
0.0127989
0.0038461
0.00177545
0.000517654
0.00127324
0.00382015
0.00398215
0.00255664
0.00497491
0.00799394
0.00295427
0.0029524
0.00575516
0.00419712
0.00469174
0.00660174
0.00650856
0.00264784
0.0030964
0.00311868
0.000728417
0.00584491
0.000499303
0.00199907
0.00596017
0.000749295
0.00169705
8.02243e-05
0.00450242
0.00176546
0.0046397
0.000128735
0.00783294
0.00353357
0.00925158
0.00803732
0.00725595
0.00575696
0.000244743
0.00223286
0.00228531
0.00355678
0.000355434
0.000432249
0.00211876
0.00359472
0.00192911
0.00610627
0.00166458
0.010654
0.00301452
0.00049315
0.00477586
0.00274908
0.0108281
0.0107308
0.000599605
0.00429552
0.0013923
0.00497396
0.00248479
0.00167891
0.00146121
0.00202271
0.00144948
0.00135825
0.00054717
0.000121418
0.0067511
0.0023947
0.00737071
0.00198387
0.0057127
0.00159403
0.00349414
0.0136485
0.00574136
0.00553218
0.00587162
0.00313439
0.00883677
0.00359234
0.00186374
0.00917283
0.00386009
0.00700175
0.00248863
0.00171613
0.0049678
0.00195751
0.00318575
0.00526866
0.0023116
0.00214674
0.00304136
0.00505717
0.00461572
0.0047569
0.000430498
0.000706075
0.0016676
3.94813e-05
0.00156494
0.00574463
0.00347664
0.00133514
0.00394956
0.000232025
0.00840238
0.00416236
0.00192792
0.0040432
0.0096077
0.00302521
0.00333887
0.00345465
0.00306621
0.00180127
0.00378404
0.00656509
7.52106e-05
0.00279194
0.00715772
0.00135003
0.000565561
0.00592441
0.000402814
0.0017503
0.000707015
0.00627145
0.00465688
0.00629128
0.00825264
0.00233861
0.0023094
0.00302526
0.000481135
0.000351647
0.000607079
0.00247415
2.01488e-05
0.00476851
0.00143046
0.000690834
0.000160084
0.00254927
0.0016289
5.08343e-05
0.00203219
0.00380566
0.00434241
0.00346124
0.000266577
0.000550728
0.00792863
0.00434628
0.00323097
0.000774286
0.00193939
0.0150227
0.00301441
0.00721521
0.00389333
0.00313909
0.00198663
0.000246976
0.00169907
0.000617668
4.12045e-05
0.00192351
0.00122499
0.00212918
0.00425058
0.0054499
0.00206278
0.0003317
0.00494501
0.00310713
0.00290098
0.00144118
0.00435544
7.84572e-05
0.00537593
0.00179099
0.0019363
0.00244779
0.00403603
0.00554196
0.000398451
0.00268763
0.00202259
0.00205773
0.0029693
0.00515843
0.00201696
0.0171745
0.00656617
0.00201014
0.00154997
0.00180931
0.00170861
0.00118981
0.00214171
0.0048324
0.00172671
0.00695913
0.00247261
0.00687412
0.00219223
0.000237215
0.00158761
0.00259694
0.00356487
0.000439486
0.00341188
0.00931804
0.00436389
0.0076681
0.000423619
0.00448494
0.00253432
0.00269272
0.00230145
0.00419281
0.00618477
0.00417098
0.00936615
0.00411671
0.000491492
0.00448825
0.0026491
0.00375542
0.00640022
0.00329061
0.000281312
0.00770724
0.0068005
0.00732482
0.000707125
0.000966141
0.000576415
0.0037569
0.00336227
0.000117328
0.00261321
0.00434593
0.00747588
0.00330187
0.00335646
0.00244382
0.00110466
0.00391473
0.00058945
0.00141169
0.0016047
0.00379047
0.0106277
0.000107264
0.00567306
0.00779713
0.000125946
0.00475637
0.00207873
0.00168548
0.00463423
0.00584385
0.00140769
0.0050512
0.00816239
0.00585343
0.000649221
0.00710796
0.0050337
0.00758345
0.00348408
0.00421492
0.00330538
0.0031989
0.00469714
0.00161532
0.00400736
0.00635068
0.00750533
0.00357133
0.000560129
0.000606543
0.00272928
0.00448068
3.63266e-05
0.0070945
0.00477703
0.00141083
0.000608445
0.00115752
0.00130418
0.00515113
0.000536835
0.00269968
0.000856593
0.00220065
0.000926471
0.00797831
0.00356133
0.00184186
0.00258864
6.47851e-05
0.00123957
0.00407596
0.00317624
0.00119214
0.00172551
0.000678101
0.00135618
0.00709865
0.00414933
0.00226213
0.0026861
0.00475753
4.43431e-05
0.00250837
0.000233553
0.000773427
0.00452897
0.000178725
0.00053111
0.00111367
0.00751809
0.0037508
0.00684546
0.0021876
0.00405606
0.00947526
0.00208475
0.00349522
0.00388377
0.00733678
0.00319223
0.00441079
0.00409554
0.00817958
0.000471468
0.00408918
0.00498823
0.000989282
0.00270059
0.00534918
0.00206844
0.0100559
2.11591e-05
0.00377898
0.00759908
0.0104107
0.00264181
0.00888538
0.0034293
0.0100832
0.0124193
0.00461622
0.000909957
0.00248287
0.0046586
0.00307996
0.000425744
0.00431044
0.00561957
0.00925706
0.00611906
0.00888682
0.0102876
0.000577604
0.0015385
0.00249129
0.00386848
0.00580532
0.00537011
0.0102545
0.000786365
0.00206994
0.000150058
0.00354226
0.000839402
0.00510774
0.00107872
0.00665265
0.000338707
0.00100651
0.0046126
0.00133866
0.00540109
0.00018618
0.00201613
0.000360118
0.00358096
0.000320071
0.00849878
0.00588277
0.00986121
0.000537691
0.00317861
0.000744758
0.00418309
0.00177758
0.0087038
0.000495121
0.00794515
0.00855406
0.00924145
0.001867
0.00250176
0.00396616
0.0102896
0.00335095
0.00823567
0.00402288
0.00790585
0.00180414
0.0109103
0.00184443
0.00587369
0.00318588
0.00140917
0.00217305
0.00538489
0.00486804
0.00282632
0.00319316
0.00451911
0.00227
0.00359578
0.0061514
0.000861402
0.00307186
0.000286457
0.0098451
0.000471785
0.0149994
0.00552607
0.000940099
0.000517605
0.00139755
0.000149386
0.000395389
0.000586522
0.00861742
0.0040861
0.00195102
0.00382623
0.0100625
0.000722693
0.00310986
0.000420954
0.000209863
0.000442288
0.00769972
0.00674072
0.00240744
0.00486481
0.00695174
0.00176696
0.00137842
0.00163704
0.00304572
0.00683704
0.00341652
0.0132199
0.00480765
0.00153288
0.00119975
0.00210362
0.00334516
0.00280172
0.00327186
0.00274621
0.0047065
0.00424345
0.000478141
0.00399833
2.80834e-05
0.0022852
0.000358858
0.00564519
0.000244157
0.00114414
0.00290427
0.000643572
0.00720748
0.00312707
0.00365048
0.00146094
0.00211166
0.000438249
0.00438107
0.0023
0.00682704
0.000593757
0.000925476
0.0015692
0.00483672
0.0017228
0.00364273
0.000535794
0.00054477
0.0021497
0.000260625
0.00612558
0.00491967
0.000487682
0.0016154
0.00478138
0.00538158
0.00536999
0.000238192
0.00155196
0.00255502
0.00571071
0.0107819
0.016037
0.00564048
0.00451513
0.0078509
0.00052811
0.000864753
0.00387888
0.00406749
0.0132737
0.0156926
0.00819084
0.00759236
0.00834848
0.0048322
0.00582914
0.0011193
0.00529699
0.00457038
0.0114515
0.0128437
0.00527081
0.00524472
0.00334255
0.000457165
0.00237944
0.00786736
0.00353966
0.0110938
0.00687473
0.00867494
0.00661241
0.00659296
0.00109163
0.00661879
0.00188233
0.000971192
0.00372578
0.00358164
0.0178354
0.0124385
0.0153195
0.0030892
0.00185738
0.00732338
0.000172197
0.000950862
0.00595886
0.00304367
0.00756479
0.000156483
0.00534808
0.00445954
0.003097
0.000799365
0.00696774
0.00405605
2.31115e-05
0.00368315
0.00619532
0.00546625
0.00359575
0.000841594
0.00280226
0.000704571
0.00175879
0.00488784
0.00528077
2.63352e-05
0.00269088
0.00729066
0.0106431
0.00478249
0.00561664
0.00180038
0.00424265
0.00185597
0.000676596
0.00469322
0.00404804
0.00842359
0.00825575
0.00103972
0.00504478
0.000143719
0.000105528
0.00849566
0.00498563
0.00164461
0.00513331
0.00358668
0.000105253
0.00142492
0.000688571
0.00261038
0.00234684
0.00207422
0.000400744
0.00647934
0.00716643
0.00018264
0.00935158
0.000420989
0.00340078
0.00139785
0.00685013
0.00280954
0.000403734
0.00583786
0.00441228
0.00293922
0.00300782
0.000263832
0.00205751
0.00405828
0.00642062
0.00183105
0.001061
0.00423118
0.00335328
0.0028118
0.00285974
0.00358223
0.00246774
0.00483715
0.00302771
0.00560396
0.00101559
0.00435448
0.00657083
0.00480454
0.00214441
0.00210834
0.00552981
0.00433095
0.00152038
0.00710445
0.0026964
0.00477451
0.00335625
0.0045927
0.00476226
0.000201258
0.00250426
0.000959903
0.00413106
0.00880115
0.000681074
0.00681149
0.00259576
0.00158632
0.000588621
0.00622764
0.000817502
0.0025466
0.00481464
0.000565142
0.000794388
0.00903728
0.0025286
0.0173588
0.0116589
0.000394977
0.00429888
0.00245135
0.000966747
0.00986951
0.00212091
0.00743717
0.013093
0.00740206
0.0101218
0.016169
0.00377925
0.0061519
0.00483265
0.00328648
0.00346398
0.00986087
0.00914866
0.0117528
0.000301526
0.0077998
0.00163526
0.00362524
0.000402974
0.00136508
9.75567e-06
0.0025489
0.000914463
0.00036311
0.0117223
0.00152032
0.000615804
0.00140963
0.00743696
0.000365386
0.00238848
0.000832465
0.0160603
0.0102957
0.00351276
0.00673387
0.00605935
0.00286194
0.00214363
0.00331895
0.00467675
0.00521145
0.00815082
0.0109599
0.0116258
0.00445222
0.000892179
0.00151184
0.00495982
0.00468893
0.00298641
0.00421913
0.00300052
0.00793231
0.00213097
0.00420128
0.00549252
0.0032074
0.00910557
0.00288949
0.00534054
0.00391035
0.00243919
0.00141927
0.0053303
0.00286297
0.00479238
0.000413638
0.000545973
0.00368602
0.00421399
0.000495028
0.00143372
0.000456244
0.00320341
0.0136158
0.00256458
0.00952163
0.00321693
0.00340873
0.00526322
0.00311535
0.00794372
0.00581588
0.00258377
0.00326848
0.00745405
0.002115
0.00945933
0.00354657
0.00130601
0.0066061
0.0074476
0.011443
0.00991164
0.00408766
0.00038783
0.00219181
0.00290675
0.000692405
0.00104637
0.00108458
0.00853746
0.00607974
0.00122255
0.000187305
0.00222077
0.00252981
0.000539034
0.00291129
0.00480763
0.000181975
0.00517255
0.00671941
0.00314622
0.00274488
0.00261429
0.00334205
0.00266942
0.00215486
0.000507932
0.00208929
0.00722726
0.00501069
0.00133234
0.00653874
0.00439873
0.0014471
0.00230885
0.00384734
0.0051364
0.00171539
0.000546415
0.00081115
0.000169045
0.00610747
0.00422099
0.00776499
0.00303201
0.00399972
0.0040777
0.00113964
0.00403052
0.00750374
0.00277495
0.000761922
0.00986164
0.0019692
1.30927e-07
0.00179356
0.004221
0.00457345
0.00472015
0.0173448
0.00775919
0.00828308
0.00745055
0.00223871
0.00654571
0.00172334
0.0023168
0.00809646
0.00958583
0.00605471
0.0103214
0.00782528
0.0124798
0.0021219
0.00567692
0.0111944
0.000175615
0.00828652
0.0137153
0.0126165
0.000828843
0.00798521
0.000645717
0.0022678
0.000751094
0.00426793
8.40698e-05
0.00264215
0.000317396
0.0011212
0.00349035
0.000275285
0.000990294
0.00181605
0.00489911
0.000284177
0.00664566
0.00135997
0.00400254
0.00822245
0.0105705
0.00130041
0.00272084
0.000793084
0.00194004
0.00226418
0.000280692
0.00302399
0.00569998
0.0024132
0.00263393
0.00106212
0.00816407
0.00114829
0.00291873
0.00338508
0.00396929
0.00541504
0.00740464
0.00639868
0.0110043
0.00285412
0.00960934
0.000714449
0.00211418
0.00215187
0.00539903
0.010667
0.00767794
0.0122555
0.0105771
0.00261188
0.00280704
0.00256303
0.000539045
0.00495429
0.00613752
0.00186214
0.0101409
0.000262908
0.00626749
0.000501814
0.000791199
0.00604507
0.00218385
0.00229858
0.00529877
0.00202197
0.0062944
0.00346382
0.00133653
0.00535637
0.00166123
0.00172918
0.0055395
0.00372468
0.000240431
0.0041409
0.00491125
0.00862197
0.000577946
0.00158913
0.00232671
0.00309544
0.00282581
0.00172563
0.00307196
0.00471693
0.00288826
0.00879608
0.00576838
0.00284157
0.00143906
0.00748818
0.00335312
0.0022589
0.00403444
0.00613586
0.00168805
0.00966869
0.00433559
0.00686376
0.00111081
0.0031083
0.00368973
0.00309933
0.00548137
0.00495869
0.0123943
0.000200573
0.00395245
0.00384996
0.0100556
0.000445484
0.000319954
0.00588555
0.0120219
0.00247422
0.000734593
0.00414746
0.00630912
0.00327112
0.0109359
0.00465872
0.00388015
0.00514168
0.0010798
0.00629116
0.00234263
0.00117403
0.000215219
0.0044043
0.00104607
0.00565969
0.00116601
0.00629758
0.00479108
0.00141486
0.00454335
0.0174283
0.0116445
0.0140717
0.00480845
0.000197175
0.00800721
0.00539918
0.00548943
0.00923792
0.0134161
0.00590003
0.00510874
0.00497729
0.0107906
0.00192958
0.000170735
0.00337396
0.00627394
0.00481063
0.0116344
0.0122572
0.00947995
0.00992673
0.000990717
0.00910639
0.00406285
0.000787342
0.00581376
0.0032929
0.0083735
0.0139684
0.0085172
0.00358938
0.000733982
0.00606088
0.00206843
0.00333793
0.000369916
0.00553017
0.00560078
0.00800436
0.00415072
0.00263561
0.000786487
0.00208295
0.00665801
0.00981165
0.00371893
0.00306649
0.00960816
0.0115946
0.00681405
0.00735965
0.00326557
0.000982324
0.00453916
0.00430571
0.00167343
0.00787933
0.00497646
0.00932707
0.00639675
0.00403172
0.000162215
5.58022e-05
0.00149474
0.00292821
0.00204111
0.00210188
0.00413984
0.0053659
0.00710145
0.00165577
0.00375208
0.00580094
0.00473232
0.00252215
0.00339825
0.00487571
0.00575056
0.00471481
0.00752862
0.00933832
0.00511723
0.00313306
0.0045914
0.000516282
0.0044931
0.000424105
0.00165251
0.0071341
0.00608496
0.00791854
0.000189926
0.00306254
0.00840256
0.00514374
0.00239159
0.00394119
0.0101769
0.0041059
0.00404209
0.000237902
0.00139188
0.000413918
0.00141962
0.0025058
0.00485167
0.00593621
0.0048675
0.00178737
0.00406966
0.000508231
0.00157527
0.00183085
0.000374487
0.000748268
0.00132305
0.00613878
0.00812164
0.00677264
0.00128235
0.00150595
0.00239092
0.00866202
0.00377829
0.00410069
0.00118168
0.00437294
0.00254965
0.000485111
0.00590247
5.6191e-05
0.00213708
0.000214119
0.0014146
0.00452586
0.00201507
0.00339866
0.00239819
0.00231037
0.000888237
0.00226027
0.00265456
0.0097479
0.00784565
0.00924002
0.003875
0.00422805
0.000560673
0.00330517
0.00206529
0.00357657
0.00136601
0.0063735
0.00697645
0.00688997
0.00265327
0.00896629
0.00147337
0.0135725
0.00709834
0.00570748
0.00931996
0.00278052
0.00377205
0.00239896
7.00691e-05
0.0042226
0.0133417
0.00144192
0.00370317
0.0139085
0.00293102
0.00416872
0.0012601
6.00788e-05
0.00787991
0.00895395
0.0103173
0.0140142
0.00231737
0.00837104
0.000245318
0.0076729
0.000471827
0.00472918
0.000716567
0.00432112
0.000342026
0.000691185
0.0115248
0.000848225
0.00662801
0.000641881
0.00301636
0.00141347
0.00724209
0.000346562
0.00869724
0.0134088
0.00497303
0.00754399
0.00742132
0.00188576
0.00632292
0.00629804
0.00328036
0.00425943
0.00280889
0.00433253
0.0028543
0.00338979
0.00369923
0.00377234
0.00114453
0.00462391
0.00795669
0.00699022
0.00715873
0.0126869
0.0085475
0.00594981
0.00550866
0.00137159
0.000612646
0.000335236
0.00597549
0.00543594
0.00881209
0.00400885
2.91825e-05
0.0057168
0.0019692
0.00146411
0.000639764
0.00304498
0.00206241
0.00491451
0.0071144
0.00226375
0.00252638
0.00118461
0.0060886
0.0012425
0.00616894
0.0048482
0.000138073
0.00232688
0.00719086
0.00150111
0.00547985
0.00353872
0.000525213
0.00443734
0.00493839
0.00193337
0.00123235
0.00484838
0.0071809
0.000271644
0.00217276
0.0022492
0.00366625
0.00917074
0.0101149
0.00186379
0.00310576
0.000102734
0.00283118
0.00121971
0.00490474
0.00237848
0.00258403
0.00521942
0.00362088
0.00261252
0.00112283
0.00357183
0.00963105
0.000247087
0.00703048
0.0110171
0.0019716
0.004832
0.00294292
0.00236439
0.0022499
0.00355231
0.0040022
0.00224373
0.00353377
0.00114543
0.00351856
0.00130619
0.00233948
0.000966462
0.00102085
0.00374755
0.000440196
0.00378891
0.00330412
0.00239768
0.00449574
0.00247895
0.000314619
0.0120599
0.00472928
0.00411263
0.00511251
0.00109444
0.00499243
0.000443315
0.000714414
0.00192405
0.00403653
0.00235619
0.0062303
0.00011517
0.00162079
0.0135076
0.0151513
0.00954987
0.00408825
0.0021489
0.00690934
0.00369787
0.00247019
0.0052408
0.006095
0.00843575
0.00193008
0.00651486
0.0160062
0.00677532
0.0018541
0.00184603
0.00888239
0.00743568
0.0135054
0.0103017
0.00712204
0.00261058
0.00192918
0.00148358
0.00209255
0.00148887
0.00311874
2.94576e-05
0.00594664
0.00334668
0.00280952
0.00394314
0.00246771
0.000828222
0.00218627
0.00143863
0.00136048
0.00425456
0.0002594
0.0019053
0.0108196
0.00766157
0.00372865
0.000399839
0.00446522
0.00294946
0.00134
0.00370662
0.00274881
0.00192772
0.00121124
0.000550875
0.0068334
0.00199063
0.000397345
0.000341622
0.000651613
0.00389795
0.000912971
0.000897161
0.00078119
0.00672864
0.000976699
0.00356351
0.000983987
0.0021982
0.00289371
0.00595391
0.00252563
0.00766806
0.000407235
0.0116553
0.00469776
0.00459595
0.0046233
0.000157438
0.000600029
0.000951737
0.00595352
0.00126186
0.00421189
0.00022682
0.00235929
0.00797475
0.000500123
0.00413466
0.00288546
0.000897509
0.00191111
0.00331575
0.000790732
0.00169228
0.00302442
0.00120142
0.00906172
0.00334635
0.00119908
0.00706056
0.0107059
0.0137926
0.00498639
0.00232656
0.00804565
0.000827803
0.00214227
0.0068817
0.00245106
0.00234501
0.000144808
0.00297705
0.00750798
0.00636984
2.53305e-05
0.00208015
0.00773818
0.00127062
0.00637258
0.0028304
0.00067734
0.00493328
0.00881265
0.0025516
0.00509739
0.00411812
0.00371589
0.00903174
0.00558908
0.00399006
0.0021266
0.000479347
0.000226251
0.0043589
0.00612351
0.00332599
0.000819808
0.00116374
0.00434744
0.00186924
0.00222172
0.0021217
0.00724928
0.00061181
0.00287828
0.00656972
0.00242817
0.00149413
0.00420482
0.00921933
0.00150305
0.000320465
0.00168162
0.00377896
0.0106654
0.00144115
0.00103934
0.000552923
0.00237572
0.000550474
0.00160727
0.00822924
0.00565601
0.00594468
0.00318423
0.000914115
0.00544982
0.000227709
0.00178137
0.00085057
0.00810685
0.00546869
0.00284085
0.00231743
0.00247228
0.00228551
0.000383842
0.000273632
0.00164228
0.00367657
0.00540268
0.00602244
0.000834738
0.00291545
0.00137428
4.721e-05
0.000701271
0.00146262
0.00144023
0.00206163
0.000170054
0.000686476
0.000611766
0.000733699
0.00255305
0.000564714
0.00381002
0.00127746
0.00323099
2.92485e-05
0.00310392
0.00461596
0.00800733
0.000845125
0.000405865
0.00423169
0.000787923
0.00399125
0.00323188
0.00276024
0.00448249
0.0028357
0.00167576
0.000102811
0.00304677
0.00192943
0.00329432
0.0024001
0.00245694
0.00433392
0.0059154
0.000489847
0.00653675
0.00522741
0.00410775
2.24325e-05
0.00405294
0.00470096
5.95304e-05
0.000606763
0.0015473
0.00756008
0.00104644
0.00103449
0.00500613
0.00301525
0.00635557
0.000676919
0.000136781
0.00287926
0.000108417
0.0126597
0.00426507
0.00353204
0.00461316
0.00245737
0.00405686
0.000589166
0.00886306
0.000960253
0.00333822
0.00465184
0.00576725
0.000784197
0.00227501
0.00435284
0.00083659
0.00435429
0.00545162
0.00384215
0.00670683
0.00655857
0.00509646
0.00426189
0.00135339
0.00283165
0.00281592
0.00120473
0.0112552
0.00287079
0.00293078
7.34e-05
0.00221938
0.00589462
0.00401417
0.00133045
0.000152618
0.000286229
0.000139395
0.00419269
0.00350673
0.000822507
0.00174199
0.00392677
0.00254318
0.00256485
0.000354531
0.00282233
0.00668207
0.00257675
0.00355094
0.00175536
0.00253548
0.000135897
0.000444428
0.00359831
0.000951583
0.00294208
0.00253281
0.00345149
0.00220766
0.00319703
0.00080596
0.000748578
0.000762959
0.00460579
0.000851566
0.00596075
0.00501478
0.0123855
0.00407027
0.0090461
0.00293031
0.00234102
0.00308818
0.000431209
0.00185195
0.00475489
0.00132724
0.00524388
0.000910419
0.00677083
0.00579881
0.00931425
0.000855178
0.00255081
0.000106106
0.00386954
0.000498557
0.00531215
0.0040938
0.00221343
0.00481106
7.36522e-05
0.000543701
0.000980487
0.00269793
0.0042273
0.00309796
0.000932469
0.00234856
0.00861914
0.00718334
0.000767691
0.000389034
7.01558e-05
0.00195842
0.00133908
0.00210424
0.000571469
0.00533113
0.00401329
0.00565986
0.00306208
0.000143236
0.00696749
0.00124935
0.0015477
0.00223009
0.00139989
0.00351201
0.00628862
0.00366189
0.00658491
0.00547217
0.00875225
0.00542242
0.00335073
0.00201385
0.00274759
0.00167768
0.00239246
0.00584258
9.67922e-05
0.00245554
0.000282983
6.93095e-05
5.86591e-05
0.00143392
0.00172116
0.00306902
0.00873075
0.00937267
0.00198437
0.00348867
0.000633063
0.00474278
0.0020843
0.00390376
0.00024089
0.000363121
2.56359e-05
0.00108569
0.00120441
0.00316669
0.00178606
0.00665564
0.00182062
0.0024032
0.00294322
0.00253111
0.00924723
0.00375312
0.000333957
0.00742436
0.00404538
0.00120322
0.00284716
0.00261107
0.00330952
0.00100362
0.00239372
0.00486173
0.00259731
0.000876489
0.00371906
0.0022087
0.00155412
0.00431328
0.00992902
0.00625946
0.00100981
0.00459347
0.00319222
0.00693458
0.00379868
0.0106172
0.00183786
0.00131476
0.00375207
0.00743646
0.000568513
0.00645553
0.00437808
0.00671166
0.00474633
0.00767324
0.0032836
0.00427824
0.00592461
0.00320666
0.00163518
0.00412374
0.00179855
0.00853236
0.000620657
0.00630274
0.00422472
0.00165029
0.0014375
0.00337818
0.000311376
0.00125628
0.00214065
0.00541552
0.00654244
0.000535385
0.00657637
0.00291834
0.00761001
0.00166713
0.00457005
0.0037618
0.00242455
0.00232609
0.00377764
0.00141186
0.0101997
0.00257753
0.00843512
0.00106227
0.000449817
0.000100753
0.00253216
0.00533086
0.00498102
0.0102791
0.00151792
0.00456557
0.00279983
0.00448777
0.00643145
0.00303092
0.00341446
2.2547e-05
0.00769871
0.000724355
0.00987613
0.00328448
0.00535932
0.00965502
0.00784885
0.000338389
0.00448026
0.0020696
0.0060097
0.00442552
0.00940841
0.000616851
0.00353277
0.00131358
0.00735896
0.00248399
0.004957
0.000518254
0.00246783
0.000743917
0.009068
0.000168281
0.00475046
0.00114247
0.000120464
9.87415e-05
0.000582386
0.00757991
0.00133237
0.000515247
0.000266659
0.00540631
0.00183084
0.00566678
0.00197106
0.00247162
0.00205765
4.0989e-05
0.00512522
0.00393523
0.00312231
0.00272608
0.00561611
0.000947634
0.00583585
0.00587401
0.00239936
0.00686758
0.00716077
0.0022143
0.00665009
0.00355081
0.00124121
0.00150635
0.00040134
0.00859516
0.00331922
0.0058091
0.00140668
0.00595744
0.00109202
0.00385162
0.00670955
0.00325502
0.00434475
0.00318262
0.00432231
0.00644086
0.00559178
0.00617754
0.00477172
0.00459096
0.000799681
0.00687563
0.0022996
0.00404895
0.00032168
0.000397695
0.0114626
0.000697395