/*--------------------------------*- C++ -*----------------------------------*\
| =========                 |                                                 |
| \\      /  F ield         | OpenFOAM: The Open Source CFD Toolbox           |
|  \\    /   O peration     | Version:  2212                                  |
|   \\  /    A nd           | Website:  www.openfoam.com                      |
|    \\/     M anipulation  |                                                 |
\*---------------------------------------------------------------------------*/
FoamFile
{
    version     2.0;
    format      ascii;
    arch        "LSB;label=32;scalar=64";
    class       volScalarField;
    location    "0";
    object      stateMean;
}
// * * * * * * * * * * * * * * * * * * * * * * * * * * * * * * * * * * * * * //

dimensions      [0 0 0 1 0 0 0];

internalField   nonuniform List<scalar> 
3200
(
353.191
350.546
350.124
350.893
350.686
350.255
351.792
353.488
353.691
350.845
354.32
351.88
352.944
351.565
348.04
348.851
349.241
346.184
347.276
348.54
346.804
344.466
345.942
342.06
342.68
343.206
345.134
345.524
345.911
347.037
344.25
345.227
344.877
342.787
342.197
343.74
342.167
341.409
342.222
341.94
339.092
338.505
337.806
336.431
333.571
337.435
336.969
336.632
337.516
337.371
339.173
340.291
336.556
335.669
335.377
335.544
335.122
335.153
336.043
338.776
330.438
330.104
329.409
330.458
329.169
328.948
331.404
329.872
332.175
329.487
331.218
331.692
329.162
328.914
330.395
332.138
329.559
328.556
328.337
329.901
323.296
327.335
325.84
325.273
320.768
322.275
323.993
324.233
325.258
324.824
324.138
325.013
323.16
323.286
323.157
325.005
321.164
322.909
324.142
324.567
320.036
315.657
317.656
318.549
319.247
313.536
316.707
317.205
315.784
317.698
318.831
316.768
315.133
316.78
315.067
317.313
316.373
317.484
314.666
316.155
312.514
307.218
309.365
310.155
307.364
307.031
310.822
308.817
312.034
310.647
310.283
311.508
312.739
309.332
309.307
310.333
310.898
311.689
309.889
310.567
303.558
303.009
302.857
302.885
301.238
303.535
304.743
302.173
299.077
304.806
304.465
305.362
301.644
302.767
304.318
303.989
302.916
304.943
301.045
303.512
351.582
351.79
350.821
346.973
352.131
349.769
349.317
353.092
355.362
354.126
352.002
351.006
350.352
353.176
350.518
346.814
348.961
349.454
349.874
350.233
346.259
343.991
345.211
345.63
343.336
346.57
343.063
347.522
345.876
348.883
348.888
344.409
348.022
343.084
346.202
344.887
345.02
343.723
343.623
342.991
339.756
340.104
337.72
338.317
336.996
339.576
338.907
338.655
339.31
339.674
340.465
338.768
338.112
338.71
335.888
335.244
335.067
334.127
335.416
337.388
332.05
331.381
329.84
328.569
329.484
328.134
328.884
331.186
332.599
333.682
329.932
331.672
330.813
329.067
331.003
330.737
328.988
328.204
329.411
329.758
325.495
321.843
320.771
322.238
323.333
322.212
325.622
323.716
326.253
326.897
324.621
327.083
324.634
324.305
320.18
323.448
322.49
323.484
323.452
322.436
317.501
316.98
316.761
315.315
316.213
316.693
318.808
318.156
315.653
316.147
317.657
318.01
317.484
314.977
315.658
316.324
316.255
318.83
313.588
319.664
307.655
313.553
310.717
309.418
310.662
308.618
311.532
313.456
310.923
311.579
309.787
308.969
310.177
312.09
311.455
311.41
308.766
312.161
310.709
311.584
301.711
304.37
302.426
303.128
303.254
303.823
302.314
305.839
300.358
303.857
302.771
305.988
305.123
302.561
303.846
303.408
303.837
302.426
304.073
304.078
352.67
351.738
349.435
349.624
352.772
351.681
351.348
354.741
355.433
355.72
355.075
355.227
350.841
354.749
351.514
348.782
350.349
349.032
349.696
350.339
348.243
347.763
343.334
344.199
343.409
346.336
346.533
344.446
344.783
344.295
349.821
346.248
345.161
346.007
341.579
342.285
343.54
342.423
343.308
346.012
340.277
340.495
338.636
337.646
338.79
338.956
337.08
339.601
341.548
340.12
340.43
340.383
338.177
337.376
337.649
335.388
339.103
335.998
337.017
337.842
332.375
330.867
331.845
330.591
330.212
332.54
331.249
329.908
334.745
333.128
329.609
331.348
331.972
330.691
332.829
326.395
332.426
330.316
330.414
329.401
324.468
324.815
324.73
323.28
322.534
319.977
324.473
327.386
328.149
326.544
325.288
322.404
325.995
325.182
322.991
324.521
322.617
322.838
321.462
324.907
317.967
316.991
314.21
317.66
316.228
319.312
317.341
316.657
319.544
318.354
317.102
318.009
317.966
315.599
317.008
317.874
314.72
315.903
318.313
317.264
311.685
309.849
308.872
311.623
309.307
311.385
310.975
308.57
310.545
310.244
311.945
310.508
311.418
307.881
312.481
309.773
308.707
310.188
310.19
309.641
302.748
304.093
301.87
302.235
304.698
302.807
302.657
303.487
304.512
304.574
303.676
305.567
302.8
302.83
303.354
304.798
302.681
303.44
302.622
302.729
352.117
353.494
351.701
352.654
352.592
351.369
353.457
355.19
353.998
354.236
354.267
355.112
354.963
352.647
353.281
350.544
349.247
349.331
353.058
351.057
346.523
344.768
344.518
345.788
345.149
347.505
346.299
348.017
346.195
349.406
349.391
347.896
348.386
348.291
347.557
344.497
346.447
341.242
343.898
345.219
338.403
338.295
339.348
337.995
338.014
337.545
337.625
340.151
340.379
341.707
342.325
338.869
339.362
338.39
339.559
336.319
336.132
336.41
337.064
337.464
332.817
332.239
331.233
332.289
330.521
330.699
330.036
334.915
330.708
333.952
329.159
332.838
330.857
333.36
331.528
330.848
329.435
331.365
331.308
330.9
325.609
325.414
325.819
324.446
325.245
324.292
323.477
325.417
324.109
324.878
325.772
327.01
323.444
323.983
323.797
323.72
323.432
325.838
324.544
323.957
316.971
318.346
317.158
316.502
317.564
314.724
320.634
318.295
319.049
318.921
319.853
317.421
318.646
318.174
321.201
315.692
318.125
315.728
316.75
316.815
309.199
310.863
310.701
310.465
309.952
309.449
309.279
311.18
310.863
313.018
311.433
310.653
309.897
310.386
310.041
309.49
310.598
311.077
307.798
310.79
302.887
301.524
303.853
303.125
305.149
303.292
301.936
304.472
302.765
304.053
304.17
306.404
301.922
304.132
304.747
301.469
302.372
304.221
303.556
302.698
354.801
356.076
352.631
354.477
352.162
354.201
355.318
355.092
355.046
357.162
357.66
357.055
355.023
356.488
354.221
353.805
351.585
350.413
353.686
353.825
346.588
347.519
343.666
345.49
346.472
348.911
346.89
348.016
351.788
349.18
349.987
349.622
349.796
348.679
346.929
344.824
343.332
343.242
345.513
345.944
338.84
337.23
337.382
339.421
338.485
340.179
342.197
339.063
340.73
343.075
342.531
340.533
338.223
339.512
337.667
338.688
339.951
339.038
338.713
338.31
334.803
332.171
334.125
328.608
330.657
331.529
335.069
332.474
330.889
334.712
335.546
335.125
333.75
335.003
330.642
330.957
330.021
333.619
333.425
332.22
326.877
327.084
323.671
325.105
327.284
324.028
326.211
326.214
326.225
327.777
327.189
327.313
325.898
325.683
324.041
324.594
324.346
323.536
325.406
323.143
316.81
317.754
320.04
316.093
316.34
318.564
316.029
317.904
318.984
318.619
321.681
319.11
318.503
317.518
316.154
316.705
319.22
316.762
316.718
318.93
309.74
310.889
308.043
308.522
310.122
307.131
310.059
310.823
311.302
311.111
310.318
312.703
310.58
312.804
308.626
310.038
309.878
312.427
311.799
311.847
305.488
305.494
302.763
304.559
304.62
303.505
305.549
303.966
304.45
302.047
303.63
303.327
303.838
302.405
303.19
305.082
303.658
301.189
302.446
306.292
355.408
355.689
351.789
354.667
354.555
356.907
358.042
357.215
357.908
357.211
359.256
357.063
359.524
356.179
352.299
354.277
354.755
352.136
354.098
356.392
349.309
345.86
348.16
346.84
346.257
347.767
349.807
349.202
350.777
350.764
349.78
350.261
349.755
346.863
347.798
345.423
348.013
348.651
345.516
346.808
343.234
340.946
341.386
338.063
339.554
338.151
340.437
341.441
345.52
343.859
344.935
341.527
341.492
339.967
341.834
339.537
338.268
338.723
339.728
339.642
333.289
333.456
330.758
332.647
333.014
333.139
334.114
334.963
336.608
335.978
335.261
333.363
334.518
331.294
332.306
333.891
334.136
329.146
332.928
332.719
325.724
323.847
324.578
326.747
328.011
326.193
325.622
329.137
327.429
326.903
329.026
327.12
326.226
326.303
328.264
324.354
323.467
322.481
325.603
325.353
316.626
317.604
318.098
318.429
317.703
318.745
320.485
319.61
319.51
319.411
318.546
318.769
319.169
318.316
317.526
317.108
317.135
317.901
317.582
320.105
311.916
311.672
310.564
310.352
306.434
312.195
313.639
312.718
312.565
312.249
311.553
312.116
311.697
311.379
310.658
311.489
311.617
312.126
312.361
311.207
303.441
302.075
304.565
302.791
303.286
305.097
303.795
302.223
303.34
304.487
303.155
305.11
302.173
303.698
302.958
303.11
304.297
304.524
305.142
304.154
359.707
356.487
355.542
354.993
356.915
356.361
357.184
358.907
360.256
358.105
361.22
357.637
360.602
358.393
357.056
355.704
354.621
353.564
354.006
354.841
349.746
348.479
350.204
348.306
350.351
348.509
350.888
351.212
352.208
353.081
352.375
354.022
351.849
350.118
350.962
347.863
346.852
345.315
348.107
346.614
342.003
342.069
342.735
341.007
340.968
341.614
340.991
341.513
342.905
343.989
344.583
345.509
343.796
341.128
340.976
341.675
339.432
340.444
340.238
339.932
333.505
336.079
332.904
331.477
331.199
334.18
336.194
335.616
334.584
336.823
337.228
335.621
336.612
331.872
336.178
333.585
330.998
331.264
335.067
333.404
326.466
324.251
324.59
327.496
326.829
327.938
329.001
329.628
326.18
327.259
327.243
328.242
328.638
326.937
328.946
324.743
325.505
325.83
324.949
324.672
319.578
317.931
319.179
318.831
319.501
318.736
316.697
320.558
320.136
320.44
319.592
319.151
320.722
318.23
318.652
318.249
318.774
318.752
320.36
319.259
311.481
311.71
312.486
311.162
312.074
311.506
311.319
310.254
311.798
311.616
312.129
314.086
312.835
313.693
312.114
310.03
308.2
310.358
311.962
309.571
301.385
302.677
302.349
302.493
301.301
303.69
302.632
305.427
303.635
303.129
302.324
304.565
306.967
303.869
304.981
301.478
300.575
302.887
300.948
302.572
358.456
359.794
357.654
357.01
358.253
359.688
357.508
358.952
361.008
361.666
362.974
361.659
362.296
362.302
358.227
356.816
357.574
357.388
357.443
356.784
351.158
347.745
347.842
349.199
348.498
350.598
349.025
351.622
353.888
351.829
351.356
353.171
351.713
352.712
350.369
349.032
349.273
347.316
347.908
350.548
342.3
344.01
341.292
340.517
342.356
344.014
342.404
346.363
343.463
346.5
346.71
346.809
344.015
342.156
341.222
338.581
340.458
338.3
342.021
342.988
333.592
336.911
333.034
336.014
333.394
334.38
335.935
337.308
337.346
336.772
336.895
337.229
334.739
336.412
332.792
334.172
335.078
333.745
336.556
332.834
330.561
327.694
325.876
326.666
326.357
327.168
327.266
327.431
330.613
329.214
327.234
329.042
330.92
327.632
328.136
326.952
326.428
326.039
328.402
327.871
319.119
320.056
320.93
319.502
318.725
318.859
318.606
321.929
320.953
315.692
321.459
320.35
319.359
318.907
318.314
318.271
319.982
319.589
317.008
319.704
311.175
312.362
311.233
312.089
311.401
313.403
311.838
312.217
311.024
312.168
314.215
312.905
310.722
312.217
312.302
311.65
312.741
311.958
313.242
311.211
303.415
303.25
305.238
303.291
302.752
303.74
303.777
303.323
304.078
302.15
305.508
304.147
303.485
302.49
305.538
305.491
303.742
304.24
302.951
305.43
360.151
362.505
359.393
356.392
355.826
359.059
359.486
361.646
362.041
365.531
366.404
363.527
362.984
362.801
360.985
360.733
357.607
359.27
358.414
360.389
353.314
351.076
351.581
351.465
351.003
352.205
354.611
353.482
356.426
355.086
355.721
354.846
354.557
352.227
353.695
351.503
350.634
351.05
350.486
355.056
345.592
346.913
341.054
343.209
340.526
343.541
343.556
346.265
345.499
347.182
344.629
346.293
345.749
344.948
343.207
345.428
343.962
342.119
342.937
343.461
335.673
335.317
334.749
335.784
335.462
335
337.559
337.963
336.391
337.388
338.936
339.962
337.796
337.804
334.986
336.648
335.467
334.242
335.684
335.199
329.091
329.244
326.481
328.765
327.457
327.728
330.734
329.794
328.849
330.074
327.21
328.344
328.626
327.722
326.838
328.178
327.794
326.69
328.664
328.681
318.771
321.958
319.036
320.465
320.038
321.984
320.874
319.996
322.101
318.876
321.23
321.195
320.041
319.317
318.495
317.539
319.964
319.509
320.325
319.898
310.437
310.508
310.4
310.873
313.277
312.834
313.747
312.406
313.513
314.239
310.688
312.823
311.431
310.274
313.241
312.243
313.856
312.356
312.886
312.357
305.187
305.268
303.799
304.664
303.653
302.73
306.698
304.26
306.145
303.297
304.568
303.895
302.159
303.773
304.76
305.408
304.075
304.101
306.567
304.56
364.144
362.555
359.074
361.066
359.224
361.015
364.733
362.348
364.568
366.771
364.711
365.54
367.427
362.533
362.885
361.847
358.338
360.175
361.911
361.206
354.355
350.51
353.833
351.029
353.389
352.455
353.514
353.393
354.546
354.103
353.651
357.791
352.853
353.249
353.094
354.732
351.476
351.934
350.324
355.864
346.061
344.051
345.562
341.599
343.126
345.26
346.034
346.805
347.208
348.336
349.307
349.424
346.728
345.197
345.042
345.818
345.292
344.276
344.294
343.562
337.476
335.785
336.81
333.909
337.183
339.503
335.768
338.788
338.483
338.08
337.736
338.962
337.953
338.355
336.301
336.289
334.515
333.988
334.905
335.3
327.246
328.339
332.006
328.661
331.218
329.41
327.468
327.05
327.893
331.602
330.902
329.768
329.855
331.037
327.66
331.198
326.657
327.974
329.453
329.533
323.024
322.673
320.995
320.007
320.781
319.334
320.654
320.905
321.016
323.457
322.669
321.06
320.63
321.144
321.075
320.252
318.952
321.225
319.564
321.021
313.73
312.699
310.971
311.128
311.019
313.007
311.601
312.516
311.763
314.704
310.88
312
314.399
313.648
312.626
312.783
310.744
310.225
311.183
311.466
303.654
303.877
305.821
302.721
306.404
303.159
302.899
305.382
303.815
302.946
306.454
303.318
304.374
307.114
303.482
304.043
304.549
302.682
305.318
305.335
365.986
362.958
363.668
363.915
362.575
364.649
362.11
363.952
366.32
367.002
365.718
367.129
365.952
367.262
363.047
363.819
365.268
360.743
363.147
364.68
356.249
352.455
355.425
353.308
354.351
354.259
355.903
354.745
355.885
354.954
354.669
356.186
354.617
354.039
354.636
355.281
353.18
354.952
352.642
353.218
346.69
347.794
344.98
345.869
345.053
346.374
346.821
346.216
347.557
348.587
347.447
347.422
345.945
348.863
346.1
346.335
343.762
345.9
346.02
346.409
338.056
339.841
335.489
340.011
337.34
338.12
338.408
339.73
341.672
340.745
342.293
341.642
338.789
338.629
338.272
336.917
338.443
338.514
336.768
339.313
327.857
330.18
328.526
328.355
330.855
329.825
328.563
331.241
330.285
331.759
330.826
330.06
331.26
328.773
329.675
330.689
327.391
328.282
326.764
329.554
322.732
319.916
320.779
321.197
321.624
321.71
320.401
322.066
322.684
320.287
324.04
323.022
321.992
321.417
323.205
321.707
319.727
318.978
322.065
320.513
315.016
310.722
314.32
312.633
311.423
311.344
313.557
314.377
314.268
316.62
312.681
311.481
311.459
315.731
312.636
312.494
314.124
315.93
312.847
312.228
305.283
305.966
303.087
307.444
302.738
305.369
305.784
304.574
306.177
303.559
303.915
304.198
305.585
303.902
305.911
304.51
302.203
302.625
304.478
305.403
368.061
366.361
367.727
364.872
363.694
367.004
366.473
366.847
368.458
370.11
367.365
366.95
366.66
368.438
364.792
363.684
361.901
364.899
363.886
365.965
357.885
357.235
357.81
354.377
358.392
357.008
355.643
358.288
357.6
359.519
361.514
359.462
357.496
355.662
357.718
354.423
355.912
354.424
355.837
355.531
348.1
347.043
346.868
346.596
347.41
349.342
350.744
348.877
348.827
351.194
351.885
350.131
350.142
348.47
346.69
348.262
347.815
345.377
348.331
347.055
340.255
339.488
338.975
337.86
338.194
338.999
337.751
339.638
339.803
340.569
340.985
341.498
338.385
340.014
340.457
339.814
338.767
336.467
338.975
339.05
330.43
331.524
332.343
331.188
330.766
328.437
329.975
328.82
330.556
331.02
332.832
332.427
332.92
330.208
330.962
332.504
327.807
330.055
330.344
332.226
321.959
322.058
320.994
321.532
321.118
321.863
322.351
323.219
323.648
323.346
322.355
320.429
321.495
321.038
320.819
321.131
321.325
321.343
322.73
323.246
314.517
312.071
312.095
311.918
315.475
314.041
314.226
312.64
311.69
313.882
313.236
314.907
312.992
313.612
312.926
312.324
314.081
313.196
313.534
313.15
303.454
303.911
303.524
305.054
307.245
306.699
301.527
305.54
305.665
304.215
305.392
305.007
305.45
303.923
302.371
302.156
306.342
303.405
306.908
304.605
368.904
366.91
366.848
368.632
364.664
367.487
365.602
366.813
368.553
372.013
367.644
368.362
371.888
367.555
367.632
365.22
365.25
367.64
367.586
367.719
360.445
356.592
359.131
356.636
359.681
357.141
359.327
358.157
359.635
358.308
357.937
362.215
358.205
360.006
357.081
358.019
357.053
358.729
355.645
358.555
351.604
348.932
350.149
350.447
348.854
350.713
350.981
350.153
350.654
350.23
350.762
350.164
350.191
347.494
349.824
347.798
349.473
350.292
349.632
349.436
342.727
341.531
340.915
341.043
339.913
339.91
339.814
342.143
342.091
343.307
341.672
340.231
342.055
340.597
340.199
339.664
340.208
339.598
340.301
340.841
329.16
329.229
330.658
332.494
331.105
328.851
332.672
331.164
332.082
333.746
330.866
333.127
332.382
331.241
329.424
329.061
329.843
330.674
331.663
332.276
321.289
322.186
322.355
322.965
324.889
318.821
321.603
323.307
322.345
323.328
322.022
323.959
323.073
323.037
323.76
320.771
320.944
321.993
322.635
324.471
312.765
315.108
316.443
312.47
314.691
314.185
314.079
312.694
314.556
312.21
314.168
314.551
313.04
312.236
312.854
312.445
313.39
313.315
314.081
312.704
303.152
303.321
305.086
303.019
303.662
304.35
300.799
303.052
303.254
306.071
304.181
306.026
304.627
304.253
303.86
303.188
305.104
302.46
304.362
304.798
371.318
372.258
370.615
369.034
368.735
370.874
370.031
369.853
371.071
371.486
372.351
369.848
371.346
374.569
370.825
368.626
366.853
370.37
369.429
371.317
361.229
360.375
359.114
359.237
359.435
358.484
358.995
360.89
359.946
362.163
361.227
360.946
361.187
360.417
358.938
359.688
359.061
358.666
359.349
357.453
349.377
352.722
351.919
350.856
349.715
348.575
349.353
351.058
352.03
351.767
351.479
350.305
350.781
352.78
350.835
349.994
349.672
349.471
350.307
348.395
340.178
340.327
342.593
340.889
342.018
341.371
341.988
340.415
343.552
340.716
344.198
341.658
345.382
339.635
339.468
339.228
340.61
340.099
339.737
341.896
330.609
332.566
331.284
330.774
334.394
331.762
330.714
331.256
332.007
332.987
333.454
332.568
331.653
331.083
331.529
334.754
330.446
330.962
333.509
334.571
326.62
323.885
323.162
319.958
322.423
322.127
325.154
323.816
322.33
323.075
322.16
325.514
325.082
322.924
322.147
320.193
322.963
324.467
323.19
321.958
314.868
316.145
314.263
315.146
312.338
314.874
316.61
315.585
312.617
314.557
314.039
313.94
312.463
315.697
314.751
313.887
313.913
312.1
313.969
312.626
305.112
302.279
304.327
305.418
302.568
305.335
305.073
303.355
301.84
304.198
304.754
305.161
305.787
301.369
304.156
304.252
304.373
303.79
304.318
304.955
372.004
371.364
371.846
371.213
370.071
372.778
371.146
371.969
371.165
374.582
373.602
372.536
370.448
371.979
369.91
370.552
369.934
370.256
370.633
370.961
361.963
360.357
361.429
361.208
361.021
361.592
361.074
362.337
362.712
361.982
362.293
362.187
361.551
362.526
361.543
359.662
360.251
361.542
360.067
360.913
352.234
353.64
351.4
351.529
350.173
351.639
350.735
353.459
351.474
350.932
353.512
351.856
352.356
351.067
352.595
350.503
352.229
351.966
352.351
352.69
341.261
343.835
343.611
343.46
342.272
341.101
341.061
342.8
342.716
342.446
345.57
342.565
343.175
340.957
341.456
344.455
341.823
341.871
342.586
341.391
336.442
333.787
333.716
334.256
332.078
331.708
333.397
336.27
333.717
334.552
334.99
335.32
333.055
332.443
331.609
332.618
334.17
334.354
333.646
334.464
325.159
324.781
321.879
322.947
324.426
322.716
324.118
327.455
324.798
322.949
323.874
324.587
325.719
325.027
324.058
323.559
323.478
323.302
324.489
324.173
313.583
314.444
315.203
313.248
314.929
314.082
315.141
316.403
313.528
313.24
314.908
313.541
314.26
314.394
313.062
313.824
313.123
314.765
312.814
314.534
305.614
304.412
304.911
304.477
306.138
304.498
306.595
306.323
301.031
306.053
307.569
303.913
305.509
305.719
304.627
304.17
306.158
305.087
306.256
304.917
374.268
374.19
375.844
373.047
374.02
373.342
372.209
374.061
372.042
372.577
373.281
375.828
373.847
373.452
373.748
374.075
371.152
373.53
371.686
372.624
365.325
365.046
362.46
363.184
363.362
362.898
364.334
363.272
364.38
366.183
362.779
362.111
362.923
363.899
361.077
362.883
363.605
361.929
362.949
363.475
354.867
354.139
355.422
355.288
350.509
351.915
355.221
354.91
353.337
354.964
355.217
356.38
354.163
353.166
353.934
353.579
353.375
352.591
352.24
353.731
346.085
346.467
344.135
342.465
344.086
342.425
343.504
343.009
344.363
344.619
344.503
344.072
344.768
343.131
344.672
341.579
343.038
344.278
342.24
343.958
336.611
334.902
333.696
336.451
332.778
334.679
333.453
335.381
335.687
334.953
333.816
332.953
333.639
334.112
333.034
334.868
333.452
332.367
336.963
335.615
323.635
325.537
325.196
326.527
323.159
321.051
323.991
325.088
323.495
327.155
324.925
326.809
326.082
326.767
326.036
326.88
325.343
322.774
325.968
325.001
314.908
313.149
315.079
311.899
314.847
312.731
313.44
314.294
315.298
315.925
314.959
315.241
314.14
313.065
312.656
314.82
316.652
315.431
316.839
314.918
303.432
303.695
305.604
305.598
306.063
304.502
308.061
304.18
307.549
305.306
304.845
305.007
304.194
306.577
303.414
301.777
305.352
303.473
303.988
306.193
377.098
376.083
373.98
375.573
372.996
375.901
372.7
377.852
374.734
373.186
373.866
376.626
374.928
375.639
373.912
374.226
372.047
375.492
376.272
375.18
367.423
364.052
367.039
365.318
366.677
365.748
362.912
366.342
364.782
367.004
366.629
366.559
366.191
363.457
365.532
365.586
365.604
363.254
365.627
366.806
355.487
355.847
355.929
355.448
353.836
354.467
354.936
355.222
354.293
356.684
354.266
354.201
355.338
353.603
353.319
354.871
353.069
353.937
354.529
354.254
344.973
347.947
346.314
343.354
345.059
343.656
346.242
347.315
343.743
347.235
344.604
344.964
347.477
343.636
343.783
347.68
343.712
343.583
344.706
347.206
335.651
336.35
335.246
335.421
331.587
335.331
334.372
337.055
335.806
336.849
336.469
334.012
335.988
335.463
334.297
336.655
335.104
334.575
332.815
335.726
324.809
324.417
324.5
325.062
322.813
325.456
324.914
324.053
324.274
324.149
326.273
324.392
323.119
323.277
327.172
324.55
324.919
325.958
322.198
326.997
315.858
313.805
315.167
316.08
312.9
317.225
315.394
315.734
316.779
314.474
313.602
316.251
314.177
316.923
313.341
315.981
315.298
317.831
314.306
315.682
304.754
303.252
306.881
304.721
307.313
305.722
304.766
305.791
306.03
305.404
306.364
306.845
306.275
304.114
304.651
305.387
304.615
302.286
302.794
305.189
380.367
378.65
377.616
376.177
377.46
377.144
374.969
377.914
376.706
378.153
377.736
377.428
377.516
377.02
373.952
376.284
377.461
375.757
377.251
377.469
368.356
369.146
365.897
368.248
365.71
369.051
365.705
365.64
366.312
366.51
365.676
364.93
364.334
365.949
365.379
368.376
363.919
365.449
364.079
367.181
358.482
356.735
356.516
355.411
354.525
356.328
355.922
356.863
355.938
359.037
356.107
357.334
357.065
356.622
355.855
356.842
352.962
355.203
355.712
357.261
348.489
345.284
346.262
345.446
345.706
345.675
346.271
344.628
344.474
344.948
345.032
345.206
346.451
347.774
346.458
345.915
345.827
344.741
343.477
347.366
337.913
335.116
337.834
334.474
333.589
334.626
334.194
334.835
337.512
338.04
337.216
334.853
336.836
335.613
336.348
336.134
335.811
335.766
335.414
336.904
327.68
324.574
325.934
325.371
325.138
325.71
324.108
324.51
325.216
327.318
326.949
325.246
325.151
324.592
325.806
326.626
324.636
324.881
324.625
326.419
315.497
317.356
315.26
316.358
314.359
316.073
315.74
314.983
315.289
315.399
317.052
315.512
315.119
315.937
313.051
315.038
314.941
315.943
316.169
317.33
305.203
306.777
304.787
304.841
306.295
306.758
305.048
304.233
303.847
304.902
305.084
303.63
305.019
305.583
304.111
305.222
304.198
306.351
304.614
304.991
382.145
377.803
378.468
379.784
377.725
378.09
377.81
379.439
378.097
376.128
379.404
377.304
379.318
378.595
380.474
376.976
378.336
377.443
379.904
379.31
369.702
370.239
368.209
370.626
366.686
370.654
366.63
370.225
367.059
370.793
371.439
370.584
371.239
368.553
369.856
368.158
369.738
364.843
369.71
370.705
357.261
359.272
356.893
359.796
357.515
357.39
357.221
358.194
357.682
357.09
357.95
358.346
357.126
358.217
354.934
354.901
355.624
356.087
357.123
358.205
348.259
348.348
348.826
346.669
347.074
347.222
345.317
346.886
347.408
345.934
348.992
347.749
348.929
347.3
346.354
347.773
345.117
345.57
348.061
349.062
336.466
337.799
337.763
334.662
336.873
338.847
334.84
338.323
335.075
335.751
335.895
337.711
335.778
337.15
337.029
337.592
336.71
335.181
339.12
335.888
327.603
327.671
327.762
325.73
327.9
325.529
323.073
326.635
327.564
325.575
327.297
326.751
327.519
328.384
325.339
326.803
326.897
328.401
327.055
326.831
315.612
316.826
315.848
316.798
315.786
314.178
316.082
314.077
314.978
315.508
314.161
317.794
316.741
315.368
315.948
316.668
316.012
312.532
315.23
316.641
305.361
304.358
304.681
306.013
308.219
304.771
303.547
308.004
306.517
306.269
303.979
305.932
304.854
304.026
305.602
304.052
307.517
305.473
307.224
307.077
384.003
382.097
378.643
380.34
378.098
378.95
377.964
378.144
379.235
378.131
379.832
377.406
378.044
379.531
379.408
381.308
378.446
379.649
379.068
381.011
373.253
368.169
368.652
367.873
369.528
367.78
367.129
370.052
368.026
368.458
368.498
369.93
368.734
365.822
368.061
366.615
366.924
368.655
370.137
369.677
360.526
359.667
358.372
358.1
358.824
356.112
360.58
357.632
359.483
359.608
355.181
358.671
356.973
358.899
359.079
355.635
358.088
357.257
357.426
359.491
349.605
347.193
348.453
346.38
345.987
345.5
346.526
347.095
348.344
346.585
348.625
349.733
345.056
345.544
346.195
346.321
347.082
347.763
347.049
346.51
338.735
340.569
337.688
336.985
335.806
335.589
336.186
336.547
336.42
335.431
335.867
337.344
336.743
336.313
335.62
337.733
334.093
335.408
336.552
340.137
326.95
327.711
326.56
324.314
325.913
326.054
327.502
327.873
325.517
323.662
324.984
325.761
328.088
327.559
325.803
325.303
326.462
325.746
326.622
325.215
315.452
317.077
314.914
316.114
317.224
316.241
316.73
316.168
315.792
317.884
314.056
315.399
315.079
315.89
314.701
315.076
315.388
316.912
317.506
315.886
305.715
305.15
305.68
305.262
306.359
307.519
306.902
305.943
303.33
304.699
304.18
305.468
305.732
304.462
305.868
304.896
304.307
305.636
305.841
303.595
)
;

boundaryField
{
    hotSide
    {
        type            fixedGradient;
        gradient        nonuniform List<scalar> 
400
(
321.511
322.87
325.591
329.677
335.133
341.965
350.181
359.788
370.794
383.208
397.037
412.289
428.971
447.088
466.647
487.651
510.105
534.011
559.372
586.191
323.738
325.08
327.767
331.802
337.194
343.949
352.078
361.591
372.498
384.81
398.537
413.687
430.268
448.289
467.755
488.672
511.043
534.872
560.161
586.913
326.149
327.47
330.116
334.091
339.406
346.071
354.099
363.503
374.296
386.491
400.101
415.136
431.606
449.52
468.885
489.706
511.988
535.735
560.948
587.63
328.704
330
332.597
336.503
341.73
348.292
356.205
365.485
376.15
388.215
401.695
416.604
432.954
450.753
470.009
490.73
512.919
536.579
561.714
588.325
331.33
332.599
335.142
338.97
344.099
350.546
358.332
367.477
378.003
389.928
403.271
418.047
434.27
451.949
471.095
491.712
513.807
537.382
562.439
588.978
333.918
335.158
337.643
341.389
346.414
352.74
360.392
369.397
379.779
391.562
404.765
419.407
435.503
453.065
472.101
492.618
514.622
538.114
563.096
589.569
336.321
337.531
339.959
343.622
348.544
354.751
362.274
371.142
381.385
393.031
406.101
420.618
436.595
454.047
472.983
493.409
515.33
538.747
563.663
590.076
338.36
339.543
341.92
345.509
350.339
356.44
363.847
372.595
382.718
394.244
407.2
421.608
437.485
454.844
473.695
494.045
515.897
539.253
564.114
590.478
339.852
341.015
343.352
346.885
351.645
357.665
364.985
373.643
383.675
395.113
407.984
422.312
438.116
455.407
474.197
494.491
516.294
539.606
564.428
590.758
340.643
341.795
344.11
347.613
352.334
358.311
365.584
374.193
384.176
395.567
408.393
422.679
438.443
455.699
474.456
494.722
516.498
539.788
564.589
590.901
340.643
341.795
344.11
347.613
352.334
358.311
365.584
374.193
384.176
395.567
408.393
422.679
438.443
455.699
474.456
494.722
516.498
539.788
564.589
590.901
339.852
341.015
343.352
346.885
351.645
357.665
364.985
373.643
383.675
395.113
407.984
422.312
438.116
455.407
474.197
494.491
516.294
539.606
564.428
590.758
338.36
339.543
341.92
345.509
350.339
356.44
363.847
372.595
382.718
394.244
407.2
421.608
437.485
454.844
473.695
494.045
515.897
539.253
564.114
590.478
336.321
337.531
339.959
343.622
348.544
354.751
362.274
371.142
381.385
393.031
406.101
420.618
436.595
454.047
472.983
493.409
515.33
538.747
563.663
590.076
333.918
335.158
337.643
341.389
346.414
352.74
360.392
369.397
379.779
391.562
404.765
419.407
435.503
453.065
472.101
492.618
514.622
538.114
563.096
589.569
331.33
332.599
335.142
338.97
344.099
350.546
358.332
367.477
378.003
389.928
403.271
418.047
434.27
451.949
471.095
491.712
513.807
537.382
562.439
588.978
328.704
330
332.597
336.503
341.73
348.292
356.205
365.485
376.15
388.215
401.695
416.604
432.954
450.753
470.009
490.73
512.919
536.579
561.714
588.325
326.149
327.47
330.116
334.091
339.406
346.071
354.099
363.503
374.296
386.491
400.101
415.136
431.606
449.52
468.885
489.706
511.988
535.735
560.948
587.63
323.738
325.08
327.767
331.802
337.194
343.949
352.078
361.591
372.498
384.81
398.537
413.687
430.268
448.289
467.755
488.672
511.043
534.872
560.161
586.913
321.511
322.87
325.591
329.677
335.133
341.965
350.181
359.788
370.794
383.208
397.037
412.289
428.971
447.088
466.647
487.651
510.105
534.011
559.372
586.191
)
;
    }
    coldSide
    {
        type            mixed;
        refValue        uniform 300;
        refGradient     uniform 0;
        valueFraction   uniform 0.991591;
        source          uniform 0;
        value           nonuniform List<scalar> 
400
(
300.03
300.014
300.023
300.024
300.046
300.029
300.012
300.029
300.044
300.031
300.044
300.029
300.027
300.043
300.047
300.029
300.04
300.044
300.045
300.048
300.025
300.037
300.034
300.013
300.046
300.017
300.023
300.027
300.044
300.033
300.05
300.033
300.028
300.019
300.037