/*--------------------------------*- C++ -*----------------------------------*\
| =========                 |                                                 |
| \\      /  F ield         | OpenFOAM: The Open Source CFD Toolbox           |
|  \\    /   O peration     | Version:  2212                                  |
|   \\  /    A nd           | Website:  www.openfoam.com                      |
|    \\/     M anipulation  |                                                 |
\*---------------------------------------------------------------------------*/
FoamFile
{
    version     2.0;
    format      ascii;
    arch        "LSB;label=32;scalar=64";
    class       volScalarField;
    location    "0";
    object      T;
}
// * * * * * * * * * * * * * * * * * * * * * * * * * * * * * * * * * * * * * //

dimensions      [0 0 0 1 0 0 0];

internalField   nonuniform List<scalar> 
3200
(
336.13
336.648
337.24
337.98
338.413
338.658
338.741
338.954
339.187
339.078
339.131
339.078
338.862
338.431
337.921
337.287
336.828
336.195
335.54
334.917
331.585
332.057
332.498
333.198
333.581
333.83
333.877
334.033
334.257
334.152
334.173
334.155
333.984
333.606
333.196
332.549
332.16
331.622
331.058
330.553
326.888
327.314
327.624
328.317
328.597
328.817
328.898
329.02
329.208
329.138
329.098
329.124
328.952
328.631
328.343
327.713
327.405
326.954
326.476
326.083
322.106
322.467
322.713
323.322
323.532
323.697
323.793
323.916
324.041
323.985
323.917
323.983
323.813
323.555
323.336
322.768
322.531
322.195
321.807
321.487
317.227
317.533
317.767
318.256
318.373
318.495
318.614
318.709
318.776
318.745
318.691
318.756
318.598
318.397
318.188
317.782
317.601
317.314
317.03
316.805
312.329
312.582
312.765
313.105
313.155
313.249
313.33
313.442
313.415
313.442
313.38
313.451
313.354
313.192
312.998
312.767
312.654
312.382
312.201
312.036
307.408
307.559
307.709
307.878
307.918
307.996
308.006
308.12
308.077
308.1
308.039
308.075
308.064
307.895
307.833
307.687
307.625
307.434
307.351
307.253
302.475
302.531
302.575
302.659
302.669
302.694
302.686
302.717
302.706
302.725
302.694
302.713
302.708
302.644
302.625
302.585
302.542
302.484
302.462
302.429
337.14
337.571
338.416
339.004
339.436
339.826
340.145
340.118
340.311
340.293
340.314
340.263
340.083
339.826
339.138
338.43
337.91
337.221
336.626
336.014
332.422
332.761
333.545
334.067
334.446
334.767
335.028
334.988
335.188
335.142
335.15
335.178
334.954
334.778
334.182
333.561
333.077
332.5
331.967
331.456
327.598
327.865
328.535
329.021
329.365
329.586
329.798
329.756
329.951
329.91
329.91
329.935
329.744
329.559
329.079
328.55
328.089
327.668
327.24
326.779
322.673
322.909
323.429
323.882
324.145
324.333
324.435
324.456
324.626
324.59
324.564
324.586
324.456
324.27
323.911
323.449
323.075
322.775
322.453
321.992
317.687
317.899
318.28
318.665
318.88
319.003
319.079
319.103
319.225
319.241
319.133
319.21
319.093
318.917
318.665
318.273
318.018
317.775
317.569
317.172
312.666
312.802
313.098
313.384
313.559
313.581
313.637
313.702
313.796
313.782
313.703
313.789
313.686
313.559
313.391
313.088
312.958
312.747
312.619
312.283
307.643
307.706
307.854
308.024
308.172
308.183
308.216
308.224
308.312
308.267
308.259
308.335
308.236
308.172
308.075
307.859
307.817
307.709
307.639
307.391
302.584
302.595
302.635
302.69
302.759
302.751
302.748
302.762
302.793
302.753
302.773
302.799
302.76
302.746
302.708
302.652
302.629
302.613
302.569
302.469
338.555
338.993
339.833
340.308
340.853
341.339
341.738
341.835
341.889
341.875
341.72
341.809
341.512
341.427
340.625
340.254
339.609
338.673
338.042
337.436
333.639
333.985
334.734
335.109
335.622
336.015
336.379
336.464
336.528
336.504
336.357
336.465
336.175
336.149
335.461
335.102
334.509
333.674
333.183
332.663
328.581
328.919
329.536
329.859
330.304
330.636
330.898
331
331.067
331.026
330.942
331.002
330.737
330.746
330.195
329.804
329.299
328.63
328.212
327.833
323.496
323.783
324.261
324.57
324.87
325.169
325.363
325.496
325.517
325.474
325.462
325.464
325.235
325.256
324.877
324.463
324.064
323.492
323.172
322.889
318.321
318.587
318.934
319.16
319.423
319.683
319.758
319.855
319.913
319.863
319.887
319.864
319.685
319.69
319.447
319.081
318.814
318.327
318.08
317.842
313.106
313.306
313.548
313.672
313.911
314.127
314.12
314.26
314.308
314.204
314.257
314.207
314.112
314.11
313.9
313.649
313.499
313.128
312.998
312.733
307.862
308.006
308.154
308.22
308.354
308.494
308.487
308.592
308.634
308.546
308.58
308.559
308.494
308.546
308.337
308.198
308.133
307.902
307.83
307.621
302.637
302.687
302.747
302.758
302.8
302.873
302.847
302.884
302.879
302.865
302.869
302.88
302.854
302.866
302.793
302.75
302.741
302.657
302.634
302.542
339.897
340.451
341.317
341.897
342.289
342.939
343.342
343.685
343.686
343.66
343.42
343.583
343.139
342.894
342.519
341.923
341.194
340.52
339.579
339.099
334.808
335.236
336.006
336.505
336.85
337.46
337.789
338.066
338.085
338.035
337.85
337.939
337.599
337.382
337.079
336.507
335.887
335.293
334.493
334.084
329.6
329.894
330.642
331.05
331.333
331.893
332.117
332.33
332.416
332.312
332.145
332.25
331.916
331.759
331.529
330.993
330.444
329.983
329.323
329.001
324.294
324.536
325.186
325.495
325.748
326.274
326.389
326.568
326.656
326.529
326.331
326.475
326.201
326.087
325.894
325.445
324.975
324.601
324.114
323.815
318.92
319.137
319.642
319.883
320.095
320.543
320.574
320.765
320.825
320.688
320.5
320.612
320.435
320.384
320.163
319.861
319.458
319.162
318.834
318.533
313.548
313.693
314.09
314.259
314.389
314.746
314.745
314.886
314.907
314.813
314.69
314.781
314.605
314.624
314.425
314.203
313.92
313.7
313.479
313.271
308.132
308.246
308.454
308.581
308.643
308.868
308.869
308.935
308.948
308.925
308.854
308.885
308.775
308.79
308.695
308.552
308.366
308.261
308.142
307.992
302.725
302.773
302.83
302.881
302.895
302.994
302.973
302.981
302.989
302.981
302.974
302.964
302.958
302.933
302.92
302.865
302.815
302.769
302.742
302.653
341.388
342.028
342.879
343.535
344.026
344.471
344.933
345.311
345.432
345.436
345.307
345.27
344.965
344.567
344.269
343.629
342.738
342.15
341.366
340.667
336.099
336.598
337.328
337.918
338.371
338.744
339.09
339.501
339.575
339.527
339.444
339.406
339.214
338.787
338.569
337.998
337.21
336.727
336.025
335.432
330.689
331.09
331.701
332.19
332.615
332.937
333.202
333.563
333.632
333.547
333.523
333.51
333.368
332.943
332.75
332.262
331.602
331.186
330.566
330.098
325.214
325.488
326.03
326.388
326.787
327.011
327.27
327.583
327.6
327.558
327.475
327.519
327.465
327.057
326.867
326.488
325.949
325.611
325.058
324.729
319.682
319.88
320.282
320.568
320.884
321.046
321.273
321.526
321.521
321.54
321.347
321.458
321.449
321.129
320.947
320.632
320.259
320.006
319.554
319.286
314.085
314.283
314.518
314.712
314.931
315.074
315.241
315.45
315.441
315.416
315.272
315.38
315.399
315.153
315.003
314.776
314.518
314.359
314.027
313.802
308.461
308.6
308.712
308.822
308.984
309.091
309.155
309.333
309.289
309.273
309.171
309.234
309.312
309.136
309.006
308.863
308.733
308.624
308.428
308.288
302.827
302.886
302.918
302.96
302.995
303.066
303.074
303.114
303.101
303.114
303.068
303.095
303.131
303.072
303.028
302.969
302.918
302.894
302.822
302.759
342.792
343.625
344.395
345.309
345.865
346.162
346.801
346.9
347.062
347.189
347.039
347.117
346.913
346.381
345.96
345.206
344.519
343.944
342.803
342.257
337.335
337.962
338.655
339.447
339.964
340.175
340.736
340.81
340.989
341.146
340.934
341.033
340.864
340.392
340.052
339.329
338.772
338.289
337.251
336.846
331.765
332.248
332.863
333.521
333.922
334.116
334.601
334.672
334.846
335.016
334.798
334.862
334.757
334.283
334.052
333.35
332.917
332.509
331.65
331.334
326.103
326.43
326.976
327.483
327.819
327.963
328.443
328.459
328.634
328.757
328.596
328.601
328.549
328.171
327.927
327.358
326.953
326.635
325.995
325.751
320.356
320.606
321
321.361
321.672
321.828
322.224
322.226
322.385
322.429
322.326
322.259
322.292
322.001
321.807
321.308
321.015
320.766
320.238
320.089
314.573
314.786
314.959
315.236
315.529
315.659
315.914
315.931
316.04
316.037
316.004
315.939
315.98
315.789
315.637
315.232
315.056
314.84
314.474
314.362
308.741
308.877
308.992
309.135
309.341
309.417
309.583
309.59
309.619
309.669
309.609
309.601
309.641
309.528
309.425
309.153
309.066
308.889
308.695
308.656
302.939
302.973
303.019
303.077
303.117
303.153
303.22
303.22
303.231
303.247
303.25
303.225
303.245
303.199
303.141
303.063
303.045
302.979
302.907
302.912
344.373
345.313
345.933
346.853
347.429
347.853
348.403
348.528
348.659
348.785
348.834
348.79
348.589
347.99
347.658
346.953
346.16
345.459
344.49
343.751
338.71
339.489
339.974
340.832
341.287
341.674
342.164
342.267
342.344
342.474
342.52
342.475
342.328
341.812
341.467
340.896
340.187
339.612
338.74
338.148
332.931
333.541
333.95
334.705
335.058
335.384
335.849
335.889
335.959
336.068
336.153
336.066
335.923
335.525
335.257
334.764
334.171
333.63
332.873
332.425
327.076
327.45
327.85
328.531
328.795
329.082
329.456
329.474
329.556
329.589
329.694
329.564
329.468
329.181
328.953
328.536
328.043
327.626
326.964
326.62
321.117
321.359
321.701
322.258
322.441
322.682
323.001
322.986
323.074
323.103
323.172
323.036
322.969
322.785
322.596
322.223
321.876
321.54
321.004
320.768
315.142
315.252
315.532
315.941
316.081
316.215
316.434
316.467
316.525
316.562
316.625
316.428
316.455
316.376
316.192
315.867
315.66
315.406
315.028
314.831
309.106
309.178
309.339
309.578
309.695
309.751
309.861
309.904
309.932
309.941
309.996
309.857
309.898
309.889
309.744
309.509
309.393
309.243
309.034
308.884
303.047
303.055
303.147
303.221
303.242
303.271
303.285
303.332
303.328
303.327
303.364
303.318
303.313
303.328
303.271
303.189
303.15
303.095
303.036
302.954
345.683
346.662
347.459
348.46
348.937
349.469
350.036
350.104
350.523
350.683
350.561
350.422
350.179
349.637
349.339
348.366
347.875
346.778
345.907
345.145
339.737
340.584
341.293
342.221
342.643
343.092
343.556
343.641
344.048
344.151
344.078
343.904
343.7
343.237
342.939
342.073
341.691
340.684
339.953
339.333
333.81
334.486
335.065
335.863
336.255
336.606
336.973
337.125
337.409
337.5
337.432
337.289
337.102
336.755
336.503
335.72
335.392
334.564
333.912
333.428
327.779
328.341
328.771
329.455
329.801
330.062
330.308
330.474
330.734
330.793
330.716
330.618
330.448
330.177
329.982
329.335
328.987
328.405
327.799
327.429
321.67
322.147
322.409
322.962
323.25
323.445
323.574
323.757
323.952
324.025
323.937
323.85
323.727
323.506
323.37
322.848
322.578
322.159
321.643
321.343
315.533
315.871
316.028
316.416
316.648
316.82
316.856
317.008
317.151
317.205
317.131
317.03
317.012
316.818
316.73
316.327
316.141
315.885
315.501
315.229
309.324
309.536
309.627
309.859
310.038
310.126
310.107
310.194
310.321
310.353
310.303
310.208
310.238
310.123
310.049
309.817
309.729
309.519
309.3
309.135
303.125
303.206
303.226
303.288
303.382
303.401
303.383
303.408
303.464
303.472
303.457
303.408
303.436
303.393
303.345
303.286
303.252
303.192
303.123
303.057
347.076
348.015
348.927
349.979
350.441
351.13
351.484
351.797
352.061
352.376
352.247
352.102
351.708
351.212
350.764
350.028
349.506
348.281
347.327
346.689
340.984
341.813
342.63
343.543
343.911
344.472
344.801
345.088
345.313
345.599
345.445
345.382
345.037
344.615
344.204
343.53
343.117
342.012
341.2
340.688
334.797
335.523
336.262
336.967
337.318
337.758
338.043
338.299
338.463
338.761
338.55
338.612
338.239
337.904
337.555
336.94
336.603
335.673
334.991
334.567
328.536
329.154
329.783
330.324
330.668
330.969
331.198
331.442
331.56
331.826
331.594
331.762
331.412
331.116
330.823
330.338
330.034
329.272
328.716
328.343
322.243
322.735
323.225
323.621
323.98
324.126
324.331
324.529
324.63
324.797
324.593
324.796
324.49
324.256
323.994
323.637
323.412
322.806
322.399
322.12
315.909
316.254
316.606
316.888
317.175
317.239
317.414
317.559
317.626
317.734
317.578
317.746
317.528
317.367
317.168
316.851
316.757
316.316
316.026
315.845
309.547
309.771
309.986
310.155
310.33
310.367
310.495
310.551
310.598
310.684
310.58
310.687
310.563
310.441
310.305
310.114
310.079
309.823
309.615
309.512
303.197
303.282
303.357
303.383
303.45
303.49
303.518
303.527
303.554
303.588
303.55
303.595
303.554
303.508
303.459
303.37
303.365
303.301
303.244
303.188
348.43
349.415
350.49
351.333
351.938
352.641
352.919
353.409
353.537
353.721
353.828
353.574
353.231
352.82
352.433
351.548
350.949
349.745
348.881
348.037
342.178
343
343.995
344.714
345.26
345.817
346.056
346.447
346.617
346.768
346.848
346.666
346.363
345.964
345.634
344.849
344.333
343.254
342.529
341.801
335.829
336.524
337.368
337.947
338.439
338.914
339.144
339.411
339.603
339.722
339.795
339.66
339.368
339.03
338.73
338.061
337.653
336.693
336.134
335.485
329.394
329.97
330.673
331.165
331.524
331.923
332.145
332.371
332.515
332.594
332.678
332.588
332.328
332.04
331.743
331.238
330.924
330.115
329.653
329.148
322.897
323.406
323.911
324.282
324.546
324.869
325.07
325.257
325.379
325.347
325.481
325.445
325.213
324.984
324.715
324.361
324.104
323.503
323.104
322.71
316.381
316.745
317.118
317.388
317.527
317.798
317.955
318.105
318.212
318.113
318.245
318.244
318.055
317.896
317.699
317.402
317.231
316.869
316.524
316.243
309.861
310.058
310.323
310.435
310.536
310.695
310.793
310.876
310.942
310.871
310.945
310.98
310.884
310.768
310.663
310.395
310.351
310.134
309.943
309.761
303.292
303.37
303.474
303.495
303.523
303.604
303.632
303.639
303.665
303.653
303.652
303.662
303.671
303.622
303.591
303.497
303.468
303.407
303.335
303.279
349.73
350.615
351.758
352.553
353.32
354.09
354.443
354.76
355.178
355.153
355.15
355.04
354.799
354.243
354.004
353.147
352.267
351.063
350.217
349.277
343.316
344.081
345.055
345.772
346.392
347.075
347.337
347.619
348.035
347.994
348.02
347.922
347.692
347.186
347.001
346.24
345.479
344.423
343.674
342.877
336.802
337.447
338.31
338.877
339.342
339.96
340.165
340.405
340.797
340.746
340.765
340.667
340.491
340.036
339.909
339.25
338.608
337.728
337.079
336.373
330.228
330.765
331.453
331.921
332.236
332.777
332.97
333.134
333.483
333.451
333.454
333.418
333.184
332.817
332.762
332.212
331.707
330.981
330.424
329.829
323.561
324.041
324.504
324.902
325.114
325.537
325.707
325.821
326.138
326.091
326.114
326.081
325.854
325.561
325.509
325.089
324.719
324.146
323.69
323.235
316.828
317.205
317.506
317.81
317.948
318.267
318.393
318.505
318.704
318.695
318.689
318.69
318.493
318.281
318.212
317.959
317.696
317.294
316.938
316.608
310.203
310.365
310.513
310.746
310.786
310.994
311.059
311.118
311.26
311.271
311.234
311.253
311.134
311.008
310.933
310.811
310.596
310.391
310.187
309.988
303.424
303.48
303.517
303.615
303.608
303.684
303.711
303.721
303.78
303.777
303.77
303.79
303.741
303.688
303.67
303.618
303.554
303.488
303.419
303.352
351.077
351.715
352.838
353.817
354.592
355.339
355.912
356.265
356.633
356.741
356.626
356.513
356.152
355.806
355.005
354.466
353.379
352.353
351.383
350.629
344.462
345.001
345.983
346.856
347.487
348.19
348.64
348.955
349.307
349.366
349.228
349.203
348.835
348.548
347.882
347.422
346.437
345.536
344.682
344.04
337.757
338.172
339.036
339.792
340.293
340.949
341.314
341.551
341.904
341.884
341.775
341.774
341.455
341.192
340.686
340.269
339.402
338.658
337.903
337.396
330.97
331.345
332.011
332.69
333.063
333.611
333.88
334.07
334.392
334.374
334.262
334.322
333.977
333.794
333.422
333.052
332.31
331.708
331.125
330.716
324.147
324.44
324.945
325.519
325.805
326.219
326.373
326.537
326.796
326.805
326.714
326.774
326.482
326.332
326.093
325.786
325.185
324.725
324.29
323.95
317.288
317.469
317.843
318.301
318.47
318.753
318.864
318.943
319.174
319.169
319.078
319.194
318.922
318.845
318.686
318.451
318.011
317.636
317.376
317.144
310.43
310.508
310.736
311.031
311.123
311.264
311.36
311.389
311.487
311.497
311.471
311.546
311.39
311.331
311.222
311.072
310.815
310.596
310.456
310.298
303.508
303.529
303.603
303.694
303.709
303.776
303.813
303.822
303.859
303.862
303.832
303.878
303.828
303.808
303.779
303.709
303.638
303.577
303.517
303.451
351.899
352.908
354.023
354.876
355.838
356.613
357.065
357.507
357.759
358.016
357.695
357.833
357.568
357.129
356.232
355.677
354.822
353.776
352.53
351.691
345.16
346.021
346.981
347.707
348.579
349.26
349.659
350.03
350.273
350.476
350.151
350.321
350.105
349.697
348.912
348.424
347.621
346.766
345.673
344.989
338.304
339.082
339.86
340.471
341.207
341.804
342.192
342.488
342.663
342.852
342.516
342.728
342.542
342.148
341.508
341.078
340.379
339.647
338.755
338.19
331.402
332.029
332.694
333.188
333.781
334.295
334.615
334.811
334.974
335.167
334.841
335.083
334.934
334.527
334.079
333.709
333.073
332.527
331.76
331.346
324.435
324.951
325.493
325.859
326.311
326.694
326.969
327.125
327.242
327.401
327.128
327.359
327.215
326.93
326.57
326.264
325.729
325.407
324.752
324.442
317.442
317.876
318.269
318.485
318.792
319.095
319.303
319.396
319.525
319.583
319.372
319.58
319.499
319.311
319.04
318.801
318.408
318.189
317.697
317.506
310.498
310.747
311.007
311.121
311.319
311.5
311.611
311.665
311.761
311.748
311.66
311.807
311.731
311.642
311.436
311.269
311.075
310.945
310.634
310.513
303.518
303.611
303.711
303.737
303.802
303.848
303.879
303.914
303.961
303.933
303.907
303.964
303.928
303.907
303.839
303.747
303.721
303.671
303.576
303.533
352.842
353.889
355.047
356.062
356.91
357.911
358.372
358.87
359.005
359.111
359.002
358.867
358.821
358.417
357.454
356.858
355.933
354.898
353.773
352.802
345.976
346.926
347.884
348.803
349.497
350.408
350.788
351.22
351.365
351.409
351.325
351.209
351.159
350.809
349.93
349.442
348.647
347.754
346.711
345.949
339.068
339.842
340.595
341.441
341.968
342.765
343.054
343.501
343.603
343.646
343.52
343.431
343.421
343.091
342.334
341.953
341.27
340.515
339.592
338.999
332.036
332.661
333.28
333.969
334.398
335.038
335.294
335.666
335.793
335.827
335.669
335.624
335.638
335.332
334.701
334.426
333.817
333.22
332.441
332.01
324.946
325.447
325.917
326.459
326.807
327.265
327.507
327.824
327.898
327.91
327.795
327.757
327.781
327.572
327.033
326.826
326.327
325.869
325.266
324.988
317.827
318.219
318.587
318.941
319.198
319.479
319.708
319.913
319.937
319.958
319.868
319.855
319.897
319.763
319.351
319.19
318.823
318.503
318.048
317.877
310.695
310.974
311.181
311.378
311.531
311.679
311.861
311.987
311.967
311.993
311.978
311.922
311.954
311.844
311.655
311.519
311.283
311.111
310.821
310.751
303.593
303.689
303.763
303.824
303.862
303.895
303.98
304.028
304.002
304.021
304.024
303.984
303.999
303.973
303.922
303.856
303.787
303.73
303.62
303.589
353.726
355.025
355.872
357.034
357.912
358.549
359.21
359.713
360.025
360.204
360.11
360.094
359.74
359.489
358.69
357.777
357.066
356.006
354.779
354.024
346.793
347.892
348.597
349.616
350.394
350.935
351.478
351.917
352.253
352.385
352.297
352.312
351.998
351.749
351.027
350.222
349.611
348.728
347.638
346.991
339.727
340.694
341.177
342.156
342.782
343.265
343.718
344.035
344.368
344.439
344.383
344.435
344.166
343.966
343.252
342.62
342.077
341.397
340.453
339.911
332.62
333.433
333.762
334.594
335.125
335.482
335.882
336.119
336.44
336.44
336.404
336.425
336.215
336.094
335.463
334.972
334.476
334.001
333.149
332.754
325.415
326.092
326.355
326.953
327.362
327.614
327.985
328.156
328.384
328.419
328.374
328.391
328.239
328.163
327.579
327.251
326.892
326.504
325.815
325.498
318.19
318.703
318.861
319.308
319.621
319.747
320.033
320.139
320.327
320.322
320.29
320.304
320.202
320.178
319.73
319.478
319.292
318.96
318.409
318.238
310.953
311.257
311.336
311.613
311.806
311.835
312.038
312.071
312.222
312.208
312.193
312.202
312.143
312.15
311.882
311.689
311.606
311.398
311.024
310.929
303.668
303.782
303.799
303.908
303.958
303.967
304.053
304.065
304.104
304.078
304.099
304.098
304.081
304.077
303.989
303.921
303.901
303.805
303.677
303.655
354.701
355.659
356.715
357.828
358.769
359.331
360.03
360.651
360.995
361.175
361.156
361.079
360.912
360.534
359.846
358.786
357.851
356.944
355.672
355.009
347.595
348.413
349.345
350.288
351.155
351.598
352.208
352.745
353.041
353.203
353.216
353.139
352.994
352.66
352.019
351.173
350.318
349.51
348.416
347.881
340.388
341.107
341.871
342.692
343.45
343.822
344.298
344.782
345.008
345.156
345.129
345.093
344.957
344.712
344.129
343.467
342.715
342.013
341.068
340.664
333.119
333.748
334.322
334.979
335.657
335.964
336.335
336.734
336.886
337.052
337.024
337.017
336.851
336.69
336.192
335.674
335.079
334.464
333.696
333.36
325.785
326.332
326.76
327.21
327.781
328.009
328.3
328.6
328.722
328.855
328.856
328.881
328.705
328.563
328.214
327.783
327.352
326.853
326.257
326.001
318.487
318.852
319.127
319.422
319.879
320
320.242
320.422
320.559
320.627
320.671
320.652
320.52
320.425
320.17
319.862
319.54
319.223
318.801
318.615
311.131
311.342
311.492
311.644
311.95
312.028
312.148
312.269
312.394
312.385
312.444
312.417
312.321
312.275
312.132
311.953
311.76
311.544
311.302
311.199
303.734
303.818
303.849
303.885
304.002
304.059
304.054
304.111
304.159
304.15
304.171
304.142
304.136
304.12
304.06
304.001
303.94
303.874
303.795
303.756
355.103
356.325
357.592
358.606
359.818
360.408
361.042
361.675
361.792
361.962
361.953
361.872
361.872
361.222
360.656
359.856
358.827
357.815
356.812
355.601
347.935
348.995
350.105
350.965
352.045
352.548
353.072
353.633
353.713
353.891
353.875
353.777
353.806
353.249
352.794
352.056
351.146
350.262
349.392
348.401
340.702
341.574
342.492
343.238
344.178
344.617
345.032
345.519
345.599
345.692
345.726
345.641
345.638
345.202
344.816
344.15
343.387
342.632
341.916
341.102
333.392
334.133
334.856
335.431
336.237
336.589
336.895
337.329
337.429
337.444
337.519
337.429
337.429
337.089
336.702
336.185
335.554
334.938
334.349
333.694
326.012
326.665
327.209
327.595
328.198
328.53
328.698
329.069
329.193
329.174
329.239
329.168
329.119
328.911
328.543
328.16
327.658
327.219
326.735
326.222
318.607
319.117
319.488
319.693
320.157
320.416
320.519
320.786
320.935
320.862
320.921
320.867
320.85
320.688
320.393
320.092
319.761
319.503
319.125
318.754
311.135
311.492
311.781
311.825
312.149
312.26
312.348
312.466
312.566
312.531
312.586
312.526
312.517
312.434
312.265
312.079
311.863
311.722
311.504
311.228
303.716
303.84
303.958
303.963
304.065
304.112
304.126
304.17
304.202
304.196
304.218
304.208
304.201
304.17
304.125
304.062
304.015
303.942
303.861
303.764
355.682
356.858
358.067
359.269
360.577
361.167
361.802
362.563
362.497
362.719
362.93
362.664
362.376
361.686
361.317
360.648
359.585
358.653
357.418
356.391
348.418
349.467
350.52
351.584
352.714
353.21
353.73
354.415
354.315
354.542
354.715
354.476
354.267
353.618
353.34
352.728
351.796
351.026
349.961
349.059
341.056
342.035
342.89
343.774
344.716
345.153
345.553
346.192
346.078
346.303
346.393
346.26
346.11
345.511
345.268
344.707
343.96
343.31
342.377
341.62
333.672
334.531
335.215
335.887
336.654
337.007
337.344
337.876
337.696
337.978
337.995
337.954
337.891
337.326
337.117
336.616
336.061
335.515
334.734
334.08
326.248
326.948
327.523
327.964
328.582
328.82
329.11
329.54
329.316
329.623
329.589
329.619
329.548
329.101
328.929
328.479
328.081
327.665
327.049
326.484
318.772
319.293
319.72
320.024
320.441
320.563
320.83
321.16
320.94
321.191
321.191
321.241
321.158
320.874
320.695
320.359
320.086
319.807
319.335
318.93
311.293
311.62
311.878
312.058
312.28
312.345
312.501
312.713
312.542
312.74
312.774
312.762
312.707
312.567
312.448
312.25
312.088
311.895
311.63
311.358
303.786
303.892
303.998
304.045
304.127
304.142
304.191
304.266
304.192
304.274
304.285
304.263
304.259
304.209
304.174
304.116
304.051
303.983
303.888
303.807
356.006
357.573
358.719
359.944
360.945
361.827
362.357
362.876
363.198
363.541
363.577
363.282
363.157
362.411
361.95
361.22
360.116
359.206
358
356.658
348.718
350.05
351.037
352.152
353.019
353.746
354.205
354.676
354.939
355.252
355.279
355.041
354.919
354.252
353.859
353.24
352.307
351.46
350.425
349.342
341.349
342.468
343.314
344.225
344.968
345.579
345.992
346.374
346.618
346.921
346.926
346.717
346.61
346.05
345.71
345.206
344.38
343.658
342.782
341.903
333.876
334.87
335.571
336.25
336.834
337.354
337.678
338.076
338.204
338.468
338.47
338.328
338.236
337.758
337.469
337.105
336.404
335.827
335.079
334.358
326.398
327.222
327.743
328.204
328.673
329.114
329.365
329.657
329.813
329.965
329.96
329.898
329.831
329.436
329.189
328.919
328.357
327.912
327.341
326.797
318.911
319.499
319.873
320.143
320.487
320.851
321.045
321.226
321.35
321.416
321.411
321.401
321.394
321.057
320.868
320.684
320.322
319.922
319.55
319.229
311.352
311.73
311.955
312.1
312.305
312.53
312.688
312.779
312.876
312.846
312.839
312.866
312.903
312.666
312.528
312.451
312.218
311.987
311.732
311.587
303.818
303.925
304.011
304.065
304.129
304.228
304.266
304.294
304.316
304.308
304.308
304.311
304.345
304.252
304.194
304.182
304.101
304.019
303.95
303.901
356.406
357.729
358.852
359.983
361.176
362.124
362.736
362.955
363.583
363.86
363.837
363.52
363.569
362.819
362.352
361.373
360.64
359.405
358.16
357.17
349.071
350.211
351.162
352.114
353.177
353.995
354.48
354.757
355.252
355.539
355.462
355.202
355.243
354.564
354.173
353.325
352.707
351.604
350.493
349.742
341.633
342.648
343.397
344.193
345.084
345.839
346.144
346.456
346.855
347.115
347.011
346.821
346.816
346.27
345.956
345.228
344.696
343.767
342.837
342.195
334.157
334.987
335.559
336.216
336.965
337.61
337.775
338.091
338.414
338.619
338.531
338.35
338.326
337.935
337.658
337.032
336.576
335.905
335.109
334.569
326.622
327.231
327.662
328.213
328.821
329.285
329.416
329.686
329.934
330.105
330.018
329.871
329.85
329.57
329.317
328.854
328.464
327.981
327.353
326.944
319.053
319.474
319.806
320.171
320.628
320.95
321.057
321.285
321.405
321.511
321.46
321.394
321.371
321.138
320.974
320.678
320.378
320.01
319.563
319.291
311.459
311.703
311.92
312.113
312.403
312.631
312.654
312.801
312.873
312.923
312.852
312.881
312.87
312.713
312.629
312.466
312.245
312.011
311.747
311.618
303.857
303.929
304.013
304.052
304.166
304.235
304.234
304.302
304.304
304.35
304.283
304.339
304.32
304.261
304.247
304.172
304.102
304.043
303.935
303.896
)
;

boundaryField
{
    hotSide
    {
        type            fixedGradient;
        gradient        nonuniform List<scalar> 
400
(
350.076
366.818
383.458
399.922
416.136
432.024
447.51
462.518
476.975
490.806
503.942
516.314
527.858
538.513
548.222
556.935
564.605
571.194
576.665
580.994
357.044
374.293
391.443
408.421
425.149
441.548
457.54
473.048
487.995
502.304
515.903
528.721
540.692
551.752
561.843
570.912
578.911
585.798
591.538
596.103
363.119
380.833
398.454
415.904
433.105
449.976
466.437
482.407
497.808
512.561
526.591
539.825
552.194
563.633
574.082
583.486
591.794
598.965
604.96
609.751
368.301
386.435
404.481
422.36
439.991
457.292
474.179
490.571
506.387
521.546
535.97
549.586
562.322
574.111
584.89
594.604
603.2
610.635
616.869
621.872
372.595
391.102
409.526
427.787
445.801
463.485
480.754
497.524
513.712
529.235
544.016
557.976
571.043
583.148
594.228
604.224
613.083
620.76
627.214
632.414
376.013
394.844
413.596
432.189
450.537
468.555
486.157
503.258
519.772
535.616
550.709
564.973
578.333
590.718
602.065
612.312
621.407
629.3
635.953
641.332
378.572
397.673
416.701
435.573
454.203
472.504
490.389
507.771
524.563
540.68
556.04
570.564
584.176
596.803
608.38
618.845
628.144
636.228
643.055
648.592
380.287
399.605
418.855
437.952
456.81
475.34
493.454
511.064
528.083
544.424
560.004
574.742
588.561
601.389
613.158
623.805
633.275
641.519
648.494
654.166
381.178
400.657
420.073
439.339
458.368
477.071
495.36
513.144
530.336
546.849
562.599
577.503
591.484
604.468
616.388
627.179
636.786
645.159
652.253
658.035
381.259
400.844
420.368
439.745
458.888
477.707
496.113
514.016
531.327
547.959
563.826
578.846
592.941
606.037
618.065
628.961
638.668
647.135
654.32
660.186
380.547
400.178
419.752
439.182
458.38
477.257
495.723
513.687
531.061
547.756
563.688
578.773
592.934
606.095
618.186
629.146
638.915
647.443
654.686
660.609
379.052
398.673
418.237
437.661
456.855
475.73
494.197
512.165
529.544
546.248
562.19
577.289
591.464
604.642
616.754
627.735
637.527
646.08
653.351
659.302
376.784
396.335
415.831
435.189
454.319
473.134
491.542
509.455
526.783
543.439
559.337
574.396
588.537
601.684
613.77
624.73
634.507
643.05
650.315
656.265
373.748
393.17
412.54
431.772
450.779
469.473
487.764
505.564
522.783
539.336
555.137
570.104
584.159
597.228
609.243
620.14
629.862
638.358
645.585
651.507
369.947
389.183
408.367
427.414
446.239
464.754
482.87
500.499
517.553
533.947
549.596
564.419
578.34
591.284
603.183
613.975
623.604
632.018
639.176
645.041
365.383
384.375
403.316
422.121
440.706
458.983
476.867
494.268
511.102
527.283
542.728
557.356
571.093
583.865
595.606
606.253
615.75
624.049
631.106
636.887
360.056
378.749
397.39
415.896
434.184
452.169
469.763
486.883
503.442
519.357
534.547
548.932
562.438
574.994
586.533
596.995
606.325
614.475
621.402
627.073
353.968
372.308
390.594
408.747
426.684
444.321
461.573
478.357
494.59
510.189
525.074
539.169
552.399
564.696
575.994
586.234
595.363
603.332
610.101
615.637
347.122
365.057
382.938
400.684
418.217
435.455
452.313
468.712
484.569
499.803
514.338
528.097
541.01
553.007
564.026
574.009
582.904
590.664
597.249
602.627
339.526
357.007
374.432
391.724
408.803
425.592
442.009
457.974
473.409
488.234
502.375
515.757
528.312
539.972
550.678
560.371
569.002
576.526
582.904
588.104
)
;
    }
    coldSide
    {
        type            mixed;
        refValue        uniform 300;
        refGradient     uniform 0;
        valueFraction   uniform 0.991591;
        source          uniform 0;
        value           nonuniform List<scalar> 
400
(
300.021
300.022
300.022
300.023
300.024
300.025
300.026
300.026
300.027
300.028
300.029
300.029
300.03
300.03
300.031
300.031
300.031
300.032
300.032
300.032
300.021
300.022
300.023
300.023
300.024
300.025
300.026
300.027
300.028
300.028
300.029
300.03
300.03
300.031
300.032
300.032
300.032