/*--------------------------------*- C++ -*----------------------------------*\
| =========                 |                                                 |
| \\      /  F ield         | OpenFOAM: The Open Source CFD Toolbox           |
|  \\    /   O peration     | Version:  2212                                  |
|   \\  /    A nd           | Website:  www.openfoam.com                      |
|    \\/     M anipulation  |                                                 |
\*---------------------------------------------------------------------------*/
FoamFile
{
    version     2.0;
    format      ascii;
    arch        "LSB;label=32;scalar=64";
    class       volScalarField;
    location    "0";
    object      Ttrue;
}
// * * * * * * * * * * * * * * * * * * * * * * * * * * * * * * * * * * * * * //

dimensions      [0 0 0 1 0 0 0];

internalField   uniform 400;

boundaryField
{
    hotSide
    {
        type            fixedGradient;
        gradient        nonuniform List<scalar> 
400
(
457.793
458.639
460.344
462.935
466.448
470.93
476.434
483.018
490.742
499.666
509.849
521.345
534.204
548.472
564.187
581.385
600.093
620.334
642.126
665.484
474.255
474.97
476.42
478.638
481.674
485.589
490.454
496.344
503.336
511.507
520.929
531.67
543.791
557.345
572.377
588.927
607.024
626.695
647.957
670.823
492.069
492.63
493.774
495.55
498.021
501.27
505.388
510.472
516.62
523.929
532.488
542.38
553.676
566.44
580.724
596.569
614.009
633.07
653.77
676.12
510.943
511.322
512.112
513.375
515.195
517.679
520.945
525.115
530.315
536.664
544.27
553.231
563.634
575.548
589.033
604.133
620.885
639.312
659.431
681.253
530.347
530.523
530.915
531.603
532.698
534.335
536.662
539.836
544.008
549.323
555.913
563.892
573.358
584.391
597.053
611.395
627.449
645.24
664.782
686.081
549.474
549.431
549.398
549.475
549.8
550.543
551.888
554.023
557.134
561.392
566.95
573.94
582.472
592.632
604.488
618.09
633.471
650.652
669.644
690.448
567.226
566.966
566.509
565.978
565.542
565.405
565.788
566.915
569.002
572.248
576.826
582.884
590.542
599.892
611.005
623.931
638.7
655.331
673.83
694.194
582.294
581.837
580.998
579.921
578.804
577.884
577.415
577.654
578.846
581.212
584.944
590.202
597.115
605.781
616.27
628.63
642.892
659.068
677.162
697.166
593.321
592.713
591.581
590.088
588.453
586.938
585.826
585.398
585.92
587.631
590.737
595.407
601.774
609.94
619.976
631.929
645.825
661.676
679.481
699.23
599.163
598.473
597.183
595.462
593.546
591.71
590.25
589.463
589.625
590.986
593.758
598.115
604.193
612.095
621.893
633.631
647.336
663.018
680.672
700.288
599.163
598.473
597.183
595.462
593.546
591.71
590.25
589.463
589.625
590.986
593.758
598.115
604.193
612.095
621.893
633.631
647.336
663.018
680.672
700.288
593.321
592.713
591.581
590.088
588.453
586.938
585.826
585.398
585.92
587.631
590.737
595.407
601.774
609.94
619.976
631.929
645.825
661.676
679.481
699.23
582.294
581.837
580.998
579.921
578.804
577.884
577.415
577.654
578.846
581.212
584.944
590.202
597.115
605.781
616.27
628.63
642.892
659.068
677.162
697.166
567.226
566.966
566.509
565.978
565.542
565.405
565.788
566.915
569.002
572.248
576.826
582.884
590.542
599.892
611.005
623.931
638.7
655.331
673.83
694.194
549.474
549.431
549.398
549.475
549.8
550.543
551.888
554.023
557.134
561.392
566.95
573.94
582.472
592.632
604.488
618.09
633.471
650.652
669.644
690.448
530.347
530.523
530.915
531.603
532.698
534.335
536.662
539.836
544.008
549.323
555.913
563.892
573.358
584.391
597.053
611.395
627.449
645.24
664.782
686.081
510.943
511.322
512.112
513.375
515.195
517.679
520.945
525.115
530.315
536.664
544.27
553.231
563.634
575.548
589.033
604.133
620.885
639.312
659.431
681.253
492.069
492.63
493.774
495.55
498.021
501.27
505.388
510.472
516.62
523.929
532.488
542.38
553.676
566.44
580.724
596.569
614.009
633.07
653.77
676.12
474.255
474.97
476.42
478.638
481.674
485.589
490.454
496.344
503.336
511.507
520.929
531.67
543.791
557.345
572.377
588.927
607.024
626.695
647.957
670.823
457.793
458.639
460.344
462.935
466.448
470.93
476.434
483.018
490.742
499.666
509.849
521.345
534.204
548.472
564.187
581.385
600.093
620.334
642.126
665.484
)
;
    }
    coldSide
    {
        type            mixed;
        refValue        uniform 300;
        refGradient     uniform 0;
        valueFraction   uniform 0.991591;
        source          uniform 0;
        value           uniform 0;
    }
    adiabaticPlanes
    {
        type            fixedGradient;
        gradient        uniform 0;
    }
}

