/*--------------------------------*- C++ -*----------------------------------*\
| =========                 |                                                 |
| \\      /  F ield         | OpenFOAM: The Open Source CFD Toolbox           |
|  \\    /   O peration     | Version:  2212                                  |
|   \\  /    A nd           | Website:  www.openfoam.com                      |
|    \\/     M anipulation  |                                                 |
\*---------------------------------------------------------------------------*/
FoamFile
{
    version     2.0;
    format      ascii;
    arch        "LSB;label=32;scalar=64";
    class       volScalarField;
    location    "./ITHACAoutput/true/2.2";
    object      trueState;
}
// * * * * * * * * * * * * * * * * * * * * * * * * * * * * * * * * * * * * * //

dimensions      [0 0 0 1 0 0 0];

internalField   nonuniform List<scalar> 
3200
(
342.533
343.537
344.819
346.216
347.655
349.067
350.371
351.471
352.273
352.696
352.696
352.273
351.471
350.371
349.067
347.655
346.216
344.819
343.537
342.533
336.899
337.749
338.854
340.063
341.308
342.53
343.657
344.607
345.3
345.665
345.665
345.3
344.607
343.657
342.53
341.308
340.063
338.854
337.749
336.899
331.25
331.955
332.886
333.907
334.96
335.992
336.943
337.746
338.33
338.638
338.638
338.33
337.746
336.943
335.992
334.96
333.907
332.886
331.955
331.25
325.589
326.156
326.915
327.75
328.61
329.453
330.231
330.886
331.362
331.614
331.614
331.362
330.886
330.231
329.453
328.61
327.75
326.915
326.156
325.589
319.918
320.353
320.942
321.591
322.259
322.915
323.518
324.027
324.397
324.593
324.593
324.397
324.027
323.518
322.915
322.259
321.591
320.942
320.353
319.918
314.239
314.548
314.967
315.43
315.908
316.376
316.807
317.17
317.434
317.573
317.573
317.434
317.17
316.807
316.376
315.908
315.43
314.967
314.548
314.239
308.555
308.739
308.991
309.269
309.556
309.837
310.095
310.313
310.472
310.555
310.555
310.472
310.313
310.095
309.837
309.556
309.269
308.991
308.739
308.555
302.868
302.93
303.014
303.107
303.203
303.297
303.384
303.457
303.51
303.538
303.538
303.51
303.457
303.384
303.297
303.203
303.107
303.014
302.93
302.868
342.631
343.627
344.897
346.281
347.705
349.102
350.39
351.477
352.268
352.686
352.686
352.268
351.477
350.39
349.102
347.705
346.281
344.897
343.627
342.631
336.983
337.826
338.922
340.119
341.352
342.56
343.674
344.613
345.296
345.657
345.657
345.296
344.613
343.674
342.56
341.352
340.119
338.922
337.826
336.983
331.321
332.02
332.944
333.955
334.997
336.018
336.958
337.751
338.327
338.631
338.631
338.327
337.751
336.958
336.018
334.997
333.955
332.944
332.02
331.321
325.646
326.209
326.962
327.789
328.64
329.475
330.243
330.89
331.36
331.609
331.609
331.36
330.89
330.243
329.475
328.64
327.789
326.962
326.209
325.646
319.963
320.395
320.979
321.621
322.283
322.931
323.528
324.031
324.396
324.589
324.589
324.396
324.031
323.528
322.931
322.283
321.621
320.979
320.395
319.963
314.271
314.577
314.993
315.452
315.925
316.388
316.814
317.172
317.433
317.571
317.571
317.433
317.172
316.814
316.388
315.925
315.452
314.993
314.577
314.271
308.574
308.757
309.007
309.282
309.566
309.844
310.099
310.315
310.471
310.554
310.554
310.471
310.315
310.099
309.844
309.566
309.282
309.007
308.757
308.574
302.875
302.936
303.019
303.112
303.207
303.3
303.385
303.458
303.51
303.538
303.538
303.51
303.458
303.385
303.3
303.207
303.112
303.019
302.936
302.875
342.826
343.807
345.056
346.414
347.81
349.176
350.435
351.495
352.266
352.673
352.673
352.266
351.495
350.435
349.176
347.81
346.414
345.056
343.807
342.826
337.152
337.982
339.059
340.234
341.442
342.624
343.712
344.629
345.295
345.646
345.646
345.295
344.629
343.712
342.624
341.442
340.234
339.059
337.982
337.152
331.463
332.152
333.059
334.052
335.073
336.072
336.991
337.764
338.326
338.623
338.623
338.326
337.764
336.991
336.072
335.073
334.052
333.059
332.152
331.463
325.763
326.317
327.057
327.869
328.703
329.519
330.27
330.901
331.36
331.602
331.602
331.36
330.901
330.27
329.519
328.703
327.869
327.057
326.317
325.763
320.053
320.478
321.052
321.683
322.332
322.966
323.549
324.04
324.396
324.584
324.584
324.396
324.04
323.549
322.966
322.332
321.683
321.052
320.478
320.053
314.336
314.637
315.046
315.496
315.96
316.413
316.829
317.179
317.433
317.567
317.567
317.433
317.179
316.829
316.413
315.96
315.496
315.046
314.637
314.336
308.613
308.793
309.038
309.309
309.587
309.859
310.109
310.319
310.471
310.552
310.552
310.471
310.319
310.109
309.859
309.587
309.309
309.038
308.793
308.613
302.888
302.948
303.03
303.12
303.214
303.305
303.389
303.459
303.51
303.537
303.537
303.51
303.459
303.389
303.305
303.214
303.12
303.03
302.948
302.888
343.123
344.08
345.298
346.619
347.973
349.296
350.511
351.533
352.276
352.667
352.667
352.276
351.533
350.511
349.296
347.973
346.619
345.298
344.08
343.123
337.408
338.218
339.268
340.412
341.584
342.728
343.78
344.663
345.304
345.642
345.642
345.304
344.663
343.78
342.728
341.584
340.412
339.268
338.218
337.408
331.679
332.351
333.236
334.202
335.193
336.16
337.048
337.794
338.335
338.62
338.62
338.335
337.794
337.048
336.16
335.193
334.202
333.236
332.351
331.679
325.939
326.48
327.202
327.991
328.801
329.592
330.317
330.926
331.368
331.601
331.601
331.368
330.926
330.317
329.592
328.801
327.991
327.202
326.48
325.939
320.19
320.605
321.165
321.778
322.408
323.022
323.586
324.059
324.402
324.583
324.583
324.402
324.059
323.586
323.022
322.408
321.778
321.165
320.605
320.19
314.433
314.727
315.126
315.564
316.014
316.453
316.855
317.193
317.438
317.567
317.567
317.438
317.193
316.855
316.453
316.014
315.564
315.126
314.727
314.433
308.672
308.847
309.087
309.35
309.62
309.883
310.125
310.327
310.474
310.552
310.552
310.474
310.327
310.125
309.883
309.62
309.35
309.087
308.847
308.672
302.907
302.966
303.046
303.134
303.225
303.313
303.394
303.462
303.511
303.537
303.537
303.511
303.462
303.394
303.313
303.225
303.134
303.046
302.966
302.907
343.522
344.45
345.628
346.902
348.203
349.471
350.633
351.607
352.313
352.685
352.685
352.313
351.607
350.633
349.471
348.203
346.902
345.628
344.45
343.522
337.753
338.538
339.554
340.657
341.784
342.881
343.886
344.728
345.338
345.659
345.659
345.338
344.728
343.886
342.881
341.784
340.657
339.554
338.538
337.753
331.97
332.622
333.478
334.41
335.362
336.29
337.138
337.85
338.365
338.636
338.636
338.365
337.85
337.138
336.29
335.362
334.41
333.478
332.622
331.97
326.177
326.702
327.399
328.161
328.94
329.698
330.391
330.972
331.393
331.614
331.614
331.393
330.972
330.391
329.698
328.94
328.161
327.399
326.702
326.177
320.375
320.777
321.319
321.91
322.516
323.105
323.644
324.095
324.422
324.594
324.594
324.422
324.095
323.644
323.105
322.516
321.91
321.319
320.777
320.375
314.565
314.85
315.236
315.659
316.091
316.512
316.897
317.219
317.452
317.575
317.575
317.452
317.219
316.897
316.512
316.091
315.659
315.236
314.85
314.565
308.751
308.921
309.152
309.406
309.666
309.918
310.149
310.343
310.483
310.556
310.556
310.483
310.343
310.149
309.918
309.666
309.406
309.152
308.921
308.751
302.934
302.991
303.068
303.153
303.24
303.325
303.402
303.467
303.514
303.539
303.539
303.514
303.467
303.402
303.325
303.24
303.153
303.068
302.991
302.934
344.029
344.922
346.052
347.27
348.511
349.715
350.814
351.733
352.397
352.747
352.747
352.397
351.733
350.814
349.715
348.511
347.27
346.052
344.922
344.029
338.191
338.947
339.922
340.976
342.05
343.092
344.043
344.838
345.412
345.714
345.714
345.412
344.838
344.043
343.092
342.05
340.976
339.922
338.947
338.191
332.34
332.967
333.789
334.68
335.588
336.468
337.272
337.943
338.428
338.683
338.683
338.428
337.943
337.272
336.468
335.588
334.68
333.789
332.967
332.34
326.479
326.983
327.653
328.382
329.124
329.844
330.501
331.049
331.445
331.653
331.653
331.445
331.049
330.501
329.844
329.124
328.382
327.653
326.983
326.479
320.609
320.996
321.516
322.082
322.659
323.219
323.729
324.155
324.463
324.625
324.625
324.463
324.155
323.729
323.219
322.659
322.082
321.516
320.996
320.609
314.732
315.007
315.377
315.781
316.194
316.593
316.958
317.262
317.482
317.597
317.597
317.482
317.262
316.958
316.593
316.194
315.781
315.377
315.007
314.732
308.851
309.015
309.237
309.48
309.727
309.967
310.186
310.369
310.501
310.57
310.57
310.501
310.369
310.186
309.967
309.727
309.48
309.237
309.015
308.851
302.967
303.022
303.096
303.178
303.261
303.341
303.415
303.476
303.52
303.543
303.543
303.52
303.476
303.415
303.341
303.261
303.178
303.096
303.022
302.967
344.646
345.5
346.577
347.734
348.906
350.039
351.07
351.928
352.548
352.873
352.873
352.548
351.928
351.07
350.039
348.906
347.734
346.577
345.5
344.646
338.724
339.447
340.376
341.377
342.393
343.373
344.265
345.008
345.543
345.824
345.824
345.543
345.008
344.265
343.373
342.393
341.377
340.376
339.447
338.724
332.791
333.39
334.173
335.019
335.877
336.707
337.46
338.088
338.54
338.777
338.777
338.54
338.088
337.46
336.707
335.877
335.019
334.173
333.39
332.791
326.847
327.329
327.968
328.659
329.361
330.039
330.655
331.168
331.537
331.731
331.731
331.537
331.168
330.655
330.039
329.361
328.659
327.968
327.329
326.847
320.895
321.265
321.76
322.298
322.844
323.371
323.85
324.248
324.535
324.686
324.686
324.535
324.248
323.85
323.371
322.844
322.298
321.76
321.265
320.895
314.936
315.199
315.552
315.936
316.325
316.702
317.044
317.328
317.533
317.641
317.641
317.533
317.328
317.044
316.702
316.325
315.936
315.552
315.199
314.936
308.974
309.13
309.342
309.572
309.807
310.033
310.238
310.409
310.532
310.596
310.596
310.532
310.409
310.238
310.033
309.807
309.572
309.342
309.13
308.974
303.008
303.061
303.132
303.209
303.287
303.363
303.432
303.489
303.53
303.552
303.552
303.53
303.489
303.432
303.363
303.287
303.209
303.132
303.061
303.008
345.38
346.191
347.211
348.3
349.4
350.458
351.417
352.212
352.784
353.084
353.084
352.784
352.212
351.417
350.458
349.4
348.3
347.211
346.191
345.38
339.359
340.045
340.925
341.868
342.821
343.737
344.566
345.254
345.749
346.008
346.008
345.749
345.254
344.566
343.737
342.821
341.868
340.925
340.045
339.359
333.326
333.896
334.637
335.434
336.24
337.014
337.715
338.297
338.715
338.934
338.934
338.715
338.297
337.715
337.014
336.24
335.434
334.637
333.896
333.326
327.284
327.742
328.347
328.998
329.657
330.291
330.864
331.339
331.681
331.86
331.86
331.681
331.339
330.864
330.291
329.657
328.998
328.347
327.742
327.284
321.234
321.586
322.055
322.562
323.074
323.567
324.012
324.382
324.647
324.786
324.786
324.647
324.382
324.012
323.567
323.074
322.562
322.055
321.586
321.234
315.179
315.428
315.762
316.124
316.49
316.842
317.16
317.424
317.614
317.713
317.713
317.614
317.424
317.16
316.842
316.49
316.124
315.762
315.428
315.179
309.119
309.268
309.468
309.686
309.905
310.117
310.308
310.466
310.58
310.64
310.64
310.58
310.466
310.308
310.117
309.905
309.686
309.468
309.268
309.119
303.057
303.107
303.174
303.247
303.32
303.391
303.455
303.508
303.547
303.567
303.567
303.547
303.508
303.455
303.391
303.32
303.247
303.174
303.107
303.057
346.234
347.001
347.96
348.98
350.005
350.986
351.87
352.602
353.126
353.4
353.4
353.126
352.602
351.87
350.986
350.005
348.98
347.96
347.001
346.234
340.097
340.746
341.573
342.457
343.344
344.194
344.96
345.593
346.046
346.283
346.283
346.046
345.593
344.96
344.194
343.344
342.457
341.573
340.746
340.097
333.949
334.487
335.185
335.932
336.682
337.401
338.048
338.583
338.967
339.167
339.167
338.967
338.583
338.048
337.401
336.682
335.932
335.185
334.487
333.949
327.793
328.226
328.795
329.405
330.019
330.607
331.136
331.574
331.887
332.051
332.051
331.887
331.574
331.136
330.607
330.019
329.405
328.795
328.226
327.793
321.63
321.962
322.403
322.878
323.356
323.813
324.224
324.564
324.808
324.935
324.935
324.808
324.564
324.224
323.813
323.356
322.878
322.403
321.962
321.63
315.461
315.696
316.011
316.35
316.691
317.018
317.312
317.555
317.728
317.819
317.819
317.728
317.555
317.312
317.018
316.691
316.35
316.011
315.696
315.461
309.289
309.429
309.618
309.821
310.026
310.222
310.399
310.545
310.649
310.704
310.704
310.649
310.545
310.399
310.222
310.026
309.821
309.618
309.429
309.289
303.114
303.161
303.224
303.292
303.361
303.427
303.486
303.535
303.57
303.588
303.588
303.57
303.535
303.486
303.427
303.361
303.292
303.224
303.161
303.114
347.214
347.934
348.831
349.781
350.73
351.634
352.445
353.113
353.591
353.84
353.84
353.591
353.113
352.445
351.634
350.73
349.781
348.831
347.934
347.214
340.944
341.554
342.328
343.15
343.972
344.755
345.458
346.036
346.449
346.665
346.665
346.449
346.036
345.458
344.755
343.972
343.15
342.328
341.554
340.944
334.665
335.17
335.823
336.518
337.214
337.876
338.47
338.959
339.308
339.49
339.49
339.308
338.959
338.47
337.876
337.214
336.518
335.823
335.17
334.665
328.377
328.784
329.316
329.885
330.454
330.996
331.481
331.881
332.167
332.316
332.316
332.167
331.881
331.481
330.996
330.454
329.885
329.316
328.784
328.377
322.084
322.396
322.809
323.251
323.693
324.115
324.493
324.803
325.025
325.141
325.141
325.025
324.803
324.493
324.115
323.693
323.251
322.809
322.396
322.084
315.785
316.006
316.3
316.616
316.932
317.234
317.503
317.725
317.884
317.967
317.967
317.884
317.725
317.503
317.234
316.932
316.616
316.3
316.006
315.785
309.483
309.615
309.792
309.981
310.171
310.352
310.514
310.647
310.743
310.792
310.792
310.743
310.647
310.514
310.352
310.171
309.981
309.792
309.615
309.483
303.179
303.223
303.282
303.346
303.41
303.47
303.524
303.569
303.601
303.618
303.618
303.601
303.569
303.524
303.47
303.41
303.346
303.282
303.223
303.179
348.324
348.997
349.832
350.712
351.587
352.415
353.154
353.761
354.193
354.418
354.418
354.193
353.761
353.154
352.415
351.587
350.712
349.832
348.997
348.324
341.904
342.473
343.194
343.956
344.714
345.431
346.072
346.597
346.972
347.166
347.166
346.972
346.597
346.072
345.431
344.714
343.956
343.194
342.473
341.904
335.475
335.948
336.555
337.199
337.84
338.447
338.989
339.434
339.75
339.915
339.915
339.75
339.434
338.989
338.447
337.84
337.199
336.555
335.948
335.475
329.039
329.42
329.915
330.442
330.966
331.463
331.906
332.27
332.528
332.663
332.663
332.528
332.27
331.906
331.463
330.966
330.442
329.915
329.42
329.039
322.598
322.89
323.274
323.684
324.092
324.478
324.823
325.106
325.307
325.412
325.412
325.307
325.106
324.823
324.478
324.092
323.684
323.274
322.89
322.598
316.152
316.359
316.633
316.926
317.217
317.493
317.74
317.941
318.085
318.16
318.16
318.085
317.941
317.74
317.493
317.217
316.926
316.633
316.359
316.152
309.704
309.827
309.991
310.167
310.342
310.508
310.656
310.777
310.863
310.908
310.908
310.863
310.777
310.656
310.508
310.342
310.167
309.991
309.827
309.704
303.253
303.294
303.349
303.408
303.467
303.522
303.572
303.613
303.642
303.657
303.657
303.642
303.613
303.572
303.522
303.467
303.408
303.349
303.294
303.253
349.567
350.194
350.969
351.78
352.582
353.337
354.009
354.557
354.946
355.149
355.149
354.946
354.557
354.009
353.337
352.582
351.78
350.969
350.194
349.567
342.979
343.51
344.178
344.88
345.575
346.23
346.812
347.287
347.624
347.799
347.799
347.624
347.287
346.812
346.23
345.575
344.88
344.178
343.51
342.979
336.383
336.823
337.386
337.981
338.569
339.123
339.615
340.017
340.302
340.45
340.45
340.302
340.017
339.615
339.123
338.569
337.981
337.386
336.823
336.383
329.782
330.136
330.595
331.081
331.562
332.015
332.418
332.747
332.98
333.101
333.101
332.98
332.747
332.418
332.015
331.562
331.081
330.595
330.136
329.782
323.175
323.447
323.803
324.181
324.555
324.908
325.221
325.476
325.658
325.752
325.752
325.658
325.476
325.221
324.908
324.555
324.181
323.803
323.447
323.175
316.564
316.756
317.01
317.28
317.548
317.8
318.024
318.206
318.336
318.403
318.403
318.336
318.206
318.024
317.8
317.548
317.28
317.01
316.756
316.564
309.951
310.066
310.218
310.38
310.541
310.692
310.826
310.936
311.014
311.054
311.054
311.014
310.936
310.826
310.692
310.541
310.38
310.218
310.066
309.951
303.336
303.374
303.425
303.48
303.533
303.584
303.629
303.666
303.692
303.706
303.706
303.692
303.666
303.629
303.584
303.533
303.48
303.425
303.374
303.336
350.948
351.53
352.245
352.99
353.723
354.41
355.017
355.51
355.86
356.041
356.041
355.86
355.51
355.017
354.41
353.723
352.99
352.245
351.53
350.948
344.173
344.666
345.283
345.928
346.563
347.158
347.684
348.112
348.415
348.572
348.572
348.415
348.112
347.684
347.158
346.563
345.928
345.283
344.666
344.173
337.392
337.8
338.32
338.866
339.404
339.907
340.353
340.715
340.971
341.104
341.104
340.971
340.715
340.353
339.907
339.404
338.866
338.32
337.8
337.392
330.606
330.934
331.358
331.805
332.245
332.657
333.021
333.317
333.527
333.636
333.636
333.527
333.317
333.021
332.657
332.245
331.805
331.358
330.934
330.606
323.815
324.067
324.396
324.744
325.086
325.406
325.69
325.92
326.083
326.168
326.168
326.083
325.92
325.69
325.406
325.086
324.744
324.396
324.067
323.815
317.021
317.2
317.434
317.682
317.927
318.156
318.359
318.523
318.64
318.7
318.7
318.64
318.523
318.359
318.156
317.927
317.682
317.434
317.2
317.021
310.225
310.332
310.472
310.621
310.768
310.906
311.028
311.126
311.196
311.233
311.233
311.196
311.126
311.028
310.906
310.768
310.621
310.472
310.332
310.225
303.428
303.463
303.51
303.56
303.61
303.656
303.697
303.73
303.753
303.765
303.765
303.753
303.73
303.697
303.656
303.61
303.56
303.51
303.463
303.428
352.469
353.007
353.666
354.348
355.015
355.637
356.184
356.628
356.94
357.102
357.102
356.94
356.628
356.184
355.637
355.015
354.348
353.666
353.007
352.469
345.489
345.944
346.512
347.103
347.681
348.22
348.695
349.079
349.35
349.491
349.491
349.35
349.079
348.695
348.22
347.681
347.103
346.512
345.944
345.489
338.503
338.881
339.359
339.859
340.349
340.805
341.207
341.532
341.761
341.88
341.88
341.761
341.532
341.207
340.805
340.349
339.859
339.359
338.881
338.503
331.514
331.817
332.208
332.617
333.017
333.391
333.719
333.985
334.173
334.27
334.27
334.173
333.985
333.719
333.391
333.017
332.617
332.208
331.817
331.514
324.521
324.754
325.056
325.374
325.686
325.977
326.232
326.439
326.586
326.661
326.661
326.586
326.439
326.232
325.977
325.686
325.374
325.056
324.754
324.521
317.525
317.69
317.906
318.133
318.356
318.563
318.746
318.894
318.999
319.053
319.053
318.999
318.894
318.746
318.563
318.356
318.133
317.906
317.69
317.525
310.528
310.626
310.755
310.892
311.026
311.15
311.26
311.349
311.412
311.444
311.444
311.412
311.349
311.26
311.15
311.026
310.892
310.755
310.626
310.528
303.529
303.562
303.605
303.651
303.696
303.738
303.775
303.804
303.825
303.836
303.836
303.825
303.804
303.775
303.738
303.696
303.651
303.605
303.562
303.529
354.13
354.626
355.23
355.854
356.46
357.022
357.514
357.911
358.191
358.335
358.335
358.191
357.911
357.514
357.022
356.46
355.854
355.23
354.626
354.13
346.925
347.344
347.866
348.406
348.931
349.418
349.845
350.19
350.432
350.557
350.557
350.432
350.19
349.845
349.418
348.931
348.406
347.866
347.344
346.925
339.716
340.064
340.503
340.96
341.405
341.817
342.179
342.47
342.675
342.781
342.781
342.675
342.47
342.179
341.817
341.405
340.96
340.503
340.064
339.716
332.504
332.784
333.142
333.516
333.88
334.218
334.513
334.752
334.92
335.007
335.007
334.92
334.752
334.513
334.218
333.88
333.516
333.142
332.784
332.504
325.29
325.505
325.783
326.073
326.357
326.62
326.85
327.035
327.166
327.233
327.233
327.166
327.035
326.85
326.62
326.357
326.073
325.783
325.505
325.29
318.074
318.226
318.425
318.632
318.835
319.022
319.187
319.32
319.413
319.461
319.461
319.413
319.32
319.187
319.022
318.835
318.632
318.425
318.226
318.074
310.857
310.948
311.067
311.192
311.313
311.426
311.525
311.605
311.661
311.69
311.69
311.661
311.605
311.525
311.426
311.313
311.192
311.067
310.948
310.857
303.64
303.67
303.71
303.751
303.792
303.83
303.863
303.89
303.909
303.918
303.918
303.909
303.89
303.863
303.83
303.792
303.751
303.71
303.67
303.64
355.925
356.381
356.935
357.503
358.053
358.56
359.002
359.357
359.607
359.735
359.735
359.607
359.357
359.002
358.56
358.053
357.503
356.935
356.381
355.925
348.475
348.862
349.339
349.832
350.308
350.748
351.132
351.44
351.656
351.768
351.768
351.656
351.44
351.132
350.748
350.308
349.832
349.339
348.862
348.475
341.024
341.345
341.747
342.164
342.567
342.94
343.264
343.525
343.708
343.803
343.803
343.708
343.525
343.264
342.94
342.567
342.164
341.747
341.345
341.024
333.572
333.83
334.158
334.499
334.829
335.134
335.4
335.614
335.764
335.841
335.841
335.764
335.614
335.4
335.134
334.829
334.499
334.158
333.83
333.572
326.12
326.317
326.572
326.837
327.094
327.331
327.538
327.705
327.821
327.881
327.881
327.821
327.705
327.538
327.331
327.094
326.837
326.572
326.317
326.12
318.666
318.806
318.988
319.177
319.361
319.531
319.678
319.797
319.881
319.924
319.924
319.881
319.797
319.678
319.531
319.361
319.177
318.988
318.806
318.666
311.213
311.296
311.405
311.519
311.629
311.731
311.82
311.891
311.941
311.967
311.967
311.941
311.891
311.82
311.731
311.629
311.519
311.405
311.296
311.213
303.759
303.786
303.823
303.861
303.898
303.932
303.962
303.986
304.003
304.011
304.011
304.003
303.986
303.962
303.932
303.898
303.861
303.823
303.786
303.759
357.835
358.255
358.762
359.279
359.777
360.235
360.632
360.95
361.173
361.287
361.287
361.173
360.95
360.632
360.235
359.777
359.279
358.762
358.255
357.835
350.123
350.478
350.916
351.364
351.796
352.193
352.538
352.814
353.007
353.106
353.106
353.007
352.814
352.538
352.193
351.796
351.364
350.916
350.478
350.123
342.413
342.707
343.076
343.455
343.821
344.158
344.449
344.683
344.847
344.931
344.931
344.847
344.683
344.449
344.158
343.821
343.455
343.076
342.707
342.413
334.704
334.941
335.242
335.552
335.852
336.127
336.366
336.558
336.692
336.76
336.76
336.692
336.558
336.366
336.127
335.852
335.552
335.242
334.941
334.704
326.997
327.179
327.413
327.654
327.887
328.102
328.288
328.437
328.541
328.595
328.595
328.541
328.437
328.288
328.102
327.887
327.654
327.413
327.179
326.997
319.292
319.421
319.587
319.76
319.926
320.08
320.213
320.319
320.394
320.432
320.432
320.394
320.319
320.213
320.08
319.926
319.76
319.587
319.421
319.292
311.588
311.665
311.764
311.868
311.968
312.06
312.14
312.204
312.249
312.272
312.272
312.249
312.204
312.14
312.06
311.968
311.868
311.764
311.665
311.588
303.884
303.91
303.943
303.978
304.012
304.043
304.069
304.091
304.106
304.114
304.114
304.106
304.091
304.069
304.043
304.012
303.978
303.943
303.91
303.884
359.812
360.198
360.663
361.135
361.587
362.001
362.358
362.644
362.843
362.945
362.945
362.843
362.644
362.358
362.001
361.587
361.135
360.663
360.198
359.812
351.82
352.147
352.548
352.957
353.35
353.709
354.02
354.267
354.44
354.529
354.529
354.44
354.267
354.02
353.709
353.35
352.957
352.548
352.147
351.82
343.837
344.108
344.446
344.793
345.125
345.429
345.693
345.903
346.049
346.124
346.124
346.049
345.903
345.693
345.429
345.125
344.793
344.446
344.108
343.837
335.861
336.079
336.355
336.639
336.911
337.16
337.376
337.548
337.668
337.73
337.73
337.668
337.548
337.376
337.16
336.911
336.639
336.355
336.079
335.861
327.892
328.059
328.273
328.494
328.706
328.901
329.068
329.202
329.296
329.344
329.344
329.296
329.202
329.068
328.901
328.706
328.494
328.273
328.059
327.892
319.928
320.047
320.2
320.357
320.509
320.648
320.768
320.864
320.931
320.965
320.965
320.931
320.864
320.768
320.648
320.509
320.357
320.2
320.047
319.928
311.969
312.039
312.131
312.226
312.317
312.401
312.473
312.53
312.57
312.591
312.591
312.57
312.53
312.473
312.401
312.317
312.226
312.131
312.039
311.969
304.012
304.035
304.066
304.098
304.128
304.156
304.181
304.2
304.213
304.22
304.22
304.213
304.2
304.181
304.156
304.128
304.098
304.066
304.035
304.012
361.727
362.084
362.512
362.946
363.359
363.736
364.061
364.32
364.499
364.592
364.592
364.499
364.32
364.061
363.736
363.359
362.946
362.512
362.084
361.727
353.444
353.746
354.116
354.493
354.853
355.181
355.463
355.688
355.844
355.924
355.924
355.844
355.688
355.463
355.181
354.853
354.493
354.116
353.746
353.444
345.184
345.435
345.748
346.067
346.372
346.65
346.89
347.081
347.213
347.281
347.281
347.213
347.081
346.89
346.65
346.372
346.067
345.748
345.435
345.184
336.945
337.147
337.403
337.664
337.915
338.143
338.339
338.496
338.604
338.66
338.66
338.604
338.496
338.339
338.143
337.915
337.664
337.403
337.147
336.945
328.724
328.879
329.078
329.281
329.476
329.654
329.807
329.929
330.014
330.058
330.058
330.014
329.929
329.807
329.654
329.476
329.281
329.078
328.879
328.724
320.517
320.627
320.768
320.914
321.054
321.181
321.29
321.378
321.438
321.47
321.47
321.438
321.378
321.29
321.181
321.054
320.914
320.768
320.627
320.517
312.32
312.386
312.47
312.558
312.642
312.718
312.784
312.837
312.873
312.892
312.892
312.873
312.837
312.784
312.718
312.642
312.558
312.47
312.386
312.32
304.129
304.151
304.179
304.209
304.237
304.263
304.285
304.302
304.315
304.321
304.321
304.315
304.302
304.285
304.263
304.237
304.209
304.179
304.151
304.129
363.238
363.574
363.976
364.383
364.77
365.122
365.424
365.664
365.831
365.916
365.916
365.831
365.664
365.424
365.122
364.77
364.383
363.976
363.574
363.238
354.676
354.962
355.311
355.665
356.003
356.31
356.573
356.782
356.928
357.003
357.003
356.928
356.782
356.573
356.31
356.003
355.665
355.311
354.962
354.676
346.175
346.413
346.708
347.009
347.297
347.557
347.782
347.96
348.084
348.147
348.147
348.084
347.96
347.782
347.557
347.297
347.009
346.708
346.413
346.175
337.723
337.915
338.157
338.404
338.64
338.854
339.039
339.185
339.287
339.339
339.339
339.287
339.185
339.039
338.854
338.64
338.404
338.157
337.915
337.723
329.31
329.457
329.645
329.838
330.022
330.19
330.333
330.448
330.527
330.568
330.568
330.527
330.448
330.333
330.19
330.022
329.838
329.645
329.457
329.31
320.925
321.03
321.164
321.302
321.434
321.554
321.657
321.739
321.796
321.825
321.825
321.796
321.739
321.657
321.554
321.434
321.302
321.164
321.03
320.925
312.561
312.624
312.704
312.787
312.867
312.939
313.001
313.05
313.085
313.102
313.102
313.085
313.05
313.001
312.939
312.867
312.787
312.704
312.624
312.561
304.209
304.23
304.257
304.285
304.312
304.336
304.357
304.373
304.385
304.391
304.391
304.385
304.373
304.357
304.336
304.312
304.285
304.257
304.23
304.209
)
;

boundaryField
{
    hotSide
    {
        type            fixedGradient;
        gradient        nonuniform List<scalar> 
400
(
449.401
450.473
452.629
455.888
460.281
465.845
472.623
480.661
490.007
500.71
512.816
526.369
541.41
557.975
576.095
595.798
617.106
640.038
664.608
690.829
462.612
463.58
465.53
468.49
472.5
477.61
483.874
491.355
500.114
510.212
521.708
534.656
549.104
565.095
582.667
601.85
622.669
645.143
669.288
695.114
476.909
477.752
479.457
482.062
485.62
490.194
495.859
502.693
510.774
520.181
530.984
543.25
557.037
572.395
589.366
607.983
628.274
650.259
673.953
699.365
492.055
492.753
494.174
496.367
499.402
503.362
508.344
514.445
521.765
530.401
540.439
551.958
565.028
579.704
596.034
614.054
633.792
655.268
678.496
703.484
507.627
508.162
509.263
510.996
513.448
516.729
520.957
526.258
532.754
540.56
549.783
560.514
572.832
586.8
602.47
619.881
639.06
660.026
682.79
707.358
522.977
523.336
524.096
525.338
527.173
529.736
533.176
537.644
543.288
550.246
558.641
568.578
580.146
593.414
608.437
625.254
643.892
664.369
686.692
710.863
537.224
537.408
537.828
538.582
539.806
541.663
544.331
547.99
552.812
558.958
566.566
575.756
586.622
599.24
613.667
629.942
648.089
668.124
690.052
713.869
549.316
549.342
549.456
549.772
550.449
551.678
553.662
556.608
560.712
566.151
573.081
581.629
591.898
603.966
617.892
633.713
651.453
671.123
692.725
716.254
558.165
558.07
557.949
557.931
558.192
558.944
560.412
562.823
566.389
571.303
577.73
585.805
595.637
607.304
620.866
636.36
653.807
673.216
694.587
717.91
562.854
562.693
562.445
562.244
562.28
562.773
563.963
566.085
569.362
573.995
580.154
587.978
597.578
609.034
622.404
637.726
655.02
674.293
695.542
718.759
562.854
562.693
562.445
562.244
562.28
562.773
563.963
566.085
569.362
573.995
580.154
587.978
597.578
609.034
622.404
637.726
655.02
674.293
695.542
718.759
558.165
558.07
557.949
557.931
558.192
558.944
560.412
562.823
566.389
571.303
577.73
585.805
595.637
607.304
620.866
636.36
653.807
673.216
694.587
717.91
549.316
549.342
549.456
549.772
550.449
551.678
553.662
556.608
560.712
566.151
573.081
581.629
591.898
603.966
617.892
633.713
651.453
671.123
692.725
716.254
537.224
537.408
537.828
538.582
539.806
541.663
544.331
547.99
552.812
558.958
566.566
575.756
586.622
599.24
613.667
629.942
648.089
668.124
690.052
713.869
522.977
523.336
524.096
525.338
527.173
529.736
533.176
537.644
543.288
550.246
558.641
568.578
580.146
593.414
608.437
625.254
643.892
664.369
686.692
710.863
507.627
508.162
509.263
510.996
513.448
516.729
520.957
526.258
532.754
540.56
549.783
560.514
572.832
586.8
602.47
619.881
639.06
660.026
682.79
707.358
492.055
492.753
494.174
496.367
499.402
503.362
508.344
514.445
521.765
530.401
540.439
551.958
565.028
579.704
596.034
614.054
633.792
655.268
678.496
703.484
476.909
477.752
479.457
482.062
485.62
490.194
495.859
502.693
510.774
520.181
530.984
543.25
557.037
572.395
589.366
607.983
628.274
650.259
673.953
699.365
462.612
463.58
465.53
468.49
472.5
477.61
483.874
491.355
500.114
510.212
521.708
534.656
549.104
565.095
582.667
601.85
622.669
645.143
669.288
695.114
449.401
450.473
452.629
455.888
460.281
465.845
472.623
480.661
490.007
500.71
512.816
526.369
541.41
557.975
576.095
595.798
617.106
640.038
664.608
690.829
)
;
    }
    coldSide
    {
        type            mixed;
        refValue        uniform 300;
        refGradient     uniform 0;
        valueFraction   uniform 0.991591;
        source          uniform 0;
        value           nonuniform List<scalar> 
400
(
300.024
300.024
300.024
300.024
300.025
300.025
300.025
300.026
300.026
300.027
300.027
300.028
300.029
300.03
300.031
300.032
300.033
300.034
300.035
300.035
300.025
300.025
300.025
300.025
300.025
300.025
300.026
300.026
300.027
300.027
300.028
300.028
300.029
300.03
300.031
300.032
300.033
300.034
300.035
300.036
300.025
300.025