/*--------------------------------*- C++ -*----------------------------------*\
| =========                 |                                                 |
| \\      /  F ield         | OpenFOAM: The Open Source CFD Toolbox           |
|  \\    /   O peration     | Version:  2212                                  |
|   \\  /    A nd           | Website:  www.openfoam.com                      |
|    \\/     M anipulation  |                                                 |
\*---------------------------------------------------------------------------*/
FoamFile
{
    version     2.0;
    format      ascii;
    arch        "LSB;label=32;scalar=64";
    class       volScalarField;
    location    "0";
    object      Tdirect;
}
// * * * * * * * * * * * * * * * * * * * * * * * * * * * * * * * * * * * * * //

dimensions      [0 0 0 1 0 0 0];

internalField   nonuniform List<scalar> 
3200
(
317.02
317.207
317.446
317.706
317.974
318.237
318.48
318.685
318.835
318.914
318.914
318.835
318.685
318.48
318.237
317.974
317.706
317.446
317.207
317.02
314.744
314.902
315.108
315.334
315.566
315.793
316.003
316.181
316.31
316.378
316.378
316.31
316.181
316.003
315.793
315.566
315.334
315.108
314.902
314.744
312.473
312.604
312.778
312.968
313.164
313.356
313.534
313.683
313.792
313.85
313.85
313.792
313.683
313.534
313.356
313.164
312.968
312.778
312.604
312.473
310.204
310.31
310.451
310.607
310.767
310.924
311.069
311.191
311.28
311.327
311.327
311.28
311.191
311.069
310.924
310.767
310.607
310.451
310.31
310.204
307.937
308.018
308.128
308.249
308.374
308.496
308.608
308.703
308.772
308.808
308.808
308.772
308.703
308.608
308.496
308.374
308.249
308.128
308.018
307.937
305.672
305.729
305.807
305.894
305.983
306.07
306.15
306.218
306.267
306.293
306.293
306.267
306.218
306.15
306.07
305.983
305.894
305.807
305.729
305.672
303.407
303.441
303.488
303.54
303.593
303.645
303.694
303.734
303.764
303.779
303.779
303.764
303.734
303.694
303.645
303.593
303.54
303.488
303.441
303.407
301.142
301.153
301.169
301.186
301.204
301.222
301.238
301.252
301.262
301.267
301.267
301.262
301.252
301.238
301.222
301.204
301.186
301.169
301.153
301.142
317.081
317.267
317.504
317.762
318.027
318.287
318.527
318.73
318.877
318.955
318.955
318.877
318.73
318.527
318.287
318.027
317.762
317.504
317.267
317.081
314.797
314.954
315.159
315.382
315.611
315.837
316.044
316.219
316.347
316.414
316.414
316.347
316.219
316.044
315.837
315.611
315.382
315.159
314.954
314.797
312.517
312.648
312.82
313.008
313.203
313.393
313.568
313.716
313.823
313.88
313.88
313.823
313.716
313.568
313.393
313.203
313.008
312.82
312.648
312.517
310.241
310.346
310.486
310.64
310.799
310.954
311.097
311.218
311.306
311.352
311.352
311.306
311.218
311.097
310.954
310.799
310.64
310.486
310.346
310.241
307.966
308.046
308.155
308.275
308.398
308.519
308.63
308.724
308.792
308.828
308.828
308.792
308.724
308.63
308.519
308.398
308.275
308.155
308.046
307.966
305.692
305.749
305.827
305.912
306
306.086
306.166
306.233
306.281
306.307
306.307
306.281
306.233
306.166
306.086
306
305.912
305.827
305.749
305.692
303.419
303.453
303.499
303.551
303.604
303.655
303.703
303.743
303.772
303.788
303.788
303.772
303.743
303.703
303.655
303.604
303.551
303.499
303.453
303.419
301.146
301.157
301.173
301.19
301.208
301.225
301.241
301.255
301.264
301.27
301.27
301.264
301.255
301.241
301.225
301.208
301.19
301.173
301.157
301.146
317.205
317.387
317.62
317.873
318.133
318.388
318.623
318.82
318.964
319.04
319.04
318.964
318.82
318.623
318.388
318.133
317.873
317.62
317.387
317.205
314.904
315.058
315.259
315.478
315.703
315.924
316.127
316.297
316.421
316.487
316.487
316.421
316.297
316.127
315.924
315.703
315.478
315.259
315.058
314.904
312.607
312.736
312.905
313.09
313.28
313.466
313.638
313.782
313.887
313.942
313.942
313.887
313.782
313.638
313.466
313.28
313.09
312.905
312.736
312.607
310.314
310.417
310.555
310.707
310.862
311.014
311.154
311.272
311.357
311.402
311.402
311.357
311.272
311.154
311.014
310.862
310.707
310.555
310.417
310.314
308.023
308.102
308.209
308.327
308.448
308.566
308.674
308.766
308.832
308.867
308.867
308.832
308.766
308.674
308.566
308.448
308.327
308.209
308.102
308.023
305.733
305.789
305.865
305.949
306.035
306.12
306.197
306.263
306.31
306.335
306.335
306.31
306.263
306.197
306.12
306.035
305.949
305.865
305.789
305.733
303.443
303.477
303.522
303.573
303.625
303.675
303.722
303.761
303.79
303.805
303.805
303.79
303.761
303.722
303.675
303.625
303.573
303.522
303.477
303.443
301.154
301.165
301.181
301.198
301.215
301.232
301.248
301.261
301.27
301.275
301.275
301.27
301.261
301.248
301.232
301.215
301.198
301.181
301.165
301.154
317.39
317.568
317.795
318.042
318.294
318.541
318.767
318.958
319.096
319.169
319.169
319.096
318.958
318.767
318.541
318.294
318.042
317.795
317.568
317.39
315.064
315.215
315.411
315.624
315.842
316.056
316.252
316.416
316.536
316.599
316.599
316.536
316.416
316.252
316.056
315.842
315.624
315.411
315.215
315.064
312.743
312.868
313.033
313.213
313.398
313.578
313.744
313.883
313.983
314.037
314.037
313.983
313.883
313.744
313.578
313.398
313.213
313.033
312.868
312.743
310.425
310.526
310.66
310.807
310.958
311.106
311.241
311.354
311.437
311.48
311.48
311.437
311.354
311.241
311.106
310.958
310.807
310.66
310.526
310.425
308.109
308.186
308.29
308.405
308.522
308.637
308.742
308.83
308.894
308.928
308.928
308.894
308.83
308.742
308.637
308.522
308.405
308.29
308.186
308.109
305.794
305.849
305.923
306.005
306.089
306.17
306.245
306.308
306.354
306.378
306.378
306.354
306.308
306.245
306.17
306.089
306.005
305.923
305.849
305.794
303.48
303.513
303.557
303.606
303.657
303.706
303.751
303.789
303.816
303.83
303.83
303.816
303.789
303.751
303.706
303.657
303.606
303.557
303.513
303.48
301.167
301.177
301.192
301.209
301.226
301.242
301.257
301.27
301.279
301.284
301.284
301.279
301.27
301.257
301.242
301.226
301.209
301.192
301.177
301.167
317.638
317.811
318.031
318.268
318.511
318.747
318.963
319.145
319.277
319.346
319.346
319.277
319.145
318.963
318.747
318.511
318.268
318.031
317.811
317.638
315.279
315.425
315.614
315.82
316.03
316.234
316.422
316.579
316.692
316.752
316.752
316.692
316.579
316.422
316.234
316.03
315.82
315.614
315.425
315.279
312.924
313.045
313.205
313.379
313.556
313.729
313.887
314.02
314.116
314.166
314.166
314.116
314.02
313.887
313.729
313.556
313.379
313.205
313.045
312.924
310.573
310.671
310.801
310.942
311.088
311.229
311.358
311.466
311.545
311.586
311.586
311.545
311.466
311.358
311.229
311.088
310.942
310.801
310.671
310.573
308.224
308.299
308.4
308.51
308.623
308.733
308.833
308.917
308.978
309.01
309.01
308.978
308.917
308.833
308.733
308.623
308.51
308.4
308.299
308.224
305.876
305.929
306.001
306.08
306.161
306.239
306.311
306.371
306.414
306.437
306.437
306.414
306.371
306.311
306.239
306.161
306.08
306.001
305.929
305.876
303.529
303.561
303.604
303.652
303.7
303.747
303.79
303.826
303.852
303.866
303.866
303.852
303.826
303.79
303.747
303.7
303.652
303.604
303.561
303.529
301.183
301.194
301.208
301.224
301.24
301.256
301.27
301.282
301.291
301.296
301.296
301.291
301.282
301.27
301.256
301.24
301.224
301.208
301.194
301.183
317.95
318.116
318.327
318.554
318.785
319.009
319.214
319.385
319.509
319.574
319.574
319.509
319.385
319.214
319.009
318.785
318.554
318.327
318.116
317.95
315.548
315.689
315.871
316.067
316.267
316.461
316.639
316.787
316.894
316.95
316.95
316.894
316.787
316.639
316.461
316.267
316.067
315.871
315.689
315.548
313.151
313.268
313.421
313.588
313.757
313.921
314.071
314.196
314.286
314.334
314.334
314.286
314.196
314.071
313.921
313.757
313.588
313.421
313.268
313.151
310.759
310.853
310.977
311.113
311.252
311.386
311.508
311.61
311.684
311.723
311.723
311.684
311.61
311.508
311.386
311.252
311.113
310.977
310.853
310.759
308.368
308.44
308.537
308.643
308.75
308.855
308.95
309.029
309.086
309.117
309.117
309.086
309.029
308.95
308.855
308.75
308.643
308.537
308.44
308.368
305.979
306.03
306.099
306.175
306.252
306.326
306.394
306.451
306.492
306.513
306.513
306.492
306.451
306.394
306.326
306.252
306.175
306.099
306.03
305.979
303.591
303.622
303.663
303.708
303.755
303.799
303.84
303.874
303.899
303.912
303.912
303.899
303.874
303.84
303.799
303.755
303.708
303.663
303.622
303.591
301.204
301.214
301.228
301.243
301.258
301.273
301.287
301.299
301.307
301.311
301.311
301.307
301.299
301.287
301.273
301.258
301.243
301.228
301.214
301.204
318.325
318.484
318.685
318.901
319.119
319.33
319.522
319.682
319.798
319.858
319.858
319.798
319.682
319.522
319.33
319.119
318.901
318.685
318.484
318.325
315.873
316.007
316.181
316.367
316.556
316.739
316.905
317.044
317.144
317.196
317.196
317.144
317.044
316.905
316.739
316.556
316.367
316.181
316.007
315.873
313.426
313.537
313.683
313.841
314.001
314.156
314.296
314.413
314.497
314.541
314.541
314.497
314.413
314.296
314.156
314.001
313.841
313.683
313.537
313.426
310.983
311.073
311.192
311.32
311.451
311.578
311.692
311.788
311.857
311.893
311.893
311.857
311.788
311.692
311.578
311.451
311.32
311.192
311.073
310.983
308.542
308.611
308.704
308.804
308.905
309.004
309.093
309.167
309.221
309.249
309.249
309.221
309.167
309.093
309.004
308.905
308.804
308.704
308.611
308.542
306.104
306.152
306.218
306.29
306.362
306.433
306.496
306.549
306.588
306.608
306.608
306.588
306.549
306.496
306.433
306.362
306.29
306.218
306.152
306.104
303.666
303.695
303.735
303.777
303.821
303.863
303.902
303.933
303.956
303.968
303.968
303.956
303.933
303.902
303.863
303.821
303.777
303.735
303.695
303.666
301.229
301.239
301.252
301.266
301.281
301.295
301.308
301.318
301.326
301.33
301.33
301.326
301.318
301.308
301.295
301.281
301.266
301.252
301.239
301.229
318.766
318.917
319.107
319.31
319.515
319.712
319.891
320.039
320.146
320.202
320.202
320.146
320.039
319.891
319.712
319.515
319.31
319.107
318.917
318.766
316.254
316.382
316.546
316.721
316.899
317.07
317.224
317.352
317.445
317.493
317.493
317.445
317.352
317.224
317.07
316.899
316.721
316.546
316.382
316.254
313.747
313.854
313.992
314.14
314.29
314.435
314.566
314.674
314.752
314.793
314.793
314.752
314.674
314.566
314.435
314.29
314.14
313.992
313.854
313.747
311.246
311.331
311.444
311.565
311.688
311.806
311.913
312.001
312.065
312.098
312.098
312.065
312.001
311.913
311.806
311.688
311.565
311.444
311.331
311.246
308.747
308.812
308.899
308.994
309.089
309.181
309.264
309.333
309.383
309.408
309.408
309.383
309.333
309.264
309.181
309.089
308.994
308.899
308.812
308.747
306.249
306.296
306.358
306.426
306.494
306.559
306.619
306.668
306.703
306.722
306.722
306.703
306.668
306.619
306.559
306.494
306.426
306.358
306.296
306.249
303.753
303.781
303.819
303.859
303.9
303.939
303.975
304.004
304.026
304.037
304.037
304.026
304.004
303.975
303.939
303.9
303.859
303.819
303.781
303.753
301.258
301.267
301.28
301.293
301.307
301.32
301.332
301.342
301.349
301.353
301.353
301.349
301.342
301.332
301.32
301.307
301.293
301.28
301.267
301.258
319.272
319.415
319.594
319.784
319.975
320.158
320.323
320.459
320.557
320.608
320.608
320.557
320.459
320.323
320.158
319.975
319.784
319.594
319.415
319.272
316.692
316.812
316.967
317.131
317.297
317.455
317.598
317.716
317.8
317.845
317.845
317.8
317.716
317.598
317.455
317.297
317.131
316.967
316.812
316.692
314.117
314.218
314.348
314.487
314.627
314.761
314.881
314.981
315.052
315.09
315.09
315.052
314.981
314.881
314.761
314.627
314.487
314.348
314.218
314.117
311.548
311.628
311.734
311.848
311.963
312.072
312.171
312.252
312.311
312.341
312.341
312.311
312.252
312.171
312.072
311.963
311.848
311.734
311.628
311.548
308.981
309.043
309.126
309.214
309.303
309.388
309.465
309.528
309.574
309.597
309.597
309.574
309.528
309.465
309.388
309.303
309.214
309.126
309.043
308.981
306.417
306.461
306.52
306.583
306.646
306.707
306.762
306.807
306.84
306.857
306.857
306.84
306.807
306.762
306.707
306.646
306.583
306.52
306.461
306.417
303.854
303.88
303.915
303.953
303.992
304.028
304.061
304.088
304.108
304.118
304.118
304.108
304.088
304.061
304.028
303.992
303.953
303.915
303.88
303.854
301.292
301.301
301.312
301.325
301.338
301.35
301.361
301.37
301.377
301.38
301.38
301.377
301.37
301.361
301.35
301.338
301.325
301.312
301.301
301.292
319.846
319.98
320.147
320.324
320.501
320.669
320.821
320.945
321.034
321.08
321.08
321.034
320.945
320.821
320.669
320.501
320.324
320.147
319.98
319.846
317.187
317.301
317.445
317.598
317.752
317.898
318.029
318.136
318.213
318.253
318.253
318.213
318.136
318.029
317.898
317.752
317.598
317.445
317.301
317.187
314.536
314.63
314.752
314.881
315.011
315.135
315.245
315.336
315.401
315.435
315.435
315.401
315.336
315.245
315.135
315.011
314.881
314.752
314.63
314.536
311.89
311.966
312.065
312.171
312.277
312.378
312.468
312.543
312.596
312.624
312.624
312.596
312.543
312.468
312.378
312.277
312.171
312.065
311.966
311.89
309.247
309.305
309.382
309.465
309.547
309.626
309.696
309.754
309.795
309.817
309.817
309.795
309.754
309.696
309.626
309.547
309.465
309.382
309.305
309.247
306.607
306.648
306.703
306.762
306.821
306.877
306.927
306.968
306.998
307.013
307.013
306.998
306.968
306.927
306.877
306.821
306.762
306.703
306.648
306.607
303.968
303.993
304.026
304.061
304.096
304.13
304.16
304.185
304.203
304.212
304.212
304.203
304.185
304.16
304.13
304.096
304.061
304.026
303.993
303.968
301.33
301.338
301.349
301.361
301.373
301.384
301.394
301.403
301.409
301.412
301.412
301.409
301.403
301.394
301.384
301.373
301.361
301.349
301.338
301.33
320.486
320.612
320.768
320.932
321.094
321.249
321.387
321.5
321.58
321.622
321.622
321.58
321.5
321.387
321.249
321.094
320.932
320.768
320.612
320.486
317.741
317.848
317.982
318.124
318.265
318.399
318.518
318.616
318.686
318.722
318.722
318.686
318.616
318.518
318.399
318.265
318.124
317.982
317.848
317.741
315.004
315.092
315.205
315.325
315.445
315.558
315.659
315.742
315.801
315.832
315.832
315.801
315.742
315.659
315.558
315.445
315.325
315.205
315.092
315.004
312.272
312.343
312.435
312.534
312.631
312.724
312.807
312.874
312.923
312.948
312.948
312.923
312.874
312.807
312.724
312.631
312.534
312.435
312.343
312.272
309.544
309.599
309.67
309.747
309.823
309.895
309.959
310.012
310.049
310.069
310.069
310.049
310.012
309.959
309.895
309.823
309.747
309.67
309.599
309.544
306.819
306.858
306.909
306.963
307.018
307.069
307.115
307.153
307.179
307.193
307.193
307.179
307.153
307.115
307.069
307.018
306.963
306.909
306.858
306.819
304.095
304.118
304.149
304.182
304.214
304.245
304.273
304.296
304.312
304.32
304.32
304.312
304.296
304.273
304.245
304.214
304.182
304.149
304.118
304.095
301.373
301.38
301.391
301.402
301.413
301.423
301.432
301.44
301.445
301.448
301.448
301.445
301.44
301.432
301.423
301.413
301.402
301.391
301.38
301.373
321.195
321.312
321.457
321.608
321.757
321.898
322.023
322.125
322.198
322.236
322.236
322.198
322.125
322.023
321.898
321.757
321.608
321.457
321.312
321.195
318.355
318.453
318.578
318.709
318.838
318.96
319.069
319.157
319.22
319.253
319.253
319.22
319.157
319.069
318.96
318.838
318.709
318.578
318.453
318.355
315.522
315.604
315.709
315.82
315.929
316.033
316.124
316.199
316.252
316.28
316.28
316.252
316.199
316.124
316.033
315.929
315.82
315.709
315.604
315.522
312.695
312.761
312.847
312.938
313.027
313.112
313.187
313.248
313.292
313.314
313.314
313.292
313.248
313.187
313.112
313.027
312.938
312.847
312.761
312.695
309.873
309.924
309.99
310.061
310.13
310.196
310.255
310.302
310.336
310.354
310.354
310.336
310.302
310.255
310.196
310.13
310.061
309.99
309.924
309.873
307.054
307.09
307.137
307.187
307.237
307.284
307.326
307.36
307.384
307.397
307.397
307.384
307.36
307.326
307.284
307.237
307.187
307.137
307.09
307.054
304.236
304.258
304.286
304.316
304.346
304.375
304.4
304.42
304.435
304.442
304.442
304.435
304.42
304.4
304.375
304.346
304.316
304.286
304.258
304.236
301.42
301.427
301.437
301.447
301.457
301.466
301.475
301.482
301.486
301.489
301.489
301.486
301.482
301.475
301.466
301.457
301.447
301.437
301.427
301.42
321.973
322.082
322.215
322.354
322.49
322.618
322.731
322.823
322.889
322.922
322.922
322.889
322.823
322.731
322.618
322.49
322.354
322.215
322.082
321.973
319.027
319.119
319.234
319.354
319.472
319.583
319.681
319.761
319.818
319.847
319.847
319.818
319.761
319.681
319.583
319.472
319.354
319.234
319.119
319.027
316.09
316.166
316.263
316.365
316.465
316.559
316.642
316.709
316.757
316.782
316.782
316.757
316.709
316.642
316.559
316.465
316.365
316.263
316.166
316.09
313.16
313.221
313.3
313.383
313.465
313.542
313.61
313.665
313.704
313.724
313.724
313.704
313.665
313.61
313.542
313.465
313.383
313.3
313.221
313.16
310.234
310.281
310.342
310.407
310.471
310.53
310.583
310.626
310.657
310.672
310.672
310.657
310.626
310.583
310.53
310.471
310.407
310.342
310.281
310.234
307.311
307.345
307.388
307.435
307.48
307.523
307.561
307.591
307.613
307.624
307.624
307.613
307.591
307.561
307.523
307.48
307.435
307.388
307.345
307.311
304.391
304.411
304.437
304.465
304.492
304.518
304.541
304.559
304.572
304.579
304.579
304.572
304.559
304.541
304.518
304.492
304.465
304.437
304.411
304.391
301.472
301.478
301.487
301.497
301.506
301.514
301.522
301.528
301.532
301.535
301.535
301.532
301.528
301.522
301.514
301.506
301.497
301.487
301.478
301.472
322.82
322.92
323.043
323.17
323.294
323.41
323.512
323.595
323.653
323.683
323.683
323.653
323.595
323.512
323.41
323.294
323.17
323.043
322.92
322.82
319.759
319.844
319.95
320.06
320.168
320.268
320.356
320.428
320.479
320.505
320.505
320.479
320.428
320.356
320.268
320.168
320.06
319.95
319.844
319.759
316.708
316.778
316.868
316.961
317.052
317.137
317.212
317.273
317.315
317.337
317.337
317.315
317.273
317.212
317.137
317.052
316.961
316.868
316.778
316.708
313.665
313.721
313.794
313.87
313.945
314.014
314.076
314.125
314.16
314.178
314.178
314.16
314.125
314.076
314.014
313.945
313.87
313.794
313.721
313.665
310.626
310.67
310.726
310.785
310.844
310.898
310.945
310.984
311.011
311.025
311.025
311.011
310.984
310.945
310.898
310.844
310.785
310.726
310.67
310.626
307.592
307.622
307.663
307.705
307.746
307.785
307.819
307.847
307.866
307.876
307.876
307.866
307.847
307.819
307.785
307.746
307.705
307.663
307.622
307.592
304.559
304.578
304.602
304.627
304.652
304.675
304.696
304.712
304.724
304.73
304.73
304.724
304.712
304.696
304.675
304.652
304.627
304.602
304.578
304.559
301.528
301.534
301.542
301.551
301.559
301.567
301.574
301.579
301.583
301.585
301.585
301.583
301.579
301.574
301.567
301.559
301.551
301.542
301.534
301.528
323.733
323.826
323.939
324.055
324.168
324.272
324.364
324.438
324.49
324.517
324.517
324.49
324.438
324.364
324.272
324.168
324.055
323.939
323.826
323.733
320.549
320.627
320.724
320.825
320.923
321.014
321.093
321.157
321.203
321.226
321.226
321.203
321.157
321.093
321.014
320.923
320.825
320.724
320.627
320.549
317.375
317.44
317.522
317.607
317.69
317.767
317.834
317.888
317.927
317.946
317.946
317.927
317.888
317.834
317.767
317.69
317.607
317.522
317.44
317.375
314.209
314.262
314.328
314.398
314.466
314.529
314.584
314.628
314.66
314.676
314.676
314.66
314.628
314.584
314.529
314.466
314.398
314.328
314.262
314.209
311.049
311.09
311.141
311.196
311.248
311.297
311.34
311.375
311.399
311.412
311.412
311.399
311.375
311.34
311.297
311.248
311.196
311.141
311.09
311.049
307.894
307.922
307.959
307.998
308.035
308.07
308.101
308.126
308.143
308.152
308.152
308.143
308.126
308.101
308.07
308.035
307.998
307.959
307.922
307.894
304.741
304.757
304.78
304.803
304.826
304.847
304.865
304.88
304.89
304.896
304.896
304.89
304.88
304.865
304.847
304.826
304.803
304.78
304.757
304.741
301.589
301.595
301.602
301.61
301.617
301.624
301.631
301.636
301.639
301.641
301.641
301.639
301.636
301.631
301.624
301.617
301.61
301.602
301.595
301.589
324.711
324.796
324.899
325.005
325.107
325.202
325.284
325.351
325.397
325.421
325.421
325.397
325.351
325.284
325.202
325.107
325.005
324.899
324.796
324.711
321.393
321.465
321.554
321.646
321.735
321.817
321.888
321.946
321.986
322.007
322.007
321.986
321.946
321.888
321.817
321.735
321.646
321.554
321.465
321.393
318.087
318.147
318.222
318.3
318.375
318.444
318.505
318.553
318.588
318.605
318.605
318.588
318.553
318.505
318.444
318.375
318.3
318.222
318.147
318.087
314.791
314.839
314.9
314.963
315.025
315.082
315.131
315.171
315.199
315.214
315.214
315.199
315.171
315.131
315.082
315.025
314.963
314.9
314.839
314.791
311.501
311.538
311.585
311.635
311.683
311.727
311.765
311.796
311.818
311.829
311.829
311.818
311.796
311.765
311.727
311.683
311.635
311.585
311.538
311.501
308.216
308.242
308.276
308.311
308.345
308.377
308.404
308.427
308.442
308.45
308.45
308.442
308.427
308.404
308.377
308.345
308.311
308.276
308.242
308.216
304.934
304.949
304.97
304.991
305.012
305.031
305.047
305.06
305.07
305.075
305.075
305.07
305.06
305.047
305.031
305.012
304.991
304.97
304.949
304.934
301.654
301.659
301.666
301.673
301.68
301.686
301.692
301.696
301.699
301.701
301.701
301.699
301.696
301.692
301.686
301.68
301.673
301.666
301.659
301.654
325.741
325.82
325.914
326.01
326.103
326.189
326.263
326.322
326.363
326.385
326.385
326.363
326.322
326.263
326.189
326.103
326.01
325.914
325.82
325.741
322.281
322.348
322.429
322.513
322.593
322.667
322.731
322.783
322.819
322.837
322.837
322.819
322.783
322.731
322.667
322.593
322.513
322.429
322.348
322.281
318.836
318.89
318.959
319.03
319.098
319.161
319.215
319.259
319.289
319.305
319.305
319.289
319.259
319.215
319.161
319.098
319.03
318.959
318.89
318.836
315.401
315.445
315.501
315.559
315.615
315.666
315.71
315.746
315.771
315.784
315.784
315.771
315.746
315.71
315.666
315.615
315.559
315.501
315.445
315.401
311.974
312.008
312.051
312.096
312.14
312.18
312.214
312.242
312.262
312.272
312.272
312.262
312.242
312.214
312.18
312.14
312.096
312.051
312.008
311.974
308.553
308.577
308.608
308.64
308.671
308.7
308.725
308.744
308.758
308.766
308.766
308.758
308.744
308.725
308.7
308.671
308.64
308.608
308.577
308.553
305.136
305.15
305.169
305.188
305.207
305.224
305.239
305.251
305.259
305.264
305.264
305.259
305.251
305.239
305.224
305.207
305.188
305.169
305.15
305.136
301.721
301.726
301.732
301.739
301.745
301.751
301.756
301.76
301.763
301.764
301.764
301.763
301.76
301.756
301.751
301.745
301.739
301.732
301.726
301.721
326.798
326.87
326.957
327.045
327.129
327.206
327.273
327.326
327.363
327.382
327.382
327.363
327.326
327.273
327.206
327.129
327.045
326.957
326.87
326.798
323.189
323.249
323.324
323.401
323.474
323.541
323.599
323.645
323.677
323.693
323.693
323.677
323.645
323.599
323.541
323.474
323.401
323.324
323.249
323.189
319.597
319.647
319.71
319.775
319.837
319.893
319.942
319.982
320.009
320.023
320.023
320.009
319.982
319.942
319.893
319.837
319.775
319.71
319.647
319.597
316.019
316.059
316.111
316.164
316.214
316.261
316.301
316.333
316.356
316.367
316.367
316.356
316.333
316.301
316.261
316.214
316.164
316.111
316.059
316.019
312.452
312.483
312.523
312.564
312.604
312.64
312.671
312.696
312.713
312.722
312.722
312.713
312.696
312.671
312.64
312.604
312.564
312.523
312.483
312.452
308.893
308.915
308.943
308.973
309.001
309.027
309.049
309.067
309.08
309.086
309.086
309.08
309.067
309.049
309.027
309.001
308.973
308.943
308.915
308.893
305.34
305.353
305.37
305.388
305.405
305.42
305.434
305.444
305.452
305.456
305.456
305.452
305.444
305.434
305.42
305.405
305.388
305.37
305.353
305.34
301.79
301.794
301.8
301.806
301.811
301.817
301.821
301.825
301.827
301.828
301.828
301.827
301.825
301.821
301.817
301.811
301.806
301.8
301.794
301.79
327.815
327.882
327.961
328.042
328.119
328.19
328.25
328.298
328.332
328.349
328.349
328.332
328.298
328.25
328.19
328.119
328.042
327.961
327.882
327.815
324.05
324.107
324.176
324.246
324.313
324.374
324.427
324.468
324.498
324.513
324.513
324.498
324.468
324.427
324.374
324.313
324.246
324.176
324.107
324.05
320.311
320.358
320.417
320.476
320.533
320.585
320.629
320.665
320.69
320.702
320.702
320.69
320.665
320.629
320.585
320.533
320.476
320.417
320.358
320.311
316.594
316.632
316.679
316.728
316.775
316.817
316.854
316.883
316.903
316.914
316.914
316.903
316.883
316.854
316.817
316.775
316.728
316.679
316.632
316.594
312.893
312.922
312.959
312.997
313.033
313.067
313.095
313.118
313.134
313.142
313.142
313.134
313.118
313.095
313.067
313.033
312.997
312.959
312.922
312.893
309.205
309.226
309.252
309.279
309.305
309.329
309.349
309.365
309.377
309.383
309.383
309.377
309.365
309.349
309.329
309.305
309.279
309.252
309.226
309.205
305.526
305.538
305.554
305.57
305.586
305.6
305.612
305.622
305.629
305.632
305.632
305.629
305.622
305.612
305.6
305.586
305.57
305.554
305.538
305.526
301.852
301.856
301.861
301.867
301.872
301.877
301.881
301.884
301.886
301.887
301.887
301.886
301.884
301.881
301.877
301.872
301.867
301.861
301.856
301.852
328.613
328.676
328.751
328.827
328.899
328.964
329.021
329.065
329.096
329.112
329.112
329.096
329.065
329.021
328.964
328.899
328.827
328.751
328.676
328.613
324.701
324.754
324.819
324.885
324.948
325.005
325.054
325.093
325.121
325.134
325.134
325.121
325.093
325.054
325.005
324.948
324.885
324.819
324.754
324.701
320.835
320.879
320.934
320.99
321.043
321.092
321.134
321.167
321.19
321.202
321.202
321.19
321.167
321.134
321.092
321.043
320.99
320.934
320.879
320.835
317.004
317.04
317.085
317.131
317.175
317.215
317.25
317.277
317.296
317.306
317.306
317.296
317.277
317.25
317.215
317.175
317.131
317.085
317.04
317.004
313.202
313.23
313.265
313.301
313.335
313.366
313.393
313.414
313.429
313.437
313.437
313.429
313.414
313.393
313.366
313.335
313.301
313.265
313.23
313.202
309.421
309.44
309.465
309.491
309.515
309.538
309.557
309.572
309.583
309.588
309.588
309.583
309.572
309.557
309.538
309.515
309.491
309.465
309.44
309.421
305.653
305.665
305.68
305.695
305.71
305.724
305.735
305.744
305.751
305.754
305.754
305.751
305.744
305.735
305.724
305.71
305.695
305.68
305.665
305.653
301.894
301.898
301.903
301.908
301.913
301.918
301.922
301.925
301.927
301.928
301.928
301.927
301.925
301.922
301.918
301.913
301.908
301.903
301.898
301.894
)
;

boundaryField
{
    hotSide
    {
        type            fixedGradient;
        gradient        nonuniform List<scalar> 
400
(
182.537
183.211
184.56
186.589
189.304
192.71
196.816
201.631
207.164
213.423
220.418
228.157
236.646
245.894
255.905
266.685
278.238
290.568
303.677
317.567
184.999
185.654
186.965
188.938
191.581
194.902
198.913
203.624
209.048
215.195
222.076
229.701
238.08
247.221
257.13
267.813
279.275
291.519
304.549
318.365
187.664
188.295
189.56
191.468
194.026
197.248
201.147
205.737
211.035
217.052
223.804
231.303
239.559
248.581
258.378
268.956
280.32
292.473
305.418
319.158
190.487
191.091
192.303
194.134
196.595
199.702
203.474
207.928
213.083
218.957
225.567
232.926
241.048
249.944
259.621
270.088
281.348
293.406
306.265
319.925
193.389
193.962
195.115
196.86
199.213
202.193
205.824
210.129
215.131
220.851
227.308
234.521
242.503
251.266
260.821
271.174
282.33
294.293
307.065
320.647
196.25
196.791
197.88
199.533
201.77
204.617
208.102
212.251
217.094
222.656
228.959
236.024
243.866
252.499
261.933
272.175
283.23
295.102
307.792
321.301
198.905
199.413
200.439
202.001
204.125
206.84
210.181
214.18
218.869
224.279
230.436
237.361
245.073
253.585
262.908
273.049
284.013
295.802
308.419
321.861
201.159
201.637
202.606
204.087
206.108
208.707
211.92
215.786
220.342
225.62
231.65
238.456
246.056
254.465
263.695
273.751
284.64
296.361
308.917
322.305
202.808
203.264
204.189
205.607
207.552
210.061
213.178
216.944
221.4
226.58
232.517
239.234
246.753
255.088
264.249
274.245
285.078
296.751
309.264
322.614
203.682
204.126
205.027
206.411
208.313
210.775
213.84
217.552
221.954
227.082
232.968
239.639
247.115
255.41
264.536
274.499
285.304
296.952
309.442
322.772
203.682
204.126
205.027
206.411
208.313
210.775
213.84
217.552
221.954
227.082
232.968
239.639
247.115
255.41
264.536
274.499
285.304
296.952
309.442
322.772
202.808
203.264
204.189
205.607
207.552
210.061
213.178
216.944
221.4
226.58
232.517
239.234
246.753
255.088
264.249
274.245
285.078
296.751
309.264
322.614
201.159
201.637
202.606
204.087
206.108
208.707
211.92
215.786
220.342
225.62
231.65
238.456
246.056
254.465
263.695
273.751
284.64
296.361
308.917
322.305
198.905
199.413
200.439
202.001
204.125
206.84
210.181
214.18
218.869
224.279
230.436
237.361
245.073
253.585
262.908
273.049
284.013
295.802
308.419
321.861
196.25
196.791
197.88
199.533
201.77
204.617
208.102
212.251
217.094
222.656
228.959
236.024
243.866
252.499
261.933
272.175
283.23
295.102
307.792
321.301
193.389
193.962
195.115
196.86
199.213
202.193
205.824
210.129
215.131
220.851
227.308
234.521
242.503
251.266
260.821
271.174
282.33
294.293
307.065
320.647
190.487
191.091
192.303
194.134
196.595
199.702
203.474
207.928
213.083
218.957
225.567
232.926
241.048
249.944
259.621
270.088
281.348
293.406
306.265
319.925
187.664
188.295
189.56
191.468
194.026
197.248
201.147
205.737
211.035
217.052
223.804
231.303
239.559
248.581
258.378
268.956
280.32
292.473
305.418
319.158
184.999
185.654
186.965
188.938
191.581
194.902
198.913
203.624
209.048
215.195
222.076
229.701
238.08
247.221
257.13
267.813
279.275
291.519
304.549
318.365
182.537
183.211
184.56
186.589
189.304
192.71
196.816
201.631
207.164
213.423
220.418
228.157
236.646
245.894
255.905
266.685
278.238
290.568
303.677
317.567
)
;
    }
    coldSide
    {
        type            mixed;
        refValue        uniform 300;
        refGradient     uniform 0;
        valueFraction   uniform 0.991591;
        source          uniform 0;
        value           nonuniform List<scalar> 
400
(
300.01
300.01
300.01
300.01
300.01
300.01
300.01
300.011
300.011
300.011
300.012
300.012
300.012
300.013
300.013
300.014
300.014
300.015
300.016
300.016
300.01
300.01
300.01
300.01
300.01
300.01
300.01
300.011
300.011
300.011
300.012
300.012
300.012
300.013
300.013
300.014
300.015
300.015
300.016
300.016