/*--------------------------------*- C++ -*----------------------------------*\
| =========                 |                                                 |
| \\      /  F ield         | OpenFOAM: The Open Source CFD Toolbox           |
|  \\    /   O peration     | Version:  2212                                  |
|   \\  /    A nd           | Website:  www.openfoam.com                      |
|    \\/     M anipulation  |                                                 |
\*---------------------------------------------------------------------------*/
FoamFile
{
    version     2.0;
    format      ascii;
    arch        "LSB;label=32;scalar=64";
    class       volScalarField;
    location    "0";
    object      Ttrue;
}
// * * * * * * * * * * * * * * * * * * * * * * * * * * * * * * * * * * * * * //

dimensions      [0 0 0 1 0 0 0];

internalField   nonuniform List<scalar> 
3200
(
347.918
348.475
349.185
349.96
350.757
351.54
352.263
352.873
353.317
353.552
353.552
353.317
352.873
352.263
351.54
350.757
349.96
349.185
348.475
347.918
341.6
342.071
342.684
343.354
344.044
344.722
345.346
345.873
346.257
346.46
346.46
346.257
345.873
345.346
344.722
344.044
343.354
342.684
342.071
341.6
335.253
335.644
336.16
336.726
337.31
337.882
338.409
338.854
339.178
339.349
339.349
339.178
338.854
338.409
337.882
337.31
336.726
336.16
335.644
335.253
328.881
329.196
329.617
330.08
330.556
331.024
331.455
331.818
332.082
332.222
332.222
332.082
331.818
331.455
331.024
330.556
330.08
329.617
329.196
328.881
322.49
322.731
323.058
323.417
323.788
324.151
324.486
324.768
324.973
325.081
325.081
324.973
324.768
324.486
324.151
323.788
323.417
323.058
322.731
322.49
316.083
316.254
316.487
316.743
317.008
317.267
317.506
317.708
317.854
317.931
317.931
317.854
317.708
317.506
317.267
317.008
316.743
316.487
316.254
316.083
309.665
309.767
309.907
310.061
310.22
310.375
310.519
310.64
310.727
310.774
310.774
310.727
310.64
310.519
310.375
310.22
310.061
309.907
309.767
309.665
303.241
303.275
303.321
303.373
303.426
303.478
303.527
303.567
303.596
303.612
303.612
303.596
303.567
303.527
303.478
303.426
303.373
303.321
303.275
303.241
348.088
348.64
349.345
350.112
350.901
351.676
352.39
352.992
353.431
353.662
353.662
353.431
352.992
352.39
351.676
350.901
350.112
349.345
348.64
348.088
341.748
342.215
342.823
343.486
344.17
344.839
345.457
345.977
346.356
346.556
346.556
346.356
345.977
345.457
344.839
344.17
343.486
342.823
342.215
341.748
335.378
335.766
336.278
336.838
337.416
337.982
338.503
338.942
339.262
339.431
339.431
339.262
338.942
338.503
337.982
337.416
336.838
336.278
335.766
335.378
328.984
329.296
329.713
330.171
330.643
331.106
331.532
331.89
332.151
332.289
332.289
332.151
331.89
331.532
331.106
330.643
330.171
329.713
329.296
328.984
322.569
322.809
323.133
323.489
323.856
324.215
324.546
324.824
325.027
325.134
325.134
325.027
324.824
324.546
324.215
323.856
323.489
323.133
322.809
322.569
316.14
316.309
316.54
316.794
317.056
317.313
317.549
317.748
317.892
317.969
317.969
317.892
317.748
317.549
317.313
317.056
316.794
316.54
316.309
316.14
309.699
309.8
309.939
310.091
310.249
310.403
310.544
310.664
310.751
310.796
310.796
310.751
310.664
310.544
310.403
310.249
310.091
309.939
309.8
309.699
303.252
303.286
303.332
303.383
303.436
303.488
303.535
303.575
303.604
303.62
303.62
303.604
303.575
303.535
303.488
303.436
303.383
303.332
303.286
303.252
348.429
348.973
349.665
350.418
351.192
351.949
352.647
353.234
353.662
353.887
353.887
353.662
353.234
352.647
351.949
351.192
350.418
349.665
348.973
348.429
342.043
342.503
343.101
343.752
344.422
345.077
345.68
346.188
346.557
346.752
346.752
346.557
346.188
345.68
345.077
344.422
343.752
343.101
342.503
342.043
335.628
336.01
336.513
337.063
337.629
338.183
338.692
339.121
339.432
339.597
339.597
339.432
339.121
338.692
338.183
337.629
337.063
336.513
336.01
335.628
329.188
329.496
329.906
330.356
330.818
331.271
331.687
332.037
332.291
332.425
332.425
332.291
332.037
331.687
331.271
330.818
330.356
329.906
329.496
329.188
322.729
322.965
323.283
323.632
323.992
324.343
324.667
324.939
325.136
325.24
325.24
325.136
324.939
324.667
324.343
323.992
323.632
323.283
322.965
322.729
316.254
316.421
316.647
316.897
317.154
317.405
317.636
317.83
317.971
318.045
318.045
317.971
317.83
317.636
317.405
317.154
316.897
316.647
316.421
316.254
309.768
309.867
310.003
310.153
310.307
310.458
310.597
310.713
310.798
310.842
310.842
310.798
310.713
310.597
310.458
310.307
310.153
310.003
309.867
309.768
303.275
303.308
303.354
303.404
303.456
303.506
303.553
303.592
303.62
303.635
303.635
303.62
303.592
303.553
303.506
303.456
303.404
303.354
303.308
303.275
348.942
349.473
350.148
350.88
351.631
352.364
353.038
353.604
354.016
354.233
354.233
354.016
353.604
353.038
352.364
351.631
350.88
350.148
349.473
348.942
342.488
342.937
343.519
344.153
344.803
345.437
346.02
346.51
346.865
347.052
347.052
346.865
346.51
346.02
345.437
344.803
344.153
343.519
342.937
342.488
336.004
336.377
336.868
337.403
337.952
338.488
338.981
339.394
339.694
339.852
339.852
339.694
339.394
338.981
338.488
337.952
337.403
336.868
336.377
336.004
329.496
329.796
330.196
330.634
331.083
331.521
331.923
332.261
332.506
332.635
332.635
332.506
332.261
331.923
331.521
331.083
330.634
330.196
329.796
329.496
322.968
323.199
323.509
323.849
324.198
324.538
324.851
325.113
325.303
325.404
325.404
325.303
325.113
324.851
324.538
324.198
323.849
323.509
323.199
322.968
316.425
316.588
316.809
317.052
317.301
317.544
317.767
317.955
318.09
318.162
318.162
318.09
317.955
317.767
317.544
317.301
317.052
316.809
316.588
316.425
309.87
309.968
310.1
310.246
310.396
310.542
310.676
310.788
310.869
310.912
310.912
310.869
310.788
310.676
310.542
310.396
310.246
310.1
309.968
309.87
303.309
303.342
303.386
303.435
303.485
303.534
303.579
303.617
303.644
303.658
303.658
303.644
303.617
303.579
303.534
303.485
303.435
303.386
303.342
303.309
349.628
350.143
350.796
351.502
352.223
352.926
353.57
354.11
354.502
354.708
354.708
354.502
354.11
353.57
352.926
352.223
351.502
350.796
350.143
349.628
343.083
343.518
344.081
344.692
345.317
345.925
346.482
346.949
347.288
347.466
347.466
347.288
346.949
346.482
345.925
345.317
344.692
344.081
343.518
343.083
336.508
336.869
337.344
337.86
338.388
338.902
339.373
339.767
340.052
340.203
340.203
340.052
339.767
339.373
338.902
338.388
337.86
337.344
336.869
336.508
329.908
330.199
330.586
331.008
331.44
331.86
332.244
332.567
332.8
332.922
332.922
332.8
332.567
332.244
331.86
331.44
331.008
330.586
330.199
329.908
323.289
323.512
323.812
324.14
324.476
324.803
325.101
325.351
325.533
325.628
325.628
325.533
325.351
325.101
324.803
324.476
324.14
323.812
323.512
323.289
316.654
316.812
317.026
317.26
317.5
317.733
317.946
318.125
318.254
318.322
318.322
318.254
318.125
317.946
317.733
317.5
317.26
317.026
316.812
316.654
310.008
310.102
310.231
310.371
310.515
310.655
310.783
310.891
310.968
311.009
311.009
310.968
310.891
310.783
310.655
310.515
310.371
310.231
310.102
310.008
303.356
303.387
303.43
303.477
303.525
303.572
303.615
303.651
303.677
303.691
303.691
303.677
303.651
303.615
303.572
303.525
303.477
303.43
303.387
303.356
350.49
350.985
351.612
352.287
352.975
353.642
354.251
354.761
355.129
355.323
355.323
355.129
354.761
354.251
353.642
352.975
352.287
351.612
350.985
350.49
343.83
344.249
344.79
345.374
345.969
346.547
347.074
347.515
347.833
348.001
348.001
347.833
347.515
347.074
346.547
345.969
345.374
344.79
344.249
343.83
337.14
337.488
337.943
338.437
338.941
339.429
339.874
340.246
340.515
340.657
340.657
340.515
340.246
339.874
339.429
338.941
338.437
337.943
337.488
337.14
330.426
330.706
331.077
331.481
331.893
332.292
332.656
332.96
333.179
333.295
333.295
333.179
332.96
332.656
332.292
331.893
331.481
331.077
330.706
330.426
323.692
323.907
324.195
324.508
324.828
325.139
325.422
325.658
325.828
325.918
325.918
325.828
325.658
325.422
325.139
324.828
324.508
324.195
323.907
323.692
316.942
317.094
317.299
317.523
317.752
317.974
318.175
318.344
318.466
318.53
318.53
318.466
318.344
318.175
317.974
317.752
317.523
317.299
317.094
316.942
310.181
310.272
310.395
310.529
310.667
310.8
310.921
311.022
311.095
311.134
311.134
311.095
311.022
310.921
310.8
310.667
310.529
310.395
310.272
310.181
303.414
303.444
303.485
303.53
303.576
303.621
303.661
303.695
303.72
303.733
303.733
303.72
303.695
303.661
303.621
303.576
303.53
303.485
303.444
303.414
351.53
352.003
352.6
353.241
353.891
354.519
355.09
355.566
355.91
356.09
356.09
355.91
355.566
355.09
354.519
353.891
353.241
352.6
352.003
351.53
344.731
345.132
345.647
346.202
346.765
347.308
347.803
348.215
348.511
348.667
348.667
348.511
348.215
347.803
347.308
346.765
346.202
345.647
345.132
344.731
337.903
338.236
338.67
339.139
339.615
340.074
340.492
340.84
341.09
341.222
341.222
341.09
340.84
340.492
340.074
339.615
339.139
338.67
338.236
337.903
331.051
331.318
331.672
332.055
332.444
332.82
333.162
333.446
333.651
333.758
333.758
333.651
333.446
333.162
332.82
332.444
332.055
331.672
331.318
331.051
324.178
324.383
324.657
324.955
325.258
325.55
325.816
326.037
326.196
326.279
326.279
326.196
326.037
325.816
325.55
325.258
324.955
324.657
324.383
324.178
317.289
317.435
317.63
317.843
318.059
318.268
318.457
318.615
318.729
318.788
318.788
318.729
318.615
318.457
318.268
318.059
317.843
317.63
317.435
317.289
310.39
310.476
310.594
310.721
310.851
310.977
311.09
311.185
311.253
311.289
311.289
311.253
311.185
311.09
310.977
310.851
310.721
310.594
310.476
310.39
303.483
303.512
303.552
303.595
303.638
303.68
303.718
303.75
303.773
303.785
303.785
303.773
303.75
303.718
303.68
303.638
303.595
303.552
303.512
303.483
352.75
353.2
353.765
354.369
354.979
355.565
356.096
356.537
356.854
357.02
357.02
356.854
356.537
356.096
355.565
354.979
354.369
353.765
353.2
352.75
345.789
346.17
346.657
347.18
347.708
348.216
348.676
349.058
349.332
349.475
349.475
349.332
349.058
348.676
348.216
347.708
347.18
346.657
346.17
345.789
338.799
339.115
339.525
339.967
340.414
340.843
341.232
341.554
341.786
341.907
341.907
341.786
341.554
341.232
340.843
340.414
339.967
339.525
339.115
338.799
331.783
332.038
332.373
332.734
333.099
333.45
333.768
334.032
334.221
334.32
334.32
334.221
334.032
333.768
333.45
333.099
332.734
332.373
332.038
331.783
324.748
324.943
325.203
325.484
325.768
326.041
326.288
326.493
326.64
326.717
326.717
326.64
326.493
326.288
326.041
325.768
325.484
325.203
324.943
324.748
317.697
317.835
318.02
318.221
318.424
318.619
318.795
318.941
319.046
319.101
319.101
319.046
318.941
318.795
318.619
318.424
318.221
318.02
317.835
317.697
310.634
310.717
310.828
310.948
311.07
311.187
311.293
311.381
311.444
311.477
311.477
311.444
311.381
311.293
311.187
311.07
310.948
310.828
310.717
310.634
303.566
303.593
303.63
303.671
303.712
303.751
303.786
303.816
303.837
303.848
303.848
303.837
303.816
303.786
303.751
303.712
303.671
303.63
303.593
303.566
354.153
354.578
355.11
355.675
356.243
356.787
357.277
357.683
357.973
358.125
358.125
357.973
357.683
357.277
356.787
356.243
355.675
355.11
354.578
354.153
347.006
347.365
347.824
348.314
348.806
349.277
349.701
350.052
350.304
350.435
350.435
350.304
350.052
349.701
349.277
348.806
348.314
347.824
347.365
347.006
339.829
340.127
340.513
340.927
341.344
341.742
342.101
342.397
342.61
342.721
342.721
342.61
342.397
342.101
341.742
341.344
340.927
340.513
340.127
339.829
332.626
332.866
333.182
333.52
333.86
334.186
334.48
334.722
334.896
334.987
334.987
334.896
334.722
334.48
334.186
333.86
333.52
333.182
332.866
332.626
325.404
325.588
325.833
326.096
326.36
326.614
326.842
327.03
327.165
327.236
327.236
327.165
327.03
326.842
326.614
326.36
326.096
325.833
325.588
325.404
318.166
318.296
318.47
318.658
318.847
319.028
319.191
319.326
319.422
319.473
319.473
319.422
319.326
319.191
319.028
318.847
318.658
318.47
318.296
318.166
310.916
310.994
311.098
311.211
311.325
311.434
311.531
311.612
311.67
311.7
311.7
311.67
311.612
311.531
311.434
311.325
311.211
311.098
310.994
310.916
303.66
303.686
303.721
303.759
303.797
303.833
303.866
303.893
303.913
303.923
303.923
303.913
303.893
303.866
303.833
303.797
303.759
303.721
303.686
303.66
355.742
356.141
356.639
357.165
357.691
358.192
358.642
359.012
359.277
359.415
359.415
359.277
359.012
358.642
358.192
357.691
357.165
356.639
356.141
355.742
348.383
348.721
349.15
349.606
350.062
350.496
350.886
351.206
351.435
351.555
351.555
351.435
351.206
350.886
350.496
350.062
349.606
349.15
348.721
348.383
340.995
341.275
341.637
342.022
342.408
342.775
343.104
343.375
343.569
343.67
343.67
343.569
343.375
343.104
342.775
342.408
342.022
341.637
341.275
340.995
333.581
333.806
334.101
334.416
334.732
335.032
335.301
335.523
335.681
335.764
335.764
335.681
335.523
335.301
335.032
334.732
334.416
334.101
333.806
333.581
326.147
326.32
326.548
326.793
327.039
327.272
327.482
327.654
327.777
327.841
327.841
327.777
327.654
327.482
327.272
327.039
326.793
326.548
326.32
326.147
318.696
318.819
318.982
319.157
319.332
319.499
319.649
319.772
319.86
319.906
319.906
319.86
319.772
319.649
319.499
319.332
319.157
318.982
318.819
318.696
311.235
311.308
311.406
311.511
311.616
311.717
311.806
311.88
311.933
311.961
311.961
311.933
311.88
311.806
311.717
311.616
311.511
311.406
311.308
311.235
303.767
303.791
303.824
303.859
303.895
303.928
303.958
303.983
304.001
304.01
304.01
304.001
303.983
303.958
303.928
303.895
303.859
303.824
303.791
303.767
357.519
357.892
358.355
358.843
359.328
359.787
360.197
360.533
360.773
360.897
360.897
360.773
360.533
360.197
359.787
359.328
358.843
358.355
357.892
357.519
349.924
350.24
350.64
351.062
351.482
351.88
352.235
352.526
352.733
352.841
352.841
352.733
352.526
352.235
351.88
351.482
351.062
350.64
350.24
349.924
342.299
342.561
342.898
343.255
343.61
343.947
344.247
344.493
344.669
344.76
344.76
344.669
344.493
344.247
343.947
343.61
343.255
342.898
342.561
342.299
334.648
334.859
335.134
335.426
335.717
335.992
336.238
336.439
336.583
336.657
336.657
336.583
336.439
336.238
335.992
335.717
335.426
335.134
334.859
334.648
326.977
327.139
327.352
327.579
327.805
328.019
328.211
328.367
328.479
328.537
328.537
328.479
328.367
328.211
328.019
327.805
327.579
327.352
327.139
326.977
319.29
319.405
319.557
319.719
319.88
320.033
320.17
320.282
320.361
320.403
320.403
320.361
320.282
320.17
320.033
319.88
319.719
319.557
319.405
319.29
311.592
311.66
311.751
311.849
311.946
312.037
312.119
312.187
312.235
312.259
312.259
312.235
312.187
312.119
312.037
311.946
311.849
311.751
311.66
311.592
303.886
303.909
303.94
303.972
304.005
304.036
304.063
304.086
304.102
304.11
304.11
304.102
304.086
304.063
304.036
304.005
303.972
303.94
303.909
303.886
359.486
359.834
360.263
360.713
361.157
361.576
361.948
362.252
362.468
362.58
362.58
362.468
362.252
361.948
361.576
361.157
360.713
360.263
359.834
359.486
351.63
351.924
352.294
352.684
353.069
353.432
353.754
354.018
354.205
354.302
354.302
354.205
354.018
353.754
353.432
353.069
352.684
352.294
351.924
351.63
343.743
343.987
344.299
344.628
344.954
345.261
345.534
345.757
345.915
345.997
345.997
345.915
345.757
345.534
345.261
344.954
344.628
344.299
343.987
343.743
335.83
336.027
336.281
336.55
336.817
337.068
337.292
337.474
337.603
337.67
337.67
337.603
337.474
337.292
337.068
336.817
336.55
336.281
336.027
335.83
327.897
328.048
328.245
328.454
328.662
328.857
329.031
329.173
329.273
329.326
329.326
329.273
329.173
329.031
328.857
328.662
328.454
328.245
328.048
327.897
319.947
320.054
320.195
320.344
320.493
320.632
320.756
320.858
320.93
320.967
320.967
320.93
320.858
320.756
320.632
320.493
320.344
320.195
320.054
319.947
311.987
312.05
312.135
312.224
312.314
312.397
312.472
312.533
312.576
312.598
312.598
312.576
312.533
312.472
312.397
312.314
312.224
312.135
312.05
311.987
304.019
304.04
304.068
304.098
304.128
304.156
304.181
304.202
304.216
304.224
304.224
304.216
304.202
304.181
304.156
304.128
304.098
304.068
304.04
304.019
361.645
361.967
362.363
362.777
363.183
363.563
363.9
364.173
364.367
364.468
364.468
364.367
364.173
363.9
363.563
363.183
362.777
362.363
361.967
361.645
353.501
353.774
354.116
354.474
354.826
355.156
355.448
355.685
355.853
355.94
355.94
355.853
355.685
355.448
355.156
354.826
354.474
354.116
353.774
353.501
345.327
345.553
345.842
346.144
346.442
346.721
346.968
347.169
347.311
347.384
347.384
347.311
347.169
346.968
346.721
346.442
346.144
345.842
345.553
345.327
337.127
337.309
337.544
337.792
338.035
338.264
338.466
338.63
338.746
338.806
338.806
338.746
338.63
338.466
338.264
338.035
337.792
337.544
337.309
337.127
328.906
329.046
329.228
329.42
329.61
329.788
329.945
330.073
330.163
330.21
330.21
330.163
330.073
329.945
329.788
329.61
329.42
329.228
329.046
328.906
320.669
320.767
320.898
321.035
321.171
321.298
321.41
321.501
321.566
321.599
321.599
321.566
321.501
321.41
321.298
321.171
321.035
320.898
320.767
320.669
312.42
312.479
312.557
312.639
312.721
312.797
312.864
312.919
312.958
312.978
312.978
312.958
312.919
312.864
312.797
312.721
312.639
312.557
312.479
312.42
304.164
304.184
304.21
304.238
304.265
304.29
304.313
304.331
304.344
304.351
304.351
304.344
304.331
304.313
304.29
304.265
304.238
304.21
304.184
304.164
363.995
364.293
364.658
365.036
365.406
365.751
366.054
366.3
366.473
366.563
366.563
366.473
366.3
366.054
365.751
365.406
365.036
364.658
364.293
363.995
355.539
355.791
356.106
356.434
356.754
357.053
357.316
357.529
357.679
357.757
357.757
357.679
357.529
357.316
357.053
356.754
356.434
356.106
355.791
355.539
347.052
347.261
347.526
347.803
348.075
348.328
348.55
348.73
348.858
348.923
348.923
348.858
348.73
348.55
348.328
348.075
347.803
347.526
347.261
347.052
338.538
338.707
338.923
339.15
339.372
339.579
339.761
339.909
340.013
340.067
340.067
340.013
339.909
339.761
339.579
339.372
339.15
338.923
338.707
338.538
330.004
330.133
330.301
330.477
330.65
330.811
330.953
331.068
331.149
331.191
331.191
331.149
331.068
330.953
330.811
330.65
330.477
330.301
330.133
330.004
321.453
321.545
321.665
321.791
321.914
322.029
322.13
322.212
322.27
322.3
322.3
322.27
322.212
322.13
322.029
321.914
321.791
321.665
321.545
321.453
312.891
312.946
313.018
313.093
313.167
313.237
313.297
313.347
313.381
313.399
313.399
313.381
313.347
313.297
313.237
313.167
313.093
313.018
312.946
312.891
304.322
304.34
304.364
304.39
304.415
304.438
304.458
304.475
304.486
304.492
304.492
304.486
304.475
304.458
304.438
304.415
304.39
304.364
304.34
304.322
366.533
366.808
367.143
367.489
367.825
368.136
368.409
368.629
368.784
368.864
368.864
368.784
368.629
368.409
368.136
367.825
367.489
367.143
366.808
366.533
357.739
357.971
358.26
358.56
358.851
359.121
359.358
359.549
359.683
359.752
359.752
359.683
359.549
359.358
359.121
358.851
358.56
358.26
357.971
357.739
348.913
349.106
349.35
349.603
349.849
350.078
350.278
350.44
350.554
350.612
350.612
350.554
350.44
350.278
350.078
349.849
349.603
349.35
349.106
348.913
340.062
340.217
340.415
340.623
340.824
341.012
341.175
341.308
341.401
341.449
341.449
341.401
341.308
341.175
341.012
340.824
340.623
340.415
340.217
340.062
331.189
331.308
331.462
331.623
331.78
331.926
332.054
332.156
332.229
332.266
332.266
332.229
332.156
332.054
331.926
331.78
331.623
331.462
331.308
331.189
322.3
322.384
322.494
322.609
322.722
322.826
322.917
322.99
323.042
323.069
323.069
323.042
322.99
322.917
322.826
322.722
322.609
322.494
322.384
322.3
313.4
313.45
313.516
313.585
313.653
313.715
313.77
313.814
313.845
313.861
313.861
313.845
313.814
313.77
313.715
313.653
313.585
313.516
313.45
313.4
304.493
304.509
304.531
304.555
304.577
304.598
304.617
304.631
304.642
304.647
304.647
304.642
304.631
304.617
304.598
304.577
304.555
304.531
304.509
304.493
369.249
369.502
369.809
370.124
370.429
370.71
370.955
371.152
371.29
371.362
371.362
371.29
371.152
370.955
370.71
370.429
370.124
369.809
369.502
369.249
360.091
360.305
360.57
360.843
361.107
361.351
361.563
361.734
361.854
361.916
361.916
361.854
361.734
361.563
361.351
361.107
360.843
360.57
360.305
360.091
350.902
351.079
351.303
351.534
351.757
351.964
352.144
352.288
352.39
352.442
352.442
352.39
352.288
352.144
351.964
351.757
351.534
351.303
351.079
350.902
341.688
341.831
342.013
342.202
342.385
342.554
342.701
342.82
342.903
342.945
342.945
342.903
342.82
342.701
342.554
342.385
342.202
342.013
341.831
341.688
332.453
332.563
332.704
332.851
332.994
333.125
333.24
333.332
333.397
333.43
333.43
333.397
333.332
333.24
333.125
332.994
332.851
332.704
332.563
332.453
323.203
323.281
323.382
323.487
323.588
323.682
323.764
323.83
323.877
323.9
323.9
323.877
323.83
323.764
323.682
323.588
323.487
323.382
323.281
323.203
313.942
313.988
314.049
314.112
314.173
314.23
314.279
314.318
314.346
314.36
314.36
314.346
314.318
314.279
314.23
314.173
314.112
314.049
313.988
313.942
304.674
304.69
304.71
304.731
304.752
304.771
304.787
304.8
304.81
304.814
304.814
304.81
304.8
304.787
304.771
304.752
304.731
304.71
304.69
304.674
372.113
372.346
372.627
372.914
373.19
373.443
373.664
373.84
373.963
374.027
374.027
373.963
373.84
373.664
373.443
373.19
372.914
372.627
372.346
372.113
362.566
362.763
363.006
363.254
363.494
363.714
363.905
364.058
364.165
364.22
364.22
364.165
364.058
363.905
363.714
363.494
363.254
363.006
362.763
362.566
352.992
353.155
353.359
353.57
353.773
353.959
354.121
354.25
354.341
354.388
354.388
354.341
354.25
354.121
353.959
353.773
353.57
353.359
353.155
352.992
343.394
343.526
343.692
343.865
344.031
344.183
344.316
344.422
344.496
344.534
344.534
344.496
344.422
344.316
344.183
344.031
343.865
343.692
343.526
343.394
333.779
333.879
334.009
334.143
334.272
334.391
334.494
334.576
334.634
334.664
334.664
334.634
334.576
334.494
334.391
334.272
334.143
334.009
333.879
333.779
324.149
324.22
324.313
324.408
324.501
324.586
324.659
324.718
324.76
324.781
324.781
324.76
324.718
324.659
324.586
324.501
324.408
324.313
324.22
324.149
314.51
314.552
314.608
314.665
314.721
314.772
314.816
314.851
314.876
314.889
314.889
314.876
314.851
314.816
314.772
314.721
314.665
314.608
314.552
314.51
304.864
304.879
304.897
304.916
304.935
304.952
304.967
304.979
304.987
304.992
304.992
304.987
304.979
304.967
304.952
304.935
304.916
304.897
304.879
304.864
375.05
375.264
375.522
375.784
376.034
376.264
376.462
376.62
376.73
376.787
376.787
376.73
376.62
376.462
376.264
376.034
375.784
375.522
375.264
375.05
365.094
365.275
365.497
365.724
365.942
366.141
366.313
366.45
366.546
366.595
366.595
366.546
366.45
366.313
366.141
365.942
365.724
365.497
365.275
365.094
355.116
355.267
355.454
355.646
355.831
355.999
356.145
356.262
356.343
356.384
356.384
356.343
356.262
356.145
355.999
355.831
355.646
355.454
355.267
355.116
345.123
345.244
345.397
345.554
345.705
345.843
345.963
346.058
346.125
346.159
346.159
346.125
346.058
345.963
345.843
345.705
345.554
345.397
345.244
345.123
335.117
335.21
335.329
335.451
335.569
335.676
335.769
335.843
335.895
335.922
335.922
335.895
335.843
335.769
335.676
335.569
335.451
335.329
335.21
335.117
325.102
325.168
325.252
325.34
325.424
325.501
325.567
325.621
325.658
325.677
325.677
325.658
325.621
325.567
325.501
325.424
325.34
325.252
325.168
325.102
315.081
315.12
315.171
315.223
315.274
315.32
315.36
315.392
315.414
315.426
315.426
315.414
315.392
315.36
315.32
315.274
315.223
315.171
315.12
315.081
305.056
305.069
305.086
305.103
305.12
305.136
305.149
305.16
305.167
305.171
305.171
305.167
305.16
305.149
305.136
305.12
305.103
305.086
305.069
305.056
377.871
378.069
378.306
378.547
378.776
378.985
379.165
379.308
379.408
379.459
379.459
379.408
379.308
379.165
378.985
378.776
378.547
378.306
378.069
377.871
367.491
367.659
367.864
368.073
368.272
368.454
368.61
368.735
368.821
368.866
368.866
368.821
368.735
368.61
368.454
368.272
368.073
367.864
367.659
367.491
357.11
357.249
357.422
357.599
357.769
357.923
358.056
358.161
358.235
358.273
358.273
358.235
358.161
358.056
357.923
357.769
357.599
357.422
357.249
357.11
346.73
346.842
346.984
347.129
347.267
347.394
347.503
347.589
347.65
347.681
347.681
347.65
347.589
347.503
347.394
347.267
347.129
346.984
346.842
346.73
336.352
336.438
336.548
336.661
336.769
336.868
336.953
337.02
337.067
337.091
337.091
337.067
337.02
336.953
336.868
336.769
336.661
336.548
336.438
336.352
325.976
326.037
326.116
326.197
326.274
326.344
326.405
326.454
326.487
326.505
326.505
326.487
326.454
326.405
326.344
326.274
326.197
326.116
326.037
325.976
315.603
315.639
315.686
315.735
315.781
315.824
315.86
315.889
315.909
315.92
315.92
315.909
315.889
315.86
315.824
315.781
315.735
315.686
315.639
315.603
305.23
305.242
305.258
305.274
305.29
305.304
305.316
305.326
305.333
305.336
305.336
305.333
305.326
305.316
305.304
305.29
305.274
305.258
305.242
305.23
380.078
380.264
380.487
380.713
380.927
381.122
381.29
381.423
381.515
381.562
381.562
381.515
381.423
381.29
381.122
380.927
380.713
380.487
380.264
380.078
369.296
369.454
369.647
369.844
370.031
370.201
370.347
370.463
370.544
370.585
370.585
370.544
370.463
370.347
370.201
370.031
369.844
369.647
369.454
369.296
358.565
358.696
358.86
359.027
359.186
359.331
359.455
359.554
359.623
359.658
359.658
359.623
359.554
359.455
359.331
359.186
359.027
358.86
358.696
358.565
347.874
347.981
348.115
348.252
348.382
348.501
348.603
348.685
348.741
348.77
348.77
348.741
348.685
348.603
348.501
348.382
348.252
348.115
347.981
347.874
337.215
337.297
337.401
337.508
337.61
337.703
337.783
337.846
337.89
337.913
337.913
337.89
337.846
337.783
337.703
337.61
337.508
337.401
337.297
337.215
326.579
326.637
326.711
326.788
326.861
326.928
326.985
327.03
327.062
327.078
327.078
327.062
327.03
326.985
326.928
326.861
326.788
326.711
326.637
326.579
315.959
315.994
316.038
316.084
316.128
316.168
316.203
316.23
316.249
316.259
316.259
316.249
316.23
316.203
316.168
316.128
316.084
316.038
315.994
315.959
305.349
305.36
305.375
305.391
305.405
305.419
305.43
305.44
305.446
305.449
305.449
305.446
305.44
305.43
305.419
305.405
305.391
305.375
305.36
305.349
)
;

boundaryField
{
    hotSide
    {
        type            fixedGradient;
        gradient        nonuniform List<scalar> 
400
(
502.696
504.507
508.135
513.591
520.892
530.059
541.114
554.085
568.998
585.879
604.754
625.648
648.583
673.579
700.654
729.823
761.098
794.49
830.006
867.653
510.019
511.772
515.286
520.577
527.665
536.58
547.351
560.013
574.6
591.146
609.683
630.241
652.848
677.526
704.297
733.178
764.181
797.319
832.6
870.029
517.944
519.628
523.007
528.1
534.938
543.556
553.995
566.298
580.51
596.672
614.825
635.006
657.246
681.573
708.011
736.578
767.289
800.156
835.186
872.385
526.34
527.944
531.164
536.03
542.578
550.855
560.915
572.813
586.602
602.337
620.066
639.833
661.675
685.624
711.707
739.943
770.347
802.932
837.704
874.668
534.973
536.485
539.529
544.139
550.364
558.265
567.907
579.361
592.693
607.969
625.246
644.575
666.001
689.558
715.275
743.173
773.268
805.569
840.085
876.816
543.481
544.897
547.751
552.089
557.972
565.475
574.681
585.672
598.533
613.338
630.156
649.046
670.055
693.224
718.582
746.151
775.946
807.977
842.247
878.759
551.379
552.697
555.363
559.43
564.975
572.087
580.864
591.407
603.812
618.167
634.549
653.024
673.645
696.454
721.482
748.75
778.273
810.059
844.11
880.425
558.082
559.313
561.809
565.633
570.875
577.638
586.037
596.185
608.191
622.155
638.161
656.28
676.57
699.074
723.823
750.84
780.137
811.721
845.592
881.747
562.987
564.151
566.517
570.156
575.167
581.666
589.778
599.63
611.338
625.01
640.738
658.595
678.642
700.924
725.472
752.308
781.442
812.881
846.624
882.665
565.586
566.714
569.009
572.547
577.433
583.788
591.746
601.438
612.987
626.503
642.081
659.8
679.718
701.883
726.325
753.065
782.115
813.478
847.154
883.136
565.586
566.714
569.009
572.547
577.433
583.788
591.746
601.438
612.987
626.503
642.081
659.8
679.718
701.883
726.325
753.065
782.115
813.478
847.154
883.136
562.987
564.151
566.517
570.156
575.167
581.666
589.778
599.63
611.338
625.01
640.738
658.595
678.642
700.924
725.472
752.308
781.442
812.881
846.624
882.665
558.082
559.313
561.809
565.633
570.875
577.638
586.037
596.185
608.191
622.155
638.161
656.28
676.57
699.074
723.823
750.84
780.137
811.721
845.592
881.747
551.379
552.697
555.363
559.43
564.975
572.087
580.864
591.407
603.812
618.167
634.549
653.024
673.645
696.454
721.482
748.75
778.273
810.059
844.11
880.425
543.481
544.897
547.751
552.089
557.972
565.475
574.681
585.672
598.533
613.338
630.156
649.046
670.055
693.224
718.582
746.151
775.946
807.977
842.247
878.759
534.973
536.485
539.529
544.139
550.364
558.265
567.907
579.361
592.693
607.969
625.246
644.575
666.001
689.558
715.275
743.173
773.268
805.569
840.085
876.816
526.34
527.944
531.164
536.03
542.578
550.855
560.915
572.813
586.602
602.337
620.066
639.833
661.675
685.624
711.707
739.943
770.347
802.932
837.704
874.668
517.944
519.628
523.007
528.1
534.938
543.556
553.995
566.298
580.51
596.672
614.825
635.006
657.246
681.573
708.011
736.578
767.289
800.156
835.186
872.385
510.019
511.772
515.286
520.577
527.665
536.58
547.351
560.013
574.6
591.146
609.683
630.241
652.848
677.526
704.297
733.178
764.181
797.319
832.6
870.029
502.696
504.507
508.135
513.591
520.892
530.059
541.114
554.085
568.998
585.879
604.754
625.648
648.583
673.579
700.654
729.823
761.098
794.49
830.006
867.653
)
;
    }
    coldSide
    {
        type            mixed;
        refValue        uniform 300;
        refGradient     uniform 0;
        valueFraction   uniform 0.991591;
        source          uniform 0;
        value           nonuniform List<scalar> 
400
(
300.027
300.027
300.028
300.028
300.028
300.029
300.029
300.03
300.031
300.032
300.033
300.034
300.035
300.036
300.038
300.039
300.041
300.043
300.044
300.045
300.028
300.028
300.028
300.028
300.028
300.029
300.03
300.03
300.031
300.032
300.033
300.034
300.035
300.036
300.038
300.039
300.041
300.043
300.044
300.045
300.028
300.028
300.028
300.028
300.029
300.029