/*--------------------------------*- C++ -*----------------------------------*\
| =========                 |                                                 |
| \\      /  F ield         | OpenFOAM: The Open Source CFD Toolbox           |
|  \\    /   O peration     | Version:  2212                                  |
|   \\  /    A nd           | Website:  www.openfoam.com                      |
|    \\/     M anipulation  |                                                 |
\*---------------------------------------------------------------------------*/
FoamFile
{
    version     2.0;
    format      ascii;
    arch        "LSB;label=32;scalar=64";
    class       volScalarField;
    location    "./ITHACAoutput/true/15.4";
    object      error;
}
// * * * * * * * * * * * * * * * * * * * * * * * * * * * * * * * * * * * * * //

dimensions      [0 0 0 1 0 0 0];

internalField   nonuniform List<scalar> 
3200
(
-1.24064
-1.02772
1.89046
3.59469
1.96201
2.94954
0.169111
3.5923
1.4523
1.34056
3.36368
2.55093
2.05712
2.19358
2.23687
4.04379
1.32436
0.763064
-0.785753
-0.390332
-0.215011
-0.883347
3.46934
1.33609
4.11271
2.6496
3.44746
2.16816
2.29772
1.32075
2.10446
2.88262
4.26266
1.83528
0.725198
2.0917
2.39321
0.320053
-0.96474
-0.353057
-1.80754
1.48339
1.96236
0.720081
3.91428
1.12025
3.13312
2.87259
3.33209
4.36067
0.845977
3.23476
5.06539
2.30552
1.9625
2.4963
-0.0785713
0.456242
1.08883
-1.32908
-2.37364
0.460201
2.00104
2.7508
2.54411
3.3394
4.18262
1.8994
2.2047
2.18461
2.20004
2.15154
1.26018
0.578034
2.33299
2.01714
3.47573
-1.37149
1.02896
-0.819872
2.14652
0.0893532
0.801474
-0.327233
0.167426
0.912391
1.80326
2.37534
3.20862
0.558334
0.570014
2.61068
1.24
1.38697
1.1187
1.36211
0.306978
2.40994
1.7181
-3.1257
2.41651
-0.457372
-0.315017
1.46481
1.09764
1.15973
2.74978
2.16372
2.32254
0.255891
-0.673818
0.545487
1.75724
3.24049
1.49898
-0.398668
0.515094
1.58398
0.779948
-0.473691
-2.10368
1.45251
-0.383917
0.081622
0.254775
-0.018672
-1.89333
0.30117
1.59137
2.36971
-1.35256
2.13127
-0.244595
1.01407
-0.0491146
0.628363
0.450265
-0.707346
1.59469
1.14766
-1.23774
-0.0991683
-1.5056
-0.83711
-0.60129
-1.11832
0.097774
4.10186
0.18519
-0.760869
-2.98585
1.25199
-1.33517
-1.40111
-1.06744
-0.773357
0.588332
-0.204907
1.74664
-0.029097
-1.14969
2.4341
1.80349
0.853979
1.75154
3.21081
3.16077
4.14255
2.24779
1.15218
2.83526
1.42538
1.67348
1.64512
2.68176
2.13097
1.58829
0.302003
-0.235966
-2.60943
-0.828455
0.282495
1.50447
-0.359556
1.37634
0.0268093
3.8486
1.12567
2.34543
0.267122
0.21439
2.92701
0.350593
3.49469
-0.32307
0.759096
0.740252
2.15151
-0.155705
-2.13879
-1.55112
-0.45645
1.43402
0.767125
2.43069
0.394915
5.71233
2.08415
2.27352
3.55922
1.98395
2.14826
2.02773
0.537093
1.39596
0.559733
0.674524
1.63016
0.480385
-5.32195
-1.96667
0.895397
1.32446
2.50312
1.61839
1.72007
1.01711
3.49145
4.06045
-0.321728
4.13078
1.74006
2.29089
1.007
1.78075
2.75699
1.79099
1.064
0.635352
-1.45745
0.750555
-1.16103
-1.50675
0.253328
1.97599
1.75775
-0.1929
1.91599
3.26807
0.602456
0.438535
5.26946
1.64512
-0.153188
0.467992
0.81383
2.27866
1.53084
1.3955
-0.00424808
-0.197769
0.777777
1.95375
0.678772
2.95144
3.26699
3.45971
1.05595
2.23376
0.77642
0.816028
1.58222
0.829413
-0.307922
3.18359
-0.537306
1.94237
-1.48507
-0.736018
-0.24173
2.10549
1.11534
1.24027
1.14355
-0.44524
0.278185
1.74005
1.86509
1.33995
0.994978
2.09222
1.29729
0.77561
1.74818
1.49019
2.04335
1.18864
-2.61005
-0.283796
1.49985
0.143048
2.86788
0.967459
0.289144
1.65153
0.400255
-1.00663
0.111962
1.25526
1.33869
0.146753
-1.56554
-1.29003
0.627422
0.870498
-1.62195
-0.667607
-1.05093
0.202419
-0.15098
-3.34545
0.151838
2.51141
1.53846
2.3258
2.85083
4.26488
2.95132
1.04626
2.15946
0.0946573
1.26309
4.00411
2.9767
3.05819
-0.682714
1.143
0.183832
-2.55373
-0.0320865
-2.40533
-0.00975687
0.0302411
2.59995
4.96277
1.9844
2.72117
3.5317
2.31361
1.26727
2.60452
1.51026
1.94538
3.78681
2.69344
1.46379
1.90981
0.75462
-0.727563
-2.86988
0.523133
-2.49522
1.13304
-0.263703
2.32597
3.90493
2.57454
3.43551
1.58994
2.46254
0.592764
1.07558
1.99406
0.46531
1.54001
2.44528
1.38012
-0.191554
2.66688
-1.63186
0.023174
-1.95438
0.881314
2.64917
3.58605
0.387027
2.2998
1.78536
0.73251
1.2332
3.32619
2.77481
1.83064
0.17246
-1.16119
2.2255
-1.75323
0.367884
-0.000330313
-1.82286
0.616955
-0.677577
2.27245
2.02775
-0.715427
2.43558
0.802
-0.533283
0.306624
2.61686
0.388039
-0.709062
1.66031
1.14192
1.17562
2.44698
-1.06776
-0.909921
-1.36884
-0.6479
0.416448
-0.0391413
1.38551
0.333538
1.5703
1.29497
3.70127
0.973121
-0.239798
1.77107
0.0875049
3.55968
-0.631284
1.88854
1.69421
0.556604
-0.2151
-0.298313
1.73187
-0.00495286
0.286208
0.20184
-1.20898
-2.21592
1.52216
0.704617
-0.547054
-1.02866
1.71995
2.43292
0.315702
-0.491868
0.0199389
-0.207448
0.747727
0.958162
-0.13043
0.215663
-1.71973
0.0363473
-0.48943
0.551148
0.0953549
3.3289
3.17396
1.40176
-0.61538
-0.394134
0.734687
-0.905292
1.14763
-2.758
-0.700669
-0.772078
0.282945
-0.98461
-1.55369
1.04325
-1.56273
1.2575
-4.19332
-0.687896
1.65526
-0.576961
2.40999
2.41269
1.99884
0.830435
2.5726
1.654
1.20076
2.27855
0.564652
1.40248
1.63546
-0.0778343
0.0611791
0.713554
-1.97007
-4.53613
0.326116
-0.178288
1.15238
-0.209408
2.74754
-0.0802241
5.21874
0.476464
1.50561
0.0311801
0.108062
1.83398
-0.0794816
1.68455
-0.0401014
0.493747
-0.766755
1.36428
-0.0491138
-2.33018
0.228993
-0.0598677
1.41155
1.92468
0.78874
0.965914
0.76085
2.57123
1.39079
0.0397582
1.45325
2.02314
-0.628181
-0.669831
3.13635
2.51767
3.29493
0.18598
-0.527574
-1.6628
-1.88097
0.0667336
0.614613
4.77315
-1.04192
0.318925
1.40841
0.713719
0.269758
-0.300966
1.44884
2.16482
0.42981
1.01719
0.955983
-0.617524
3.68334
0.138605
1.92267
-1.25611
-0.553755
-0.141546
0.779534
-0.610742
2.12264
2.79835
4.02416
0.815132
-0.208062
3.1549
-0.866332
1.24013
1.71681
3.67855
0.557435
0.16821
-0.552865
0.560376
-0.031213
0.319536
1.39959
-2.44087
1.81896
4.58023
2.4995
-0.701347
1.6373
1.65581
1.51991
1.4279
0.694488
0.552276
-0.921519
0.0447451
-3.42467
0.540693
1.81251
-0.661856
0.581611
-0.152018
-0.665297
-2.71422
0.0806562
0.0937379
2.1063
1.90914
0.498681
0.554787
0.831211
-0.731931
2.22166
-1.26796
0.434186
-0.243068
1.43386
0.180875
2.11731
-0.00360101
0.0642091
1.58589
-0.821677
0.170996
-1.71937
-0.864361
0.474248
-0.961801
-1.34918
-1.41544
0.805073
2.22386
-1.65756
0.66573
-0.723912
1.98169
-0.827023
-0.455717
0.0490472
-0.822262
-1.18843
0.469967
-2.10782
-2.76032
1.85192
1.94168
3.63578
2.9353
3.62233
2.2749
0.79343
1.56552
-0.503013
0.35239
0.192312
4.15267
1.60762
0.872494
0.368122
-0.593379
-2.0357
-3.72106
-1.4374
-0.988474
0.85372
-0.101466
2.53424
1.72411
0.121186
2.82616
2.57427
1.31177
2.12455
0.256813
1.02785
0.578249
1.17257
0.504821
0.927076
0.0778612
-0.844596
-2.65256
-1.97995
0.564645
-0.63563
0.48313
2.76166
2.03977
-0.465133
1.32301
0.845893
-0.753867
2.39162
2.21308
-0.326834
-0.522473
-0.0648962
1.75089
-1.69744
-0.352502
0.275409
-1.83172
-0.379722
-1.04014
1.78723
0.206441
1.09296
2.00347
2.06155
0.662767
2.07373
2.21646
2.70099
1.30185
0.756983
0.157007
2.35182
1.7576
-1.19255
2.26657
0.726224
-1.43493
-0.736498
0.355122
1.48805
2.14388
0.475671
3.67274
2.55502
0.128533
0.154532
0.882723
-0.684054
-1.70436
-0.212673
-0.846315
-0.622089
0.493935
2.71339
0.549192
2.33353
-2.12892
0.112458
-0.898893
-0.606757
-0.704422
3.40669
0.849472
0.547109
1.11389
2.15112
-0.43533
0.645689
1.70679
3.17179
-0.652825
1.12516
-3.12433
0.2542
0.565838
0.164793
0.479592
-0.145507
-1.11697
-1.07526
1.72337
0.848757
-0.027066
-0.78419
0.703253
2.10167
0.993389
0.545753
0.875145
1.91656
1.37882
0.989309
1.65624
-0.129257
1.56513
1.11472
-0.720695
2.18079
-0.607809
0.874537
-0.712281
2.9278
-0.968884
2.26314
-0.683002
0.253726
1.89258
-0.0755053
-2.57469
0.848527
1.16513
-1.88269
-1.96156
0.757517
-2.30503
0.783994
0.515188
-3.16665
-2.90698
1.66136
0.877185
2.64734
3.26772
2.20065
3.09794
-1.27665
-0.584149
0.311893
-0.629937
-0.250212
-0.454074
-0.458594
1.13681
-0.932151
-2.61108
-1.87294
-4.86811
-0.518125
-0.894189
0.786395
0.501269
1.35659
0.177903
2.80181
0.176544
0.221104
0.0576189
0.161396
-0.634508
0.243268
1.1611
-0.0459227
-0.298919
-0.31432
-1.82401
0.321236
0.917307
-4.16521
-1.72633
-0.0662994
1.00769
-0.763534
4.43098
-0.209884
1.98179
3.2326
-2.31253
-0.415312
-0.703296
-0.931153
-0.245389
2.04054
-2.83335
-1.64421
1.25345
-1.05329
-3.15808
-0.654509
0.973613
-0.0930343
0.861102
0.657471
2.8086
-0.784466
0.00729743
0.977383
1.67854
-0.581238
2.06855
1.87727
0.030342
-0.348981
-0.925536
-0.175877
-0.524995
2.7291
0.848422
1.02747
0.170924
-0.682793
1.66638
1.04161
2.88247
-0.264596
-0.720344
2.02839
0.108922
0.451794
0.127456
-0.0503227
0.987676
-0.454339
0.286753
0.341532
0.487571
-1.51002
-2.31984
-1.44276
0.813888
0.44184
1.09867
2.13904
1.12687
-1.27534
0.900676
1.75224
2.82425
-0.561416
1.19002
1.30344
-2.23764
0.506335
0.659877
-1.15135
-0.446265
1.17695
-0.966119
0.0813737
-0.025885
1.52124
-0.34253
-1.18708
-0.699273
-0.170679
0.440794
-0.858267
-0.186648
0.773376
-2.67293
0.0551245
-0.760837
-1.07527
1.4507
-0.30487
-0.351
-0.886542
-0.649053
-0.484049
-1.07687
-0.226487
0.717566
1.0942
1.50465
1.68776
-0.770984
1.49116
-1.55817
1.57736
1.04499
1.45033
-0.877619
0.716158
1.32028
0.0177628
0.410395
0.430483
1.21225
-0.996118
-2.58439
-1.30555
0.384695
1.5361
1.40173
-0.248333
-0.140079
0.162182
-0.607274
-1.76152
-0.740308
-1.00802
-1.96616
-1.25594
-1.11398
-2.97442
-0.227401
-1.33728
-5.73363
-3.47957
-2.23199
-1.88183
0.730239
-0.252058
-0.57028
-0.404563
2.36411
-1.30682
1.70663
-0.905784
-3.33134
1.78582
-1.50857
0.690978
0.848199
-0.304303
-0.526265
-1.24402
-2.45374
-0.317539
-1.00699
-1.71547
-1.50007
0.11602
-0.870924
1.55479
2.21889
-0.237815
-0.803216
0.0630263
-0.615641
0.0575293
0.155287
0.868261
-1.25843
1.23786
-0.626757
-0.538231
-2.70889
-2.73468
0.402274
2.05775
-0.220327
0.946305
2.63569
1.3181
2.0335
1.81264
2.02926
0.278016
0.312761
1.7577
-0.380955
0.288073
0.118743
-1.77548
0.138278
0.0771548
-1.41707
0.344885
-0.69605
0.217538
-0.98387
2.13482
4.60753
-1.1594
1.0079
1.71727
-0.577327
1.10634
1.49246
-1.3517
0.823708
-3.12118
-0.445666
-1.7404
-0.0204152
-0.411062
-3.09787
-1.70754
-2.10069
-0.160378
0.552031
2.40396
1.47593
0.47404
-0.737763
-0.134891
2.14179
-0.684134
-3.11254
-0.52612
0.0459686
-0.831411
-2.3418
0.220797
0.713319
-2.12806
-1.59937
-1.71941
-2.22633
0.958405
1.20553
-0.142041
1.45327
2.07386
1.33361
0.440904
1.04133
0.377973
0.840929
1.37552
-0.255722
-0.307515
-3.89273
1.27623
-0.810605
1.87192
-2.11276
1.86719
0.317903
-1.11152
0.674506
1.58256
-1.32885
1.03118
2.62373
0.377106
-1.65319
0.382225
1.38753
-0.791361
-1.54353
0.212031
0.514031
0.413039
0.714172
0.0639622
0.652475
-5.00953
-2.3942
0.565212
-2.8768
1.36283
-0.163979
-0.450328
-0.125835
-1.83094
-2.47381
-2.55758
0.215636
-1.36743
-1.0086
3.03505
-1.98886
0.498017
-0.324407
-3.29542
-3.28459
-3.75854
0.0683841
-2.3839
-0.00299219
-1.21022
-0.0442865
-0.113368
-0.397399
1.08437
0.0813061
0.413755
-0.864119
0.444981
-1.12004
-0.279309
-0.47437
0.152805
-1.52785
-0.366804
-3.08325
-2.55514
-0.875588
0.0645815
1.89085
0.817437
1.6653
0.0687437
2.23363
2.96741
-1.12576
0.751429
1.67109
0.927373
-1.89986
1.84848
-3.12397
-0.546777
-2.53837
-2.38103
-1.31931
-2.0526
-0.0816766
-1.91374
2.77565
0.1975
1.263
-1.61548
1.46878
-0.990118
-3.36405
-0.925026
-2.42832
-0.172224
-0.115633
1.21371
-0.315123
-1.41282
0.67976
-2.84249
0.187637
-1.32632
-0.960137
1.22701
1.39162
1.00882
3.34076
-1.63173
0.0999147
-1.99748
1.39031
-0.759633
-1.05349
0.715761
0.493547
-0.119385
-2.33125
0.206243
0.749141
0.219396
-1.82614
-0.359078
-1.03974
1.46828
-2.76773
1.82292
1.8333
1.6278
1.09402
1.58461
-0.339764
0.564263
-0.42451
1.89269
-0.229189
0.00250173
-1.22209
-1.71641
-2.79454
0.917528
0.542365
1.51267
-1.03627
0.311749
0.992727
-2.55577
-0.118229
0.118627
0.521723
-0.456956
-0.644366
-1.19927
1.12953
0.714454
0.0183954
-1.06338
-0.726971
-0.55568
0.461876
0.878201
-0.66347
-0.193056
-0.984412
-1.45541
-0.0832316
0.13809
1.31585
-1.09308
-0.604905
-0.0938611
-2.65068
-2.16872
-0.978159
-0.630509
-1.25061
-1.33667
1.53579
0.155064
-0.0423236
-1.33228
-0.423853
-4.34048
-1.14787
-1.14807
1.01867
-1.45051
-1.03532
1.30092
-1.03214
-1.86011
-1.87603
-3.32863
0.445754
-1.1487
-1.5086
-0.883776
-2.01614
-4.36503
-3.22099
-6.39027
-1.69883
-2.05502
-2.8261
-0.543519
-0.726678
-0.308366
-1.64872
0.208061
0.371617
-0.469045
1.46315
-0.744594
-3.27734
1.4432
0.179193
-1.20129
-1.61807
-1.9372
-1.01375
-2.8412
-3.9566
-3.66276
0.924344
-1.67678
-0.898666
0.176827
0.380973
-0.503185
-0.191688
-2.18945
1.62527
1.69231
0.026566
0.0414032
-0.732246
-0.682163
-0.253431
1.07757
-1.34257
-2.987
-3.82426
-1.98564
0.205413
-2.27711
1.11235
-2.84655
0.0400648
-0.117169
-0.63927
-2.12275
-3.11651
-1.2477
-0.427566
1.58418
0.651916
-2.71059
-0.721579
0.824802
-2.16488
-1.37928
-2.61163
-3.0167
-0.732645
-1.29192
-1.40362
2.20403
0.199935
-1.15676
-0.768395
-1.83208
0.0514416
-1.0702
0.684631
1.84371
0.501533
-0.999427
1.61035
2.74844
-1.67744
-0.786664
-0.329151
0.319145
-0.0238788
2.21134
-2.22998
-0.413278
-0.756571
0.176341
0.26684
-2.58002
1.06195
0.580076
-0.238255
-0.702629
0.106445
-2.00773
1.56648
0.793877
2.56751
-1.47164
1.51394
0.600045
-0.23309
2.06902
0.763372
0.762992
-3.04018
-1.23448
-1.16078
1.05633
1.2575
-1.84676
0.15921
-0.196947
0.80631
-1.60543
0.087922
1.35289
-1.18169
-0.228891
-1.95651
0.741224
-0.252988
1.23156
-1.04657
1.78762
1.22507
1.39657
0.0707586
0.840072
-1.47031
-0.145408
3.13521
1.74273
-0.232954
0.0695881
0.813497
0.369354
1.2572
-0.421161
0.0373071
-4.12914
-3.7412
-0.257683
-3.27702
-3.2911
0.074176
-0.469512
1.06682
-2.59537
-2.56688
-3.14819
-2.02216
-2.10846
-0.354894
-0.95267
-1.21047
-0.727894
-5.14846
-3.99961
-6.63705
-3.4892
-0.646109
0.512647
0.380844
0.952566
0.261528
-0.514047
-0.140414
-0.910744
-0.167922
0.65171
-0.693858
-0.490272
-2.35693
-0.0761018
-0.500528
-0.130605
-3.71852
-0.130801
-2.23476
-3.61549
-5.53151
-3.03406
-0.83939
0.459714
0.231836
0.442586
1.5928
-1.15551
-0.32005
-1.47444
-0.722526
1.04168
-1.72822
-1.52829
-0.238983
-0.651618
0.432867
-1.68906
-4.5639
-6.16387
-1.80582
-1.79318
-1.24221
-0.869385
-1.94808
-1.13398
1.19851
-0.476789
0.303857
1.21945
-1.44406
-1.11575
-1.26909
0.132762
-1.12105
0.590072
-0.905213
-2.47697
-1.256
-0.965184
-1.40757
-2.56298
0.180635
-2.56823
0.848416
2.27685
-0.153802
-1.60076
0.764591
-0.067856
-2.0507
-0.887255
1.22485
-1.9999
-1.12666
-0.327779
1.37051
-2.40247
-2.99075
-0.52575
-2.19823
-0.343695
-0.932188
-1.21651
-0.119803
-0.90681
-0.659351
0.965678
-0.69404
2.33997
-1.04777
1.61499
-0.514887
-0.870453
-1.63698
-2.89686
1.68556
-0.451548
-2.92825
-0.781364
1.15136
0.472979
1.81524
0.662489
-0.219695
0.409779
0.510916
0.755808
1.29187
-0.406678
-0.827823
4.38467
-0.222852
1.09113
1.03298
1.69011
-1.41284
0.751758
0.395334
-1.1485
0.177346
0.287407
-1.78417
0.465956
0.926481
0.252285
0.546448
2.127
-1.51501
0.616585
-0.105997
0.212265
-1.46024
-0.155397
-1.12873
-0.0994375
-0.996604
-0.672472
-0.417548
-3.00392
-5.03428
-2.51083
-1.92951
-0.0992819
-3.4285
-0.0741409
0.813677
-0.786725
-1.43959
-2.22535
-0.87643
-1.17802
-1.73965
-2.87614
0.38892
-0.745245
-4.72587
-3.28099
-5.32292
-5.67659
-0.0254017
-2.50327
-0.415155
-2.02865
0.320445
1.26376
-0.174729
0.939168
-0.51928
-1.14579
0.776967
0.340579
-1.39467
-0.160067
-0.579808
-0.825563
-2.5671
-0.579224
-0.686552
-3.42646
-3.54517
-1.84069
-1.45094
-1.46423
-0.0426827
-2.04336
0.28576
-0.92613
1.36078
-0.140439
-2.1198
-0.224632
0.6457
0.316934
-2.61055
-1.44737
-1.34474
-3.02573
-2.9635
-3.45099
-2.02352
-2.05608
1.85469
-0.816115
-0.154987
3.412
-1.14765
1.28185
0.084679
-2.33221
-1.26368
-0.4751
1.3671
-0.802859
-0.545724
-2.009
-2.57989
-0.729533
-2.30076
-0.230141
-2.41771
-0.304931
0.21675
-1.1596
2.72305
0.414698
-1.07165
0.393728
1.65256
2.41066
0.289343
-2.34569
-0.395744
-0.0125349
-0.465255
-1.18616
0.130643
0.284165
-1.79467
-0.150278
-2.86465
-0.340906
0.216906
-0.970074
1.96164
0.990444
-0.0161231
1.68552
0.734592
2.57597
-1.33728
-0.798073
1.52511
1.42756
-1.01156
0.881085
0.238341
1.05061
-0.508344
-0.567326
-0.549542
0.529152
-4.49668
-0.272553
0.888544
0.978017
1.13592
-0.243659
-2.56123
1.5299
0.785486
1.10805
-0.0282832
0.838538
1.02633
0.217765
-1.42603
1.19135
-0.730007
-0.808885
-0.695343
0.075731
-1.29658
-0.0515012
0.418877
-1.0444
0.384378
-1.00688
-0.980238
-0.892093
-3.38177
0.183918
0.97674
-1.4902
2.1086
-1.52509
1.36372
0.946275
-0.597327
-6.04255
-5.5056
-1.74792
0.422466
-0.452994
0.202684
-0.44316
-2.45835
-1.51863
0.512443
-1.69845
-2.6427
-2.79696
0.679123
0.256553
-2.367
-2.26449
-2.39891
-5.65295
-2.76213
-5.97787
-4.279
-0.511355
-1.80535
0.667593
-0.132856
2.08004
-0.0470566
0.233273
0.164673
-1.1422
-2.12588
1.47758
-1.43897
-0.645765
-1.18812
-0.604087
-3.51244
-5.26261
-4.9718
-4.58832
-2.77617
-1.64701
0.505195
1.52155
0.707066
1.43473
-1.11826
-0.389637
-0.69619
-1.367
-3.49421
-1.12138
-0.0160771
-0.400034
-1.29098
-2.38588
-1.732
-2.27574
-1.76245
-3.1155
-1.6388
-0.987723
0.000538155
-1.06306
-0.0419215
-0.222989
-0.583881
-0.113945
-0.910427
-0.719661
-1.37469
-1.76808
0.307863
2.03503
-2.20092
-2.08213
-1.03311
-1.21413
-1.60579
-3.12151
-1.33482
0.0467431
0.1529
0.710158
0.0135279
-2.0123
1.52317
0.288254
0.706374
-0.747556
-0.448064
-0.587175
-1.91572
3.63597
0.382208
-2.35765
-1.44488
1.06395
-0.908761
-1.67078
-0.735553
-2.15306
0.630636
0.567366
-0.116711
-1.73235
1.84981
0.246545
-0.0609631
0.178294
0.0860645
0.447218
-0.948533
1.39679
-2.2991
-0.0938213
0.0880155
0.0631405
-1.40709
1.86502
-0.63609
-1.87096
-0.13173
-0.038147
-1.42968
2.90775
-1.00162
-0.238471
1.15341
-1.21296
-0.238163
0.714097
-0.880404
-0.00881365
0.723322
-2.19207
-0.458621
0.855587
-1.22574
2.09169
-2.1895
-0.480032
1.76892
1.10184
-1.76843
1.17209
1.67322
0.105113
0.362339
1.57122
1.0074
0.307747
0.667541
-0.447498
-2.01988
-0.398624
-1.88243
-1.55305
0.706772
-3.95836
-2.13473
-4.86326
-3.9193
0.271687
0.881222
0.77428
-3.53383
1.56391
-1.4572
-1.95981
-2.64632
0.151642
0.258699
0.695866
-2.74366
-2.0765
-3.98552
-3.26734
-2.89313
-3.47176
-0.00581258
-4.13943
-0.0512439
0.645647
-0.552904
-1.10261
-0.360519
1.95438
-0.590681
-0.513056
1.06132
0.0510488
0.239138
-0.377906
-0.701794
-0.46005
0.5109
0.422369
-4.58726
-4.74377
-2.79137
-0.173023
-0.156506
-1.20344
2.01676
0.0562498
2.66788
0.951211
-0.00133677
-3.62687
-0.324487
-1.41353
1.17499
-1.4249
0.558433
-0.114162
-0.951239
-0.576561
-1.82211
-2.2362
-2.07796
-3.16071
-2.69804
-1.81017
0.151845
1.43204
0.142291
-0.538412
-1.94028
1.49945
-1.19667
1.86161
1.13012
-0.418315
-1.77442
-1.94945
-1.77769
-3.08147
-5.42836
-1.49236
-0.125525
0.664107
1.26553
1.77398
-1.22142
1.07543
0.52047
1.95395
-0.709723
-0.507419
-0.507852
-0.753407
0.39996
0.963726
2.06938
-0.324148
-0.667947
0.0403672
-2.95637
-2.82548
-1.44667
1.24099
-1.98239
-0.440318
-1.82817
1.66769
-0.219492
-1.07738
-0.0560032
2.11929
-1.05621
-0.013736
0.0203933
-0.783533
-2.63213
-0.0297361
-1.55644
0.476644
-1.6679
-0.486263
2.22995
-1.34711
0.0336626
0.0423019
-0.933802
2.44738
1.1244
0.86992
-3.42859
-1.04492
1.03612
-1.5237
-0.3224
0.658646
-1.21638
-0.434801
0.946239
-3.01533
0.213275
-0.532003
-1.81778
1.89515
-0.944107
-0.559618
0.756715
1.21739
1.93335
0.285464
2.47035
-0.449753
-0.651315
-1.38479
0.0263624
-1.61636
-0.72063
-0.214934
0.964196
-2.0997
-1.86368
-4.84118
-2.67213
-4.03443
-3.12581
-1.49565
3.20935
0.934372
-0.849231
-1.02016
-0.0351043
0.304855
-1.58111
-0.20107
0.604396
-1.26782
-0.191633
-2.2635
-2.93358
-3.92369
-6.96815
-1.84428
-3.38862
0.258831
0.25292
2.21036
-1.41652
1.77551
0.436159
-0.415285
0.325361
-0.889046
-0.107797
-2.11053
-0.541168
1.00489
-2.57898
-2.01851
0.337322
-0.0667079
-0.697575
-5.35708
-0.817454
-1.92153
0.484156
1.29234
0.985141
-0.374709
0.381274
-0.246829
2.16749
0.00638929
0.78028
-0.35137
1.25215
0.526581
-0.537897
-1.776
-1.10815
-3.23846
-0.443185
-1.00756
-0.482117
-1.58471
-2.14003
-0.596612
-0.256471
1.63865
-0.988367
-0.0842815
1.28181
-1.41782
-1.49267
1.99232
0.0730335
0.702804
2.02485
-0.886983
-0.316499
-0.15086
-2.82586
-0.485025
-0.727298
0.0476159
-1.16889
1.07883
1.32167
0.443437
1.11741
-0.388064
1.15029
0.89257
0.788437
1.13519
-0.94814
0.316091
1.60836
-1.40564
-1.65483
-0.618837
-1.80655
-1.62445
-1.03289
-0.5414
-0.735734
-0.318109
3.01449
1.11763
0.318188
-1.00532
-2.06856
-1.30151
3.44347
0.00902019
1.94474
1.78808
-0.147581
0.297413
-2.29656
-2.50435
-1.84893
-0.650725
-1.38506
0.360454
2.01967
-1.79796
0.0744296
0.131975
1.60678
2.24878
-0.495019
-0.519741
-1.3725
-0.848239
-0.163274
0.744577
2.62228
1.00156
-0.679091
-0.28682
0.235981
1.54233
0.279042
-0.77969
-0.43555
-0.159315
3.20024
1.80673
0.515201
-0.550369
-1.97299
-0.381787
-0.998086
0.176287
-0.558989
-0.842113
3.12655
-0.648624
-0.627109
-0.534592
-0.104801
-2.6153
-4.41022
-3.37959
-2.8777
1.15286
-2.0807
1.7467
-0.152128
4.01292
-0.305046
-0.0427398
1.34182
-1.13186
-1.15834
-0.522834
0.125201
-2.68316
0.223536
-3.43893
-5.23802
-5.30639
-0.0170239
-4.54083
-0.0861432
2.16404
0.0746936
1.55147
0.100075
2.34238
-0.157979
0.102111
-0.716279
0.677254
0.610632
-0.0593919
0.620483
0.136559
-2.93558
-0.612093
-3.9898
-2.02379
-2.32372
-4.09014
0.496905
0.0921369
-1.43621
1.12437
-1.88268
2.04977
1.19895
-1.24951
1.03788
0.427523
-0.236307
-1.09912
1.24029
0.280036
0.650168
-2.02798
-3.6189
-1.92893
-2.48068
0.148217
-0.282191
2.67707
1.3342
-0.49062
1.4684
2.05305
1.30389
1.27044
3.35911
0.417277
-1.30994
-0.543414
-1.42591
0.711259
-0.226979
-1.12599
-2.47988
-3.88289
-0.523309
0.966783
-0.875515
4.70703
0.229201
0.446252
-2.29026
0.548338
3.32408
-0.167695
0.534558
1.0423
-1.19238
0.0584055
-0.224716
-1.32918
0.76405
-1.70692
-1.49262
-0.663143
-3.17068
0.697585
-0.473169
-1.57112
1.23127
-1.48642
-2.29607
1.03416
-0.274017
-0.843598
-1.41064
0.50005
-0.982752
-0.668248
0.701349
-0.0221929
-0.382096
-0.633494
-2.1425
-0.306349
-1.94383
-1.39689
-1.3305
0.220886
-0.0134292
0.073979
1.54294
-0.843529
-1.323
1.65457
-0.691512
0.48005
-1.50473
3.0785
0.722564
-1.22441
-1.3565
-1.38437
-1.14828
1.14352
-1.47087
0.959891
-0.952813
-0.711441
2.3324
0.873015
1.18749
-2.74668
-0.206077
0.459581
-1.85408
-0.467519
0.408099
-0.960186
0.197267
-0.312954
-0.0083838
-1.67016
-0.456601
-4.72852
-1.68017
-4.97759
0.897551
0.822364
2.54451
-0.459673
1.30861
-0.46333
1.56755
0.996833
0.349695
1.09554
0.684589
2.60185
-0.577298
-0.552074
-1.36508
-0.85357
-2.56151
-3.7977
-3.37265
0.489137
-0.996117
-0.149931
0.649763
3.65424
-0.778555
1.21972
0.58608
3.49896
2.10396
0.833265
1.18569
4.21229
0.847048
-1.98904
-0.856579
-4.21713
-3.47448
-4.39336
-0.974262
-0.10891
-0.0864625
0.641339
-1.22175
3.71983
1.1062
0.960763
1.40801
-1.51457
2.96138
2.97426
-1.91953
0.0708924
-0.33811
-0.635488
-0.551041
0.996709
-1.43327
0.0889558
1.33849
-0.124684
2.8644
-0.0136579
-0.057554
-0.564066
1.00359
1.60383
-1.50884
2.60906
-0.60136
-0.996254
0.281278
2.88714
2.77885
0.520788
1.05132
-1.44342
-3.42183
-4.10246
2.60206
-1.60114
1.16827
1.74632
1.02244
0.730391
3.12768
1.78125
-1.3238
1.74147
-0.815132
1.76741
0.0193256
2.06339
-0.908439
-1.27055
0.0729369
-0.608976
0.872169
-1.73401
-1.48736
-1.55802
2.55756
0.912345
1.05616
0.0260088
0.787064
2.04034
1.41999
-0.349095
2.30039
0.946245
0.772281
1.45031
-0.630217
-1.7902
-0.892902
-0.891072
-0.694451
-0.299827
-0.966776
-0.0701057
0.308875
-0.0581584
-1.75941
-0.588682
1.42531
-0.0766292
1.89573
-0.416696
1.18489
3.80148
-1.50319
-0.824741
-1.50131
-1.39041
-1.37482
-0.357769
-1.51725
0.721306
1.57406
0.816602
-0.36706
1.03838
-1.31914
1.22134
1.75039
1.00188
2.4278
-1.1908
-0.436062
-0.116999
1.06237
1.03303
0.727797
1.40704
-2.4499
-1.64591
0.814151
-2.73225
-2.74713
-1.74577
3.69131
1.27484
0.0302686
0.686914
0.953464
-0.0727179
2.64335
0.804354
2.43311
2.84064
0.641515
1.23038
1.14936
-0.516692
0.306401
-1.69807
-3.71966
-3.22231
0.0368615
0.607131
-0.2455
2.43528
-0.147894
3.52423
-0.159614
3.38938
-0.117929
0.40137
0.346905
0.162678
3.28255
-0.164706
1.65167
-0.179699
-0.70521
0.137502
-3.29927
-0.430733
1.3998
0.612469
0.839072
0.978568
0.360284
1.02453
0.701519
3.01893
3.20752
2.22728
0.71033
2.13543
3.38741
1.43721
1.1818
-0.158543
3.55746
-1.76223
-1.99319
-1.54814
1.22768
1.40135
-1.46481
1.65536
2.25545
3.84309
2.78294
3.15638
1.57332
1.89724
1.53288
1.4647
2.40347
2.27875
3.18098
1.18235
2.41451
-2.81096
-0.00535902
-1.17537
-0.173823
-1.27239
1.34539
3.12868
3.54365
0.109923
3.09673
0.422701
1.34587
1.02977
1.23435
1.28322
0.826448
-0.475858
3.06286
1.77311
1.48837
1.74393
-0.161752
-0.752311
-0.386806
-0.260611
1.27506
0.527936
0.557075
2.34821
-1.20693
1.94441
3.22382
0.906216
1.85521
0.20434
0.173865
1.91704
1.86904
2.3488
0.972934
-0.866538
-2.46632
-1.2801
-0.185897
-0.776533
0.222181
1.29295
-1.88239
-0.76739
-0.430945
-0.303529
1.61906
-1.57225
1.46747
0.473701
1.89354
0.765235
1.85367
-0.421449
-2.32144
0.228859
-2.14305
0.870233
0.437895
0.877001
1.25545
0.582823
-1.96443
0.742351
-3.35406
1.49257
0.605634
-0.257285
0.516925
0.604252
0.749302
1.17024
2.09769
0.543649
1.05086
-2.33029
-1.60457
-1.23202
-1.9088
-0.756839
2.52681
0.354757
2.31163
2.24661
4.29839
4.00225
3.80523
4.47793
3.86049
2.53063
3.46615
2.18241
3.29932
-0.0338561
-0.745456
0.124602
-3.08666
-1.84411
-1.09972
2.38189
2.37095
1.95875
1.2454
1.95055
4.10485
2.86142
2.79137
4.79192
3.85215
1.82015
2.02269
1.78658
5.30772
0.649256
2.9324
0.245818
-1.73074
-2.24707
-2.47533
2.11605
1.09306
2.16546
1.05953
3.13102
1.45054
4.88354
5.40046
0.324333
3.80991
1.10456
1.7719
2.5869
3.05466
-0.692454
3.24531
-0.570965
-0.596045
-2.4595
-1.29566
-1.15261
1.09172
3.92346
2.77121
2.57233
3.6427
0.917956
5.3496
0.928583
4.14149
1.46175
1.41301
1.77966
1.96335
3.18085
-0.105332
-1.50164
0.336495
1.25804
-0.420187
0.159284
0.398532
3.97937
2.13145
1.37237
1.30457
0.696855
-0.425351
-0.412458
2.73366
2.67991
1.36819
2.73497
1.95721
1.72443
-0.79891
-0.384648
0.0681877
0.429251
0.490642
-0.0251285
2.4311
-0.185303
-0.246046
0.922781
-0.174235
1.42727
2.01556
1.7227
0.608038
0.269844
-0.933134
0.0554015
0.401423
1.20763
0.658496
-0.608938
-1.55326
-0.453687
-1.4574
0.115294
-0.206236
-0.245239
0.241247
1.58024
-0.270094
1.09345
0.432736
2.63899
0.00504248
1.38031
-0.42863
-1.06153
-0.607637
0.0596655
0.400841
1.24057
-0.877892
-2.7538
0.330678
0.146066
-2.15033
-2.7893
0.578169
-0.435233
2.35415
1.19067
-0.205304
-0.326996
0.424225
-0.605932
3.20847
1.73479
-0.688736
-1.20679
0.758485
-1.24569
-0.735351
-3.25538
0.888981
0.394465
0.714575
2.76518
3.88122
4.46152
3.84339
5.92168
5.02238
5.37257
6.87821
2.95331
4.15935
3.74796
3.92578
4.03895
2.83714
0.200423
-0.972372
-1.27709
-0.228923
2.00093
0.114285
1.23719
0.188013
2.62478
0.482764
3.99743
0.720049
-0.25522
1.23318
0.141993
3.61639
-0.433064
3.49336
-0.401846
2.49664
-0.0305399
2.2315
-0.852695
-0.329761
-0.303958
0.753226
0.976429
1.07288
2.62066
3.69719
1.44441
4.82337
4.1275
5.6619
2.95776
3.78933
4.73431
1.15216
2.81004
1.64046
0.116331
0.994222
-0.844669
0.928067
0.288351
0.757546
2.45264
3.30993
3.33172
1.64942
2.9764
3.37276
4.94724
2.58693
2.70973
3.25922
2.9884
0.371038
2.89721
3.3887
3.2867
0.794326
2.27876
-0.178761
-0.0493247
1.41072
-0.150905
0.399613
0.207994
4.66506
2.0213
4.78321
3.59216
3.06892
4.18077
1.17336
-0.122067
1.09978
3.22207
0.683768
1.83558
0.595595
0.682728
-1.12451
-0.836754
2.53631
1.96127
0.345151
-0.421087
1.37543
4.32554
2.40263
1.44032
3.39926
2.19954
1.7802
1.13601
0.534895
2.19544
2.33147
-0.340932
-0.810791
-1.61641
0.836749
-0.905069
0.032008
1.48554
1.9955
-0.450416
3.54765
0.914369
-0.0166539
1.55379
0.76984
0.711253
2.60011
0.0988299
1.99907
1.36786
-0.0251151
1.7114
-0.462262
-1.61196
-1.53284
1.16871
1.19912
0.269823
-1.48778
-1.56298
-0.577865
-1.8746
1.43011
1.63164
2.61942
2.04112
1.22305
0.791418
-0.17282
-2.00872
-0.565825
1.16554
0.230523
-0.339804
0.154517
1.54012
0.992133
1.79036
0.800818
5.54749
4.06035
6.86017
6.59617
6.43204
6.80896
6.35956
4.08804
4.26551
5.52068
4.30961
0.663926
-1.51985
1.88844
1.0755
0.739559
1.77225
2.01291
3.24441
5.8087
3.9886
6.20878
5.89419
4.58529
4.73612
3.79206
5.35109
3.8897
2.74339
3.81643
4.63954
0.904696
1.38094
0.205234
-1.60464
-1.71372
0.963711
1.97961
1.32863
5.33955
5.61303
3.96213
4.20022
5.84971
6.85303
3.35454
4.78775
5.11909
4.95028
4.25297
1.45875
0.926108
2.10122
0.251266
-3.99606
0.925957
0.992548
2.69773
1.75176
4.90965
2.52664
1.02928
4.87653
3.46019
2.92365
2.47021
0.372105
3.91902
2.13096
3.62211
3.26448
3.89685
2.52531
0.646356
1.20524
1.0962
1.17348
2.1252
3.43084
-0.514709
3.21902
-0.135644
3.93277
0.0344685
3.77811
3.47566
-0.252893
1.65499
3.2003
3.90976
2.03313
1.11903
0.641011
3.31656
0.484157
0.785184
0.643342
0.462096
1.07067
-0.341106
0.48324
2.04585
4.3808
2.72287
1.29395
3.10956
3.1878
1.7247
0.66372
1.69525
-0.26046
3.92765
2.64065
-0.0605895
1.41006
0.781361
0.955989
0.659106
2.0669
0.475547
-0.586504
0.24271
2.09602
2.03105
-0.0298378
2.47122
1.16056
1.85069
3.63951
-1.09437
-1.63985
0.178696
-0.0178196
-2.12046
-0.430876
-0.934853
0.744447
-0.0485609
1.56547
-0.46462
0.49918
2.96912
0.338763
-0.352277
-0.679137
1.87164
-0.0768916
-0.545215
-0.59201
0.492214
-0.248478
-0.0517853
-1.12276
0.96062
)
;

boundaryField
{
    hotSide
    {
        type            calculated;
        value           nonuniform List<scalar> 
400
(
-0.300002
-0.205202
-2.39327
-3.22957
-1.12863
-2.16811
0.0257082
-3.96046
-3.26017
-3.01358
-1.84905
-4.84431
-2.71263
-3.54385
-1.26222
-3.31553
-1.25518
0.313321
-1.63758
1.35465
-0.0789472
3.38665
1.11196
0.283608
-1.77361
-1.9012
-1.55564
-1.33854
-0.0613408
-2.61979
-3.87394
-4.30225
-0.884259
-1.37041
-3.0531
-0.263454
-1.26664
-0.360328
2.50966
1.85161
2.84803
2.76477
3.48011
2.63511
2.8467
2.67489
-0.269422
1.62784
-0.0549842
0.869864
-1.34478
-0.539279
-3.60791
-2.72822
-2.01834
-3.5571
-0.261825
0.794787
2.01801
3.23984
4.56158
1.82449
2.51622
0.411705
2.94495
1.89882
1.42851
-1.80693
2.11852
-2.14318
-0.757638
1.63646
-2.65903