/*--------------------------------*- C++ -*----------------------------------*\
| =========                 |                                                 |
| \\      /  F ield         | OpenFOAM: The Open Source CFD Toolbox           |
|  \\    /   O peration     | Version:  2212                                  |
|   \\  /    A nd           | Website:  www.openfoam.com                      |
|    \\/     M anipulation  |                                                 |
\*---------------------------------------------------------------------------*/
FoamFile
{
    version     2.0;
    format      ascii;
    arch        "LSB;label=32;scalar=64";
    class       volScalarField;
    location    "./ITHACAoutput/true/15.2";
    object      error;
}
// * * * * * * * * * * * * * * * * * * * * * * * * * * * * * * * * * * * * * //

dimensions      [0 0 0 1 0 0 0];

internalField   nonuniform List<scalar> 
3200
(
-0.531455
1.34823
2.97028
4.08306
4.72568
5.06001
5.24842
5.26656
5.26891
5.26499
5.42914
5.56832
5.79951
5.93267
6.19524
6.08207
5.80245
5.08706
3.70757
2.08365
-0.226579
1.39302
2.68762
3.73454
4.29376
4.5264
4.68944
4.74814
4.75702
4.75771
4.80417
4.95113
5.15102
5.25188
5.38218
5.47606
5.20643
4.59467
3.3996
2.14621
0.103887
1.29675
2.45307
3.24557
3.6735
3.96972
4.05777
4.04123
4.12469
4.00868
4.20348
4.2048
4.40574
4.54057
4.74257
4.74343
4.54538
3.96064
3.01996
1.90025
0.124574
1.16934
2.08989
2.79179
3.03951
3.25926
3.45509
3.47078
3.38956
3.45004
3.43259
3.6586
3.60326
3.80357
3.96791
4.00666
3.68821
3.33713
2.52217
1.70079
0.133102
0.932765
1.63727
2.16985
2.45443
2.64051
2.61779
2.63758
2.735
2.65495
2.71079
2.78702
2.86698
2.98167
3.02133
3.07248
2.87166
2.60879
1.99773
1.39446
0.218877
0.680161
1.16939
1.54325
1.73355
1.85713
1.97337
1.92573
1.92741
1.96572
2.02909
2.04979
2.10453
2.13971
2.20553
2.26545
2.13307
1.83665
1.4728
0.976476
0.136115
0.474161
0.714698
0.951615
1.01531
1.14121
1.14028
1.18157
1.12497
1.15538
1.17924
1.15933
1.26776
1.32473
1.33152
1.32603
1.33314
1.15802
0.840516
0.627342
0.0197769
0.147525
0.182747
0.34551
0.428706
0.36521
0.455267
0.39115
0.416155
0.388119
0.334604
0.471232
0.466134
0.491406
0.512212
0.512212
0.462056
0.377582
0.272672
0.196091
-0.586665
1.30057
2.89959
3.97977
4.62461
4.87216
5.05451
5.03952
5.00652
5.08155
5.16179
5.28975
5.54382
5.75417
5.90564
5.97268
5.6532
5.04422
3.70933
2.05438
-0.199436
1.28273
2.7581
3.69098
4.2243
4.39484
4.4992
4.497
4.46278
4.47397
4.53346
4.68183
4.86306
5.11882
5.28825
5.30698
5.12192
4.49872
3.31269
1.99105
0.000101337
1.25
2.47033
3.20779
3.70378
3.84207
3.89409
3.91495
3.89282
3.89272
3.96551
4.01519
4.20431
4.37348
4.52372
4.55186
4.42002
3.91257
2.89473
1.88496
0.175831
1.10625
2.01499
2.71015
3.03846
3.23115
3.26652
3.22706
3.29214
3.23621
3.26449
3.39913
3.54157
3.6676
3.72826
3.80148
3.69282
3.24374
2.42042
1.58019
0.166045
0.908833
1.61687
2.11376
2.40666
2.46552
2.52014
2.50675
2.62935
2.59162
2.638
2.69095
2.76897
2.88178
3.02312
3.03354
2.87972
2.56778
1.97009
1.32743
0.13158
0.670671
1.21733
1.52748
1.72168
1.82876
1.80609
1.85534
1.84911
1.85574
1.85551
1.90204
1.94609
2.05255
2.07956
2.19766
2.13626
1.95381
1.50483
1.00719
0.159103
0.450957
0.770206
0.988695
1.0889
1.09674
1.09139
1.14257
1.06439
1.12843
1.18362
1.22309
1.24589
1.2447
1.28246
1.28171
1.24111
1.19757
0.8633
0.609184
-0.0149281
0.156925
0.266633
0.347816
0.369532
0.437881
0.350902
0.28625
0.415603
0.407669
0.371865
0.383092
0.430009
0.413345
0.470785
0.439496
0.412321
0.346821
0.259402
0.145959
-0.688945
1.14414
2.70126
3.82587
4.34501
4.5963
4.70237
4.70942
4.58115
4.56979
4.65088
4.75135
5.05517
5.32302
5.61694
5.68636
5.56701
4.82577
3.47761
2.01552
-0.239295
1.16991
2.55125
3.46835
3.98086
4.21282
4.28108
4.23321
4.1203
4.08039
4.18034
4.29894
4.52096
4.76813
5.04702
5.11419
4.90203
4.33388
3.24147
1.96412
-0.053467
1.10823
2.27463
2.97615
3.41421
3.61582
3.6043
3.6275
3.67834
3.60312
3.57615
3.71257
3.92522
4.11743
4.3399
4.40407
4.19691
3.79972
2.83381
1.80996
0.0215137
0.980692
1.89713
2.57795
2.97064
2.99702
3.06669
3.0882
2.97932
2.98418
3.01488
3.07064
3.27604
3.39618
3.56599
3.6449
3.5081
3.12588
2.4146
1.51283
0.0485356
0.774457
1.57451
2.13858
2.21955
2.38127
2.37295
2.3813
2.34722
2.34896
2.43562
2.48162
2.58284
2.63419
2.87955
2.94152
2.74164
2.43421
1.88759
1.25033
0.155177
0.644694
1.23424
1.44775
1.71819
1.74921
1.78987
1.76378
1.72499
1.77286
1.70705
1.74654
1.88328
1.97963
2.04976
2.10101
1.97242
1.7521
1.35426
0.991468
0.173703
0.396955
0.70971
0.855156
1.01693
1.04547
1.11383
1.04859
1.07659
1.07545
1.0684
1.06817
1.1726
1.1899
1.22526
1.24478
1.18122
1.11392
0.766307
0.669322
-0.023467
0.101678
0.180217
0.330519
0.327135
0.357243
0.418661
0.374369
0.420877
0.354926
0.336221
0.378538
0.378189
0.473335
0.411133
0.348784
0.362704
0.310375
0.291878
0.146508
-0.823972
0.893281
2.44365
3.46694
4.0556
4.31067
4.38813
4.28624
4.21863
4.12915
4.17052
4.27781
4.54511
4.85726
5.19047
5.29519
5.19044
4.52094
3.34279
1.80181
-0.409001
0.932493
2.22649
3.11778
3.54431
3.89596
3.92965
3.81511
3.75828
3.69939
3.6735
3.89403
4.06178
4.27176
4.62856
4.77425
4.66439
4.02025
3.04652
1.75754
-0.230697
0.952423
2.06629
2.83907
3.18382
3.39357
3.4169
3.34517
3.3212
3.26685
3.29528
3.34444
3.57625
3.77443
3.93978
4.07156
4.07572
3.51393
2.67016
1.65498
-0.105618
0.90391
1.71979
2.35336
2.7158
2.82484
2.80228
2.77618
2.78406
2.75124
2.64193
2.80662
2.9596
3.22968
3.34565
3.4946
3.37518
2.85471
2.22757
1.55843
0.0774335
0.754381
1.46194
1.95578
2.16532
2.21544
2.26501
2.22412
2.14658
2.08288
2.17839
2.27581
2.33877
2.47883
2.63769
2.61069
2.66012
2.38196
1.87339
1.14928
0.0620088
0.528907
0.983128
1.37407
1.51532
1.61091
1.53959
1.665
1.60657
1.55882
1.51193
1.63215
1.69157
1.82503
1.87573
1.9303
1.78271
1.67476
1.30051
0.920338
0.0972232
0.317754
0.680488
0.799249
0.93694
0.968332
0.980318
1.04033
0.959725
0.975415
0.886073
1.01211
1.04641
1.13353
1.15192
1.10246
1.1692
1.06224
0.775864
0.556158
0.028488
0.109616
0.275605
0.292789
0.326875
0.35759
0.323907
0.311697
0.315783
0.286702
0.322898
0.30602
0.382708
0.355161
0.30631
0.307018
0.364257
0.41532
0.262381
0.293655
-1.19043
0.531108
2.056
3.03922
3.6927
3.90489
3.90205
3.87098
3.62776
3.64012
3.66544
3.77586
3.9646
4.43901
4.72206
4.91648
4.73645
4.08409
2.99456
1.47045
-0.688623
0.703569
2.02908
2.81252
3.34012
3.51317
3.521
3.49042
3.28246
3.30778
3.27523
3.38519
3.67398
3.91366
4.28738
4.40208
4.28995
3.74501
2.6981
1.54929
-0.488915
0.759673
1.84476
2.58047
2.88887
3.07832
3.13658
3.06722
2.91566
2.88475
2.84926
3.03731
3.18849
3.4712
3.69172
3.8742
3.71311
3.25324
2.48647
1.46556
-0.242705
0.723221
1.54054
2.1368
2.4897
2.60602
2.62447
2.50752
2.43584
2.352
2.4279
2.54977
2.76166
2.88813
3.13743
3.10464
3.06905
2.79438
2.08112
1.25509
-0.103487
0.578846
1.27866
1.67617
1.98865
2.08291
2.09834
2.00064
1.98743
1.94664
1.89945
1.98945
2.12417
2.28018
2.38543
2.56349
2.42307
2.20159
1.67187
1.07381
-0.0480642
0.424978
0.954287
1.25801
1.41366
1.43167
1.49454
1.47317
1.41293
1.37637
1.37225
1.45345
1.48854
1.59913
1.77161
1.7765
1.73583
1.55536
1.10464
0.780063
0.066848
0.26665
0.505435
0.720423
0.833964
0.953626
0.918051
0.904415
0.887134
0.856729
0.825712
0.845186
0.922623
1.03382
1.07507
1.07174
1.06378
1.00792
0.793387
0.497501
-0.0457801
0.150227
0.183817
0.273362
0.394892
0.276026
0.27113
0.313721
0.349095
0.267263
0.260317
0.275008
0.355085
0.299214
0.343534
0.352663
0.335161
0.298771
0.28564
0.176104
-1.42876
0.121971
1.68608
2.742
3.18404
3.52471
3.49266
3.40141
3.1832
3.10919
3.04173
3.21703
3.56488
3.93434
4.26553
4.453
4.33363
3.716
2.6433
1.22404
-0.971365
0.347833
1.70814
2.46787
2.96748
3.11952
3.11824
3.0187
2.91286
2.83664
2.7648
2.94325
3.24368
3.65431
3.86923
4.01039
3.87706
3.3443
2.38654
1.27413
-0.695838
0.479009
1.54766
2.18227
2.57165
2.76375
2.76462
2.65566
2.59794
2.43468
2.47831
2.60174
2.76649
3.15509
3.38605
3.45764
3.34915
2.92008
2.17138
1.30795
-0.434662
0.525669
1.28503
1.87893
2.2134
2.34707
2.38212
2.28746
2.20785
2.08616
2.09888
2.22684
2.37559
2.59612
2.77049
2.87617
2.83404
2.46768
1.7873
1.1154
-0.297033
0.413158
1.03774
1.5246
1.84758
1.8559
1.86475
1.86004
1.7516
1.64734
1.69409
1.78998
1.80693
2.03406
2.19265
2.31642
2.24509
1.91853
1.49274
0.956536
-0.132218
0.280938
0.763933
1.13699
1.28262
1.37903
1.33791
1.32867
1.21563
1.17552
1.23708
1.24192
1.34427
1.43574
1.59437
1.63176
1.61048
1.4565
1.04087
0.716061
-0.0360868
0.160722
0.478691
0.667971
0.757446
0.907486
0.924505
0.753315
0.774552
0.743234
0.796693
0.782353
0.849537
0.970041
1.00167
0.965758
0.984207
0.87369
0.668648
0.453777
-0.0029251
0.0859537
0.180306
0.210823
0.25957
0.276711
0.248012
0.337542
0.279483
0.19685
0.258684
0.319408
0.221681
0.262122
0.331196
0.317028
0.31849
0.30233
0.160556
0.158245
-1.76439
-0.243223
1.29768
2.32784
2.80447
3.1175
3.17996
3.03983
2.75525
2.58544
2.57243
2.72511
3.16293
3.47291
3.86912
4.05825
3.97314
3.34637
2.15594
0.889019
-1.25477
0.0152559
1.30462
2.12987
2.68869
2.85057
2.87161
2.68229
2.60102
2.44189
2.42854
2.58951
2.84367
3.17386
3.56517
3.58873
3.49583
2.98866
2.15775
0.997959
-0.895197
0.23261
1.18776
2.01214
2.30976
2.45917
2.49608
2.44884
2.30913
2.20807
2.1778
2.22326
2.46235
2.77323
3.09468
3.24675
3.11995
2.69673
1.88732
0.925892
-0.613079
0.264804
1.09773
1.6333
1.97273
2.13513
2.09971
2.04075
1.83567
1.79089
1.84777
1.91184
2.12055
2.42497
2.61725
2.79544
2.55323
2.29339
1.57817
0.880387
-0.42055
0.307248
0.868866
1.31325
1.65354
1.67282
1.64215
1.73902
1.53226
1.5281
1.46368
1.57203
1.64925
1.83174
2.07373
2.13033
2.09966
1.78082
1.33017
0.808728
-0.321657
0.238027
0.622366
0.973272
1.1369
1.17243
1.33317
1.10351
1.16245
1.07746
1.11306
1.15303
1.29208
1.32273
1.48667
1.5437
1.53748
1.28916
0.972438
0.644069
-0.0912873
0.0984771
0.401281
0.634741
0.758702
0.762096
0.79362
0.728106
0.670263
0.698187
0.639046
0.754527
0.712477
0.881304
0.874485
0.897485
0.899236
0.797082
0.551294
0.438325
-0.0702673
0.0960896
0.119187
0.202176
0.224059
0.228721
0.236141
0.33431
0.231084
0.224365
0.150512
0.217784
0.328363
0.20736
0.374757
0.284552
0.285228
0.256448
0.196745
0.12192
-2.02687
-0.564136
0.890741
1.86716
2.58801
2.83623
2.77224
2.64715
2.50139
2.31631
2.24499
2.38483
2.80229
3.14722
3.53234
3.62696
3.5403
2.86619
1.91079
0.574937
-1.57463
-0.238851
0.934705
1.80607
2.32283
2.52655
2.5879
2.39929
2.34952
2.20284
2.07174
2.33874
2.56063
2.89929
3.18611
3.31781
3.11313
2.73255
1.82984
0.799875
-1.07336
-0.0157854
0.947751
1.8284
2.10814
2.24432
2.27853
2.20091
2.08973
1.86547
1.89868
2.03928
2.27238
2.58822
2.82346
2.86018
2.86091
2.41339
1.61839
0.79265
-0.780693
0.0754316
0.901113
1.46345
1.84409
1.962
1.98678
1.86777
1.7591
1.63584
1.59094
1.71046
1.87518
2.04231
2.42478
2.47042
2.39901
1.9577
1.39576
0.794065
-0.561285
0.189668
0.763737
1.24116
1.40305
1.51864
1.59662
1.48671
1.40768
1.38832
1.31662
1.40051
1.54264
1.71924
1.88495
1.96597
1.90131
1.61796
1.17424
0.642886
-0.35955
0.134377
0.505972
0.911631
1.038
1.15961
1.18149
1.12204
0.984572
0.95494
0.988511
1.04857
1.18927
1.19232
1.39407
1.36846
1.30914
1.21317
0.902835
0.526104
-0.268202
0.110439
0.366328
0.617284
0.556616
0.657903
0.739652
0.627952
0.668513
0.603339
0.559882
0.615191
0.729911
0.758045
0.7913
0.841596
0.840702
0.7331
0.520108
0.384981
-0.0685486
0.0575837
0.075613
0.130185
0.158506
0.194525
0.217956
0.247591
0.125112
0.176465
0.182842
0.283832
0.232601
0.232368
0.272602
0.329749
0.299668
0.231777
0.20343
0.191072
-2.30795
-0.820845
0.61787
1.60417
2.22061
2.46153
2.56563
2.4218
2.23241
2.08209
2.0449
2.25201
2.49029
2.95798
3.28904
3.41702
3.24266
2.68093
1.67566
0.496038
-1.70716
-0.460695
0.791771
1.59648
2.12956
2.38164
2.38307
2.28833
2.18856
1.99567
1.97101
2.0081
2.31262
2.69756
2.96502
3.08559
2.98502
2.43374
1.63471
0.59645
-1.21413
-0.232549
0.733844
1.5218
1.96123
2.17569
2.1994
2.07156
1.89851
1.83233
1.74937
1.96592
2.06321
2.36483
2.64191
2.82964
2.55772
2.17473
1.51396
0.656307
-0.853596
-0.0771367
0.724713
1.29012
1.62837
1.75764
1.93374
1.77184
1.64144
1.54612
1.46523
1.66156
1.7464
2.00287
2.13746
2.29157
2.19475
1.85065
1.3502
0.654687
-0.556959
-0.00932151
0.678113
1.13278
1.38293
1.48426
1.504
1.4535
1.32357
1.2472
1.22068
1.30166
1.43939
1.60057
1.70503
1.7866
1.79969
1.56691
1.06058
0.634164
-0.381016
0.0823157
0.426431
0.733683
1.03935
1.12319
1.06927
1.0215
0.919294
0.867249
0.851112
0.989787
1.05414
1.17839
1.28804
1.32766
1.29281
1.15547
0.769643
0.342467
-0.23847
0.064795
0.211163
0.417085
0.603996
0.668134
0.640703
0.584469
0.640907
0.557063
0.569023
0.5153
0.639547
0.709575
0.767575
0.808681
0.764757
0.752083
0.48555
0.226446
-0.024481
0.0183926
0.0502237
0.161736
0.181352
0.216653
0.181707
0.149302
0.258425
0.1477
0.195863
0.177699
0.226106
0.201252
0.309716
0.307763
0.241996
0.288637
0.0957035
0.0943788
-2.41315
-0.92949
0.424717
1.37001
2.08463
2.38114
2.43621
2.35809
2.22646
1.98747
1.94648
2.13648
2.49806
2.80772
3.16778
3.29115
3.12883
2.47642
1.50236
0.332267
-1.82258
-0.583136
0.581606
1.41541
1.92762
2.20602
2.31155
2.244
2.05309
1.97146
1.96352
2.03825
2.30723
2.60671
2.86988
2.9917
2.86884
2.41909
1.54137
0.575715
-1.29767
-0.351156
0.668606
1.3041
1.752
2.10435
2.12715
2.03979
1.96265
1.72247
1.67017
1.8028
2.01413
2.3413
2.54811
2.64885
2.50606
2.11061
1.43705
0.669877
-1.00223
-0.170726
0.602836
1.18058
1.60138
1.80832
1.78215
1.70422
1.55603
1.57736
1.44363
1.41782
1.75913
2.05053
2.20916
2.24869
2.03468
1.8192
1.18982
0.631116
-0.651962
-0.1046
0.588106
1.02589
1.21749
1.43019
1.4296
1.38317
1.28797
1.24826
1.20245
1.21305
1.38932
1.56416
1.76948
1.88563
1.66509
1.49089
1.0483
0.553923
-0.549582
-0.000800043
0.376105
0.740558
0.929354
1.02927
1.0292
1.04222
0.93355
0.870055
0.923617
0.940933
0.983068
1.18816
1.26657
1.29694
1.17122
0.96396
0.726846
0.453314
-0.143811
0.0481841
0.266652
0.468573
0.535041
0.67742
0.60004
0.67005
0.628236
0.613703
0.524912
0.666187
0.597894
0.708719
0.782274
0.714252
0.743444
0.673963
0.526508
0.315957
-0.129205
-0.0565683
0.149377
0.172188
0.201138
0.195259
0.210104
0.214143
0.0882128
0.162757
0.187763
0.152444
0.160142
0.215665
0.259305
0.204104
0.310106
0.197413
0.125792
0.0969806
-2.35616
-1.02657
0.280344
1.3095
2.01442
2.36459
2.55664
2.3753
2.33564
2.12698
2.13991
2.25403
2.52705
2.88207
3.18485
3.30253
3.01872
2.48822
1.50259
0.357133
-1.8571
-0.64268
0.470351
1.37865
1.91531
2.27931
2.31511
2.33927
2.1613
2.16001
2.01125
2.20016
2.42921
2.69671
2.92916
2.95498
2.8325
2.33591
1.51049
0.607388
-1.30488
-0.375025
0.608788
1.27445
1.81847
2.00628
2.13137
2.06487
1.96899
1.83555
1.80075
1.98945
2.1807
2.34221
2.56417
2.61775
2.48317
2.02656
1.44224
0.650803
-0.917746
-0.108436
0.546716
1.1527
1.50176
1.71681
1.77068
1.75407
1.65377
1.61102
1.58711
1.63492
1.81955
2.00319
2.22021
2.21296
2.08369
1.81711
1.27003
0.671962
-0.662477
-0.0703485
0.44816
0.972926
1.26602
1.39422
1.53649
1.42877
1.33073
1.28328
1.28451
1.29628
1.43531
1.5543
1.78184
1.74984
1.70446
1.4221
1.10029
0.588367
-0.370142
-0.00252952
0.401803
0.739883
0.927259
1.08728
1.06524
1.05163
1.04067
1.00165
0.910073
1.002
1.08659
1.1964
1.28324
1.35243
1.18294
1.05498
0.726622
0.502886
-0.25501
0.00788581
0.248501
0.420726
0.602407
0.631913
0.614401
0.546908
0.60927
0.575912
0.527006
0.583759
0.612948
0.728275
0.761074
0.732008
0.749379
0.675254
0.505994
0.334387
-0.133929
-0.0310768
0.12844
0.134833
0.121556
0.231598
0.156045
0.284719
0.170786
0.128057
0.200522
0.156386
0.198517
0.228156
0.283745
0.321951
0.323806
0.260263
0.176714
0.093484
-2.27707
-0.921346
0.488004
1.42034
2.1232
2.54567
2.69412
2.6887
2.56637
2.5042
2.42873
2.62372
2.88648
3.14643
3.42419
3.50905
3.20472
2.58123
1.74278
0.62769
-1.62746
-0.510543
0.516872
1.49132
2.01188
2.38191
2.54851
2.5342
2.41714
2.35967
2.25323
2.3578
2.65862
2.88407
3.03968
3.13749
2.98382
2.43505
1.6112
0.699174
-1.18603
-0.235428
0.581932
1.40528
1.90888
2.1334
2.27002
2.19527
2.18256
2.02057
2.07701
2.15457
2.33531
2.53729
2.71263
2.72743
2.6699
2.17001
1.55081
0.758404
-0.819671
-0.0761525
0.661381
1.29918
1.66481
1.84475
1.97822
1.92586
1.87351
1.86111
1.74717
1.76716
2.03912
2.15234
2.32159
2.39713
2.25976
1.8894
1.30553
0.829838
-0.628655
-0.0208038
0.563547
1.02028
1.35701
1.63886
1.5781
1.54418
1.50431
1.49319
1.44449
1.52509
1.6104
1.72819
1.83229
1.78699
1.74942
1.50397
1.11738
0.691627
-0.397295
0.0628784
0.454021
0.717134
0.957557
1.00755
1.17579
1.11406
1.16675
1.06823
1.0248
1.07032
1.16728
1.2246
1.37567
1.37654
1.34908
1.15949
0.809928
0.556319
-0.198906
0.0140617
0.323222
0.482544
0.59959
0.643415
0.794783
0.7354
0.608881
0.604099
0.63772
0.671302
0.704709
0.758092
0.907808
0.776486
0.758327
0.674627
0.492332
0.309448
-0.0334472
0.0301776
0.126192
0.168229
0.227719
0.216339
0.241964
0.226635
0.211777
0.204198
0.306485
0.239245
0.271433
0.285036
0.249264
0.262789
0.254396
0.216292
0.2068
0.11904
-1.87781
-0.600557
0.651497
1.68854
2.37762
2.87597
3.00476
3.00713
3.03918
2.94138
2.95528
3.10176
3.35573
3.56362
3.77889
3.73682
3.51906
2.92717
1.93605
0.98851
-1.32981
-0.316504
0.749933
1.6665
2.24311
2.58935
2.86553
2.8593
2.85803
2.81514
2.81958
2.87134
3.11626
3.33529
3.44449
3.41644
3.10669
2.74715
2.01
0.994299
-0.917791
-0.0479567
0.768958
1.56407
2.01759
2.3683
2.57736
2.46235
2.51751
2.42854
2.45595
2.55861
2.75695
2.94739
3.0361
3.02473
2.89418
2.4681
1.82295
1.07614
-0.614221
0.0572577
0.730011
1.38623
1.73433
2.0285
2.1251
2.13854
2.0982
2.06754
2.13279
2.20475
2.29352
2.44997
2.65644
2.50037
2.39037
2.03475
1.578
0.945896
-0.473909
0.158642
0.70112
1.19442
1.42245
1.72654
1.71331
1.66898
1.75207
1.62595
1.71383
1.70711
1.84799
2.03316
2.0986
2.01907
1.91971
1.72377
1.20515
0.839931
-0.280789
0.0945693
0.543127
0.879701
1.07704
1.23006
1.2868
1.27436
1.24956
1.18026
1.18434
1.24714
1.31137
1.41546
1.52152
1.44946
1.3782
1.14681
0.944885
0.661976
-0.164809
0.0988083
0.321594
0.488241
0.717673
0.807435
0.69528
0.792966
0.757291
0.713884
0.823558
0.753798
0.781409
0.855152
0.894967
0.866393
0.889118
0.715125
0.479
0.441923
-0.0619397
-0.0483105
0.00659582
0.188966
0.22274
0.195474
0.201486
0.278124
0.211884
0.180209
0.324941
0.213381
0.214343
0.287838
0.273882
0.36039
0.336734
0.275346
0.213057
0.188167
-1.52789
-0.188938
1.06683
2.11913
2.84634
3.32304
3.54492
3.64682
3.65821
3.70694
3.64227
3.82123
3.93268
4.14874
4.346
4.20952
3.96409
3.3995
2.47134
1.41099
-0.950779
0.104365
1.14711
2.01523
2.72799
3.01947
3.21837
3.38541
3.41044
3.299
3.36663
3.4594
3.64547
3.84959
3.90722
3.92923
3.59267
3.12755
2.29275
1.4056
-0.625485
0.269428
1.12855
1.88188
2.36126
2.73817
2.90664
2.97377
3.01299
2.91109
2.99667
2.99994
3.24935
3.38602
3.46671
3.35585
3.28198
2.76235
2.12848
1.46485
-0.374261
0.258878
1.13004
1.64705
2.06968
2.38421
2.49818
2.54706
2.50124
2.57295
2.55269
2.56518
2.68021
2.80469
2.80633
2.87691
2.69353
2.26526
1.86992
1.31109
-0.146889
0.302193
0.825596
1.33259
1.57284
1.90725
1.93013
1.99483
1.99372
1.969
2.05003
2.00715
2.16714
2.21182
2.26158
2.20372
2.09103
1.88827
1.52105
1.10811
-0.0622804
0.245208
0.704756
0.980168
1.22938
1.35959
1.45005
1.41432
1.44884
1.46996
1.40574
1.48559
1.56321
1.69878
1.6934
1.64097
1.52183
1.46046
1.03967
0.795307
-0.0469117
0.260387
0.41451
0.727337
0.738045
0.83118
0.907199
0.897936
0.886358
0.788646
0.856149
0.90714
0.917048
0.991322
0.953573
0.965409
0.918734
0.898284
0.748699
0.442935
-0.0159423
0.103753
0.102715
0.298817
0.239533
0.300199
0.329439
0.345263
0.329614
0.309666
0.250157
0.348523
0.351713
0.274328
0.403893
0.301389
0.279868
0.260673
0.212738
0.233279
-0.891112
0.368243
1.68525
2.58264
3.36464
3.95029
4.21439
4.44501
4.43194
4.58997
4.57183
4.68393
4.83801
5.01029
5.0963
4.982
4.69525
4.04506
3.10543
2.12825
-0.443437
0.568383
1.70618
2.48729
3.12695
3.64353
3.91283
4.04737
4.03408
4.0641
4.25444
4.20553
4.34522
4.54503
4.54181
4.48557
4.24409
3.76451
2.96511
2.04261
-0.144386
0.701245
1.57035
2.26879
2.83934
3.17433
3.47427
3.52203
3.60767
3.58821
3.58241
3.68579
3.84509
3.89534
4.00897
3.95117
3.60435
3.26086
2.58653
1.95001
-0.0384653
0.658037
1.35373
2.07963
2.50266
2.76458
2.86554
2.98978
3.05763
2.95784
3.02014
3.14351
3.20474
3.32816
3.37143
3.22868
3.09659
2.72039
2.1865
1.66592
0.0560009
0.571264
1.18865
1.6157
2.00082
2.24809
2.35266
2.39038
2.38005
2.43332
2.37422
2.43363
2.5158
2.62631
2.66249
2.55643
2.49541
2.1482
1.78823
1.34059
0.138038
0.464902
0.890369
1.22885
1.47537
1.59646
1.68591
1.74885
1.75531
1.76482
1.74614
1.78977
1.83156
1.89487
1.90715
1.91148
1.83172
1.59996
1.3463
0.966516
0.0932139
0.292445
0.523587
0.773201
0.921793
0.983796
1.05686
1.06344
1.07205
1.04089
1.01157
1.04171
1.1701
1.1341
1.1899
1.15472
1.04767
0.904924
0.807832
0.614274
-0.00982361
0.0997522
0.182595
0.196003
0.256445
0.254409
0.289121
0.371634
0.351333
0.41696
0.30653
0.378712
0.412041
0.368426
0.36407
0.363907
0.374119
0.289503
0.171948
0.178181
-0.157868
1.08589
2.25846
3.27361
4.18983
4.74777
5.09346
5.23951
5.46012
5.60076
5.65438
5.72927
5.82335
6.00211
5.96517
5.81729
5.45189
4.82086
3.92235
2.99262
0.268135
1.27551
2.27806
3.19763
3.87578
4.31002
4.62064
4.76251
4.94169
4.93409
5.10156
5.18867
5.19816
5.33507
5.34543
5.19163
4.96025
4.4607
3.62181
2.86044
0.488175
1.25949
2.05818
2.87001
3.3902
3.90401
4.08235
4.17568
4.27034
4.37204
4.38915
4.53074
4.50739
4.68894
4.71421
4.57507
4.25036
3.92449
3.15826
2.586
0.497563
1.1273
1.86379
2.39716
2.86986
3.18667
3.38554
3.52049
3.6165
3.68739
3.65961
3.75402
3.77399
3.82291
3.89084
3.81138
3.70088
3.24127
2.75449
2.18993
0.522751
0.932537
1.55966
1.91099
2.32767
2.54546
2.73353
2.91246
2.90437
2.90231
2.89665
3.00845
3.00723
3.14944
3.02507
3.03065
2.83352
2.56619
2.15596
1.70603
0.374019
0.829581
1.13866
1.42126
1.59696
1.80519
2.01029
2.16469
2.02577
2.07805
2.16592
2.16627
2.18951
2.22269
2.16923
2.17681
2.06545
1.8582
1.57303
1.24358
0.24608
0.508185
0.688266
0.85165
1.03832
1.20579
1.18474
1.27114
1.29101
1.28429
1.2215
1.30172
1.3258
1.29476
1.37014
1.30547
1.21045
1.12177
0.929667
0.785886
0.131931
0.129921
0.294967
0.364986
0.377905
0.440467
0.399231
0.429058
0.438997
0.401584
0.531702
0.419346
0.519978
0.438446
0.407107
0.413835
0.350809
0.329183
0.417982
0.234243
0.901264
2.01049
3.22437
4.24926
5.08761
5.6688
6.11276
6.43202
6.58403
6.68841
6.77764
6.92495
6.98084
7.02333
7.00412
6.82405
6.44935
5.8378
4.86833
3.91277
0.987607
1.94003
3.11026
3.9201
4.68341
5.14111
5.59732
5.8537
5.90758
5.95965
6.12514
6.15114
6.18973
6.31148
6.24615
6.20509
5.83092
5.25725
4.5441
3.60882
1.0727
1.9466
2.78273
3.46693
4.07457
4.45935
4.9049
5.07423
5.14308
5.22791
5.34513
5.34456
5.44063
5.48976
5.39358
5.25451
4.95389
4.56442
3.96607
3.29483
1.03545
1.69685
2.36685
3.01141
3.46457
3.83178
3.98698
4.1393
4.31316
4.32827
4.40044
4.4828
4.51845
4.445
4.49841
4.45302
4.12793
3.7873
3.35079
2.79207
0.940007
1.40158
1.93042
2.39438
2.81565
3.00755
3.13422
3.29992
3.31182
3.45894
3.4513
3.53481
3.52789
3.52946
3.55931
3.4086
3.30627
2.99292
2.67053
2.18527
0.611975
1.04033
1.41697
1.8075
2.02254
2.19272
2.25891
2.33839
2.41557
2.49543
2.59075
2.59602
2.54483
2.59431
2.54903
2.55239
2.3442
2.21874
1.91696
1.634
0.540409
0.631931
0.851458
1.03933
1.2417
1.36606
1.42386
1.48822
1.47593
1.58525
1.52487
1.54448
1.56384
1.56162
1.59475
1.45929
1.38607
1.27297
1.16655
1.02595
0.17609
0.217537
0.264147
0.403692
0.401823
0.428448
0.516349
0.395057
0.53883
0.517144
0.534037
0.641578
0.456155
0.573499
0.554982
0.504151
0.446135
0.411884
0.37122
0.356372
1.92151
2.9739
4.22582
5.33604
6.12736
6.83175
7.24761
7.58938
7.85716
7.96452
8.14796
8.2296
8.23266
8.24583
8.22772
7.99912
7.59239
6.91715
5.98035
4.94856
1.96254
2.88349
4.03195
4.83985
5.48478
6.10969
6.54788
6.71776
6.95307
7.05747
7.18727
7.21254
7.31097
7.34484
7.35566
7.11234
6.71768
6.18792
5.47597
4.60144
1.88597
2.69157
3.44935
4.2655
4.89293
5.25125
5.62891
5.8388
5.9986
6.1496
6.19819
6.3071
6.22748
6.33441
6.26336
6.13078
5.76925
5.3187
4.74001
4.05636
1.62937
2.30626
3.03108
3.59065
4.06141
4.53597
4.71754
4.94722
5.00711
5.11249
5.10481
5.25188
5.25469
5.21441
5.19898
5.11641
4.90568
4.42351
3.95654
3.42709
1.32167
1.90339
2.41956
2.79236
3.23792
3.455
3.67933
3.8765
3.96656
4.10782
4.11147
4.08644
4.16614
4.18877
4.05326
3.99449
3.82684
3.52421
3.04213
2.71354
1.09289
1.48903
1.78872
2.07872
2.32899
2.53723
2.67108
2.7286
2.88887
2.83611
2.90284
2.89166
2.94242
2.98358
2.94154
2.8679
2.70367
2.5203
2.24285
2.00092
0.663819
0.846521
1.00863
1.22088
1.46789
1.57787
1.64171
1.71284
1.66845
1.73959
1.6797
1.78411
1.75822
1.75848
1.7813
1.75135
1.68783
1.58805
1.37281
1.16794
0.23709
0.333193
0.349903
0.390235
0.456123
0.502387
0.510864
0.538242
0.582533
0.544218
0.573885
0.560404
0.549104
0.644096
0.639594
0.566387
0.580764
0.571359
0.442031
0.442938
2.91138
4.10533
5.37959
6.44668
7.30752
7.92908
8.36613
8.83641
9.07272
9.21953
9.40113
9.40711
9.58196
9.50703
9.40865
9.20381
8.63729
7.90857
7.14641
6.19228
2.88582
3.87138
4.89969
5.74825
6.49793
7.02547
7.51932
7.74411
8.01677
8.12638
8.28325
8.3329
8.3045
8.47984
8.32029
8.0351
7.65175
7.06339
6.31892
5.50144
2.63446
3.43795
4.30165
5.04817
5.73703
6.06026
6.48795
6.72423
6.84801
7.00405
7.13798
7.16488
7.22891
7.19118
7.14972
6.92525
6.5723
6.13569
5.49179
4.81192
2.357
2.97836
3.6411
4.19294
4.73857
5.15027
5.31733
5.54311
5.69807
5.79331
5.81311
5.91496
5.98525
5.89486
5.93477
5.80509
5.43023
5.10866
4.56732
4.04286
1.83338
2.33589
2.92464
3.38907
3.73082
4.03191
4.21913
4.3442
4.44918
4.46889
4.62304
4.59174
4.72723
4.68324
4.66021
4.43705
4.33257
3.98718
3.60061
3.17602
1.33672
1.70356
2.08903
2.38348
2.7083
2.89384
3.0131
3.19334
3.30949
3.26771
3.38446
3.33599
3.40703
3.35391
3.29036
3.16277
3.15526
2.8981
2.6147
2.35437
0.791433
1.06668
1.24799
1.55635
1.62589
1.74983
1.82882
1.93176
1.93627
1.96536
2.05429
1.99927
2.02179
1.9724
2.02463
1.97778
1.87586
1.67529
1.592
1.4216
0.239903
0.428954
0.406746
0.530305
0.606621
0.617718
0.607484
0.667685
0.603422
0.663942
0.62596
0.693392
0.728459
0.698576
0.661139
0.713551
0.611152
0.605724
0.500618
0.493182
3.84059
5.10855
6.26247
7.36465
8.24709
8.88951
9.3519
9.76098
10.0687
10.2827
10.2461
10.4927
10.4972
10.5032
10.3554
10.1163
9.55757
8.94844
7.95966
7.03619
3.61208
4.63822
5.59203
6.47003
7.27685
7.85117
8.2853
8.72878
8.81792
9.00188
9.05398
9.22926
9.30142
9.15639
9.10399
8.80692
8.51836
7.85829
7.16159
6.29434
3.21423
4.03158
4.9105
5.75091
6.23667
6.6765
7.08489
7.41593
7.54173
7.68064
7.86174
7.81798
7.84064
7.91506
7.68642
7.5033
7.13934
6.72971
6.07653
5.41191
2.73564
3.42727
4.03225
4.72121
5.17418
5.67376
5.9011
6.06435
6.22191
6.2915
6.39685
6.40029
6.44354
6.46053
6.40298
6.27005
5.95676
5.56379
5.0645
4.55449
2.20557
2.67361
3.23589
3.75848
4.04311
4.35097
4.59318
4.71683
4.82774
4.92218
4.96495
4.97228
5.04725
5.01996
4.96736
4.89061
4.62661
4.38047
3.93332
3.55312
1.60873
1.96318
2.29165
2.6784
2.92871
3.17673
3.29636
3.418
3.56532
3.55778
3.62583
3.57022
3.60792
3.62834
3.58824
3.5018
3.38104
3.14487
2.87457
2.58793
0.944817
1.23838
1.41624
1.68478
1.78477
1.89591
1.97038
2.06973
2.09872
2.17593
2.1353
2.2581
2.21235
2.13157
2.1889
2.13789
2.09394
1.88948
1.71122
1.47357
0.392851
0.418775
0.486665
0.499998
0.572031
0.597152
0.691869
0.701171
0.716682
0.680926
0.700695
0.75969
0.73593
0.749729
0.773405
0.682926
0.733471
0.619992
0.538946
0.503804
)
;

boundaryField
{
    hotSide
    {
        type            calculated;
        value           nonuniform List<scalar> 
400
(
0.327191
0.275397
0.179954
0.0552015
-0.297528
-0.518651
-0.833553
-1.07179
-1.32505
-1.39882
-1.30678
-1.18898
-0.747326
-0.3513
0.335314
1.12214
2.23862
3.31998
4.37475
5.37265
2.21545
2.17114
2.02142
1.78064
1.43195
1.03973
0.694913
0.397894
0.168621
0.0910083
0.0285808
0.172125
0.534928
0.992281
1.59894
2.36983
3.35145
4.37568
5.57174
6.64339
3.84679
3.77937
3.58758
3.33982
2.96535
2.612
2.24359
1.86013
1.61426
1.45169
1.34152
1.58705
1.79213
2.25279
2.9203
3.54639
4.56897
5.63093
6.84902
7.80007
4.9694
4.86928
4.72175
4.3724
3.95753
3.67647
3.28187
2.84418
2.60769
2.40361
2.37682
2.52505
2.83437
3.30983
3.82202
4.56548
5.59745
6.7444
7.91906
8.90493
5.62214
5.52414
5.25069
4.97056
4.62013
4.1272
3.76668
3.57271
3.23127
3.12484
3.08781
3.23346
3.52851
4.04165
4.6082
5.48547
6.43922
7.53882
8.78269
9.78988
5.96643
5.78154
5.51161
5.23494
4.84123
4.47631
4.08765
3.82831
3.47903
3.42763
3.44373
3.66117
4.03161
4.52264
5.19772
6.0469
7.02354
8.24601
9.40679
10.4346
6.1641
5.97302
5.62659
5.32101
4.84659
4.452
4.15735
3.77104
3.58932
3.48836
3.64093
3.81428
4.16461
4.74831
5.46521
6.39564
7.47023
8.66432
9.84602
10.8989
6.19009
5.96579
5.6412
5.22637
4.82243
4.36726
4.02328
3.65155
3.45061
3.41491
3.46381
3.81268
4.1704
4.85327
5.69857
6.54414
7.79168
9.00803
10.318
11.3096
6.19818
5.93845
5.51844
5.16406
4.58425
4.15377
3.74309
3.50983
3.26491
3.28663
3.42717
3.69306
4.20488
4.86684
5.68744
6.76646
7.94521
9.27717
10.5556
11.6183
6.19731
6.01648
5.51
5.07739
4.59926
4.08224
3.57558
3.32686
3.11653
3.04939
3.22009
3.63229
4.10834
4.91669
5.84647
6.90799
8.05038
9.38523
10.703
11.8329
6.36146
6.09672
5.59109
5.11876
4.62458
4.01478
3.56258
3.25555
3.07933
3.00839
3.23302
3.55682
4.12224
4.85202
5.82833
6.96161
8.13961
9.56867
10.8846
11.7962
6.4976
6.22168
5.68864
5.22325
4.73235
4.1876
3.71295
3.39327
3.28451
3.19665
3.34556
3.75041
4.26746
5.02986
5.93943
7.03561
8.28613
9.64961
10.8899
12.0423
6.72303
6.47008
5.98695
5.48524
4.91606
4.53073
4.14638
3.80669
3.51911
3.55488
3.61556
4.01045
4.51899
5.13913
6.09157
7.12798
8.3405
9.65131
11.0636
12.0458
6.84834
6.67269
6.24724
5.79014
5.38355
4.89368
4.4503
4.14602
3.98166
3.85987
3.96636
4.26659
4.72347
5.35213
6.26112
7.30429
8.3808
9.66254
10.9869
12.0502
7.10166
6.81501
6.53225
6.11474
5.6584
5.21713
4.83927
4.52442
4.30654
4.21427
4.26399
4.53969
4.93453
5.54561
6.34373
7.2643
8.35887
9.64199
10.8864
11.9005
6.97853
6.8722
6.59203
6.21015
5.84391
5.39615
5.02046
4.61166
4.42769
4.33136
4.37591
4.61932
4.88771
5.40483
6.22556
7.11294
8.17565
9.41057
10.679
11.6591