/*--------------------------------*- C++ -*----------------------------------*\
| =========                 |                                                 |
| \\      /  F ield         | OpenFOAM: The Open Source CFD Toolbox           |
|  \\    /   O peration     | Version:  2212                                  |
|   \\  /    A nd           | Website:  www.openfoam.com                      |
|    \\/     M anipulation  |                                                 |
\*---------------------------------------------------------------------------*/
FoamFile
{
    version     2.0;
    format      ascii;
    arch        "LSB;label=32;scalar=64";
    class       volScalarField;
    location    "0";
    object      stateMean;
}
// * * * * * * * * * * * * * * * * * * * * * * * * * * * * * * * * * * * * * //

dimensions      [0 0 0 1 0 0 0];

internalField   nonuniform List<scalar> 
3200
(
342.763
341.157
339.885
339.153
338.902
338.953
339.12
339.401
339.617
339.737
339.573
339.318
338.868
338.435
337.818
337.546
337.434
337.768
338.797
340.148
336.758
335.369
334.376
333.658
333.438
333.539
333.684
333.884
334.063
334.162
334.116
333.869
333.481
333.121
332.683
332.256
332.187
332.469
333.362
334.385
330.757
329.756
328.854
328.339
328.198
328.183
328.354
328.59
328.665
328.865
328.671
328.585
328.225
327.871
327.41
327.129
327.04
327.346
328.033
328.961
325.092
324.203
323.489
323.014
323.001
323.011
323.027
323.19
323.401
323.409
323.426
323.132
323.058
322.678
322.302
322.034
322.118
322.242
322.85
323.516
319.462
318.781
318.238
317.882
317.78
317.771
317.959
318.078
318.081
318.215
318.159
318.029
317.849
317.595
317.391
317.162
317.18
317.266
317.716
318.201
313.772
313.395
313.021
312.773
312.712
312.716
312.718
312.864
312.935
312.934
312.871
312.812
312.685
312.551
312.367
312.181
312.183
312.353
312.602
313.015
308.263
307.975
307.803
307.642
307.657
307.607
307.679
307.696
307.796
307.789
307.765
307.762
307.61
307.494
307.416
307.346
307.261
307.36
307.608
307.772
302.795
302.683
302.671
302.534
302.477
302.567
302.5
302.584
302.574
302.609
302.662
302.519
302.509
302.464
302.42
302.394
302.418
302.476
302.558
302.619
342.992
341.375
340.122
339.42
339.163
339.296
339.465
339.776
340.024
340.063
339.983
339.741
339.272
338.766
338.262
337.815
337.747
337.978
338.967
340.351
336.879
335.627
334.451
333.844
333.647
333.805
334.005
334.263
334.483
334.57
334.511
334.264
333.897
333.385
332.912
332.564
332.413
332.71
333.597
334.689
330.987
329.927
328.959
328.497
328.285
328.425
328.629
328.824
329.003
329.086
329.013
328.881
328.535
328.15
327.743
327.437
327.285
327.516
328.282
329.102
325.144
324.367
323.664
323.194
323.098
323.132
323.306
323.522
323.585
323.709
323.681
323.478
323.207
322.905
322.635
322.335
322.211
322.435
323.053
323.74
319.509
318.884
318.335
318.013
317.901
318.018
318.127
318.277
318.255
318.344
318.298
318.193
318.015
317.765
317.461
317.274
317.247
317.384
317.823
318.348
313.916
313.46
313.028
312.843
312.777
312.796
312.935
312.984
313.061
313.091
313.091
313.008
312.893
312.688
312.545
312.301
312.234
312.291
312.626
313.041
308.274
308.032
307.781
307.637
307.615
307.682
307.758
307.765
307.886
307.845
307.789
307.727
307.662
307.604
307.497
307.422
307.385
307.353
307.62
307.824
302.841
302.686
302.599
302.543
302.547
302.504
302.614
302.699
302.583
302.599
302.635
302.616
302.555
302.552
302.471
302.478
302.479
302.519
302.584
302.68
343.44
341.874
340.657
339.902
339.764
339.885
340.122
340.404
340.742
340.864
340.783
340.572
340.058
339.501
338.864
338.423
338.161
338.532
339.54
340.735
337.218
336.035
334.948
334.351
334.167
334.257
334.486
334.784
335.078
335.214
335.114
334.899
334.496
333.999
333.423
333.034
332.917
333.165
333.964
335.015
331.292
330.318
329.399
328.968
328.809
328.879
329.141
329.328
329.431
329.587
329.614
329.396
329.031
328.628
328.155
327.819
327.747
327.874
328.592
329.429
325.504
324.696
323.981
323.522
323.356
323.552
323.687
323.838
324.072
324.133
324.102
323.98
323.65
323.358
322.983
322.682
322.592
322.752
323.262
324.013
319.786
319.177
318.532
318.14
318.236
318.248
318.415
318.541
318.672
318.721
318.634
318.537
318.339
318.154
317.749
317.514
317.537
317.673
318.063
318.585
314.007
313.599
313.122
313.03
312.887
312.979
313.052
313.173
313.281
313.27
313.336
313.259
313.054
312.862
312.678
312.504
312.506
312.604
312.89
313.171
308.328
308.154
307.908
307.836
307.75
307.796
307.795
307.918
307.931
307.955
307.962
307.94
307.794
307.719
307.616
307.522
307.51
307.504
307.785
307.833
302.872
302.763
302.708
302.581
302.611
302.606
302.567
302.631
302.598
302.671
302.69
302.64
302.627
302.513
302.552
302.589
302.549
302.578
302.573
302.702
344.094
342.638
341.419
340.756
340.536
340.642
340.896
341.277
341.546
341.743
341.701
341.487
341.018
340.427
339.763
339.297
339.033
339.342
340.188
341.468
337.837
336.717
335.709
335.128
335.022
334.982
335.234
335.59
335.822
335.973
335.999
335.686
335.343
334.892
334.249
333.792
333.582
333.915
334.602
335.67
331.848
330.849
329.976
329.466
329.391
329.445
329.664
329.939
330.11
330.242
330.214
330.087
329.708
329.307
328.899
328.503
328.229
328.528
329.131
329.962
325.941
325.078
324.459
324.041
323.899
324.005
324.226
324.418
324.53
324.627
324.736
324.507
324.234
323.798
323.484
323.12
323.019
323.324
323.754
324.277
319.998
319.434
318.879
318.552
318.515
318.632
318.736
318.906
319.076
319.189
319.094
318.947
318.791
318.522
318.209
318.069
317.848
317.959
318.315
318.926
314.271
313.884
313.539
313.268
313.249
313.273
313.453
313.42
313.545
313.628
313.675
313.52
313.393
313.168
313.008
312.834
312.859
312.847
313.112
313.413
308.507
308.334
308.038
307.99
307.926
307.967
308.02
308.016
308.136
308.142
308.231
308.084
308.01
307.866
307.783
307.761
307.62
307.656
307.876
308.048
302.855
302.789
302.645
302.652
302.643
302.636
302.692
302.723
302.732
302.768
302.732
302.742
302.652
302.661
302.688
302.663
302.581
302.506
302.637
302.589
345.154
343.686
342.482
341.847
341.547
341.681
342.001
342.297
342.733
342.822
342.797
342.585
342.203
341.464
340.864
340.324
340.15
340.454
341.222
342.494
338.716
337.537
336.489
336.006
335.786
335.912
336.178
336.438
336.813
336.874
336.907
336.71
336.254
335.785
335.138
334.724
334.529
334.773
335.543
336.478
332.612
331.541
330.689
330.208
330.159
330.222
330.395
330.659
330.95
331.055
331.091
330.829
330.538
330.061
329.608
329.174
329.075
329.281
329.815
330.657
326.491
325.668
325.04
324.651
324.511
324.601
324.772
325.047
325.233
325.377
325.301
325.119
324.793
324.508
324.07
323.896
323.719
323.787
324.31
324.993
320.499
319.926
319.374
319.138
318.99
319.057
319.189
319.409
319.512
319.599
319.647
319.51
319.286
319.007
318.755
318.416
318.391
318.451
318.833
319.322
314.61
314.215
313.791
313.602
313.564
313.661
313.702
313.812
313.936
314.006
314.01
313.896
313.796
313.598
313.321
313.201
313.124
313.19
313.535
313.782
308.675
308.521
308.346
308.2
308.157
308.106
308.205
308.272
308.327
308.377
308.408
308.369
308.253
308.089
307.985
307.919
307.856
307.843
307.995
308.244
302.975
302.795
302.782
302.716
302.618
302.76
302.786
302.761
302.739
302.827
302.834
302.813
302.72
302.758
302.692
302.66
302.654
302.667
302.659
302.753
346.263
344.956
343.7
342.976
342.872
342.859
343.19
343.533
343.932
344.101
344.168
343.898
343.369
342.749
342.118
341.603
341.384
341.67
342.435
343.61
339.749
338.636
337.542
337.07
336.863
336.994
337.255
337.571
337.834
337.992
338.064
337.804
337.346
336.719
336.245
335.82
335.661
335.906
336.597
337.504
333.453
332.449
331.604
331.213
331.07
331.118
331.336
331.628
331.818
332.051
332.008
331.814
331.518
330.946
330.496
330.184
330.046
330.232
330.757
331.449
327.2
326.377
325.8
325.405
325.273
325.335
325.479
325.724
325.911
326.089
326.076
325.892
325.635
325.265
324.912
324.61
324.45
324.617
325.116
325.65
321.094
320.49
320.006
319.674
319.508
319.653
319.783
319.904
320.096
320.245
320.198
320.058
319.957
319.614
319.316
319.04
318.954
319.125
319.41
319.84
314.981
314.642
314.26
313.998
313.964
313.977
314.117
314.209
314.382
314.453
314.392
314.356
314.194
314.019
313.762
313.615
313.525
313.568
313.882
314.133
308.95
308.797
308.54
308.417
308.395
308.311
308.353
308.574
308.588
308.639
308.585
308.581
308.477
308.308
308.216
308.186
308.101
308.145
308.289
308.46
302.99
302.916
302.842
302.833
302.807
302.812
302.861
302.788
302.859
302.947
302.885
302.819
302.904
302.847
302.758
302.75
302.726
302.72
302.841
302.829
347.644
346.356
345.109
344.394
344.237
344.232
344.451
344.825
345.279
345.538
345.551
345.309
344.702
344.158
343.481
342.983
342.749
343.061
343.957
344.991
340.937
339.864
338.827
338.275
337.993
338.098
338.32
338.713
338.94
339.175
339.188
338.951
338.551
338.018
337.384
337.093
336.909
337.143
337.721
338.684
334.414
333.45
332.708
332.115
332.051
332.128
332.296
332.514
332.777
332.943
332.973
332.863
332.501
332.019
331.492
331.114
331.007
331.199
331.796
332.593
328
327.254
326.595
326.248
326.1
326.122
326.325
326.524
326.83
326.928
326.871
326.754
326.444
326
325.64
325.278
325.328
325.4
325.941
326.507
321.701
321.074
320.647
320.35
320.158
320.282
320.444
320.455
320.741
320.786
320.85
320.701
320.545
320.254
319.881
319.682
319.563
319.735
320.051
320.471
315.515
315.027
314.739
314.493
314.435
314.503
314.435
314.741
314.739
314.854
314.818
314.748
314.553
314.445
314.188
314.028
313.929
314.072
314.293
314.549
309.212
309.065
308.82
308.649
308.589
308.647
308.671
308.784
308.875
308.865
308.924
308.79
308.8
308.584
308.535
308.451
308.385
308.424
308.612
308.683
303.126
302.975
302.971
302.909
302.908
302.924
302.936
302.853
302.968
302.981
303.054
302.981
302.859
302.965
302.778
302.847
302.826
302.834
302.874
302.934
349.132
347.89
346.713
346.034
345.612
345.653
345.978
346.32
346.622
346.888
346.959
346.738
346.165
345.603
344.957
344.573
344.361
344.738
345.415
346.53
342.315
341.166
340.231
339.617
339.36
339.406
339.571
339.947
340.131
340.349
340.48
340.142
339.785
339.26
338.747
338.365
338.31
338.433
339.097
339.94
335.485
334.583
333.821
333.158
333.098
333.173
333.329
333.565
333.79
334.075
334.041
333.841
333.494
333.02
332.594
332.346
332.125
332.356
332.949
333.619
328.897
328.166
327.504
327.12
326.918
326.973
327.104
327.353
327.555
327.727
327.772
327.604
327.346
327.049
326.51
326.292
326.184
326.447
326.845
327.322
322.407
321.752
321.306
320.967
320.944
320.963
321.006
321.217
321.368
321.426
321.497
321.375
321.161
320.884
320.597
320.381
320.307
320.452
320.768
321.203
315.957
315.531
315.25
314.942
314.916
314.89
314.956
315.087
315.275
315.333
315.299
315.211
315.02
314.945
314.656
314.586
314.545
314.543
314.762
315.071
309.631
309.293
309.092
308.9
309.02
308.977
308.947
309.102
309.092
309.174
309.217
309.146
309
308.929
308.844
308.735
308.676
308.725
308.883
308.978
303.206
303.093
303.093
303.059
303.05
303.034
303.028
303.012
303.146
303.1
303.093
302.987
303.027
303.014
302.956
302.879
302.889
302.937
302.948
302.946
350.816
349.538
348.36
347.652
347.315
347.341
347.478
347.821
348.154
348.379
348.416
348.134
347.753
347.086
346.514
346.119
346.013
346.297
347.041
348.012
343.659
342.59
341.562
340.999
340.707
340.686
340.894
341.161
341.384
341.642
341.667
341.565
341.136
340.579
340.103
339.751
339.61
339.92
340.494
341.356
336.648
335.814
335.037
334.453
334.218
334.199
334.353
334.625
334.903
335.024
335.107
334.836
334.634
334.187
333.733
333.349
333.417
333.596
334.067
334.778
329.804
329.145
328.498
328.1
327.929
327.959
327.928
328.209
328.425
328.565
328.646
328.404
328.235
327.859
327.58
327.265
327.195
327.372
327.718
328.295
323.051
322.594
322.027
321.701
321.581
321.605
321.697
321.84
322.036
322.148
322.174
322.058
321.855
321.6
321.384
321.177
321.034
321.138
321.524
321.86
316.44
316.042
315.783
315.568
315.356
315.361
315.495
315.609
315.758
315.835
315.851
315.687
315.576
315.386
315.196
315.067
315.009
315.054
315.354
315.717
309.878
309.614
309.519
309.368
309.237
309.227
309.302
309.399
309.37
309.469
309.457
309.496
309.343
309.233
309.127
309.032
309.02
308.978
309.193
309.414
303.254
303.225
303.21
303.117
303.117
303.099
303.15
303.196
303.097
303.212
303.164
303.177
303.119
303.131
303.006
302.99
303.037
302.971
303.147
303.136
352.505
351.217
350.108
349.422
348.965
348.916
349.082
349.342
349.604
349.911
349.952
349.694
349.202
348.71
348.129
347.759
347.663
348.057
348.786
349.76
345.143
344.069
343.115
342.506
342.217
342.153
342.238
342.464
342.767
342.908
342.915
342.782
342.401
341.943
341.489
341.153
341.052
341.278
341.945
342.744
337.887
337.077
336.235
335.79
335.531
335.36
335.499
335.719
335.891
336.182
336.234
336.051
335.745
335.285
334.916
334.634
334.588
334.793
335.289
335.919
330.895
330.175
329.546
329.123
328.858
328.798
328.957
329.144
329.37
329.389
329.522
329.508
329.089
328.688
328.397
328.21
328.269
328.33
328.814
329.262
323.878
323.416
322.835
322.518
322.447
322.349
322.452
322.584
322.74
322.811
322.857
322.815
322.578
322.318
322.01
321.778
321.879
321.932
322.263
322.672
317.132
316.643
316.346
316.067
315.965
315.947
316.021
316.068
316.22
316.306
316.252
316.213
316.127
315.862
315.709
315.597
315.637
315.758
315.915
316.129
310.098
309.942
309.771
309.62
309.606
309.513
309.634
309.601
309.669
309.696
309.785
309.631
309.673
309.525
309.408
309.427
309.346
309.364
309.463
309.638
303.464
303.404
303.215
303.209
303.197
303.22
303.22
303.228
303.362
303.292
303.267
303.298
303.282
303.214
303.156
303.194
303.071
303.167
303.221
303.238
354.213
353.068
351.989
351.198
350.733
350.607
350.617
350.964
351.121
351.391
351.378
351.203
350.812
350.292
349.787
349.444
349.489
349.781
350.538
351.5
346.702
345.643
344.727
344.025
343.696
343.527
343.666
343.785
344.065
344.119
344.268
344.026
343.695
343.284
342.877
342.656
342.572
342.861
343.49
344.238
339.18
338.379
337.561
337.071
336.702
336.68
336.702
336.889
337.072
337.25
337.285
337.052
336.773
336.491
336.122
335.902
335.862
336.143
336.562
337.224
331.861
331.155
330.635
330.172
329.966
329.887
329.954
330.07
330.24
330.32
330.344
330.259
330.004
329.722
329.384
329.255
329.241
329.365
329.777
330.271
324.703
324.191
323.778
323.364
323.182
323.16
323.112
323.296
323.449
323.525
323.523
323.484
323.29
323.094
322.772
322.698
322.633
322.804
323.021
323.453
317.533
317.223
316.892
316.634
316.527
316.442
316.531
316.599
316.649
316.709
316.801
316.688
316.564
316.4
316.246
316.102
316.191
316.239
316.493
316.66
310.558
310.328
310.132
310.008
309.875
309.89
309.948
310.048
310.01
310.055
310.104
310.035
309.982
309.834
309.761
309.745
309.68
309.706
309.83
309.969
303.586
303.495
303.351
303.36
303.389
303.294
303.383
303.265
303.387
303.434
303.361
303.402
303.351
303.311
303.242
303.189
303.171
303.219
303.287
303.359
356.082
354.897
353.699
352.988
352.504
352.287
352.322
352.476
352.705
352.822
352.897
352.647
352.279
351.87
351.409
351.118
351.203
351.606
352.233
353.177
348.154
347.183
346.337
345.555
345.223
345.032
345.023
345.168
345.376
345.481
345.588
345.435
345.043
344.688
344.374
344.098
344.062
344.419
345.061
345.828
340.481
339.65
338.987
338.326
337.982
337.909
337.906
338.091
338.18
338.383
338.327
338.208
337.951
337.639
337.329
337.164
337.061
337.399
337.864
338.537
332.922
332.275
331.663
331.157
330.922
330.866
330.843
330.984
331.1
331.146
331.26
331.207
330.871
330.669
330.389
330.19
330.196
330.435
330.893
331.272
325.57
325.036
324.548
324.195
323.96
323.775
323.921
324.025
324.114
324.151
324.2
324.093
323.959
323.771
323.582
323.53
323.466
323.608
323.898
324.249
318.203
317.795
317.473
317.284
317.116
317.134
317.027
317.139
317.122
317.239
317.282
317.219
317.086
316.978
316.766
316.697
316.652
316.768
317.048
317.25
310.887
310.705
310.438
310.322
310.249
310.247
310.132
310.222
310.369
310.385
310.351
310.307
310.252
310.169
309.982
310.073
310.047
310.086
310.227
310.379
303.615
303.562
303.48
303.453
303.407
303.433
303.42
303.445
303.467
303.478
303.376
303.44
303.401
303.377
303.4
303.372
303.367
303.39
303.385
303.463
357.814
356.696
355.639
354.804
354.314
354.003
354.04
354.172
354.236
354.383
354.369
354.173
353.823
353.481
353.1
352.955
352.974
353.363
354.159
354.947
349.698
348.819
347.92
347.179
346.776
346.593
346.459
346.583
346.666
346.752
346.747
346.653
346.326
345.99
345.738
345.603
345.739
345.923
346.492
347.374
341.766
341.008
340.332
339.686
339.378
339.166
339.078
339.292
339.306
339.431
339.404
339.265
338.997
338.708
338.498
338.371
338.356
338.633
339.137
339.772
333.984
333.402
332.845
332.311
332.082
331.901
331.903
331.97
332.068
332.128
332.063
331.961
331.815
331.578
331.273
331.316
331.307
331.54
331.881
332.424
326.4
325.835
325.383
324.985
324.85
324.632
324.723
324.83
324.792
324.941
324.853
324.837
324.651
324.403
324.26
324.253
324.259
324.36
324.789
325.086
318.789
318.462
318.078
317.808
317.678
317.587
317.585
317.643
317.699
317.786
317.782
317.702
317.606
317.457
317.295
317.306
317.31
317.474
317.612
317.846
311.275
311.04
310.855
310.73
310.54
310.488
310.633
310.562
310.617
310.67
310.56
310.62
310.574
310.473
310.4
310.392
310.329
310.462
310.66
310.668
303.785
303.78
303.738
303.57
303.549
303.59
303.595
303.527
303.599
303.635
303.49
303.598
303.591
303.508
303.511
303.412
303.422
303.47
303.519
303.535
359.777
358.585
357.508
356.642
356.097
355.789
355.717
355.735
355.81
355.805
355.87
355.647
355.449
355.113
354.766
354.733
354.797
355.175
355.925
356.838
351.317
350.386
349.498
348.791
348.235
348.091
348.022
347.959
348.008
348.157
348.089
347.959
347.699
347.39
347.203
347.034
347.213
347.517
348.197
348.96
343.159
342.368
341.638
341.021
340.676
340.423
340.364
340.385
340.409
340.543
340.457
340.422
340.11
339.885
339.694
339.681
339.621
340.005
340.509
341.069
335.12
334.569
333.805
333.399
333.085
332.873
332.849
332.872
332.969
332.924
332.944
332.905
332.739
332.542
332.451
332.278
332.352
332.67
332.958
333.435
327.141
326.755
326.314
325.893
325.738
325.484
325.53
325.522
325.562
325.608
325.527
325.549
325.35
325.248
325.129
325.107
325.135
325.252
325.536
325.886
319.332
319.07
318.669
318.456
318.267
318.193
318.153
318.229
318.223
318.216
318.28
318.186
318.08
317.904
317.86
317.855
317.914
317.914
318.275
318.475
311.614
311.334
311.214
310.939
310.965
310.906
310.86
310.893
310.922
311.028
310.961
310.901
310.874
310.776
310.783
310.738
310.747
310.731
310.845
311.124
303.892
303.781
303.794
303.61
303.681
303.633
303.614
303.606
303.627
303.65
303.71
303.608
303.599
303.669
303.529
303.62
303.629
303.636
303.672
303.643
361.632
360.508
359.356
358.627
358.011
357.579
357.449
357.326
357.415
357.297
357.315
357.163
356.933
356.653
356.433
356.394
356.515
356.996
357.771
358.613
352.96
352.064
351.068
350.434
349.937
349.553
349.4
349.36
349.439
349.443
349.253
349.267
349.062
348.768
348.655
348.578
348.677
349.009
349.667
350.474
344.492
343.742
342.993
342.418
341.97
341.747
341.546
341.577
341.547
341.596
341.602
341.469
341.254
341.125
340.912
340.858
341.083
341.302
341.856
342.398
336.264
335.645
335.046
334.422
334.098
333.928
333.908
333.849
333.827
333.95
333.888
333.741
333.634
333.446
333.322
333.372
333.405
333.68
334.117
334.56
328.087
327.631
327.088
326.741
326.433
326.257
326.215
326.229
326.274
326.24
326.299
326.22
326.103
325.942
325.843
325.878
325.862
326.129
326.414
326.802
319.952
319.667
319.296
319.013
318.822
318.752
318.707
318.68
318.7
318.703
318.722
318.665
318.597
318.498
318.441
318.386
318.41
318.586
318.786
319.123
311.966
311.792
311.592
311.377
311.261
311.23
311.184
311.2
311.206
311.245
311.274
311.236
311.093
311.107
311.024
311.028
311.102
311.211
311.276
311.445
304.051
303.949
303.877
303.875
303.826
303.839
303.813
303.737
303.763
303.7
303.81
303.735
303.697
303.734
303.729
303.718
303.697
303.77
303.877
303.863
363.559
362.439
361.418
360.557
359.791
359.371
359.146
359.096
358.944
358.838
358.785
358.675
358.513
358.237
358.154
358.164
358.379
358.855
359.603
360.408
354.544
353.641
352.77
351.984
351.436
351.122
350.915
350.857
350.737
350.775
350.607
350.49
350.422
350.201
350.087
350.12
350.222
350.587
351.295
351.952
345.795
345.111
344.422
343.723
343.313
342.901
342.811
342.788
342.744
342.668
342.651
342.483
342.457
342.204
342.091
342.128
342.343
342.556
343.212
343.697
337.306
336.747
336.1
335.66
335.277
335.043
334.916
334.84
334.784
334.735
334.762
334.647
334.586
334.479
334.339
334.336
334.356
334.723
335.12
335.614
328.844
328.488
327.93
327.652
327.305
327.152
327.02
326.887
326.927
326.945
326.95
326.823
326.792
326.605
326.672
326.602
326.729
326.924
327.265
327.661
320.589
320.171
319.912
319.681
319.555
319.394
319.229
319.106
319.268
319.228
319.14
319.128
319.081
319.016
319.03
318.975
319.037
319.193
319.428
319.719
312.336
312.097
311.947
311.814
311.658
311.518
311.563
311.496
311.49
311.504
311.566
311.479
311.441
311.453
311.354
311.391
311.456
311.513
311.675
311.796
304.084
304.094
303.939
303.879
303.876
303.824
303.873
303.849
303.844
303.883
303.753
303.864
303.758
303.834
303.857
303.84
303.893
303.905
303.806
303.982
365.3
364.306
363.23
362.346
361.643
361.186
360.851
360.618
360.527
360.454
360.364
360.186
360.069
359.941
359.851
359.907
360.146
360.616
361.448
362.288
356.236
355.381
354.33
353.643
352.997
352.648
352.286
352.104
352.102
352.078
351.913
351.859
351.768
351.572
351.543
351.475
351.732
352.183
352.777
353.615
347.24
346.446
345.711
345.13
344.622
344.329
343.963
343.858
343.833
343.771
343.654
343.631
343.491
343.378
343.394
343.442
343.643
343.93
344.427
345.018
338.422
337.825
337.237
336.678
336.305
336.013
335.923
335.824
335.686
335.69
335.618
335.516
335.445
335.465
335.347
335.317
335.561
335.817
336.171
336.665
329.708
329.296
328.832
328.433
328.075
327.941
327.866
327.741
327.757
327.625
327.633
327.534
327.513
327.471
327.39
327.482
327.521
327.769
328.027
328.463
321.264
320.871
320.539
320.196
320.026
319.898
319.868
319.818
319.76
319.692
319.596
319.58
319.611
319.533
319.542
319.497
319.659
319.737
319.994
320.242
312.59
312.519
312.327
312.167
311.991
311.893
311.856
311.81
311.834
311.731
311.791
311.766
311.734
311.718
311.664
311.774
311.82
311.905
311.984
312.104
304.223
304.188
304.152
304.021
304.032
304.015
303.934
304.061
303.921
303.945
303.928
303.818
304
303.877
303.888
303.93
303.979
304.004
304.035
304.043
367.151
366.204
365.079
364.097
363.43
362.837
362.519
362.256
362.042
361.962
361.779
361.669
361.612
361.521
361.441
361.558
361.841
362.388
363.198
364.124
357.723
356.892
355.853
355.156
354.618
354.091
353.738
353.635
353.448
353.368
353.238
353.188
353.042
352.941
352.845
352.991
353.278
353.697
354.299
355.085
348.49
347.758
347.093
346.372
345.834
345.559
345.253
345.1
344.98
344.85
344.802
344.672
344.712
344.548
344.547
344.596
344.868
345.223
345.71
346.32
339.503
338.885
338.236
337.753
337.357
336.95
336.827
336.645
336.617
336.529
336.536
336.372
336.337
336.331
336.287
336.302
336.438
336.843
337.234
337.705
330.62
330.085
329.626
329.314
328.926
328.762
328.584
328.422
328.358
328.23
328.227
328.239
328.133
328.074
328.164
328.17
328.279
328.522
328.946
329.228
321.703
321.339
321.081
320.834
320.625
320.455
320.354
320.322
320.18
320.242
320.175
320.177
320.109
320.041
320.05
320.086
320.209
320.35
320.585
320.795
313.016
312.853
312.716
312.529
312.307
312.22
312.176
312.12
312.176
312.11
312.17
312.06
312.075
312.06
312.017
312.024
312.062
312.137
312.327
312.512
304.347
304.257
304.248
304.217
304.159
304.121
304.119
304.097
304.056
304.097
304.067
304.079
304.086
303.986
303.983
304.049
304.026
304.027
304.148
304.141
368.923
367.826
366.668
365.719
364.971
364.453
364.104
363.705
363.517
363.395
363.214
363.183
362.959
362.963
362.973
363.075
363.529
364.139
364.785
365.642
359.139
358.237
357.309
356.563
355.911
355.474
355.057
354.893
354.662
354.575
354.418
354.346
354.332
354.096
354.179
354.374
354.659
355.146
355.789
356.524
349.681
348.946
348.167
347.508
346.902
346.655
346.292
346.108
346.02
345.883
345.749
345.703
345.603
345.589
345.565
345.714
345.984
346.333
346.892
347.503
340.334
339.768
339.175
338.694
338.216
337.868
337.754
337.571
337.445
337.366
337.346
337.228
337.129
337.176
337.083
337.15
337.457
337.707
338.179
338.648
331.305
330.844
330.309
329.901
329.612
329.36
329.214
329.123
329.041
329.033
328.879
328.898
328.74
328.75
328.732
328.906
328.957
329.247
329.579
329.962
322.304
321.967
321.621
321.366
321.079
320.928
320.839
320.683
320.583
320.633
320.517
320.556
320.469
320.498
320.532
320.624
320.594
320.812
321.056
321.287
313.393
313.135
312.977
312.693
312.646
312.543
312.482
312.393
312.399
312.375
312.286
312.336
312.303
312.339
312.268
312.294
312.373
312.55
312.61
312.762
304.512
304.329
304.359
304.244
304.174
304.17
304.187
304.131
304.2
304.14
304.178
304.11
304.071
304.095
304.127
304.067
304.163
304.16
304.257
304.259
370.161
368.985
367.942
366.95
366.173
365.626
365.246
364.903
364.64
364.449
364.486
364.216
364.167
364.095
364.161
364.304
364.757
365.256
366.134
366.966
360.18
359.232
358.373
357.592
356.877
356.387
356.024
355.638
355.588
355.425
355.373
355.177
355.066
355.153
355.134
355.347
355.544
356.107
356.708
357.498
350.521
349.768
348.971
348.212
347.804
347.435
347.088
346.806
346.714
346.592
346.411
346.438
346.381
346.258
346.426
346.538
346.824
347.151
347.723
348.323
341.069
340.43
339.891
339.269
338.881
338.439
338.262
338.139
338.009
337.953
337.848
337.831
337.759
337.702
337.71
337.785
338.033
338.359
338.793
339.251
331.77
331.342
330.831
330.362
330.127
329.865
329.662
329.569
329.48
329.397
329.354
329.336
329.239
329.235
329.249
329.279
329.493
329.687
330.083
330.423
322.616
322.291
321.998
321.65
321.435
321.22
321.129
321.029
320.898
320.912
320.844
320.893
320.839
320.797
320.809
320.862
320.947
321.145
321.379
321.637
313.585
313.309
313.153
312.906
312.828
312.736
312.679
312.593
312.573
312.501
312.542
312.414
312.451
312.517
312.443
312.475
312.497
312.68
312.836
313.056
304.474
304.453
304.393
304.387
304.323
304.304
304.215
304.21
304.198
304.235
304.215
304.155
304.175
304.157
304.128
304.212
304.154
304.26
304.333
304.363
)
;

boundaryField
{
    hotSide
    {
        type            fixedGradient;
        gradient        nonuniform List<scalar> 
400
(
321.511
322.87
325.591
329.677
335.133
341.965
350.181
359.788
370.794
383.208
397.037
412.289
428.971
447.088
466.647
487.651
510.105
534.011
559.372
586.191
323.738
325.08
327.767
331.802
337.194
343.949
352.078
361.591
372.498
384.81
398.537
413.687
430.268
448.289
467.755
488.672
511.043
534.872
560.161
586.913
326.149
327.47
330.116
334.091
339.406
346.071
354.099
363.503
374.296
386.491
400.101
415.136
431.606
449.52
468.885
489.706
511.988
535.735
560.948
587.63
328.704
330
332.597
336.503
341.73
348.292
356.205
365.485
376.15
388.215
401.695
416.604
432.954
450.753
470.009
490.73
512.919
536.579
561.714
588.325
331.33
332.599
335.142
338.97
344.099
350.546
358.332
367.477
378.003
389.928
403.271
418.047
434.27
451.949
471.095
491.712
513.807
537.382
562.439
588.978
333.918
335.158
337.643
341.389
346.414
352.74
360.392
369.397
379.779
391.562
404.765
419.407
435.503
453.065
472.101
492.618
514.622
538.114
563.096
589.569
336.321
337.531
339.959
343.622
348.544
354.751
362.274
371.142
381.385
393.031
406.101
420.618
436.595
454.047
472.983
493.409
515.33
538.747
563.663
590.076
338.36
339.543
341.92
345.509
350.339
356.44
363.847
372.595
382.718
394.244
407.2
421.608
437.485
454.844
473.695
494.045
515.897
539.253
564.114
590.478
339.852
341.015
343.352
346.885
351.645
357.665
364.985
373.643
383.675
395.113
407.984
422.312
438.116
455.407
474.197
494.491
516.294
539.606
564.428
590.758
340.643
341.795
344.11
347.613
352.334
358.311
365.584
374.193
384.176
395.567
408.393
422.679
438.443
455.699
474.456
494.722
516.498
539.788
564.589
590.901
340.643
341.795
344.11
347.613
352.334
358.311
365.584
374.193
384.176
395.567
408.393
422.679
438.443
455.699
474.456
494.722
516.498
539.788
564.589
590.901
339.852
341.015
343.352
346.885
351.645
357.665
364.985
373.643
383.675
395.113
407.984
422.312
438.116
455.407
474.197
494.491
516.294
539.606
564.428
590.758
338.36
339.543
341.92
345.509
350.339
356.44
363.847
372.595
382.718
394.244
407.2
421.608
437.485
454.844
473.695
494.045
515.897
539.253
564.114
590.478
336.321
337.531
339.959
343.622
348.544
354.751
362.274
371.142
381.385
393.031
406.101
420.618
436.595
454.047
472.983
493.409
515.33
538.747
563.663
590.076
333.918
335.158
337.643
341.389
346.414
352.74
360.392
369.397
379.779
391.562
404.765
419.407
435.503
453.065
472.101
492.618
514.622
538.114
563.096
589.569
331.33
332.599
335.142
338.97
344.099
350.546
358.332
367.477
378.003
389.928
403.271
418.047
434.27
451.949
471.095
491.712
513.807
537.382
562.439
588.978
328.704
330
332.597
336.503
341.73
348.292
356.205
365.485
376.15
388.215
401.695
416.604
432.954
450.753
470.009
490.73
512.919
536.579
561.714
588.325
326.149
327.47
330.116
334.091
339.406
346.071
354.099
363.503
374.296
386.491
400.101
415.136
431.606
449.52
468.885
489.706
511.988
535.735
560.948
587.63
323.738
325.08
327.767
331.802
337.194
343.949
352.078
361.591
372.498
384.81
398.537
413.687
430.268
448.289
467.755
488.672
511.043
534.872
560.161
586.913
321.511
322.87
325.591
329.677
335.133
341.965
350.181
359.788
370.794
383.208
397.037
412.289
428.971
447.088
466.647
487.651
510.105
534.011
559.372
586.191
)
;
    }
    coldSide
    {
        type            mixed;
        refValue        uniform 300;
        refGradient     uniform 0;
        valueFraction   uniform 0.991591;
        source          uniform 0;
        value           nonuniform List<scalar> 
400
(
300.024
300.024
300.024
300.024
300.025
300.025
300.026
300.027
300.027
300.029
300.03
300.03
300.032
300.033
300.034
300.034
300.036
300.037
300.038
300.038
300.023
300.023
300.023
300.023
300.024
300.025
300.025
300.026
300.027
300.029
300.029
300.03
300.032
300.032
300.033
300.034
300.035