/*--------------------------------*- C++ -*----------------------------------*\
| =========                 |                                                 |
| \\      /  F ield         | OpenFOAM: The Open Source CFD Toolbox           |
|  \\    /   O peration     | Version:  2212                                  |
|   \\  /    A nd           | Website:  www.openfoam.com                      |
|    \\/     M anipulation  |                                                 |
\*---------------------------------------------------------------------------*/
FoamFile
{
    version     2.0;
    format      ascii;
    arch        "LSB;label=32;scalar=64";
    class       volScalarField;
    location    "0";
    object      stateMean;
}
// * * * * * * * * * * * * * * * * * * * * * * * * * * * * * * * * * * * * * //

dimensions      [0 0 0 1 0 0 0];

internalField   nonuniform List<scalar> 
3200
(
342.531
343.343
344.316
345.154
345.895
346.441
346.967
347.203
347.373
347.49
347.371
347.15
346.778
346.239
345.591
344.755
343.978
342.942
341.807
341.017
336.919
337.695
338.54
339.274
339.827
340.376
340.81
341.028
341.19
341.207
341.181
341.027
340.596
340.159
339.574
338.933
338.149
337.257
336.366
335.601
331.347
331.985
332.641
333.327
333.829
334.271
334.663
334.842
334.975
335.005
334.962
334.729
334.466
334.088
333.633
333.031
332.431
331.669
330.835
330.218
325.761
326.216
326.81
327.307
327.753
328.09
328.366
328.528
328.689
328.732
328.731
328.538
328.174
328.048
327.573
327.056
326.491
325.992
325.41
324.752
320.029
320.459
320.888
321.331
321.664
321.908
322.125
322.256
322.274
322.39
322.293
322.25
322.049
321.84
321.499
321.099
320.741
320.215
319.765
319.332
314.31
314.642
314.956
315.209
315.474
315.704
315.786
315.957
316.005
315.964
316.006
315.847
315.835
315.569
315.337
315.087
314.796
314.49
314.16
313.858
308.633
308.784
308.955
309.179
309.337
309.375
309.473
309.574
309.575
309.634
309.589
309.49
309.414
309.336
309.246
309.091
308.948
308.77
308.433
308.311
302.869
302.976
303.045
302.987
303.122
303.175
303.189
303.185
303.21
303.241
303.237
303.142
303.181
303.148
303.108
303.028
302.998
302.921
302.883
302.726
343.274
344.125
345.105
345.961
346.706
347.339
347.851
348.194
348.25
348.303
348.32
348.029
347.606
347.05
346.4
345.667
344.743
343.631
342.555
341.689
337.645
338.366
339.161
339.91
340.528
341.028
341.484
341.825
341.999
342
341.89
341.714
341.366
340.899
340.256
339.608
338.835
337.897
336.961
336.233
331.887
332.456
333.163
333.826
334.361
334.794
335.139
335.453
335.521
335.63
335.546
335.307
335.023
334.66
334.117
333.61
332.946
332.132
331.409
330.776
326.276
326.642
327.14
327.737
328.183
328.595
328.801
329.089
329.14
329.186
329.148
328.971
328.749
328.434
328.022
327.531
327.04
326.342
325.699
325.222
320.433
320.768
321.137
321.612
321.883
322.235
322.455
322.603
322.768
322.72
322.655
322.57
322.4
322.144
321.781
321.52
321.06
320.464
320.057
319.666
314.636
314.847
315.207
315.49
315.697
315.883
315.995
316.204
316.209
316.177
316.297
316.084
315.947
315.9
315.658
315.318
315.026
314.714
314.387
313.983
308.759
308.876
309.093
309.293
309.422
309.547
309.644
309.658
309.716
309.814
309.716
309.674
309.623
309.523
309.385
309.222
308.988
308.868
308.641
308.447
302.952
302.94
303.077
303.078
303.138
303.128
303.303
303.268
303.252
303.235
303.25
303.267
303.278
303.2
303.077
303.067
303.051
302.959
302.883
302.784
344.274
345.165
346.238
347.067
347.823
348.445
348.936
349.272
349.432
349.498
349.409
349.162
348.758
348.189
347.598
346.724
345.833
344.724
343.604
342.62
338.468
339.239
340.058
340.897
341.514
342.097
342.434
342.774
342.877
342.903
342.846
342.632
342.318
341.838
341.214
340.481
339.701
338.892
337.802
337.05
332.682
333.218
333.997
334.582
335.191
335.589
336.012
336.214
336.379
336.359
336.335
336.167
335.847
335.469
334.858
334.361
333.599
332.869
332.086
331.481
326.773
327.257
327.83
328.364
328.79
329.196
329.408
329.664
329.807
329.791
329.69
329.575
329.319
329.075
328.6
328.18
327.551
326.958
326.322
325.757
320.801
321.229
321.655
322.091
322.406
322.77
323.016
323.144
323.216
323.196
323.171
323.067
322.843
322.568
322.264
321.929
321.453
320.975
320.464
320.053
314.938
315.175
315.516
315.819
316.038
316.222
316.432
316.566
316.514
316.58
316.604
316.414
316.41
316.221
315.887
315.67
315.333
315.012
314.616
314.332
309.015
309.084
309.327
309.569
309.632
309.761
309.848
309.918
309.99
310.001
310.019
309.912
309.786
309.695
309.618
309.384
309.256
309.02
308.868
308.682
303.021
303.105
303.094
303.186
303.242
303.233
303.297
303.295
303.359
303.354
303.358
303.319
303.246
303.252
303.207
303.189
303.109
303.078
302.932
302.895
345.436
346.272
347.303
348.208
349.036
349.626
350.105
350.439
350.622
350.724
350.599
350.419
349.896
349.288
348.715
347.849
346.9
345.783
344.607
343.652
339.357
340.124
341.034
341.826
342.488
343.167
343.554
343.808
343.984
343.989
343.929
343.641
343.33
342.862
342.282
341.548
340.67
339.746
338.776
337.954
333.388
334.052
334.793
335.395
336.05
336.461
336.767
337.073
337.218
337.248
337.194
337.034
336.731
336.307
335.75
335.155
334.457
333.699
332.851
332.151
327.357
327.892
328.403
329.056
329.529
329.915
330.227
330.37
330.471
330.604
330.382
330.316
330.016
329.787
329.304
328.814
328.291
327.575
326.886
326.35
321.328
321.742
322.173
322.59
322.955
323.306
323.462
323.68
323.747
323.762
323.726
323.589
323.366
323.147
322.832
322.467
321.982
321.445
321.037
320.544
315.221
315.562
315.842
316.174
316.461
316.623
316.873
316.859
317.002
316.995
317.003
316.867
316.779
316.512
316.331
315.911
315.712
315.369
314.941
314.697
309.142
309.281
309.515
309.679
309.872
310.022
310.174
310.162
310.157
310.212
310.158
310.147
310.134
309.955
309.827
309.556
309.44
309.237
308.963
308.801
303.011
303.102
303.186
303.244
303.264
303.307
303.341
303.408
303.45
303.397
303.395
303.38
303.388
303.381
303.36
303.21
303.132
303.093
303.076
303.036
346.454
347.402
348.381
349.329
350.171
350.777
351.311
351.67
351.879
351.932
351.831
351.544
351.124
350.508
349.874
348.93
347.957
346.931
345.713
344.706
340.337
341.09
342.017
342.771
343.525
344.098
344.552
344.803
344.974
345.051
344.997
344.691
344.274
343.884
343.213
342.476
341.643
340.695
339.699
338.839
334.174
334.86
335.621
336.245
336.862
337.286
337.664
338.015
338.157
338.085
338.094
337.867
337.565
337.123
336.695
335.966
335.299
334.443
333.707
332.958
328.017
328.54
329.194
329.661
330.181
330.606
330.853
331.069
331.178
331.242
331.209
331.023
330.765
330.405
329.969
329.466
328.843
328.217
327.584
326.997
321.832
322.154
322.624
323.134
323.523
323.754
324.116
324.186
324.332
324.282
324.244
324.167
323.932
323.706
323.354
322.952
322.46
321.929
321.47
320.89
315.628
315.862
316.221
316.515
316.795
317.021
317.189
317.314
317.364
317.419
317.41
317.301
317.138
316.896
316.705
316.361
316.122
315.724
315.383
315.002
309.337
309.588
309.723
309.923
310.095
310.269
310.363
310.346
310.425
310.46
310.401
310.398
310.24
310.104
310.045
309.866
309.646
309.434
309.219
309.037
303.096
303.175
303.214
303.362
303.393
303.425
303.42
303.541
303.517
303.467
303.431
303.437
303.444
303.401
303.31
303.383
303.202
303.153
303.107
303.005
347.452
348.461
349.503
350.428
351.283
351.989
352.465
352.803
353.017
353.033
352.926
352.711
352.201
351.695
350.95
350.063
349.082
347.973
346.788
345.677
341.205
341.978
342.876
343.787
344.443
345.061
345.48
345.85
345.971
346.044
345.99
345.7
345.346
344.812
344.201
343.425
342.68
341.613
340.63
339.642
334.921
335.673
336.385
337.076
337.644
338.217
338.602
338.858
338.98
339.026
338.987
338.772
338.377
338.011
337.477
336.86
336.143
335.35
334.438
333.662
328.644
329.129
329.74
330.387
330.919
331.299
331.597
331.798
331.913
331.937
331.803
331.779
331.429
331.107
330.632
330.183
329.456
328.914
328.115
327.544
322.22
322.67
323.197
323.648
324.013
324.335
324.529
324.77
324.865
324.901
324.771
324.662
324.443
324.201
323.895
323.437
322.991
322.457
321.953
321.374
315.908
316.219
316.532
316.874
317.193
317.403
317.603
317.724
317.691
317.816
317.833
317.663
317.473
317.305
317.056
316.825
316.483
316.076
315.65
315.41
309.632
309.758
309.998
310.188
310.304
310.459
310.553
310.553
310.662
310.651
310.612
310.657
310.516
310.387
310.245
310.066
309.831
309.658
309.425
309.2
303.181
303.278
303.342
303.453
303.41
303.492
303.565
303.556
303.592
303.579
303.564
303.474
303.49
303.502
303.429
303.413
303.321
303.221
303.12
303.143
348.481
349.457
350.51
351.53
352.337
352.958
353.508
353.963
354.167
354.083
354.012
353.764
353.338
352.778
351.979
351.094
350.087
348.932
347.679
346.655
342.078
342.896
343.79
344.657
345.417
346.017
346.474
346.799
346.999
347.028
346.874
346.643
346.301
345.699
345.111
344.373
343.434
342.441
341.426
340.484
335.689
336.313
337.134
337.841
338.472
339.079
339.391
339.673
339.805
339.891
339.694
339.53
339.19
338.709
338.267
337.569
336.797
335.984
335.105
334.302
329.236
329.742
330.329
330.954
331.47
331.878
332.246
332.398
332.553
332.601
332.518
332.418
332.092
331.778
331.33
330.721
330.13
329.426
328.71
328.173
322.769
323.187
323.591
324.091
324.548
324.854
325.103
325.308
325.369
325.408
325.345
325.191
324.94
324.681
324.376
323.944
323.342
322.92
322.381
321.989
316.21
316.596
316.893
317.229
317.489
317.749
317.915
318.08
318.141
318.156
318.12
318.013
317.901
317.697
317.406
317.207
316.721
316.405
316.081
315.63
309.735
309.943
310.214
310.35
310.592
310.662
310.779
310.847
310.902
310.851
310.854
310.897
310.768
310.619
310.396
310.283
310.094
309.842
309.611
309.307
303.316
303.294
303.381
303.48
303.558
303.606
303.622
303.701
303.594
303.657
303.685
303.65
303.588
303.57
303.482
303.423
303.427
303.266
303.187
303.127
349.355
350.437
351.475
352.442
353.352
354.054
354.593
354.867
355.181
355.226
355.122
354.817
354.351
353.733
352.977
352.081
351.025
349.909
348.643
347.474
342.901
343.745
344.701
345.573
346.275
346.923
347.383
347.649
347.94
347.893
347.801
347.517
347.175
346.572
346.005
345.148
344.22
343.306
342.175
341.26
336.335
337.037
337.822
338.545
339.121
339.718
340.166
340.397
340.506
340.576
340.487
340.297
339.969
339.435
338.949
338.253
337.477
336.63
335.811
334.997
329.782
330.347
330.956
331.634
332.131
332.525
332.846
333.104
333.2
333.235
333.221
333.019
332.7
332.396
331.88
331.334
330.724
329.979
329.263
328.725
323.229
323.62
324.065
324.578
324.975
325.299
325.536
325.784
325.796
325.844
325.797
325.63
325.452
325.177
324.867
324.409
323.984
323.438
322.767
322.325
316.528
316.886
317.235
317.568
317.848
318.06
318.303
318.462
318.468
318.559
318.423
318.344
318.243
318.052
317.693
317.426
317.152
316.766
316.299
315.969
309.988
310.108
310.351
310.572
310.749
310.854
311.04
311.109
311.175
311.114
311.096
311.053
310.933
310.885
310.687
310.444
310.338
310.06
309.78
309.624
303.302
303.421
303.435
303.46
303.603
303.728
303.683
303.749
303.678
303.713
303.779
303.761
303.642
303.567
303.572
303.501
303.485
303.43
303.237
303.234
350.217
351.327
352.388
353.384
354.288
354.964
355.533
355.915
356.114
356.131
356.079
355.767
355.268
354.713
353.877
352.965
351.914
350.752
349.509
348.372
343.597
344.493
345.373
346.337
347.064
347.704
348.132
348.518
348.696
348.724
348.606
348.409
347.933
347.519
346.849
345.96
345.054
343.963
342.95
341.974
336.97
337.659
338.501
339.218
339.85
340.371
340.82
341.07
341.254
341.275
341.157
340.993
340.681
340.19
339.584
338.984
338.117
337.273
336.353
335.585
330.27
330.853
331.53
332.097
332.623
333.094
333.368
333.633
333.85
333.763
333.695
333.565
333.194
332.93
332.49
331.957
331.125
330.486
329.815
329.115
323.583
324.059
324.55
324.959
325.412
325.786
325.961
326.196
326.248
326.291
326.259
326.1
325.875
325.619
325.203
324.908
324.393
323.783
323.178
322.659
316.891
317.185
317.486
317.898
318.103
318.403
318.623
318.739
318.704
318.843
318.772
318.7
318.55
318.351
318.071
317.751
317.425
316.964
316.6
316.269
310.065
310.392
310.53
310.692
310.966
311.08
311.168
311.266
311.265
311.247
311.317
311.21
311.137
310.937
310.817
310.692
310.486
310.199
309.936
309.727
303.414
303.454
303.548
303.62
303.628
303.731
303.755
303.868
303.809
303.822
303.785
303.751
303.769
303.707
303.612
303.593
303.567
303.354
303.315
303.247
350.987
352.085
353.213
354.202
355.14
355.861
356.399
356.789
356.985
356.972
356.927
356.611
356.183
355.583
354.78
353.786
352.703
351.576
350.241
349.103
344.313
345.134
346.118
346.969
347.779
348.423
348.972
349.318
349.466
349.584
349.362
349.154
348.72
348.229
347.496
346.625
345.737
344.676
343.51
342.66
337.488
338.226
339.095
339.833
340.523
341.055
341.396
341.779
341.806
341.921
341.878
341.62
341.321
340.819
340.238
339.526
338.706
337.866
336.889
336.178
330.778
331.33
331.94
332.579
333.131
333.607
333.938
334.157
334.316
334.337
334.295
334.123
333.733
333.45
332.873
332.438
331.739
330.979
330.246
329.63
323.992
324.382
324.857
325.398
325.741
326.109
326.366
326.581
326.66
326.672
326.681
326.545
326.279
326.002
325.606
325.189
324.678
324.086
323.545
323.066
317.183
317.405
317.812
318.141
318.499
318.667
318.91
319.033
319.129
319.117
319.071
319
318.842
318.627
318.381
318.011
317.715
317.315
316.875
316.537
310.339
310.522
310.625
310.918
311.014
311.257
311.297
311.439
311.524
311.45
311.484
311.454
311.281
311.108
311.005
310.829
310.576
310.354
310.103
309.922
303.419
303.489
303.594
303.614
303.662
303.789
303.742
303.785
303.801
303.84
303.864
303.853
303.788
303.667
303.767
303.592
303.52
303.454
303.449
303.282
351.708
352.745
353.928
354.995
355.896
356.599
357.258
357.602
357.794
357.868
357.683
357.402
356.927
356.252
355.543
354.601
353.443
352.222
350.944
349.776
344.941
345.826
346.792
347.652
348.501
349.166
349.615
349.935
350.098
350.12
350.031
349.859
349.413
348.875
348.138
347.374
346.41
345.36
344.195
343.244
338.033
338.784
339.573
340.378
341.004
341.627
342.088
342.292
342.436
342.544
342.442
342.173
341.874
341.404
340.775
340.119
339.267
338.332
337.458
336.739
331.177
331.742
332.45
333.055
333.634
334.074
334.379
334.667
334.781
334.837
334.802
334.544
334.305
333.895
333.354
332.825
332.235
331.413
330.679
329.994
324.266
324.698
325.221
325.761
326.143
326.552
326.859
326.891
327.061
327.096
326.997
326.911
326.701
326.409
326.006
325.564
325.046
324.503
323.871
323.418
317.367
317.656
318.148
318.428
318.71
318.985
319.168
319.305
319.346
319.344
319.373
319.208
319.051
318.827
318.638
318.234
317.944
317.501
317.013
316.682
310.379
310.565
310.778
311.007
311.227
311.416
311.517
311.666
311.595
311.568
311.666
311.525
311.468
311.313
311.136
310.998
310.796
310.521
310.237
310.064
303.503
303.579
303.614
303.75
303.8
303.812
303.813
303.874
303.897
303.915
303.85
303.901
303.842
303.725
303.74
303.699
303.618
303.485
303.367
303.407
352.34
353.39
354.518
355.617
356.575
357.344
357.919
358.299
358.575
358.521
358.431
358.229
357.639
356.956
356.228
355.238
354.087
352.909
351.497
350.432
345.486
346.327
347.314
348.255
349.03
349.699
350.222
350.566
350.722
350.812
350.745
350.425
349.983
349.418
348.783
347.885
346.94
345.804
344.78
343.764
338.55
339.26
340.022
340.885
341.584
342.065
342.523
342.861
343.028
342.987
342.912
342.704
342.384
341.837
341.287
340.506
339.74
338.77
337.853
337.085
331.547
332.115
332.829
333.46
334.046
334.577
334.803
335.071
335.191
335.244
335.185
334.988
334.758
334.297
333.905
333.253
332.443
331.871
331.021
330.361
324.593
325.022
325.556
326.093
326.514
326.817
327.14
327.317
327.383
327.451
327.38
327.242
327.038
326.786
326.36
325.876
325.356
324.777
324.129
323.64
317.431
317.884
318.222
318.604
318.982
319.214
319.42
319.563
319.579
319.607
319.572
319.465
319.279
319.131
318.82
318.459
318.129
317.691
317.249
316.916
310.583
310.781
310.944
311.264
311.339
311.578
311.599
311.752
311.77
311.756
311.738
311.666
311.68
311.441
311.347
311.118
310.914
310.672
310.368
310.16
303.494
303.604
303.652
303.752
303.822
303.866
303.939
303.956
304.039
303.957
303.939
303.919
303.882
303.839
303.86
303.738
303.606
303.624
303.457
303.382
352.89
353.989
355.157
356.21
357.172
357.957
358.44
358.936
359.23
359.188
359.084
358.723
358.238
357.58
356.715
355.845
354.666
353.368
352.115
350.856
345.898
346.764
347.829
348.709
349.596
350.262
350.733
351.119
351.323
351.402
351.255
350.987
350.534
349.928
349.228
348.436
347.445
346.32
345.149
344.24
338.928
339.608
340.487
341.32
341.928
342.496
342.966
343.298
343.526
343.553
343.386
343.165
342.778
342.319
341.732
340.948
340.142
339.171
338.254
337.356
331.792
332.458
333.207
333.814
334.449
334.866
335.243
335.447
335.551
335.568
335.438
335.307
335.061
334.696
334.086
333.573
332.841
332.185
331.343
330.648
324.81
325.262
325.731
326.284
326.715
327.077
327.411
327.55
327.645
327.708
327.592
327.48
327.341
327.033
326.517
326.165
325.523
325.049
324.359
323.84
317.678
318.056
318.472
318.84
319.11
319.416
319.627
319.759
319.793
319.786
319.73
319.691
319.476
319.332
319.006
318.762
318.316
317.838
317.449
317.1
310.666
310.892
311.074
311.356
311.501
311.609
311.723
311.843
311.892
311.884
311.855
311.849
311.758
311.541
311.371
311.182
311
310.793
310.49
310.273
303.55
303.648
303.742
303.775
303.884
303.947
303.942
304
303.968
303.919
304.102
303.962
303.897
303.885
303.809
303.74
303.647
303.626
303.506
303.388
353.264
354.499
355.612
356.695
357.69
358.393
359.027
359.402
359.642
359.695
359.596
359.263
358.776
358.125
357.278
356.36
355.116
353.823
352.583
351.316
346.274
347.213
348.317
349.127
349.965
350.602
351.175
351.574
351.73
351.801
351.698
351.4
351.037
350.399
349.731
348.866
347.868
346.683
345.564
344.529
339.212
339.992
340.818
341.611
342.299
342.88
343.333
343.634
343.873
343.875
343.757
343.527
343.148
342.657
342.135
341.38
340.549
339.542
338.653
337.739
332.168
332.758
333.413
334.104
334.668
335.181
335.448
335.725
335.958
335.889
335.847
335.641
335.355
334.968
334.447
333.827
333.141
332.426
331.697
330.969
324.951
325.48
325.992
326.555
326.95
327.333
327.705
327.765
327.956
328.009
327.895
327.752
327.576
327.274
326.783
326.368
325.855
325.184
324.653
324.107
317.863
318.208
318.637
318.988
319.28
319.572
319.863
319.946
319.965
319.988
319.899
319.828
319.698
319.433
319.175
318.886
318.527
318.005
317.578
317.249
310.746
310.956
311.192
311.411
311.585
311.785
311.841
311.918
311.979
311.999
311.978
311.93
311.802
311.735
311.469
311.327
311.116
310.831
310.606
310.342
303.563
303.722
303.716
303.86
303.859
303.939
303.998
304.005
304.071
304.073
303.932
303.979
303.968
303.946
303.846
303.845
303.674
303.684
303.607
303.498
353.701
354.741
355.961
357.083
357.995
358.832
359.478
359.861
360.118
360.134
360.025
359.673
359.181
358.49
357.67
356.719
355.572
354.246
352.876
351.637
346.59
347.527
348.558
349.58
350.355
351.016
351.552
351.882
352.096
352.122
352.047
351.759
351.367
350.755
349.985
349.184
348.242
347.079
345.891
344.851
339.521
340.24
341.1
341.945
342.584
343.116
343.708
343.981
344.12
344.165
344.06
343.869
343.556
342.956
342.391
341.634
340.754
339.872
338.909
338.044
332.375
332.894
333.684
334.369
334.882
335.391
335.722
335.983
336.218
336.176
336.121
335.894
335.627
335.233
334.706
334.047
333.433
332.696
331.892
331.162
325.178
325.603
326.282
326.727
327.191
327.524
327.809
328.033
328.096
328.171
328.084
327.909
327.717
327.431
326.986
326.597
325.943
325.451
324.75
324.245
317.958
318.312
318.704
319.073
319.437
319.651
319.835
320.066
320.093
320.189
320.073
319.921
319.802
319.55
319.319
318.942
318.582
318.227
317.787
317.32
310.827
311.026
311.296
311.435
311.65
311.855
311.989
312
312.091
312.123
311.969
311.98
311.827
311.77
311.571
311.384
311.147
310.965
310.689
310.449
303.675
303.668
303.781
303.817
303.907
303.933
304.005
304.041
304.013
303.984
304.072
304.065
303.969
303.906
303.849
303.764
303.719
303.585
303.536
303.423
353.931
355.07
356.236
357.321
358.312
359.143
359.635
360.171
360.388
360.446
360.329
359.969
359.473
358.864
357.989
356.958
355.777
354.529
353.136
351.921
346.852
347.784
348.794
349.756
350.6
351.246
351.828
352.256
352.334
352.424
352.289
352.009
351.62
351.021
350.347
349.473
348.43
347.321
346.199
345.132
339.638
340.447
341.335
342.175
342.91
343.433
343.834
344.15
344.328
344.377
344.323
344.045
343.678
343.2
342.617
341.882
341.045
340.083
339.126
338.256
332.552
333.119
333.83
334.502
335.109
335.589
335.851
336.11
336.385
336.333
336.266
336.055
335.791
335.373
334.866
334.273
333.564
332.773
332.032
331.253
325.282
325.86
326.383
326.805
327.288
327.62
327.899
328.154
328.275
328.277
328.241
328.04
327.853
327.522
327.139
326.67
326.161
325.504
324.934
324.404
318.105
318.439
318.967
319.185
319.474
319.809
320.038
320.083
320.257
320.211
320.207
320.106
319.91
319.63
319.425
319.095
318.728
318.237
317.784
317.45
310.818
311.09
311.241
311.482
311.688
311.89
311.976
312.073
312.154
312.174
312.148
312.055
311.991
311.85
311.67
311.47
311.252
310.952
310.776
310.472
303.644
303.689
303.764
303.848
303.994
304.038
304.065
304.027
304.013
304.125
304.095
304.067
303.979
303.983
303.912
303.748
303.829
303.658
303.544
303.488
354.135
355.265
356.456
357.62
358.555
359.315
359.922
360.318
360.644
360.671
360.507
360.186
359.766
359.024
358.171
357.199
356.035
354.748
353.321
352.13
347.011
347.915
348.981
349.983
350.799
351.463
352.052
352.278
352.626
352.637
352.493
352.244
351.701
351.185
350.441
349.603
348.568
347.568
346.205
345.206
339.886
340.558
341.41
342.284
342.995
343.622
344.021
344.309
344.427
344.57
344.421
344.213
343.854
343.371
342.767
342.011
341.15
340.231
339.234
338.309
332.57
333.179
333.966
334.68
335.26
335.699
336.002
336.274
336.437
336.483
336.39
336.184
335.891
335.484
334.927
334.423
333.72
332.935
332.136
331.405
325.432
325.902
326.406
326.96
327.456
327.85
328.069
328.251
328.372
328.357
328.32
328.16
327.926
327.675
327.201
326.765
326.217
325.604
325.008
324.456
318.17
318.498
318.945
319.349
319.639
319.843
320.095
320.182
320.268
320.305
320.216
320.12
320.018
319.762
319.464
319.218
318.714
318.393
317.857
317.469
310.888
311.097
311.352
311.557
311.791
311.913
312.039
312.123
312.219
312.214
312.1
312.081
312.038
311.891
311.718
311.486
311.258
310.985
310.653
310.497
303.646
303.782
303.779
303.835
303.981
304.017
304.012
304.101
304.103
304.038
304.042
304.036
303.976
303.981
303.905
303.812
303.889
303.673
303.618
303.398
354.261
355.344
356.624
357.633
358.621
359.481
359.97
360.492
360.753
360.815
360.696
360.359
359.811
359.187
358.269
357.364
356.144
354.856
353.432
352.158
347.03
347.985
349.054
350.058
350.823
351.551
352.138
352.436
352.694
352.705
352.595
352.256
351.925
351.311
350.558
349.618
348.727
347.541
346.344
345.355
339.929
340.674
341.616
342.356
343.074
343.649
344.07
344.363
344.602
344.603
344.571
344.299
344.04
343.415
342.725
342.058
341.196
340.289
339.269
338.43
332.701
333.36
334.038
334.68
335.284
335.811
336.153
336.308
336.489
336.532
336.499
336.295
335.962
335.514
335.038
334.498
333.779
333.059
332.202
331.487
325.414
325.908
326.461
327.056
327.403
327.865
328.091
328.315
328.418
328.398
328.387
328.229
327.992
327.723
327.293
326.862
326.277
325.661
325.056
324.515
318.169
318.481
318.918
319.31
319.646
319.914
320.077
320.257
320.323
320.325
320.325
320.237
320.012
319.758
319.531
319.195
318.732
318.33
317.891
317.539
310.945
311.041
311.386
311.672
311.752
311.953
312.096
312.169
312.168
312.198
312.26
312.133
311.998
311.954
311.674
311.503
311.317
311.076
310.778
310.492
303.625
303.758
303.869
303.912
303.932
304.013
304.081
304.103
304.143
304.121
304.035
304.161
304.074
303.987
303.984
303.833
303.778
303.701
303.567
303.475
354.26
355.403
356.586
357.679
358.733
359.534
360.132
360.53
360.722
360.839
360.652
360.351
359.82
359.217
358.356
357.345
356.159
354.826
353.536
352.222
347.072
347.982
349.05
350.04
350.931
351.547
352.099
352.505
352.696
352.791
352.622
352.341
351.882
351.283
350.595
349.736
348.772
347.591
346.382
345.345
339.89
340.68
341.633
342.359
343.132
343.687
344.142
344.477
344.628
344.705
344.581
344.345
343.993
343.484
342.824
342.116
341.248
340.305
339.285
338.448
332.723
333.317
334
334.681
335.313
335.782
336.14
336.416
336.54
336.638
336.492
336.313
336.03
335.602
335.091
334.381
333.82
333.036
332.213
331.511
325.481
325.97
326.483
326.97
327.385
327.898
328.21
328.342
328.398
328.457
328.394
328.245
328.018
327.669
327.277
326.799
326.351
325.709
325.088
324.504
318.269
318.518
318.943
319.297
319.59
319.861
320.092
320.245
320.332
320.332
320.332
320.245
320.079
319.771
319.511
319.15
318.837
318.379
317.905
317.542
310.942
311.152
311.388
311.613
311.765
311.981
312.114
312.176
312.147
312.225
312.226
312.205
312.033
311.933
311.796
311.572
311.362
311.029
310.769
310.549
303.625
303.664
303.844
303.884
304.024
304.005
304.013
304.037
304.05
304.104
304.047
304.1
304.053
303.989
303.928
303.982
303.817
303.725
303.624
303.54
354.227
355.354
356.497
357.666
358.696
359.434
360.018
360.565
360.664
360.811
360.646
360.33
359.773
359.174
358.341
357.27
356.102
354.892
353.456
352.201
347.033
348.084
349.056
350.001
350.866
351.525
352.102
352.481
352.643
352.78
352.602
352.308
351.991
351.325
350.595
349.755
348.681
347.579
346.412
345.334
339.85
340.635
341.579
342.376
343.111
343.63
344.14
344.491
344.603
344.712
344.485
344.289
343.949
343.494
342.85
342.156
341.192
340.32
339.285
338.419
332.715
333.317
333.971
334.706
335.277
335.842
336.154
336.442
336.603
336.629
336.405
336.269
336.013
335.608
335.122
334.448
333.787
333.097
332.2
331.453
325.484
325.923
326.582
327.052
327.435
327.864
328.063
328.274
328.4
328.496
328.404
328.281
328.015
327.738
327.323
326.864
326.296
325.677
325.103
324.514
318.178
318.512
318.928
319.26
319.622
319.84
320.115
320.271
320.296
320.372
320.224
320.197
320.075
319.846
319.512
319.158
318.779
318.37
317.911
317.576
310.966
311.126
311.341
311.572
311.841
311.918
312.066
312.191
312.188
312.223
312.208
312.111
312.035
311.838
311.735
311.533
311.304
311.024
310.76
310.592
303.666
303.709
303.847
303.906
303.916
304.074
304.067
304.06
304.121
304.08
304.091
304.054
304.039
304.047
303.924
303.908
303.817
303.665
303.67
303.483
)
;

boundaryField
{
    hotSide
    {
        type            fixedGradient;
        gradient        nonuniform List<scalar> 
400
(
321.511
322.87
325.591
329.677
335.133
341.965
350.181
359.788
370.794
383.208
397.037
412.289
428.971
447.088
466.647
487.651
510.105
534.011
559.372
586.191
323.738
325.08
327.767
331.802
337.194
343.949
352.078
361.591
372.498
384.81
398.537
413.687
430.268
448.289
467.755
488.672
511.043
534.872
560.161
586.913
326.149
327.47
330.116
334.091
339.406
346.071
354.099
363.503
374.296
386.491
400.101
415.136
431.606
449.52
468.885
489.706
511.988
535.735
560.948
587.63
328.704
330
332.597
336.503
341.73
348.292
356.205
365.485
376.15
388.215
401.695
416.604
432.954
450.753
470.009
490.73
512.919
536.579
561.714
588.325
331.33
332.599
335.142
338.97
344.099
350.546
358.332
367.477
378.003
389.928
403.271
418.047
434.27
451.949
471.095
491.712
513.807
537.382
562.439
588.978
333.918
335.158
337.643
341.389
346.414
352.74
360.392
369.397
379.779
391.562
404.765
419.407
435.503
453.065
472.101
492.618
514.622
538.114
563.096
589.569
336.321
337.531
339.959
343.622
348.544
354.751
362.274
371.142
381.385
393.031
406.101
420.618
436.595
454.047
472.983
493.409
515.33
538.747
563.663
590.076
338.36
339.543
341.92
345.509
350.339
356.44
363.847
372.595
382.718
394.244
407.2
421.608
437.485
454.844
473.695
494.045
515.897
539.253
564.114
590.478
339.852
341.015
343.352
346.885
351.645
357.665
364.985
373.643
383.675
395.113
407.984
422.312
438.116
455.407
474.197
494.491
516.294
539.606
564.428
590.758
340.643
341.795
344.11
347.613
352.334
358.311
365.584
374.193
384.176
395.567
408.393
422.679
438.443
455.699
474.456
494.722
516.498
539.788
564.589
590.901
340.643
341.795
344.11
347.613
352.334
358.311
365.584
374.193
384.176
395.567
408.393
422.679
438.443
455.699
474.456
494.722
516.498
539.788
564.589
590.901
339.852
341.015
343.352
346.885
351.645
357.665
364.985
373.643
383.675
395.113
407.984
422.312
438.116
455.407
474.197
494.491
516.294
539.606
564.428
590.758
338.36
339.543
341.92
345.509
350.339
356.44
363.847
372.595
382.718
394.244
407.2
421.608
437.485
454.844
473.695
494.045
515.897
539.253
564.114
590.478
336.321
337.531
339.959
343.622
348.544
354.751
362.274
371.142
381.385
393.031
406.101
420.618
436.595
454.047
472.983
493.409
515.33
538.747
563.663
590.076
333.918
335.158
337.643
341.389
346.414
352.74
360.392
369.397
379.779
391.562
404.765
419.407
435.503
453.065
472.101
492.618
514.622
538.114
563.096
589.569
331.33
332.599
335.142
338.97
344.099
350.546
358.332
367.477
378.003
389.928
403.271
418.047
434.27
451.949
471.095
491.712
513.807
537.382
562.439
588.978
328.704
330
332.597
336.503
341.73
348.292
356.205
365.485
376.15
388.215
401.695
416.604
432.954
450.753
470.009
490.73
512.919
536.579
561.714
588.325
326.149
327.47
330.116
334.091
339.406
346.071
354.099
363.503
374.296
386.491
400.101
415.136
431.606
449.52
468.885
489.706
511.988
535.735
560.948
587.63
323.738
325.08
327.767
331.802
337.194
343.949
352.078
361.591
372.498
384.81
398.537
413.687
430.268
448.289
467.755
488.672
511.043
534.872
560.161
586.913
321.511
322.87
325.591
329.677
335.133
341.965
350.181
359.788
370.794
383.208
397.037
412.289
428.971
447.088
466.647
487.651
510.105
534.011
559.372
586.191
)
;
    }
    coldSide
    {
        type            mixed;
        refValue        uniform 300;
        refGradient     uniform 0;
        valueFraction   uniform 0.991591;
        source          uniform 0;
        value           nonuniform List<scalar> 
400
(
300.024
300.025
300.025
300.025
300.026
300.027
300.028
300.028
300.029
300.029
300.029
300.029
300.03
300.03
300.031
300.031
300.031
300.03
300.03
300.031
300.025
300.025
300.026
300.026
300.027
300.028
300.028
300.029
300.029
300.029
300.03
300.03
300.031
300.031
300.031
300.031
300.032
300.032
300.031
300.031
300.026