/*--------------------------------*- C++ -*----------------------------------*\
| =========                 |                                                 |
| \\      /  F ield         | OpenFOAM: The Open Source CFD Toolbox           |
|  \\    /   O peration     | Version:  2212                                  |
|   \\  /    A nd           | Website:  www.openfoam.com                      |
|    \\/     M anipulation  |                                                 |
\*---------------------------------------------------------------------------*/
FoamFile
{
    version     2.0;
    format      ascii;
    arch        "LSB;label=32;scalar=64";
    class       volScalarField;
    location    "0";
    object      stateMean;
}
// * * * * * * * * * * * * * * * * * * * * * * * * * * * * * * * * * * * * * //

dimensions      [0 0 0 1 0 0 0];

internalField   nonuniform List<scalar> 
3200
(
348.286
347.177
346.345
345.997
346.119
346.463
346.986
347.489
347.783
347.929
347.864
347.232
346.527
345.612
344.519
343.367
342.659
342.331
342.687
343.406
341.9
340.954
340.271
340.006
340.034
340.422
340.831
341.269
341.576
341.757
341.531
341.054
340.478
339.606
338.664
337.736
337.076
336.873
337.143
337.801
335.546
334.723
334.144
333.847
333.969
334.288
334.682
335.008
335.331
335.316
335.271
334.968
334.322
333.6
332.798
331.981
331.46
331.435
331.505
332.055
329.074
328.474
327.952
327.797
327.883
328.013
328.401
328.724
328.87
329.073
328.893
328.661
328.212
327.615
326.988
326.297
325.852
325.654
325.861
326.323
322.632
322.166
321.726
321.739
321.666
321.942
322.12
322.423
322.594
322.647
322.528
322.253
321.976
321.552
320.998
320.51
320.163
320.127
320.2
320.554
316.2
315.851
315.573
315.462
315.591
315.655
315.928
316.029
316.088
316.11
316.136
315.974
315.7
315.405
315.087
314.625
314.482
314.385
314.495
314.636
309.785
309.538
309.453
309.289
309.27
309.393
309.465
309.611
309.669
309.773
309.654
309.624
309.506
309.277
308.98
308.781
308.674
308.716
308.706
308.796
303.222
303.259
303.141
303.082
303.095
303.1
303.135
303.254
303.265
303.247
303.285
303.238
303.162
303.05
302.982
302.957
302.916
302.87
302.879
302.968
348.333
347.26
346.439
346.2
346.253
346.708
347.314
347.901
348.26
348.4
348.199
347.742
346.908
345.934
344.752
343.655
342.823
342.452
342.666
343.375
342.004
341.035
340.306
340.136
340.229
340.579
341.038
341.626
341.942
342.091
342.044
341.548
340.852
339.878
338.905
337.978
337.232
337.007
337.289
337.887
335.515
334.872
334.219
334.008
334.121
334.446
334.83
335.242
335.609
335.678
335.604
335.207
334.709
333.93
333.036
332.25
331.645
331.401
331.603
332.096
329.168
328.526
328.104
327.839
328.007
328.246
328.583
328.917
329.2
329.249
329.158
328.898
328.349
327.749
327.112
326.445
325.994
325.889
325.963
326.268
322.661
322.286
321.861
321.755
321.826
321.924
322.218
322.479
322.739
322.826
322.665
322.481
322.195
321.623
321.112
320.561
320.229
320.119
320.257
320.521
316.264
315.89
315.593
315.601
315.588
315.772
315.907
316.164
316.233
316.291
316.255
316.086
315.874
315.474
315.089
314.842
314.508
314.379
314.51
314.616
309.728
309.61
309.397
309.423
309.37
309.458
309.546
309.662
309.726
309.778
309.748
309.699
309.551
309.297
309.176
308.912
308.646
308.721
308.72
308.784
303.235
303.179
303.186
303.223
303.198
303.154
303.174
303.233
303.263
303.28
303.174
303.347
303.121
303.172
302.982
303.017
302.948
302.879
302.895
302.993
348.554
347.497
346.698
346.436
346.701
347.142
347.907
348.403
348.871
349.202
348.991
348.479
347.676
346.633
345.428
344.189
343.189
342.801
342.999
343.871
342.175
341.253
340.623
340.395
340.568
340.994
341.469
342.179
342.479
342.697
342.572
342.141
341.445
340.583
339.39
338.352
337.617
337.221
337.461
338.11
335.736
335
334.444
334.224
334.34
334.723
335.211
335.663
336.001
336.193
336.093
335.754
335.1
334.344
333.526
332.588
331.929
331.755
331.791
332.341
329.232
328.608
328.228
328.07
328.134
328.523
328.923
329.186
329.54
329.697
329.605
329.342
328.884
328.103
327.492
326.804
326.264
326.014
326.086
326.484
322.748
322.285
321.96
321.859
321.988
322.199
322.428
322.718
322.943
323.051
323.071
322.869
322.482
321.901
321.372
320.815
320.395
320.288
320.328
320.585
316.29
315.959
315.664
315.674
315.672
315.783
316.108
316.314
316.39
316.514
316.437
316.351
316.055
315.694
315.296
314.917
314.631
314.581
314.619
314.799
309.748
309.541
309.452
309.39
309.46
309.559
309.676
309.78
309.875
309.952
309.947
309.745
309.634
309.421
309.156
308.939
308.739
308.745
308.801
308.811
303.217
303.177
303.169
303.139
303.081
303.117
303.255
303.294
303.27
303.297
303.32
303.276
303.202
303.155
303.065
303.025
302.982
302.931
302.977
302.997
348.828
347.883
347.164
346.97
347.226
347.779
348.43
349.226
349.713
350.038
349.955
349.351
348.587
347.418
346.081
344.787
343.873
343.383
343.514
344.216
342.482
341.651
341.005
340.846
341.007
341.555
342.027
342.723
343.249
343.453
343.42
342.946
342.238
341.212
340.027
339.012
338.207
337.745
337.989
338.468
336.066
335.306
334.753
334.623
334.783
335.169
335.715
336.222
336.568
336.705
336.706
336.502
335.737
334.873
334.024
333.11
332.382
332.131
332.283
332.659
329.46
328.888
328.493
328.359
328.544
328.856
329.197
329.619
329.954
330.138
330.136
329.814
329.361
328.591
327.89
327.18
326.562
326.31
326.496
326.832
322.99
322.484
322.226
322.033
322.228
322.44
322.747
323.107
323.406
323.548
323.416
323.339
322.852
322.317
321.769
321.108
320.721
320.512
320.489
320.764
316.422
316.117
315.865
315.667
315.88
316.116
316.289
316.491
316.774
316.756
316.753
316.641
316.32
315.901
315.565
315.22
314.807
314.644
314.777
314.976
309.842
309.733
309.545
309.483
309.626
309.693
309.781
309.941
310.049
310.03
310.088
310.031
309.705
309.562
309.392
309.101
308.884
308.864
308.827
309.04
303.321
303.281
303.171
303.262
303.141
303.22
303.28
303.364
303.362
303.342
303.288
303.311
303.33
303.197
303.161
303.05
302.944
303.019
302.981
302.997
349.548
348.538
347.808
347.647
347.945
348.553
349.323
349.998
350.736
351.061
350.915
350.539
349.518
348.403
346.973
345.717
344.794
344.147
344.291
344.942
342.966
342.184
341.502
341.457
341.545
342.115
342.802
343.482
344.013
344.306
344.255
343.903
343.15
341.998
340.823
339.739
338.888
338.494
338.599
339.071
336.408
335.748
335.245
335.118
335.328
335.717
336.252
336.826
337.29
337.534
337.512
337.17
336.56
335.614
334.661
333.679
333.003
332.644
332.72
333.152
329.778
329.254
328.889
328.796
328.952
329.289
329.715
330.097
330.563
330.762
330.61
330.475
329.872
329.248
328.403
327.689
327.057
326.803
326.861
327.108
323.307
322.826
322.5
322.378
322.51
322.763
323.083
323.516
323.827
323.916
323.921
323.68
323.336
322.679
322.159
321.537
321.142
320.911
320.933
321.214
316.591
316.319
316.146
316.043
316.1
316.252
316.547
316.778
316.933
317.093
317.091
316.981
316.701
316.292
315.905
315.397
315.089
314.911
314.953
315.145
309.879
309.749
309.687
309.625
309.726
309.821
309.96
310.042
310.256
310.17
310.299
310.278
309.949
309.83
309.541
309.254
309.026
309.008
308.977
309.137
303.34
303.261
303.279
303.233
303.37
303.344
303.372
303.428
303.307
303.401
303.485
303.417
303.431
303.247
303.119
303.035
303.04
302.988
303.042
302.986
350.307
349.321
348.674
348.434
348.769
349.334
350.155
350.978
351.708
352.069
352.16
351.563
350.774
349.419
347.982
346.752
345.665
345.138
345.265
345.811
343.674
342.832
342.28
342.116
342.421
342.837
343.58
344.247
344.864
345.184
345.196
344.823
343.959
342.859
341.727
340.663
339.801
339.324
339.394
339.81
337.021
336.286
335.858
335.679
335.895
336.327
336.944
337.532
338.012
338.33
338.244
338.008
337.345
336.442
335.38
334.507
333.691
333.391
333.374
333.745
330.232
329.719
329.272
329.315
329.446
329.765
330.227
330.667
331.114
331.385
331.388
331.016
330.541
329.832
328.992
328.168
327.629
327.386
327.392
327.698
323.516
323.153
322.838
322.801
322.979
323.233
323.575
323.942
324.263
324.407
324.368
324.293
323.787
323.237
322.589
322.002
321.507
321.309
321.259
321.547
316.854
316.472
316.341
316.322
316.404
316.609
316.878
317.052
317.328
317.487
317.493
317.276
316.956
316.627
316.239
315.694
315.439
315.253
315.335
315.415
310.131
309.979
309.852
309.811
309.856
309.934
310.078
310.324
310.457
310.572
310.475
310.543
310.291
309.976
309.704
309.429
309.277
309.188
309.145
309.288
303.412
303.386
303.333
303.269
303.316
303.308
303.351
303.497
303.547
303.561
303.562
303.436
303.422
303.388
303.293
303.131
303.07
303.045
303.036
303.116
351.077
350.17
349.594
349.482
349.726
350.48
351.183
351.973
352.768
353.268
353.285
352.824
351.868
350.52
349.143
347.771
346.8
346.272
346.265
346.792
344.357
343.523
343.056
342.995
343.232
343.695
344.427
345.159
345.767
346.235
346.206
345.702
345.024
343.903
342.656
341.541
340.675
340.207
340.286
340.62
337.587
336.995
336.472
336.349
336.61
337.077
337.593
338.163
338.792
339.086
339.138
338.712
338.158
337.192
336.177
335.224
334.481
334.126
334.112
334.466
330.688
330.249
329.915
329.858
329.946
330.334
330.895
331.279
331.784
332.045
332.031
331.828
331.2
330.489
329.664
328.847
328.352
328.032
328.014
328.248
323.923
323.598
323.279
323.157
323.314
323.625
323.974
324.443
324.641
324.977
324.919
324.76
324.345
323.721
323.158
322.58
322.043
321.872
321.808
321.934
317.138
316.832
316.59
316.619
316.625
316.882
317.111
317.458
317.681
317.827
317.824
317.68
317.368
316.938
316.483
316.102
315.829
315.525
315.642
315.737
310.256
310.101
309.969
309.998
310.069
310.162
310.324
310.477
310.615
310.702
310.735
310.658
310.453
310.224
309.959
309.681
309.498
309.408
309.394
309.452
303.404
303.436
303.348
303.335
303.349
303.374
303.447
303.499
303.575
303.619
303.659
303.593
303.509
303.453
303.26
303.246
303.146
303.151
303.144
303.111
352.177
351.233
350.614
350.492
350.788
351.37
352.156
353.011
353.816
354.4
354.412
354.014
352.968
351.771
350.298
348.945
347.927
347.429
347.507
347.837
345.244
344.468
344.017
343.839
344.091
344.619
345.244
346.036
346.715
347.245
347.279
346.828
346.015
344.874
343.668
342.585
341.673
341.279
341.324
341.622
338.286
337.671
337.302
337.145
337.279
337.725
338.397
338.993
339.546
339.964
339.976
339.682
339.039
338.045
337.04
336.101
335.307
334.965
335.009
335.261
331.447
330.866
330.535
330.436
330.535
331.018
331.396
331.94
332.457
332.65
332.822
332.487
331.906
331.116
330.37
329.531
329.019
328.7
328.741
328.903
324.379
324.107
323.666
323.721
323.799
323.989
324.444
324.856
325.206
325.486
325.501
325.268
324.847
324.227
323.623
322.995
322.55
322.3
322.399
322.523
317.441
317.172
316.987
316.955
317.067
317.28
317.48
317.782
318.085
318.179
318.15
318.076
317.827
317.307
316.925
316.537
316.188
315.947
316.01
316.126
310.379
310.311
310.209
310.139
310.305
310.374
310.519
310.652
310.86
310.92
310.915
310.802
310.737
310.436
310.114
309.931
309.718
309.611
309.601
309.682
303.56
303.466
303.394
303.323
303.456
303.489
303.552
303.555
303.675
303.661
303.663
303.656
303.605
303.462
303.34
303.377
303.236
303.299
303.227
303.223
353.243
352.337
351.83
351.561
351.81
352.44
353.221
354.164
354.948
355.467
355.502
355.106
354.17
352.77
351.388
350.195
349.186
348.65
348.642
349
346.169
345.403
344.932
344.761
345.052
345.58
346.149
346.911
347.603
348.113
348.128
347.748
347.016
345.864
344.577
343.529
342.751
342.279
342.283
342.6
339.017
338.435
338.054
337.99
338.102
338.479
339.09
339.759
340.248
340.69
340.733
340.471
339.8
338.854
337.878
336.963
336.222
335.841
335.886
336.143
331.955
331.555
331.098
331.129
331.168
331.58
332.015
332.565
333.063
333.353
333.38
333.115
332.604
331.782
331.087
330.334
329.669
329.376
329.409
329.625
324.806
324.537
324.234
324.173
324.324
324.585
324.923
325.231
325.671
325.955
325.95
325.818
325.389
324.82
324.107
323.557
323.124
322.883
322.844
323.028
317.836
317.472
317.286
317.329
317.431
317.597
317.844
318.1
318.335
318.563
318.52
318.405
318.065
317.713
317.299
316.872
316.524
316.414
316.46
316.505
310.694
310.523
310.375
310.49
310.42
310.58
310.684
310.861
311.01
311.145
311.173
311.027
310.937
310.678
310.297
310.127
309.969
309.952
309.876
309.887
303.586
303.565
303.482
303.445
303.526
303.646
303.538
303.671
303.75
303.697
303.796
303.693
303.671
303.583
303.449
303.445
303.34
303.337
303.273
303.305
354.258
353.507
352.904
352.74
352.992
353.509
354.229
355.158
355.922
356.406
356.52
356.188
355.22
354.025
352.582
351.293
350.355
349.877
349.911
350.184
347.091
346.444
345.929
345.788
346.009
346.455
347.097
347.776
348.474
349.029
349.039
348.704
347.932
346.878
345.68
344.525
343.731
343.314
343.34
343.655
339.781
339.264
338.934
338.809
338.901
339.277
339.902
340.474
341.073
341.423
341.528
341.179
340.491
339.654
338.676
337.79
337.096
336.755
336.768
336.953
332.635
332.203
331.825
331.715
331.901
332.199
332.596
333.135
333.562
333.961
334.04
333.808
333.316
332.55
331.711
330.939
330.421
330.066
330.134
330.362
325.346
324.926
324.761
324.721
324.83
325.062
325.482
325.713
326.134
326.344
326.496
326.258
325.914
325.237
324.683
324.068
323.666
323.433
323.435
323.591
318.111
317.94
317.67
317.626
317.727
317.965
318.2
318.433
318.643
318.851
318.942
318.806
318.496
318.076
317.673
317.288
316.901
316.774
316.749
316.904
310.937
310.711
310.674
310.569
310.637
310.769
310.874
311.022
311.263
311.424
311.374
311.283
311.082
310.832
310.581
310.239
310.166
310.175
310.021
310.168
303.627
303.551
303.62
303.606
303.481
303.617
303.627
303.73
303.844
303.826
303.806
303.741
303.678
303.613
303.497
303.579
303.383
303.378
303.439
303.474
355.538
354.66
354.081
353.911
354.133
354.633
355.334
356.17
356.908
357.449
357.495
357.114
356.238
354.971
353.718
352.567
351.621
351.111
351.066
351.53
348.075
347.493
346.92
346.794
346.967
347.456
347.991
348.626
349.24
349.813
349.79
349.427
348.76
347.857
346.662
345.65
344.865
344.433
344.362
344.736
340.711
340.132
339.811
339.692
339.737
340.165
340.643
341.274
341.776
342.113
342.263
341.913
341.267
340.475
339.524
338.606
338.058
337.596
337.656
337.862
333.309
332.899
332.513
332.406
332.62
332.871
333.242
333.754
334.185
334.501
334.543
334.286
333.827
333.133
332.373
331.616
331.183
330.941
330.848
331.026
325.938
325.617
325.309
325.232
325.393
325.627
325.952
326.231
326.572
326.854
326.894
326.707
326.33
325.756
325.227
324.651
324.221
323.991
323.962
324.182
318.51
318.28
318.064
318.026
318.194
318.299
318.489
318.805
319.031
319.195
319.242
319.089
318.786
318.373
318.004
317.651
317.336
317.152
317.186
317.254
311.155
311.011
310.821
310.919
310.892
311.022
311.052
311.218
311.436
311.59
311.543
311.412
311.299
311.049
310.805
310.672
310.405
310.333
310.36
310.402
303.77
303.613
303.662
303.592
303.609
303.636
303.731
303.833
303.764
303.781
303.889
303.818
303.818
303.639
303.614
303.539
303.609
303.511
303.45
303.436
356.663
355.854
355.287
355.079
355.193
355.661
356.261
357.068
357.79
358.213
358.317
357.98
357.102
356.037
354.767
353.697
352.779
352.409
352.32
352.698
349.096
348.541
348.002
347.795
347.907
348.365
348.835
349.552
350.163
350.516
350.667
350.247
349.564
348.55
347.579
346.611
345.823
345.427
345.531
345.788
341.63
341.081
340.597
340.515
340.63
340.869
341.358
341.904
342.437
342.707
342.882
342.537
341.924
341.103
340.239
339.491
338.875
338.518
338.519
338.774
334.037
333.593
333.213
333.067
333.219
333.443
333.815
334.321
334.719
334.957
335.059
334.831
334.261
333.673
332.915
332.332
331.85
331.637
331.654
331.742
326.405
326.087
325.949
325.77
325.837
326.054
326.311
326.742
327.025
327.17
327.277
327.162
326.704
326.236
325.666
325.134
324.822
324.613
324.614
324.768
318.872
318.631
318.457
318.428
318.5
318.603
318.855
319.065
319.336
319.391
319.571
319.303
319.146
318.643
318.346
318.015
317.697
317.586
317.572
317.753
311.37
311.289
311.111
311.06
311.165
311.154
311.34
311.453
311.56
311.732
311.737
311.553
311.457
311.203
311.053
310.833
310.699
310.544
310.602
310.671
303.83
303.825
303.671
303.662
303.732
303.717
303.817
303.806
303.942
303.906
303.895
303.868
303.816
303.793
303.686
303.552
303.531
303.571
303.546
303.503
357.823
357.111
356.549
356.286
356.4
356.77
357.318
358.068
358.605
359.043
359.152
358.761
357.941
356.951
355.818
354.697
354.089
353.588
353.595
353.999
350.131
349.515
348.969
348.781
348.875
349.22
349.736
350.318
350.887
351.158
351.193
350.953
350.295
349.423
348.379
347.483
346.914
346.575
346.553
346.871
342.457
341.885
341.456
341.295
341.425
341.68
342.189
342.616
343.091
343.27
343.444
343.158
342.531
341.841
341.049
340.278
339.728
339.438
339.507
339.679
334.662
334.274
333.941
333.827
333.918
334.1
334.455
334.893
335.273
335.507
335.511
335.314
334.826
334.29
333.587
333.018
332.556
332.24
332.369
332.536
327.079
326.66
326.438
326.356
326.361
326.587
326.759
327.174
327.438
327.606
327.644
327.451
327.068
326.679
326.1
325.672
325.411
325.188
325.226
325.321
319.267
319.092
318.864
318.823
318.838
318.998
319.152
319.364
319.603
319.759
319.754
319.659
319.408
319.008
318.731
318.343
318.122
318.103
317.979
318.125
311.624
311.477
311.367
311.329
311.276
311.403
311.478
311.638
311.724
311.813
311.82
311.835
311.639
311.499
311.19
311.012
310.854
310.844
310.779
310.945
303.82
303.865
303.878
303.763
303.759
303.798
303.858
303.908
303.88
304.002
303.984
303.929
303.95
303.85
303.817
303.773
303.645
303.605
303.664
303.65
359.098
358.294
357.74
357.548
357.565
357.883
358.321
358.995
359.508
359.712
359.838
359.498
358.777
357.814
356.758
355.789
355.205
354.79
354.886
355.195
351.095
350.519
350.047
349.798
349.891
350.118
350.623
351.09
351.524
351.797
351.89
351.569
350.959
350.147
349.238
348.511
347.902
347.595
347.7
347.932
343.27
342.818
342.364
342.237
342.254
342.505
342.842
343.233
343.646
343.912
343.902
343.669
343.034
342.502
341.703
341.081
340.67
340.307
340.404
340.594
335.441
335.054
334.717
334.531
334.578
334.791
335.029
335.469
335.762
335.95
335.92
335.724
335.338
334.754
334.224
333.682
333.22
333.081
333.076
333.302
327.608
327.271
327.012
326.876
326.892
327.033
327.274
327.558
327.77
327.92
327.941
327.867
327.502
327.088
326.577
326.141
325.83
325.729
325.76
325.875
319.732
319.463
319.253
319.223
319.256
319.42
319.487
319.617
319.89
320.014
320.02
319.873
319.665
319.415
318.98
318.731
318.48
318.383
318.386
318.546
311.839
311.729
311.586
311.625
311.547
311.725
311.71
311.741
311.995
311.974
312.013
311.981
311.694
311.6
311.451
311.309
311.142
311.049
311.144
311.077
303.879
303.946
303.84
303.862
303.849
303.902
303.941
303.931
304.031
304.071
303.951
303.968
303.983
303.882
303.855
303.775
303.698
303.689
303.67
303.68
360.37
359.546
358.967
358.644
358.62
358.876
359.351
359.798
360.238
360.58
360.562
360.2
359.52
358.703
357.716
356.987
356.352
356.059
356.115
356.393
352.293
351.645
351.128
350.777
350.869
351.026
351.48
351.902
352.261
352.512
352.444
352.145
351.724
350.926
350.181
349.476
348.907
348.713
348.742
349.048
344.251
343.686
343.245
342.994
343.045
343.231
343.575
343.881
344.32
344.432
344.474
344.163
343.71
343.107
342.512
341.861
341.394
341.252
341.322
341.561
336.162
335.848
335.46
335.23
335.23
335.471
335.633
335.942
336.196
336.373
336.333
336.191
335.743
335.419
334.836
334.316
333.941
333.756
333.793
333.959
328.215
327.809
327.53
327.416
327.489
327.546
327.659
327.982
328.198
328.294
328.281
328.164
327.876
327.483
327.092
326.741
326.414
326.221
326.284
326.43
320.188
319.861
319.739
319.583
319.58
319.678
319.798
319.922
320.164
320.237
320.195
320.127
319.864
319.681
319.376
319.066
318.889
318.812
318.842
318.936
312.059
311.86
311.804
311.779
311.684
311.87
311.956
312.011
312.107
312.175
312.083
312.044
311.937
311.773
311.564
311.501
311.32
311.321
311.243
311.317
304.074
304.007
304.011
304.006
303.942
303.981
304.044
304.044
303.97
304.068
304.057
304.056
304.04
303.906
303.906
303.881
303.799
303.821
303.761
303.785
361.555
360.791
360.194
359.838
359.756
359.993
360.33
360.775
361.059
361.368
361.251
360.913
360.345
359.604
358.704
358.029
357.498
357.238
357.419
357.797
353.427
352.688
352.229
351.925
351.882
352.032
352.301
352.708
352.977
353.202
353.136
352.863
352.263
351.705
351.008
350.383
349.875
349.71
349.865
350.175
345.264
344.648
344.143
343.923
343.875
344.057
344.259
344.554
344.793
345.034
344.968
344.719
344.308
343.72
343.188
342.631
342.263
342.04
342.204
342.575
336.942
336.518
336.186
335.992
335.897
336.063
336.275
336.51
336.697
336.821
336.848
336.65
336.329
335.836
335.345
334.962
334.563
334.551
334.465
334.72
328.746
328.408
328.107
327.951
327.921
327.999
328.229
328.376
328.593
328.651
328.655
328.534
328.241
327.827
327.543
327.202
326.916
326.85
326.898
327.047
320.452
320.296
320.053
320.039
319.926
319.988
320.169
320.297
320.494
320.439
320.417
320.417
320.13
319.943
319.699
319.508
319.22
319.17
319.223
319.394
312.337
312.205
312.099
312.011
312.029
312.04
312.092
312.19
312.283
312.26
312.334
312.24
312.114
311.976
311.795
311.638
311.517
311.559
311.553
311.638
304.155
304.097
303.948
304.023
303.974
304.077
304.021
304.053
304.095
304.105
304.119
304.078
304.039
304.003
303.978
303.917
303.887
303.85
303.873
303.911
362.946
362.061
361.449
360.953
360.971
361.041
361.34
361.649
361.969
362.035
362.003
361.705
361.237
360.568
359.843
359.088
358.667
358.473
358.688
359.123
354.455
353.863
353.249
352.912
352.791
352.982
353.232
353.514
353.681
353.818
353.764
353.513
353.13
352.445
351.916
351.31
350.871
350.795
350.954
351.363
346.154
345.514
345.063
344.833
344.742
344.776
345.011
345.172
345.491
345.522
345.465
345.278
344.877
344.435
343.894
343.504
343.151
342.971
343.076
343.509
337.775
337.308
336.884
336.754
336.598
336.721
336.81
337.044
337.154
337.241
337.23
336.997
336.794
336.422
336.019
335.603
335.219
335.21
335.407
335.575
329.324
328.985
328.708
328.562
328.472
328.564
328.673
328.808
328.93
329.033
328.955
328.904
328.634
328.279
328.033
327.671
327.544
327.41
327.493
327.621
320.983
320.733
320.533
320.302
320.34
320.358
320.422
320.582
320.568
320.722
320.773
320.621
320.436
320.149
320.02
319.741
319.65
319.58
319.696
319.788
312.628
312.435
312.34
312.284
312.215
312.301
312.319
312.381
312.424
312.469
312.493
312.409
312.292
312.098
312.062
311.974
311.79
311.778
311.834
311.831
304.207
304.182
304.118
304.041
304.138
304.131
304.178
304.108
304.117
304.181
304.187
304.177
304.093
304.086
304.005
303.907
303.916
303.93
303.99
304.008
364.225
363.322
362.654
362.266
362.236
362.154
362.367
362.531
362.811
362.901
362.717
362.585
362.062
361.404
360.795
360.167
359.816
359.706
359.881
360.434
355.557
354.919
354.377
353.995
353.812
353.874
354.074
354.277
354.42
354.588
354.434
354.172
353.747
353.294
352.724
352.165
351.885
351.796
352.125
352.36
347.061
346.44
345.989
345.648
345.617
345.553
345.796
345.977
346.081
346.167
346.147
345.768
345.497
345.103
344.631
344.242
343.971
343.794
344.037
344.307
338.397
337.984
337.657
337.341
337.271
337.278
337.401
337.527
337.673
337.698
337.724
337.592
337.238
336.867
336.439
336.175
335.955
335.845
335.986
336.314
329.811
329.542
329.289
329.013
328.898
329.049
329.193
329.121
329.315
329.372
329.313
329.213
329.002
328.756
328.434
328.23
327.987
327.924
328.132
328.2
321.365
321.111
320.783
320.73
320.723
320.75
320.826
320.851
320.921
320.978
320.942
320.876
320.761
320.6
320.308
320.119
320.077
319.996
320.051
320.217
312.821
312.67
312.598
312.534
312.479
312.479
312.443
312.613
312.657
312.607
312.534
312.587
312.449
312.325
312.098
312.128
311.995
312.103
311.989
312.235
304.25
304.209
304.158
304.202
304.228
304.098
304.123
304.219
304.204
304.229
304.209
304.255
304.161
304.153
304.14
304.054
304.019
304.056
304.023
304.133
365.326
364.552
363.806
363.462
363.203
363.159
363.252
363.446
363.601
363.616
363.528
363.247
362.824
362.356
361.692
361.273
360.944
360.838
361.147
361.677
356.628
355.89
355.248
354.928
354.696
354.722
354.842
355.016
355.14
355.143
355.077
354.832
354.528
353.94
353.517
353.096
352.877
352.794
352.97
353.359
347.843
347.289
346.859
346.422
346.391
346.318
346.393
346.529
346.66
346.699
346.547
346.365
346.097
345.654
345.343
344.85
344.661
344.7
344.889
345.207
339.114
338.644
338.304
337.996
337.879
337.904
337.946
338.13
338.194
338.181
338.134
337.907
337.647
337.366
337.119
336.708
336.593
336.551
336.772
336.997
330.416
330.101
329.694
329.628
329.468
329.541
329.537
329.634
329.635
329.766
329.655
329.561
329.289
329.095
328.808
328.587
328.481
328.451
328.538
328.734
321.691
321.469
321.254
321.105
321.103
321.018
321.074
321.104
321.215
321.302
321.238
321.084
320.982
320.762
320.627
320.479
320.338
320.301
320.417
320.559
312.905
312.889
312.733
312.673
312.643
312.661
312.629
312.761
312.701
312.683
312.779
312.709
312.6
312.428
312.419
312.311
312.299
312.251
312.3
312.325
304.312
304.435
304.259
304.211
304.285
304.279
304.307
304.183
304.217
304.253
304.255
304.283
304.239
304.221
304.198
304.098
304.085
304.135
304.125
304.095
366.199
365.513
364.751
364.28
363.985
364.031
364.035
364.165
364.246
364.262
364.206
363.815
363.445
363.03
362.48
362.033
361.782
361.689
362.028
362.567
357.372
356.64
355.955
355.662
355.453
355.359
355.517
355.61
355.651
355.672
355.531
355.286
354.98
354.53
354.054
353.733
353.508
353.469
353.656
354.216
348.43
347.878
347.274
347.041
346.878
346.849
346.938
346.97
347.023
347.094
346.965
346.772
346.509
346.13
345.785
345.43
345.306
345.194
345.499
345.822
339.577
339.142
338.67
338.438
338.365
338.247
338.381
338.462
338.432
338.532
338.37
338.226
338.025
337.671
337.489
337.221
336.989
337.009
337.217
337.546
330.651
330.41
330.165
329.87
329.721
329.79
329.76
329.889
329.945
329.902
329.831
329.723
329.601
329.424
329.118
328.97
328.906
328.8
328.909
329.12
322.005
321.766
321.492
321.35
321.347
321.247
321.235
321.352
321.278
321.424
321.338
321.313
321.198
320.956
320.762
320.617
320.533
320.593
320.651
320.786
313.148
313.071
312.897
312.786
312.73
312.847
312.807
312.88
312.877
312.806
312.907
312.788
312.713
312.57
312.452
312.369
312.29
312.378
312.41
312.483
304.476
304.391
304.287
304.267
304.252
304.315
304.226
304.292
304.329
304.277
304.317
304.272
304.209
304.133
304.229
304.14
304.174
304.128
304.193
304.158
)
;

boundaryField
{
    hotSide
    {
        type            fixedGradient;
        gradient        nonuniform List<scalar> 
400
(
321.511
322.87
325.591
329.677
335.133
341.965
350.181
359.788
370.794
383.208
397.037
412.289
428.971
447.088
466.647
487.651
510.105
534.011
559.372
586.191
323.738
325.08
327.767
331.802
337.194
343.949
352.078
361.591
372.498
384.81
398.537
413.687
430.268
448.289
467.755
488.672
511.043
534.872
560.161
586.913
326.149
327.47
330.116
334.091
339.406
346.071
354.099
363.503
374.296
386.491
400.101
415.136
431.606
449.52
468.885
489.706
511.988
535.735
560.948
587.63
328.704
330
332.597
336.503
341.73
348.292
356.205
365.485
376.15
388.215
401.695
416.604
432.954
450.753
470.009
490.73
512.919
536.579
561.714
588.325
331.33
332.599
335.142
338.97
344.099
350.546
358.332
367.477
378.003
389.928
403.271
418.047
434.27
451.949
471.095
491.712
513.807
537.382
562.439
588.978
333.918
335.158
337.643
341.389
346.414
352.74
360.392
369.397
379.779
391.562
404.765
419.407
435.503
453.065
472.101
492.618
514.622
538.114
563.096
589.569
336.321
337.531
339.959
343.622
348.544
354.751
362.274
371.142
381.385
393.031
406.101
420.618
436.595
454.047
472.983
493.409
515.33
538.747
563.663
590.076
338.36
339.543
341.92
345.509
350.339
356.44
363.847
372.595
382.718
394.244
407.2
421.608
437.485
454.844
473.695
494.045
515.897
539.253
564.114
590.478
339.852
341.015
343.352
346.885
351.645
357.665
364.985
373.643
383.675
395.113
407.984
422.312
438.116
455.407
474.197
494.491
516.294
539.606
564.428
590.758
340.643
341.795
344.11
347.613
352.334
358.311
365.584
374.193
384.176
395.567
408.393
422.679
438.443
455.699
474.456
494.722
516.498
539.788
564.589
590.901
340.643
341.795
344.11
347.613
352.334
358.311
365.584
374.193
384.176
395.567
408.393
422.679
438.443
455.699
474.456
494.722
516.498
539.788
564.589
590.901
339.852
341.015
343.352
346.885
351.645
357.665
364.985
373.643
383.675
395.113
407.984
422.312
438.116
455.407
474.197
494.491
516.294
539.606
564.428
590.758
338.36
339.543
341.92
345.509
350.339
356.44
363.847
372.595
382.718
394.244
407.2
421.608
437.485
454.844
473.695
494.045
515.897
539.253
564.114
590.478
336.321
337.531
339.959
343.622
348.544
354.751
362.274
371.142
381.385
393.031
406.101
420.618
436.595
454.047
472.983
493.409
515.33
538.747
563.663
590.076
333.918
335.158
337.643
341.389
346.414
352.74
360.392
369.397
379.779
391.562
404.765
419.407
435.503
453.065
472.101
492.618
514.622
538.114
563.096
589.569
331.33
332.599
335.142
338.97
344.099
350.546
358.332
367.477
378.003
389.928
403.271
418.047
434.27
451.949
471.095
491.712
513.807
537.382
562.439
588.978
328.704
330
332.597
336.503
341.73
348.292
356.205
365.485
376.15
388.215
401.695
416.604
432.954
450.753
470.009
490.73
512.919
536.579
561.714
588.325
326.149
327.47
330.116
334.091
339.406
346.071
354.099
363.503
374.296
386.491
400.101
415.136
431.606
449.52
468.885
489.706
511.988
535.735
560.948
587.63
323.738
325.08
327.767
331.802
337.194
343.949
352.078
361.591
372.498
384.81
398.537
413.687
430.268
448.289
467.755
488.672
511.043
534.872
560.161
586.913
321.511
322.87
325.591
329.677
335.133
341.965
350.181
359.788
370.794
383.208
397.037
412.289
428.971
447.088
466.647
487.651
510.105
534.011
559.372
586.191
)
;
    }
    coldSide
    {
        type            mixed;
        refValue        uniform 300;
        refGradient     uniform 0;
        valueFraction   uniform 0.991591;
        source          uniform 0;
        value           nonuniform List<scalar> 
400
(
300.027
300.027
300.027
300.028
300.028
300.029
300.029
300.03
300.03
300.031
300.032
300.032
300.032
300.033
300.034
300.035
300.035
300.036
300.036
300.038
300.027
300.027
300.027
300.028
300.027
300.028
300.029
300.029
300.03
300.03
300.03
300.032
300.032
300.033
300.034
300.034
300.035
300.035
300.037
300.037