/*--------------------------------*- C++ -*----------------------------------*\
| =========                 |                                                 |
| \\      /  F ield         | OpenFOAM: The Open Source CFD Toolbox           |
|  \\    /   O peration     | Version:  2212                                  |
|   \\  /    A nd           | Website:  www.openfoam.com                      |
|    \\/     M anipulation  |                                                 |
\*---------------------------------------------------------------------------*/
FoamFile
{
    version     2.0;
    format      ascii;
    arch        "LSB;label=32;scalar=64";
    class       volScalarField;
    location    "0";
    object      T;
}
// * * * * * * * * * * * * * * * * * * * * * * * * * * * * * * * * * * * * * //

dimensions      [0 0 0 1 0 0 0];

internalField   nonuniform List<scalar> 
3200
(
320.807
321.128
321.33
321.796
322.052
322.256
322.591
322.299
322.139
322.433
322.748
322.647
322.876
322.735
322.491
322.095
322.191
321.76
321.332
321.12
317.955
318.283
318.376
318.795
318.958
319.196
319.525
319.276
319.036
319.346
319.65
319.516
319.771
319.625
319.413
319.071
319.138
318.727
318.389
318.285
315.133
315.472
315.446
315.867
315.964
316.201
316.447
316.257
316
316.294
316.599
316.406
316.646
316.562
316.357
316.064
316.087
315.721
315.504
315.437
312.346
312.674
312.57
312.919
313.028
313.157
313.428
313.248
313.035
313.27
313.561
313.356
313.54
313.499
313.292
313.13
313.069
312.808
312.664
312.591
309.567
309.84
309.73
310.017
310.147
310.195
310.451
310.266
310.086
310.303
310.573
310.355
310.515
310.466
310.288
310.182
310.116
309.963
309.827
309.704
306.851
307.044
306.944
307.15
307.247
307.257
307.494
307.337
307.188
307.355
307.586
307.389
307.506
307.491
307.327
307.239
307.211
307.13
307.001
306.898
304.102
304.206
304.145
304.285
304.322
304.366
304.513
304.431
304.324
304.408
304.573
304.412
304.496
304.489
304.38
304.338
304.329
304.281
304.209
304.139
301.375
301.4
301.392
301.436
301.45
301.469
301.516
301.47
301.453
301.467
301.55
301.472
301.514
301.524
301.458
301.453
301.448
301.434
301.414
301.385
321.706
321.925
322.234
322.613
323.13
323.265
323.325
323.324
323.249
323.457
323.584
323.481
323.5
323.3
323.267
322.99
322.854
322.588
322.31
322.119
318.691
318.89
319.173
319.503
319.946
320.08
320.137
320.081
319.973
320.183
320.343
320.212
320.246
320.04
320.055
319.834
319.726
319.472
319.264
319.087
315.705
315.895
316.123
316.384
316.742
316.889
316.985
316.909
316.766
316.97
317.18
316.974
317.07
316.884
316.933
316.726
316.613
316.384
316.241
316.082
312.754
312.921
313.128
313.315
313.615
313.756
313.779
313.786
313.638
313.823
314.03
313.838
313.944
313.764
313.802
313.633
313.535
313.341
313.231
313.078
309.869
310.054
310.158
310.3
310.52
310.68
310.672
310.679
310.619
310.689
310.96
310.748
310.818
310.654
310.666
310.592
310.503
310.35
310.262
310.09
307.036
307.174
307.212
307.295
307.448
307.646
307.588
307.603
307.582
307.566
307.858
307.694
307.722
307.611
307.578
307.573
307.485
307.378
307.285
307.161
304.225
304.322
304.323
304.348
304.419
304.567
304.566
304.566
304.542
304.511
304.751
304.619
304.63
304.549
304.535
304.527
304.49
304.395
304.352
304.286
301.406
301.444
301.468
301.45
301.462
301.521
301.531
301.535
301.524
301.501
301.598
301.551
301.561
301.507
301.508
301.509
301.482
301.461
301.443
301.445
322.606
322.949
323.344
323.743
324.088
324.266
324.447
324.445
324.5
324.583
324.593
324.703
324.459
324.458
324.349
324.175
324.214
323.666
323.591
323.05
319.476
319.794
320.112
320.458
320.717
320.923
321.024
321.049
321.065
321.114
321.177
321.225
321.056
321.032
320.95
320.795
320.846
320.331
320.337
319.869
316.38
316.677
316.897
317.191
317.427
317.644
317.674
317.699
317.678
317.691
317.83
317.832
317.749
317.679
317.654
317.506
317.566
317.107
317.109
316.754
313.345
313.556
313.813
314.011
314.174
314.36
314.395
314.455
314.37
314.364
314.519
314.528
314.465
314.378
314.418
314.283
314.314
313.887
313.905
313.649
310.367
310.5
310.723
310.828
311
311.125
311.179
311.211
311.125
311.109
311.237
311.226
311.205
311.094
311.215
311.102
311.07
310.738
310.748
310.568
307.421
307.483
307.622
307.723
307.821
307.912
307.962
307.964
307.96
307.863
308.033
307.981
307.974
307.906
308.03
307.949
307.894
307.665
307.611
307.554
304.465
304.498
304.573
304.654
304.699
304.746
304.746
304.776
304.794
304.686
304.828
304.774
304.77
304.727
304.815
304.773
304.748
304.614
304.539
304.52
301.505
301.501
301.538
301.573
301.565
301.585
301.583
301.607
301.586
301.56
301.612
301.598
301.576
301.572
301.623
301.587
301.57
301.544
301.522
301.508
323.59
323.918
324.434
324.843
325.171
325.429
325.57
325.66
325.709
325.85
325.914
325.879
325.921
325.748
325.523
325.365
325.244
324.857
324.582
324.026
320.305
320.619
321.061
321.361
321.662
321.903
322.016
322.083
322.117
322.261
322.333
322.239
322.302
322.136
321.984
321.83
321.712
321.379
321.114
320.684
317.088
317.364
317.711
317.956
318.214
318.399
318.534
318.584
318.603
318.728
318.784
318.66
318.712
318.57
318.507
318.338
318.249
317.993
317.779
317.41
313.914
314.136
314.468
314.596
314.775
314.968
315.065
315.128
315.153
315.267
315.31
315.149
315.197
315.096
315.09
314.883
314.873
314.651
314.459
314.18
310.794
310.976
311.26
311.288
311.401
311.602
311.651
311.732
311.716
311.867
311.878
311.706
311.756
311.721
311.701
311.511
311.567
311.35
311.208
311.014
307.674
307.817
308.043
308.049
308.097
308.284
308.263
308.354
308.316
308.462
308.474
308.319
308.335
308.348
308.345
308.241
308.252
308.067
307.993
307.86
304.626
304.695
304.833
304.818
304.843
304.986
304.947
304.981
304.969
305.069
305.087
304.973
305.013
304.996
305.01
304.976
304.95
304.818
304.787
304.712
301.565
301.57
301.611
301.615
301.628
301.668
301.657
301.656
301.668
301.699
301.698
301.654
301.674
301.646
301.661
301.653
301.662
301.619
301.589
301.572
324.702
325.006
325.628
326.017
326.244
326.46
326.633
326.91
327.117
327.092
327.349
327.297
327.163
326.931
326.926
326.65
326.345
326.046
325.607
325.328
321.27
321.524
322.093
322.353
322.58
322.797
322.899
323.136
323.338
323.325
323.53
323.48
323.347
323.157
323.161
322.948
322.694
322.432
322.015
321.801
317.895
318.073
318.591
318.797
318.99
319.166
319.268
319.44
319.579
319.645
319.782
319.747
319.591
319.502
319.462
319.29
319.071
318.852
318.518
318.312
314.515
314.712
315.137
315.317
315.454
315.595
315.727
315.797
315.927
316.031
316.127
316.065
315.919
315.866
315.796
315.696
315.48
315.345
315.101
314.868
311.148
311.378
311.744
311.878
311.98
312.092
312.199
312.225
312.303
312.456
312.496
312.444
312.345
312.265
312.206
312.193
311.996
311.907
311.709
311.495
307.874
308.126
308.365
308.477
308.551
308.639
308.667
308.697
308.76
308.872
308.917
308.862
308.816
308.733
308.663
308.703
308.576
308.471
308.348
308.19
304.674
304.876
305.047
305.088
305.133
305.187
305.184
305.183
305.265
305.336
305.388
305.285
305.283
305.251
305.167
305.222
305.145
305.048
305.006
304.923
301.554
301.64
301.709
301.7
301.71
301.746
301.733
301.728
301.772
301.777
301.816
301.767
301.76
301.741
301.723
301.747
301.714
301.696
301.68
301.666
325.91
326.292
326.676
327.176
327.254
327.577
327.88
328.348
328.33
328.593
328.531
328.502
328.377
328.436
328.358
327.972
327.668
327.332
326.943
326.581
322.307
322.636
322.975
323.41
323.476
323.749
323.988
324.396
324.386
324.569
324.564
324.523
324.407
324.5
324.424
324.1
323.785
323.536
323.146
322.87
318.764
319.036
319.308
319.723
319.759
320.026
320.146
320.525
320.533
320.647
320.657
320.617
320.516
320.621
320.554
320.266
319.955
319.798
319.428
319.215
315.292
315.493
315.729
316.054
316.089
316.312
316.431
316.724
316.704
316.795
316.839
316.824
316.726
316.808
316.729
316.491
316.253
316.102
315.76
315.628
311.834
312
312.219
312.45
312.47
312.643
312.742
312.953
312.966
313.015
313.043
313.078
312.96
312.989
312.963
312.804
312.572
312.486
312.172
312.086
308.419
308.576
308.741
308.901
308.896
309.057
309.087
309.227
309.232
309.261
309.322
309.329
309.274
309.225
309.24
309.148
308.931
308.877
308.651
308.602
305.075
305.12
305.274
305.318
305.326
305.421
305.461
305.51
305.507
305.536
305.573
305.596
305.572
305.525
305.532
305.486
305.347
305.326
305.198
305.144
301.7
301.727
301.766
301.783
301.802
301.825
301.806
301.857
301.822
301.86
301.875
301.872
301.865
301.842
301.853
301.837
301.785
301.773
301.721
301.725
326.824
327.352
327.739
328.354
328.592
329.054
329.214
329.691
329.737
329.833
329.904
329.906
329.641
329.608
329.581
329.328
328.932
328.416
328
327.81
323.102
323.582
323.917
324.427
324.675
325.005
325.119
325.607
325.595
325.663
325.753
325.739
325.499
325.506
325.427
325.305
324.91
324.468
324.095
324.001
319.407
319.846
320.129
320.526
320.779
321.043
321.129
321.502
321.524
321.568
321.681
321.622
321.48
321.463
321.367
321.278
320.945
320.55
320.247
320.245
315.784
316.179
316.438
316.683
316.932
317.173
317.199
317.471
317.566
317.523
317.651
317.568
317.485
317.489
317.372
317.277
317.062
316.775
316.496
316.494
312.21
312.538
312.802
312.93
313.106
313.303
313.361
313.499
313.581
313.541
313.673
313.551
313.554
313.566
313.398
313.367
313.284
312.983
312.797
312.791
308.704
308.916
309.145
309.203
309.318
309.45
309.542
309.588
309.648
309.621
309.776
309.622
309.633
309.653
309.518
309.519
309.528
309.259
309.148
309.076
305.216
305.326
305.486
305.535
305.589
305.652
305.75
305.735
305.783
305.765
305.862
305.754
305.753
305.76
305.712
305.67
305.722
305.533
305.471
305.412
301.751
301.806
301.832
301.853
301.862
301.874
301.928
301.925
301.957
301.913
301.967
301.942
301.917
301.919
301.92
301.892
301.926
301.843
301.843
301.793
327.627
328.512
328.843
329.492
329.883
330.273
330.607
330.761
330.749
331.018
331.141
331.212
330.87
330.747
330.87
330.246
329.962
329.836
329.212
328.938
323.784
324.573
324.835
325.382
325.725
326.078
326.362
326.51
326.459
326.725
326.824
326.853
326.579
326.45
326.622
326.039
325.791
325.709
325.144
324.929
320.042
320.681
320.899
321.352
321.637
321.904
322.141
322.291
322.265
322.523
322.594
322.563
322.347
322.229
322.48
321.897
321.731
321.629
321.172
320.973
316.342
316.815
317.035
317.354
317.611
317.803
317.996
318.11
318.112
318.401
318.415
318.341
318.153
318.116
318.313
317.804
317.702
317.611
317.219
317.045
312.646
313.017
313.171
313.438
313.603
313.807
313.935
314.008
314.032
314.283
314.282
314.217
314.062
314.054
314.149
313.789
313.688
313.659
313.379
313.155
309.008
309.258
309.369
309.564
309.653
309.813
309.855
309.977
310
310.19
310.225
310.149
310.036
310.016
310.052
309.818
309.758
309.729
309.546
309.35
305.415
305.515
305.62
305.713
305.823
305.89
305.86
305.963
305.986
306.12
306.122
306.119
306.013
305.997
306.023
305.892
305.869
305.815
305.727
305.594
301.807
301.832
301.876
301.893
301.945
301.992
301.944
301.978
302.007
302.041
302.049
302.064
302.029
302.007
302.03
301.985
301.976
301.92
301.922
301.876
328.799
329.359
329.794
330.358
331.08
331.478
331.756
331.96
331.792
331.954
332.283
332.253
332.17
332.155
332.019
331.687
331.098
330.766
330.43
330.056
324.81
325.301
325.647
326.103
326.813
327.106
327.33
327.477
327.347
327.523
327.822
327.77
327.727
327.716
327.543
327.288
326.748
326.528
326.215
325.918
320.89
321.25
321.56
321.953
322.559
322.812
322.981
323.135
323.016
323.166
323.425
323.361
323.307
323.348
323.219
322.964
322.502
322.33
322.071
321.792
317.043
317.304
317.577
317.9
318.365
318.571
318.671
318.827
318.733
318.861
319.073
319.036
318.956
318.98
318.948
318.688
318.322
318.177
317.98
317.718
313.218
313.365
313.602
313.85
314.234
314.437
314.434
314.594
314.526
314.598
314.787
314.741
314.706
314.658
314.723
314.467
314.162
314.063
313.906
313.682
309.409
309.535
309.671
309.818
310.139
310.307
310.277
310.401
310.319
310.406
310.53
310.479
310.484
310.433
310.497
310.284
310.064
310.014
309.905
309.724
305.686
305.72
305.795
305.889
306.082
306.18
306.144
306.249
306.186
306.229
306.314
306.285
306.298
306.266
306.288
306.166
306.024
305.952
305.963
305.836
301.911
301.915
301.94
301.995
302.026
302.079
302.047
302.092
302.081
302.094
302.117
302.107
302.122
302.109
302.117
302.072
301.999
301.986
301.985
301.94
329.941
330.353
330.886
331.481
331.938
332.412
332.743
332.914
333.074
333.345
333.524
333.618
333.193
333.369
333.175
332.902
332.552
331.966
331.584
331.004
325.846
326.139
326.646
327.094
327.531
327.879
328.203
328.343
328.45
328.707
328.9
328.985
328.614
328.742
328.575
328.361
328.01
327.515
327.226
326.737
321.762
322.015
322.402
322.75
323.175
323.413
323.721
323.874
323.915
324.17
324.313
324.343
324.106
324.178
324.027
323.87
323.532
323.144
322.921
322.493
317.732
317.888
318.267
318.502
318.871
319.035
319.307
319.42
319.443
319.692
319.818
319.83
319.662
319.668
319.558
319.437
319.097
318.85
318.648
318.317
313.733
313.9
314.151
314.318
314.578
314.738
314.946
315.023
315.067
315.276
315.37
315.373
315.233
315.246
315.182
315.048
314.787
314.58
314.449
314.19
309.775
309.894
310.07
310.207
310.403
310.5
310.661
310.696
310.704
310.849
310.948
310.966
310.871
310.888
310.832
310.738
310.546
310.325
310.287
310.098
305.866
305.931
306.036
306.099
306.25
306.296
306.43
306.422
306.384
306.485
306.574
306.563
306.538
306.542
306.497
306.448
306.331
306.179
306.164
306.08
301.976
301.972
302.017
302.049
302.102
302.104
302.163
302.157
302.126
302.183
302.192
302.187
302.196
302.201
302.152
302.153
302.122
302.049
302.079
302.056
330.944
331.534
331.956
332.602
333.09
333.486
333.901
333.934
334.201
334.58
334.416
334.597
334.428
334.433
334.265
333.969
333.536
333.027
332.754
332.238
326.703
327.206
327.527
328.081
328.506
328.911
329.2
329.216
329.499
329.801
329.645
329.769
329.654
329.681
329.521
329.224
328.867
328.474
328.224
327.783
322.528
322.911
323.173
323.575
323.95
324.379
324.51
324.534
324.872
325.083
324.955
325.03
324.94
324.982
324.834
324.533
324.3
323.951
323.685
323.403
318.343
318.653
318.845
319.187
319.467
319.887
319.909
319.999
320.255
320.42
320.349
320.419
320.313
320.346
320.224
319.989
319.777
319.481
319.288
319.073
314.216
314.429
314.602
314.824
315.128
315.434
315.404
315.54
315.725
315.814
315.793
315.825
315.724
315.765
315.643
315.51
315.309
315.104
314.936
314.801
310.153
310.254
310.411
310.537
310.794
310.957
310.946
311.113
311.229
311.231
311.256
311.275
311.208
311.259
311.151
311.095
310.883
310.723
310.626
310.52
306.105
306.143
306.211
306.288
306.471
306.546
306.578
306.68
306.724
306.717
306.732
306.783
306.718
306.746
306.683
306.68
306.462
306.403
306.346
306.326
302.041
302.047
302.065
302.114
302.157
302.174
302.215
302.251
302.231
302.272
302.252
302.274
302.234
302.265
302.252
302.237
302.158
302.148
302.145
302.11
331.794
332.536
333.045
333.53
333.976
334.679
334.979
335.126
335.375
335.559
335.624
335.55
335.528
335.62
335.312
335.037
334.644
333.964
333.762
333.043
327.415
328.039
328.451
328.863
329.282
329.872
330.137
330.226
330.472
330.672
330.68
330.64
330.602
330.671
330.477
330.216
329.829
329.266
329.114
328.537
323.08
323.626
323.939
324.255
324.686
325.164
325.347
325.443
325.626
325.852
325.807
325.773
325.767
325.76
325.645
325.45
325.133
324.66
324.525
324.053
318.821
319.265
319.497
319.724
320.167
320.562
320.6
320.72
320.841
321.055
321.043
320.999
321.001
320.931
320.861
320.709
320.491
320.103
319.947
319.614
314.62
314.949
315.128
315.268
315.662
315.966
315.944
316.046
316.149
316.357
316.356
316.285
316.326
316.184
316.149
316.048
315.855
315.559
315.468
315.227
310.428
310.642
310.796
310.885
311.172
311.398
311.347
311.464
311.524
311.693
311.701
311.616
311.684
311.542
311.503
311.41
311.234
311.1
311.032
310.84
306.23
306.382
306.507
306.528
306.676
306.88
306.804
306.863
306.897
307.017
307.035
306.979
307.003
306.928
306.887
306.828
306.705
306.617
306.639
306.461
302.069
302.134
302.192
302.196
302.235
302.312
302.275
302.283
302.286
302.347
302.357
302.357
302.349
302.329
302.322
302.29
302.244
302.21
302.225
302.174
332.732
333.397
333.88
334.406
334.93
335.56
335.936
336.155
336.51
336.443
336.71
336.607
336.565
336.501
336.23
336.006
335.623
335.07
334.557
334.166
328.238
328.772
329.186
329.635
330.103
330.589
330.957
331.109
331.487
331.389
331.642
331.521
331.542
331.44
331.263
331.037
330.681
330.234
329.809
329.445
323.794
324.201
324.565
324.961
325.331
325.73
326.049
326.191
326.505
326.407
326.62
326.521
326.612
326.448
326.352
326.116
325.854
325.466
325.12
324.802
319.422
319.73
319.944
320.286
320.618
320.973
321.199
321.311
321.571
321.468
321.665
321.579
321.693
321.529
321.484
321.295
321.027
320.756
320.477
320.2
315.076
315.258
315.453
315.669
315.969
316.217
316.453
316.489
316.724
316.651
316.798
316.706
316.831
316.678
316.638
316.5
316.311
316.104
315.902
315.626
310.738
310.897
310.989
311.134
311.374
311.523
311.73
311.749
311.929
311.865
311.96
311.914
312.022
311.839
311.856
311.789
311.67
311.521
311.367
311.12
306.432
306.545
306.596
306.676
306.819
306.927
307.065
307.051
307.152
307.129
307.148
307.146
307.202
307.065
307.12
307.073
307.041
306.895
306.822
306.664
302.141
302.178
302.201
302.237
302.262
302.332
302.381
302.362
302.392
302.406
302.395
302.389
302.43
302.355
302.39
302.385
302.358
302.29
302.281
302.211
333.398
334.146
334.771
335.215
335.766
336.542
336.788
337.03
337.51
337.454
337.513
337.517
337.618
337.33
337.3
336.932
336.486
336.033
335.359
334.987
328.821
329.442
329.985
330.385
330.848
331.496
331.708
331.922
332.353
332.263
332.347
332.326
332.416
332.154
332.154
331.846
331.421
331.034
330.481
330.217
324.301
324.753
325.2
325.617
325.954
326.524
326.753
326.865
327.266
327.13
327.245
327.2
327.32
327.041
327.075
326.837
326.391
326.107
325.629
325.436
319.859
320.111
320.488
320.929
321.159
321.578
321.791
321.882
322.212
322.072
322.166
322.125
322.289
322.027
322.037
321.867
321.473
321.276
320.868
320.691
315.421
315.544
315.838
316.189
316.386
316.705
316.928
316.919
317.2
317.08
317.146
317.172
317.294
317.036
317.077
316.978
316.641
316.494
316.151
316.025
311.006
311.081
311.278
311.526
311.666
311.896
312.084
312.065
312.246
312.163
312.225
312.247
312.318
312.112
312.177
312.12
311.848
311.74
311.484
311.374
306.602
306.669
306.745
306.903
307.003
307.113
307.229
307.254
307.306
307.274
307.35
307.305
307.428
307.269
307.297
307.287
307.1
307.043
306.864
306.786
302.209
302.23
302.268
302.319
302.355
302.368
302.451
302.44
302.451
302.433
302.463
302.433
302.486
302.436
302.453
302.447
302.38
302.345
302.276
302.269
334.125
334.641
335.657
336.224
336.563
337.386
337.646
337.853
338.196
338.425
338.76
338.72
338.632
338.325
337.948
337.719
337.433
336.884
336.148
335.833
329.457
329.866
330.761
331.224
331.532
332.243
332.438
332.637
332.891
333.13
333.391
333.346
333.264
333.039
332.669
332.444
332.252
331.822
331.179
330.895
324.869
325.152
325.903
326.266
326.548
327.149
327.314
327.526
327.654
327.889
328.121
328.036
327.999
327.817
327.497
327.27
327.128
326.839
326.272
325.978
320.315
320.512
321.143
321.378
321.609
322.09
322.238
322.478
322.474
322.712
322.919
322.788
322.82
322.677
322.382
322.202
322.077
321.846
321.428
321.12
315.744
315.957
316.359
316.541
316.724
317.111
317.217
317.459
317.392
317.578
317.804
317.649
317.693
317.564
317.365
317.201
317.095
316.892
316.601
316.341
311.217
311.415
311.646
311.762
311.876
312.188
312.27
312.468
312.334
312.491
312.73
312.569
312.565
312.522
312.401
312.27
312.179
312.021
311.868
311.641
306.721
306.872
306.955
307.061
307.116
307.318
307.35
307.471
307.373
307.462
307.649
307.533
307.512
307.527
307.436
307.385
307.316
307.172
307.132
306.968
302.257
302.311
302.328
302.371
302.396
302.445
302.459
302.496
302.466
302.515
302.568
302.508
302.514
302.512
302.499
302.464
302.44
302.373
302.395
302.33
334.748
335.508
336.068
337.063
337.277
338.064
338.23
338.708
339.093
339.35
339.382
339.397
339.344
339.16
338.864
338.421
338.219
337.777
337.128
336.697
330.018
330.699
331.121
331.945
332.102
332.854
332.95
333.359
333.687
333.922
333.925
333.888
333.904
333.763
333.47
333.092
332.954
332.616
332.038
331.717
325.337
325.899
326.228
326.841
327.036
327.698
327.736
328.086
328.327
328.538
328.513
328.528
328.55
328.456
328.134
327.831
327.772
327.493
326.986
326.686
320.676
321.144
321.361
321.816
322.023
322.582
322.598
322.866
323.033
323.206
323.212
323.201
323.267
323.248
322.897
322.676
322.646
322.407
321.985
321.742
316.023
316.425
316.565
316.872
317.077
317.461
317.496
317.726
317.797
317.983
317.995
317.931
318.066
318.041
317.778
317.586
317.558
317.378
317.053
316.872
311.457
311.724
311.843
311.985
312.165
312.375
312.466
312.656
312.705
312.805
312.84
312.76
312.829
312.882
312.671
312.537
312.523
312.393
312.162
312.016
306.846
307.036
307.128
307.203
307.299
307.426
307.455
307.624
307.622
307.665
307.733
307.663
307.698
307.752
307.622
307.527
307.507
307.431
307.282
307.208
302.297
302.337
302.388
302.417
302.436
302.485
302.486
302.54
302.548
302.559
302.593
302.571
302.595
302.594
302.545
302.535
302.496
302.508
302.433
302.404
335.334
336.289
336.751
337.534
338.062
338.724
339.225
339.634
340.029
339.965
340.144
340.253
340.221
339.989
339.861
339.24
338.81
338.439
337.611
337.156
330.461
331.287
331.726
332.388
332.785
333.369
333.85
334.169
334.516
334.431
334.551
334.659
334.666
334.454
334.376
333.843
333.461
333.132
332.422
332.075
325.659
326.352
326.766
327.288
327.593
328.118
328.512
328.762
329.055
328.987
329.026
329.157
329.208
328.989
328.942
328.538
328.214
327.888
327.297
327.027
320.917
321.493
321.862
322.241
322.483
322.939
323.261
323.443
323.658
323.66
323.597
323.694
323.788
323.592
323.583
323.284
323.009
322.731
322.207
322.032
316.195
316.656
316.973
317.249
317.421
317.716
318.068
318.168
318.337
318.388
318.282
318.354
318.454
318.277
318.312
318.065
317.846
317.643
317.188
317.084
311.55
311.867
312.136
312.296
312.456
312.596
312.866
312.916
313.07
313.159
313.038
313.085
313.205
313
313.078
312.866
312.715
312.585
312.25
312.19
306.929
307.111
307.322
307.369
307.484
307.531
307.698
307.759
307.827
307.91
307.84
307.894
307.884
307.781
307.842
307.726
307.616
307.567
307.32
307.315
302.313
302.375
302.45
302.466
302.496
302.508
302.571
302.61
302.649
302.641
302.651
302.66
302.616
302.628
302.614
302.583
302.546
302.514
302.462
302.446
335.958
336.731
337.226
338.065
338.621
339.345
340.003
340.174
340.646
340.81
340.849
340.896
340.941
340.735
340.378
339.981
339.449
339.025
338.167
337.638
331.053
331.659
332.142
332.763
333.258
333.906
334.484
334.604
335.037
335.137
335.197
335.27
335.269
335.07
334.815
334.455
334.005
333.67
332.928
332.416
326.178
326.628
327.123
327.598
327.99
328.554
329.056
329.095
329.514
329.522
329.601
329.698
329.713
329.525
329.324
329.031
328.638
328.35
327.727
327.285
321.302
321.684
322.148
322.519
322.757
323.278
323.706
323.686
324.079
324.014
324.142
324.165
324.22
324.04
323.874
323.651
323.359
323.091
322.567
322.22
316.468
316.743
317.211
317.456
317.603
318.026
318.412
318.366
318.683
318.601
318.712
318.762
318.792
318.634
318.548
318.343
318.161
317.945
317.508
317.238
311.707
311.898
312.258
312.44
312.541
312.818
313.151
313.116
313.302
313.265
313.343
313.375
313.37
313.255
313.225
313.069
312.934
312.812
312.466
312.324
307.007
307.12
307.326
307.435
307.507
307.707
307.878
307.864
307.946
307.985
308.002
308.03
308.046
307.94
307.928
307.82
307.747
307.698
307.48
307.422
302.352
302.367
302.458
302.487
302.504
302.595
302.646
302.635
302.645
302.676
302.692
302.704
302.688
302.668
302.637
302.618
302.594
302.567
302.488
302.489
336.26
337.101
337.799
338.732
339.225
339.935
340.478
340.623
341.246
341.316
341.464
341.553
341.648
341.148
341.102
340.45
340.052
339.69
338.913
338.298
331.254
332.043
332.605
333.385
333.838
334.383
334.879
335.007
335.546
335.634
335.747
335.866
335.953
335.499
335.429
334.89
334.515
334.236
333.551
333.065
326.313
327.003
327.513
328.125
328.522
328.986
329.337
329.496
329.924
330.035
330.127
330.219
330.278
329.908
329.818
329.41
329.094
328.802
328.274
327.869
321.412
322.059
322.463
322.894
323.256
323.64
323.913
324.025
324.354
324.496
324.544
324.659
324.722
324.347
324.266
323.99
323.735
323.449
323.05
322.725
316.544
317.123
317.422
317.733
318.018
318.305
318.521
318.614
318.902
318.994
318.986
319.145
319.168
318.872
318.79
318.6
318.412
318.146
317.867
317.637
311.747
312.218
312.426
312.611
312.813
313.015
313.132
313.245
313.496
313.538
313.53
313.669
313.635
313.439
313.378
313.284
313.128
312.961
312.722
312.554
307.044
307.331
307.46
307.542
307.701
307.775
307.852
307.925
308.085
308.128
308.12
308.19
308.156
308.105
308.041
307.966
307.877
307.76
307.615
307.525
302.372
302.462
302.507
302.516
302.588
302.582
302.613
302.634
302.687
302.725
302.714
302.739
302.718
302.712
302.69
302.672
302.645
302.602
302.552
302.52
336.481
337.489
338.21
339.007
339.742
340.057
340.573
341.112
341.555
341.966
341.832
342.08
342.061
341.449
341.399
340.882
340.412
340.175
339.242
338.905
331.445
332.373
332.946
333.598
334.257
334.529
334.896
335.471
335.83
336.177
336.047
336.284
336.295
335.707
335.71
335.239
334.854
334.632
333.854
333.594
326.434
327.261
327.729
328.232
328.819
329.047
329.353
329.868
330.235
330.5
330.33
330.522
330.54
330.065
330.07
329.628
329.361
329.12
328.539
328.328
321.514
322.214
322.585
322.993
323.475
323.69
323.89
324.301
324.693
324.874
324.726
324.89
324.902
324.503
324.499
324.134
323.948
323.724
323.291
323.108
316.67
317.274
317.494
317.847
318.151
318.369
318.469
318.828
319.189
319.283
319.19
319.334
319.285
318.955
319.005
318.69
318.553
318.356
318.075
317.896
311.882
312.34
312.43
312.738
312.884
313.077
313.15
313.424
313.757
313.725
313.731
313.777
313.724
313.477
313.534
313.275
313.188
313.054
312.88
312.746
307.174
307.404
307.428
307.647
307.705
307.849
307.885
308.066
308.265
308.249
308.258
308.277
308.245
308.059
308.093
307.978
307.911
307.807
307.707
307.649
302.415
302.481
302.488
302.55
302.574
302.63
302.654
302.702
302.782
302.757
302.759
302.774
302.752
302.689
302.717
302.687
302.652
302.62
302.578
302.568
)
;

boundaryField
{
    hotSide
    {
        type            fixedGradient;
        gradient        nonuniform List<scalar> 
400
(
229.204
241.449
253.677
265.834
277.865
289.714
301.325
312.641
323.606
334.164
344.262
353.847
362.869
371.281
379.038
386.1
392.429
397.992
402.761
406.712
233.485
246.118
258.739
271.293
283.724
295.973
307.983
319.694
331.049
341.99
352.462
362.409
371.78
380.527
388.602
395.963
402.571
408.393
413.397
417.56
237.252
250.245
263.231
276.155
288.958
301.58
313.962
326.042
337.762
349.061
359.883
370.171
379.87
388.931
397.306
404.95
411.823
417.889
423.117
427.482
240.519
253.84
267.162
280.425
293.569
306.535
319.259
331.68
343.736
355.366
366.512
377.114
387.118
396.471
405.124
413.031
420.15
426.445
431.884
436.438
243.3
256.918
270.542
284.111
297.565
310.841
323.875
336.605
348.966
360.898
372.337
383.226
393.507
403.127
412.034
420.182
427.528
434.033
439.665
444.395
245.614
259.495
273.386
287.226
300.954
314.505
327.815
340.819
353.453
365.651
377.354
388.498
399.027
408.885
418.021
426.385
433.934
440.628
446.434
451.323
247.477
261.584
275.706
289.781
303.746
317.535
331.084
344.325
357.194
369.626
381.556
392.923
403.668
413.734
423.068
431.621
439.348
446.209
452.168
457.196
248.907
263.202
277.516
291.786
305.949
319.937
333.685
347.126
360.193
372.819
384.941
396.495
407.422
417.663
427.165
435.877
443.754
450.756
456.845
461.992
249.915
264.359
278.825
293.251
307.57
321.717
335.624
349.223
362.447
375.229
387.504
399.208
410.28
420.661
430.298
439.139
447.137
454.252
460.447
465.691
250.511
265.063
279.64
294.179
308.613
322.876
336.899
350.614
363.954
376.851
389.239
401.053
412.233
422.719
432.455
441.392
449.481
456.681
462.955
468.272
250.7
265.319
279.964
294.573
309.078
323.413
337.509
351.297
364.71
377.679
390.139
402.023
413.271
423.824
433.625
442.623
450.771
458.027
464.352
469.717
250.481
265.123
279.794
294.429
308.961
323.323
337.447
351.265
364.707
377.705
390.193
402.107
413.384
423.964
433.793
442.818
450.992
458.272
464.622
470.009
249.848
264.471
279.123
293.739
308.253
322.598
336.706
350.507
363.933
376.916
389.391
401.292
412.557
423.126
432.946
441.962
450.129
457.404
463.749
469.133
248.791
263.352
277.941
292.494
306.944
321.226
335.271
349.01
362.376
375.301
387.719
399.564
410.777
421.297
431.069
440.042
448.169
455.407
461.719
467.075
247.297
261.751
276.232
290.677
305.019
319.192
333.129
346.762
360.023
372.845
385.162
396.911
408.031
418.462
428.151
437.045
445.099
452.27
458.522
463.824
245.347
259.651
273.981
288.272
302.46
316.48
330.264
343.746
356.858
369.534
381.709
393.32
404.307
414.612
424.18
432.962
440.911
447.985
454.149
459.372
242.922
257.034
271.168
285.262
299.253
313.075
326.662
339.948
352.868
365.356
377.347
388.781
399.597
409.738
419.151
427.787
435.599
442.549
448.599
453.721
240.002
253.88
267.776
281.63
295.38
308.961
322.308
335.357
348.043
360.302
372.07
383.287
393.895
403.837
413.061
421.519
429.167
435.964
441.876
446.874
236.57
250.172
263.789
277.362
290.829
304.128
317.194
329.965
342.377
354.367
365.874
376.838
387.202
396.911
405.915
414.166
421.621
428.241
433.992
438.846
232.609
245.897
259.196
272.447
285.592
298.569
311.315
323.769
335.869
347.554
358.764
369.44
379.528
388.973
397.727
405.744
412.98
419.4
424.969
429.661
)
;
    }
    coldSide
    {
        type            mixed;
        refValue        uniform 300;
        refGradient     uniform 0;
        valueFraction   uniform 0.991591;
        source          uniform 0;
        value           nonuniform List<scalar> 
400
(
300.012
300.012
300.013
300.013
300.013
300.014
300.015
300.015
300.016
300.017
300.017
300.017
300.018
300.019
300.019
300.019
300.019
300.02
300.02
300.02
300.012
300.012
300.013
300.013
300.014
300.015
300.015
300.015
300.016
300.017
300.017
300.018
300.018
300.019
300.019
300.02
300.02
300.02
300.021
300.021
300.012