/*--------------------------------*- C++ -*----------------------------------*\
| =========                 |                                                 |
| \\      /  F ield         | OpenFOAM: The Open Source CFD Toolbox           |
|  \\    /   O peration     | Version:  2212                                  |
|   \\  /    A nd           | Website:  www.openfoam.com                      |
|    \\/     M anipulation  |                                                 |
\*---------------------------------------------------------------------------*/
FoamFile
{
    version     2.0;
    format      ascii;
    arch        "LSB;label=32;scalar=64";
    class       volScalarField;
    location    "0";
    object      Tdirect;
}
// * * * * * * * * * * * * * * * * * * * * * * * * * * * * * * * * * * * * * //

dimensions      [0 0 0 1 0 0 0];

internalField   nonuniform List<scalar> 
3200
(
376.556
377.404
378.433
379.537
380.671
381.787
382.818
383.691
384.327
384.664
384.664
384.327
383.691
382.818
381.787
380.671
379.537
378.433
377.404
376.556
370.245
370.924
371.762
372.665
373.593
374.504
375.347
376.059
376.579
376.854
376.854
376.579
376.059
375.347
374.504
373.593
372.665
371.762
370.924
370.245
363.146
363.682
364.355
365.081
365.827
366.559
367.236
367.808
368.226
368.446
368.446
368.226
367.808
367.236
366.559
365.827
365.081
364.355
363.682
363.146
355.077
355.491
356.017
356.586
357.171
357.744
358.274
358.722
359.049
359.221
359.221
359.049
358.722
358.274
357.744
357.171
356.586
356.017
355.491
355.077
345.831
346.138
346.532
346.96
347.399
347.83
348.227
348.563
348.808
348.938
348.938
348.808
348.563
348.227
347.83
347.399
346.96
346.532
346.138
345.831
335.169
335.38
335.654
335.951
336.257
336.557
336.833
337.067
337.237
337.327
337.327
337.237
337.067
336.833
336.557
336.257
335.951
335.654
335.38
335.169
322.814
322.938
323.099
323.275
323.455
323.632
323.795
323.933
324.033
324.086
324.086
324.033
323.933
323.795
323.632
323.455
323.275
323.099
322.938
322.814
308.447
308.488
308.542
308.6
308.66
308.719
308.773
308.818
308.852
308.869
308.869
308.852
308.818
308.773
308.719
308.66
308.6
308.542
308.488
308.447
376.608
377.449
378.468
379.562
380.685
381.787
382.807
383.668
384.296
384.629
384.629
384.296
383.668
382.807
381.787
380.685
379.562
378.468
377.449
376.608
370.286
370.96
371.792
372.686
373.604
374.505
375.338
376.041
376.554
376.825
376.825
376.554
376.041
375.338
374.505
373.604
372.686
371.792
370.96
370.286
363.179
363.711
364.378
365.098
365.836
366.56
367.229
367.794
368.206
368.423
368.423
368.206
367.794
367.229
366.56
365.836
365.098
364.378
363.711
363.179
355.103
355.514
356.035
356.599
357.178
357.745
358.269
358.711
359.033
359.204
359.204
359.033
358.711
358.269
357.745
357.178
356.599
356.035
355.514
355.103
345.851
346.155
346.546
346.969
347.404
347.83
348.223
348.555
348.797
348.925
348.925
348.797
348.555
348.223
347.83
347.404
346.969
346.546
346.155
345.851
335.182
335.392
335.664
335.958
336.261
336.557
336.831
337.061
337.229
337.318
337.318
337.229
337.061
336.831
336.557
336.261
335.958
335.664
335.392
335.182
322.822
322.945
323.105
323.279
323.457
323.632
323.793
323.929
324.029
324.081
324.081
324.029
323.929
323.793
323.632
323.457
323.279
323.105
322.945
322.822
308.45
308.49
308.544
308.601
308.661
308.719
308.772
308.817
308.85
308.868
308.868
308.85
308.817
308.772
308.719
308.661
308.601
308.544
308.49
308.45
376.711
377.538
378.54
379.614
380.714
381.792
382.787
383.627
384.239
384.563
384.563
384.239
383.627
382.787
381.792
380.714
379.614
378.54
377.538
376.711
370.371
371.034
371.851
372.729
373.628
374.51
375.323
376.009
376.508
376.772
376.772
376.508
376.009
375.323
374.51
373.628
372.729
371.851
371.034
370.371
363.247
363.77
364.426
365.132
365.856
366.564
367.217
367.768
368.169
368.381
368.381
368.169
367.768
367.217
366.564
365.856
365.132
364.426
363.77
363.247
355.156
355.56
356.073
356.626
357.193
357.748
358.26
358.691
359.005
359.171
359.171
359.005
358.691
358.26
357.748
357.193
356.626
356.073
355.56
355.156
345.891
346.19
346.575
346.99
347.416
347.833
348.217
348.54
348.776
348.9
348.9
348.776
348.54
348.217
347.833
347.416
346.99
346.575
346.19
345.891
335.21
335.416
335.684
335.973
336.269
336.559
336.826
337.051
337.215
337.301
337.301
337.215
337.051
336.826
336.559
336.269
335.973
335.684
335.416
335.21
322.838
322.959
323.117
323.287
323.462
323.633
323.791
323.923
324.02
324.071
324.071
324.02
323.923
323.791
323.633
323.462
323.287
323.117
322.959
322.838
308.455
308.495
308.547
308.604
308.662
308.719
308.771
308.815
308.847
308.864
308.864
308.847
308.815
308.771
308.719
308.662
308.604
308.547
308.495
308.455
376.867
377.676
378.652
379.696
380.763
381.807
382.767
383.576
384.165
384.476
384.476
384.165
383.576
382.767
381.807
380.763
379.696
378.652
377.676
376.867
370.499
371.146
371.943
372.796
373.669
374.522
375.307
375.968
376.448
376.702
376.702
376.448
375.968
375.307
374.522
373.669
372.796
371.943
371.146
370.499
363.35
363.861
364.5
365.187
365.889
366.574
367.205
367.736
368.122
368.326
368.326
368.122
367.736
367.205
366.574
365.889
365.187
364.5
363.861
363.35
355.237
355.631
356.131
356.669
357.219
357.757
358.251
358.666
358.968
359.128
359.128
358.968
358.666
358.251
357.757
357.219
356.669
356.131
355.631
355.237
345.951
346.244
346.618
347.023
347.436
347.839
348.21
348.522
348.749
348.868
348.868
348.749
348.522
348.21
347.839
347.436
347.023
346.618
346.244
345.951
335.252
335.454
335.714
335.995
336.283
336.564
336.821
337.038
337.196
337.279
337.279
337.196
337.038
336.821
336.564
336.283
335.995
335.714
335.454
335.252
322.863
322.981
323.135
323.301
323.47
323.636
323.788
323.916
324.009
324.058
324.058
324.009
323.916
323.788
323.636
323.47
323.301
323.135
322.981
322.863
308.463
308.502
308.553
308.609
308.665
308.72
308.77
308.813
308.844
308.86
308.86
308.844
308.813
308.77
308.72
308.665
308.609
308.553
308.502
308.463
377.079
377.863
378.808
379.814
380.839
381.838
382.756
383.526
384.086
384.381
384.381
384.086
383.526
382.756
381.838
380.839
379.814
378.808
377.863
377.079
370.672
371.3
372.07
372.893
373.732
374.549
375.298
375.928
376.385
376.626
376.626
376.385
375.928
375.298
374.549
373.732
372.893
372.07
371.3
370.672
363.489
363.985
364.603
365.265
365.94
366.597
367.199
367.705
368.072
368.265
368.265
368.072
367.705
367.199
366.597
365.94
365.265
364.603
363.985
363.489
355.346
355.729
356.212
356.731
357.26
357.774
358.246
358.642
358.93
359.081
359.081
358.93
358.642
358.246
357.774
357.26
356.731
356.212
355.729
355.346
346.033
346.317
346.679
347.069
347.466
347.853
348.207
348.504
348.72
348.833
348.833
348.72
348.504
348.207
347.853
347.466
347.069
346.679
346.317
346.033
335.309
335.505
335.757
336.028
336.304
336.573
336.82
337.026
337.176
337.255
337.255
337.176
337.026
336.82
336.573
336.304
336.028
335.757
335.505
335.309
322.897
323.011
323.16
323.32
323.483
323.642
323.787
323.909
323.997
324.044
324.044
323.997
323.909
323.787
323.642
323.483
323.32
323.16
323.011
322.897
308.475
308.512
308.562
308.615
308.669
308.722
308.77
308.811
308.84
308.855
308.855
308.84
308.811
308.77
308.722
308.669
308.615
308.562
308.512
308.475
377.35
378.105
379.011
379.973
380.949
381.897
382.765
383.491
384.017
384.293
384.293
384.017
383.491
382.765
381.897
380.949
379.973
379.011
378.105
377.35
370.894
371.498
372.237
373.024
373.823
374.598
375.307
375.9
376.33
376.556
376.556
376.33
375.9
375.307
374.598
373.823
373.024
372.237
371.498
370.894
363.668
364.145
364.738
365.371
366.013
366.637
367.206
367.683
368.028
368.21
368.21
368.028
367.683
367.206
366.637
366.013
365.371
364.738
364.145
363.668
355.486
355.854
356.318
356.814
357.318
357.806
358.253
358.626
358.896
359.038
359.038
358.896
358.626
358.253
357.806
357.318
356.814
356.318
355.854
355.486
346.138
346.411
346.759
347.131
347.51
347.877
348.212
348.492
348.695
348.802
348.802
348.695
348.492
348.212
347.877
347.51
347.131
346.759
346.411
346.138
335.382
335.57
335.812
336.071
336.335
336.59
336.823
337.018
337.159
337.233
337.233
337.159
337.018
336.823
336.59
336.335
336.071
335.812
335.57
335.382
322.94
323.05
323.193
323.346
323.501
323.652
323.789
323.904
323.988
324.031
324.031
323.988
323.904
323.789
323.652
323.501
323.346
323.193
323.05
322.94
308.489
308.525
308.573
308.623
308.675
308.725
308.771
308.809
308.837
308.851
308.851
308.837
308.809
308.771
308.725
308.675
308.623
308.573
308.525
308.489
377.683
378.405
379.268
380.18
381.103
381.994
382.806
383.484
383.974
384.231
384.231
383.974
383.484
382.806
381.994
381.103
380.18
379.268
378.405
377.683
371.166
371.744
372.448
373.194
373.949
374.678
375.342
375.896
376.296
376.506
376.506
376.296
375.896
375.342
374.678
373.949
373.194
372.448
371.744
371.166
363.886
364.343
364.908
365.508
366.115
366.702
367.236
367.681
368.002
368.171
368.171
368.002
367.681
367.236
366.702
366.115
365.508
364.908
364.343
363.886
355.658
356.009
356.451
356.922
357.398
357.858
358.276
358.625
358.877
359.009
359.009
358.877
358.625
358.276
357.858
357.398
356.922
356.451
356.009
355.658
346.267
346.528
346.859
347.213
347.571
347.916
348.23
348.492
348.681
348.78
348.78
348.681
348.492
348.23
347.916
347.571
347.213
346.859
346.528
346.267
335.472
335.652
335.882
336.128
336.377
336.617
336.836
337.018
337.149
337.218
337.218
337.149
337.018
336.836
336.617
336.377
336.128
335.882
335.652
335.472
322.993
323.098
323.234
323.379
323.526
323.668
323.797
323.904
323.982
324.023
324.023
323.982
323.904
323.797
323.668
323.526
323.379
323.234
323.098
322.993
308.506
308.541
308.586
308.635
308.683
308.731
308.773
308.809
308.835
308.848
308.848
308.835
308.809
308.773
308.731
308.683
308.635
308.586
308.541
308.506
378.081
378.767
379.584
380.443
381.308
382.14
382.894
383.521
383.973
384.209
384.209
383.973
383.521
382.894
382.14
381.308
380.443
379.584
378.767
378.081
371.491
372.04
372.707
373.41
374.118
374.798
375.415
375.928
376.296
376.49
376.49
376.296
375.928
375.415
374.798
374.118
373.41
372.707
372.04
371.491
364.148
364.582
365.117
365.682
366.252
366.799
367.295
367.707
368.004
368.159
368.159
368.004
367.707
367.295
366.799
366.252
365.682
365.117
364.582
364.148
355.863
356.197
356.616
357.059
357.505
357.935
358.323
358.646
358.879
359
359
358.879
358.646
358.323
357.935
357.505
357.059
356.616
356.197
355.863
346.421
346.669
346.983
347.316
347.651
347.974
348.266
348.508
348.683
348.774
348.774
348.683
348.508
348.266
347.974
347.651
347.316
346.983
346.669
346.421
335.579
335.75
335.968
336.2
336.433
336.658
336.861
337.03
337.151
337.215
337.215
337.151
337.03
336.861
336.658
336.433
336.2
335.968
335.75
335.579
323.056
323.156
323.285
323.422
323.559
323.692
323.812
323.911
323.983
324.02
324.02
323.983
323.911
323.812
323.692
323.559
323.422
323.285
323.156
323.056
308.528
308.561
308.603
308.649
308.695
308.738
308.778
308.811
308.835
308.848
308.848
308.835
308.811
308.778
308.738
308.695
308.649
308.603
308.561
308.528
378.548
379.196
379.964
380.769
381.574
382.344
383.04
383.616
384.029
384.245
384.245
384.029
383.616
383.04
382.344
381.574
380.769
379.964
379.196
378.548
371.874
372.392
373.019
373.677
374.336
374.967
375.535
376.006
376.344
376.521
376.521
376.344
376.006
375.535
374.967
374.336
373.677
373.019
372.392
371.874
364.456
364.865
365.368
365.898
366.428
366.935
367.393
367.772
368.043
368.185
368.185
368.043
367.772
367.393
366.935
366.428
365.898
365.368
364.865
364.456
356.104
356.42
356.813
357.229
357.644
358.042
358.401
358.697
358.91
359.021
359.021
358.91
358.697
358.401
358.042
357.644
357.229
356.813
356.42
356.104
346.602
346.837
347.132
347.444
347.756
348.055
348.324
348.547
348.707
348.791
348.791
348.707
348.547
348.324
348.055
347.756
347.444
347.132
346.837
346.602
335.705
335.867
336.072
336.289
336.506
336.714
336.902
337.057
337.168
337.226
337.226
337.168
337.057
336.902
336.714
336.506
336.289
336.072
335.867
335.705
323.131
323.225
323.346
323.474
323.603
323.725
323.836
323.927
323.993
324.027
324.027
323.993
323.927
323.836
323.725
323.603
323.474
323.346
323.225
323.131
308.552
308.584
308.624
308.666
308.709
308.75
308.786
308.817
308.839
308.85
308.85
308.839
308.817
308.786
308.75
308.709
308.666
308.624
308.584
308.552
379.088
379.697
380.416
381.164
381.909
382.619
383.256
383.781
384.157
384.353
384.353
384.157
383.781
383.256
382.619
381.909
381.164
380.416
379.697
379.088
372.315
372.803
373.389
374.002
374.611
375.192
375.713
376.143
376.45
376.61
376.61
376.45
376.143
375.713
375.192
374.611
374.002
373.389
372.803
372.315
364.811
365.196
365.667
366.16
366.65
367.118
367.537
367.882
368.129
368.258
368.258
368.129
367.882
367.537
367.118
366.65
366.16
365.667
365.196
364.811
356.383
356.679
357.048
357.434
357.819
358.185
358.514
358.785
358.978
359.08
359.08
358.978
358.785
358.514
358.185
357.819
357.434
357.048
356.679
356.383
346.812
347.032
347.308
347.598
347.888
348.163
348.41
348.613
348.759
348.835
348.835
348.759
348.613
348.41
348.163
347.888
347.598
347.308
347.032
346.812
335.851
336.003
336.195
336.397
336.598
336.79
336.962
337.103
337.204
337.257
337.257
337.204
337.103
336.962
336.79
336.598
336.397
336.195
336.003
335.851
323.217
323.306
323.419
323.538
323.657
323.77
323.871
323.955
324.015
324.046
324.046
324.015
323.955
323.871
323.77
323.657
323.538
323.419
323.306
323.217
308.581
308.61
308.648
308.687
308.727
308.764
308.798
308.826
308.846
308.856
308.856
308.846
308.826
308.798
308.764
308.727
308.687
308.648
308.61
308.581
379.704
380.274
380.943
381.636
382.321
382.971
383.551
384.028
384.367
384.544
384.544
384.367
384.028
383.551
382.971
382.321
381.636
380.943
380.274
379.704
372.819
373.275
373.821
374.388
374.95
375.481
375.956
376.346
376.624
376.769
376.769
376.624
376.346
375.956
375.481
374.95
374.388
373.821
373.275
372.819
365.217
365.577
366.015
366.471
366.923
367.351
367.733
368.047
368.27
368.387
368.387
368.27
368.047
367.733
367.351
366.923
366.471
366.015
365.577
365.217
356.701
356.978
357.321
357.679
358.033
358.369
358.669
358.915
359.09
359.181
359.181
359.09
358.915
358.669
358.369
358.033
357.679
357.321
356.978
356.701
347.051
347.257
347.514
347.783
348.049
348.301
348.526
348.711
348.843
348.911
348.911
348.843
348.711
348.526
348.301
348.049
347.783
347.514
347.257
347.051
336.018
336.159
336.338
336.525
336.711
336.886
337.043
337.172
337.263
337.311
337.311
337.263
337.172
337.043
336.886
336.711
336.525
336.338
336.159
336.018
323.315
323.398
323.503
323.614
323.723
323.827
323.919
323.995
324.049
324.077
324.077
324.049
323.995
323.919
323.827
323.723
323.614
323.503
323.398
323.315
308.613
308.641
308.676
308.713
308.749
308.783
308.814
308.839
308.857
308.867
308.867
308.857
308.839
308.814
308.783
308.749
308.713
308.676
308.641
308.613
380.4
380.93
381.55
382.189
382.817
383.409
383.936
384.366
384.672
384.83
384.83
384.672
384.366
383.936
383.409
382.817
382.189
381.55
380.93
380.4
373.389
373.813
374.319
374.842
375.357
375.841
376.272
376.624
376.874
377.004
377.004
376.874
376.624
376.272
375.841
375.357
374.842
374.319
373.813
373.389
365.675
366.01
366.416
366.837
367.251
367.642
367.988
368.272
368.473
368.577
368.577
368.473
368.272
367.988
367.642
367.251
366.837
366.416
366.01
365.675
357.06
357.319
357.636
357.966
358.291
358.597
358.869
359.091
359.249
359.331
359.331
359.249
359.091
358.869
358.597
358.291
357.966
357.636
357.319
357.06
347.321
347.513
347.751
347.999
348.243
348.473
348.677
348.844
348.963
349.025
349.025
348.963
348.844
348.677
348.473
348.243
347.999
347.751
347.513
347.321
336.206
336.338
336.503
336.676
336.846
337.006
337.148
337.264
337.347
337.39
337.39
337.347
337.264
337.148
337.006
336.846
336.676
336.503
336.338
336.206
323.426
323.503
323.601
323.703
323.803
323.898
323.982
324.05
324.099
324.124
324.124
324.099
324.05
323.982
323.898
323.803
323.703
323.601
323.503
323.426
308.65
308.676
308.708
308.742
308.776
308.807
308.835
308.858
308.874
308.882
308.882
308.874
308.858
308.835
308.807
308.776
308.742
308.708
308.676
308.65
381.178
381.67
382.243
382.829
383.403
383.94
384.416
384.803
385.077
385.219
385.219
385.077
384.803
384.416
383.94
383.403
382.829
382.243
381.67
381.178
374.026
374.42
374.887
375.367
375.837
376.277
376.666
376.983
377.207
377.323
377.323
377.207
376.983
376.666
376.277
375.837
375.367
374.887
374.42
374.026
366.188
366.499
366.874
367.26
367.639
367.993
368.306
368.561
368.742
368.835
368.835
368.742
368.561
368.306
367.993
367.639
367.26
366.874
366.499
366.188
357.462
357.702
357.996
358.299
358.595
358.873
359.119
359.319
359.46
359.534
359.534
359.46
359.319
359.119
358.873
358.595
358.299
357.996
357.702
357.462
347.623
347.801
348.021
348.249
348.472
348.681
348.866
349.016
349.122
349.177
349.177
349.122
349.016
348.866
348.681
348.472
348.249
348.021
347.801
347.623
336.416
336.539
336.691
336.85
337.005
337.151
337.279
337.384
337.458
337.496
337.496
337.458
337.384
337.279
337.151
337.005
336.85
336.691
336.539
336.416
323.55
323.622
323.712
323.806
323.897
323.983
324.059
324.121
324.164
324.187
324.187
324.164
324.121
324.059
323.983
323.897
323.806
323.712
323.622
323.55
308.692
308.715
308.745
308.776
308.807
308.835
308.861
308.881
308.896
308.903
308.903
308.896
308.881
308.861
308.835
308.807
308.776
308.745
308.715
308.692
382.041
382.497
383.024
383.56
384.082
384.569
384.997
385.344
385.589
385.716
385.716
385.589
385.344
384.997
384.569
384.082
383.56
383.024
382.497
382.041
374.732
375.097
375.527
375.966
376.394
376.792
377.143
377.427
377.628
377.731
377.731
377.628
377.427
377.143
376.792
376.394
375.966
375.527
375.097
374.732
366.757
367.044
367.39
367.743
368.088
368.408
368.691
368.919
369.081
369.164
369.164
369.081
368.919
368.691
368.408
368.088
367.743
367.39
367.044
366.757
357.909
358.13
358.4
358.678
358.948
359.2
359.421
359.6
359.727
359.793
359.793
359.727
359.6
359.421
359.2
358.948
358.678
358.4
358.13
357.909
347.959
348.123
348.326
348.534
348.737
348.926
349.093
349.228
349.323
349.372
349.372
349.323
349.228
349.093
348.926
348.737
348.534
348.326
348.123
347.959
336.65
336.763
336.904
337.049
337.19
337.322
337.438
337.532
337.598
337.632
337.632
337.598
337.532
337.438
337.322
337.19
337.049
336.904
336.763
336.65
323.688
323.754
323.837
323.923
324.006
324.084
324.153
324.208
324.247
324.267
324.267
324.247
324.208
324.153
324.084
324.006
323.923
323.837
323.754
323.688
308.737
308.759
308.787
308.815
308.843
308.869
308.892
308.91
308.923
308.93
308.93
308.923
308.91
308.892
308.869
308.843
308.815
308.787
308.759
308.737
382.992
383.412
383.895
384.385
384.859
385.299
385.683
385.994
386.213
386.326
386.326
386.213
385.994
385.683
385.299
384.859
384.385
383.895
383.412
382.992
375.51
375.846
376.241
376.642
377.031
377.39
377.705
377.96
378.139
378.231
378.231
378.139
377.96
377.705
377.39
377.031
376.642
376.241
375.846
375.51
367.383
367.648
367.965
368.288
368.601
368.89
369.144
369.349
369.493
369.568
369.568
369.493
369.349
369.144
368.89
368.601
368.288
367.965
367.648
367.383
358.4
358.604
358.852
359.105
359.351
359.578
359.777
359.938
360.051
360.109
360.109
360.051
359.938
359.777
359.578
359.351
359.105
358.852
358.604
358.4
348.328
348.479
348.665
348.856
349.04
349.211
349.361
349.482
349.567
349.61
349.61
349.567
349.482
349.361
349.211
349.04
348.856
348.665
348.479
348.328
336.907
337.011
337.14
337.273
337.401
337.52
337.624
337.708
337.768
337.798
337.798
337.768
337.708
337.624
337.52
337.401
337.273
337.14
337.011
336.907
323.84
323.901
323.977
324.055
324.131
324.201
324.263
324.312
324.347
324.365
324.365
324.347
324.312
324.263
324.201
324.131
324.055
323.977
323.901
323.84
308.788
308.808
308.833
308.859
308.884
308.908
308.928
308.945
308.956
308.962
308.962
308.956
308.945
308.928
308.908
308.884
308.859
308.833
308.808
308.788
384.029
384.416
384.859
385.305
385.735
386.131
386.476
386.753
386.948
387.049
387.049
386.948
386.753
386.476
386.131
385.735
385.305
384.859
384.416
384.029
376.36
376.669
377.03
377.396
377.748
378.072
378.355
378.582
378.742
378.824
378.824
378.742
378.582
378.355
378.072
377.748
377.396
377.03
376.669
376.36
368.066
368.31
368.601
368.895
369.178
369.439
369.667
369.85
369.979
370.045
370.045
369.979
369.85
369.667
369.439
369.178
368.895
368.601
368.31
368.066
358.935
359.124
359.351
359.582
359.804
360.009
360.188
360.331
360.432
360.484
360.484
360.432
360.331
360.188
360.009
359.804
359.582
359.351
359.124
358.935
348.73
348.87
349.04
349.214
349.381
349.535
349.669
349.777
349.853
349.892
349.892
349.853
349.777
349.669
349.535
349.381
349.214
349.04
348.87
348.73
337.187
337.283
337.401
337.522
337.638
337.746
337.839
337.915
337.967
337.995
337.995
337.967
337.915
337.839
337.746
337.638
337.522
337.401
337.283
337.187
324.005
324.061
324.131
324.202
324.271
324.334
324.39
324.434
324.465
324.481
324.481
324.465
324.434
324.39
324.334
324.271
324.202
324.131
324.061
324.005
308.843
308.861
308.884
308.908
308.931
308.952
308.97
308.985
308.996
309.001
309.001
308.996
308.985
308.97
308.952
308.931
308.908
308.884
308.861
308.843
385.15
385.506
385.911
386.317
386.706
387.062
387.372
387.62
387.793
387.882
387.882
387.793
387.62
387.372
387.062
386.706
386.317
385.911
385.506
385.15
377.276
377.56
377.891
378.223
378.542
378.834
379.088
379.291
379.433
379.506
379.506
379.433
379.291
379.088
378.834
378.542
378.223
377.891
377.56
377.276
368.803
369.027
369.293
369.561
369.817
370.052
370.257
370.42
370.535
370.594
370.594
370.535
370.42
370.257
370.052
369.817
369.561
369.293
369.027
368.803
359.512
359.685
359.893
360.103
360.305
360.489
360.65
360.778
360.868
360.914
360.914
360.868
360.778
360.65
360.489
360.305
360.103
359.893
359.685
359.512
349.164
349.292
349.448
349.606
349.757
349.896
350.016
350.113
350.181
350.215
350.215
350.181
350.113
350.016
349.896
349.757
349.606
349.448
349.292
349.164
337.488
337.576
337.685
337.795
337.9
337.997
338.081
338.148
338.195
338.219
338.219
338.195
338.148
338.081
337.997
337.9
337.795
337.685
337.576
337.488
324.183
324.234
324.298
324.363
324.425
324.483
324.532
324.572
324.6
324.614
324.614
324.6
324.572
324.532
324.483
324.425
324.363
324.298
324.234
324.183
308.902
308.919
308.94
308.962
308.982
309.001
309.018
309.031
309.04
309.045
309.045
309.04
309.031
309.018
309.001
308.982
308.962
308.94
308.919
308.902
386.339
386.665
387.035
387.405
387.757
388.078
388.356
388.578
388.732
388.812
388.812
388.732
388.578
388.356
388.078
387.757
387.405
387.035
386.665
386.339
378.244
378.505
378.807
379.11
379.399
379.662
379.89
380.071
380.198
380.263
380.263
380.198
380.071
379.89
379.662
379.399
379.11
378.807
378.505
378.244
369.578
369.784
370.027
370.271
370.504
370.716
370.899
371.046
371.148
371.201
371.201
371.148
371.046
370.899
370.716
370.504
370.271
370.027
369.784
369.578
360.118
360.277
360.467
360.658
360.841
361.007
361.151
361.266
361.347
361.388
361.388
361.347
361.266
361.151
361.007
360.841
360.658
360.467
360.277
360.118
349.617
349.735
349.877
350.021
350.159
350.284
350.392
350.479
350.539
350.57
350.57
350.539
350.479
350.392
350.284
350.159
350.021
349.877
349.735
349.617
337.803
337.884
337.983
338.083
338.179
338.266
338.342
338.402
338.444
338.466
338.466
338.444
338.402
338.342
338.266
338.179
338.083
337.983
337.884
337.803
324.368
324.415
324.474
324.533
324.59
324.641
324.686
324.721
324.746
324.759
324.759
324.746
324.721
324.686
324.641
324.59
324.533
324.474
324.415
324.368
308.963
308.979
308.998
309.018
309.037
309.054
309.069
309.081
309.089
309.093
309.093
309.089
309.081
309.069
309.054
309.037
309.018
308.998
308.979
308.963
387.538
387.838
388.178
388.516
388.836
389.127
389.377
389.577
389.716
389.787
389.787
389.716
389.577
389.377
389.127
388.836
388.516
388.178
387.838
387.538
379.209
379.45
379.728
380.005
380.267
380.506
380.712
380.876
380.99
381.048
381.048
380.99
380.876
380.712
380.506
380.267
380.005
379.728
379.45
379.209
370.344
370.534
370.757
370.98
371.192
371.385
371.551
371.683
371.775
371.822
371.822
371.775
371.683
371.551
371.385
371.192
370.98
370.757
370.534
370.344
360.71
360.856
361.032
361.207
361.373
361.525
361.655
361.759
361.831
361.869
361.869
361.831
361.759
361.655
361.525
361.373
361.207
361.032
360.856
360.71
350.057
350.165
350.297
350.429
350.554
350.668
350.767
350.845
350.899
350.927
350.927
350.899
350.845
350.767
350.668
350.554
350.429
350.297
350.165
350.057
338.106
338.181
338.272
338.364
338.452
338.531
338.6
338.654
338.692
338.712
338.712
338.692
338.654
338.6
338.531
338.452
338.364
338.272
338.181
338.106
324.546
324.59
324.644
324.698
324.75
324.797
324.837
324.869
324.892
324.903
324.903
324.892
324.869
324.837
324.797
324.75
324.698
324.644
324.59
324.546
309.022
309.037
309.055
309.073
309.09
309.105
309.119
309.13
309.137
309.141
309.141
309.137
309.13
309.119
309.105
309.09
309.073
309.055
309.037
309.022
388.552
388.833
389.15
389.464
389.761
390.029
390.26
390.443
390.57
390.636
390.636
390.57
390.443
390.26
390.029
389.761
389.464
389.15
388.833
388.552
379.993
380.219
380.479
380.738
380.982
381.203
381.393
381.544
381.649
381.703
381.703
381.649
381.544
381.393
381.203
380.982
380.738
380.479
380.219
379.993
370.944
371.123
371.332
371.541
371.739
371.918
372.072
372.194
372.279
372.323
372.323
372.279
372.194
372.072
371.918
371.739
371.541
371.332
371.123
370.944
361.161
361.3
361.464
361.629
361.784
361.926
362.047
362.143
362.21
362.245
362.245
362.21
362.143
362.047
361.926
361.784
361.629
361.464
361.3
361.161
350.385
350.487
350.611
350.735
350.853
350.959
351.051
351.123
351.174
351.2
351.2
351.174
351.123
351.051
350.959
350.853
350.735
350.611
350.487
350.385
338.328
338.399
338.486
338.572
338.654
338.729
338.792
338.843
338.878
338.897
338.897
338.878
338.843
338.792
338.729
338.654
338.572
338.486
338.399
338.328
324.675
324.716
324.767
324.819
324.867
324.911
324.949
324.979
325
325.01
325.01
325
324.979
324.949
324.911
324.867
324.819
324.767
324.716
324.675
309.065
309.078
309.095
309.112
309.128
309.143
309.156
309.166
309.173
309.176
309.176
309.173
309.166
309.156
309.143
309.128
309.112
309.095
309.078
309.065
)
;

boundaryField
{
    hotSide
    {
        type            fixedGradient;
        gradient        nonuniform List<scalar> 
400
(
454.86
455.719
457.45
460.077
463.638
468.179
473.75
480.41
488.216
497.229
507.504
519.096
532.053
546.421
562.237
579.536
598.344
618.684
640.574
664.029
470.996
471.727
473.207
475.469
478.563
482.548
487.493
493.472
500.561
508.835
518.365
529.217
541.45
555.118
570.265
586.928
605.138
624.919
646.289
669.262
488.458
489.037
490.218
492.046
494.587
497.918
502.131
507.32
513.582
521.011
529.695
539.714
551.14
564.034
578.446
594.419
611.985
631.168
651.988
674.454
506.958
507.359
508.193
509.518
511.42
514.002
517.38
521.674
527.006
533.493
541.243
550.351
560.9
572.961
586.59
601.833
618.724
637.286
657.537
679.485
525.978
526.18
526.623
527.386
528.577
530.328
532.786
536.102
540.427
545.902
552.656
560.8
570.432
581.629
594.453
608.951
625.158
643.097
662.781
684.217
544.726
544.714
544.74
544.903
545.34
546.216
547.71
550.009
553.294
557.732
563.475
570.65
579.365
589.707
601.74
615.514
631.061
648.402
667.547
688.498
562.127
561.901
561.512
561.08
560.77
560.783
561.335
562.646
564.927
568.373
573.155
579.417
587.275
596.823
608.128
621.239
636.187
652.989
671.651
692.17
576.896
576.478
575.714
574.747
573.77
573.015
572.732
573.172
574.576
577.159
581.112
586.59
593.719
602.595
613.288
625.845
640.295
656.651
674.916
695.083
587.705
587.138
586.088
584.712
583.227
581.89
580.976
580.763
581.51
583.452
586.79
591.691
598.286
606.672
616.921
629.079
643.171
659.208
677.19
697.106
593.432
592.785
591.579
589.981
588.22
586.567
585.313
584.747
585.141
586.74
589.751
594.345
600.657
608.785
618.8
630.747
644.652
660.523
678.357
698.143
593.432
592.785
591.579
589.981
588.22
586.567
585.313
584.747
585.141
586.74
589.751
594.345
600.657
608.785
618.8
630.747
644.652
660.523
678.357
698.143
587.705
587.138
586.088
584.712
583.227
581.89
580.976
580.763
581.51
583.452
586.79
591.691
598.286
606.672
616.921
629.079
643.171
659.208
677.19
697.106
576.896
576.478
575.714
574.747
573.77
573.015
572.732
573.172
574.576
577.159
581.112
586.59
593.719
602.595
613.288
625.845
640.295
656.651
674.916
695.083
562.127
561.901
561.512
561.08
560.77
560.783
561.335
562.646
564.927
568.373
573.155
579.417
587.275
596.823
608.128
621.239
636.187
652.989
671.651
692.17
544.726
544.714
544.74
544.903
545.34
546.216
547.71
550.009
553.294
557.732
563.475
570.65
579.365
589.707
601.74
615.514
631.061
648.402
667.547
688.498
525.978
526.18
526.623
527.386
528.577
530.328
532.786
536.102
540.427
545.902
552.656
560.8
570.432
581.629
594.453
608.951
625.158
643.097
662.781
684.217
506.958
507.359
508.193
509.518
511.42
514.002
517.38
521.674
527.006
533.493
541.243
550.351
560.9
572.961
586.59
601.833
618.724
637.286
657.537
679.485
488.458
489.037
490.218
492.046
494.587
497.918
502.131
507.32
513.582
521.011
529.695
539.714
551.14
564.034
578.446
594.419
611.985
631.168
651.988
674.454
470.996
471.727
473.207
475.469
478.563
482.548
487.493
493.472
500.561
508.835
518.365
529.217
541.45
555.118
570.265
586.928
605.138
624.919
646.289
669.262
454.86
455.719
457.45
460.077
463.638
468.179
473.75
480.41
488.216
497.229
507.504
519.096
532.053
546.421
562.237
579.536
598.344
618.684
640.574
664.029
)
;
    }
    coldSide
    {
        type            mixed;
        refValue        uniform 300;
        refGradient     uniform 0;
        valueFraction   uniform 0.991591;
        source          uniform 0;
        value           nonuniform List<scalar> 
400
(
300.071
300.071
300.071
300.071
300.071
300.071
300.072
300.072
300.072
300.072
300.072
300.073
300.073
300.073
300.074
300.074
300.075
300.075
300.076
300.076
300.071
300.071
300.071
300.071
300.072
300.072
300.072
300.072
300.072
300.072
300.073
300.073
300.073
300.074
300.074
300.075
300.075
300.076
300.076