/*--------------------------------*- C++ -*----------------------------------*\
| =========                 |                                                 |
| \\      /  F ield         | OpenFOAM: The Open Source CFD Toolbox           |
|  \\    /   O peration     | Version:  2212                                  |
|   \\  /    A nd           | Website:  www.openfoam.com                      |
|    \\/     M anipulation  |                                                 |
\*---------------------------------------------------------------------------*/
FoamFile
{
    version     2.0;
    format      ascii;
    arch        "LSB;label=32;scalar=64";
    class       volScalarField;
    location    "0";
    object      Ttrue;
}
// * * * * * * * * * * * * * * * * * * * * * * * * * * * * * * * * * * * * * //

dimensions      [0 0 0 1 0 0 0];

internalField   nonuniform List<scalar> 
3200
(
346.995
347.761
348.74
349.806
350.904
351.983
352.978
353.818
354.43
354.753
354.753
354.43
353.818
352.978
351.983
350.904
349.806
348.74
347.761
346.995
340.744
341.393
342.237
343.16
344.11
345.043
345.903
346.629
347.157
347.436
347.436
347.157
346.629
345.903
345.043
344.11
343.16
342.237
341.393
340.744
334.489
335.027
335.738
336.517
337.321
338.108
338.835
339.447
339.893
340.129
340.129
339.893
339.447
338.835
338.108
337.321
336.517
335.738
335.027
334.489
328.228
328.662
329.241
329.878
330.535
331.179
331.772
332.272
332.636
332.828
332.828
332.636
332.272
331.772
331.179
330.535
329.878
329.241
328.662
328.228
321.965
322.298
322.747
323.242
323.752
324.253
324.714
325.102
325.385
325.534
325.534
325.385
325.102
324.714
324.253
323.752
323.242
322.747
322.298
321.965
315.699
315.934
316.255
316.608
316.972
317.33
317.659
317.936
318.137
318.244
318.244
318.137
317.936
317.659
317.33
316.972
316.608
316.255
315.934
315.699
309.431
309.571
309.763
309.975
310.194
310.409
310.606
310.773
310.893
310.957
310.957
310.893
310.773
310.606
310.409
310.194
309.975
309.763
309.571
309.431
303.161
303.208
303.273
303.344
303.417
303.489
303.555
303.611
303.651
303.673
303.673
303.651
303.611
303.555
303.489
303.417
303.344
303.273
303.208
303.161
347.138
347.899
348.869
349.925
351.012
352.079
353.062
353.892
354.496
354.815
354.815
354.496
353.892
353.062
352.079
351.012
349.925
348.869
347.899
347.138
340.869
341.512
342.349
343.263
344.204
345.126
345.976
346.693
347.215
347.49
347.49
347.215
346.693
345.976
345.126
344.204
343.263
342.349
341.512
340.869
334.593
335.127
335.832
336.605
337.4
338.179
338.897
339.502
339.942
340.174
340.174
339.942
339.502
338.897
338.179
337.4
336.605
335.832
335.127
334.593
328.314
328.744
329.319
329.95
330.6
331.236
331.823
332.317
332.676
332.866
332.866
332.676
332.317
331.823
331.236
330.6
329.95
329.319
328.744
328.314
322.031
322.361
322.807
323.298
323.803
324.298
324.753
325.137
325.416
325.563
325.563
325.416
325.137
324.753
324.298
323.803
323.298
322.807
322.361
322.031
315.746
315.98
316.297
316.648
317.008
317.362
317.687
317.961
318.16
318.265
318.265
318.16
317.961
317.687
317.362
317.008
316.648
316.297
315.98
315.746
309.459
309.598
309.789
309.999
310.216
310.428
310.623
310.787
310.907
310.97
310.97
310.907
310.787
310.623
310.428
310.216
309.999
309.789
309.598
309.459
303.171
303.217
303.281
303.352
303.424
303.495
303.561
303.616
303.656
303.677
303.677
303.656
303.616
303.561
303.495
303.424
303.352
303.281
303.217
303.171
347.427
348.175
349.128
350.165
351.231
352.274
353.235
354.044
354.632
354.943
354.943
354.632
354.044
353.235
352.274
351.231
350.165
349.128
348.175
347.427
341.118
341.751
342.574
343.471
344.393
345.295
346.126
346.825
347.334
347.602
347.602
347.334
346.825
346.126
345.295
344.393
343.471
342.574
341.751
341.118
334.804
335.329
336.022
336.78
337.56
338.322
339.024
339.614
340.043
340.269
340.269
340.043
339.614
339.024
338.322
337.56
336.78
336.022
335.329
334.804
328.486
328.909
329.474
330.093
330.73
331.353
331.927
332.409
332.759
332.943
332.943
332.759
332.409
331.927
331.353
330.73
330.093
329.474
328.909
328.486
322.165
322.49
322.928
323.409
323.904
324.389
324.834
325.208
325.48
325.624
325.624
325.48
325.208
324.834
324.389
323.904
323.409
322.928
322.49
322.165
315.841
316.071
316.384
316.727
317.081
317.427
317.745
318.012
318.206
318.308
318.308
318.206
318.012
317.745
317.427
317.081
316.727
316.384
316.071
315.841
309.516
309.653
309.841
310.047
310.259
310.467
310.658
310.818
310.935
310.996
310.996
310.935
310.818
310.658
310.467
310.259
310.047
309.841
309.653
309.516
303.19
303.236
303.299
303.368
303.439
303.509
303.572
303.626
303.665
303.686
303.686
303.665
303.626
303.572
303.509
303.439
303.368
303.299
303.236
303.19
347.861
348.591
349.521
350.53
351.563
352.573
353.501
354.281
354.848
355.147
355.147
354.848
354.281
353.501
352.573
351.563
350.53
349.521
348.591
347.861
341.493
342.112
342.914
343.786
344.681
345.555
346.357
347.032
347.521
347.779
347.779
347.521
347.032
346.357
345.555
344.681
343.786
342.914
342.112
341.493
335.121
335.634
336.31
337.047
337.803
338.542
339.219
339.789
340.202
340.419
340.419
340.202
339.789
339.219
338.542
337.803
337.047
336.31
335.634
335.121
328.745
329.158
329.709
330.311
330.93
331.533
332.087
332.552
332.889
333.067
333.067
332.889
332.552
332.087
331.533
330.93
330.311
329.709
329.158
328.745
322.366
322.683
323.11
323.579
324.059
324.528
324.959
325.32
325.582
325.72
325.72
325.582
325.32
324.959
324.528
324.059
323.579
323.11
322.683
322.366
315.985
316.21
316.514
316.848
317.192
317.527
317.834
318.092
318.279
318.377
318.377
318.279
318.092
317.834
317.527
317.192
316.848
316.514
316.21
315.985
309.602
309.736
309.919
310.12
310.326
310.527
310.711
310.866
310.978
311.037
311.037
310.978
310.866
310.711
310.527
310.326
310.12
309.919
309.736
309.602
303.219
303.264
303.325
303.392
303.461
303.529
303.59
303.642
303.68
303.7
303.7
303.68
303.642
303.59
303.529
303.461
303.392
303.325
303.264
303.219
348.443
349.152
350.051
351.023
352.017
352.985
353.872
354.615
355.154
355.438
355.438
355.154
354.615
353.872
352.985
352.017
351.023
350.051
349.152
348.443
341.997
342.596
343.372
344.213
345.074
345.911
346.678
347.321
347.787
348.032
348.032
347.787
347.321
346.678
345.911
345.074
344.213
343.372
342.596
341.997
335.546
336.044
336.697
337.408
338.135
338.843
339.491
340.034
340.427
340.634
340.634
340.427
340.034
339.491
338.843
338.135
337.408
336.697
336.044
335.546
329.092
329.493
330.025
330.607
331.201
331.78
332.309
332.753
333.074
333.243
333.243
333.074
332.753
332.309
331.78
331.201
330.607
330.025
329.493
329.092
322.636
322.943
323.357
323.808
324.271
324.72
325.132
325.476
325.726
325.857
325.857
325.726
325.476
325.132
324.72
324.271
323.808
323.357
322.943
322.636
316.178
316.395
316.69
317.012
317.343
317.664
317.958
318.203
318.381
318.475
318.475
318.381
318.203
317.958
317.664
317.343
317.012
316.69
316.395
316.178
309.718
309.848
310.025
310.218
310.417
310.609
310.786
310.933
311.04
311.096
311.096
311.04
310.933
310.786
310.609
310.417
310.218
310.025
309.848
309.718
303.258
303.301
303.36
303.425
303.492
303.556
303.615
303.665
303.701
303.719
303.719
303.701
303.665
303.615
303.556
303.492
303.425
303.36
303.301
303.258
349.177
349.858
350.721
351.651
352.598
353.517
354.356
355.058
355.565
355.832
355.832
355.565
355.058
354.356
353.517
352.598
351.651
350.721
349.858
349.177
342.631
343.208
343.952
344.757
345.577
346.373
347.099
347.705
348.144
348.374
348.374
348.144
347.705
347.099
346.373
345.577
344.757
343.952
343.208
342.631
336.082
336.561
337.188
337.868
338.561
339.233
339.847
340.359
340.729
340.924
340.924
340.729
340.359
339.847
339.233
338.561
337.868
337.188
336.561
336.082
329.53
329.915
330.427
330.983
331.549
332.099
332.6
333.019
333.321
333.48
333.48
333.321
333.019
332.6
332.099
331.549
330.983
330.427
329.915
329.53
322.976
323.272
323.668
324.101
324.541
324.969
325.358
325.683
325.918
326.042
326.042
325.918
325.683
325.358
324.969
324.541
324.101
323.668
323.272
322.976
316.42
316.63
316.913
317.221
317.536
317.841
318.119
318.352
318.519
318.607
318.607
318.519
318.352
318.119
317.841
317.536
317.221
316.913
316.63
316.42
309.864
309.989
310.158
310.344
310.533
310.716
310.883
311.022
311.123
311.176
311.176
311.123
311.022
310.883
310.716
310.533
310.344
310.158
309.989
309.864
303.307
303.348
303.405
303.467
303.531
303.592
303.648
303.695
303.728
303.746
303.746
303.728
303.695
303.648
303.592
303.531
303.467
303.405
303.348
303.307
350.064
350.716
351.538
352.421
353.316
354.181
354.968
355.623
356.096
356.344
356.344
356.096
355.623
354.968
354.181
353.316
352.421
351.538
350.716
350.064
343.399
343.95
344.66
345.424
346.199
346.948
347.628
348.195
348.604
348.819
348.819
348.604
348.195
347.628
346.948
346.199
345.424
344.66
343.95
343.399
336.73
337.188
337.785
338.431
339.087
339.72
340.295
340.774
341.119
341.3
341.3
341.119
340.774
340.295
339.72
339.087
338.431
337.785
337.188
336.73
330.06
330.428
330.915
331.443
331.979
332.497
332.967
333.358
333.64
333.788
333.788
333.64
333.358
332.967
332.497
331.979
331.443
330.915
330.428
330.06
323.388
323.67
324.048
324.459
324.875
325.278
325.643
325.948
326.167
326.282
326.282
326.167
325.948
325.643
325.278
324.875
324.459
324.048
323.67
323.388
316.714
316.914
317.184
317.477
317.775
318.062
318.323
318.54
318.697
318.779
318.779
318.697
318.54
318.323
318.062
317.775
317.477
317.184
316.914
316.714
310.04
310.16
310.321
310.497
310.676
310.849
311.005
311.136
311.23
311.279
311.279
311.23
311.136
311.005
310.849
310.676
310.497
310.321
310.16
310.04
303.366
303.406
303.46
303.519
303.579
303.636
303.689
303.733
303.764
303.781
303.781
303.764
303.733
303.689
303.636
303.579
303.519
303.46
303.406
303.366
351.11
351.729
352.508
353.339
354.179
354.987
355.718
356.325
356.762
356.991
356.991
356.762
356.325
355.718
354.987
354.179
353.339
352.508
351.729
351.11
344.303
344.827
345.498
346.219
346.946
347.645
348.278
348.804
349.181
349.379
349.379
349.181
348.804
348.278
347.645
346.946
346.219
345.498
344.827
344.303
337.494
337.929
338.494
339.103
339.718
340.31
340.845
341.289
341.608
341.775
341.775
341.608
341.289
340.845
340.31
339.718
339.103
338.494
337.929
337.494
330.684
331.034
331.495
331.993
332.496
332.979
333.417
333.78
334.04
334.177
334.177
334.04
333.78
333.417
332.979
332.496
331.993
331.495
331.034
330.684
323.872
324.141
324.499
324.886
325.277
325.653
325.993
326.275
326.478
326.584
326.584
326.478
326.275
325.993
325.653
325.277
324.886
324.499
324.141
323.872
317.06
317.251
317.506
317.782
318.061
318.33
318.573
318.774
318.919
318.995
318.995
318.919
318.774
318.573
318.33
318.061
317.782
317.506
317.251
317.06
310.248
310.362
310.515
310.68
310.848
311.009
311.155
311.276
311.363
311.409
311.409
311.363
311.276
311.155
311.009
310.848
310.68
310.515
310.362
310.248
303.435
303.473
303.524
303.58
303.636
303.69
303.739
303.78
303.809
303.824
303.824
303.809
303.78
303.739
303.69
303.636
303.58
303.524
303.473
303.435
352.317
352.902
353.634
354.413
355.196
355.944
356.619
357.178
357.578
357.787
357.787
357.578
357.178
356.619
355.944
355.196
354.413
353.634
352.902
352.317
345.347
345.842
346.474
347.148
347.826
348.474
349.059
349.542
349.888
350.069
350.069
349.888
349.542
349.059
348.474
347.826
347.148
346.474
345.842
345.347
338.376
338.786
339.319
339.889
340.462
341.011
341.505
341.913
342.206
342.359
342.359
342.206
341.913
341.505
341.011
340.462
339.889
339.319
338.786
338.376
331.404
331.735
332.169
332.635
333.104
333.552
333.956
334.29
334.53
334.655
334.655
334.53
334.29
333.956
333.552
333.104
332.635
332.169
331.735
331.404
324.432
324.686
325.023
325.385
325.75
326.099
326.413
326.672
326.858
326.955
326.955
326.858
326.672
326.413
326.099
325.75
325.385
325.023
324.686
324.432
317.46
317.64
317.88
318.139
318.399
318.648
318.873
319.058
319.191
319.26
319.26
319.191
319.058
318.873
318.648
318.399
318.139
317.88
317.64
317.46
310.488
310.595
310.739
310.895
311.051
311.201
311.335
311.447
311.526
311.568
311.568
311.526
311.447
311.335
311.201
311.051
310.895
310.739
310.595
310.488
303.516
303.552
303.6
303.652
303.704
303.754
303.8
303.837
303.864
303.878
303.878
303.864
303.837
303.8
303.754
303.704
303.652
303.6
303.552
303.516
353.689
354.239
354.924
355.649
356.374
357.064
357.683
358.192
358.557
358.747
358.747
358.557
358.192
357.683
357.064
356.374
355.649
354.924
354.239
353.689
346.534
346.999
347.59
348.218
348.845
349.443
349.979
350.421
350.736
350.901
350.901
350.736
350.421
349.979
349.443
348.845
348.218
347.59
346.999
346.534
339.378
339.764
340.262
340.793
341.324
341.83
342.283
342.656
342.923
343.062
343.062
342.923
342.656
342.283
341.83
341.324
340.793
340.262
339.764
339.378
332.223
332.534
332.94
333.374
333.808
334.222
334.593
334.898
335.116
335.23
335.23
335.116
334.898
334.593
334.222
333.808
333.374
332.94
332.534
332.223
325.069
325.307
325.622
325.96
326.298
326.619
326.908
327.145
327.314
327.403
327.403
327.314
327.145
326.908
326.619
326.298
325.96
325.622
325.307
325.069
317.915
318.083
318.308
318.549
318.79
319.02
319.226
319.396
319.517
319.58
319.58
319.517
319.396
319.226
319.02
318.79
318.549
318.308
318.083
317.915
310.761
310.862
310.996
311.141
311.286
311.424
311.548
311.649
311.722
311.76
311.76
311.722
311.649
311.548
311.424
311.286
311.141
310.996
310.862
310.761
303.607
303.641
303.686
303.734
303.783
303.829
303.871
303.905
303.929
303.942
303.942
303.929
303.905
303.871
303.829
303.783
303.734
303.686
303.641
303.607
355.23
355.744
356.381
357.053
357.721
358.353
358.918
359.381
359.71
359.882
359.882
359.71
359.381
358.918
358.353
357.721
357.053
356.381
355.744
355.23
347.866
348.301
348.851
349.433
350.011
350.559
351.048
351.449
351.735
351.884
351.884
351.735
351.449
351.048
350.559
350.011
349.433
348.851
348.301
347.866
340.504
340.865
341.329
341.82
342.31
342.773
343.187
343.526
343.768
343.893
343.893
343.768
343.526
343.187
342.773
342.31
341.82
341.329
340.865
340.504
333.143
333.434
333.812
334.214
334.614
334.993
335.332
335.609
335.807
335.91
335.91
335.807
335.609
335.332
334.993
334.614
334.214
333.812
333.434
333.143
325.784
326.007
326.3
326.613
326.924
327.219
327.482
327.698
327.851
327.931
327.931
327.851
327.698
327.482
327.219
326.924
326.613
326.3
326.007
325.784
318.425
318.583
318.792
319.015
319.238
319.449
319.637
319.791
319.9
319.958
319.958
319.9
319.791
319.637
319.449
319.238
319.015
318.792
318.583
318.425
311.067
311.161
311.287
311.421
311.555
311.681
311.794
311.887
311.953
311.987
311.987
311.953
311.887
311.794
311.681
311.555
311.421
311.287
311.161
311.067
303.71
303.741
303.783
303.828
303.873
303.915
303.953
303.984
304.006
304.018
304.018
304.006
303.984
303.953
303.915
303.873
303.828
303.783
303.741
303.71
356.942
357.42
358.012
358.631
359.243
359.82
360.332
360.751
361.048
361.203
361.203
361.048
360.751
360.332
359.82
359.243
358.631
358.012
357.42
356.942
349.347
349.752
350.262
350.799
351.329
351.829
352.273
352.636
352.893
353.027
353.027
352.893
352.636
352.273
351.829
351.329
350.799
350.262
349.752
349.347
341.755
342.091
342.521
342.975
343.423
343.846
344.222
344.529
344.747
344.86
344.86
344.747
344.529
344.222
343.846
343.423
342.975
342.521
342.091
341.755
334.166
334.436
334.787
335.158
335.525
335.871
336.178
336.429
336.607
336.7
336.7
336.607
336.429
336.178
335.871
335.525
335.158
334.787
334.436
334.166
326.578
326.786
327.058
327.346
327.632
327.901
328.14
328.335
328.474
328.546
328.546
328.474
328.335
328.14
327.901
327.632
327.346
327.058
326.786
326.578
318.992
319.139
319.333
319.539
319.743
319.936
320.107
320.246
320.345
320.396
320.396
320.345
320.246
320.107
319.936
319.743
319.539
319.333
319.139
318.992
311.408
311.495
311.612
311.735
311.858
311.974
312.076
312.16
312.219
312.25
312.25
312.219
312.16
312.076
311.974
311.858
311.735
311.612
311.495
311.408
303.824
303.853
303.892
303.934
303.975
304.014
304.048
304.076
304.096
304.106
304.106
304.096
304.076
304.048
304.014
303.975
303.934
303.892
303.853
303.824
358.828
359.272
359.818
360.387
360.946
361.47
361.933
362.31
362.577
362.715
362.715
362.577
362.31
361.933
361.47
360.946
360.387
359.818
359.272
358.828
350.979
351.354
351.825
352.318
352.803
353.257
353.659
353.985
354.217
354.336
354.336
354.217
353.985
353.659
353.257
352.803
352.318
351.825
351.354
350.979
343.133
343.445
343.842
344.259
344.669
345.053
345.393
345.67
345.865
345.967
345.967
345.865
345.67
345.393
345.053
344.669
344.259
343.842
343.445
343.133
335.292
335.543
335.866
336.207
336.543
336.858
337.136
337.362
337.522
337.605
337.605
337.522
337.362
337.136
336.858
336.543
336.207
335.866
335.543
335.292
327.454
327.646
327.897
328.162
328.423
328.668
328.884
329.06
329.185
329.249
329.249
329.185
329.06
328.884
328.668
328.423
328.162
327.897
327.646
327.454
319.617
319.754
319.933
320.122
320.309
320.484
320.638
320.764
320.853
320.899
320.899
320.853
320.764
320.638
320.484
320.309
320.122
319.933
319.754
319.617
311.783
311.864
311.972
312.085
312.197
312.303
312.395
312.471
312.524
312.552
312.552
312.524
312.471
312.395
312.303
312.197
312.085
311.972
311.864
311.783
303.95
303.977
304.013
304.051
304.089
304.124
304.155
304.18
304.198
304.207
304.207
304.198
304.18
304.155
304.124
304.089
304.051
304.013
303.977
303.95
360.889
361.299
361.802
362.323
362.832
363.307
363.724
364.063
364.302
364.425
364.425
364.302
364.063
363.724
363.307
362.832
362.323
361.802
361.299
360.889
352.761
353.109
353.542
353.993
354.435
354.846
355.209
355.502
355.709
355.816
355.816
355.709
355.502
355.209
354.846
354.435
353.993
353.542
353.109
352.761
344.639
344.927
345.293
345.675
346.048
346.397
346.703
346.951
347.126
347.217
347.217
347.126
346.951
346.703
346.397
346.048
345.675
345.293
344.927
344.639
336.522
336.754
337.052
337.364
337.67
337.955
338.206
338.409
338.553
338.627
338.627
338.553
338.409
338.206
337.955
337.67
337.364
337.052
336.754
336.522
328.41
328.588
328.819
329.062
329.299
329.521
329.717
329.875
329.986
330.044
330.044
329.986
329.875
329.717
329.521
329.299
329.062
328.819
328.588
328.41
320.3
320.426
320.591
320.764
320.934
321.093
321.232
321.345
321.425
321.466
321.466
321.425
321.345
321.232
321.093
320.934
320.764
320.591
320.426
320.3
312.193
312.268
312.367
312.471
312.573
312.668
312.752
312.82
312.868
312.893
312.893
312.868
312.82
312.752
312.668
312.573
312.471
312.367
312.268
312.193
304.087
304.112
304.145
304.18
304.214
304.246
304.274
304.297
304.313
304.322
304.322
304.313
304.297
304.274
304.246
304.214
304.18
304.145
304.112
304.087
363.122
363.501
363.962
364.438
364.901
365.33
365.706
366.009
366.222
366.332
366.332
366.222
366.009
365.706
365.33
364.901
364.438
363.962
363.501
363.122
354.693
355.013
355.411
355.824
356.225
356.597
356.922
357.185
357.37
357.466
357.466
357.37
357.185
356.922
356.597
356.225
355.824
355.411
355.013
354.693
346.271
346.537
346.872
347.221
347.56
347.875
348.151
348.373
348.53
348.611
348.611
348.53
348.373
348.151
347.875
347.56
347.221
346.872
346.537
346.271
337.855
338.069
338.343
338.628
338.906
339.164
339.389
339.571
339.7
339.766
339.766
339.7
339.571
339.389
339.164
338.906
338.628
338.343
338.069
337.855
329.445
329.609
329.822
330.043
330.26
330.46
330.636
330.778
330.877
330.929
330.929
330.877
330.778
330.636
330.46
330.26
330.043
329.822
329.609
329.445
321.039
321.155
321.307
321.465
321.62
321.763
321.889
321.99
322.061
322.098
322.098
322.061
321.99
321.889
321.763
321.62
321.465
321.307
321.155
321.039
312.637
312.706
312.797
312.892
312.985
313.071
313.146
313.207
313.25
313.272
313.272
313.25
313.207
313.146
313.071
312.985
312.892
312.797
312.706
312.637
304.236
304.259
304.289
304.321
304.352
304.381
304.406
304.427
304.441
304.449
304.449
304.441
304.427
304.406
304.381
304.352
304.321
304.289
304.259
304.236
365.521
365.869
366.292
366.726
367.145
367.532
367.87
368.141
368.332
368.43
368.43
368.332
368.141
367.87
367.532
367.145
366.726
366.292
365.869
365.521
356.765
357.06
357.425
357.801
358.165
358.5
358.793
359.028
359.193
359.279
359.279
359.193
359.028
358.793
358.5
358.165
357.801
357.425
357.06
356.765
348.02
348.264
348.572
348.89
349.198
349.482
349.73
349.929
350.069
350.141
350.141
350.069
349.929
349.73
349.482
349.198
348.89
348.572
348.264
348.02
339.283
339.48
339.731
339.991
340.243
340.476
340.679
340.842
340.956
341.015
341.015
340.956
340.842
340.679
340.476
340.243
339.991
339.731
339.48
339.283
330.554
330.705
330.9
331.102
331.298
331.479
331.637
331.764
331.853
331.899
331.899
331.853
331.764
331.637
331.479
331.298
331.102
330.9
330.705
330.554
321.831
321.938
322.076
322.221
322.361
322.491
322.604
322.694
322.758
322.791
322.791
322.758
322.694
322.604
322.491
322.361
322.221
322.076
321.938
321.831
313.112
313.175
313.259
313.345
313.43
313.507
313.575
313.63
313.668
313.688
313.688
313.668
313.63
313.575
313.507
313.43
313.345
313.259
313.175
313.112
304.395
304.416
304.444
304.473
304.501
304.527
304.55
304.568
304.581
304.588
304.588
304.581
304.568
304.55
304.527
304.501
304.473
304.444
304.416
304.395
368.059
368.379
368.766
369.161
369.541
369.891
370.194
370.437
370.606
370.694
370.694
370.606
370.437
370.194
369.891
369.541
369.161
368.766
368.379
368.059
358.954
359.225
359.559
359.902
360.232
360.535
360.798
361.008
361.156
361.232
361.232
361.156
361.008
360.798
360.535
360.232
359.902
359.559
359.225
358.954
349.865
350.089
350.371
350.661
350.94
351.197
351.419
351.598
351.723
351.787
351.787
351.723
351.598
351.419
351.197
350.94
350.661
350.371
350.089
349.865
340.787
340.968
341.198
341.435
341.664
341.874
342.056
342.202
342.304
342.357
342.357
342.304
342.202
342.056
341.874
341.664
341.435
341.198
340.968
340.787
331.721
331.859
332.038
332.222
332.4
332.564
332.706
332.819
332.899
332.94
332.94
332.899
332.819
332.706
332.564
332.4
332.222
332.038
331.859
331.721
322.662
322.761
322.888
323.02
323.147
323.264
323.365
323.447
323.503
323.533
323.533
323.503
323.447
323.365
323.264
323.147
323.02
322.888
322.761
322.662
313.61
313.669
313.745
313.824
313.901
313.971
314.032
314.081
314.115
314.133
314.133
314.115
314.081
314.032
313.971
313.901
313.824
313.745
313.669
313.61
304.562
304.582
304.607
304.634
304.659
304.683
304.703
304.72
304.731
304.737
304.737
304.731
304.72
304.703
304.683
304.659
304.634
304.607
304.582
304.562
370.671
370.965
371.32
371.68
372.026
372.341
372.614
372.832
372.984
373.063
373.063
372.984
372.832
372.614
372.341
372.026
371.68
371.32
370.965
370.671
361.197
361.447
361.753
362.065
362.365
362.639
362.876
363.065
363.197
363.265
363.265
363.197
363.065
362.876
362.639
362.365
362.065
361.753
361.447
361.197
351.747
351.953
352.212
352.476
352.73
352.963
353.163
353.324
353.436
353.493
353.493
353.436
353.324
353.163
352.963
352.73
352.476
352.212
351.953
351.747
342.316
342.483
342.693
342.91
343.118
343.308
343.473
343.604
343.696
343.743
343.743
343.696
343.604
343.473
343.308
343.118
342.91
342.693
342.483
342.316
332.903
333.031
333.194
333.363
333.525
333.673
333.801
333.904
333.975
334.012
334.012
333.975
333.904
333.801
333.673
333.525
333.363
333.194
333.031
332.903
323.504
323.594
323.711
323.831
323.947
324.053
324.145
324.218
324.269
324.295
324.295
324.269
324.218
324.145
324.053
323.947
323.831
323.711
323.594
323.504
314.114
314.168
314.238
314.31
314.38
314.444
314.499
314.543
314.573
314.589
314.589
314.573
314.543
314.499
314.444
314.38
314.31
314.238
314.168
314.114
304.731
304.749
304.772
304.796
304.82
304.841
304.859
304.874
304.884
304.89
304.89
304.884
304.874
304.859
304.841
304.82
304.796
304.772
304.749
304.731
373.189
373.462
373.789
374.12
374.436
374.723
374.971
375.169
375.306
375.376
375.376
375.306
375.169
374.971
374.723
374.436
374.12
373.789
373.462
373.189
363.333
363.564
363.847
364.134
364.409
364.659
364.875
365.046
365.166
365.227
365.227
365.166
365.046
364.875
364.659
364.409
364.134
363.847
363.564
363.333
353.52
353.711
353.95
354.194
354.427
354.639
354.822
354.967
355.069
355.121
355.121
355.069
354.967
354.822
354.639
354.427
354.194
353.95
353.711
353.52
343.744
343.898
344.093
344.292
344.483
344.658
344.808
344.927
345.01
345.053
345.053
345.01
344.927
344.808
344.658
344.483
344.292
344.093
343.898
343.744
333.999
334.117
334.269
334.424
334.573
334.709
334.825
334.919
334.983
335.017
335.017
334.983
334.919
334.825
334.709
334.573
334.424
334.269
334.117
333.999
324.278
324.362
324.47
324.582
324.688
324.785
324.869
324.935
324.982
325.006
325.006
324.982
324.935
324.869
324.785
324.688
324.582
324.47
324.362
324.278
314.576
314.626
314.691
314.758
314.822
314.88
314.931
314.971
314.999
315.013
315.013
314.999
314.971
314.931
314.88
314.822
314.758
314.691
314.626
314.576
304.885
304.902
304.923
304.946
304.967
304.987
305.004
305.017
305.026
305.031
305.031
305.026
305.017
305.004
304.987
304.967
304.946
304.923
304.902
304.885
375.169
375.426
375.733
376.044
376.339
376.608
376.838
377.022
377.149
377.214
377.214
377.149
377.022
376.838
376.608
376.339
376.044
375.733
375.426
375.169
364.949
365.167
365.433
365.704
365.962
366.196
366.397
366.557
366.668
366.725
366.725
366.668
366.557
366.397
366.196
365.962
365.704
365.433
365.167
364.949
354.82
355.001
355.226
355.456
355.676
355.875
356.046
356.182
356.276
356.325
356.325
356.276
356.182
356.046
355.875
355.676
355.456
355.226
355.001
354.82
344.764
344.91
345.095
345.284
345.464
345.627
345.768
345.88
345.958
345.997
345.997
345.958
345.88
345.768
345.627
345.464
345.284
345.095
344.91
344.764
334.767
334.879
335.023
335.17
335.311
335.439
335.548
335.636
335.696
335.728
335.728
335.696
335.636
335.548
335.439
335.311
335.17
335.023
334.879
334.767
324.814
324.894
324.997
325.102
325.203
325.294
325.373
325.436
325.479
325.501
325.501
325.479
325.436
325.373
325.294
325.203
325.102
324.997
324.894
324.814
314.893
314.941
315.002
315.066
315.126
315.181
315.229
315.266
315.293
315.306
315.306
315.293
315.266
315.229
315.181
315.126
315.066
315.002
314.941
314.893
304.99
305.006
305.027
305.048
305.068
305.087
305.103
305.115
305.124
305.129
305.129
305.124
305.115
305.103
305.087
305.068
305.048
305.027
305.006
304.99
)
;

boundaryField
{
    hotSide
    {
        type            fixedGradient;
        gradient        nonuniform List<scalar> 
400
(
499.516
501.085
504.231
508.971
515.327
523.327
533.004
544.393
557.532
572.457
589.204
607.806
628.294
650.696
675.036
701.334
729.609
759.874
792.14
826.416
509.601
511.09
514.08
518.591
524.654
532.307
541.593
552.557
565.248
579.711
595.992
614.132
634.167
656.132
680.053
705.955
733.855
763.771
795.712
829.687
520.515
521.909
524.712
528.952
534.669
541.914
550.742
561.212
573.386
587.321
603.073
620.693
640.223
661.704
685.167
710.637
738.135
767.677
799.273
832.932
532.077
533.36
535.946
539.872
545.191
551.967
560.272
570.183
581.776
595.123
610.291
627.34
646.323
667.284
690.257
715.271
742.347
771.5
802.741
836.076
543.965
545.123
547.465
551.039
555.913
562.17
569.901
579.201
590.164
602.878
617.424
633.872
652.281
672.701
695.171
719.719
746.368
775.132
806.019
839.034
555.682
556.707
558.788
561.988
566.391
572.1
579.229
587.893
598.206
610.272
624.186
640.027
657.864
677.75
699.725
723.821
750.057
778.447
808.998
841.709
566.558
567.449
569.271
572.098
576.034
581.205
587.744
595.791
605.477
616.923
630.236
645.507
662.808
682.197
703.718
727.399
753.261
781.314
811.563
844.004
575.789
576.559
578.147
580.64
584.159
588.85
594.867
602.37
611.507
622.414
635.209
649.99
666.835
685.805
706.943
730.278
755.829
783.603
813.604
845.825
582.544
583.222
584.631
586.868
590.07
594.397
600.02
607.114
615.841
626.347
638.758
653.178
669.69
688.353
709.214
732.299
757.626
785.201
815.025
847.089
586.123
586.751
588.062
590.161
593.19
597.32
602.731
609.604
618.11
628.402
640.609
654.837
671.171
689.674
710.388
733.342
758.552
786.023
815.754
847.737
586.123
586.751
588.062
590.161
593.19
597.32
602.731
609.604
618.11
628.402
640.609
654.837
671.171
689.674
710.388
733.342
758.552
786.023
815.754
847.737
582.544
583.222
584.631
586.868
590.07
594.397
600.02
607.114
615.841
626.347
638.758
653.178
669.69
688.353
709.214
732.299
757.626
785.201
815.025
847.089
575.789
576.559
578.147
580.64
584.159
588.85
594.867
602.37
611.507
622.414
635.209
649.99
666.835
685.805
706.943
730.278
755.829
783.603
813.604
845.825
566.558
567.449
569.271
572.098
576.034
581.205
587.744
595.791
605.477
616.923
630.236
645.507
662.808
682.197
703.718
727.399
753.261
781.314
811.563
844.004
555.682
556.707
558.788
561.988
566.391
572.1
579.229
587.893
598.206
610.272
624.186
640.027
657.864
677.75
699.725
723.821
750.057
778.447
808.998
841.709
543.965
545.123
547.465
551.039
555.913
562.17
569.901
579.201
590.164
602.878
617.424
633.872
652.281
672.701
695.171
719.719
746.368
775.132
806.019
839.034
532.077
533.36
535.946
539.872
545.191
551.967
560.272
570.183
581.776
595.123
610.291
627.34
646.323
667.284
690.257
715.271
742.347
771.5
802.741
836.076
520.515
521.909
524.712
528.952
534.669
541.914
550.742
561.212
573.386
587.321
603.073
620.693
640.223
661.704
685.167
710.637
738.135
767.677
799.273
832.932
509.601
511.09
514.08
518.591
524.654
532.307
541.593
552.557
565.248
579.711
595.992
614.132
634.167
656.132
680.053
705.955
733.855
763.771
795.712
829.687
499.516
501.085
504.231
508.971
515.327
523.327
533.004
544.393
557.532
572.457
589.204
607.806
628.294
650.696
675.036
701.334
729.609
759.874
792.14
826.416
)
;
    }
    coldSide
    {
        type            mixed;
        refValue        uniform 300;
        refGradient     uniform 0;
        valueFraction   uniform 0.991591;
        source          uniform 0;
        value           nonuniform List<scalar> 
400
(
300.027
300.027
300.027
300.027
300.027
300.028
300.028
300.029
300.03
300.03
300.031
300.032
300.033
300.034
300.036
300.037
300.038
300.04
300.041
300.042
300.027
300.027
300.027
300.027
300.028
300.028
300.029
300.029
300.03
300.031
300.031
300.032
300.033
300.035
300.036