/*--------------------------------*- C++ -*----------------------------------*\
| =========                 |                                                 |
| \\      /  F ield         | OpenFOAM: The Open Source CFD Toolbox           |
|  \\    /   O peration     | Version:  2212                                  |
|   \\  /    A nd           | Website:  www.openfoam.com                      |
|    \\/     M anipulation  |                                                 |
\*---------------------------------------------------------------------------*/
FoamFile
{
    version     2.0;
    format      ascii;
    arch        "LSB;label=32;scalar=64";
    class       volScalarField;
    location    "0";
    object      T;
}
// * * * * * * * * * * * * * * * * * * * * * * * * * * * * * * * * * * * * * //

dimensions      [0 0 0 1 0 0 0];

internalField   nonuniform List<scalar> 
3200
(
349.354
348.432
347.734
347.772
348.164
348.804
349.733
350.43
351.128
351.349
351.486
351.373
350.958
349.928
348.731
347.916
347.172
346.845
347.164
347.724
342.873
342.119
341.493
341.537
341.867
342.405
343.244
343.815
344.423
344.581
344.714
344.625
344.251
343.341
342.301
341.6
340.938
340.64
340.892
341.337
336.356
335.746
335.188
335.23
335.533
335.982
336.677
337.139
337.642
337.818
337.908
337.845
337.479
336.731
335.849
335.262
334.674
334.43
334.624
334.951
329.805
329.34
328.848
328.883
329.126
329.534
330.079
330.398
330.834
331.003
331.064
331.005
330.698
330.077
329.377
328.887
328.425
328.198
328.359
328.568
323.233
322.859
322.495
322.506
322.718
323.031
323.453
323.662
324.013
324.151
324.18
324.152
323.9
323.42
322.89
322.506
322.136
321.962
322.073
322.215
316.611
316.334
316.099
316.083
316.271
316.478
316.772
316.915
317.17
317.277
317.276
317.278
317.094
316.757
316.378
316.112
315.845
315.696
315.767
315.88
309.967
309.809
309.68
309.669
309.794
309.891
310.066
310.158
310.315
310.384
310.371
310.377
310.272
310.075
309.834
309.7
309.534
309.408
309.474
309.537
303.341
303.284
303.245
303.241
303.279
303.317
303.376
303.41
303.46
303.478
303.48
303.489
303.432
303.372
303.298
303.261
303.198
303.155
303.176
303.21
349.328
348.316
347.713
347.833
348.205
348.931
350.011
350.72
351.597
351.893
351.88
351.67
351.174
350.18
349.095
348.015
347.237
347.019
347.198
347.739
342.894
342.04
341.491
341.624
341.91
342.533
343.461
344.067
344.814
345.053
345.016
344.829
344.379
343.553
342.588
341.653
340.992
340.821
340.926
341.376
336.408
335.704
335.224
335.312
335.559
336.08
336.855
337.344
338.013
338.187
338.151
337.971
337.597
336.883
336.059
335.31
334.717
334.6
334.662
335.019
329.875
329.288
328.903
328.944
329.182
329.601
330.219
330.601
331.127
331.309
331.264
331.119
330.784
330.205
329.538
328.913
328.42
328.347
328.396
328.66
323.276
322.829
322.54
322.526
322.765
323.096
323.515
323.819
324.237
324.414
324.359
324.239
323.943
323.521
323.003
322.484
322.135
322.069
322.103
322.291
316.668
316.33
316.122
316.105
316.296
316.547
316.822
317.018
317.332
317.468
317.417
317.352
317.114
316.83
316.45
316.081
315.829
315.775
315.796
315.924
310.016
309.827
309.701
309.67
309.808
309.964
310.121
310.211
310.432
310.496
310.465
310.421
310.29
310.12
309.889
309.67
309.52
309.466
309.486
309.568
303.351
303.298
303.251
303.241
303.286
303.337
303.404
303.413
303.502
303.515
303.511
303.494
303.454
303.396
303.314
303.239
303.197
303.172
303.179
303.208
349.469
348.441
347.944
348.011
348.603
349.339
350.302
351.166
351.883
352.51
352.57
352.288
351.585
350.651
349.544
348.374
347.465
347.046
347.36
347.823
343.027
342.138
341.711
341.768
342.261
342.884
343.73
344.432
345.049
345.569
345.612
345.394
344.764
343.972
342.989
341.97
341.185
340.828
341.074
341.446
336.504
335.799
335.421
335.445
335.85
336.379
337.091
337.653
338.195
338.603
338.619
338.472
337.929
337.265
336.424
335.545
334.871
334.591
334.767
335.085
329.936
329.393
329.064
329.057
329.404
329.833
330.41
330.848
331.308
331.62
331.629
331.521
331.07
330.528
329.829
329.096
328.565
328.326
328.477
328.707
323.336
322.928
322.662
322.644
322.919
323.244
323.687
324.018
324.377
324.631
324.615
324.548
324.187
323.777
323.232
322.637
322.218
322.056
322.161
322.312
316.695
316.409
316.238
316.203
316.38
316.614
316.941
317.169
317.438
317.618
317.598
317.547
317.288
316.984
316.639
316.17
315.854
315.771
315.852
315.937
310.045
309.856
309.773
309.745
309.848
309.991
310.187
310.329
310.466
310.586
310.546
310.564
310.384
310.194
310.009
309.713
309.523
309.481
309.528
309.562
303.362
303.295
303.272
303.283
303.291
303.352
303.418
303.472
303.511
303.553
303.541
303.544
303.477
303.419
303.354
303.25
303.19
303.186
303.196
303.199
349.692
348.799
348.237
348.424
349.099
349.789
350.82
351.758
352.663
353.2
353.51
353.098
352.324
351.37
350.099
348.81
347.865
347.492
347.688
348.216
343.186
342.46
341.96
342.112
342.694
343.268
344.16
344.917
345.74
346.161
346.421
346.059
345.379
344.576
343.48
342.332
341.535
341.212
341.352
341.787
336.624
336.064
335.626
335.745
336.226
336.692
337.443
338.07
338.766
339.094
339.335
339.019
338.41
337.754
336.833
335.856
335.168
334.936
334.997
335.356
330.025
329.584
329.24
329.331
329.707
330.091
330.671
331.191
331.746
332.014
332.224
331.96
331.437
330.911
330.167
329.362
328.795
328.595
328.641
328.93
323.402
323.074
322.803
322.865
323.172
323.439
323.88
324.297
324.712
324.927
325.087
324.876
324.484
324.076
323.488
322.869
322.411
322.25
322.283
322.5
316.754
316.519
316.324
316.366
316.594
316.755
317.07
317.39
317.653
317.822
317.948
317.8
317.502
317.215
316.824
316.342
316.039
315.897
315.927
316.089
310.071
309.932
309.825
309.837
309.971
310.06
310.259
310.473
310.589
310.706
310.795
310.708
310.5
310.332
310.109
309.825
309.65
309.549
309.558
309.656
303.378
303.326
303.289
303.31
303.342
303.375
303.441
303.519
303.541
303.589
303.624
303.591
303.514
303.451
303.386
303.292
303.232
303.196
303.2
303.237
349.965
349.25
348.854
349.045
349.591
350.427
351.405
352.5
353.504
354.157
354.464
354.067
353.293
352.099
350.853
349.565
348.562
348.082
348.155
348.585
343.417
342.804
342.49
342.646
343.109
343.816
344.663
345.575
346.444
346.988
347.274
346.902
346.21
345.202
344.103
342.995
342.102
341.72
341.768
342.113
336.823
336.325
336.061
336.199
336.568
337.155
337.865
338.615
339.366
339.792
340.042
339.748
339.115
338.294
337.35
336.422
335.651
335.341
335.369
335.642
330.194
329.781
329.581
329.694
329.98
330.452
331.029
331.651
332.234
332.582
332.799
332.552
332.016
331.367
330.587
329.837
329.2
328.951
328.972
329.158
323.541
323.193
323.073
323.13
323.368
323.711
324.126
324.639
325.117
325.369
325.529
325.33
324.91
324.441
323.831
323.217
322.707
322.544
322.526
322.685
316.834
316.574
316.515
316.546
316.719
316.962
317.217
317.625
317.964
318.131
318.254
318.092
317.8
317.491
317.054
316.589
316.238
316.109
316.098
316.223
310.126
309.943
309.928
309.939
310.059
310.199
310.34
310.587
310.814
310.874
310.973
310.875
310.685
310.512
310.242
309.961
309.754
309.672
309.665
309.746
303.395
303.327
303.335
303.326
303.377
303.414
303.46
303.553
303.623
303.647
303.674
303.648
303.586
303.534
303.426
303.335
303.271
303.244
303.25
303.263
350.596
349.863
349.523
349.7
350.229
351.127
352.147
353.385
354.477
355.197
355.421
355.173
354.252
353.043
351.721
350.381
349.327
348.846
348.895
349.338
343.977
343.357
343.07
343.218
343.675
344.432
345.289
346.361
347.27
347.9
348.118
347.837
347.065
346.015
344.862
343.693
342.77
342.364
342.417
342.749
337.311
336.786
336.548
336.677
337.056
337.685
338.378
339.296
340.064
340.572
340.779
340.499
339.833
338.995
337.981
336.988
336.218
335.873
335.911
336.194
330.591
330.164
329.962
330.088
330.391
330.882
331.444
332.216
332.843
333.232
333.409
333.16
332.6
331.932
331.128
330.273
329.641
329.392
329.407
329.627
323.82
323.507
323.359
323.447
323.679
324.034
324.51
325.121
325.559
325.866
326.037
325.834
325.362
324.867
324.261
323.545
323.064
322.864
322.891
323.051
317.035
316.804
316.715
316.773
316.917
317.177
317.539
317.98
318.275
318.492
318.625
318.475
318.136
317.797
317.35
316.813
316.469
316.339
316.378
316.489
310.238
310.092
310.062
310.063
310.156
310.327
310.534
310.812
310.994
311.121
311.194
311.095
310.882
310.708
310.421
310.089
309.878
309.825
309.854
309.915
303.431
303.388
303.377
303.368
303.402
303.463
303.524
303.623
303.686
303.723
303.751
303.735
303.633
303.59
303.493
303.379
303.308
303.301
303.313
303.331
351.415
350.651
350.357
350.34
350.988
351.857
353.089
354.325
355.37
356.197
356.561
356.184
355.315
354.051
352.679
351.193
350.226
349.655
349.673
349.98
344.673
344.025
343.806
343.761
344.303
345.063
346.08
347.177
348.053
348.733
349.068
348.751
347.958
346.859
345.68
344.406
343.567
343.069
343.091
343.315
337.906
337.343
337.193
337.13
337.573
338.234
339.022
339.98
340.712
341.269
341.559
341.299
340.582
339.673
338.676
337.597
336.888
336.45
336.493
336.663
331.098
330.627
330.494
330.441
330.795
331.366
331.956
332.767
333.339
333.804
334.036
333.82
333.195
332.468
331.657
330.802
330.172
329.841
329.895
330.023
324.233
323.874
323.759
323.717
323.974
324.455
324.903
325.538
325.97
326.33
326.508
326.329
325.814
325.266
324.615
323.96
323.468
323.22
323.289
323.384
317.338
317.083
317.001
316.951
317.147
317.503
317.812
318.262
318.588
318.825
318.957
318.822
318.455
318.047
317.589
317.106
316.774
316.591
316.668
316.729
310.426
310.271
310.222
310.179
310.327
310.524
310.694
310.975
311.19
311.304
311.401
311.311
311.081
310.841
310.552
310.256
310.08
309.961
310.026
310.068
303.498
303.452
303.432
303.417
303.452
303.528
303.574
303.682
303.754
303.792
303.828
303.788
303.722
303.628
303.53
303.43
303.378
303.333
303.367
303.367
352.227
351.522
351.18
351.224
351.79
352.823
353.95
355.146
356.248
356.965
357.417
357.198
356.297
354.887
353.408
352.194
351.063
350.493
350.432
350.78
345.369
344.802
344.501
344.502
345.013
345.91
346.84
347.878
348.798
349.391
349.808
349.623
348.834
347.61
346.337
345.255
344.273
343.784
343.727
343.993
338.46
337.994
337.775
337.732
338.177
338.944
339.676
340.56
341.32
341.835
342.177
342.04
341.359
340.331
339.248
338.294
337.473
337.084
337.025
337.209
331.509
331.161
330.976
330.923
331.29
331.907
332.51
333.227
333.827
334.25
334.548
334.427
333.882
333.012
332.13
331.321
330.675
330.344
330.307
330.444
324.548
324.306
324.132
324.076
324.354
324.828
325.308
325.868
326.339
326.662
326.906
326.773
326.371
325.694
325.01
324.367
323.884
323.592
323.602
323.691
317.562
317.416
317.269
317.199
317.39
317.753
318.078
318.494
318.83
319.052
319.229
319.124
318.838
318.367
317.886
317.427
317.1
316.845
316.873
316.943
310.565
310.466
310.386
310.33
310.447
310.666
310.85
311.106
311.304
311.442
311.551
311.486
311.321
311.045
310.74
310.468
310.281
310.115
310.144
310.178
303.542
303.508
303.485
303.457
303.508
303.576
303.645
303.727
303.793
303.833
303.874
303.85
303.789
303.708
303.604
303.509
303.455
303.389
303.403
303.419
353.097
352.493
352.003
352.13
352.726
353.619
354.87
355.975
357.164
357.903
358.344
358.003
357.155
355.79
354.299
353.1
352.075
351.408
351.334
351.692
346.117
345.627
345.187
345.288
345.804
346.569
347.648
348.588
349.628
350.222
350.597
350.305
349.56
348.366
347.059
346.054
345.157
344.568
344.513
344.772
339.103
338.696
338.339
338.402
338.823
339.483
340.384
341.179
342.032
342.52
342.834
342.584
341.979
340.935
339.83
338.987
338.23
337.728
337.671
337.887
332.046
331.701
331.451
331.489
331.813
332.338
333.095
333.739
334.421
334.817
335.056
334.86
334.388
333.498
332.602
331.92
331.288
330.892
330.823
331.006
324.971
324.695
324.517
324.535
324.76
325.159
325.746
326.269
326.79
327.106
327.273
327.128
326.791
326.069
325.362
324.851
324.362
324.025
323.965
324.115
317.863
317.658
317.535
317.553
317.687
317.971
318.404
318.79
319.15
319.375
319.488
319.391
319.161
318.627
318.106
317.775
317.399
317.172
317.125
317.225
310.735
310.594
310.524
310.562
310.617
310.795
311.044
311.296
311.496
311.623
311.706
311.656
311.515
311.193
310.862
310.683
310.449
310.321
310.294
310.335
303.595
303.543
303.533
303.528
303.563
303.629
303.698
303.78
303.863
303.889
303.918
303.912
303.863
303.763
303.646
303.583
303.494
303.473
303.452
303.469
354.072
353.451
352.982
352.956
353.647
354.457
355.678
356.911
357.949
358.674
359.166
358.866
357.959
356.548
355.155
353.963
352.854
352.272
352.269
352.547
346.949
346.451
346.034
346.015
346.591
347.297
348.32
349.389
350.287
350.888
351.312
351.045
350.268
349.036
347.811
346.796
345.842
345.339
345.301
345.547
339.785
339.399
339.038
339.031
339.491
340.096
340.941
341.852
342.629
343.107
343.438
343.214
342.585
341.499
340.469
339.606
338.844
338.39
338.332
338.578
332.593
332.272
332
331.995
332.363
332.856
333.533
334.28
334.924
335.276
335.564
335.399
334.862
333.968
333.138
332.405
331.789
331.431
331.364
331.587
325.37
325.139
324.915
324.918
325.219
325.601
326.11
326.687
327.197
327.466
327.681
327.564
327.147
326.454
325.811
325.223
324.738
324.444
324.407
324.571
318.148
317.99
317.811
317.828
318.04
318.312
318.665
319.102
319.456
319.657
319.79
319.698
319.41
318.915
318.453
318.017
317.689
317.469
317.438
317.554
310.898
310.843
310.699
310.718
310.85
310.992
311.206
311.489
311.698
311.817
311.897
311.823
311.676
311.378
311.084
310.832
310.632
310.49
310.479
310.544
303.665
303.636
303.58
303.597
303.638
303.685
303.756
303.857
303.922
303.959
303.985
303.964
303.911
303.811
303.721
303.628
303.569
303.51
303.512
303.541
355.014
354.316
354.057
354.036
354.647
355.49
356.441
357.564
358.677
359.373
359.693
359.528
358.698
357.388
356.021
354.751
353.732
353.16
353.066
353.432
347.779
347.195
346.967
346.943
347.463
348.196
348.998
349.942
350.92
351.498
351.77
351.626
350.915
349.756
348.565
347.463
346.593
346.109
345.995
346.315
340.484
340.022
339.819
339.807
340.218
340.841
341.535
342.306
343.134
343.588
343.818
343.714
343.121
342.12
341.099
340.166
339.444
339.051
338.917
339.197
333.173
332.824
332.634
332.617
332.947
333.458
334.027
334.647
335.338
335.66
335.855
335.788
335.312
334.487
333.636
332.874
332.288
331.95
331.841
332.069
325.837
325.592
325.425
325.4
325.667
326.062
326.508
326.998
327.5
327.736
327.901
327.839
327.471
326.823
326.173
325.58
325.137
324.87
324.769
324.947
318.489
318.313
318.191
318.167
318.352
318.631
318.939
319.318
319.649
319.828
319.963
319.879
319.648
319.13
318.726
318.271
317.971
317.77
317.703
317.841
311.107
311.014
310.945
310.902
311.034
311.184
311.383
311.611
311.813
311.917
312.004
311.931
311.824
311.471
311.25
310.963
310.796
310.674
310.643
310.714
303.718
303.699
303.677
303.654
303.699
303.752
303.815
303.894
303.953
303.992
304.028
303.982
303.974
303.837
303.771
303.666
303.61
303.582
303.564
303.586
356.028
355.234
355.097
355.232
355.66
356.336
357.173
358.244
359.325
359.917
360.165
359.97
359.276
358.029
356.795
355.499
354.539
354.211
354.05
354.32
348.662
347.972
347.885
347.979
348.337
348.88
349.618
350.549
351.486
351.971
352.166
351.99
351.378
350.297
349.262
348.131
347.286
347.013
346.858
347.068
341.266
340.666
340.611
340.679
340.966
341.405
342.066
342.835
343.609
344.014
344.163
344.006
343.5
342.567
341.721
340.764
340.023
339.803
339.658
339.843
333.828
333.355
333.292
333.319
333.563
333.901
334.487
335.087
335.715
336.026
336.156
336.001
335.6
334.86
334.151
333.367
332.748
332.587
332.458
332.628
326.328
325.981
325.94
325.943
326.146
326.376
326.867
327.321
327.81
328.04
328.141
327.99
327.696
327.149
326.575
325.953
325.486
325.352
325.262
325.407
318.821
318.59
318.558
318.558
318.717
318.837
319.225
319.522
319.887
320.052
320.116
320.021
319.806
319.426
318.991
318.539
318.228
318.119
318.058
318.173
311.311
311.178
311.141
311.141
311.242
311.318
311.545
311.727
311.962
312.048
312.079
312.027
311.906
311.692
311.41
311.143
310.95
310.874
310.837
310.904
303.794
303.738
303.736
303.741
303.762
303.796
303.867
303.934
304.015
304.036
304.05
304.029
303.993
303.916
303.827
303.748
303.668
303.64
303.627
303.652
357.063
356.409
356.004
356.098
356.424
357.137
357.899
358.952
359.957
360.501
360.75
360.475
359.699
358.649
357.487
356.313
355.415
355.01
355.037
355.144
349.559
349.029
348.63
348.731
348.995
349.598
350.247
351.151
352.042
352.477
352.681
352.449
351.775
350.854
349.861
348.825
348.032
347.701
347.723
347.759
342.019
341.571
341.214
341.31
341.547
342.019
342.576
343.301
344.088
344.429
344.589
344.397
343.833
343.05
342.216
341.324
340.654
340.394
340.388
340.406
334.441
334.059
333.774
333.881
334.073
334.406
334.899
335.449
336.124
336.372
336.493
336.34
335.901
335.254
334.571
333.813
333.273
333.062
333.063
333.057
326.839
326.522
326.304
326.415
326.546
326.792
327.2
327.6
328.125
328.302
328.367
328.29
327.965
327.433
326.904
326.305
325.903
325.733
325.741
325.718
319.192
318.972
318.818
318.908
318.984
319.168
319.443
319.732
320.107
320.237
320.265
320.234
320.006
319.633
319.242
318.8
318.502
318.388
318.405
318.377
311.534
311.415
311.323
311.364
311.413
311.524
311.678
311.851
312.076
312.151
312.169
312.162
312.03
311.79
311.553
311.285
311.108
311.051
311.069
311.032
303.876
303.826
303.796
303.8
303.829
303.858
303.92
303.969
304.04
304.069
304.083
304.084
304.031
303.954
303.867
303.781
303.72
303.707
303.713
303.692
358.078
357.482
357.082
357.081
357.357
357.94
358.738
359.645
360.391
361.009
361.15
360.857
360.28
359.303
358.242
356.998
356.212
355.904
355.98
356.089
350.419
349.938
349.579
349.574
349.776
350.329
350.987
351.765
352.376
352.906
353.014
352.775
352.272
351.419
350.479
349.434
348.753
348.488
348.553
348.613
342.724
342.329
342.044
342.027
342.185
342.681
343.192
343.844
344.357
344.784
344.873
344.683
344.236
343.512
342.712
341.876
341.286
341.058
341.119
341.146
335.001
334.671
334.463
334.445
334.564
334.963
335.367
335.895
336.339
336.637
336.736
336.586
336.208
335.62
334.946
334.263
333.785
333.601
333.663
333.682
327.239
326.988
326.83
326.835
326.926
327.232
327.515
327.945
328.297
328.507
328.592
328.478
328.176
327.725
327.175
326.663
326.286
326.15
326.204
326.216
319.471
319.302
319.172
319.208
319.26
319.487
319.661
319.968
320.208
320.372
320.445
320.364
320.145
319.82
319.404
319.048
318.775
318.692
318.723
318.754
311.687
311.59
311.519
311.551
311.574
311.701
311.819
311.986
312.136
312.244
312.287
312.225
312.109
311.919
311.646
311.438
311.272
311.221
311.247
311.287
303.918
303.886
303.862
303.878
303.889
303.927
303.966
304.017
304.063
304.101
304.121
304.093
304.063
303.991
303.908
303.828
303.767
303.766
303.765
303.786
359.088
358.466
358.088
358.05
358.226
358.902
359.499
360.239
360.973
361.508
361.591
361.34
360.747
359.846
358.836
357.794
356.984
356.677
356.924
356.982
351.271
350.777
350.448
350.427
350.548
351.136
351.654
352.261
352.889
353.337
353.429
353.192
352.689
351.882
351.01
350.085
349.402
349.147
349.352
349.383
343.426
343.036
342.762
342.737
342.847
343.321
343.759
344.262
344.793
345.15
345.252
345.012
344.608
343.92
343.173
342.393
341.8
341.617
341.797
341.781
335.568
335.25
335.055
335.002
335.099
335.483
335.829
336.257
336.681
336.943
337.048
336.822
336.515
335.954
335.317
334.694
334.216
334.074
334.218
334.174
327.684
327.465
327.322
327.242
327.33
327.604
327.91
328.216
328.566
328.731
328.84
328.66
328.416
327.975
327.476
327.005
326.626
326.536
326.629
326.583
319.785
319.651
319.534
319.479
319.526
319.732
319.963
320.178
320.434
320.514
320.626
320.506
320.321
319.996
319.62
319.296
319.046
318.985
319.047
318.995
311.891
311.829
311.734
311.715
311.737
311.854
312
312.119
312.287
312.301
312.407
312.331
312.201
312.003
311.804
311.58
311.459
311.412
311.455
311.397
303.985
303.973
303.93
303.939
303.935
303.97
304.025
304.067
304.115
304.118
304.163
304.128
304.082
304.02
303.955
303.886
303.844
303.831
303.84
303.811
360.068
359.443
359.031
358.828
359.081
359.753
360.273
360.944
361.5
361.957
362.107
361.78
361.179
360.432
359.519
358.615
357.851
357.626
357.821
357.938
352.142
351.608
351.281
351.091
351.285
351.868
352.31
352.887
353.357
353.75
353.87
353.59
353.051
352.387
351.596
350.831
350.158
349.933
350.14
350.176
344.174
343.73
343.488
343.312
343.446
343.92
344.305
344.79
345.193
345.53
345.631
345.388
344.907
344.324
343.686
343.044
342.446
342.231
342.446
342.439
336.184
335.814
335.675
335.482
335.578
335.954
336.299
336.675
337.015
337.314
337.373
337.16
336.754
336.269
335.744
335.226
334.75
334.551
334.755
334.697
328.188
327.903
327.822
327.64
327.7
327.955
328.252
328.557
328.832
329.066
329.096
328.926
328.576
328.195
327.811
327.379
327.053
326.882
327.028
326.972
320.167
319.976
319.916
319.767
319.821
319.986
320.191
320.431
320.625
320.776
320.825
320.686
320.409
320.149
319.886
319.559
319.354
319.219
319.302
319.259
312.123
312.021
311.974
311.886
311.924
311.997
312.152
312.289
312.384
312.49
312.526
312.434
312.259
312.105
311.95
311.752
311.638
311.549
311.58
311.569
304.065
304.037
304.009
303.98
304.006
304.035
304.068
304.127
304.148
304.189
304.2
304.164
304.105
304.061
304.015
303.949
303.903
303.867
303.871
303.879
361.18
360.428
360.132
359.815
360.006
360.55
361.074
361.605
362.146
362.42
362.502
362.19
361.543
361.044
360.126
359.379
358.846
358.613
358.637
358.985
353.072
352.449
352.199
351.925
352.064
352.565
352.99
353.474
353.918
354.166
354.223
353.929
353.328
352.917
352.132
351.473
351.021
350.789
350.816
351.104
344.953
344.44
344.234
344.002
344.109
344.534
344.89
345.316
345.678
345.879
345.931
345.684
345.139
344.797
344.131
343.573
343.171
342.977
342.975
343.224
336.804
336.412
336.243
336.047
336.137
336.468
336.775
337.109
337.4
337.585
337.6
337.403
336.972
336.661
336.122
335.668
335.326
335.165
335.15
335.351
328.651
328.37
328.235
328.069
328.157
328.387
328.64
328.906
329.132
329.27
329.259
329.097
328.793
328.501
328.116
327.73
327.472
327.351
327.344
327.51
320.458
320.281
320.206
320.079
320.152
320.294
320.475
320.66
320.85
320.932
320.917
320.79
320.595
320.391
320.103
319.814
319.623
319.54
319.524
319.651
312.274
312.178
312.149
312.083
312.109
312.193
312.306
312.39
312.545
312.591
312.573
312.479
312.372
312.264
312.081
311.896
311.78
311.731
311.709
311.797
304.116
304.074
304.077
304.062
304.066
304.089
304.128
304.15
304.21
304.219
304.22
304.184
304.143
304.113
304.059
303.985
303.938
303.93
303.916
303.958
362.346
361.646
361.304
360.998
361.052
361.461
361.855
362.261
362.755
363.052
363.085
362.685
362.146
361.582
360.833
360.107
359.673
359.565
359.58
359.947
354.075
353.507
353.241
352.959
353.007
353.332
353.68
354.02
354.435
354.678
354.705
354.371
353.884
353.4
352.732
352.131
351.755
351.634
351.644
351.927
345.785
345.351
345.136
344.869
344.929
345.162
345.482
345.756
346.099
346.329
346.319
346.031
345.642
345.193
344.636
344.155
343.818
343.67
343.699
343.916
337.5
337.172
337.016
336.727
336.805
337.002
337.254
337.459
337.744
337.959
337.917
337.683
337.376
336.992
336.533
336.152
335.869
335.731
335.763
335.928
329.191
328.963
328.844
328.588
328.672
328.816
329.002
329.151
329.403
329.563
329.515
329.316
329.077
328.787
328.428
328.131
327.904
327.791
327.824
327.941
320.853
320.705
320.617
320.446
320.526
320.589
320.738
320.844
321.019
321.137
321.105
320.953
320.767
320.569
320.309
320.111
319.948
319.856
319.887
319.96
312.519
312.437
312.385
312.283
312.329
312.366
312.462
312.536
312.648
312.71
312.691
312.576
312.483
312.355
312.212
312.083
311.968
311.932
311.949
311.998
304.196
304.172
304.138
304.108
304.131
304.145
304.177
304.198
304.251
304.267
304.254
304.208
304.178
304.136
304.09
304.051
304.014
304.008
304.005
304.021
363.239
362.614
362.246
362.069
361.975
362.167
362.564
363.072
363.316
363.606
363.596
363.182
362.776
362.212
361.552
360.797
360.527
360.463
360.587
360.957
354.838
354.34
354.018
353.865
353.739
353.907
354.257
354.682
354.926
355.162
355.163
354.787
354.424
353.934
353.366
352.713
352.447
352.391
352.485
352.784
346.463
346.071
345.769
345.654
345.496
345.657
345.926
346.322
346.519
346.704
346.694
346.388
346.07
345.638
345.169
344.631
344.384
344.329
344.414
344.632
338.038
337.74
337.488
337.4
337.258
337.381
337.583
337.929
338.093
338.245
338.192
337.966
337.715
337.35
336.962
336.529
336.311
336.24
336.342
336.507
329.606
329.393
329.204
329.134
329.019
329.097
329.257
329.512
329.666
329.775
329.711
329.553
329.361
329.039
328.759
328.422
328.256
328.168
328.262
328.402
321.184
321
320.9
320.855
320.754
320.802
320.916
321.095
321.237
321.283
321.238
321.105
320.987
320.743
320.539
320.305
320.18
320.109
320.187
320.29
312.718
312.618
312.58
312.519
312.486
312.503
312.57
312.674
312.753
312.77
312.75
312.683
312.617
312.447
312.327
312.179
312.107
312.067
312.115
312.185
304.263
304.233
304.218
304.193
304.193
304.188
304.216
304.241
304.273
304.286
304.276
304.242
304.227
304.167
304.142
304.084
304.066
304.04
304.064
304.079
364.051
363.527
363.055
362.773
362.656
362.793
363.1
363.699
363.703
363.908
363.974
363.672
363.302
362.718
362.056
361.444
361.085
361.138
361.262
361.683
355.514
355.089
354.696
354.423
354.302
354.415
354.689
355.225
355.215
355.388
355.456
355.167
354.865
354.342
353.738
353.186
352.895
352.932
353.02
353.376
346.982
346.638
346.298
346.077
345.965
346.045
346.276
346.735
346.725
346.857
346.924
346.679
346.44
345.986
345.437
344.973
344.725
344.758
344.822
345.1
338.439
338.174
337.883
337.704
337.62
337.695
337.865
338.245
338.244
338.348
338.403
338.192
338.014
337.624
337.173
336.804
336.582
336.589
336.646
336.855
329.903
329.721
329.485
329.314
329.282
329.328
329.471
329.761
329.777
329.849
329.875
329.714
329.583
329.27
328.918
328.662
328.461
328.442
328.482
328.645
321.36
321.247
321.067
320.965
320.937
320.958
321.071
321.287
321.278
321.328
321.351
321.246
321.141
320.926
320.654
320.52
320.322
320.299
320.338
320.47
312.819
312.77
312.656
312.608
312.573
312.595
312.67
312.797
312.791
312.827
312.833
312.76
312.691
312.579
312.402
312.339
312.208
312.192
312.219
312.29
304.298
304.285
304.229
304.233
304.213
304.227
304.241
304.302
304.291
304.299
304.303
304.276
304.26
304.22
304.158
304.142
304.087
304.083
304.096
304.122
)
;

boundaryField
{
    hotSide
    {
        type            fixedGradient;
        gradient        nonuniform List<scalar> 
400
(
513.498
511.417
511.849
514.718
519.759
526.589
534.805
544.039
553.996
564.452
575.251
586.298
597.548
609.004
620.711
632.749
645.225
658.248
671.908
686.243
498.985
497.2
498.1
501.591
507.346
514.913
523.823
533.669
544.129
554.968
566.027
577.214
588.494
599.88
611.434
623.258
635.484
648.253
661.68
675.819
492.053
490.86
492.307
496.287
502.47
510.402
519.614
529.693
540.309
551.224
562.278
573.378
584.496
595.654
606.924
618.418
630.279
642.656
655.673
669.392
492.192
491.872
493.959
498.34
504.724
512.717
521.895
531.874
542.335
553.041
563.831
574.616
585.371
596.125
606.959
617.985
629.345
641.177
653.6
666.681
497.512
498.244
501.092
505.932
512.513
520.505
529.542
539.279
549.418
559.73
570.061
580.328
590.516
600.666
610.866
621.233
631.903
643.006
654.654
666.917
505.844
507.721
511.461
516.923
523.874
532.017
541.025
550.577
560.391
570.248
580.004
589.594
599.021
608.353
617.696
627.182
636.953
647.141
657.854
669.172
515.346
518.403
523.149
529.421
536.98
545.531
554.745
564.298
573.902
583.336
592.468
601.261
609.758
618.071
626.347
634.75
643.442
652.566
662.238
672.543
524.541
528.75
534.56
541.788
550.173
559.392
569.083
578.876
588.443
597.541
606.046
613.96
621.395
628.531
635.585
642.77
650.28
658.275
666.881
676.183
532.2
537.433
544.259
552.477
561.803
571.871
582.257
592.51
602.22
611.092
619.002
626.011
632.324
638.227
644.021
649.981
656.337
663.265
670.893
679.307
537.3
543.292
550.919
559.975
570.155
581.058
592.188
602.996
612.965
621.72
629.132
635.328
640.632
645.442
650.149
655.083
660.5
666.587
673.468
681.225
539.087
545.426
553.455
562.965
573.646
585.07
596.696
607.904
618.091
626.819
633.946
639.655
644.35
648.513
652.591
656.945
661.848
667.489
673.991
681.431
537.224
543.402
551.307
560.729
571.353
582.746
594.36
605.572
615.78
624.544
631.721
637.485
642.233
646.444
650.565
654.961
659.908
665.603
672.173
679.697
531.904
537.425
544.699
553.514
563.555
574.399
585.53
596.384
606.435
615.301
622.841
629.169
634.593
639.508
644.306
649.331
654.855
661.081
668.15
676.149
523.874
528.351
534.636
542.522
551.698
561.76
572.236
582.638
592.524
601.577
609.654
616.801
623.216
629.187
635.031
641.048
647.5
654.595
662.484
671.265
514.367
517.57
522.704
529.577
537.882
547.222
557.154
567.235
577.079
586.404
595.063
603.047
610.472
617.538
624.493
631.598
639.099
647.206
656.081
665.829
505.057
506.9
510.884
516.833
524.431
533.261
542.871
552.827
562.761
572.405
581.604
590.318
598.608
606.619
614.551
622.639
631.121
640.216
650.097
660.87
498.069
498.594
501.524
506.7
513.774
522.28
531.728
541.667
551.732
561.659
571.289
580.564
589.516
598.254
606.952
615.828
625.126
635.078
645.873
657.617
495.874
495.259
497.27
501.76
508.349
516.527
525.767
535.608
545.688
555.747
565.629
575.266
584.673
593.937
603.209
612.698
622.646
633.299
644.855
657.418
500.644
499.198
500.417
504.175
510.104
517.701
526.455
535.919
545.746
555.689
565.592
575.383
585.063
594.7
604.423
614.42
624.915
636.14
648.282
661.434
513.096
511.157
511.707
514.643
519.665
526.355
534.273
543.024
552.292
561.846
571.535
581.281
591.071
600.954
611.033
621.462
632.422
644.103
656.652
670.14
)
;
    }
    coldSide
    {
        type            mixed;
        refValue        uniform 300;
        refGradient     uniform 0;
        valueFraction   uniform 0.991591;
        source          uniform 0;
        value           nonuniform List<scalar> 
400
(
300.028
300.028
300.028
300.028
300.029
300.029
300.029
300.03
300.03
300.031
300.031
300.032
300.033
300.033
300.034
300.034
300.035
300.035
300.036
300.036
300.028
300.028
300.028
300.028
300.028
300.028
300.029
300.029
300.03
300.031
300.031
300.031
300.032
300.033
300.033
300.034
300.034
300.035
300.036
300.036
300.027
300.027