/*--------------------------------*- C++ -*----------------------------------*\
| =========                 |                                                 |
| \\      /  F ield         | OpenFOAM: The Open Source CFD Toolbox           |
|  \\    /   O peration     | Version:  2212                                  |
|   \\  /    A nd           | Website:  www.openfoam.com                      |
|    \\/     M anipulation  |                                                 |
\*---------------------------------------------------------------------------*/
FoamFile
{
    version     2.0;
    format      ascii;
    arch        "LSB;label=32;scalar=64";
    class       volScalarField;
    location    "0";
    object      Ttrue;
}
// * * * * * * * * * * * * * * * * * * * * * * * * * * * * * * * * * * * * * //

dimensions      [0 0 0 1 0 0 0];

internalField   nonuniform List<scalar> 
3200
(
334.507
334.731
335.017
335.329
335.65
335.965
336.256
336.502
336.681
336.775
336.775
336.681
336.502
336.256
335.965
335.65
335.329
335.017
334.731
334.507
330.075
330.264
330.511
330.781
331.059
331.331
331.583
331.795
331.949
332.031
332.031
331.949
331.795
331.583
331.331
331.059
330.781
330.511
330.264
330.075
325.571
325.728
325.936
326.164
326.399
326.629
326.841
327.02
327.151
327.219
327.219
327.151
327.02
326.841
326.629
326.399
326.164
325.936
325.728
325.571
321.007
321.133
321.303
321.489
321.681
321.869
322.043
322.189
322.295
322.351
322.351
322.295
322.189
322.043
321.869
321.681
321.489
321.303
321.133
321.007
316.394
316.491
316.622
316.767
316.916
317.062
317.197
317.311
317.393
317.437
317.437
317.393
317.311
317.197
317.062
316.916
316.767
316.622
316.491
316.394
311.742
311.811
311.905
312.008
312.115
312.219
312.315
312.396
312.455
312.486
312.486
312.455
312.396
312.315
312.219
312.115
312.008
311.905
311.811
311.742
307.064
307.105
307.162
307.224
307.288
307.35
307.408
307.457
307.492
307.511
307.511
307.492
307.457
307.408
307.35
307.288
307.224
307.162
307.105
307.064
302.37
302.384
302.402
302.423
302.445
302.466
302.485
302.501
302.513
302.519
302.519
302.513
302.501
302.485
302.466
302.445
302.423
302.402
302.384
302.37
334.648
334.871
335.154
335.463
335.781
336.093
336.38
336.622
336.799
336.892
336.892
336.799
336.622
336.38
336.093
335.781
335.463
335.154
334.871
334.648
330.198
330.386
330.63
330.898
331.173
331.442
331.691
331.9
332.053
332.133
332.133
332.053
331.9
331.691
331.442
331.173
330.898
330.63
330.386
330.198
325.675
325.831
326.037
326.263
326.496
326.723
326.933
327.11
327.239
327.307
327.307
327.239
327.11
326.933
326.723
326.496
326.263
326.037
325.831
325.675
321.093
321.218
321.386
321.571
321.761
321.947
322.118
322.263
322.368
322.423
322.423
322.368
322.263
322.118
321.947
321.761
321.571
321.386
321.218
321.093
316.461
316.557
316.687
316.831
316.978
317.123
317.256
317.368
317.45
317.493
317.493
317.45
317.368
317.256
317.123
316.978
316.831
316.687
316.557
316.461
311.79
311.859
311.952
312.054
312.159
312.263
312.358
312.438
312.496
312.527
312.527
312.496
312.438
312.358
312.263
312.159
312.054
311.952
311.859
311.79
307.093
307.134
307.19
307.251
307.314
307.376
307.433
307.481
307.516
307.535
307.535
307.516
307.481
307.433
307.376
307.314
307.251
307.19
307.134
307.093
302.38
302.393
302.412
302.432
302.454
302.474
302.494
302.51
302.521
302.527
302.527
302.521
302.51
302.494
302.474
302.454
302.432
302.412
302.393
302.38
334.931
335.15
335.428
335.731
336.043
336.348
336.629
336.865
337.037
337.128
337.128
337.037
336.865
336.629
336.348
336.043
335.731
335.428
335.15
334.931
330.444
330.629
330.869
331.132
331.401
331.665
331.908
332.112
332.261
332.339
332.339
332.261
332.112
331.908
331.665
331.401
331.132
330.869
330.629
330.444
325.885
326.038
326.241
326.462
326.69
326.913
327.118
327.291
327.416
327.482
327.482
327.416
327.291
327.118
326.913
326.69
326.462
326.241
326.038
325.885
321.264
321.388
321.553
321.734
321.92
322.103
322.27
322.411
322.513
322.567
322.567
322.513
322.411
322.27
322.103
321.92
321.734
321.553
321.388
321.264
316.595
316.69
316.818
316.958
317.103
317.245
317.375
317.484
317.564
317.606
317.606
317.564
317.484
317.375
317.245
317.103
316.958
316.818
316.69
316.595
311.886
311.954
312.045
312.145
312.249
312.35
312.443
312.521
312.578
312.608
312.608
312.578
312.521
312.443
312.35
312.249
312.145
312.045
311.954
311.886
307.151
307.191
307.246
307.306
307.368
307.429
307.485
307.531
307.566
307.583
307.583
307.566
307.531
307.485
307.429
307.368
307.306
307.246
307.191
307.151
302.399
302.412
302.431
302.451
302.472
302.492
302.511
302.526
302.538
302.544
302.544
302.538
302.526
302.511
302.492
302.472
302.451
302.431
302.412
302.399
335.355
335.569
335.841
336.135
336.438
336.733
337.004
337.232
337.398
337.485
337.485
337.398
337.232
337.004
336.733
336.438
336.135
335.841
335.569
335.355
330.814
330.994
331.229
331.484
331.745
332.001
332.235
332.432
332.576
332.651
332.651
332.576
332.432
332.235
332.001
331.745
331.484
331.229
330.994
330.814
326.199
326.349
326.546
326.762
326.983
327.199
327.397
327.563
327.684
327.748
327.748
327.684
327.563
327.397
327.199
326.983
326.762
326.546
326.349
326.199
321.522
321.643
321.804
321.98
322.161
322.338
322.499
322.635
322.734
322.786
322.786
322.734
322.635
322.499
322.338
322.161
321.98
321.804
321.643
321.522
316.796
316.889
317.014
317.151
317.291
317.428
317.554
317.659
317.736
317.776
317.776
317.736
317.659
317.554
317.428
317.291
317.151
317.014
316.889
316.796
312.031
312.096
312.185
312.283
312.383
312.481
312.571
312.646
312.701
312.73
312.73
312.701
312.646
312.571
312.481
312.383
312.283
312.185
312.096
312.031
307.238
307.277
307.33
307.389
307.449
307.508
307.562
307.607
307.64
307.657
307.657
307.64
307.607
307.562
307.508
307.449
307.389
307.33
307.277
307.238
302.428
302.441
302.459
302.479
302.499
302.519
302.537
302.552
302.563
302.569
302.569
302.563
302.552
302.537
302.519
302.499
302.479
302.459
302.441
302.428
335.922
336.129
336.392
336.676
336.967
337.249
337.509
337.726
337.884
337.967
337.967
337.884
337.726
337.509
337.249
336.967
336.676
336.392
336.129
335.922
331.307
331.483
331.709
331.955
332.207
332.452
332.676
332.864
333
333.072
333.072
333
332.864
332.676
332.452
332.207
331.955
331.709
331.483
331.307
326.619
326.764
326.955
327.163
327.375
327.582
327.772
327.93
328.045
328.106
328.106
328.045
327.93
327.772
327.582
327.375
327.163
326.955
326.764
326.619
321.867
321.984
322.14
322.31
322.484
322.653
322.808
322.937
323.031
323.08
323.08
323.031
322.937
322.808
322.653
322.484
322.31
322.14
321.984
321.867
317.065
317.155
317.276
317.408
317.543
317.674
317.795
317.895
317.968
318.007
318.007
317.968
317.895
317.795
317.674
317.543
317.408
317.276
317.155
317.065
312.223
312.287
312.373
312.467
312.564
312.658
312.744
312.815
312.868
312.895
312.895
312.868
312.815
312.744
312.658
312.564
312.467
312.373
312.287
312.223
307.354
307.391
307.443
307.5
307.558
307.614
307.666
307.709
307.74
307.756
307.756
307.74
307.709
307.666
307.614
307.558
307.5
307.443
307.391
307.354
302.467
302.48
302.497
302.516
302.535
302.554
302.571
302.586
302.596
302.602
302.602
302.596
302.586
302.571
302.554
302.535
302.516
302.497
302.48
302.467
336.632
336.831
337.083
337.355
337.632
337.901
338.146
338.351
338.499
338.577
338.577
338.499
338.351
338.146
337.901
337.632
337.355
337.083
336.831
336.632
331.926
332.095
332.312
332.548
332.787
333.02
333.232
333.409
333.537
333.605
333.605
333.537
333.409
333.232
333.02
332.787
332.548
332.312
332.095
331.926
327.144
327.284
327.468
327.666
327.869
328.066
328.245
328.395
328.503
328.56
328.56
328.503
328.395
328.245
328.066
327.869
327.666
327.468
327.284
327.144
322.299
322.412
322.561
322.724
322.889
323.05
323.197
323.319
323.407
323.454
323.454
323.407
323.319
323.197
323.05
322.889
322.724
322.561
322.412
322.299
317.402
317.488
317.604
317.731
317.86
317.984
318.098
318.193
318.262
318.298
318.298
318.262
318.193
318.098
317.984
317.86
317.731
317.604
317.488
317.402
312.465
312.526
312.609
312.699
312.791
312.88
312.961
313.029
313.078
313.104
313.104
313.078
313.029
312.961
312.88
312.791
312.699
312.609
312.526
312.465
307.499
307.535
307.585
307.639
307.694
307.748
307.797
307.837
307.867
307.882
307.882
307.867
307.837
307.797
307.748
307.694
307.639
307.585
307.535
307.499
302.516
302.528
302.544
302.563
302.581
302.599
302.615
302.629
302.639
302.644
302.644
302.639
302.629
302.615
302.599
302.581
302.563
302.544
302.528
302.516
337.486
337.677
337.917
338.175
338.437
338.69
338.919
339.111
339.249
339.322
339.322
339.249
339.111
338.919
338.69
338.437
338.175
337.917
337.677
337.486
332.67
332.832
333.039
333.262
333.489
333.708
333.907
334.072
334.192
334.255
334.255
334.192
334.072
333.907
333.708
333.489
333.262
333.039
332.832
332.67
327.777
327.911
328.085
328.274
328.466
328.651
328.819
328.959
329.06
329.113
329.113
329.06
328.959
328.819
328.651
328.466
328.274
328.085
327.911
327.777
322.819
322.926
323.069
323.223
323.38
323.531
323.669
323.783
323.865
323.909
323.909
323.865
323.783
323.669
323.531
323.38
323.223
323.069
322.926
322.819
317.807
317.89
318.001
318.121
318.242
318.36
318.467
318.556
318.62
318.653
318.653
318.62
318.556
318.467
318.36
318.242
318.121
318.001
317.89
317.807
312.755
312.814
312.892
312.978
313.065
313.149
313.225
313.289
313.335
313.359
313.359
313.335
313.289
313.225
313.149
313.065
312.978
312.892
312.814
312.755
307.673
307.708
307.756
307.807
307.859
307.91
307.956
307.994
308.021
308.035
308.035
308.021
307.994
307.956
307.91
307.859
307.807
307.756
307.708
307.673
302.574
302.586
302.602
302.619
302.636
302.653
302.669
302.681
302.691
302.695
302.695
302.691
302.681
302.669
302.653
302.636
302.619
302.602
302.586
302.574
338.486
338.667
338.894
339.137
339.383
339.619
339.833
340.01
340.138
340.205
340.205
340.138
340.01
339.833
339.619
339.383
339.137
338.894
338.667
338.486
333.541
333.694
333.891
334.101
334.314
334.518
334.703
334.857
334.967
335.025
335.025
334.967
334.857
334.703
334.518
334.314
334.101
333.891
333.694
333.541
328.517
328.644
328.81
328.988
329.167
329.34
329.497
329.627
329.72
329.769
329.769
329.72
329.627
329.497
329.34
329.167
328.988
328.81
328.644
328.517
323.427
323.529
323.664
323.809
323.956
324.098
324.226
324.332
324.408
324.448
324.448
324.408
324.332
324.226
324.098
323.956
323.809
323.664
323.529
323.427
318.282
318.36
318.465
318.578
318.692
318.802
318.902
318.984
319.043
319.074
319.074
319.043
318.984
318.902
318.802
318.692
318.578
318.465
318.36
318.282
313.095
313.15
313.225
313.306
313.387
313.466
313.537
313.596
313.638
313.66
313.66
313.638
313.596
313.537
313.466
313.387
313.306
313.225
313.15
313.095
307.878
307.911
307.956
308.004
308.053
308.1
308.143
308.178
308.204
308.217
308.217
308.204
308.178
308.143
308.1
308.053
308.004
307.956
307.911
307.878
302.643
302.654
302.669
302.685
302.702
302.717
302.732
302.743
302.752
302.756
302.756
302.752
302.743
302.732
302.717
302.702
302.685
302.669
302.654
302.643
339.631
339.802
340.016
340.244
340.473
340.692
340.889
341.052
341.169
341.23
341.23
341.169
341.052
340.889
340.692
340.473
340.244
340.016
339.802
339.631
334.539
334.684
334.869
335.066
335.264
335.454
335.624
335.766
335.867
335.92
335.92
335.867
335.766
335.624
335.454
335.264
335.066
334.869
334.684
334.539
329.366
329.486
329.641
329.808
329.976
330.136
330.28
330.4
330.485
330.53
330.53
330.485
330.4
330.28
330.136
329.976
329.808
329.641
329.486
329.366
324.124
324.22
324.347
324.483
324.62
324.752
324.87
324.967
325.037
325.074
325.074
325.037
324.967
324.87
324.752
324.62
324.483
324.347
324.22
324.124
318.826
318.9
318.998
319.104
319.211
319.313
319.405
319.48
319.535
319.563
319.563
319.535
319.48
319.405
319.313
319.211
319.104
318.998
318.9
318.826
313.484
313.537
313.607
313.683
313.759
313.832
313.897
313.951
313.99
314.01
314.01
313.99
313.951
313.897
313.832
313.759
313.683
313.607
313.537
313.484
308.112
308.143
308.185
308.231
308.277
308.32
308.36
308.392
308.416
308.428
308.428
308.416
308.392
308.36
308.32
308.277
308.231
308.185
308.143
308.112
302.721
302.732
302.746
302.761
302.776
302.791
302.804
302.815
302.823
302.827
302.827
302.823
302.815
302.804
302.791
302.776
302.761
302.746
302.732
302.721
340.925
341.085
341.285
341.497
341.709
341.911
342.092
342.241
342.347
342.403
342.403
342.347
342.241
342.092
341.911
341.709
341.497
341.285
341.085
340.925
335.666
335.802
335.975
336.158
336.342
336.516
336.673
336.802
336.894
336.943
336.943
336.894
336.802
336.673
336.516
336.342
336.158
335.975
335.802
335.666
330.323
330.436
330.582
330.737
330.892
331.04
331.173
331.282
331.36
331.4
331.4
331.36
331.282
331.173
331.04
330.892
330.737
330.582
330.436
330.323
324.91
325.001
325.12
325.247
325.374
325.494
325.603
325.692
325.756
325.789
325.789
325.756
325.692
325.603
325.494
325.374
325.247
325.12
325.001
324.91
319.439
319.509
319.601
319.7
319.799
319.893
319.977
320.046
320.096
320.122
320.122
320.096
320.046
319.977
319.893
319.799
319.7
319.601
319.509
319.439
313.924
313.973
314.039
314.109
314.18
314.247
314.307
314.357
314.392
314.411
314.411
314.392
314.357
314.307
314.247
314.18
314.109
314.039
313.973
313.924
308.376
308.406
308.445
308.488
308.53
308.57
308.606
308.636
308.657
308.669
308.669
308.657
308.636
308.606
308.57
308.53
308.488
308.445
308.406
308.376
302.81
302.82
302.833
302.847
302.861
302.875
302.887
302.897
302.904
302.908
302.908
302.904
302.897
302.887
302.875
302.861
302.847
302.833
302.82
302.81
342.366
342.516
342.702
342.899
343.094
343.279
343.444
343.579
343.676
343.726
343.726
343.676
343.579
343.444
343.279
343.094
342.899
342.702
342.516
342.366
336.922
337.049
337.21
337.38
337.549
337.709
337.852
337.969
338.053
338.096
338.096
338.053
337.969
337.852
337.709
337.549
337.38
337.21
337.049
336.922
331.391
331.496
331.632
331.776
331.919
332.054
332.175
332.274
332.345
332.382
332.382
332.345
332.274
332.175
332.054
331.919
331.776
331.632
331.496
331.391
325.787
325.872
325.982
326.1
326.217
326.328
326.427
326.508
326.565
326.595
326.595
326.565
326.508
326.427
326.328
326.217
326.1
325.982
325.872
325.787
320.123
320.189
320.274
320.366
320.457
320.543
320.62
320.683
320.728
320.751
320.751
320.728
320.683
320.62
320.543
320.457
320.366
320.274
320.189
320.123
314.414
314.46
314.521
314.586
314.651
314.713
314.768
314.813
314.845
314.862
314.862
314.845
314.813
314.768
314.713
314.651
314.586
314.521
314.46
314.414
308.671
308.699
308.735
308.775
308.814
308.851
308.884
308.911
308.93
308.94
308.94
308.93
308.911
308.884
308.851
308.814
308.775
308.735
308.699
308.671
302.909
302.918
302.93
302.944
302.957
302.969
302.98
302.989
302.996
302.999
302.999
302.996
302.989
302.98
302.969
302.957
302.944
302.93
302.918
302.909
343.956
344.096
344.269
344.45
344.629
344.797
344.947
345.069
345.156
345.201
345.201
345.156
345.069
344.947
344.797
344.629
344.45
344.269
344.096
343.956
338.307
338.426
338.575
338.731
338.887
339.033
339.162
339.268
339.344
339.383
339.383
339.344
339.268
339.162
339.033
338.887
338.731
338.575
338.426
338.307
332.568
332.667
332.792
332.925
333.056
333.18
333.29
333.379
333.443
333.476
333.476
333.443
333.379
333.29
333.18
333.056
332.925
332.792
332.667
332.568
326.754
326.833
326.935
327.044
327.151
327.252
327.342
327.416
327.468
327.495
327.495
327.468
327.416
327.342
327.252
327.151
327.044
326.935
326.833
326.754
320.878
320.939
321.018
321.102
321.186
321.265
321.335
321.392
321.432
321.453
321.453
321.432
321.392
321.335
321.265
321.186
321.102
321.018
320.939
320.878
314.954
314.997
315.054
315.114
315.174
315.23
315.28
315.321
315.349
315.365
315.365
315.349
315.321
315.28
315.23
315.174
315.114
315.054
314.997
314.954
308.996
309.022
309.056
309.092
309.128
309.162
309.192
309.216
309.233
309.243
309.243
309.233
309.216
309.192
309.162
309.128
309.092
309.056
309.022
308.996
303.018
303.027
303.038
303.05
303.062
303.073
303.083
303.092
303.097
303.1
303.1
303.097
303.092
303.083
303.073
303.062
303.05
303.038
303.027
303.018
345.695
345.825
345.985
346.151
346.314
346.468
346.603
346.713
346.791
346.832
346.832
346.791
346.713
346.603
346.468
346.314
346.151
345.985
345.825
345.695
339.822
339.932
340.07
340.214
340.356
340.488
340.606
340.701
340.769
340.804
340.804
340.769
340.701
340.606
340.488
340.356
340.214
340.07
339.932
339.822
333.856
333.947
334.063
334.185
334.305
334.417
334.517
334.598
334.655
334.684
334.684
334.655
334.598
334.517
334.417
334.305
334.185
334.063
333.947
333.856
327.812
327.885
327.98
328.079
328.177
328.269
328.351
328.417
328.463
328.488
328.488
328.463
328.417
328.351
328.269
328.177
328.079
327.98
327.885
327.812
321.703
321.759
321.833
321.91
321.987
322.058
322.121
322.173
322.209
322.228
322.228
322.209
322.173
322.121
322.058
321.987
321.91
321.833
321.759
321.703
315.545
315.585
315.637
315.693
315.747
315.798
315.843
315.88
315.906
315.92
315.92
315.906
315.88
315.843
315.798
315.747
315.693
315.637
315.585
315.545
309.352
309.375
309.407
309.44
309.473
309.504
309.531
309.553
309.568
309.576
309.576
309.568
309.553
309.531
309.504
309.473
309.44
309.407
309.375
309.352
303.137
303.145
303.156
303.167
303.178
303.188
303.197
303.205
303.21
303.213
303.213
303.21
303.205
303.197
303.188
303.178
303.167
303.156
303.145
303.137
347.583
347.703
347.85
348.002
348.151
348.289
348.412
348.51
348.58
348.616
348.616
348.58
348.51
348.412
348.289
348.151
348.002
347.85
347.703
347.583
341.466
341.568
341.695
341.827
341.956
342.076
342.182
342.267
342.328
342.359
342.359
342.328
342.267
342.182
342.076
341.956
341.827
341.695
341.568
341.466
335.253
335.337
335.444
335.556
335.665
335.767
335.857
335.929
335.98
336.007
336.007
335.98
335.929
335.857
335.767
335.665
335.556
335.444
335.337
335.253
328.959
329.027
329.114
329.205
329.294
329.378
329.451
329.51
329.552
329.574
329.574
329.552
329.51
329.451
329.378
329.294
329.205
329.114
329.027
328.959
322.598
322.65
322.718
322.789
322.858
322.923
322.98
323.026
323.059
323.076
323.076
323.059
323.026
322.98
322.923
322.858
322.789
322.718
322.65
322.598
316.186
316.223
316.271
316.322
316.371
316.418
316.458
316.491
316.515
316.527
316.527
316.515
316.491
316.458
316.418
316.371
316.322
316.271
316.223
316.186
309.737
309.759
309.788
309.818
309.848
309.876
309.901
309.921
309.935
309.942
309.942
309.935
309.921
309.901
309.876
309.848
309.818
309.788
309.759
309.737
303.266
303.274
303.284
303.294
303.304
303.313
303.321
303.328
303.333
303.335
303.335
303.333
303.328
303.321
303.313
303.304
303.294
303.284
303.274
303.266
349.614
349.725
349.86
349.999
350.134
350.26
350.369
350.458
350.52
350.553
350.553
350.52
350.458
350.369
350.26
350.134
349.999
349.86
349.725
349.614
343.235
343.329
343.445
343.566
343.683
343.792
343.887
343.964
344.018
344.046
344.046
344.018
343.964
343.887
343.792
343.683
343.566
343.445
343.329
343.235
336.756
336.834
336.932
337.034
337.133
337.225
337.306
337.371
337.417
337.44
337.44
337.417
337.371
337.306
337.225
337.133
337.034
336.932
336.834
336.756
330.193
330.255
330.335
330.418
330.5
330.575
330.641
330.694
330.732
330.751
330.751
330.732
330.694
330.641
330.575
330.5
330.418
330.335
330.255
330.193
323.56
323.608
323.67
323.735
323.798
323.857
323.908
323.95
323.979
323.994
323.994
323.979
323.95
323.908
323.857
323.798
323.735
323.67
323.608
323.56
316.875
316.909
316.953
316.999
317.045
317.087
317.123
317.153
317.174
317.184
317.184
317.174
317.153
317.123
317.087
317.045
316.999
316.953
316.909
316.875
310.152
310.172
310.198
310.226
310.253
310.278
310.301
310.318
310.331
310.337
310.337
310.331
310.318
310.301
310.278
310.253
310.226
310.198
310.172
310.152
303.405
303.412
303.421
303.43
303.44
303.448
303.455
303.461
303.466
303.468
303.468
303.466
303.461
303.455
303.448
303.44
303.43
303.421
303.412
303.405
351.781
351.883
352.006
352.133
352.256
352.369
352.467
352.547
352.602
352.631
352.631
352.602
352.547
352.467
352.369
352.256
352.133
352.006
351.883
351.781
345.12
345.206
345.313
345.423
345.529
345.627
345.713
345.782
345.83
345.855
345.855
345.83
345.782
345.713
345.627
345.529
345.423
345.313
345.206
345.12
338.356
338.428
338.518
338.611
338.701
338.784
338.856
338.914
338.955
338.976
338.976
338.955
338.914
338.856
338.784
338.701
338.611
338.518
338.428
338.356
331.505
331.563
331.636
331.712
331.786
331.854
331.913
331.961
331.994
332.012
332.012
331.994
331.961
331.913
331.854
331.786
331.712
331.636
331.563
331.505
324.584
324.628
324.685
324.744
324.801
324.854
324.9
324.937
324.963
324.977
324.977
324.963
324.937
324.9
324.854
324.801
324.744
324.685
324.628
324.584
317.607
317.638
317.679
317.721
317.762
317.8
317.833
317.86
317.878
317.888
317.888
317.878
317.86
317.833
317.8
317.762
317.721
317.679
317.638
317.607
310.592
310.611
310.635
310.66
310.685
310.708
310.727
310.743
310.755
310.76
310.76
310.755
310.743
310.727
310.708
310.685
310.66
310.635
310.611
310.592
303.553
303.559
303.568
303.576
303.584
303.592
303.599
303.604
303.608
303.61
303.61
303.608
303.604
303.599
303.592
303.584
303.576
303.568
303.559
303.553
354.056
354.15
354.263
354.379
354.49
354.592
354.681
354.752
354.801
354.827
354.827
354.801
354.752
354.681
354.592
354.49
354.379
354.263
354.15
354.056
347.096
347.176
347.273
347.373
347.47
347.558
347.635
347.697
347.74
347.762
347.762
347.74
347.697
347.635
347.558
347.47
347.373
347.273
347.176
347.096
340.031
340.097
340.179
340.264
340.345
340.42
340.485
340.538
340.574
340.593
340.593
340.574
340.538
340.485
340.42
340.345
340.264
340.179
340.097
340.031
332.877
332.93
332.997
333.067
333.133
333.195
333.248
333.291
333.321
333.336
333.336
333.321
333.291
333.248
333.195
333.133
333.067
332.997
332.93
332.877
325.652
325.692
325.744
325.798
325.85
325.898
325.94
325.973
325.996
326.008
326.008
325.996
325.973
325.94
325.898
325.85
325.798
325.744
325.692
325.652
318.371
318.4
318.437
318.475
318.513
318.547
318.576
318.6
318.617
318.625
318.625
318.617
318.6
318.576
318.547
318.513
318.475
318.437
318.4
318.371
311.051
311.068
311.09
311.113
311.136
311.156
311.174
311.188
311.198
311.203
311.203
311.198
311.188
311.174
311.156
311.136
311.113
311.09
311.068
311.051
303.707
303.713
303.72
303.728
303.735
303.742
303.748
303.753
303.756
303.758
303.758
303.756
303.753
303.748
303.742
303.735
303.728
303.72
303.713
303.707
356.38
356.466
356.569
356.675
356.776
356.868
356.948
357.012
357.056
357.079
357.079
357.056
357.012
356.948
356.868
356.776
356.675
356.569
356.466
356.38
349.104
349.177
349.267
349.358
349.446
349.526
349.595
349.65
349.689
349.709
349.709
349.689
349.65
349.595
349.526
349.446
349.358
349.267
349.177
349.104
341.726
341.786
341.862
341.939
342.013
342.081
342.14
342.187
342.219
342.236
342.236
342.219
342.187
342.14
342.081
342.013
341.939
341.862
341.786
341.726
334.26
334.309
334.371
334.434
334.495
334.55
334.599
334.637
334.664
334.677
334.677
334.664
334.637
334.599
334.55
334.495
334.434
334.371
334.309
334.26
326.726
326.763
326.811
326.86
326.907
326.951
326.988
327.018
327.039
327.05
327.05
327.039
327.018
326.988
326.951
326.907
326.86
326.811
326.763
326.726
319.137
319.163
319.198
319.233
319.267
319.298
319.324
319.346
319.361
319.368
319.368
319.361
319.346
319.324
319.298
319.267
319.233
319.198
319.163
319.137
311.51
311.526
311.547
311.568
311.588
311.607
311.623
311.636
311.645
311.649
311.649
311.645
311.636
311.623
311.607
311.588
311.568
311.547
311.526
311.51
303.861
303.866
303.873
303.88
303.887
303.893
303.899
303.903
303.906
303.908
303.908
303.906
303.903
303.899
303.893
303.887
303.88
303.873
303.866
303.861
358.597
358.677
358.772
358.869
358.961
359.045
359.118
359.176
359.216
359.236
359.236
359.216
359.176
359.118
359.045
358.961
358.869
358.772
358.677
358.597
350.998
351.065
351.148
351.232
351.312
351.385
351.448
351.498
351.533
351.551
351.551
351.533
351.498
351.448
351.385
351.312
351.232
351.148
351.065
350.998
343.306
343.362
343.432
343.503
343.571
343.634
343.687
343.73
343.759
343.774
343.774
343.759
343.73
343.687
343.634
343.571
343.503
343.432
343.362
343.306
335.539
335.584
335.641
335.7
335.755
335.806
335.85
335.885
335.909
335.922
335.922
335.909
335.885
335.85
335.806
335.755
335.7
335.641
335.584
335.539
327.711
327.746
327.79
327.835
327.879
327.918
327.953
327.98
327.999
328.008
328.008
327.999
327.98
327.953
327.918
327.879
327.835
327.79
327.746
327.711
319.836
319.861
319.892
319.925
319.956
319.984
320.009
320.028
320.042
320.049
320.049
320.042
320.028
320.009
319.984
319.956
319.925
319.892
319.861
319.836
311.928
311.943
311.962
311.981
312
312.017
312.032
312.044
312.052
312.056
312.056
312.052
312.044
312.032
312.017
312
311.981
311.962
311.943
311.928
304.001
304.006
304.012
304.018
304.025
304.03
304.035
304.039
304.042
304.043
304.043
304.042
304.039
304.035
304.03
304.025
304.018
304.012
304.006
304.001
360.317
360.392
360.482
360.573
360.659
360.738
360.805
360.859
360.896
360.915
360.915
360.896
360.859
360.805
360.738
360.659
360.573
360.482
360.392
360.317
352.412
352.475
352.553
352.632
352.708
352.776
352.835
352.882
352.914
352.931
352.931
352.914
352.882
352.835
352.776
352.708
352.632
352.553
352.475
352.412
344.451
344.504
344.57
344.637
344.701
344.76
344.81
344.849
344.877
344.891
344.891
344.877
344.849
344.81
344.76
344.701
344.637
344.57
344.504
344.451
336.443
336.486
336.54
336.595
336.647
336.695
336.736
336.769
336.792
336.803
336.803
336.792
336.769
336.736
336.695
336.647
336.595
336.54
336.486
336.443
328.394
328.427
328.469
328.512
328.553
328.591
328.623
328.648
328.666
328.675
328.675
328.666
328.648
328.623
328.591
328.553
328.512
328.469
328.427
328.394
320.315
320.338
320.368
320.399
320.428
320.455
320.478
320.496
320.509
320.515
320.515
320.509
320.496
320.478
320.455
320.428
320.399
320.368
320.338
320.315
312.212
312.226
312.244
312.262
312.28
312.296
312.31
312.321
312.328
312.332
312.332
312.328
312.321
312.31
312.296
312.28
312.262
312.244
312.226
312.212
304.095
304.1
304.106
304.112
304.118
304.123
304.128
304.132
304.134
304.136
304.136
304.134
304.132
304.128
304.123
304.118
304.112
304.106
304.1
304.095
)
;

boundaryField
{
    hotSide
    {
        type            fixedGradient;
        gradient        nonuniform List<scalar> 
400
(
347.963
349.39
352.247
356.539
362.272
369.455
378.096
388.207
399.798
412.88
427.463
443.557
461.171
480.314
500.992
523.211
546.976
572.292
599.162
627.588
350.91
352.315
355.126
359.351
364.999
372.08
380.607
390.593
402.053
415
429.447
445.406
462.888
481.903
502.458
524.561
548.217
573.431
600.206
628.544
354.1
355.477
358.234
362.379
367.926
374.888
383.281
393.123
404.432
417.224
431.517
447.324
464.658
483.531
503.953
525.93
549.468
574.573
601.247
629.493
357.48
358.824
361.517
365.571
371.001
377.826
386.066
395.745
406.884
419.505
433.626
449.267
466.441
485.162
505.441
527.284
550.699
575.691
602.261
630.412
360.955
362.262
364.884
368.835
374.135
380.808
388.881
398.381
409.336
421.771
435.711
451.176
468.182
486.746
506.877
528.584
551.875
576.752
603.219
631.276
364.38
365.648
368.194
372.036
377.198
383.711
391.607
400.921
411.686
423.933
437.688
452.975
469.814
488.221
508.208
529.783
552.953
577.721
604.089
632.058
367.558
368.788
371.258
374.991
380.017
386.372
394.096
403.23
413.812
425.877
439.456
454.577
471.259
489.521
509.375
530.829
553.89
578.559
604.839
632.729
370.257
371.451
373.852
377.487
382.391
388.606
396.178
405.153
415.574
427.482
440.91
455.887
472.437
490.576
510.318
531.671
554.64
579.228
605.436
633.261
372.231
373.398
375.748
379.308
384.119
390.228
397.685
406.54
416.841
428.631
441.947
456.819
473.271
491.321
510.981
532.261
555.165
579.695
605.851
633.631
373.277
374.43
376.751
380.27
385.031
391.082
398.477
407.268
417.504
429.232
442.488
457.304
473.704
491.707
511.325
532.566
555.436
579.936
606.064
633.82
373.277
374.43
376.751
380.27
385.031
391.082
398.477
407.268
417.504
429.232
442.488
457.304
473.704
491.707
511.325
532.566
555.436
579.936
606.064
633.82
372.231
373.398
375.748
379.308
384.119
390.228
397.685
406.54
416.841
428.631
441.947
456.819
473.271
491.321
510.981
532.261
555.165
579.695
605.851
633.631
370.257
371.451
373.852
377.487
382.391
388.606
396.178
405.153
415.574
427.482
440.91
455.887
472.437
490.576
510.318
531.671
554.64
579.228
605.436
633.261
367.558
368.788
371.258
374.991
380.017
386.372
394.096
403.23
413.812
425.877
439.456
454.577
471.259
489.521
509.375
530.829
553.89
578.559
604.839
632.729
364.38
365.648
368.194
372.036
377.198
383.711
391.607
400.921
411.686
423.933
437.688
452.975
469.814
488.221
508.208
529.783
552.953
577.721
604.089
632.058
360.955
362.262
364.884
368.835
374.135
380.808
388.881
398.381
409.336
421.771
435.711
451.176
468.182
486.746
506.877
528.584
551.875
576.752
603.219
631.276
357.48
358.824
361.517
365.571
371.001
377.826
386.066
395.745
406.884
419.505
433.626
449.267
466.441
485.162
505.441
527.284
550.699
575.691
602.261
630.412
354.1
355.477
358.234
362.379
367.926
374.888
383.281
393.123
404.432
417.224
431.517
447.324
464.658
483.531
503.953
525.93
549.468
574.573
601.247
629.493
350.91
352.315
355.126
359.351
364.999
372.08
380.607
390.593
402.053
415
429.447
445.406
462.888
481.903
502.458
524.561
548.217
573.431
600.206
628.544
347.963
349.39
352.247
356.539
362.272
369.455
378.096
388.207
399.798
412.88
427.463
443.557
461.171
480.314
500.992
523.211
546.976
572.292
599.162
627.588
)
;
    }
    coldSide
    {
        type            mixed;
        refValue        uniform 300;
        refGradient     uniform 0;
        valueFraction   uniform 0.991591;
        source          uniform 0;
        value           nonuniform List<scalar> 
400
(
300.02
300.02
300.02
300.02
300.021
300.021
300.022
300.022
300.023
300.024
300.024
300.025
300.026
300.027
300.029
300.03
300.031
300.032
300.034
300.034
300.02
300.02
300.02
300.021
300.021
300.021
300.022
300.022
300.023
300.024
300.025
300.025
300.026
300.028
300.029
300.03
300.031
300.033
300.034
300.034