/*--------------------------------*- C++ -*----------------------------------*\
| =========                 |                                                 |
| \\      /  F ield         | OpenFOAM: The Open Source CFD Toolbox           |
|  \\    /   O peration     | Version:  2212                                  |
|   \\  /    A nd           | Website:  www.openfoam.com                      |
|    \\/     M anipulation  |                                                 |
\*---------------------------------------------------------------------------*/
FoamFile
{
    version     2.0;
    format      ascii;
    arch        "LSB;label=32;scalar=64";
    class       volScalarField;
    location    "0";
    object      Tdirect;
}
// * * * * * * * * * * * * * * * * * * * * * * * * * * * * * * * * * * * * * //

dimensions      [0 0 0 1 0 0 0];

internalField   nonuniform List<scalar> 
3200
(
348.553
349.699
351.147
352.717
354.333
355.918
357.383
358.62
359.522
359.998
359.998
359.522
358.62
357.383
355.918
354.333
352.717
351.147
349.699
348.553
342.67
343.635
344.876
346.227
347.616
348.979
350.238
351.3
352.074
352.483
352.483
352.074
351.3
350.238
348.979
347.616
346.227
344.876
343.635
342.67
336.556
337.353
338.394
339.528
340.696
341.841
342.897
343.789
344.438
344.781
344.781
344.438
343.789
342.897
341.841
340.696
339.528
338.394
337.353
336.556
330.232
330.871
331.715
332.638
333.587
334.519
335.377
336.102
336.629
336.907
336.907
336.629
336.102
335.377
334.519
333.587
332.638
331.715
330.871
330.232
323.725
324.213
324.866
325.58
326.315
327.035
327.7
328.26
328.668
328.883
328.883
328.668
328.26
327.7
327.035
326.315
325.58
324.866
324.213
323.725
317.067
317.412
317.875
318.384
318.907
319.42
319.892
320.291
320.581
320.734
320.734
320.581
320.291
319.892
319.42
318.907
318.384
317.875
317.412
317.067
310.298
310.503
310.781
311.085
311.399
311.706
311.989
312.227
312.401
312.493
312.493
312.401
312.227
311.989
311.706
311.399
311.085
310.781
310.503
310.298
303.46
303.528
303.621
303.723
303.828
303.931
304.026
304.105
304.164
304.194
304.194
304.164
304.105
304.026
303.931
303.828
303.723
303.621
303.528
303.46
348.629
349.766
351.201
352.757
354.356
355.924
357.371
358.593
359.483
359.953
359.953
359.483
358.593
357.371
355.924
354.356
352.757
351.201
349.766
348.629
342.735
343.692
344.923
346.261
347.636
348.984
350.228
351.277
352.041
352.444
352.444
352.041
351.277
350.228
348.984
347.636
346.261
344.923
343.692
342.735
336.611
337.401
338.433
339.557
340.712
341.845
342.889
343.77
344.41
344.749
344.749
344.41
343.77
342.889
341.845
340.712
339.557
338.433
337.401
336.611
330.277
330.91
331.747
332.661
333.601
334.522
335.371
336.086
336.607
336.882
336.882
336.607
336.086
335.371
334.522
333.601
332.661
331.747
330.91
330.277
323.759
324.244
324.89
325.598
326.325
327.038
327.695
328.248
328.651
328.863
328.863
328.651
328.248
327.695
327.038
326.325
325.598
324.89
324.244
323.759
317.091
317.433
317.893
318.397
318.915
319.422
319.889
320.283
320.569
320.72
320.72
320.569
320.283
319.889
319.422
318.915
318.397
317.893
317.433
317.091
310.312
310.516
310.791
311.093
311.403
311.707
311.987
312.222
312.394
312.484
312.484
312.394
312.222
311.987
311.707
311.403
311.093
310.791
310.516
310.312
303.465
303.533
303.625
303.726
303.83
303.931
304.025
304.104
304.161
304.191
304.191
304.161
304.104
304.025
303.931
303.83
303.726
303.625
303.533
303.465
348.782
349.901
351.311
352.838
354.405
355.939
357.353
358.544
359.411
359.869
359.869
359.411
358.544
357.353
355.939
354.405
352.838
351.311
349.901
348.782
342.866
343.808
345.018
346.331
347.679
348.998
350.212
351.236
351.98
352.373
352.373
351.98
351.236
350.212
348.998
347.679
346.331
345.018
343.808
342.866
336.721
337.499
338.513
339.616
340.749
341.857
342.877
343.736
344.36
344.69
344.69
344.36
343.736
342.877
341.857
340.749
339.616
338.513
337.499
336.721
330.366
330.99
331.812
332.71
333.631
334.532
335.361
336.059
336.566
336.834
336.834
336.566
336.059
335.361
334.532
333.631
332.71
331.812
330.99
330.366
323.828
324.305
324.941
325.635
326.348
327.046
327.687
328.227
328.619
328.826
328.826
328.619
328.227
327.687
327.046
326.348
325.635
324.941
324.305
323.828
317.141
317.477
317.929
318.423
318.931
319.427
319.884
320.268
320.547
320.694
320.694
320.547
320.268
319.884
319.427
318.931
318.423
317.929
317.477
317.141
310.342
310.542
310.813
311.109
311.413
311.71
311.984
312.214
312.381
312.469
312.469
312.381
312.214
311.984
311.71
311.413
311.109
310.813
310.542
310.342
303.475
303.541
303.632
303.731
303.833
303.932
304.024
304.101
304.157
304.186
304.186
304.157
304.101
304.024
303.932
303.833
303.731
303.632
303.541
303.475
349.014
350.107
351.482
352.967
354.487
355.972
357.337
358.485
359.32
359.76
359.76
359.32
358.485
357.337
355.972
354.487
352.967
351.482
350.107
349.014
343.065
343.986
345.165
346.442
347.75
349.026
350.2
351.186
351.902
352.28
352.28
351.902
351.186
350.2
349.026
347.75
346.442
345.165
343.986
343.065
336.888
337.648
338.636
339.71
340.808
341.881
342.866
343.695
344.296
344.613
344.613
344.296
343.695
342.866
341.881
340.808
339.71
338.636
337.648
336.888
330.502
331.111
331.913
332.786
333.68
334.552
335.353
336.026
336.515
336.772
336.772
336.515
336.026
335.353
334.552
333.68
332.786
331.913
331.111
330.502
323.933
324.399
325.019
325.694
326.386
327.062
327.681
328.202
328.58
328.779
328.779
328.58
328.202
327.681
327.062
326.386
325.694
325.019
324.399
323.933
317.215
317.544
317.985
318.465
318.958
319.439
319.88
320.25
320.519
320.661
320.661
320.519
320.25
319.88
319.439
318.958
318.465
317.985
317.544
317.215
310.387
310.582
310.846
311.134
311.429
311.717
311.981
312.203
312.364
312.449
312.449
312.364
312.203
311.981
311.717
311.429
311.134
310.846
310.582
310.387
303.489
303.555
303.643
303.739
303.838
303.935
304.023
304.097
304.151
304.18
304.18
304.151
304.097
304.023
303.935
303.838
303.739
303.643
303.555
303.489
349.328
350.388
351.718
353.149
354.61
356.033
357.338
358.432
359.226
359.644
359.644
359.226
358.432
357.338
356.033
354.61
353.149
351.718
350.388
349.328
343.335
344.228
345.368
346.599
347.856
349.08
350.201
351.141
351.823
352.182
352.182
351.823
351.141
350.201
349.08
347.856
346.599
345.368
344.228
343.335
337.115
337.851
338.807
339.842
340.899
341.927
342.869
343.658
344.23
344.531
344.531
344.23
343.658
342.869
341.927
340.899
339.842
338.807
337.851
337.115
330.686
331.276
332.052
332.894
333.753
334.59
335.355
335.997
336.462
336.707
336.707
336.462
335.997
335.355
334.59
333.753
332.894
332.052
331.276
330.686
324.076
324.527
325.127
325.778
326.444
327.091
327.683
328.18
328.54
328.729
328.729
328.54
328.18
327.683
327.091
326.444
325.778
325.127
324.527
324.076
317.317
317.635
318.061
318.525
318.999
319.46
319.881
320.235
320.49
320.625
320.625
320.49
320.235
319.881
319.46
318.999
318.525
318.061
317.635
317.317
310.447
310.637
310.892
311.17
311.454
311.73
311.982
312.194
312.347
312.428
312.428
312.347
312.194
311.982
311.73
311.454
311.17
310.892
310.637
310.447
303.51
303.573
303.658
303.751
303.846
303.939
304.023
304.094
304.146
304.173
304.173
304.146
304.094
304.023
303.939
303.846
303.751
303.658
303.573
303.51
349.729
350.749
352.025
353.394
354.787
356.137
357.371
358.403
359.15
359.542
359.542
359.15
358.403
357.371
356.137
354.787
353.394
352.025
350.749
349.729
343.68
344.539
345.633
346.811
348.009
349.17
350.231
351.118
351.759
352.097
352.097
351.759
351.118
350.231
349.17
348.009
346.811
345.633
344.539
343.68
337.404
338.113
339.03
340.02
341.027
342.003
342.894
343.639
344.178
344.461
344.461
344.178
343.639
342.894
342.003
341.027
340.02
339.03
338.113
337.404
330.921
331.489
332.234
333.039
333.858
334.652
335.377
335.982
336.42
336.65
336.65
336.42
335.982
335.377
334.652
333.858
333.039
332.234
331.489
330.921
324.258
324.692
325.267
325.891
326.525
327.14
327.7
328.169
328.508
328.686
328.686
328.508
328.169
327.7
327.14
326.525
325.891
325.267
324.692
324.258
317.446
317.753
318.162
318.605
319.057
319.495
319.894
320.227
320.468
320.595
320.595
320.468
320.227
319.894
319.495
319.057
318.605
318.162
317.753
317.446
310.525
310.707
310.952
311.218
311.488
311.751
311.99
312.19
312.334
312.41
312.41
312.334
312.19
311.99
311.751
311.488
311.218
310.952
310.707
310.525
303.536
303.597
303.679
303.768
303.858
303.946
304.026
304.093
304.141
304.166
304.166
304.141
304.093
304.026
303.946
303.858
303.768
303.679
303.597
303.536
350.222
351.197
352.413
353.712
355.028
356.298
357.455
358.419
359.114
359.479
359.479
359.114
358.419
357.455
356.298
355.028
353.712
352.413
351.197
350.222
344.103
344.924
345.967
347.085
348.217
349.31
350.304
351.133
351.731
352.044
352.044
351.731
351.133
350.304
349.31
348.217
347.085
345.967
344.924
344.103
337.759
338.437
339.311
340.251
341.202
342.121
342.957
343.653
344.155
344.418
344.418
344.155
343.653
342.957
342.121
341.202
340.251
339.311
338.437
337.759
331.21
331.753
332.462
333.227
334.001
334.749
335.428
335.994
336.402
336.616
336.616
336.402
335.994
335.428
334.749
334.001
333.227
332.462
331.753
331.21
324.481
324.896
325.445
326.036
326.636
327.215
327.741
328.179
328.494
328.66
328.66
328.494
328.179
327.741
327.215
326.636
326.036
325.445
324.896
324.481
317.605
317.898
318.288
318.709
319.136
319.548
319.922
320.234
320.459
320.577
320.577
320.459
320.234
319.922
319.548
319.136
318.709
318.288
317.898
317.605
310.62
310.795
311.028
311.28
311.536
311.783
312.007
312.194
312.328
312.399
312.399
312.328
312.194
312.007
311.783
311.536
311.28
311.028
310.795
310.62
303.568
303.626
303.704
303.788
303.874
303.957
304.032
304.094
304.139
304.163
304.163
304.139
304.094
304.032
303.957
303.874
303.788
303.704
303.626
303.568
350.811
351.737
352.888
354.112
355.346
356.533
357.607
358.5
359.142
359.479
359.479
359.142
358.5
357.607
356.533
355.346
354.112
352.888
351.737
350.811
344.609
345.389
346.376
347.43
348.491
349.512
350.437
351.204
351.756
352.045
352.045
351.756
351.204
350.437
349.512
348.491
347.43
346.376
345.389
344.609
338.184
338.828
339.655
340.541
341.434
342.292
343.069
343.714
344.178
344.42
344.42
344.178
343.714
343.069
342.292
341.434
340.541
339.655
338.828
338.184
331.555
332.071
332.743
333.463
334.19
334.888
335.52
336.044
336.421
336.619
336.619
336.421
336.044
335.52
334.888
334.19
333.463
332.743
332.071
331.555
324.748
325.143
325.662
326.219
326.782
327.323
327.812
328.218
328.51
328.662
328.662
328.51
328.218
327.812
327.323
326.782
326.219
325.662
325.143
324.748
317.795
318.074
318.443
318.84
319.24
319.625
319.973
320.262
320.47
320.579
320.579
320.47
320.262
319.973
319.625
319.24
318.84
318.443
318.074
317.795
310.734
310.9
311.12
311.358
311.598
311.829
312.038
312.211
312.335
312.4
312.4
312.335
312.211
312.038
311.829
311.598
311.358
311.12
310.9
310.734
303.606
303.661
303.735
303.815
303.895
303.972
304.042
304.1
304.142
304.163
304.163
304.142
304.1
304.042
303.972
303.895
303.815
303.735
303.661
303.606
351.502
352.377
353.459
354.606
355.755
356.855
357.846
358.667
359.255
359.562
359.562
359.255
358.667
357.846
356.855
355.755
354.606
353.459
352.377
351.502
345.203
345.939
346.868
347.854
348.844
349.79
350.643
351.349
351.855
352.119
352.119
351.855
351.349
350.643
349.79
348.844
347.854
346.868
345.939
345.203
338.683
339.291
340.069
340.898
341.73
342.526
343.243
343.836
344.261
344.484
344.484
344.261
343.836
343.243
342.526
341.73
340.898
340.069
339.291
338.683
331.96
332.448
333.08
333.754
334.431
335.079
335.662
336.145
336.49
336.671
336.671
336.49
336.145
335.662
335.079
334.431
333.754
333.08
332.448
331.96
325.062
325.434
325.923
326.445
326.969
327.471
327.923
328.296
328.564
328.703
328.703
328.564
328.296
327.923
327.471
326.969
326.445
325.923
325.434
325.062
318.018
318.281
318.628
319
319.374
319.731
320.052
320.318
320.509
320.608
320.608
320.509
320.318
320.052
319.731
319.374
319
318.628
318.281
318.018
310.867
311.024
311.232
311.455
311.678
311.892
312.085
312.244
312.358
312.418
312.418
312.358
312.244
312.085
311.892
311.678
311.455
311.232
311.024
310.867
303.65
303.703
303.772
303.847
303.922
303.993
304.058
304.111
304.149
304.169
304.169
304.149
304.111
304.058
303.993
303.922
303.847
303.772
303.703
303.65
352.3
353.122
354.135
355.202
356.266
357.279
358.188
358.937
359.472
359.751
359.751
359.472
358.937
358.188
357.279
356.266
355.202
354.135
353.122
352.3
345.888
346.581
347.45
348.368
349.284
350.156
350.938
351.582
352.043
352.283
352.283
352.043
351.582
350.938
350.156
349.284
348.368
347.45
346.581
345.888
339.259
339.83
340.558
341.33
342.101
342.834
343.492
344.034
344.421
344.623
344.623
344.421
344.034
343.492
342.834
342.101
341.33
340.558
339.83
339.259
332.429
332.887
333.478
334.106
334.733
335.33
335.865
336.306
336.621
336.785
336.785
336.621
336.306
335.865
335.33
334.733
334.106
333.478
332.887
332.429
325.424
325.774
326.231
326.717
327.203
327.665
328.08
328.421
328.665
328.792
328.792
328.665
328.421
328.08
327.665
327.203
326.717
326.231
325.774
325.424
318.276
318.523
318.848
319.194
319.54
319.869
320.164
320.407
320.581
320.671
320.671
320.581
320.407
320.164
319.869
319.54
319.194
318.848
318.523
318.276
311.022
311.169
311.364
311.571
311.778
311.976
312.152
312.298
312.402
312.456
312.456
312.402
312.298
312.152
311.976
311.778
311.571
311.364
311.169
311.022
303.702
303.751
303.816
303.886
303.955
304.021
304.08
304.129
304.164
304.182
304.182
304.164
304.129
304.08
304.021
303.955
303.886
303.816
303.751
303.702
353.21
353.979
354.922
355.91
356.89
357.818
358.646
359.326
359.811
360.063
360.063
359.811
359.326
358.646
357.818
356.89
355.91
354.922
353.979
353.21
346.671
347.318
348.127
348.977
349.821
350.62
351.334
351.919
352.335
352.553
352.553
352.335
351.919
351.334
350.62
349.821
348.977
348.127
347.318
346.671
339.916
340.45
341.128
341.843
342.553
343.225
343.825
344.317
344.667
344.85
344.85
344.667
344.317
343.825
343.225
342.553
341.843
341.128
340.45
339.916
332.963
333.391
333.942
334.523
335.101
335.648
336.137
336.537
336.822
336.97
336.97
336.822
336.537
336.137
335.648
335.101
334.523
333.942
333.391
332.963
325.838
326.165
326.59
327.041
327.489
327.912
328.29
328.6
328.821
328.936
328.936
328.821
328.6
328.29
327.912
327.489
327.041
326.59
326.165
325.838
318.571
318.802
319.104
319.425
319.744
320.045
320.315
320.535
320.692
320.774
320.774
320.692
320.535
320.315
320.045
319.744
319.425
319.104
318.802
318.571
311.198
311.336
311.517
311.709
311.9
312.081
312.242
312.375
312.469
312.518
312.518
312.469
312.375
312.242
312.081
311.9
311.709
311.517
311.336
311.198
303.761
303.807
303.868
303.932
303.996
304.057
304.111
304.155
304.186
304.203
304.203
304.186
304.155
304.111
304.057
303.996
303.932
303.868
303.807
303.761
354.237
354.953
355.827
356.738
357.636
358.483
359.235
359.849
360.285
360.512
360.512
360.285
359.849
359.235
358.483
357.636
356.738
355.827
354.953
354.237
347.554
348.157
348.906
349.69
350.464
351.193
351.84
352.369
352.745
352.94
352.94
352.745
352.369
351.84
351.193
350.464
349.69
348.906
348.157
347.554
340.658
341.155
341.784
342.443
343.094
343.707
344.252
344.697
345.012
345.176
345.176
345.012
344.697
344.252
343.707
343.094
342.443
341.784
341.155
340.658
333.566
333.965
334.475
335.012
335.542
336.041
336.484
336.846
337.103
337.237
337.237
337.103
336.846
336.484
336.041
335.542
335.012
334.475
333.965
333.566
326.305
326.609
327.004
327.419
327.83
328.216
328.56
328.84
329.039
329.143
329.143
329.039
328.84
328.56
328.216
327.83
327.419
327.004
326.609
326.305
318.903
319.118
319.398
319.694
319.987
320.262
320.507
320.706
320.848
320.921
320.921
320.848
320.706
320.507
320.262
319.987
319.694
319.398
319.118
318.903
311.397
311.525
311.693
311.871
312.046
312.211
312.357
312.477
312.562
312.606
312.606
312.562
312.477
312.357
312.211
312.046
311.871
311.693
311.525
311.397
303.828
303.871
303.927
303.986
304.045
304.1
304.149
304.189
304.218
304.232
304.232
304.218
304.189
304.149
304.1
304.045
303.986
303.927
303.871
303.828
355.385
356.049
356.856
357.693
358.514
359.283
359.962
360.515
360.907
361.11
361.11
360.907
360.515
359.962
359.283
358.514
357.693
356.856
356.049
355.385
348.541
349.1
349.793
350.513
351.22
351.882
352.467
352.943
353.281
353.455
353.455
353.281
352.943
352.467
351.882
351.22
350.513
349.793
349.1
348.541
341.487
341.949
342.529
343.135
343.73
344.287
344.779
345.18
345.463
345.61
345.61
345.463
345.18
344.779
344.287
343.73
343.135
342.529
341.949
341.487
334.241
334.611
335.082
335.575
336.059
336.513
336.914
337.24
337.471
337.59
337.59
337.471
337.24
336.914
336.513
336.059
335.575
335.082
334.611
334.241
326.827
327.11
327.474
327.855
328.231
328.582
328.893
329.145
329.324
329.417
329.417
329.324
329.145
328.893
328.582
328.231
327.855
327.474
327.11
326.827
319.275
319.474
319.733
320.005
320.272
320.522
320.744
320.923
321.051
321.117
321.117
321.051
320.923
320.744
320.522
320.272
320.005
319.733
319.474
319.275
311.62
311.739
311.894
312.057
312.217
312.367
312.499
312.607
312.684
312.723
312.723
312.684
312.607
312.499
312.367
312.217
312.057
311.894
311.739
311.62
303.902
303.942
303.994
304.048
304.102
304.152
304.197
304.233
304.258
304.272
304.272
304.258
304.233
304.197
304.152
304.102
304.048
303.994
303.942
303.902
356.658
357.272
358.015
358.781
359.528
360.224
360.837
361.333
361.684
361.865
361.865
361.684
361.333
360.837
360.224
359.528
358.781
358.015
357.272
356.658
349.636
350.153
350.79
351.449
352.093
352.693
353.22
353.648
353.95
354.106
354.106
353.95
353.648
353.22
352.693
352.093
351.449
350.79
350.153
349.636
342.407
342.834
343.368
343.923
344.464
344.969
345.413
345.773
346.026
346.158
346.158
346.026
345.773
345.413
344.969
344.464
343.923
343.368
342.834
342.407
334.989
335.331
335.765
336.216
336.657
337.068
337.43
337.722
337.929
338.036
338.036
337.929
337.722
337.43
337.068
336.657
336.216
335.765
335.331
334.989
327.406
327.667
328.002
328.352
328.694
329.012
329.292
329.519
329.679
329.762
329.762
329.679
329.519
329.292
329.012
328.694
328.352
328.002
327.667
327.406
319.687
319.871
320.11
320.359
320.602
320.829
321.028
321.19
321.304
321.363
321.363
321.304
321.19
321.028
320.829
320.602
320.359
320.11
319.871
319.687
311.867
311.977
312.119
312.269
312.415
312.55
312.67
312.767
312.835
312.871
312.871
312.835
312.767
312.67
312.55
312.415
312.269
312.119
311.977
311.867
303.985
304.022
304.069
304.119
304.168
304.214
304.254
304.286
304.309
304.321
304.321
304.309
304.286
304.254
304.214
304.168
304.119
304.069
304.022
303.985
358.056
358.623
359.305
360.005
360.683
361.312
361.863
362.307
362.62
362.782
362.782
362.62
362.307
361.863
361.312
360.683
360.005
359.305
358.623
358.056
350.838
351.315
351.9
352.503
353.087
353.629
354.104
354.486
354.756
354.895
354.895
354.756
354.486
354.104
353.629
353.087
352.503
351.9
351.315
350.838
343.418
343.811
344.302
344.808
345.3
345.756
346.155
346.478
346.704
346.822
346.822
346.704
346.478
346.155
345.756
345.3
344.808
344.302
343.811
343.418
335.811
336.126
336.524
336.937
337.337
337.709
338.034
338.296
338.481
338.576
338.576
338.481
338.296
338.034
337.709
337.337
336.937
336.524
336.126
335.811
328.042
328.283
328.591
328.91
329.22
329.508
329.76
329.963
330.106
330.18
330.18
330.106
329.963
329.76
329.508
329.22
328.91
328.591
328.283
328.042
320.14
320.31
320.528
320.756
320.977
321.182
321.361
321.506
321.608
321.661
321.661
321.608
321.506
321.361
321.182
320.977
320.756
320.528
320.31
320.14
312.138
312.24
312.37
312.507
312.639
312.762
312.87
312.957
313.018
313.049
313.049
313.018
312.957
312.87
312.762
312.639
312.507
312.37
312.24
312.138
304.076
304.11
304.153
304.199
304.243
304.285
304.321
304.35
304.37
304.381
304.381
304.37
304.35
304.321
304.285
304.243
304.199
304.153
304.11
304.076
359.579
360.101
360.725
361.363
361.978
362.545
363.04
363.437
363.716
363.86
363.86
363.716
363.437
363.04
362.545
361.978
361.363
360.725
360.101
359.579
352.147
352.586
353.122
353.671
354.201
354.689
355.116
355.458
355.698
355.822
355.822
355.698
355.458
355.116
354.689
354.201
353.671
353.122
352.586
352.147
344.516
344.879
345.328
345.79
346.236
346.647
347.006
347.294
347.496
347.601
347.601
347.496
347.294
347.006
346.647
346.236
345.79
345.328
344.879
344.516
336.704
336.994
337.359
337.735
338.098
338.433
338.726
338.96
339.125
339.21
339.21
339.125
338.96
338.726
338.433
338.098
337.735
337.359
336.994
336.704
328.733
328.955
329.237
329.528
329.809
330.069
330.296
330.477
330.605
330.671
330.671
330.605
330.477
330.296
330.069
329.809
329.528
329.237
328.955
328.733
320.631
320.788
320.988
321.196
321.396
321.581
321.743
321.872
321.963
322.01
322.01
321.963
321.872
321.743
321.581
321.396
321.196
320.988
320.788
320.631
312.433
312.526
312.646
312.77
312.89
313.001
313.098
313.176
313.23
313.258
313.258
313.23
313.176
313.098
313.001
312.89
312.77
312.646
312.526
312.433
304.174
304.206
304.246
304.287
304.328
304.365
304.397
304.423
304.441
304.451
304.451
304.441
304.423
304.397
304.365
304.328
304.287
304.246
304.206
304.174
361.212
361.692
362.264
362.844
363.401
363.912
364.356
364.712
364.961
365.089
365.089
364.961
364.712
364.356
363.912
363.401
362.844
362.264
361.692
361.212
353.549
353.952
354.443
354.942
355.423
355.863
356.246
356.552
356.767
356.877
356.877
356.767
356.552
356.246
355.863
355.423
354.942
354.443
353.952
353.549
345.692
346.025
346.436
346.857
347.261
347.632
347.954
348.212
348.393
348.486
348.486
348.393
348.212
347.954
347.632
347.261
346.857
346.436
346.025
345.692
337.659
337.925
338.259
338.602
338.931
339.233
339.496
339.706
339.853
339.929
339.929
339.853
339.706
339.496
339.233
338.931
338.602
338.259
337.925
337.659
329.471
329.675
329.933
330.198
330.453
330.688
330.891
331.054
331.168
331.226
331.226
331.168
331.054
330.891
330.688
330.453
330.198
329.933
329.675
329.471
321.156
321.3
321.483
321.672
321.854
322.021
322.166
322.282
322.363
322.405
322.405
322.363
322.282
322.166
322.021
321.854
321.672
321.483
321.3
321.156
312.747
312.833
312.942
313.056
313.165
313.265
313.352
313.421
313.47
313.495
313.495
313.47
313.421
313.352
313.265
313.165
313.056
312.942
312.833
312.747
304.28
304.308
304.345
304.383
304.419
304.453
304.482
304.505
304.521
304.53
304.53
304.521
304.505
304.482
304.453
304.419
304.383
304.345
304.308
304.28
362.918
363.359
363.883
364.412
364.917
365.379
365.778
366.097
366.319
366.434
366.434
366.319
366.097
365.778
365.379
364.917
364.412
363.883
363.359
362.918
355.006
355.377
355.827
356.283
356.718
357.117
357.461
357.736
357.928
358.026
358.026
357.928
357.736
357.461
357.117
356.718
356.283
355.827
355.377
355.006
346.91
347.216
347.593
347.977
348.344
348.679
348.969
349.201
349.362
349.445
349.445
349.362
349.201
348.969
348.679
348.344
347.977
347.593
347.216
346.91
338.644
338.89
339.196
339.508
339.807
340.081
340.317
340.506
340.637
340.705
340.705
340.637
340.506
340.317
340.081
339.807
339.508
339.196
338.89
338.644
330.23
330.418
330.655
330.897
331.129
331.341
331.524
331.67
331.772
331.825
331.825
331.772
331.67
331.524
331.341
331.129
330.897
330.655
330.418
330.23
321.695
321.827
321.996
322.168
322.334
322.485
322.615
322.719
322.792
322.83
322.83
322.792
322.719
322.615
322.485
322.334
322.168
321.996
321.827
321.695
313.069
313.148
313.249
313.352
313.451
313.542
313.62
313.683
313.726
313.749
313.749
313.726
313.683
313.62
313.542
313.451
313.352
313.249
313.148
313.069
304.387
304.414
304.447
304.482
304.515
304.545
304.572
304.593
304.607
304.615
304.615
304.607
304.593
304.572
304.545
304.515
304.482
304.447
304.414
304.387
364.588
364.995
365.477
365.963
366.424
366.845
367.206
367.494
367.695
367.798
367.798
367.695
367.494
367.206
366.845
366.424
365.963
365.477
364.995
364.588
356.417
356.76
357.174
357.593
357.991
358.354
358.666
358.915
359.088
359.177
359.177
359.088
358.915
358.666
358.354
357.991
357.593
357.174
356.76
356.417
348.076
348.359
348.707
349.06
349.396
349.702
349.965
350.175
350.321
350.396
350.396
350.321
350.175
349.965
349.702
349.396
349.06
348.707
348.359
348.076
339.579
339.806
340.089
340.377
340.651
340.901
341.116
341.287
341.406
341.467
341.467
341.406
341.287
341.116
340.901
340.651
340.377
340.089
339.806
339.579
330.946
331.12
331.338
331.561
331.774
331.968
332.135
332.267
332.36
332.407
332.407
332.36
332.267
332.135
331.968
331.774
331.561
331.338
331.12
330.946
322.2
322.322
322.478
322.637
322.789
322.927
323.046
323.141
323.206
323.24
323.24
323.206
323.141
323.046
322.927
322.789
322.637
322.478
322.322
322.2
313.37
313.443
313.536
313.631
313.722
313.805
313.876
313.933
313.973
313.993
313.993
313.973
313.933
313.876
313.805
313.722
313.631
313.536
313.443
313.37
304.488
304.512
304.543
304.575
304.606
304.633
304.657
304.676
304.69
304.696
304.696
304.69
304.676
304.657
304.633
304.606
304.575
304.543
304.512
304.488
365.922
366.304
366.757
367.211
367.642
368.033
368.369
368.636
368.821
368.916
368.916
368.821
368.636
368.369
368.033
367.642
367.211
366.757
366.304
365.922
357.5
357.823
358.213
358.606
358.98
359.319
359.61
359.841
360.002
360.084
360.084
360.002
359.841
359.61
359.319
358.98
358.606
358.213
357.823
357.5
348.943
349.211
349.539
349.872
350.187
350.474
350.72
350.915
351.051
351.121
351.121
351.051
350.915
350.72
350.474
350.187
349.872
349.539
349.211
348.943
340.258
340.473
340.74
341.011
341.269
341.504
341.705
341.865
341.976
342.033
342.033
341.976
341.865
341.705
341.504
341.269
341.011
340.74
340.473
340.258
331.455
331.62
331.827
332.038
332.238
332.42
332.577
332.701
332.787
332.832
332.832
332.787
332.701
332.577
332.42
332.238
332.038
331.827
331.62
331.455
322.554
322.67
322.818
322.968
323.111
323.241
323.353
323.442
323.504
323.535
323.535
323.504
323.442
323.353
323.241
323.111
322.968
322.818
322.67
322.554
313.579
313.648
313.736
313.827
313.913
313.991
314.058
314.111
314.148
314.167
314.167
314.148
314.111
314.058
313.991
313.913
313.827
313.736
313.648
313.579
304.557
304.58
304.61
304.64
304.669
304.695
304.717
304.735
304.748
304.754
304.754
304.748
304.735
304.717
304.695
304.669
304.64
304.61
304.58
304.557
)
;

boundaryField
{
    hotSide
    {
        type            fixedGradient;
        gradient        nonuniform List<scalar> 
400
(
451.285
452.165
453.939
456.631
460.277
464.919
470.61
477.404
485.359
494.531
504.976
516.745
529.888
544.447
560.458
577.955
596.965
617.509
639.604
663.265
466.944
467.7
469.231
471.568
474.76
478.864
483.947
490.081
497.339
505.794
515.516
526.568
539.008
552.887
568.248
585.129
603.558
623.559
645.15
668.344
483.89
484.499
485.739
487.656
490.31
493.78
498.152
503.519
509.975
517.61
526.511
536.755
548.411
561.539
576.188
592.399
610.203
629.624
650.68
673.382
501.843
502.279
503.183
504.611
506.646
509.389
512.95
517.449
523.002
529.724
537.718
547.077
557.883
570.202
584.092
599.594
616.743
635.561
656.066
678.265
520.301
520.544
521.068
521.951
523.296
525.232
527.901
531.451
536.027
541.766
548.793
557.218
567.133
578.614
591.721
606.501
622.987
641.2
661.155
682.857
538.494
538.53
538.65
538.95
539.564
540.65
542.384
544.947
548.513
553.246
559.292
566.776
575.802
586.453
598.793
612.87
628.715
646.348
665.78
687.011
555.381
555.209
554.926
554.649
554.538
554.787
555.606
557.21
559.803
563.573
568.687
575.284
583.478
593.359
604.993
618.426
633.69
650.8
669.762
690.575
569.714
569.355
568.709
567.912
567.153
566.657
566.666
567.425
569.166
572.099
576.408
582.245
589.731
598.961
610
622.896
637.676
654.354
672.931
693.401
580.203
579.7
578.776
577.583
576.331
575.27
574.667
574.791
575.895
578.205
581.919
587.196
594.163
602.917
613.526
626.034
640.467
656.835
675.138
695.364
585.761
585.18
584.104
582.695
581.176
579.809
578.876
578.658
579.419
581.397
584.792
589.771
596.464
604.967
615.349
627.653
641.905
658.111
676.27
696.371
585.761
585.18
584.104
582.695
581.176
579.809
578.876
578.658
579.419
581.397
584.792
589.771
596.464
604.967
615.349
627.653
641.905
658.111
676.27
696.371
580.203
579.7
578.776
577.583
576.331
575.27
574.667
574.791
575.895
578.205
581.919
587.196
594.163
602.917
613.526
626.034
640.467
656.835
675.138
695.364
569.714
569.355
568.709
567.912
567.153
566.657
566.666
567.425
569.166
572.099
576.408
582.245
589.731
598.961
610
622.896
637.676
654.354
672.931
693.401
555.381
555.209
554.926
554.649
554.538
554.787
555.606
557.21
559.803
563.573
568.687
575.284
583.478
593.359
604.993
618.426
633.69
650.8
669.762
690.575
538.494
538.53
538.65
538.95
539.564
540.65
542.384
544.947
548.513
553.246
559.292
566.776
575.802
586.453
598.793
612.87
628.715
646.348
665.78
687.011
520.301
520.544
521.068
521.951
523.296
525.232
527.901
531.451
536.027
541.766
548.793
557.218
567.133
578.614
591.721
606.501
622.987
641.2
661.155
682.857
501.843
502.279
503.183
504.611
506.646
509.389
512.95
517.449
523.002
529.724
537.718
547.077
557.883
570.202
584.092
599.594
616.743
635.561
656.066
678.265
483.89
484.499
485.739
487.656
490.31
493.78
498.152
503.519
509.975
517.61
526.511
536.755
548.411
561.539
576.188
592.399
610.203
629.624
650.68
673.382
466.944
467.7
469.231
471.568
474.76
478.864
483.947
490.081
497.339
505.794
515.516
526.568
539.008
552.887
568.248
585.129
603.558
623.559
645.15
668.344
451.285
452.165
453.939
456.631
460.277
464.919
470.61
477.404
485.359
494.531
504.976
516.745
529.888
544.447
560.458
577.955
596.965
617.509
639.604
663.265
)
;
    }
    coldSide
    {
        type            mixed;
        refValue        uniform 300;
        refGradient     uniform 0;
        valueFraction   uniform 0.991591;
        source          uniform 0;
        value           nonuniform List<scalar> 
400
(
300.029
300.029
300.029
300.029
300.03
300.03
300.03
300.03
300.031
300.031
300.032
300.032
300.033
300.034
300.034
300.035
300.036
300.037
300.038
300.038
300.03
300.03
300.03
300.03
300.03
300.03
300.03
300.031
300.031
300.032
300.032
300.033
300.033
300.034
300.035
300.035
300.036
300.037
300.038
300.039
300.03
300.03
300.031
300.031
300.031
300.031