/*--------------------------------*- C++ -*----------------------------------*\
| =========                 |                                                 |
| \\      /  F ield         | OpenFOAM: The Open Source CFD Toolbox           |
|  \\    /   O peration     | Version:  2212                                  |
|   \\  /    A nd           | Website:  www.openfoam.com                      |
|    \\/     M anipulation  |                                                 |
\*---------------------------------------------------------------------------*/
FoamFile
{
    version     2.0;
    format      ascii;
    arch        "LSB;label=32;scalar=64";
    class       volScalarField;
    location    "./ITHACAoutput/true/13.4";
    object      error;
}
// * * * * * * * * * * * * * * * * * * * * * * * * * * * * * * * * * * * * * //

dimensions      [0 0 0 1 0 0 0];

internalField   nonuniform List<scalar> 
3200
(
5.44324
5.44623
5.58065
5.77917
6.0347
6.31625
6.45599
6.70588
6.83071
6.84725
6.74221
6.62697
6.29645
5.93548
5.53168
5.26697
4.84349
4.56009
4.27204
4.15786
4.69842
4.6947
4.86122
5.05883
5.18814
5.36354
5.53019
5.80382
5.92186
5.9622
5.75437
5.65009
5.4498
5.1415
4.81583
4.47165
4.10973
3.85571
3.64316
3.58026
4.02605
3.98922
4.14128
4.20703
4.352
4.51485
4.75986
4.86852
4.99303
4.97723
4.89538
4.76805
4.55504
4.32507
4.08694
3.65152
3.52254
3.22806
3.08112
2.99128
3.2548
3.2308
3.37739
3.41303
3.53511
3.65752
3.85981
3.97877
4.04283
4.0273
3.99131
3.90741
3.66913
3.46952
3.2762
3.00506
2.7187
2.62537
2.4722
2.37695
2.56847
2.55495
2.5852
2.73267
2.76495
2.86632
3.00478
3.0669
3.09915
3.13051
3.02541
2.98614
2.82584
2.64707
2.54868
2.38056
2.19682
2.03769
1.98301
1.84445
1.74815
1.8222
1.88395
1.89456
1.96412
2.06627
2.148
2.19679
2.23464
2.29996
2.22512
2.03519
2.07235
1.94168
1.7771
1.61439
1.56463
1.43534
1.30726
1.26812
1.0388
1.04609
1.07217
1.16124
1.21023
1.21058
1.28072
1.29375
1.34861
1.33739
1.4094
1.17879
1.2379
1.1384
1.07033
1.01296
0.915593
0.881077
0.856678
0.833881
0.354064
0.404917
0.35388
0.388295
0.340289
0.395283
0.378409
0.432242
0.412093
0.449902
0.426817
0.450619
0.438781
0.369805
0.325175
0.343926
0.255575
0.283914
0.317775
0.251131
4.86515
4.95228
5.14784
5.22663
5.43464
5.72543
5.86348
6.15372
6.1914
6.19121
6.14677
5.8824
5.62674
5.27815
4.99397
4.58124
4.23348
3.93653
3.69118
3.61495
4.26407
4.26534
4.42227
4.54438
4.67243
4.89185
5.07593
5.19139
5.32941
5.3217
5.26067
5.13465
4.94597
4.60362
4.29817
3.89417
3.64919
3.41184
3.29017
3.10842
3.57606
3.68591
3.681
3.89125
3.97823
4.15551
4.30138
4.47553
4.45194
4.5175
4.50791
4.3259
4.17606
3.85693
3.58911
3.32419
3.00119
2.88772
2.65841
2.63623
2.97942
2.9572
3.05718
3.17436
3.34208
3.40355
3.48316
3.5791
3.68984
3.72939
3.67495
3.54498
3.35551
3.10848
2.95926
2.70061
2.50754
2.25819
2.27361
2.09926
2.31335
2.30566
2.44565
2.47821
2.54482
2.72152
2.76481
2.84811
2.82755
2.87002
2.83006
2.80213
2.626
2.45156
2.28685
2.07222
1.9269
1.78654
1.63929
1.66972
1.59742
1.66319
1.69816
1.73635
1.83112
1.87545
1.96273
2.0582
2.07038
2.01715
2.05917
1.97491
1.83641
1.66213
1.64348
1.5695
1.32633
1.20908
1.22161
1.13854
0.989876
0.973275
1.06037
1.09028
1.13085
1.14102
1.22668
1.24302
1.22688
1.19326
1.24276
1.14035
1.10134
1.05545
1.01619
0.873803
0.830977
0.812459
0.728666
0.693516
0.330591
0.286057
0.400275
0.324026
0.386052
0.359709
0.375374
0.377206
0.388272
0.44533
0.330473
0.336786
0.386219
0.349524
0.349982
0.280876
0.348494
0.230787
0.210923
0.228884
4.33366
4.32518
4.37186
4.47023
4.68432
4.90755
5.06303
5.22911
5.28065
5.35525
5.24846
5.06608
4.78054
4.43629
4.11619
3.77915
3.44303
3.1848
3.06286
2.90993
3.80658
3.83393
3.82204
3.96165
4.08227
4.18999
4.44792
4.5821
4.64579
4.68553
4.57799
4.43194
4.11783
3.82082
3.53969
3.30246
3.14201
2.6936
2.57749
2.5116
3.15371
3.1652
3.24022
3.39722
3.44309
3.62414
3.73355
3.87749
3.94562
3.94842
3.90599
3.77154
3.49331
3.29351
3.03512
2.81299
2.55519
2.33273
2.13287
2.12527
2.66396
2.68611
2.67065
2.70579
2.83818
2.94357
3.0103
3.17742
3.18973
3.28811
3.15212
3.08856
2.83521
2.66823
2.46154
2.23397
2.08264
1.88881
1.86656
1.72072
2.03022
2.03763
2.06601
2.12699
2.21482
2.2542
2.39499
2.47876
2.51451
2.50532
2.55635
2.38131
2.18863
2.15266
1.86492
1.79312
1.64618
1.47395
1.38749
1.29775
1.53655
1.4926
1.50428
1.57099
1.61098
1.62852
1.74184
1.78149
1.73621
1.80475
1.72876
1.68301
1.58944
1.48563
1.36269
1.28828
1.15421
1.02993
1.01893
0.941309
0.882968
0.905178
0.885464
0.969134
0.923182
1.00443
1.03764
1.07846
1.05726
1.05584
1.08671
1.09477
1.01725
0.952198
0.849163
0.744152
0.65516
0.573101
0.597209
0.546835
0.40153
0.359982
0.330109
0.302095
0.325565
0.381912
0.355126
0.327077
0.322606
0.355629
0.373182
0.336408
0.420168
0.30858
0.287596
0.332794
0.234671
0.193887
0.228363
0.228712
3.73377
3.65951
3.69543
3.78904
3.92917
4.10215
4.35108
4.44811
4.47666
4.4998
4.38345
4.2917
3.9715
3.63738
3.28725
2.98046
2.75462
2.43694
2.34181
2.15561
3.20345
3.25699
3.3192
3.3655
3.48683
3.61684
3.75402
3.82538
3.94057
3.8963
3.78399
3.70643
3.40203
3.13159
2.86451
2.62421
2.32861
2.09305
1.95835
1.89099
2.76638
2.75326
2.83595
2.81382
2.97753
3.08819
3.20664
3.25071
3.30487
3.3219
3.24697
3.05631
2.83875
2.70973
2.48214
2.16951
1.91435
1.85643
1.6791
1.6292
2.27736
2.30237
2.27119
2.33147
2.40745
2.47991
2.6307
2.75211
2.7695
2.75808
2.71535
2.54583
2.36749
2.16638
2.08998
1.83515
1.70033
1.48506
1.40721
1.32815
1.81885
1.73214
1.70704
1.83846
1.85764
1.93903
1.98926
2.11065
2.15484
2.09575
2.06644
1.98891
1.87799
1.74762
1.55526
1.36615
1.27972
1.12293
1.02156
1.02115
1.30186
1.21284
1.28449
1.26258
1.36406
1.46926
1.40789
1.52065
1.52229
1.5733
1.46923
1.43731
1.32287
1.27536
1.0783
1.00473
0.90657
0.843715
0.765452
0.708646
0.747929
0.795226
0.73911
0.818736
0.820606
0.893867
0.85974
1.00676
0.907746
0.866799
0.908914
0.932404
0.820701
0.689336
0.720574
0.646326
0.558832
0.56542
0.442974
0.366086
0.251726
0.255517
0.261428
0.21401
0.28128
0.283752
0.334508
0.287076
0.28693
0.269997
0.353607
0.295927
0.352919
0.313892
0.24786
0.19783
0.147967
0.13905
0.147947
0.198787
3.07467
3.08943
3.07454
3.11387
3.17531
3.40271
3.5381
3.5865
3.68219
3.65631
3.61284
3.38822
3.08923
2.81124
2.51335
2.25899
1.93269
1.75647
1.59863
1.59446
2.75789
2.73406
2.67206
2.72847
2.76378
2.9142
3.02561
3.13975
3.23004
3.13792
3.086
2.92768
2.74614
2.5701
2.19357
1.88674
1.73139
1.50603
1.50951
1.40228
2.28409
2.28905
2.25441
2.33571
2.40067
2.54709
2.60311
2.66476
2.72832
2.80859
2.57848
2.49565
2.3357
2.10943
1.8814
1.70404
1.52456
1.32087
1.20154
1.15339
1.91366
1.90028
1.97071
1.90889
1.98101
2.06905
2.1539
2.19063
2.23558
2.23599
2.15027
2.0387
1.89879
1.70148
1.5141
1.39431
1.18281
1.03349
0.997429
0.944487
1.48111
1.51047
1.57215
1.5414
1.55396
1.66275
1.75655
1.72695
1.806
1.72456
1.67592
1.57369
1.52728
1.38616
1.17075
1.02079
0.923063
0.889909
0.738653
0.737969
1.19818
1.0602
1.05236
1.06615
1.09298
1.14198
1.16419
1.2192
1.28062
1.23895
1.16265
1.21676
1.05148
1.00579
0.881537
0.750736
0.659429
0.504483
0.512734
0.494414
0.666214
0.587819
0.630123
0.655852
0.629364
0.730292
0.747273
0.711083
0.723035
0.812665
0.660526
0.697585
0.6545
0.533283
0.498892
0.465105
0.40801
0.383179
0.354293
0.34866
0.257301
0.191261
0.248092
0.243471
0.145101
0.256825
0.223161
0.233293
0.295797
0.32615
0.258685
0.293915
0.248523
0.232891
0.165475
0.120503
0.124186
0.152087
0.0849179
0.125767
2.58209
2.56656
2.45365
2.50361
2.58074
2.67804
2.76632
2.78192
2.89147
2.82636
2.79093
2.58959
2.3807
2.07743
1.82004
1.48732
1.33762
1.07297
1.00703
1.04841
2.27628
2.26504
2.22255
2.19527
2.31695
2.38026
2.42969
2.50072
2.54021
2.48531
2.40408
2.24957
2.04673
1.81226
1.63209
1.36738
1.12996
1.00599
0.855362
0.832981
2.03254
1.98745
1.89432
1.91846
1.97154
1.97784
2.14068
2.17103
2.18116
2.09693
2.0253
1.94209
1.7389
1.58106
1.34654
1.15327
0.975471
0.869606
0.774257
0.773864
1.65859
1.58445
1.67212
1.61342
1.62273
1.65066
1.7442
1.75744
1.78758
1.8342
1.64664
1.61278
1.43915
1.28693
1.11809
1.00247
0.803818
0.66409
0.680811
0.603794
1.26565
1.21633
1.27301
1.2456
1.24254
1.29913
1.30105
1.39824
1.36001
1.32326
1.32262
1.1408
1.1246
1.00261
0.942313
0.750147
0.658314
0.524583
0.491273
0.541526
0.872023
0.876755
0.893095
0.950077
0.879561
0.913358
0.979859
0.969668
1.01568
1.00356
0.924105
0.908603
0.781714
0.767375
0.61915
0.470175
0.470447
0.357587
0.330431
0.385276
0.529957
0.558392
0.501305
0.621282
0.566684
0.603635
0.630413
0.566516
0.607977
0.532486
0.598333
0.469437
0.44475
0.4433
0.364236
0.2929
0.264462
0.117291
0.202513
0.229463
0.169052
0.163336
0.170934
0.182108
0.120299
0.243826
0.181056
0.177326
0.146691
0.17472
0.224187
0.168468
0.171794
0.188587
0.16218
0.0640106
0.0688163
0.0385155
0.0426963
0.0752291
2.23459
2.14647
1.94667
2.07413
2.06751
2.11832
2.10795
2.12264
2.21818
2.17874
1.98453
1.93581
1.66533
1.41257
1.177
0.954437
0.688071
0.591978
0.522337
0.567752
2.04696
1.91177
1.77709
1.79689
1.78051
1.87505
1.90249
1.97641
1.92429
1.93973
1.80023
1.60712
1.44675
1.26687
0.975579
0.860575
0.644781
0.516182
0.396392
0.460565
1.69735
1.57956
1.5857
1.55693
1.58291
1.55648
1.62065
1.65228
1.69272
1.61116
1.56955
1.44299
1.28487
1.01824
0.894652
0.669928
0.539159
0.51216
0.421471
0.406482
1.37671
1.32885
1.29796
1.31807
1.32736
1.35407
1.28358
1.36345
1.34951
1.34619
1.3173
1.12772
1.00905
0.822543
0.727468
0.549395
0.414609
0.38622
0.380475
0.319006
1.07732
1.08968
0.993152
0.996057
1.00002
1.08162
1.09332
1.08512
1.00129
0.999175
0.992388
0.934961
0.83953
0.724127
0.566689
0.521191
0.330369
0.273489
0.213754
0.293108
0.878161
0.828581
0.722377
0.668812
0.720612
0.715341
0.677293
0.736452
0.819767
0.749235
0.699403
0.655812
0.551474
0.541041
0.43268
0.303166
0.283042
0.187553
0.168381
0.212462
0.458086
0.482397
0.454286
0.472083
0.367891
0.501973
0.471428
0.447897
0.448598
0.392351
0.412862
0.396702
0.381927
0.262697
0.280037
0.120323
0.165798
0.128212
0.119615
0.0962883
0.184664
0.111409
0.175763
0.107193
0.175302
0.0846409
0.155205
0.146901
0.209786
0.141908
0.138261
0.102361
0.0812088
0.13838
0.0804039
0.0568614
0.0229745
0.0739379
0.0335047
-0.0585744
1.98581
1.7907
1.66091
1.54609
1.55442
1.55034
1.5406
1.61737
1.55507
1.53566
1.36901
1.18414
1.05122
0.887045
0.62036
0.376543
0.286011
0.135248
0.15228
0.130206
1.75428
1.56068
1.53676
1.40516
1.32148
1.3847
1.40469
1.47168
1.41841
1.35683
1.32447
1.04275
0.97385
0.704641
0.471848
0.367967
0.2609
0.133482
0.117355
0.169253
1.48433
1.31817
1.32413
1.32225
1.1795
1.25432
1.24794
1.20737
1.15785
1.16585
1.11438
0.93886
0.805124
0.64864
0.525168
0.285033
0.270871
0.0931844
0.158982
0.149777
1.23705
1.13733
1.03013
1.02974
1.00114
0.980702
0.961737
1.0471
1.0578
0.873945
0.920778
0.793757
0.669147
0.484111
0.375347
0.208986
0.19964
0.116108
0.0748671
0.0618332
0.949177
0.907294
0.957923
0.826838
0.768958
0.791073
0.813591
0.803266
0.746196
0.779979
0.694044
0.580997
0.453571
0.380637
0.282711
0.180223
0.160112
0.125843
0.0570268
0.0490006
0.663295
0.646591
0.616564
0.497546
0.604051
0.636052
0.578842
0.634702
0.535449
0.560366
0.465982
0.461326
0.405958
0.353292
0.232425
0.0951692
0.0820408
0.107975
0.0252001
0.0837713
0.401408
0.380038
0.316812
0.355495
0.316548
0.328311
0.403768
0.343924
0.327089
0.301636
0.287341
0.248054
0.249851
0.136914
0.0744121
0.0986073
0.0752194
0.0261849
0.02839
0.0269313
0.151621
0.105945
0.11892
0.0785572
0.106598
0.163417
0.1321
0.0568495
0.0609126
0.129267
0.111408
0.0737632
0.0788567
0.0464177
0.0529138
0.00650339
-0.00879931
0.00468718
-0.0201166
-0.0103515
1.74595
1.54573
1.42107
1.27306
1.16587
1.15594
1.13454
1.17395
1.107
1.00911
0.871828
0.739409
0.596932
0.376605
0.168949
0.00451282
-0.12425
-0.206854
-0.0977008
-0.0535108
1.55993
1.4068
1.24185
1.10537
1.04513
1.04195
1.08199
0.986932
1.00247
0.857551
0.771697
0.643426
0.468325
0.367551
0.156333
-0.0449579
-0.149866
-0.131502
-0.0814378
-0.1463
1.33217
1.23729
1.11846
0.970507
0.945089
0.876089
0.906171
0.923427
0.813013
0.817414
0.610272
0.545626
0.402481
0.271624
0.106043
0.0200443
0.00744064
-0.15476
-0.0733471
-0.0575933
1.07466
1.0053
0.93062
0.80548
0.812497
0.737916
0.73288
0.671292
0.657632
0.674956
0.58731
0.49991
0.378534
0.211876
0.130357
0.00713951
-0.0664839
-0.108188
-0.0433273
-0.0651479
0.872547
0.748753
0.758376
0.722676
0.596324
0.581055
0.61493
0.548674
0.564572
0.464897
0.507107
0.405426
0.330207
0.240004
0.0494983
0.00370427
-0.0660764
-0.117224
-0.0468199
-0.0490395
0.537595
0.563995
0.456065
0.48609
0.490558
0.488023
0.463032
0.393214
0.466562
0.343768
0.354264
0.283675
0.234911
0.135736
0.0578128
-0.0406576
0.00498208
-0.092969
0.00465637
-0.0730499
0.396207
0.381467
0.340506
0.298693
0.222118
0.331176
0.280632
0.183008
0.188796
0.24429
0.154037
0.162199
0.0578581
0.117192
0.0744362
0.0159772
0.0192127
0.0206446
-0.0213128
-0.0433987
0.127334
0.0753218
0.154436
0.0910138
0.10843
0.0451866
0.0818134
0.0922011
0.113705
0.151041
0.0386446
0.0502724
0.0556187
0.0664095
-0.0364087
0.0131022
0.0425999
0.0373081
0.000469098
0.0482876
1.68083
1.43305
1.23077
1.15886
0.957623
0.884866
0.741943
0.752408
0.635812
0.574994
0.525167
0.337411
0.0895623
-0.106307
-0.206566
-0.26519
-0.336377
-0.436725
-0.345259
-0.224231
1.48197
1.27877
1.12532
0.938498
0.823847
0.768248
0.716733
0.716173
0.631151
0.511147
0.335752
0.300182
0.19754
0.00767284
-0.152468
-0.266457
-0.300731
-0.340516
-0.217921
-0.246611
1.29746
1.09987
0.968276
0.737014
0.694942
0.651154
0.727648
0.569324
0.534899
0.499828
0.41236
0.325863
0.114649
0.0242045
-0.136848
-0.211815
-0.240032
-0.253902
-0.25851
-0.166441
1.03822
1.01527
0.865656
0.746433
0.640864
0.554814
0.475454
0.514021
0.479019
0.404112
0.335725
0.196156
0.16965
0.0585089
-0.140311
-0.155863
-0.173159
-0.254437
-0.188512
-0.156022
0.861791
0.695386
0.586063
0.587227
0.510294
0.461938
0.463176
0.503548
0.325283
0.309905
0.280471
0.202323
0.180284
-0.00449771
-0.0637982
-0.0365637
-0.227388
-0.133318
-0.129988
-0.114808
0.605618
0.558457
0.503289
0.423177
0.352167
0.410116
0.300821
0.326764
0.336224
0.260232
0.19874
0.136366
0.079169
0.0432816
-0.00490802
-0.129551
-0.0983464
-0.114897
-0.100644
-0.0248536
0.319741
0.236535
0.271917
0.27684
0.238845
0.171173
0.141563
0.185558
0.172899
0.142229
0.160735
0.0977846
-0.00482716
0.0156441
0.0381811
-0.0353658
-0.0732509
-0.109751
-0.0453941
-0.0102279
0.0836169
0.155065
0.0500582
0.0223346
0.0880596
0.0491137
0.0689238
0.0564178
0.0765494
0.0894757
0.0363006
0.0314901
-0.0451559
0.00112047
-0.0102241
-0.0311003
-0.023504
-0.0224786
-0.00493311
-0.0219192
1.78955
1.46988
1.27334
0.966365
0.814816
0.675284
0.594222
0.518056
0.441925
0.365141
0.211907
0.0765115
-0.0477197
-0.264148
-0.412489
-0.465177
-0.498458
-0.457667
-0.325803
-0.242816
1.50658
1.30028
1.10323
0.93354
0.793429
0.640005
0.555173
0.393703
0.391732
0.339518
0.126618
0.0422377
-0.0746044
-0.22545
-0.262061
-0.404443
-0.422881
-0.35391
-0.338505
-0.219129
1.33059
1.10173
0.859367
0.795483
0.679623
0.549102
0.546983
0.46062
0.383776
0.216913
0.200787
0.0274086
-0.0225839
-0.225446
-0.258863
-0.263005
-0.371162
-0.296354
-0.238824
-0.168705
1.00607
0.966749
0.863617
0.713534
0.535647
0.482051
0.429527
0.343209
0.278363
0.208869
0.204781
0.0369206
-0.00280707
-0.129902
-0.22948
-0.264342
-0.319499
-0.236914
-0.200931
-0.205032
0.819479
0.795819
0.611584
0.457398
0.476697
0.352552
0.326515
0.240644
0.241946
0.201325
0.129859
0.0191592
-0.0989125
-0.0902477
-0.181832
-0.124369
-0.245913
-0.219396
-0.19777
-0.105503
0.641759
0.552765
0.418729
0.411266
0.220497
0.331702
0.30109
0.222463
0.132577
0.125192
0.11765
0.0278478
-0.00534119
-0.0583651
-0.057948
-0.139143
-0.194633
-0.171727
-0.105839
-0.168863
0.365705
0.311899
0.244064
0.212663
0.133773
0.136991
0.210241
0.120799
0.11572
0.114249
0.0732775
0.0533875
-0.0648415
-0.0972874
-0.0585275
-0.00873069
-0.104808
-0.145437
-0.0808782
-0.0564666
0.117714
0.0471895
0.103563
0.0640323
0.0348369
0.0549801
0.0472107
0.0566102
-0.0178367
0.0582759
0.0754318
-0.0304873
-0.0880737
0.0121855
0.0190564
-0.0503695
-0.0668456
0.0340023
-0.100511
-0.00283806
1.87784
1.64536
1.33698
0.99486
0.88448
0.692907
0.554335
0.357642
0.283547
0.0867091
0.00592244
-0.0768755
-0.216208
-0.342576
-0.438344
-0.498554
-0.458031
-0.464893
-0.222822
-0.108747
1.60732
1.39057
1.11223
0.924009
0.720839
0.634127
0.494554
0.342164
0.258711
0.18454
0.0498351
-0.0312686
-0.15222
-0.27277
-0.401093
-0.362215
-0.405853
-0.281639
-0.290839
-0.177373
1.43975
1.24355
1.0181
0.727346
0.686655
0.602041
0.425214
0.342697
0.239154
0.163259
0.0840324
-0.0665858
-0.180417
-0.293648
-0.242591
-0.283319
-0.335017
-0.320906
-0.255646
-0.110329
1.16455
1.04815
0.871914
0.655742
0.542404
0.491798
0.35477
0.241274
0.222991
0.0968885
0.0854299
-0.0405304
-0.0967083
-0.235333
-0.256058
-0.332004
-0.249286
-0.231404
-0.181543
-0.0592336
0.891094
0.802259
0.676566
0.485724
0.45851
0.344942
0.281324
0.171151
0.165546
0.205515
0.0282529
-0.0440787
-0.072288
-0.194489
-0.249561
-0.279102
-0.309823
-0.192407
-0.201335
-0.0595691
0.739552
0.5684
0.407975
0.381707
0.271186
0.290343
0.226822
0.155786
0.093221
0.0912512
0.0295577
-0.0413235
-0.0858699
-0.0749034
-0.167679
-0.182946
-0.146493
-0.141864
-0.118783
-0.0593613
0.404739
0.329765
0.258316
0.30226
0.143947
0.14594
0.0770016
0.0819109
0.0742611
0.104528
0.0608907
-0.0204813
-0.0223755
-0.0591938
-0.140544
-0.109905
-0.140249
-0.0440645
-0.034386
-0.0099396
0.1079
0.151526
0.0768342
0.107832
0.0492437
0.0175509
0.00352807
0.0461568
0.0464284
0.0256673
0.0246427
0.0220468
-0.0108578
-0.0638871
-0.0133406
0.0276266
-0.0372235
-0.0730901
0.00833225
0.0268275
2.23195
1.90838
1.5219
1.25534
0.977544
0.723381
0.570006
0.461437
0.322168
0.140294
0.0131763
-0.10256
-0.191101
-0.290863
-0.370403
-0.301569
-0.402334
-0.225771
-0.0404929
0.0832018
1.91826
1.65998
1.40461
1.05259
0.845589
0.696752
0.506161
0.413655
0.306389
0.16292
0.045644
-0.0127578
-0.195597
-0.247869
-0.286401
-0.314012
-0.329561
-0.23192
-0.118625
0.0187757
1.6797
1.41323
1.18721
0.958596
0.822323
0.606367
0.468528
0.389147
0.26522
0.101251
0.0519856
-0.087953
-0.119648
-0.212897
-0.252508
-0.273336
-0.273345
-0.256968
-0.0931686
-0.0062062
1.34366
1.17515
0.992019
0.820149
0.615083
0.532898
0.419437
0.331867
0.227984
0.100635
0.0439178
-0.0115589
-0.112801
-0.122869
-0.214292
-0.295731
-0.221932
-0.174961
-0.0785133
-0.00842999
1.05471
0.899212
0.805876
0.565023
0.474633
0.361574
0.31283
0.176541
0.161554
0.0817257
0.0237032
-0.0678262
-0.143628
-0.0616635
-0.168861
-0.154599
-0.170898
-0.122746
-0.0127348
0.143568
0.679112
0.652954
0.560123
0.475377
0.38606
0.31457
0.255665
0.153034
0.112483
0.088193
-0.009311
-0.0340061
-0.123295
-0.0889094
-0.12974
-0.09414
-0.102914
-0.0875663
-0.0600071
0.0115856
0.458345
0.415248
0.342194
0.212232
0.213276
0.204481
0.138395
0.127032
0.0165718
0.11128
-0.0504295
0.00591958
-0.0595703
-0.134229
-0.118679
-0.131683
-0.122694
-0.0874154
-0.0873296
-0.00766872
0.176193
0.0786334
0.184559
0.0717015
0.0859791
0.0647946
-0.0178342
-0.000279767
0.0496314
0.0413796
0.0488113
-0.0546958
-0.00140538
-0.0191181
-0.0310828
-0.0184656
-0.0263994
-0.0447479
-0.0255254
-0.00381028
2.64146
2.26046
1.85849
1.56886
1.16678
0.947028
0.799845
0.60806
0.432007
0.341082
0.146074
-0.0392691
-0.105068
-0.163547
-0.155736
-0.103229
-0.100587
0.0612456
0.20155
0.455138
2.27172
1.97662
1.64755
1.30934
1.15571
0.853519
0.716525
0.594486
0.404102
0.295311
0.127993
-0.0370302
0.0100166
-0.0879436
-0.131012
-0.142891
-0.105104
-0.0493946
0.235715
0.365392
2.00127
1.75466
1.41227
1.18319
0.973028
0.749257
0.621045
0.476786
0.387533
0.222219
0.15211
0.0215845
-0.0327527
-0.149868
-0.106802
-0.120756
-0.0716885
0.029679
0.0801414
0.298983
1.57466
1.36968
1.14053
0.929546
0.779762
0.674429
0.605763
0.363287
0.264091
0.260951
0.151056
0.0365178
-0.0251417
-0.0723575
-0.104004
-0.0894263
-0.0190806
-0.00185481
0.133394
0.179478
1.23353
1.0299
0.91498
0.705638
0.664003
0.531942
0.446195
0.322998
0.239198
0.164962
0.108591
0.00744941
-0.0328402
-0.0862441
-0.123143
-0.0527135
-0.0709884
-0.0129878
0.102335
0.189875
0.897156
0.75019
0.697997
0.558169
0.419485
0.382217
0.314321
0.265623
0.211874
0.144848
0.0618095
-0.00979977
-0.0271528
-0.0780917
0.00201015
-0.041782
-0.013067
-0.0263761
0.0627012
0.0860964
0.484346
0.418617
0.344862
0.326307
0.306503
0.222035
0.250137
0.135957
0.101118
0.0301884
0.0215938
0.0343639
-0.00791469
-0.0548317
-0.0174123
-0.0319337
-0.0420661
0.05718
0.0666709
0.117816
0.178091
0.0913661
0.215855
0.142658
0.0185013
0.0454909
0.0597149
0.0606463
0.0445601
-0.0457353
0.00383452
-0.0308259
-0.0224183
-0.0366294
0.00602353
-0.0246645
0.0111611
-0.00231732
-0.0192845
0.0104952
3.23817
2.77681
2.42092
2.04002
1.67066
1.33255
1.18154
0.924264
0.770134
0.628074
0.481517
0.238563
0.254501
0.218073
0.175191
0.139627
0.390093
0.427229
0.709782
1.0529
2.84743
2.43704
2.10128
1.80978
1.44088
1.18655
1.0493
0.84405
0.717256
0.53846
0.394679
0.299771
0.197686
0.226916
0.180882
0.122336
0.259109
0.429517
0.549417
0.866219
2.35117
2.1687
1.78471
1.46797
1.23028
1.17363
0.846969
0.673525
0.628754
0.45207
0.298245
0.185545
0.190524
0.128128
0.181617
0.184053
0.220352
0.387615
0.485588
0.653595
1.87833
1.71026
1.42837
1.30174
0.995325
0.912999
0.740503
0.642849
0.561775
0.359679
0.283927
0.223414
0.162662
0.103522
0.12117
0.124952
0.105712
0.241792
0.344293
0.479469
1.47991
1.30306
1.12136
0.911395
0.82342
0.670016
0.519146
0.433983
0.427454
0.327457
0.233464
0.0575217
0.183235
0.0513809
0.0936181
0.077309
0.100723
0.234166
0.288902
0.328494
1.04753
0.953262
0.814599
0.656332
0.541749
0.470874
0.383247
0.350081
0.25812
0.236408
0.139128
0.157444
0.12332
0.0607027
0.000909308
0.0615827
0.0692129
0.126742
0.219198
0.307391
0.66843
0.582815
0.513997
0.418917
0.382635
0.323425
0.326187
0.245047
0.210667
0.165213
0.0399819
0.055557
0.0894945
0.0323431
0.0323738
0.0212021
0.000680219
0.0891863
0.100643
0.175424
0.236024
0.238683
0.104608
0.119873
0.0581975
0.0836529
0.094818
-0.0037533
0.0437639
0.0357071
0.0726649
0.019371
-0.0204026
0.0679532
-0.0667232
0.0333948
-0.0131773
0.0550637
0.0267367
0.0248267
3.83942
3.45077
3.06156
2.63985
2.33859
1.97843
1.62921
1.45994
1.18205
1.04836
0.832769
0.850093
0.68409
0.641753
0.649728
0.732847
0.906032
1.06902
1.3124
1.59638
3.40671
3.05143
2.67026
2.30533
1.91115
1.64862
1.47662
1.28462
1.04434
0.849366
0.768213
0.676554
0.574598
0.58328
0.645517
0.619326
0.769592
0.954689
1.1434
1.38709
2.83051
2.60542
2.29794
1.93395
1.73682
1.43889
1.16461
1.04006
0.879085
0.69909
0.642021
0.5598
0.548804
0.476582
0.524083
0.554823
0.589004
0.754666
0.958895
1.0995
2.31806
2.1187
1.79105
1.57087
1.39667
1.18842
1.00654
0.833049
0.718333
0.645144
0.567273
0.459875
0.409488
0.386517
0.348285
0.405975
0.492838
0.708536
0.704952
0.950576
1.7862
1.6326
1.4276
1.19659
1.05501
0.891094
0.799739
0.607549
0.62037
0.50349
0.41508
0.319737
0.387274
0.277583
0.323339
0.265278
0.370037
0.428829
0.610883
0.699141
1.28499
1.20384
1.03889
0.93755
0.750972
0.700987
0.616121
0.498716
0.413677
0.395881
0.283565
0.205329
0.212669
0.192226
0.297025
0.220083
0.266543
0.319027
0.452826
0.504723
0.742966
0.730761
0.601938
0.546613
0.474315
0.436406
0.354405
0.249533
0.236992
0.23148
0.149368
0.172496
0.150224
0.0881141
0.149837
0.0826272
0.128482
0.217671
0.288663
0.275976
0.259004
0.235798
0.130885
0.180815
0.190184
0.158884
0.0547418
0.149004
0.0928848
0.0877048
0.0906692
0.0395461
0.0741749
0.0516014
-0.0400767
0.0675315
0.0740522
0.0163383
0.0972019
0.142399
4.69706
4.30155
3.81574
3.32416
2.94232
2.553
2.33138
2.03714
1.78422
1.61099
1.52118
1.39291
1.32819
1.32863
1.31333
1.42399
1.60376
1.76511
2.14314
2.39403
4.09058
3.63567
3.30579
2.9341
2.53748
2.32752
1.99503
1.79589
1.6069
1.4271
1.31236
1.26379
1.17506
1.06588
1.08121
1.20352
1.34676
1.59382
1.8055
1.96881
3.4141
3.10483
2.87698
2.52841
2.18256
1.9507
1.6929
1.4491
1.3346
1.25329
1.07982
1.00424
0.987002
0.881435
0.94665
1.02104
1.13555
1.32875
1.53379
1.66969
2.80023
2.5623
2.38676
1.96507
1.72305
1.57348
1.40262
1.25176
1.0856
0.966968
0.878267
0.75205
0.738665
0.701156
0.755952
0.84534
0.885029
1.04092
1.12666
1.40074
2.18308
1.96949
1.72521
1.55863
1.35397
1.31091
1.04863
0.954045
0.820195
0.724779
0.663487
0.640518
0.604038
0.565517
0.560223
0.606993
0.744203
0.751516
0.920332
1.01603
1.6042
1.38652
1.22024
1.09785
0.964134
0.914039
0.702316
0.660141
0.603492
0.510249
0.475853
0.458448
0.440122
0.435302
0.386541
0.385545
0.489561
0.619554
0.629143
0.759677
0.866364
0.828298
0.747691
0.668557
0.615535
0.583416
0.445392
0.429991
0.43709
0.336839
0.321926
0.222887
0.210268
0.243368
0.259539
0.301981
0.29137
0.380072
0.441515
0.42459
0.309492
0.356106
0.23323
0.211316
0.187057
0.21577
0.229214
0.164918
0.128306
0.121881
0.0950289
0.10556
0.119412
0.123632
0.00892678
0.100581
0.0723705
0.0968136
0.160674
0.154867
5.67262
5.2125
4.62007
4.19916
3.77981
3.43738
3.03793
2.82226
2.52204
2.35687
2.21829
2.08656
2.10961
2.02581
2.10575
2.15318
2.33038
2.65201
2.98359
3.32489
4.91608
4.49661
4.04402
3.65204
3.20461
3.01041
2.65618
2.36973
2.22796
2.07372
1.91802
1.74521
1.73159
1.74661
1.78811
1.89211
1.99868
2.20199
2.54422
2.83376
4.13048
3.77845
3.38364
3.0702
2.78059
2.49072
2.22263
2.05478
1.8396
1.69144
1.57763
1.48423
1.46175
1.48324
1.49242
1.56048
1.68148
1.93926
2.11378
2.28775
3.30398
3.10351
2.76504
2.46124
2.21368
2.04218
1.82189
1.63144
1.47763
1.37892
1.31586
1.20994
1.14967
1.14836
1.23511
1.22693
1.38545
1.53473
1.78194
1.87924
2.60791
2.42204
2.16752
1.85978
1.70215
1.59717
1.49136
1.26867
1.14569
1.05373
1.05193
0.966251
0.91812
0.916036
0.918368
0.982853
1.08741
1.16136
1.27557
1.4595
1.82894
1.68997
1.50465
1.35451
1.185
1.10117
0.976551
0.915179
0.763086
0.672682
0.684853
0.751502
0.710295
0.654273
0.670763
0.694864
0.77958
0.768436
0.975237
1.11088
1.08084
0.994565
0.938747
0.767763
0.72928
0.596822
0.614977
0.561657
0.506202
0.466939
0.466066
0.457233
0.420079
0.381159
0.373656
0.402242
0.45367
0.532899
0.541472
0.62471
0.384053
0.337884
0.351743
0.354271
0.207366
0.159181
0.13314
0.163031
0.174886
0.17574
0.117145
0.208076
0.12705
0.154106
0.168144
0.171728
0.194923
0.13436
0.137626
0.314183
6.66148
6.09483
5.58236
5.08227
4.64166
4.239
3.91632
3.59591
3.29999
3.23568
3.00222
2.86619
2.89783
2.8247
2.91125
3.11693
3.28449
3.58947
3.91473
4.26576
5.67859
5.26354
4.7552
4.39731
3.95497
3.6383
3.35281
3.12176
2.89589
2.72638
2.6286
2.40559
2.4419
2.44043
2.43551
2.66267
2.7228
3.06725
3.29544
3.59699
4.71318
4.37899
4.01978
3.66336
3.4074
3.0769
2.82793
2.67764
2.40273
2.18855
2.14658
2.08929
2.07524
1.99235
2.06757
2.15241
2.32444
2.45097
2.79769
2.99598
3.82891
3.57171
3.2831
2.96291
2.63312
2.43383
2.28083
2.0816
1.95794
1.86144
1.6613
1.61143
1.67554
1.57113
1.64331
1.78637
1.87762
2.02384
2.21325
2.39331
2.97806
2.82879
2.57912
2.31554
2.10215
1.93677
1.68727
1.54103
1.50254
1.3666
1.3099
1.28388
1.23475
1.20779
1.27614
1.34985
1.4344
1.59959
1.66416
1.83016
2.14834
1.95341
1.85337
1.63748
1.55778
1.30381
1.23069
1.18449
1.00675
0.999306
0.952287
0.911441
0.927866
0.871885
0.934978
0.995895
1.03158
1.10386
1.10482
1.2846
1.18075
1.1562
1.14181
0.919435
0.855606
0.791118
0.76912
0.715748
0.630286
0.564322
0.570753
0.533175
0.498285
0.538181
0.535429
0.541861
0.655966
0.631916
0.725691
0.780817
0.416851
0.298765
0.315621
0.376963
0.341085
0.215673
0.285949
0.219943
0.185946
0.168147
0.282105
0.261108
0.229181
0.136259
0.196513
0.115837
0.192581
0.26811
0.197692
0.244149
7.48722
6.8876
6.43019
5.81583
5.33612
4.99227
4.64145
4.28644
3.99067
3.88423
3.70354
3.58325
3.57341
3.52988
3.60037
3.75384
3.97301
4.30654
4.61667
5.01212
6.39874
5.90766
5.41576
4.92081
4.64385
4.2921
3.92198
3.64929
3.42687
3.19267
3.09611
3.00049
2.95261
2.96405
3.05912
3.18669
3.32627
3.64729
3.91044
4.22368
5.28792
4.91446
4.51496
4.11884
3.83469
3.52581
3.27597
2.9602
2.85388
2.72098
2.54779
2.44405
2.41258
2.48514
2.44342
2.58553
2.7836
2.95997
3.24182
3.43252
4.2586
3.98189
3.71924
3.36799
3.10435
2.80619
2.63212
2.40207
2.32912
2.14164
2.06831
1.99298
1.98264
1.94373
2.01062
2.11789
2.18246
2.37912
2.59971
2.70599
3.26152
3.11119
2.80063
2.61789
2.35426
2.18411
1.968
1.87496
1.76103
1.68217
1.61344
1.50852
1.4885
1.54988
1.49254
1.56463
1.72908
1.78995
1.97685
2.16214
2.33288
2.15599
1.9315
1.84569
1.67412
1.53375
1.42285
1.37597
1.19832
1.13535
1.02736
1.04855
1.0793
1.04154
1.13209
1.12385
1.21398
1.30128
1.40982
1.47057
1.43521
1.34459
1.1521
1.14339
1.03967
0.950528
0.838887
0.780318
0.715565
0.723444
0.630492
0.663462
0.636536
0.637864
0.587314
0.652842
0.717938
0.795031
0.853672
0.901182
0.508369
0.398976
0.398269
0.259485
0.31563
0.231767
0.27775
0.309836
0.164892
0.209223
0.188699
0.243513
0.312665
0.235368
0.152285
0.222207
0.272778
0.253707
0.244234
0.278496
)
;

boundaryField
{
    hotSide
    {
        type            calculated;
        value           nonuniform List<scalar> 
400
(
5.00605
4.42479
3.88699
3.27763
2.60599
2.09778
1.73163
1.46122
1.1968
1.10423
1.18266
1.23787
1.55615
1.9271
2.48256
3.0399
3.851
4.77738
5.71448
6.48584
5.02205
4.52483
3.89121
3.2158
2.63279
2.09385
1.65459
1.27665
1.00654
0.865809
0.871753
1.01356
1.24015
1.55312
2.02768
2.65722
3.46097
4.3223
5.15244
5.89045
5.17056
4.73436
3.95161
3.26508
2.63082
1.99333
1.4666
1.15803
0.892377
0.673353
0.684355
0.713642
0.861497
1.15834
1.67839
2.27405
2.98068
3.73491
4.64456
5.43722
5.384
4.82793
4.06448
3.3728
2.68373
2.05626
1.60636
1.05478
0.755191
0.611512
0.386694
0.380107
0.602805
0.875909
1.30406
1.85832
2.49454
3.31894
4.14895
4.82692
5.65488
5.05112
4.29343
3.52733
2.75901
2.14656
1.61216
1.07476
0.658832
0.420285
0.244352
0.278153
0.332695
0.480825
0.941043
1.5628
2.11789
2.90427
3.71257
4.35103
5.95155
5.35686
4.53128
3.71444
2.99993
2.25668
1.67501
1.08189
0.659287
0.357069
0.113547
0.0945251
0.0857429
0.267586
0.608811
1.20794
1.73333
2.56612
3.31376
4.01063
6.10532
5.50878
4.7003
3.97643
3.14776
2.35671
1.67564
1.08234
0.647266
0.222732
0.0402937
-0.0369748
-0.0612518
0.126144
0.462957
0.863333