/*--------------------------------*- C++ -*----------------------------------*\
| =========                 |                                                 |
| \\      /  F ield         | OpenFOAM: The Open Source CFD Toolbox           |
|  \\    /   O peration     | Version:  2212                                  |
|   \\  /    A nd           | Website:  www.openfoam.com                      |
|    \\/     M anipulation  |                                                 |
\*---------------------------------------------------------------------------*/
FoamFile
{
    version     2.0;
    format      ascii;
    arch        "LSB;label=32;scalar=64";
    class       volScalarField;
    location    "0";
    object      Tdirect;
}
// * * * * * * * * * * * * * * * * * * * * * * * * * * * * * * * * * * * * * //

dimensions      [0 0 0 1 0 0 0];

internalField   nonuniform List<scalar> 
3200
(
337.324
337.552
337.844
338.162
338.49
338.811
339.108
339.359
339.541
339.637
339.637
339.541
339.359
339.108
338.811
338.49
338.162
337.844
337.552
337.324
332.501
332.694
332.946
333.221
333.504
333.782
334.039
334.255
334.413
334.496
334.496
334.413
334.255
334.039
333.782
333.504
333.221
332.946
332.694
332.501
327.612
327.773
327.985
328.217
328.457
328.692
328.908
329.091
329.224
329.294
329.294
329.224
329.091
328.908
328.692
328.457
328.217
327.985
327.773
327.612
322.669
322.799
322.971
323.161
323.357
323.549
323.726
323.875
323.984
324.041
324.041
323.984
323.875
323.726
323.549
323.357
323.161
322.971
322.799
322.669
317.682
317.781
317.916
318.063
318.215
318.365
318.502
318.618
318.702
318.747
318.747
318.702
318.618
318.502
318.365
318.215
318.063
317.916
317.781
317.682
312.661
312.731
312.827
312.932
313.041
313.147
313.245
313.328
313.388
313.42
313.42
313.388
313.328
313.245
313.147
313.041
312.932
312.827
312.731
312.661
307.615
307.657
307.714
307.777
307.843
307.906
307.965
308.015
308.051
308.07
308.07
308.051
308.015
307.965
307.906
307.843
307.777
307.714
307.657
307.615
302.554
302.568
302.587
302.609
302.63
302.652
302.672
302.688
302.7
302.707
302.707
302.7
302.688
302.672
302.652
302.63
302.609
302.587
302.568
302.554
337.478
337.705
337.994
338.309
338.633
338.951
339.244
339.492
339.672
339.767
339.767
339.672
339.492
339.244
338.951
338.633
338.309
337.994
337.705
337.478
332.635
332.827
333.076
333.349
333.629
333.904
334.158
334.372
334.527
334.609
334.609
334.527
334.372
334.158
333.904
333.629
333.349
333.076
332.827
332.635
327.726
327.885
328.096
328.326
328.563
328.795
329.01
329.19
329.321
329.39
329.39
329.321
329.19
329.01
328.795
328.563
328.326
328.096
327.885
327.726
322.763
322.891
323.062
323.251
323.444
323.634
323.809
323.957
324.064
324.12
324.12
324.064
323.957
323.809
323.634
323.444
323.251
323.062
322.891
322.763
317.755
317.854
317.986
318.133
318.283
318.431
318.567
318.681
318.764
318.808
318.808
318.764
318.681
318.567
318.431
318.283
318.133
317.986
317.854
317.755
312.713
312.783
312.877
312.982
313.089
313.195
313.292
313.373
313.433
313.464
313.464
313.433
313.373
313.292
313.195
313.089
312.982
312.877
312.783
312.713
307.646
307.688
307.745
307.807
307.872
307.935
307.993
308.042
308.078
308.097
308.097
308.078
308.042
307.993
307.935
307.872
307.807
307.745
307.688
307.646
302.565
302.579
302.598
302.619
302.64
302.662
302.681
302.697
302.709
302.716
302.716
302.709
302.697
302.681
302.662
302.64
302.619
302.598
302.579
302.565
337.786
338.009
338.294
338.603
338.921
339.232
339.518
339.76
339.935
340.028
340.028
339.935
339.76
339.518
339.232
338.921
338.603
338.294
338.009
337.786
332.903
333.092
333.337
333.605
333.88
334.149
334.397
334.605
334.757
334.837
334.837
334.757
334.605
334.397
334.149
333.88
333.605
333.337
333.092
332.903
327.954
328.111
328.317
328.544
328.776
329.003
329.213
329.389
329.516
329.584
329.584
329.516
329.389
329.213
329.003
328.776
328.544
328.317
328.111
327.954
322.95
323.076
323.245
323.429
323.619
323.805
323.976
324.12
324.224
324.279
324.279
324.224
324.12
323.976
323.805
323.619
323.429
323.245
323.076
322.95
317.901
317.998
318.129
318.272
318.42
318.564
318.697
318.809
318.89
318.933
318.933
318.89
318.809
318.697
318.564
318.42
318.272
318.129
317.998
317.901
312.817
312.886
312.979
313.082
313.187
313.29
313.385
313.465
313.523
313.553
313.553
313.523
313.465
313.385
313.29
313.187
313.082
312.979
312.886
312.817
307.709
307.75
307.806
307.867
307.931
307.993
308.049
308.097
308.132
308.15
308.15
308.132
308.097
308.049
307.993
307.931
307.867
307.806
307.75
307.709
302.586
302.599
302.618
302.639
302.66
302.681
302.7
302.716
302.728
302.734
302.734
302.728
302.716
302.7
302.681
302.66
302.639
302.618
302.599
302.586
338.25
338.467
338.745
339.045
339.354
339.655
339.932
340.164
340.333
340.422
340.422
340.333
340.164
339.932
339.655
339.354
339.045
338.745
338.467
338.25
333.306
333.491
333.73
333.99
334.257
334.518
334.757
334.958
335.104
335.181
335.181
335.104
334.958
334.757
334.518
334.257
333.99
333.73
333.491
333.306
328.297
328.45
328.651
328.871
329.097
329.317
329.519
329.689
329.812
329.877
329.877
329.812
329.689
329.519
329.317
329.097
328.871
328.651
328.45
328.297
323.231
323.354
323.518
323.698
323.883
324.063
324.228
324.366
324.467
324.52
324.52
324.467
324.366
324.228
324.063
323.883
323.698
323.518
323.354
323.231
318.12
318.215
318.342
318.482
318.625
318.765
318.893
319.001
319.079
319.12
319.12
319.079
319.001
318.893
318.765
318.625
318.482
318.342
318.215
318.12
312.974
313.041
313.132
313.232
313.334
313.434
313.526
313.602
313.658
313.688
313.688
313.658
313.602
313.526
313.434
313.334
313.232
313.132
313.041
312.974
307.803
307.843
307.898
307.958
308.019
308.079
308.134
308.18
308.214
308.231
308.231
308.214
308.18
308.134
308.079
308.019
307.958
307.898
307.843
307.803
302.617
302.631
302.649
302.669
302.69
302.71
302.728
302.744
302.755
302.761
302.761
302.755
302.744
302.728
302.71
302.69
302.669
302.649
302.631
302.617
338.868
339.08
339.348
339.638
339.934
340.223
340.487
340.709
340.87
340.954
340.954
340.87
340.709
340.487
340.223
339.934
339.638
339.348
339.08
338.868
333.845
334.024
334.255
334.506
334.762
335.012
335.241
335.433
335.572
335.645
335.645
335.572
335.433
335.241
335.012
334.762
334.506
334.255
334.024
333.845
328.754
328.902
329.097
329.309
329.526
329.737
329.93
330.092
330.21
330.271
330.271
330.21
330.092
329.93
329.737
329.526
329.309
329.097
328.902
328.754
323.606
323.726
323.885
324.058
324.235
324.408
324.566
324.698
324.794
324.844
324.844
324.794
324.698
324.566
324.408
324.235
324.058
323.885
323.726
323.606
318.413
318.505
318.628
318.763
318.9
319.034
319.157
319.26
319.334
319.373
319.373
319.334
319.26
319.157
319.034
318.9
318.763
318.628
318.505
318.413
313.184
313.249
313.337
313.433
313.531
313.627
313.715
313.788
313.841
313.869
313.869
313.841
313.788
313.715
313.627
313.531
313.433
313.337
313.249
313.184
307.929
307.968
308.021
308.079
308.138
308.195
308.248
308.292
308.324
308.34
308.34
308.324
308.292
308.248
308.195
308.138
308.079
308.021
307.968
307.929
302.66
302.673
302.69
302.71
302.729
302.749
302.766
302.781
302.792
302.797
302.797
302.792
302.781
302.766
302.749
302.729
302.71
302.69
302.673
302.66
339.643
339.847
340.104
340.381
340.664
340.938
341.188
341.397
341.548
341.628
341.628
341.548
341.397
341.188
340.938
340.664
340.381
340.104
339.847
339.643
334.519
334.691
334.913
335.153
335.398
335.635
335.852
336.033
336.163
336.232
336.232
336.163
336.033
335.852
335.635
335.398
335.153
334.913
334.691
334.519
329.327
329.47
329.657
329.859
330.066
330.267
330.45
330.602
330.713
330.771
330.771
330.713
330.602
330.45
330.267
330.066
329.859
329.657
329.47
329.327
324.077
324.191
324.344
324.51
324.679
324.843
324.992
325.117
325.207
325.255
325.255
325.207
325.117
324.992
324.843
324.679
324.51
324.344
324.191
324.077
318.78
318.868
318.986
319.115
319.246
319.374
319.49
319.587
319.657
319.694
319.694
319.657
319.587
319.49
319.374
319.246
319.115
318.986
318.868
318.78
313.446
313.509
313.593
313.685
313.779
313.87
313.953
314.022
314.072
314.098
314.098
314.072
314.022
313.953
313.87
313.779
313.685
313.593
313.509
313.446
308.087
308.124
308.175
308.23
308.287
308.341
308.391
308.433
308.463
308.478
308.478
308.463
308.433
308.391
308.341
308.287
308.23
308.175
308.124
308.087
302.713
302.725
302.742
302.761
302.779
302.798
302.814
302.828
302.838
302.844
302.844
302.838
302.828
302.814
302.798
302.779
302.761
302.742
302.725
302.713
340.576
340.77
341.015
341.278
341.545
341.803
342.038
342.233
342.374
342.448
342.448
342.374
342.233
342.038
341.803
341.545
341.278
341.015
340.77
340.576
335.331
335.495
335.707
335.935
336.166
336.389
336.592
336.761
336.883
336.947
336.947
336.883
336.761
336.592
336.389
336.166
335.935
335.707
335.495
335.331
330.016
330.152
330.331
330.523
330.719
330.907
331.079
331.222
331.325
331.379
331.379
331.325
331.222
331.079
330.907
330.719
330.523
330.331
330.152
330.016
324.642
324.752
324.897
325.055
325.215
325.369
325.509
325.626
325.71
325.754
325.754
325.71
325.626
325.509
325.369
325.215
325.055
324.897
324.752
324.642
319.221
319.305
319.418
319.54
319.664
319.784
319.893
319.984
320.049
320.084
320.084
320.049
319.984
319.893
319.784
319.664
319.54
319.418
319.305
319.221
313.762
313.822
313.902
313.989
314.078
314.164
314.242
314.307
314.353
314.378
314.378
314.353
314.307
314.242
314.164
314.078
313.989
313.902
313.822
313.762
308.277
308.313
308.361
308.413
308.467
308.518
308.565
308.604
308.632
308.646
308.646
308.632
308.604
308.565
308.518
308.467
308.413
308.361
308.313
308.277
302.776
302.788
302.804
302.822
302.84
302.857
302.873
302.886
302.895
302.9
302.9
302.895
302.886
302.873
302.857
302.84
302.822
302.804
302.788
302.776
341.666
341.851
342.083
342.331
342.581
342.822
343.04
343.221
343.352
343.42
343.42
343.352
343.221
343.04
342.822
342.581
342.331
342.083
341.851
341.666
336.28
336.436
336.636
336.851
337.068
337.277
337.465
337.622
337.735
337.794
337.794
337.735
337.622
337.465
337.277
337.068
336.851
336.636
336.436
336.28
330.822
330.952
331.12
331.302
331.485
331.662
331.821
331.954
332.049
332.099
332.099
332.049
331.954
331.821
331.662
331.485
331.302
331.12
330.952
330.822
325.304
325.408
325.546
325.694
325.844
325.988
326.119
326.227
326.305
326.345
326.345
326.305
326.227
326.119
325.988
325.844
325.694
325.546
325.408
325.304
319.737
319.817
319.923
320.039
320.155
320.267
320.369
320.453
320.513
320.545
320.545
320.513
320.453
320.369
320.267
320.155
320.039
319.923
319.817
319.737
314.131
314.188
314.264
314.347
314.43
314.51
314.582
314.642
314.686
314.708
314.708
314.686
314.642
314.582
314.51
314.43
314.347
314.264
314.188
314.131
308.499
308.533
308.579
308.628
308.678
308.726
308.77
308.806
308.832
308.845
308.845
308.832
308.806
308.77
308.726
308.678
308.628
308.579
308.533
308.499
302.851
302.862
302.877
302.894
302.911
302.927
302.941
302.954
302.962
302.967
302.967
302.962
302.954
302.941
302.927
302.911
302.894
302.877
302.862
302.851
342.916
343.09
343.309
343.541
343.774
343.998
344.199
344.366
344.485
344.547
344.547
344.485
344.366
344.199
343.998
343.774
343.541
343.309
343.09
342.916
337.368
337.516
337.704
337.905
338.107
338.3
338.475
338.619
338.722
338.776
338.776
338.722
338.619
338.475
338.3
338.107
337.905
337.704
337.516
337.368
331.746
331.868
332.027
332.197
332.368
332.532
332.679
332.801
332.888
332.934
332.934
332.888
332.801
332.679
332.532
332.368
332.197
332.027
331.868
331.746
326.062
326.161
326.29
326.429
326.569
326.703
326.823
326.923
326.994
327.031
327.031
326.994
326.923
326.823
326.703
326.569
326.429
326.29
326.161
326.062
320.328
320.404
320.504
320.612
320.721
320.825
320.918
320.996
321.051
321.08
321.08
321.051
320.996
320.918
320.825
320.721
320.612
320.504
320.404
320.328
314.555
314.608
314.68
314.757
314.835
314.909
314.976
315.031
315.071
315.092
315.092
315.071
315.031
314.976
314.909
314.835
314.757
314.68
314.608
314.555
308.754
308.786
308.829
308.875
308.922
308.966
309.006
309.04
309.063
309.076
309.076
309.063
309.04
309.006
308.966
308.922
308.875
308.829
308.786
308.754
302.936
302.947
302.961
302.977
302.992
303.007
303.021
303.032
303.04
303.044
303.044
303.04
303.032
303.021
303.007
302.992
302.977
302.961
302.947
302.936
344.326
344.49
344.695
344.911
345.127
345.333
345.517
345.669
345.778
345.835
345.835
345.778
345.669
345.517
345.333
345.127
344.911
344.695
344.49
344.326
338.595
338.734
338.91
339.098
339.285
339.463
339.623
339.755
339.849
339.898
339.898
339.849
339.755
339.623
339.463
339.285
339.098
338.91
338.734
338.595
332.788
332.903
333.052
333.21
333.369
333.519
333.655
333.766
333.846
333.887
333.887
333.846
333.766
333.655
333.519
333.369
333.21
333.052
332.903
332.788
326.918
327.01
327.131
327.261
327.39
327.514
327.624
327.715
327.78
327.814
327.814
327.78
327.715
327.624
327.514
327.39
327.261
327.131
327.01
326.918
320.995
321.066
321.16
321.261
321.362
321.457
321.543
321.614
321.665
321.691
321.691
321.665
321.614
321.543
321.457
321.362
321.261
321.16
321.066
320.995
315.032
315.083
315.15
315.222
315.293
315.362
315.423
315.474
315.51
315.529
315.529
315.51
315.474
315.423
315.362
315.293
315.222
315.15
315.083
315.032
309.041
309.071
309.111
309.154
309.198
309.239
309.276
309.306
309.328
309.339
309.339
309.328
309.306
309.276
309.239
309.198
309.154
309.111
309.071
309.041
303.033
303.043
303.056
303.071
303.085
303.099
303.111
303.121
303.129
303.132
303.132
303.129
303.121
303.111
303.099
303.085
303.071
303.056
303.043
303.033
345.898
346.051
346.241
346.442
346.641
346.829
346.998
347.136
347.234
347.285
347.285
347.234
347.136
346.998
346.829
346.641
346.442
346.241
346.051
345.898
339.963
340.093
340.257
340.431
340.603
340.766
340.912
341.032
341.117
341.161
341.161
341.117
341.032
340.912
340.766
340.603
340.431
340.257
340.093
339.963
333.95
334.058
334.196
334.343
334.489
334.627
334.75
334.851
334.923
334.961
334.961
334.923
334.851
334.75
334.627
334.489
334.343
334.196
334.058
333.95
327.871
327.958
328.07
328.19
328.31
328.423
328.524
328.607
328.665
328.696
328.696
328.665
328.607
328.524
328.423
328.31
328.19
328.07
327.958
327.871
321.739
321.805
321.893
321.986
322.079
322.167
322.245
322.309
322.355
322.379
322.379
322.355
322.309
322.245
322.167
322.079
321.986
321.893
321.805
321.739
315.565
315.612
315.674
315.741
315.807
315.87
315.926
315.972
316.005
316.022
316.022
316.005
315.972
315.926
315.87
315.807
315.741
315.674
315.612
315.565
309.361
309.389
309.427
309.467
309.506
309.544
309.578
309.605
309.625
309.635
309.635
309.625
309.605
309.578
309.544
309.506
309.467
309.427
309.389
309.361
303.14
303.149
303.162
303.175
303.189
303.201
303.213
303.222
303.228
303.232
303.232
303.228
303.222
303.213
303.201
303.189
303.175
303.162
303.149
303.14
347.632
347.774
347.951
348.135
348.318
348.49
348.643
348.768
348.856
348.902
348.902
348.856
348.768
348.643
348.49
348.318
348.135
347.951
347.774
347.632
341.472
341.593
341.745
341.905
342.063
342.212
342.345
342.453
342.53
342.57
342.57
342.53
342.453
342.345
342.212
342.063
341.905
341.745
341.593
341.472
335.232
335.332
335.46
335.595
335.729
335.855
335.967
336.059
336.124
336.157
336.157
336.124
336.059
335.967
335.855
335.729
335.595
335.46
335.332
335.232
328.923
329.003
329.108
329.219
329.328
329.431
329.523
329.598
329.651
329.679
329.679
329.651
329.598
329.523
329.431
329.328
329.219
329.108
329.003
328.923
322.559
322.621
322.702
322.788
322.873
322.953
323.024
323.083
323.124
323.145
323.145
323.124
323.083
323.024
322.953
322.873
322.788
322.702
322.621
322.559
316.152
316.195
316.253
316.315
316.376
316.433
316.484
316.526
316.555
316.57
316.57
316.555
316.526
316.484
316.433
316.376
316.315
316.253
316.195
316.152
309.714
309.74
309.775
309.812
309.848
309.883
309.913
309.938
309.956
309.965
309.965
309.956
309.938
309.913
309.883
309.848
309.812
309.775
309.74
309.714
303.258
303.267
303.279
303.291
303.303
303.315
303.325
303.334
303.339
303.343
303.343
303.339
303.334
303.325
303.315
303.303
303.291
303.279
303.267
303.258
349.528
349.66
349.823
349.992
350.159
350.315
350.454
350.566
350.646
350.687
350.687
350.646
350.566
350.454
350.315
350.159
349.992
349.823
349.66
349.528
343.122
343.234
343.375
343.522
343.666
343.802
343.921
344.019
344.088
344.124
344.124
344.088
344.019
343.921
343.802
343.666
343.522
343.375
343.234
343.122
336.633
336.726
336.844
336.968
337.091
337.205
337.307
337.389
337.447
337.478
337.478
337.447
337.389
337.307
337.205
337.091
336.968
336.844
336.726
336.633
330.073
330.147
330.244
330.346
330.446
330.54
330.623
330.69
330.738
330.762
330.762
330.738
330.69
330.623
330.54
330.446
330.346
330.244
330.147
330.073
323.455
323.513
323.588
323.667
323.744
323.817
323.882
323.934
323.972
323.991
323.991
323.972
323.934
323.882
323.817
323.744
323.667
323.588
323.513
323.455
316.793
316.834
316.888
316.944
317
317.052
317.098
317.135
317.162
317.176
317.176
317.162
317.135
317.098
317.052
317
316.944
316.888
316.834
316.793
310.1
310.124
310.156
310.19
310.224
310.255
310.283
310.305
310.321
310.329
310.329
310.321
310.305
310.283
310.255
310.224
310.19
310.156
310.124
310.1
303.388
303.396
303.407
303.418
303.429
303.44
303.449
303.457
303.462
303.465
303.465
303.462
303.457
303.449
303.44
303.429
303.418
303.407
303.396
303.388
351.584
351.707
351.857
352.012
352.164
352.306
352.43
352.531
352.602
352.639
352.639
352.602
352.531
352.43
352.306
352.164
352.012
351.857
351.707
351.584
344.912
345.016
345.145
345.28
345.411
345.534
345.642
345.729
345.791
345.823
345.823
345.791
345.729
345.642
345.534
345.411
345.28
345.145
345.016
344.912
338.152
338.238
338.347
338.461
338.573
338.676
338.768
338.842
338.894
338.921
338.921
338.894
338.842
338.768
338.676
338.573
338.461
338.347
338.238
338.152
331.32
331.389
331.478
331.571
331.662
331.747
331.822
331.882
331.925
331.947
331.947
331.925
331.882
331.822
331.747
331.662
331.571
331.478
331.389
331.32
324.428
324.481
324.55
324.622
324.693
324.759
324.817
324.864
324.898
324.915
324.915
324.898
324.864
324.817
324.759
324.693
324.622
324.55
324.481
324.428
317.489
317.527
317.576
317.628
317.679
317.726
317.767
317.801
317.825
317.837
317.837
317.825
317.801
317.767
317.726
317.679
317.628
317.576
317.527
317.489
310.519
310.541
310.571
310.602
310.632
310.66
310.685
310.706
310.72
310.727
310.727
310.72
310.706
310.685
310.66
310.632
310.602
310.571
310.541
310.519
303.528
303.536
303.546
303.556
303.566
303.576
303.584
303.591
303.596
303.598
303.598
303.596
303.591
303.584
303.576
303.566
303.556
303.546
303.536
303.528
353.799
353.912
354.049
354.191
354.329
354.457
354.569
354.659
354.723
354.756
354.756
354.723
354.659
354.569
354.457
354.329
354.191
354.049
353.912
353.799
346.838
346.934
347.052
347.175
347.295
347.406
347.503
347.581
347.636
347.665
347.665
347.636
347.581
347.503
347.406
347.295
347.175
347.052
346.934
346.838
339.787
339.867
339.967
340.071
340.172
340.266
340.348
340.414
340.461
340.485
340.485
340.461
340.414
340.348
340.266
340.172
340.071
339.967
339.867
339.787
332.661
332.725
332.806
332.891
332.974
333.051
333.118
333.173
333.211
333.231
333.231
333.211
333.173
333.118
333.051
332.974
332.891
332.806
332.725
332.661
325.473
325.522
325.585
325.651
325.716
325.776
325.828
325.87
325.9
325.915
325.915
325.9
325.87
325.828
325.776
325.716
325.651
325.585
325.522
325.473
318.238
318.272
318.317
318.365
318.411
318.453
318.491
318.521
318.542
318.553
318.553
318.542
318.521
318.491
318.453
318.411
318.365
318.317
318.272
318.238
310.968
310.989
311.016
311.045
311.072
311.098
311.12
311.139
311.151
311.158
311.158
311.151
311.139
311.12
311.098
311.072
311.045
311.016
310.989
310.968
303.679
303.686
303.695
303.705
303.714
303.722
303.73
303.736
303.74
303.743
303.743
303.74
303.736
303.73
303.722
303.714
303.705
303.695
303.686
303.679
356.159
356.263
356.389
356.519
356.644
356.759
356.86
356.941
356.998
357.027
357.027
356.998
356.941
356.86
356.759
356.644
356.519
356.389
356.263
356.159
348.89
348.978
349.087
349.199
349.307
349.407
349.495
349.565
349.614
349.639
349.639
349.614
349.565
349.495
349.407
349.307
349.199
349.087
348.978
348.89
341.528
341.601
341.692
341.787
341.879
341.964
342.038
342.097
342.139
342.16
342.16
342.139
342.097
342.038
341.964
341.879
341.787
341.692
341.601
341.528
334.088
334.146
334.221
334.299
334.374
334.443
334.504
334.552
334.587
334.604
334.604
334.587
334.552
334.504
334.443
334.374
334.299
334.221
334.146
334.088
326.585
326.63
326.688
326.748
326.807
326.861
326.908
326.946
326.972
326.986
326.986
326.972
326.946
326.908
326.861
326.807
326.748
326.688
326.63
326.585
319.033
319.065
319.106
319.149
319.191
319.23
319.263
319.29
319.309
319.319
319.319
319.309
319.29
319.263
319.23
319.191
319.149
319.106
319.065
319.033
311.446
311.465
311.49
311.516
311.541
311.565
311.585
311.601
311.612
311.618
311.618
311.612
311.601
311.585
311.565
311.541
311.516
311.49
311.465
311.446
303.839
303.846
303.854
303.863
303.871
303.879
303.886
303.891
303.895
303.897
303.897
303.895
303.891
303.886
303.879
303.871
303.863
303.854
303.846
303.839
358.64
358.735
358.851
358.968
359.082
359.186
359.276
359.349
359.399
359.426
359.426
359.399
359.349
359.276
359.186
359.082
358.968
358.851
358.735
358.64
351.042
351.122
351.222
351.324
351.423
351.513
351.591
351.654
351.698
351.721
351.721
351.698
351.654
351.591
351.513
351.423
351.324
351.222
351.122
351.042
343.35
343.417
343.501
343.587
343.67
343.747
343.813
343.867
343.904
343.923
343.923
343.904
343.867
343.813
343.747
343.67
343.587
343.501
343.417
343.35
335.579
335.633
335.702
335.772
335.841
335.903
335.958
336.001
336.032
336.047
336.047
336.032
336.001
335.958
335.903
335.841
335.772
335.702
335.633
335.579
327.745
327.787
327.84
327.895
327.948
327.997
328.039
328.073
328.097
328.109
328.109
328.097
328.073
328.039
327.997
327.948
327.895
327.84
327.787
327.745
319.862
319.892
319.93
319.969
320.007
320.042
320.072
320.096
320.113
320.122
320.122
320.113
320.096
320.072
320.042
320.007
319.969
319.93
319.892
319.862
311.945
311.962
311.985
312.009
312.031
312.052
312.071
312.085
312.095
312.101
312.101
312.095
312.085
312.071
312.052
312.031
312.009
311.985
311.962
311.945
304.006
304.012
304.02
304.028
304.035
304.042
304.048
304.053
304.057
304.059
304.059
304.057
304.053
304.048
304.042
304.035
304.028
304.02
304.012
304.006
361.173
361.26
361.366
361.474
361.577
361.671
361.752
361.817
361.863
361.886
361.886
361.863
361.817
361.752
361.671
361.577
361.474
361.366
361.26
361.173
353.229
353.303
353.395
353.488
353.577
353.659
353.73
353.786
353.825
353.846
353.846
353.825
353.786
353.73
353.659
353.577
353.488
353.395
353.303
353.229
345.194
345.256
345.333
345.412
345.487
345.557
345.617
345.664
345.698
345.715
345.715
345.698
345.664
345.617
345.557
345.487
345.412
345.333
345.256
345.194
337.084
337.133
337.196
337.261
337.323
337.38
337.429
337.468
337.495
337.509
337.509
337.495
337.468
337.429
337.38
337.323
337.261
337.196
337.133
337.084
328.912
328.951
328.999
329.05
329.098
329.142
329.18
329.211
329.232
329.243
329.243
329.232
329.211
329.18
329.142
329.098
329.05
328.999
328.951
328.912
320.695
320.722
320.756
320.792
320.827
320.859
320.886
320.908
320.923
320.931
320.931
320.923
320.908
320.886
320.859
320.827
320.792
320.756
320.722
320.695
312.444
312.46
312.481
312.503
312.523
312.542
312.559
312.572
312.581
312.586
312.586
312.581
312.572
312.559
312.542
312.523
312.503
312.481
312.46
312.444
304.174
304.179
304.186
304.193
304.2
304.207
304.212
304.216
304.219
304.221
304.221
304.219
304.216
304.212
304.207
304.2
304.193
304.186
304.179
304.174
363.592
363.673
363.771
363.87
363.964
364.05
364.124
364.182
364.223
364.244
364.244
364.223
364.182
364.124
364.05
363.964
363.87
363.771
363.673
363.592
355.293
355.362
355.446
355.532
355.614
355.688
355.752
355.804
355.839
355.858
355.858
355.839
355.804
355.752
355.688
355.614
355.532
355.446
355.362
355.293
346.916
346.973
347.044
347.117
347.186
347.25
347.304
347.348
347.378
347.393
347.393
347.378
347.348
347.304
347.25
347.186
347.117
347.044
346.973
346.916
338.475
338.521
338.58
338.639
338.696
338.748
338.793
338.828
338.853
338.866
338.866
338.853
338.828
338.793
338.748
338.696
338.639
338.58
338.521
338.475
329.984
330.02
330.065
330.111
330.156
330.196
330.231
330.259
330.278
330.288
330.288
330.278
330.259
330.231
330.196
330.156
330.111
330.065
330.02
329.984
321.455
321.48
321.512
321.545
321.577
321.606
321.631
321.651
321.665
321.672
321.672
321.665
321.651
321.631
321.606
321.577
321.545
321.512
321.48
321.455
312.898
312.913
312.932
312.952
312.972
312.989
313.004
313.016
313.024
313.028
313.028
313.024
313.016
313.004
312.989
312.972
312.952
312.932
312.913
312.898
304.325
304.33
304.337
304.344
304.35
304.356
304.361
304.365
304.368
304.369
304.369
304.368
304.365
304.361
304.356
304.35
304.344
304.337
304.33
304.325
365.472
365.548
365.64
365.732
365.821
365.901
365.969
366.024
366.062
366.081
366.081
366.062
366.024
365.969
365.901
365.821
365.732
365.64
365.548
365.472
356.836
356.901
356.981
357.061
357.138
357.208
357.268
357.316
357.349
357.366
357.366
357.349
357.316
357.268
357.208
357.138
357.061
356.981
356.901
356.836
348.164
348.218
348.286
348.354
348.42
348.479
348.53
348.571
348.599
348.613
348.613
348.599
348.571
348.53
348.479
348.42
348.354
348.286
348.218
348.164
339.46
339.504
339.559
339.615
339.669
339.718
339.76
339.793
339.816
339.828
339.828
339.816
339.793
339.76
339.718
339.669
339.615
339.559
339.504
339.46
330.729
330.762
330.805
330.849
330.891
330.929
330.962
330.988
331.006
331.015
331.015
331.006
330.988
330.962
330.929
330.891
330.849
330.805
330.762
330.729
321.976
322
322.03
322.062
322.092
322.119
322.142
322.161
322.174
322.181
322.181
322.174
322.161
322.142
322.119
322.092
322.062
322.03
322
321.976
313.207
313.221
313.239
313.258
313.276
313.293
313.307
313.318
313.326
313.33
313.33
313.326
313.318
313.307
313.293
313.276
313.258
313.239
313.221
313.207
304.428
304.433
304.439
304.445
304.451
304.457
304.462
304.465
304.468
304.469
304.469
304.468
304.465
304.462
304.457
304.451
304.445
304.439
304.433
304.428
)
;

boundaryField
{
    hotSide
    {
        type            fixedGradient;
        gradient        nonuniform List<scalar> 
400
(
379.814
381.39
384.543
389.279
395.604
403.527
413.057
424.206
436.983
451.401
467.47
485.199
504.598
525.675
548.438
572.892
599.043
626.894
656.45
687.713
382.822
384.373
387.48
392.147
398.385
406.205
415.618
426.64
439.284
453.564
469.494
487.085
506.349
527.296
549.934
574.27
600.309
628.057
657.516
688.689
386.076
387.599
390.65
395.237
401.372
409.069
418.347
429.221
441.711
455.834
471.606
489.042
508.155
528.958
551.459
575.666
601.585
629.221
658.578
689.656
389.524
391.014
394
398.493
404.509
412.067
421.189
431.896
444.213
458.16
473.758
491.024
509.974
530.622
552.977
577.048
602.841
630.362
659.612
690.594
393.069
394.522
397.435
401.823
407.707
415.11
424.06
434.585
446.714
460.473
475.885
492.972
511.751
532.237
554.442
578.374
604.04
631.445
660.589
691.476
396.563
397.976
400.812
405.088
410.831
418.071
426.841
437.177
449.112
462.678
477.901
494.807
513.416
533.743
555.8
579.597
605.14
632.433
661.477
692.274
399.806
401.179
403.938
408.103
413.707
420.786
429.381
439.532
451.28
464.661
479.705
496.441
514.89
535.069
556.991
580.664
606.096
633.288
662.242
692.958
402.559
403.896
406.584
410.65
416.129
423.065
431.505
441.494
453.079
466.298
481.188
497.778
516.091
536.145
557.952
581.523
606.861
633.971
662.851
693.501
404.573
405.883
408.518
412.507
417.892
424.72
433.041
442.909
454.371
467.471
482.247
498.729
516.942
536.905
558.63
582.125
607.397
634.447
663.275
693.878
405.641
406.935
409.541
413.489
418.823
425.591
433.85
443.652
455.048
468.084
482.798
499.224
517.384
537.298
558.98
582.436
607.673
634.692
663.492
694.071
405.641
406.935
409.541
413.489
418.823
425.591
433.85
443.652
455.048
468.084
482.798
499.224
517.384
537.298
558.98
582.436
607.673
634.692
663.492
694.071
404.573
405.883
408.518
412.507
417.892
424.72
433.041
442.909
454.371
467.471
482.247
498.729
516.942
536.905
558.63
582.125
607.397
634.447
663.275
693.878
402.559
403.896
406.584
410.65
416.129
423.065
431.505
441.494
453.079
466.298
481.188
497.778
516.091
536.145
557.952
581.523
606.861
633.971
662.851
693.501
399.806
401.179
403.938
408.103
413.707
420.786
429.381
439.532
451.28
464.661
479.705
496.441
514.89
535.069
556.991
580.664
606.096
633.288
662.242
692.958
396.563
397.976
400.812
405.088
410.831
418.071
426.841
437.177
449.112
462.678
477.901
494.807
513.416
533.743
555.8
579.597
605.14
632.433
661.477
692.274
393.069
394.522
397.435
401.823
407.707
415.11
424.06
434.585
446.714
460.473
475.885
492.972
511.751
532.237
554.442
578.374
604.04
631.445
660.589
691.476
389.524
391.014
394
398.493
404.509
412.067
421.189
431.896
444.213
458.16
473.758
491.024
509.974
530.622
552.977
577.048
602.841
630.362
659.612
690.594
386.076
387.599
390.65
395.237
401.372
409.069
418.347
429.221
441.711
455.834
471.606
489.042
508.155
528.958
551.459
575.666
601.585
629.221
658.578
689.656
382.822
384.373
387.48
392.147
398.385
406.205
415.618
426.64
439.284
453.564
469.494
487.085
506.349
527.296
549.934
574.27
600.309
628.057
657.516
688.689
379.814
381.39
384.543
389.279
395.604
403.527
413.057
424.206
436.983
451.401
467.47
485.199
504.598
525.675
548.438
572.892
599.043
626.894
656.45
687.713
)
;
    }
    coldSide
    {
        type            mixed;
        refValue        uniform 300;
        refGradient     uniform 0;
        valueFraction   uniform 0.991591;
        source          uniform 0;
        value           nonuniform List<scalar> 
400
(
300.021
300.022
300.022
300.022
300.022
300.023
300.023
300.024
300.025
300.026
300.026
300.027
300.028
300.03
300.031
300.032
300.034
300.035
300.036
300.037
300.022
300.022
300.022
300.022
300.022
300.023
300.023
300.024
300.025
300.026
300.026
300.027
300.029