/*--------------------------------*- C++ -*----------------------------------*\
| =========                 |                                                 |
| \\      /  F ield         | OpenFOAM: The Open Source CFD Toolbox           |
|  \\    /   O peration     | Version:  2212                                  |
|   \\  /    A nd           | Website:  www.openfoam.com                      |
|    \\/     M anipulation  |                                                 |
\*---------------------------------------------------------------------------*/
FoamFile
{
    version     2.0;
    format      ascii;
    arch        "LSB;label=32;scalar=64";
    class       volScalarField;
    location    "./ITHACAoutput/true/8.6";
    object      error;
}
// * * * * * * * * * * * * * * * * * * * * * * * * * * * * * * * * * * * * * //

dimensions      [0 0 0 1 0 0 0];

internalField   nonuniform List<scalar> 
3200
(
-0.584496
-2.55147
1.0643
2.79327
3.92572
3.27287
5.5006
4.88594
2.37232
3.75536
3.31002
2.93561
2.19625
2.4509
2.64846
1.21471
1.69371
2.05547
-0.469258
-0.979316
-2.51052
-0.99805
2.26892
4.67538
2.9825
3.05027
1.56083
3.57428
2.64126
2.87329
2.30406
1.89395
3.58424
3.37481
2.07196
1.68553
0.496676
1.63408
-0.953557
-1.36959
-1.60405
-2.23705
0.57657
1.00947
0.780521
2.07173
4.66777
1.99813
2.86245
0.516068
0.699911
3.54192
-0.171514
1.5359
2.44409
0.261506
0.178302
2.68633
0.181273
-0.655479
-1.87426
-0.449644
2.88013
1.15686
-0.999859
1.07376
3.77444
3.76561
0.449389
2.69421
2.06634
1.92299
0.34406
0.629134
-1.22712
1.95527
1.21107
1.11135
0.568345
-0.599297
-0.706705
-0.720102
0.455151
1.24396
0.368298
1.86658
2.7904
1.80957
2.22799
-0.0444108
0.948748
-0.0232691
2.09628
1.50897
2.33326
2.008
1.80184
1.08162
-0.452393
-1.16945
-2.31112
-0.0651844
1.77396
-0.683368
0.902582
-0.411283
1.75254
2.7593
0.317363
1.39705
1.54076
2.0368
0.0666573
1.58091
0.78464
1.12857
0.498238
0.409893
1.25166
-0.330599
2.744
0.0590322
-1.26416
-0.11749
0.658052
-0.467006
0.849458
-1.09821
0.87159
0.94655
1.51114
1.18703
2.00065
0.606957
-0.557807
1.43023
0.154744
0.646544
-0.8861
-0.100181
1.70073
1.11063
-0.699187
0.770669
1.08782
-1.52318
3.0632
2.1092
-1.19817
-0.035675
0.274761
3.25275
-1.24309
1.05217
-0.922686
0.434554
-1.02224
-0.610833
0.394613
-1.68473
-0.908742
-0.148836
1.15106
3.15924
3.6062
4.92465
2.48263
2.66226
4.4232
1.86015
4.89768
3.05522
3.01209
2.03045
3.42992
3.19567
1.22528
-0.918068
-0.556588
-1.746
-2.88512
-0.358007
-1.48552
0.221074
2.76161
-0.361582
3.75815
0.336435
3.51024
-0.556859
-0.147703
3.61305
0.072622
1.56211
0.451629
2.33886
0.356024
2.72923
0.305528
1.30575
-2.35767
3.10465
0.12946
1.86772
3.63562
2.65074
2.8345
3.82219
2.10799
0.106217
-0.155927
1.23274
1.8005
0.875749
3.08252
4.28317
1.04988
1.06303
-1.25731
-2.47876
-1.62268
-1.93518
2.34212
0.171456
3.24523
3.37461
2.41614
2.05337
3.90578
1.54669
2.09697
2.89377
-0.248381
0.412464
0.0271153
1.63135
0.931361
0.880824
3.07025
-2.06373
-0.260275
-0.273319
2.12964
0.0588836
-0.0660777
2.53638
1.62171
2.74155
0.971579
0.21318
1.36365
0.425182
0.991617
-0.45406
0.487072
0.698277
1.04674
-0.500906
-1.8492
-1.62472
0.133783
1.89566
0.669105
2.50324
0.356499
0.933342
1.77403
-0.929997
1.17594
3.092
1.33637
-0.366098
2.51509
2.79518
1.88566
-0.958764
-2.27688
2.26725
-2.59112
0.65914
-0.00392202
-1.68618
1.8704
-1.0696
-0.0742579
-0.544458
-0.833203
-0.00253494
0.432759
0.448146
1.90725
0.376089
3.35258
-0.0967128
1.84559
-3.74119
1.36679
1.29648
1.6319
-0.938226
0.0279648
-0.105819
0.00772715
-0.256769
0.64293
0.653465
1.25262
-2.26114
-0.756057
-0.145868
2.49672
1.85648
1.73564
1.86463
0.77176
-1.2572
-0.276173
0.0434037
1.21817
-1.9692
-4.42418
0.685916
1.63554
2.7957
1.27402
3.2071
5.12949
3.72456
1.35381
2.27048
1.1652
0.787021
1.04972
2.5526
0.805891
0.780773
-0.516331
0.514449
-1.22463
-2.20659
-2.58114
0.382335
2.09471
1.5305
2.52013
3.50208
1.56223
0.631262
2.77451
4.18994
0.508434
2.9708
3.7844
1.65988
1.82213
1.44504
2.72544
2.52696
-1.26452
-1.66184
-4.31531
-2.11959
1.10872
2.91621
3.01328
3.03143
-0.116984
3.53557
2.08753
1.20639
1.8952
0.806038
1.87862
2.93475
-0.0194789
2.22731
-0.0622103
0.576718
0.00769597
0.630758
-0.0594877
0.460851
0.946661
1.90531
0.310353
2.64528
-0.0244331
0.325632
0.541473
1.76287
0.902608
0.61672
2.53605
-0.628788
1.10742
-0.569558
-0.464167
1.27004
-1.38385
-2.05993
-0.194644
-0.914666
0.47534
1.04592
3.49531
-0.840666
-0.32844
2.13526
1.49579
1.41377
0.985507
0.368623
0.918848
2.68465
0.624973
0.926129
-0.678435
-0.589968
-1.75422
0.0490212
-0.890804
1.06884
0.730064
1.96984
-1.17445
-0.0103166
1.88625
2.18681
2.66434
2.40007
1.81377
-2.3587
1.3862
0.622032
1.34295
-0.235947
0.521189
-0.422292
-0.664716
-0.342288
-1.43956
0.48255
2.17009
-1.29233
1.86504
-1.49135
2.55633
-0.165149
-1.70918
0.474675
0.715826
0.1812
0.838502
1.4444
0.499691
1.30214
-0.992333
0.140267
0.441147
-0.580124
-3.12331
-0.733761
-0.480347
0.763112
1.10887
-0.25473
3.64895
-0.551015
-0.711744
-1.13621
-1.04384
-0.840268
-1.2227
1.78769
-1.24519
-1.27664
-1.05234
1.24609
-0.393857
-0.361099
-4.08116
0.483638
-0.717
1.75602
-0.131673
4.68443
1.34682
1.69687
0.957911
0.84939
1.67408
1.37331
0.908642
2.05143
2.68667
2.84096
1.56274
2.83058
-0.62611
-1.8005
-2.45411
0.100132
-0.951982
0.7365
2.29856
0.157175
0.0751794
0.277231
1.45712
-0.063801
-0.102297
0.827751
0.383924
3.06195
-0.0438264
2.44209
-0.104955
-0.0234612
0.275403
-0.326786
-1.73006
-1.35648
-0.152388
1.41825
0.664273
1.50992
2.43011
1.84244
1.05606
1.78038
0.537338
2.23628
1.45489
0.741115
2.67929
-1.22444
0.743835
-0.459678
1.23506
-2.95791
-2.08205
2.62171
-1.97772
1.72923
1.25281
2.83805
1.45207
0.589763
-0.550884
1.33636
-2.01901
0.0490807
-0.314169
-0.0586244
1.50222
0.111911
1.50558
1.53921
-1.6594
-4.73902
-1.74141
0.113738
0.0208051
2.73456
0.402594
0.666542
0.0464961
1.47923
-0.691972
1.23273
3.17195
0.562519
-0.0724179
1.72872
-0.503328
0.870253
-0.922225
0.306046
0.356357
-0.254494
-0.899105
-1.3984
0.514859
1.60145
-1.88698
0.860323
0.0650618
0.980732
-0.0234864
-0.0180543
-0.83429
1.05866
1.07251
1.2085
2.21866
1.48531
1.35907
-0.313848
0.80688
0.569834
-0.964521
0.432852
-1.72039
1.8159
1.33906
0.0687671
-2.80914
0.767728
2.62137
0.539277
-0.187284
-0.416479
-0.695041
0.844008
2.76507
-1.74877
0.00949432
0.992011
1.00077
-3.26697
-0.996279
0.0623021
-1.16518
1.31025
-0.661783
-1.05474
-1.755
0.00780699
-0.662432
-0.569557
2.00778
0.423576
-2.19096
-0.136865
1.56412
0.296998
-1.36413
0.50407
0.107437
-0.393414
-4.72991
-0.00692027
0.791863
1.58345
2.95206
2.49121
2.09165
0.395364
3.05275
-1.15577
-0.0715469
-1.00946
2.6604
1.56845
1.04218
3.5714
-0.00688999
-1.10173
0.193629
-0.746287
-3.433
0.488493
0.757687
1.23205
0.23026
3.29171
0.471553
0.751593
0.0233226
-1.83751
0.602025
1.4624
-0.126391
0.0584981
1.38905
1.4274
0.0597185
1.34064
-2.71694
-2.63968
-2.73851
0.970846
-0.6161
0.701823
1.2045
2.68501
0.885193
2.88545
1.05994
1.5266
-0.547913
-0.312107
-1.39865
0.103817
-0.0900432
1.12473
-0.371283
-1.61763
-2.4071
-0.429231
-2.48721
-0.980113
-0.468972
0.0274443
2.82968
0.228897
0.696368
-0.334135
1.22901
0.990238
-0.885958
0.129542
-0.566513
0.920971
1.31202
-0.590836
-0.394414
-1.71514
-2.06187
-1.69108
-0.249941
-0.510872
-0.0907112
-1.99741
1.46906
1.85966
1.06718
-1.91283
-0.291145
0.557435
1.42639
-0.879694
-0.762898
0.269001
1.0516
1.07303
0.998361
-2.24804
0.221118
-1.65418
-1.86511
0.129517
-0.0525113
1.01996
1.70104
0.852295
-0.352836
-0.51696
0.42012
1.67208
2.00548
0.250438
0.813129
-2.87401
1.16469
-0.802078
0.340505
-0.385831
-1.63472
-2.32856
-0.390928
-2.61956
0.562154
0.589064
1.13469
2.10181
2.19827
-1.12653
-0.354611
1.17552
3.0821
-0.197668
0.0892656
2.22921
2.08666
0.670519
3.09829
0.618777
-0.340283
-2.58316
-1.11399
-2.34434
1.32014
1.06586
-0.672976
2.42674
1.51286
0.149573
1.09778
0.263331
-1.43434
-0.685792
-1.10642
-0.784312
-0.306178
-1.56942
1.06459
-0.556497
-0.882714
-2.40604
-3.44844
-0.171814
0.546223
0.618126
0.0413165
1.62246
-0.33526
0.514307
-0.568838
0.827824
0.310122
-1.74878
-0.971724
0.60747
1.78409
0.0899538
-0.307229
0.258408
-0.979607
-3.36901
-2.05298
-0.449058
1.32514
0.0298521
1.07003
0.125962
-0.465636
0.655374
1.38892
0.274257
-0.314431
1.78073
0.566913
-0.821453
-0.516248
-0.370133
-0.207279
-0.932905
-0.0273311
-3.93367
0.686321
-2.4317
-1.22782
-0.542336
0.974693
1.22071
1.38566
2.35622
0.343843
-0.609255
-1.30174
-0.920576
-0.996702
-0.493837
-3.31965
0.10706
-1.64357
0.333451
-1.61569
-1.14019
-2.47001
-1.29493
0.571681
-1.019
0.146837
1.19235
-0.132827
-2.83375
0.63806
0.513702
-1.04113
-1.25414
0.337799
0.278688
-0.0133721
0.652723
0.929077
-0.914439
-2.59809
-0.477919
-1.74801
-1.51722
-1.53202
4.08036
-0.830589
-1.35621
0.892515
0.967263
2.26869
-0.47641
1.16682
0.0355428
-0.468637
-1.94576
-2.06114
-0.99128
0.446363
0.991448
-2.41881
-1.68557
-0.503113
0.175072
1.67037
0.368873
0.147442
0.599727
1.3797
-0.100724
-0.445143
-1.05669
-0.879631
-1.51297
1.00282
-3.79479
0.63309
-0.785055
0.839333
1.39291
-1.10288
-1.8512
-0.953476
-0.0853355
-0.358357
0.536106
3.00463
-0.867396
-1.16972
0.00439046
0.854766
0.0235927
-0.587826
0.251721
0.168406
0.480276
-0.151252
-0.254149
-0.982438
-0.822837
0.299214
-0.374857
-0.510306
-0.700978
1.85339
-2.35782
1.18289
-0.483548
-0.574815
-0.0131378
-0.204658
-0.146754
-1.07313
-2.2552
-1.09215
-1.79687
-2.55418
-0.535054
-0.671082
1.18452
-1.95129
-0.225961
-5.07753
-1.82911
-2.11183
-0.221231
-2.01944
0.835585
-1.79624
-0.197405
-0.774709
-0.211321
-2.80375
-0.19296
-2.2606
-2.21483
0.370168
0.224283
-1.11028
-4.40382
-3.22083
-3.75729
-4.18062
-1.51294
-0.449724
1.08868
-1.00462
-0.5454
-1.46809
-1.54796
-0.953905
0.698847
0.206478
-0.695789
-1.65628
-0.57588
-1.15069
-1.31803
-1.00687
-2.04141
-0.270707
-1.13512
-1.78114
-0.967597
-0.116674
-1.24377
0.676316
1.31016
-2.39964
-0.684723
0.746851
-0.794972
-1.39126
-3.97489
-0.000698247
1.34347
0.626696
-0.516566
-0.946752
-2.23548
-2.92586
-3.92863
-2.0665
-1.10781
-0.865288
0.352019
0.37625
2.36973
0.343258
-1.19295
0.254026
-0.705553
1.35032
-0.0107473
-1.08257
0.74915
-1.03944
0.34649
-0.326358
-0.528689
-0.915289
-0.377202
-2.66121
-0.1574
-2.02113
1.93429
0.879361
-0.782002
0.457361
0.719087
1.27873
2.01463
-0.0643832
-0.103145
0.63062
-1.42448
-0.278081
-0.9811
-1.30864
1.37827
-1.54388
-1.95575
0.0245577
0.776082
1.09407
-0.176782
1.34221
0.404477
-2.9099
0.591679
0.207311
-0.938986
-1.2493
0.475333
-0.426824
0.883286
0.243334
1.15028
0.000247998
-0.643875
-1.28635
-1.18406
-1.04063
0.431173
-1.40321
0.270908
-1.91829
0.607081
-0.0930481
-0.211106
-1.4596
-0.379503
1.23136
-1.4898
1.71874
-1.28652
0.923727
1.15547
0.912709
0.476793
-0.0501342
-0.415177
-0.0943868
0.0616331
1.04681
0.629297
-2.10657
0.196181
-2.43455
-1.6004
-0.38186
-0.77872
-0.276856
-1.39021
-1.77372
-0.897936
0.476685
2.23475
0.364334
1.45286
-0.631568
-0.180939
-4.03321
-1.60263
-1.96948
-1.42219
0.144956
-1.56015
-2.09951
0.0344702
-1.2913
-0.0549484
-3.44592
0.508596
-0.140842
-2.41298
-4.43503
0.604994
0.473349
-1.83202
-2.79435
-3.71237
-1.70507
-0.674699
-2.9652
0.257875
1.63698
-0.103806
0.675333
-0.243221
0.0336713
-0.170419
0.534837
-4.51097
0.00541811
-0.933405
-0.209609
1.44471
-0.277876
-2.56893
-0.280248
-2.43349
-2.50098
-1.15147
-1.95034
-1.05529
-1.63477
0.416089
0.208966
0.146312
0.0107085
0.601322
0.093427
-1.61783
-0.521481
-2.31894
1.2742
1.39391
0.405338
-1.18069
1.25987
-3.43943
-0.263422
-1.18048
-1.81389
-3.08303
-1.23164
-2.49972
1.11313
0.266244
-0.924242
-1.2752
-0.7284
-1.22756
-0.829845
1.05454
0.14912
-1.17814
0.359362
-0.305018
-2.00612
-3.89211
-3.33805
-0.162736
-1.05426
-0.613199
0.315874
-0.640958
-0.122924
1.11157
1.80794
-1.34137
-0.408519
-2.00678
-1.59978
0.433075
-1.62826
0.573368
-2.19713
0.675464
-2.25277
-1.81725
-2.30152
0.63803
-0.802623
-0.810238
0.0743291
0.743972
-1.36129
-1.59745
0.830089
0.596144
-1.63207
-0.834819
0.142016
-0.652592
-0.244596
-2.7292
0.418233
-0.790325
-1.25171
-1.38491
-1.3026
0.530701
0.883533
0.892261
3.54671
0.507231
-1.87408
1.94266
0.180854
0.477367
0.196786
0.00556678
-1.80339
-1.05963
-0.581453
0.817799
-0.583872
0.954059
-2.59106
-2.31324
0.0880766
2.3698
1.66368
2.6805
-1.9644
2.94763
0.249764
-1.43226
0.516001
1.55219
0.120263
0.97541
1.31822
1.55746
-0.440005
-1.21786
-0.15769
-0.0369387
0.641981
0.393662
-4.40323
-3.93804
-3.92059
0.431542
0.187706
1.40581
-0.487713
0.497414
0.158553
-2.91971
-2.51206
-3.79386
-1.80688
-1.0319
-1.10963
-1.34509
-0.828485
-1.14672
-7.22538
-6.60037
-2.72464
-4.00238
-1.96223
-0.584979
0.0452771
1.23412
0.57863
-2.86385
-0.514037
-2.30298
-1.23327
-1.75529
0.675359
-1.50797
-0.468703
-2.71463
-0.171011
-2.32323
-2.45301
-4.42844
-3.05652
-2.47679
-2.5894
0.271062
-0.214793
-0.78955
-1.60275
1.31087
-0.753637
0.966886
-2.92867
-1.95625
-0.0860764
-0.710015
-0.374898
-0.977853
-3.39081
-1.9207
-1.28669
-4.42271
-3.09478
-3.65206
-0.593245
-1.10683
-0.872069
1.36762
-0.0823446
-0.442315
0.603249
0.186335
-0.982237
-3.60552
-0.883404
-2.6398
0.02997
-0.575517
-1.09542
-0.462676
-4.1309
-2.56758
-1.85335
-1.46933
-1.47697
-2.438
-1.27681
-1.02712
-1.99958
-0.99805
-1.62771
-0.455351
1.63967
-0.846224
-1.20487
-0.567771
-0.791734
-1.24459
-2.18685
-1.90552
0.27748
-2.10704
-1.19346
-0.541119
-0.191854
-0.211232
0.277119
0.470273
-1.18776
-1.05318
-0.185137
-2.998
1.97813
-1.57974
-3.63714
-0.573749
-0.0231646
0.697804
1.71269
-0.55812
-1.62969
-1.69975
-0.257884
-1.73888
-0.359064
-1.29659
-0.879916
0.61331
-1.61679
0.691075
1.89915
-1.23014
-2.79084
0.75742
0.882857
0.65933
0.237141
-0.0701678
2.52684
-1.17352
-0.813721
-0.000339043
0.0078706
0.0636773
0.221027
-0.139272
-0.357173
1.28995
1.29392
-1.18365
0.72096
-0.642644
-0.228891
-0.790668
-1.59064
-0.547904
1.12161
0.319428
-2.06992
-1.2571
0.723693
0.976759
-3.43979
-3.15746
1.56154
0.0362834
-0.860646
-0.428189
-1.32618
-1.5061
-0.233246
-2.4977
-1.60587
-2.50684
-3.89939
-3.13842
-2.6398
0.178777
-3.57742
-1.12854
-2.43516
-3.35572
-3.72922
-0.446612
-1.52701
-0.21658
-0.760129
0.23226
0.544047
-0.366811
-0.943169
-0.915036
-0.632643
-3.56622
-0.443655
-2.74736
-0.506582
0.337138
-0.673236
0.798811
0.0369979
-3.75558
-3.99255
-2.01036
-4.32804
-1.64117
-1.38783
1.67923
-1.99607
0.947766
-2.06254
-3.08655
-2.4441
-2.64321
-2.08572
-1.05883
0.101605
-1.29131
-1.66844
-0.158501
-1.87352
-1.86542
-2.48741
-3.33793
-0.755813
-0.134357
0.0862799
0.511039
-2.73217
0.762121
0.538362
-0.223258
-2.30416
-2.57026
-0.944597
-2.8082
-2.0644
-1.55902
-2.02757
-1.87081
-2.63507
0.801508
-0.525479
-3.90214
-0.832046
-1.11565
-1.46587
-1.77098
-1.14426
-2.26417
0.642463
1.32842
-2.14933
-1.38908
-3.30729
-2.19058
-0.322564
-2.04798
1.17674
-1.03408
0.564782
-0.605597
-3.47835
-2.38831
-0.814069
1.30237
-0.0741503
-0.489432
-1.02687
-1.47819
-0.438988
0.425254
-0.0982939
-2.04224
-0.793397
0.265964
-0.422954
-2.36769
1.11165
-1.01563
1.23118
0.414561
-2.80867
1.55736
-2.04058
1.14052
0.00800006
-0.772816
-0.236961
-0.78059
-0.518822
0.314252
0.84156
0.260151
-1.75795
0.262704
-1.08961
0.501419
-0.632155
0.533251
-2.60447
1.621
0.579485
-0.704895
0.474921
-0.23589
1.12088
1.35834
-1.84575
1.76755
0.859159
-0.293245
-1.45219
-0.532268
0.207682
0.0352857
-0.841938
0.555526
-1.47546
-0.720076
-3.83344
1.32434
-5.0183
-4.31276
-3.31521
-1.43581
0.806344
-0.686689
0.00685209
-2.24243
-2.01906
-1.1304
-3.46908
-2.69382
-3.53154
-1.5823
-4.01722
-2.29864
-1.5252
-0.351546
-1.27232
-5.1884
-3.78096
-0.646788
-1.50965
0.202715
-0.923215
-0.228175
-1.21824
0.0381184
-1.34905
0.121196
-0.0424458
-1.26226
0.0724818
-3.48303
0.318898
-4.34427
-0.813467
-1.66918
-1.02384
-1.9491
-1.74367
-4.64586
-2.58576
-1.90844
-1.15133
-1.17997
-0.16072
-1.78429
-4.92756
-1.6745
-2.49045
-2.06005
-3.79118
-0.472267
-2.1746
-2.27341
-0.895563
0.928158
-2.45113
-3.29407
-3.45958
-4.90317
0.947468
-2.10905
0.144518
-0.632019
0.959656
-1.56426
-1.36574
-0.291171
-1.40137
-1.64701
-2.61246
-1.65313
-0.65778
0.146169
-2.95276
0.592985
-2.25892
-3.79149
-2.61127
-1.25195
-1.54564
-1.39233
-0.549247
0.763349
-0.223991
1.38856
1.08594
-0.0947318
-1.59148
-1.26156
-1.98161
-0.69572
0.17068
-1.59302
0.257379
-0.474891
0.0758896
-1.83016
-0.426694
-2.97755
-0.614528
0.478649
-0.259724
-0.805976
-0.174314
1.95885
-1.65074
0.101252
-0.0593233
-0.594871
-0.866748
-2.7818
0.563884
-1.11463
-1.23087
-1.44462
-1.40961
-2.45864
1.05621
-2.04282
-2.1982
0.200555
1.40781
0.220865
1.37047
1.25396
-0.984176
-2.00497
-0.3721
-0.820242
1.97912
-2.09849
-1.10571
-1.23057
-2.11549
2.27339
-2.43085
-1.5458
0.12663
1.31996
-0.284302
0.679963
2.01427
0.941844
0.546928
-0.320077
1.70037
0.105587
-0.36787
-0.348978
0.438007
1.51734
-1.10108
0.5472
-0.445574
-0.217982
-1.24553
0.342732
-3.8221
-3.91735
-2.55097
-1.19526
-0.47867
-0.996505
-0.591438
-1.6655
-2.12304
-1.36046
-3.26734
-1.49449
-3.06083
-1.87805
-1.56181
0.464723
-0.580975
-0.252463
-2.29547
-1.09801
-4.69984
-4.97627
-3.46595
-0.386128
-1.10909
-2.35298
-2.40151
-1.40056
-2.9574
-1.47968
-3.32608
-0.149863
-2.61017
-3.82597
-0.498221
-2.09782
-0.509325
-2.14362
-3.55848
-3.23242
-2.09162
-3.40035
-2.98831
-0.681938
-2.18978
-1.50377
-0.793206
-2.30064
-1.55372
-1.03532
-0.529171
-1.18277
-0.761393
-3.20462
-0.398608
-1.9284
0.650165
-4.10907
-1.1197
-5.6548
-2.00771
-0.292044
-2.78718
-0.773729
-2.36311
0.620849
-1.72049
-1.46201
-3.36275
-0.82402
-2.71999
-0.726363
-3.60136
1.91755
-0.079607
-2.06081
-2.39882
-0.706705
-3.93839
-2.35657
-1.98052
-1.40902
0.0705754
-2.86924
1.42636
-0.0217373
0.429921
-2.48118
0.673934
-0.795737
-0.0611284
-3.35815
-2.17829
-3.24942
-1.82788
-1.62297
0.209497
-3.00459
-0.171318
-1.7313
-2.49869
-1.81507
-1.37733
-3.00732
-1.91536
-0.84079
-2.2178
0.0415148
-0.930254
-2.31139
-1.08772
-0.492004
-0.588043
-0.549706
0.211799
-0.0720123
-0.995714
1.15324
-1.19709
-3.7701
-1.35146
-2.38659
0.843734
-0.389597
-0.610377
0.838899
1.17663
-2.38819
1.33145
2.35644
1.47805
0.300387
-0.551507
0.611727
-1.9076
1.13928
-1.99776
-1.8282
2.01531
0.307955
-1.91622
-0.350322
0.785127
0.2509
1.8693
1.61444
1.28122
-0.0750213
0.106077
0.809948
0.111388
1.46125
-1.48499
0.190248
-0.090746
-1.55525
-0.972667
0.216976
-1.33702
-0.916743
-5.24833
-2.47033
-2.36081
-3.36136
-0.918296
-0.269022
0.190823
0.757181
-1.40186
-2.27255
-3.23485
-1.54542
-2.53346
0.171011
-1.99495
-1.11206
-1.72645
-0.0725267
-3.12532
-5.77742
-5.70324
-0.133831
-5.2104
-0.0651791
-1.45741
-0.135799
-3.25676
0.502417
-2.32012
-0.333216
0.231881
-2.95038
-0.105865
-0.538494
-0.663311
-2.21491
-0.134069
-2.08208
0.27775
-4.60408
-4.14125
-2.89489
-2.07151
-0.433158
-0.176338
0.479988
-0.957706
2.69777
-1.7425
-1.37798
-1.62703
-5.11253
-2.52871
-1.01489
2.5716
-0.0706742
-0.184898
-1.24127
-1.63445
-3.35886
-4.04918
-2.60351
-1.94306
-0.199698
-1.43408
1.65543
-0.752284
-4.02507
-1.51428
1.44002
-2.21819
-1.79491
-1.90211
-0.975725
1.60963
-0.58336
-1.04679
-1.51363
-3.61893
-3.35223
-2.59523
-0.552876
0.184638
-3.99455
-0.130245
-0.788773
-0.135275
0.195838
-1.0673
-0.233306
-1.47217
-1.33052
-1.98805
-0.432361
-1.4284
-0.667998
-1.90263
-0.601687
-0.660132
-1.45147
-3.23914
-1.1081
1.61376
0.566804
-1.17609
-1.36308
-0.991633
-0.693689
-1.3002
-2.66783
-0.815532
-1.20249
-1.99921
0.430176
0.148508
-0.889783
1.35327
-1.17565
0.358697
0.18204
-0.776946
-0.361316
-0.0639995
1.16203
1.80774
-1.81818
-0.715871
-0.48507
-0.637481
-0.664894
-1.2613
0.0414991
-0.562079
0.174684
0.873974
3.10938
-1.18611
-1.10498
-0.0946836
-0.720954
0.315169
-1.39691
0.129521
0.448539
0.920397
-4.7855
0.425836
-0.909668
1.31482
-0.523075
2.04311
1.72163
1.46666
1.1358
-0.109671
-1.69478
-1.96306
-1.6293
-0.694968
-0.667169
-4.94261
-5.969
-3.67825
-2.69266
0.657926
-0.775399
-0.817962
-0.318314
-1.99921
-1.20696
-1.31256
-0.699374
-0.930045
1.51656
-2.68744
-1.74504
-2.42841
-3.06259
-2.41891
-3.96051
-2.97331
-3.50124
-2.58572
-1.06483
0.861646
-2.42834
-1.09989
-2.07083
0.102524
-1.00801
-1.47348
-0.184063
-2.47688
0.930712
-2.81795
-1.9773
-1.10318
-0.345755
-3.1796
-4.5528
-3.80542
-2.67004
-4.14463
-0.845633
-2.41772
-0.19234
-0.608904
-0.452912
0.0316337
-1.8678
-0.796181
-1.10003
-0.680026
-1.17089
-2.95093
-0.2075
0.711847
-1.98566
-0.484016
-0.63069
-3.07383
-2.34238
-0.962264
-3.49299
-4.28586
-0.506207
-2.30226
-0.468221
-0.964407
-0.400861
0.0300066
-0.384747
-1.17555
-1.15418
-3.15736
-2.26156
-0.556586
-1.12252
-1.47033
-3.0943
-1.88436
-2.1763
-2.75617
-1.35855
-1.44537
0.0385379
-0.691791
-0.0848362
-1.30112
0.415687
-2.99156
-2.46457
-1.13495
-0.644698
-1.19536
-1.3915
-0.30736
-2.2476
-1.01326
-1.95437
-1.09253
-1.36102
-1.45158
0.0808077
0.152987
-0.626622
-1.06509
-0.224805
-2.05859
0.0964717
1.21937
-0.817657
-1.55855
0.00264423
-0.800279
0.36856
-0.433976
1.45712
-1.85257
-2.14871
-1.61081
-2.14492
1.69286
-2.65587
1.17494
-2.98807
-0.548451
-0.163364
-1.65788
-2.7807
-0.434837
0.644247
0.639117
0.358212
0.738088
1.09377
2.97603
-0.642265
-0.277164
-1.30797
-0.794056
-0.132181
-1.7898
-1.62732
0.897775
1.38561
1.62492
-0.483733
-0.577144
-1.04614
0.291976
-0.498107
0.68822
-0.494109
0.73897
0.966903
-0.595595
0.224374
-1.87937
1.56836
-4.97397
-2.1088
-3.04282
-2.3327
0.597315
0.946089
-1.2557
-1.98603
0.580284
1.06196
-3.5441
0.432416
0.154612
-2.73365
-2.3653
0.678544
-1.74185
-2.65558
-0.871725
-2.60062
-3.589
-0.25624
-4.27819
0.111157
-1.4485
0.021687
1.31945
0.160602
0.832027
-0.608072
0.408817
1.28213
-0.174074
-0.862064
-0.516094
-0.519726
0.0804307
-0.40793
-0.335649
-3.51914
-5.45515
-1.16284
-2.78919
-2.46358
-0.685831
0.783421
1.36193
0.294272
0.194942
-1.73826
-1.99831
-2.98206
-0.301381
1.22543
-0.621566
-1.86749
-0.734045
-1.85879
-4.48167
0.0459654
-2.51668
-1.95836
-2.25499
-3.40959
0.00873446
-0.984166
0.536253
-1.0354
-0.444118
-1.76325
-0.690491
-0.878479
-2.42483
1.53619
0.882449
-0.077528
-1.99307
-0.956506
-1.00604
-3.46072
-0.532141
-0.457249
-2.64943
2.55282
1.10551
-0.469376
0.944795
-0.0603852
-0.0441855
0.440022
0.792103
0.104085
-0.474328
-0.388563
0.834686
-1.92202
0.276879
-1.47852
0.232359
-0.563383
-1.13531
0.20774
-2.19859
0.521746
-2.04114
0.267558
1.18937
0.758898
-0.19062
1.5144
-1.82633
-1.21897
-1.37434
-1.05108
2.56056
-0.701613
-0.230834
-0.109616
-0.17445
-1.88248
-1.18074
0.325543
-0.69982
0.275658
-0.0268402
-1.25137
2.05698
1.17011
0.769215
-1.22728
-1.72999
0.73237
0.2384
0.0271285
-0.46529
1.68352
0.222953
-0.059195
0.134391
-0.508116
-0.756786
-1.17466
-0.235813
1.53926
0.0521794
-0.00656255
-0.101729
-0.771995
0.179464
3.58929
-1.54612
0.933101
-0.203984
-0.781646
-1.34956
0.542618
-0.240345
1.32979
-1.59443
-1.56995
-3.9733
-2.61981
-1.77516
-2.54106
-1.36976
1.46934
1.17987
1.42695
-0.264656
1.94769
2.47554
1.79412
-1.23943
-0.595052
-0.227015
1.10605
-0.961091
-1.46301
-0.647356
-1.50163
-3.69281
-2.99215
-1.09656
1.52026
0.79237
0.72886
0.0398047
1.58228
-1.9461
-0.801393
1.05957
0.248052
-1.45329
2.11569
-1.03921
2.09035
1.49724
-0.202546
-2.19306
-3.42907
-4.14384
-2.84028
0.735347
0.331505
0.45472
1.80556
2.78418
0.937426
1.64859
0.0220997
0.0166432
2.94164
0.398528
0.318185
0.278483
1.89178
0.738202
-0.311111
-0.515135
-2.25608
-1.31823
-3.53696
-1.32219
-1.74921
0.934223
-0.274136
-0.636859
0.47119
4.1477
0.574496
-0.851588
-0.243495
-2.33982
0.822896
0.871835
0.585829
1.23119
-0.457125
-0.187908
-0.837013
0.246084
-0.519249
1.01951
-0.682076
-0.274394
2.02431
-0.107799
1.38158
0.892742
-2.15878
0.765501
0.835988
-0.666968
1.21209
3.44741
-0.623418
-0.224296
-0.29373
-1.32744
0.277457
-1.15027
-1.49216
-0.800875
0.589253
1.52043
1.95849
-0.122665
-0.400984
-0.205148
-0.265213
0.461973
-0.189344
-0.824128
-1.26209
1.5223
0.719531
2.11269
2.01868
0.066442
-1.80395
-0.672944
-0.672628
-2.25538
0.572929
2.02029
0.0160836
0.332152
-0.665962
-0.248463
-1.4859
1.33771
-0.815896
0.952812
1.70347
-0.460781
-0.0774225
1.28524
1.04758
0.887447
-0.57212
0.863398
0.620071
0.426456
0.193409
-0.60781
0.850357
-0.0332606
2.12639
0.506337
-0.357051
1.15643
0.75504
-1.40092
1.01369
2.21195
1.17994
0.188339
0.914691
0.837437
-0.0122493
-2.77575
-4.40214
-2.50736
-0.69372
-0.11946
1.52971
-0.0508811
1.72026
2.43124
2.7251
0.450693
1.3688
1.95797
2.2789
2.30003
1.37021
-0.114829
1.15737
1.34728
-2.65866
-3.55444
-0.551736
-1.74585
0.185088
1.57499
0.294193
0.458269
0.386263
3.18899
0.560879
0.351179
0.235279
0.157694
1.72952
-0.65047
3.48565
-0.526963
2.67714
-0.00492341
-1.09584
-1.93629
-0.996539
-1.02096
1.15669
0.74681
-1.88135
0.839562
-0.309082
-1.61637
2.35679
1.94262
1.07636
1.96311
0.83415
1.3984
2.99197
-2.05647
2.69988
-0.584625
-2.47069
-0.951327
-3.90735
0.601584
-1.1206
1.85602
0.236371
1.24278
1.82985
2.06712
1.90526
1.1378
0.517914
0.827833
0.46866
0.716471
1.69856
2.29145
-0.109468
2.02963
-0.656145
-1.86522
0.501157
0.267515
-0.939792
0.994783
2.8658
0.728352
-0.417506
0.350324
0.572752
1.72829
1.86224
0.30947
-1.1651
-1.44503
1.21696
-0.0101033
-1.26679
0.224717
1.6115
-1.34616
-1.40845
0.943782
1.944
0.730715
0.226666
0.898542
0.584448
2.16241
0.106521
0.793137
1.22935
0.140817
0.0691019
0.631943
0.987196
0.77647
-0.132989
-0.00606686
-0.636442
-1.70164
-1.30515
2.49333
-0.695079
0.526969
-1.63192
0.694123
1.19164
1.43492
0.403893
-0.70822
-0.119876
3.17162
0.404876
-0.0171893
-0.129129
0.0956494
0.383515
-0.273768
-1.52682
-1.68489
0.978086
-0.683294
1.27436
0.590555
1.36977
-0.246807
-0.999953
-0.593803
3.17874
0.277144
0.515333
0.179765
-0.239419
-1.0629
-0.00934888
-0.999464
-0.595739
1.02582
-0.699735
0.411637
-1.64671
1.59926
2.80663
1.29796
1.15998
2.42432
2.19552
2.87067
2.3168
4.15817
2.39823
3.05589
1.94125
4.31535
2.55008
3.3951
-0.458695
3.1673
-0.195175
-1.24132
-1.58926
-0.438224
-0.376852
2.21819
2.07014
0.319916
2.23588
0.696752
1.01661
2.62124
4.10327
3.74948
2.76035
3.17858
0.764033
0.611948
-1.24627
-2.04431
2.51314
-2.54925
-0.295486
0.330115
0.946705
1.49868
1.88071
2.24534
0.638495
1.46205
1.09939
2.11435
1.90158
2.5551
0.910078
0.726125
1.97891
2.39685
2.01559
1.14471
0.830046
-0.667523
-0.345642
0.0180706
-2.4149
1.33859
0.901541
2.30522
0.426316
0.73745
1.46844
1.48726
2.58181
3.21176
2.63839
3.11059
0.519399
0.653549
0.178655
0.670636
0.268586
-0.310946
-0.341158
0.550384
2.02099
1.55093
2.53862
1.39477
1.76123
1.09584
1.20525
0.597479
1.12289
1.61015
2.69645
0.084983
0.230741
-0.895045
0.650418
0.341246
0.81071
2.27743
0.385323
1.96763
-0.21944
1.53612
0.431441
-0.494571
-0.207887
0.788369
-0.943668
1.68945
0.596946
1.3681
0.882867
1.42615
2.20665
1.75189
2.1036
-1.31675
-0.290647
-0.649929
-1.53608
-0.497697
0.629944
2.7014
1.44938
2.26994
0.514935
-1.76979
0.101914
-0.0444764
-1.07598
2.80811
-3.10412
-0.0691991
1.23888
2.11879
-0.449892
-1.90908
0.320345
-0.457445
0.0393164
1.1467
-0.159682
-0.301524
1.85855
-2.5084
-0.927593
1.88049
0.355387
1.2623
0.454778
1.09815
1.433
1.28938
2.38394
-0.959689
-0.573463
-1.22065
1.22083
0.0884922
-0.770008
2.92238
3.3939
0.861742
2.63959
6.4364
2.89973
4.55715
5.12968
4.34252
5.0247
2.72801
3.61492
5.79298
3.14897
0.632293
2.26348
2.85151
-0.729271
2.17927
0.309757
2.83188
0.777857
3.34149
0.228028
5.34343
-0.269113
3.12405
0.322389
0.119143
3.18576
0.728676
2.59688
0.674215
4.75013
0.247677
2.96645
-0.0315593
-0.210342
0.841627
0.726079
0.8705
-0.33628
2.22197
4.82569
1.67046
2.16254
3.31241
4.51805
3.04127
2.09434
1.04495
3.99123
3.8847
-0.840998
3.54442
2.02843
2.98676
-1.3579
-0.647907
-0.82765
0.493514
0.0673139
1.10519
3.40818
2.74815
0.811812
-0.488761
1.17782
3.28702
3.07786
3.90043
1.24082
2.12511
1.99476
2.74122
0.873736
-0.265233
1.06103
-0.957509
0.739493
-0.776121
1.91362
-0.543487
-0.164581
1.13389
0.138568
2.13313
2.18443
0.32099
1.36227
4.29893
0.660929
2.64272
1.45155
2.63167
0.641054
0.499309
-0.203171
0.905513
-0.270331
-0.0497252
1.96621
0.704272
1.3232
0.806043
0.687309
0.759199
0.343667
4.44606
2.49468
1.44269
-1.56134
1.41149
0.745964
0.970195
-0.915581
1.48054
0.818275
-0.518791
0.255426
2.93497
-1.29129
0.658719
2.4243
3.40883
0.321516
1.21675
2.02233
2.0548
-1.03482
0.946119
2.08118
-1.26251
2.04178
1.96267
-0.0620908
-1.223
0.47897
-1.10931
1.60244
2.11104
0.213729
-1.49952
0.861439
0.354615
0.275167
1.44246
-1.43194
-0.194838
0.713182
-0.0700857
0.072736
1.38481
1.29211
1.4703
1.82457
0.266442
0.294035
3.04794
2.72604
0.583188
2.55035
3.72443
5.21772
3.73691
5.16813
4.97082
3.74808
3.68426
4.59558
4.12212
5.57236
6.14911
5.62752
4.51917
5.02425
2.78085
2.46298
0.33994
-0.502897
1.28628
3.15119
3.43576
2.12835
2.81688
5.7745
4.38805
2.25189
4.33342
4.61888
5.51232
2.45111
4.95058
3.42579
2.9713
3.88623
3.65914
1.39618
-0.824811
0.559409
0.202853
2.84874
1.57616
5.30438
2.41315
5.79632
6.32813
4.1537
1.7198
4.36561
3.12342
2.47129
2.25996
5.31907
2.47039
1.50625
1.4015
0.609386
-1.27765
0.152968
3.08792
1.54712
4.27497
1.23665
4.59694
3.21837
2.67585
0.912509
2.24149
2.41331
4.35362
4.97995
0.197229
2.09851
3.23919
2.0164
1.2195
2.87369
0.459094
1.60314
0.366086
5.3267
1.64163
2.86996
2.16536
4.1374
2.19509
1.424
2.64402
1.45109
1.02854
4.76537
-0.146953
1.39909
1.02468
3.05056
0.738971
1.89673
-0.324588
-1.42537
1.4561
1.85621
1.18029
-0.950472
1.72753
2.40114
0.880766
2.4049
1.82982
-0.509037
2.6049
3.46313
2.19329
1.75231
2.55386
2.58886
2.69311
0.0908553
-0.177876
-0.233449
-0.78245
0.982474
1.51341
0.335424
0.14487
-0.540913
1.54783
0.616639
0.725099
4.17863
-0.625437
1.69192
-0.381682
0.542396
-0.318743
0.555955
0.241527
0.369954
0.52039
-1.24908
0.734685
0.553065
1.67105
-0.811363
1.57433
0.727877
0.143585
-1.48418
0.325233
0.114752
0.514752
2.87463
2.70878
0.413299
-0.815496
-0.454829
-0.550379
-0.711107
)
;

boundaryField
{
    hotSide
    {
        type            calculated;
        value           nonuniform List<scalar> 
400
(
0.383663
0.0616321
-3.44935
-3.09959
-3.73925
-2.44624
-4.06127
-3.00025
-3.35082
-2.36508
-3.91834
-2.69382
-4.08859
-3.74819
-3.74157
-2.69956
-1.45725
1.77834
1.50689
4.52153
-1.5537
0.850917
1.68966
1.49345
1.01113
0.856754
-0.787633
-0.545698
-2.86298
-2.06146
-3.19286
-2.7705
-1.29336
-4.75863
-0.861673
-1.3325
-3.07117
-0.268561
0.658876
4.20925
2.09412
2.18258
2.67051
0.323243
1.83932
1.603
-1.04348
-0.887132