/*--------------------------------*- C++ -*----------------------------------*\
| =========                 |                                                 |
| \\      /  F ield         | OpenFOAM: The Open Source CFD Toolbox           |
|  \\    /   O peration     | Version:  2212                                  |
|   \\  /    A nd           | Website:  www.openfoam.com                      |
|    \\/     M anipulation  |                                                 |
\*---------------------------------------------------------------------------*/
FoamFile
{
    version     2.0;
    format      ascii;
    arch        "LSB;label=32;scalar=64";
    class       volScalarField;
    location    "0";
    object      relativeErrorField;
}
// * * * * * * * * * * * * * * * * * * * * * * * * * * * * * * * * * * * * * //

dimensions      [0 0 0 1 0 0 0];

internalField   nonuniform List<scalar> 
3200
(
0.00169112
0.00737089
0.00306865
0.00803662
0.0112702
0.00937595
0.0157269
0.0139463
0.00676336
0.0106995
0.00943066
0.00836926
0.00626892
0.00700741
0.00758717
0.00348728
0.00487304
0.00592644
0.00135563
0.00283346
0.00739195
0.00293478
0.00666037
0.0136989
0.00872192
0.00890334
0.00454797
0.0103996
0.00767677
0.00834649
0.00669297
0.00550472
0.0104286
0.00983359
0.0060478
0.00492912
0.00145526
0.00479682
0.00280394
0.00403261
0.00480836
0.0066984
0.00172389
0.00301336
0.00232608
0.00616411
0.0138675
0.00592879
0.00848564
0.00152913
0.00207386
0.0104999
0.000508911
0.004563
0.00727201
0.00077933
0.000532249
0.00803187
0.000542787
0.00196489
0.00572235
0.00137157
0.00877465
0.00351979
0.00303792
0.00325805
0.0114384
0.0113997
0.0013594
0.00814675
0.00624821
0.00581705
0.00104158
0.00190658
0.00372339
0.00594081
0.00368472
0.00338586
0.00173365
0.00182973
0.00219852
0.0022386
0.00141357
0.00385931
0.00114137
0.00577843
0.00862982
0.00559178
0.00688059
0.000137108
0.00292904
7.18607e-05
0.00647774
0.00466675
0.00722313
0.00622288
0.00559009
0.00335922
0.00140637
0.00363811
0.00732899
0.000206605
0.00561871
0.00216278
0.00285429
0.00129961
0.00553389
0.00870759
0.00100107
0.00440575
0.00485895
0.00642476
0.000210352
0.00499192
0.00247938
0.00356897
0.00157687
0.00129827
0.00396719
0.00104839
0.00887396
0.000190847
0.00408521
0.000379496
0.00212448
0.00150698
0.00273991
0.00354095
0.0028095
0.00305069
0.00487035
0.00382628
0.00645068
0.00195773
0.00179999
0.0046174
0.000499825
0.00208934
0.00286471
0.000323981
0.00561127
0.00366395
0.00230627
0.00254164
0.00358699
0.00502171
0.0100975
0.00695184
0.00394876
0.000117567
0.000905471
0.0107199
0.00409717
0.00346834
0.00304198
0.0014329
0.00337132
0.00201483
0.00130182
0.0055585
0.00262803
0.000429774
0.00331734
0.00908578
0.0103488
0.0141027
0.00709567
0.00759664
0.0126064
0.00529822
0.0139499
0.00870756
0.00859486
0.00580329
0.00982222
0.00917074
0.00352382
0.00264586
0.00160718
0.00504933
0.00849143
0.0010523
0.00435902
0.000647507
0.00807316
0.00105507
0.0109472
0.000978597
0.0101997
0.00161716
0.000428942
0.0104984
0.000211237
0.00455029
0.00131782
0.0068373
0.00104276
0.0080085
0.000898047
0.00384307
0.00706492
0.00929301
0.000386945
0.00557356
0.0108315
0.0078846
0.00841876
0.0113382
0.00624757
0.000314653
0.00046191
0.00365354
0.00534104
0.00260107
0.00916893
0.0127607
0.003133
0.00317729
0.00376345
0.00742777
0.00495277
0.00590125
0.00713355
0.000521523
0.00985766
0.010237
0.00732044
0.00621491
0.0118126
0.00467597
0.00633958
0.00875193
0.00075177
0.00124969
8.22551e-05
0.00495536
0.00283295
0.00268279
0.00936261
0.00629897
0.000809513
0.000849478
0.00661261
0.000182644
0.000204736
0.00785045
0.00501454
0.00847029
0.00300001
0.000658041
0.0042093
0.00131286
0.0030637
0.00140401
0.00150756
0.00216356
0.00324676
0.00155533
0.00574732
0.00505324
0.000424178
0.00600738
0.00211894
0.00792124
0.00112722
0.00294886
0.00560099
0.00293446
0.00370886
0.00974986
0.00421392
0.00115466
0.00793597
0.00882499
0.00595768
0.00303152
0.00720495
0.00717998
0.00821132
0.0020899
1.26823e-05
0.00545075
0.00604368
0.00345451
0.000239716
0.00175676
0.00268727
8.17275e-06
0.00139486
0.00144425
0.00614654
0.00121221
0.0108088
0.00031192
0.00595503
0.0120771
0.00441435
0.00418922
0.00527528
0.00303386
9.22619e-05
0.000349083
2.54872e-05
0.000846787
0.00211994
0.00215433
0.00412899
0.00745243
0.00249164
0.000480697
0.00822772
0.00611818
0.00572046
0.00614634
0.00254432
0.00414538
0.00091078
0.000143163
0.0040186
0.00649681
0.0127825
0.00197882
0.00470946
0.00803353
0.00365322
0.00917728
0.0146505
0.0106209
0.00385602
0.006463
0.00331679
0.00224165
0.00299336
0.00729055
0.0023061
0.00223884
0.00148369
0.00148133
0.00353298
0.00637535
0.00759045
0.0011229
0.00614183
0.00447938
0.00736206
0.010212
0.00454783
0.0018351
0.00805736
0.0121613
0.00147573
0.00862738
0.0110014
0.00483211
0.0053133
0.00422139
0.00797667
0.00740919
0.00371386
0.00488703
0.0129219
0.00634008
0.00331164
0.00869682
0.00897192
0.00901182
0.000347271
0.0104827
0.00618396
0.00357205
0.0056116
0.00238775
0.00556998
0.00871188
5.79068e-05
0.00663174
0.000185526
0.0017226
2.30201e-05
0.00188876
0.000181461
0.00140453
0.0028817
0.00579233
0.000942245
0.00802073
7.39944e-05
0.000985166
0.00163697
0.00532743
0.00272769
0.00186446
0.00767256
0.00190425
0.00335778
0.0017292
0.00141112
0.00386609
0.00421753
0.00628361
0.000605097
0.00284148
0.00147529
0.00324283
0.0108256
0.002601
0.00101522
0.00659488
0.00461716
0.00436263
0.0030411
0.00113785
0.00283791
0.00829832
0.00193365
0.00286838
0.00210346
0.00183106
0.00544962
0.000152394
0.00282345
0.00338603
0.00231123
0.00623142
0.00371239
3.25859e-05
0.00595375
0.00689843
0.00840127
0.00756627
0.00571794
0.00743754
0.00437285
0.00196338
0.00424181
0.000745823
0.00164874
0.00133689
0.00210579
0.0010849
0.004654
0.00155957
0.00701066
0.00417304
0.00601953
0.00481121
0.00824339
0.000532366
0.00550822
0.00152954
0.00230659
0.000583956
0.00270296
0.00465777
0.00161204
0.00420276
0.00320434
0.000453144
0.00142576
0.0018755
0.0103037
0.00242041
0.00158426
0.00251647
0.00365608
0.000839738
0.0120273
0.00181598
0.00234549
0.00374411
0.00343971
0.00276903
0.00402966
0.00589242
0.00410486
0.00420923
0.00347024
0.0041098
0.00129919
0.00119126
0.0117748
0.00139335
0.00206184
0.00503962
0.000377116
0.0133896
0.00384261
0.00483388
0.00272578
0.00241555
0.00476085
0.00390781
0.00258846
0.0058529
0.00767936
0.0081366
0.0044849
0.00813976
0.00180381
0.00519474
0.00720791
0.000293726
0.00278801
0.00215314
0.00670767
0.000457863
0.00021865
0.000805203
0.00422798
0.000185029
0.000296669
0.0024018
0.00111509
0.00890528
0.000127669
0.0071265
0.000306833
6.87093e-05
0.000807866
0.000959795
0.00517499
0.00405323
0.000454708
0.00422547
0.00197603
0.00448481
0.00720795
0.00545848
0.00312607
0.00526783
0.00158989
0.00661969
0.00431031
0.00219822
0.0079581
0.00364239
0.00221615
0.00137163
0.0036904
0.00884776
0.00634542
0.00798316
0.00601523
0.00525278
0.00380066
0.00859897
0.0043945
0.00178311
0.00166439
0.00403607
0.00609778
0.000148288
0.00094987
0.00017742
0.00455157
0.000339505
0.00457341
0.0046815
0.0050529
0.014443
0.00540975
0.00035309
6.45287e-05
0.00847294
0.00124614
0.00206107
0.000143643
0.00456635
0.0021349
0.00380216
0.00978337
0.00173551
0.000223552
0.0053406
0.00155638
0.00269368
0.00285749
0.000949227
0.00110628
0.000790595
0.00284829
0.00442784
0.00162914
0.00506367
0.00596203
0.00271627
0.000205279
0.00309261
7.40312e-05
5.68966e-05
0.00262919
0.003337
0.00338202
0.00381298
0.00700489
0.00469295
0.00429728
0.000993094
0.00255487
0.00180519
0.00311724
0.00139852
0.00555622
0.00586203
0.00432072
0.000221791
0.00905645
0.00247424
0.00844606
0.00173732
0.000603349
0.0013419
0.00223999
0.00272102
0.00891801
0.00564274
3.06493e-05
0.00320382
0.00323344
0.0105585
0.00328635
0.00020549
0.00384257
0.0043203
0.00218177
0.00347673
0.00578417
2.57275e-05
0.00218282
0.0018767
0.00661566
0.00139575
0.00722019
0.000451082
0.00515579
0.000979145
0.00449795
0.00166233
0.000354357
0.00129772
0.0136209
1.99005e-05
0.00227308
0.00453664
0.00844113
0.00710977
0.00595904
0.00112473
0.00867531
0.00328265
0.000203208
0.00286869
0.00756832
0.00446848
0.00297433
0.0102121
1.974e-05
0.00316258
0.000556814
0.00214911
0.0100662
0.00143062
0.00221552
0.00359647
0.000670986
0.00957598
0.0013697
0.0021803
6.75937e-05
0.00532285
0.00174393
0.00423833
0.00036665
0.000169917
0.00404091
0.00415948
0.000174324
0.00392009
0.00795693
0.00774005
0.00817974
0.00289687
0.00183589
0.00208827
0.00357863
0.00796574
0.00262266
0.00853953
0.0031344
0.00451247
0.00161957
0.000922946
0.00413933
0.00030759
0.000267135
0.00334165
0.00110475
0.0048203
0.00718245
0.00128208
0.00757113
0.00298098
0.00142477
8.32759e-05
0.0085756
0.000692853
0.00210552
0.00100935
0.00371009
0.00298823
0.00267354
0.000391056
0.00171131
0.00278462
0.00397139
0.00179058
0.00119679
0.00521069
0.00627111
0.00514769
0.000775715
0.00158449
0.000281095
0.00618358
0.00454343
0.00574592
0.00329447
0.00590069
0.000897647
0.00171818
0.00439657
0.00271224
0.00235339
0.000830423
0.00324922
0.00331861
0.00309073
0.00696622
0.000685807
0.00513389
0.00590441
0.000409819
0.00016605
0.00322302
0.00537132
0.00268938
0.00111265
0.00162933
0.0013236
0.00526688
0.00631706
0.000789013
0.00256278
0.00906302
0.00367512
0.0025327
0.00107598
0.00122007
0.0051726
0.00737155
0.0012629
0.00846013
0.00181482
0.00190087
0.00365994
0.00677648
0.00708472
0.00362944
0.00114221
0.0037859
0.00992627
0.000636692
0.000287595
0.00718442
0.00672764
0.00216276
0.00999796
0.00199761
0.00109898
0.00834497
0.00367408
0.00773122
0.00435301
0.00351403
0.00221839
0.0079983
0.00498558
0.000492855
0.00361699
0.00086759
0.0047257
0.00225956
0.00364576
0.00258467
0.00100913
0.00517341
0.00350981
0.00183498
0.00291103
0.00793547
0.00990717
0.000492945
0.00156447
0.00176716
0.000117899
0.00462143
0.000953383
0.00146053
0.00161378
0.00234729
0.00087935
0.00496124
0.0027595
0.00172747
0.00508179
0.000256689
0.000878338
0.000740124
0.00281055
0.00967899
0.0060072
0.00131245
0.00386714
8.6976e-05
0.00311245
0.000365809
0.0013503
0.00189821
0.0040193
0.000793289
0.000909494
0.00515315
0.00164199
0.00238213
0.00149925
0.00107663
0.00060392
0.00272249
7.98799e-05
0.0115102
0.00204631
0.00724311
0.00365249
0.00161108
0.00289134
0.00361615
0.00409963
0.00696386
0.00101547
0.00179859
0.0038429
0.00271872
0.00294577
0.00146107
0.00983389
0.000317584
0.00488243
0.000991944
0.00481252
0.00339955
0.00750749
0.00393268
0.00173433
0.0030878
0.000444421
0.00360467
0.000401135
0.00855044
0.00192404
0.00154853
0.00313845
0.00378181
0.00101926
0.000841635
4.0426e-05
0.00197555
0.0028153
0.00277417
0.00789039
0.00145261
0.00541864
0.00470022
0.00474206
0.0126183
0.00256613
0.00418622
0.00275265
0.00298112
0.00698866
0.00146719
0.00359341
0.000109489
0.00144435
0.00600103
0.00636215
0.00306259
0.00138035
0.00306883
0.00749328
0.00522507
0.00159133
0.000553491
0.00527765
0.0011647
0.00046522
0.00189105
0.00434778
0.000317248
0.00140154
0.00332637
0.00276901
0.00476363
0.00315855
0.0119584
0.00199625
0.00247706
0.00265015
0.00440098
0.00348678
0.00585527
0.00307859
0.000275455
0.00115631
0.00172913
0.00968692
0.00279535
0.00376823
1.41394e-05
0.00275214
7.59542e-05
0.00189244
0.000810481
0.000542349
0.0015472
0.000487438
0.000819376
0.00316872
0.00265504
0.000965835
0.00121034
0.00168276
0.00231128
0.00611026
0.00777216
0.00389862
0.00159348
0.001894
4.32841e-05
0.000674221
0.000483444
0.00353515
0.00742948
0.00359821
0.00592067
0.00841701
0.00176346
0.00221211
0.00390511
0.00643385
0.000745115
0.0145461
0.00523327
0.00603236
0.000630838
0.00574827
0.00237443
0.00509639
0.000559372
0.0021932
0.000597959
0.00793358
0.000546271
0.0064057
0.00628403
0.00105188
0.000638415
0.00316595
0.0125793
0.00921511
0.0107639
0.0122022
0.00441098
0.0013093
0.00316466
0.00291576
0.00158058
0.00424876
0.00447484
0.00275529
0.00201771
0.000596143
0.00200974
0.00478796
0.00166664
0.00333471
0.00382539
0.00292685
0.00594326
0.000789248
0.00331314
0.00529908
0.002876
0.000346365
0.00368747
0.00200241
0.00387407
0.00708726
0.00202033
0.00220209
0.00234311
0.00410062
0.01172
2.06023e-06
0.0039679
0.0018531
0.00152943
0.00280687
0.0066364
0.00869656
0.0116881
0.00626968
0.00335845
0.00262055
0.00106492
0.00113695
0.00715315
0.00103512
0.00359451
0.000764964
0.00212402
0.00406505
3.2364e-05
0.00326193
0.00225913
0.0031376
0.00104703
0.000987294
0.00160115
0.0027748
0.00114442
0.0082376
0.000486927
0.00624747
0.0059738
0.00271337
0.00241089
0.00140894
0.00221378
0.00393485
0.00619781
0.000198069
0.000317394
0.00194142
0.00438824
0.000857316
0.0030273
0.00404155
0.00426034
0.00477609
0.00605391
7.75939e-05
0.00245108
0.00345336
0.000557641
0.00423112
0.00127426
0.00916208
0.00186208
0.000652207
0.00295356
0.00392963
0.00149542
0.00134326
0.00278111
0.000766597
0.0036261
7.82285e-07
0.00203234
0.00406265
0.00374123
0.00335785
0.00139091
0.00452494
0.000873256
0.00618106
0.00195537
0.000299597
0.000679523
0.00469727
0.00122118
0.00396232
0.00479447
0.00553239
0.00414236
0.00297526
0.00372312
0.00294207
0.00153752
0.000161726
0.00133967
0.000311176
0.000203174
0.0034504
0.00207395
0.00694161
0.000646374
0.00802033
0.0052718
0.00125778
0.00256487
0.000911879
0.00457912
0.00584274
0.00295814
0.00157057
0.007364
0.00120072
0.0047888
0.00208197
0.000596521
0.011516
0.0045704
0.00560797
0.004043
0.000411402
0.00442086
0.0059407
9.74204e-05
0.00364639
0.000155094
0.00972627
0.00143618
0.000398051
0.0068277
0.0125672
0.00171704
0.00134563
0.00521657
0.00796894
0.0105999
0.00496207
0.00196143
0.00860858
0.000747585
0.00473875
0.000300078
0.00194976
0.00070147
9.7038e-05
0.000490941
0.00154075
0.0130003
1.56263e-05
0.00269484
0.000605931
0.00418217
0.00080557
0.00745813
0.000814714
0.00708191
0.0074218
0.00341402
0.00577591
0.00312135
0.00482928
0.00122768
0.00061589
0.00043084
3.15125e-05
0.00176894
0.000274839
0.00476089
0.00153558
0.00683465
0.00375955
0.00411776
0.00119891
0.00349661
0.00373541
0.0102067
0.000797521
0.00357134
0.00548232
0.00930852
0.00371475
0.00753184
0.00335088
0.00080088
0.00277867
0.00383271
0.00218927
0.00369056
0.00249622
0.00317452
0.000449308
0.00355338
0.00108501
0.000921888
0.00606918
0.0117835
0.0103154
0.000502604
0.00325357
0.00189084
0.000973209
0.00197321
0.000378151
0.00341747
0.00555607
0.00412129
0.00125515
0.00616711
0.00491846
0.00133227
0.00501264
0.00176655
0.006775
0.00208455
0.00695759
0.00561573
0.00726305
0.00201264
0.00253044
0.00255291
0.000234055
0.00234133
0.00428181
0.00502244
0.00260901
0.00187339
0.00512881
0.00262387
0.000446503
0.00205267
0.00076976
0.00859397
0.00131778
0.00249167
0.00394847
0.00437047
0.00419999
0.00171071
0.00284709
0.00287416
0.0114204
0.00163269
0.0060304
0.00624942
0.000581684
0.00153521
0.000632862
1.79045e-05
0.0058014
0.00340967
0.0018716
0.00263331
0.00188077
0.00307435
0.00835225
0.00745859
0.000290297
0.00781011
0.00548232
0.00883189
0.00647165
0.00970963
0.00082264
0.00471698
0.00169927
0.00511143
0.000396032
0.00321218
0.00434138
0.00512976
0.0014494
0.00401221
0.000519568
0.000121724
0.00211576
0.00129749
0.0125247
0.0111886
0.0111231
0.00122246
0.000530916
0.00397044
0.00137564
0.00140148
0.000446379
0.00821663
0.00706942
0.010681
0.00509093
0.00291055
0.00313393
0.00380451
0.0023469
0.00325334
0.0205285
0.0187743
0.00790255
0.011597
0.00567844
0.00169057
0.000130673
0.00355716
0.00166587
0.00823707
0.00147747
0.00661696
0.00354346
0.00504515
0.00194248
0.00434144
0.00135096
0.00783462
0.000494218
0.00672313
0.00710767
0.0128442
0.00904406
0.00732255
0.00764714
0.000799584
0.000632861
0.00232372
0.0047123
0.00385094
0.00221265
0.00283786
0.00859578
0.00574346
0.000252867
0.00208754
0.00110336
0.00288112
0.0100023
0.0056723
0.00380405
0.0130865
0.00934682
0.0110223
0.00178886
0.00333429
0.00262451
0.00411203
0.000247379
0.00132788
0.00181012
0.000558978
0.00294656
0.0108188
0.00265208
0.00793046
9.01114e-05
0.00173203
0.00329992
0.00139515
0.0124675
0.00775458
0.00571622
0.00452935
0.00454964
0.0075042
0.003927
0.00315671
0.00614133
0.00306364
0.00499449
0.00139691
0.00503015
0.00259656
0.00369851
0.0017438
0.00243328
0.00382792
0.00673116
0.00586976
0.000855362
0.00649867
0.00376099
0.00170458
0.000604041
0.000664678
0.00087151
0.00147816
0.00373155
0.00330739
0.000581235
0.00941079
0.00620939
0.00495957
0.0114221
0.00180253
7.28108e-05
0.00219452
0.00538927
0.00175721
0.00513368
0.00535645
0.000830776
0.00560047
0.00115608
0.00417321
0.00283111
0.00197265
0.0051987
0.00222156
0.00610401
0.00395341
0.00896916
0.00243441
0.00283808
0.00212004
0.000762741
0.000225764
0.00813289
0.00377839
0.00262078
1.09223e-06
2.59335e-05
0.000209799
0.000728139
0.000458755
0.00117637
0.00424806
0.00426068
0.00389726
0.00237367
0.00211575
0.000753571
0.00260318
0.00523729
0.00180417
0.00369369
0.00105206
0.00681825
0.00414131
0.00238436
0.0032184
0.00974231
0.00893309
0.004412
0.000102371
0.00242483
0.00120478
0.00372695
0.0042284
0.00065438
0.00700478
0.00450364
0.00703301
0.0109476
0.00881985
0.00742751
0.000503695
0.0100934
0.00318861
0.00688955
0.00950422
0.0107752
0.00128924
0.00440288
0.000623689
0.00218622
0.000667215
0.00156123
0.0010517
0.00270252
0.00262105
0.00181216
0.0102185
0.00127203
0.007884
0.00145526
0.000969651
0.00193873
0.00230323
0.000106802
0.0108514
0.011775
0.00592438
0.0127415
0.00482629
0.0040769
0.00492784
0.00585226
0.00277665
0.00603933
0.00903517
0.00715455
0.00773957
0.00611048
0.00310436
0.000298168
0.00379335
0.00490648
0.000466618
0.00552111
0.00550157
0.00749183
0.010047
0.00227305
0.000403702
0.000259013
0.00153283
0.00818867
0.00228273
0.00161179
0.000668253
0.00689678
0.00769506
0.0028293
0.00841656
0.00619204
0.00468017
0.00609227
0.0056263
0.00793145
0.00241406
0.00161718
0.0120029
0.00255765
0.00342695
0.00449953
0.00543235
0.00350779
0.00693744
0.00196781
0.00406807
0.00658198
0.00425465
0.0101336
0.00671535
0.00098944
0.00628632
0.00361462
0.0031787
0.00173726
0.00186375
0.0109439
0.00751158
0.00255912
0.00409199
0.000232856
0.00153621
0.00322165
0.00463591
0.0013764
0.00133315
0.000308147
0.0064032
0.00248825
0.000834423
0.00132755
0.00743529
0.00349278
0.00319277
0.00387225
0.00130433
0.00903929
0.00501102
0.00656385
0.0036675
2.5717e-05
0.00248353
0.000761292
0.00250726
0.00166619
0.00100913
0.00270244
0.000835472
0.00564655
0.000843995
0.00350158
0.00161186
0.00203278
0.00171529
0.00838023
0.00521693
0.00190875
0.00232166
0.00156405
0.000776767
0.00369057
0.00447193
0.00607602
0.00581816
0.00282789
0.000965176
0.0047797
0.00175194
0.000683617
0.000116157
0.00277184
0.0018291
0.00485857
0.00237142
0.0126259
0.00436222
0.0141453
0.0121444
0.00932378
0.00403285
0.0022619
0.00192389
1.91765e-05
0.00627013
0.00564197
0.00315769
0.00969063
0.00752748
0.00987465
0.00442828
0.011255
0.00644798
0.00428393
0.000988696
0.00358275
0.0146247
0.0108786
0.00185932
0.00433507
0.00058144
0.00264499
0.000653008
0.00348308
0.000108898
0.00385184
0.000345942
0.000121157
0.00360403
0.000207069
0.00995837
0.000912648
0.0124462
0.00233324
0.00479315
0.00294324
0.00560794
0.0051237
0.0136417
0.00758547
0.00559295
0.0033708
0.00345141
0.000469711
0.0052111
0.0143842
0.00488684
0.0072681
0.00601354
0.0110723
0.00138022
0.00636069
0.00665593
0.00262457
0.0027228
0.0071973
0.0096795
0.0103881
0.0147139
0.00284102
0.00631881
0.000432624
0.00189051
0.00286853
0.00467312
0.00407838
0.000869309
0.00418387
0.00491829
0.00780452
0.00494141
0.00196756
0.000437565
0.00884659
0.00177809
0.00677878
0.0113847
0.00801676
0.00384174
0.00474001
0.00426702
0.00168215
0.00233641
0.000685195
0.0042457
0.00331933
0.000289513
0.00486379
0.00385613
0.00605903
0.00212823
0.000522406
0.00487886
0.000788779
0.00145635
0.000232875
0.00561869
0.00134012
0.00934841
0.00192851
0.00150137
0.000814279
0.00252572
0.000546033
0.00613398
0.00516795
0.00031695
0.000185699
0.00186235
0.00271415
0.00871391
0.00176707
0.00349455
0.00386085
0.00453351
0.00442566
0.00772185
0.00339554
0.00656594
0.0070634
0.000644243
0.00452099
0.000709076
0.00439873
0.00402395
0.00315775
0.0064325
0.0011938
0.00263177
0.00635095
0.00673542
0.00354981
0.00395181
0.00679561
0.00730502
0.00781313
0.00496947
0.000416946
0.00434584
0.000935946
0.00223827
0.00662981
0.0030997
0.00179984
0.00105324
0.00559494
0.000347417
0.00121041
0.00114828
0.0014413
0.00499329
0.00362376
0.00180106
0.00146672
0.000717614
0.00410079
0.00112849
0.0107169
0.0109738
0.00713795
0.00334049
0.0013362
0.00277864
0.00164753
0.00463574
0.00590587
0.00378342
0.00908638
0.00415737
0.00851949
0.00523156
0.00435493
0.00129727
0.0016237
0.000706423
0.00643038
0.00307874
0.0134594
0.0142396
0.00990786
0.00110263
0.00316381
0.00670554
0.00683787
0.00398499
0.0084104
0.00420688
0.00945641
0.000426187
0.00742669
0.0108938
0.00141983
0.00598427
0.00145443
0.00612782
0.0101826
0.00925703
0.0061214
0.00994482
0.00873215
0.00199087
0.00638712
0.00438243
0.0023099
0.00669559
0.00451983
0.00301108
0.00153902
0.00344071
0.00221589
0.00933221
0.00116167
0.00562472
0.00189811
0.0120071
0.00327472
0.0165495
0.00600822
0.000873472
0.00833013
0.0023107
0.00705195
0.00185141
0.00512734
0.00435478
0.0100127
0.00245308
0.00809732
0.00216277
0.0107271
0.00571462
0.000237393
0.00614983
0.00716394
0.00211215
0.0117793
0.00705219
0.00606396
0.00431227
0.000215869
0.00877082
0.00435751
6.63695e-05
0.001312
0.00756876
0.00205522
0.00242629
0.000186388
0.010241
0.0066448
0.00991634
0.005581
0.00495817
0.000640398
0.00919015
0.000524313
0.00530089
0.00783219
0.00568757
0.0043141
0.00941539
0.005994
0.00263011
0.00693504
0.000129777
0.00290739
0.00722318
0.00339914
0.0015377
0.00183824
0.00171892
0.000662537
0.000225358
0.0031174
0.00361221
0.00375112
0.0118175
0.00433948
0.00766172
0.00270796
0.00125006
0.00195793
0.00269028
0.00377249
0.00765557
0.00426752
0.00755229
0.00473709
0.000962791
0.00176791
0.00196131
0.00611752
0.00365451
0.00641001
0.00586759
0.00646979
0.000988826
0.00630681
0.00115293
0.00258366
0.000825574
0.00615025
0.00531127
0.00421469
0.000246774
0.000348911
0.00266405
0.000366374
0.00480639
0.00488471
0.000625838
0.000298541
0.005117
0.00320051
0.000714015
0.00440019
0.00301725
0.0146316
0.00688104
0.00656909
0.00934296
0.00254968
0.000746199
0.000528825
0.00209685
0.00388018
0.00628845
0.00895127
0.00427753
0.00701588
0.00047392
0.0055335
0.00308767
0.00479868
0.000201809
0.00870552
0.0161066
0.0162499
0.000381035
0.014821
0.000185223
0.00413767
0.000385197
0.00923062
0.00142309
0.00656874
0.000943183
0.000656348
0.00835314
0.000299862
0.00152625
0.0018815
0.00628825
0.000380992
0.00592249
0.000790796
0.0131182
0.0120665
0.00842969
0.00602727
0.00125926
0.000512219
0.00139318
0.00277787
0.00782069
0.00504942
0.00399231
0.00471388
0.0148152
0.00733061
0.00294374
0.00746416
0.000205292
0.00053753
0.00361159
0.0047594
0.00978686
0.0120727
0.00775845
0.00578644
0.000594286
0.00426477
0.00491987
0.00223447
0.0119499
0.00449425
0.00427311
0.00658224
0.00532712
0.00564713
0.00289815
0.00478374
0.00173484
0.00311518
0.0045076
0.0107844
0.00999478
0.00792273
0.00168714
0.000563138
0.0121764
0.000396801
0.00240181
0.000411724
0.000595835
0.00324639
0.00070955
0.00447731
0.00404705
0.00604862
0.00131594
0.00434948
0.0020351
0.00579969
0.00183512
0.00201443
0.00443105
0.0101313
0.00346487
0.00504404
0.00177091
0.00367306
0.00425545
0.00309478
0.00216434
0.00405592
0.00832135
0.00254376
0.00375111
0.00623762
0.00134253
0.000463632
0.0027789
0.00422814
0.00367466
0.00112159
0.000569379
0.00249142
0.00115842
0.000205141
0.00372376
0.00579154
0.00582362
0.00229246
0.0015531
0.00204085
0.00212848
0.00403771
0.000132856
0.00179967
0.000559396
0.00279933
0.00996166
0.00380092
0.00354184
0.000303565
0.00231187
0.00103683
0.00459522
0.000426031
0.00147525
0.00302693
0.015737
0.00140025
0.00299103
0.00432302
0.00171979
0.00671743
0.00566056
0.00482246
0.00373476
0.000360649
0.00557366
0.00645652
0.00535925
0.00228614
0.00219483
0.0136939
0.0165246
0.0101731
0.0074398
0.00181608
0.0021384
0.00225399
0.000876585
0.005503
0.00332149
0.00361209
0.00192509
0.0025612
0.00417905
0.00741143
0.00481683
0.00670968
0.00847031
0.00669649
0.0109729
0.00842511
0.00991428
0.00731563
0.00301002
0.00243357
0.0068529
0.00310175
0.00583653
0.000288843
0.00283928
0.0041504
0.000518565
0.00698095
0.00262467
0.00795241
0.00558453
0.00311841
0.000978225
0.00900351
0.0129007
0.0110352
0.00773827
0.0120031
0.00244714
0.0069913
0.000555802
0.00175847
0.00130732
9.12782e-05
0.00538851
0.00229694
0.00317411
0.00196289
0.00338144
0.00852723
0.000600027
0.00205998
0.00575061
0.00140277
0.00182891
0.0091281
0.00695266
0.00285445
0.010355
0.0126975
0.00149883
0.00681329
0.00138507
0.00285204
0.00118529
8.87248e-05
0.00113781
0.00347746
0.00341567
0.00934865
0.00670018
0.00164999
0.00332983
0.00436424
0.00918888
0.00573426
0.00662016
0.00838003
0.0041285
0.00439016
0.000117
0.0020994
0.00025737
0.00394634
0.00126063
0.00907236
0.00747508
0.00344313
0.00195649
0.00362908
0.00422652
0.000934036
0.00683374
0.00308226
0.00594729
0.00340921
0.00424586
0.00452678
0.000251906
0.000476739
0.00195202
0.00331691
0.000699921
0.00640821
0.000300282
0.00379546
0.0025453
0.00485246
8.23467e-06
0.00249299
0.00114851
0.00135286
0.00454405
0.00577931
0.00670498
0.00515791
0.00686703
0.00541857
0.00849901
0.00375905
0.00955793
0.00175401
0.000522378
0.00530074
0.00889021
0.00139022
0.00205984
0.00204366
0.0011456
0.00236092
0.00349936
0.00952355
0.00205578
0.000887349
0.00418819
0.00261096
0.000434604
0.00588433
0.00534972
0.00295115
0.00455442
0.00534068
0.00158982
0.00189675
0.00343801
0.000959544
0.001637
0.00226188
0.00162401
0.00242895
0.00317839
0.00195798
0.000737675
0.00617928
0.00515699
0.0136891
0.00579955
0.00836092
0.00640388
0.00163836
0.00259288
0.00343897
0.005436
0.00158767
0.00290493
0.0096947
0.0011831
0.000423192
0.00748662
0.00648244
0.00186116
0.00478185
0.00729687
0.00239738
0.00715725
0.0101097
0.000721338
0.0120341
0.000312425
0.00406807
6.08636e-05
0.00370061
0.000450207
0.00233154
0.00170365
0.00114539
0.00359285
0.000487973
0.00241781
0.00144839
0.00145964
0.000226064
0.00114747
0.000944881
0.00991288
0.0157382
0.00335304
0.00803719
0.007094
0.00197356
0.00225297
0.00391453
0.000845434
0.000559888
0.00499162
0.00573837
0.00856471
0.000865857
0.00352219
0.00178751
0.00537392
0.00211372
0.0053562
0.0129228
0.000132611
0.00744146
0.00578808
0.00666108
0.0100658
2.57713e-05
0.00290229
0.00158067
0.00305085
0.00130827
0.00519341
0.00203375
0.00258779
0.00714484
0.00452812
0.00260233
0.000228749
0.00588396
0.00282544
0.00297343
0.0102329
0.00161379
0.0013862
0.00802842
0.00773208
0.00334691
0.00142043
0.0028581
0.000182617
0.000133598
0.00133029
0.00239472
0.000314709
0.00143446
0.00117544
0.00252593
0.00581886
0.000838624
0.0044803
0.00070442
0.00170854
0.0035338
0.000646455
0.00683944
0.00162251
0.00634538
0.000831511
0.0036953
0.00235734
0.000592027
0.00470306
0.00567175
0.00378586
0.00426906
0.00326564
0.00795767
0.00218113
0.000717842
0.000340996
0.000542861
0.00585945
0.00377493
0.00104063
0.0022366
0.000880807
8.57446e-05
0.00399692
0.00656898
0.00373625
0.00245592
0.00391823
0.0055232
0.00233829
0.000761228
8.66349e-05
0.00148615
0.00537822
0.000712398
0.000189185
0.000429596
0.0016245
0.00248708
0.00386019
0.000774878
0.00505761
0.000171436
2.15599e-05
0.00033419
0.00253596
0.000589512
0.01179
0.00507867
0.0030651
0.000670077
0.00256779
0.00443371
0.00178277
0.000789709
0.00436966
0.00523962
0.00515943
0.0108578
0.0071544
0.0048439
0.00692817
0.00373167
0.00400006
0.00320999
0.00388022
0.000719407
0.00529336
0.00672794
0.00487689
0.00337031
0.00161891
0.000618014
0.00301325
0.0026204
0.00399214
0.00176786
0.00410347
0.0103368
0.00837077
0.00306556
0.00424697
0.00221199
0.00203338
0.000110985
0.00440978
0.00542201
0.00223239
0.00295158
0.000691096
0.00405029
0.00589905
0.00289921
0.00583546
0.00418268
0.00056624
0.00613524
0.00959858
0.01189
0.00814571
0.00210764
0.000949555
0.0013017
0.00516576
0.00796171
0.00267963
0.00471118
6.31455e-05
4.75547e-05
0.00840633
0.00113919
0.000909889
0.000796747
0.00541546
0.00211449
0.000891702
0.00147737
0.00647341
0.00388003
0.0104064
0.00388813
0.00514117
0.0027444
0.00080493
0.0018692
0.0013825
0.0121668
0.00168502
0.00249774
0.000714265
0.00686519
0.00241523
0.00255992
0.00172095
0.00361865
0.00134426
0.000552861
0.00246363
0.000743563
0.00156846
0.0030783
0.0020586
0.00082782
0.00610484
0.00032499
0.00416405
0.00269021
0.00650468
0.00230655
0.00251918
0.00201022
0.00365419
0.0103966
0.00188079
0.000676957
0.000886891
0.0040097
0.000838359
0.00357076
0.00463106
0.00248484
0.00182769
0.0047145
0.00607114
0.000380158
0.00124247
0.000635576
0.000821606
0.00143115
0.000586613
0.00255361
0.00391143
0.004719
0.0022311
0.00655293
0.00626328
0.000206208
0.00559997
0.00214791
0.0021466
0.00719642
0.00182774
0.00644385
5.1291e-05
0.00105909
0.0021232
0.000792074
0.00473669
0.0042643
0.002601
0.00303772
0.0054316
0.00146944
0.000246944
0.00410013
0.00334258
0.00283216
0.0018261
0.00283583
0.00203653
0.00140054
0.00063514
0.00199587
0.00279216
0.000109206
0.00698137
0.00166236
0.00117222
0.00379663
0.00247888
0.0045995
0.00332829
0.00726295
0.00387459
0.000618491
0.00300397
0.00275043
4.02327e-05
0.00752916
0.0119335
0.00679216
0.00187782
0.000323134
0.00413512
0.000137464
0.00464548
0.00656336
0.00735545
0.00121649
0.00369522
0.00528741
0.00615684
0.00621744
0.00370637
0.000310828
0.0031352
0.00365227
0.00721156
0.00988425
0.00153348
0.00484926
0.000513761
0.00436904
0.000815623
0.00126986
0.00106991
0.00883067
0.00155291
0.000972312
0.000651513
0.000436796
0.0047925
0.00180336
0.00966923
0.00146273
0.00743599
1.3684e-05
0.00304733
0.00552426
0.00284188
0.0029099
0.00329487
0.00212615
0.00535346
0.00238796
0.000878812
0.0045947
0.00669858
0.00552139
0.00305967
0.00558172
0.00237257
0.0039792
0.00851805
0.00585793
0.0076951
0.0016672
0.0070489
0.00278676
0.0114417
0.00176078
0.00327832
0.00542729
0.00069089
0.00363121
0.00534494
0.00603677
0.00556347
0.00332244
0.0015125
0.00241807
0.00136934
0.00209418
0.00496685
0.00670362
0.000320402
0.0059433
0.00192207
0.00561449
0.00150809
0.000804713
0.00282591