/*--------------------------------*- C++ -*----------------------------------*\
| =========                 |                                                 |
| \\      /  F ield         | OpenFOAM: The Open Source CFD Toolbox           |
|  \\    /   O peration     | Version:  2212                                  |
|   \\  /    A nd           | Website:  www.openfoam.com                      |
|    \\/     M anipulation  |                                                 |
\*---------------------------------------------------------------------------*/
FoamFile
{
    version     2.0;
    format      ascii;
    arch        "LSB;label=32;scalar=64";
    class       volScalarField;
    location    "0";
    object      stateMean;
}
// * * * * * * * * * * * * * * * * * * * * * * * * * * * * * * * * * * * * * //

dimensions      [0 0 0 1 0 0 0];

internalField   nonuniform List<scalar> 
3200
(
346.21
348.706
345.767
344.775
344.4
345.798
344.257
345.453
348.389
347.23
347.675
347.825
348.143
347.307
346.423
347.111
345.874
344.776
346.624
346.605
342.14
341.075
338.391
336.622
338.972
339.548
341.631
340.12
341.418
341.378
341.947
342.165
340.11
339.817
340.526
340.268
340.8
339.026
341.031
340.999
335.2
336.205
333.882
333.988
334.771
334.024
331.93
335.023
334.467
336.976
336.792
333.787
337.193
335.062
333.652
335.29
334.819
331.773
333.787
334.251
329.407
328.282
325.353
327.516
330.126
328.497
326.207
326.56
330.129
328.016
328.644
328.655
329.982
329.352
330.798
327.171
327.462
327.122
327.264
328.132
322.152
322.395
321.531
321.084
322.312
321.159
320.554
321.803
321.58
323.955
322.962
323.831
321.517
321.835
320.693
320.672
320.526
320.904
322.127
322.614
317.65
315.567
313.949
316.65
315.316
316.877
314.94
314.126
316.707
315.7
315.556
314.987
316.818
315.112
315.681
315.09
315.469
315.313
314.25
315.67
306.475
309.257
310.713
309.713
309.089
310.362
309.182
311.244
309.358
309.327
308.763
309.043
308.145
309.424
310.453
308.317
309.441
308.802
310.202
309.319
301.39
302.013
303.867
302.446
302.18
304.841
300.3
301.293
304.628
303.481
303.17
300.177
304.645
302.311
304.241
302.833
304.239
303.779
302.729
304.776
346.697
346.462
345.832
344.554
344.858
344.275
347.397
347.791
346.447
349.23
346.192
347.815
347.441
347.85
345.77
345.268
346.488
347.901
346.87
347.534
342.654
340.572
342.278
341.202
339.311
343.072
339.54
343.457
340.643
344.9
344.491
340.54
343.72
341.736
342.258
339.734
341.067
338.063
339.908
338.463
336.073
330.979
334.442
333.236
332.017
333.541
333.854
333.284
335.302
337.464
337.726
336.177
335.306
335.812
333.109
331.37
334.054
333.508
335.341
336.194
329.253
329.862
325.982
328.589
325.964
326.274
327.638
328.342
326.738
329.227
328.677
327.75
330.643
329.642
329.622
327.578
327.829
327.443
324.857
329.694
321.781
322.022
319.927
322.337
322.811
320.551
321.78
320.925
322.887
323.748
322.597
323.434
322.675
323.856
322.6
322.047
321.349
322.558
323.598
323.146
315.259
313.659
315.105
313.513
315.909
315.576
314.96
317.853
315.885
314.041
315.797
317.427
314.408
313.939
314.623
317.224
318.293
313.507
318.146
314.734
309.256
311.034
307.61
310.695
309.849
310.465
310.889
310.173
309.819
309.848
308.389
309.876
306.817
310.153
308.075
313.516
308.258
308.184
307.716
310.19
303.074
303.24
303.17
303.484
302.634
302.673
302.119
305.671
304.193
303.598
300.955
301.581
301.674
301.507
302.554
304.534
303.503
303.135
301.916
305.071
350.536
345.943
345.652
345.208
347.466
346.254
344.995
346.958
349.736
349.034
350.139
350.303
349.633
347.571
348.655
347.959
348.52
346.774
347.854
348.319
342.632
340.106
338.962
340.146
339.793
339.435
341.948
343.362
341.57
340.34
344.022
341.374
340.209
341.85
341.115
340.868
338.951
338.53
341.753
341.713
338.268
336.436
333.686
332.403
332.844
333.353
336.985
333.74
335.484
336.523
335.834
336.766
335.397
333.933
336.403
333.63
335.381
334.218
334.308
333.322
327.885
327.657
327.561
327.031
329.066
327.161
330.226
330.209
330.236
329.142
330.002
330.16
327.999
330.831
328.699
329.946
329.4
327.238
329.502
329.886
321.868
322.813
321.725
321.487
319.38
324.05
323.845
321.641
322.468
322.649
323.077
323.595
322.857
320.832
322.584
321.949
323.211
322.79
323.652
321.624
316.393
314.592
315.147
314.144
317.532
316.607
314.931
314.814
314.471
314.806
315.392
319.494
315.615
316.195
315.254
316.594
315.593
316.299
316.326
315.844
310.757
308.929
307.371
310.976
307.966
311.465
307.55
310.381
312.006
309.864
309.623
310.116
309.377
308.662
309.474
308.529
310.676
309.401
308.971
309.897
306.247
303.89
303.679
302.484
302.187
303.599
299.739
303.976
304.164
304.603
304.511
304.292
304.648
301.6
304.589
304.573
304.299
301.953
303.55
303.485
350.682
346.621
348.465
346.688
349.29
345.172
349.15
349.339
350.469
350.785
349.96
350.054
350.127
348.446
347.169
346.317
346.881
344.917
347.731
348.402
342.929
340.802
342.408
341.323
340.378
343.123
343.76
344.023
343.181
344.881
344.919
343.81
343.916
340.773
343.324
340.235
342.164
341.479
340.627
340.802
336.042
336.023
335.285
334.225
335.501
335.165
334.713
335.695
336.766
336.192
337.435
335.586
336.082
336.402
333.996
337.389
334.899
335.593
333.432
337.27
330.201
325.783
330.763
327.473
328.376
327.207
328.976
330.159
331.533
329.769
333.124
330.933
331.063
330.487
328.543
329.517
327.696
327.246
330.064
332.858
323.643
322.007
322.395
320.005
322.669
322.729
323.647
322.463
324.815
322.986
321.047
323.56
324.014
321.964
323.899
322.202
323.662
322.11
321.765
322.156
316.564
317.219
315.516
314.661
318.386
315.87
316.878
316.14
317.273
317.336
318.152
316.191
316.048
315.735
314.511
315.014
314.903
316.345
315.014
315.095
310.38
309.075
311.354
307.957
308.576
309.985
312.99
309.52
307.745
309.868
310.594
310.782
310.983
309.337
307.289
311.664
309.764
308.642
308.507
312.682
304.153
303.126
304.395
301.967
303.986
304.426
305.169
303.441
304.137
304.059
301.481
303.051
305.64
303.551
301.807
303.027
304.641
302.726
303.081
303.55
351.984
347.751
347.573
347.453
346.771
347.901
348.912
351.123
348.837
353.242
352.158
352.899
348.858
349.436
349.35
346.152
349.043
349.467
347.55
348
344.475
340.968
341.233
341.341
342.937
340.454
343.803
343.968
345.018
347.049
344.609
343.579
344.846
344.217
342.357
341.74
342.513
340.65
344.173
343.682
337.531
334.165
336.203
335.377
335.377
334.385
336.632
335.008
337.104
336.78
338.855
338.476
339.292
337.413
337.16
335.456
336.45
337.205
337.543
335.221
331
329.769
329.626
329.532
327.139
330.14
330.039
331.375
330.034
330.39
332.266
331.133
331.608
329.814
329.057
330.56
329.953
330.872
330.851
330.204
322.458
322.931
322.797
325.015
321.868
321.788
322.865
326.083
324.633
323.876
323.007
325.222
324.933
323.663
322.596
322.264
322.02
324.954
322.199
323.862
317.749
315.905
316.291
315.441
314.988
316.059
317.467
317.801
316.987
315.799
315.466
317.157
316.471
319.988
315.746
317.491
316.12
316.624
317.67
318.213
309.938
312.256
309.196
309.303
308.894
308.06
308.086
311.513
310.815
309.323
307.417
310.658
310.297
308.055
308.075
309.358
306.794
309.139
309.976
312.13
304.315
305.575
301.952
302.251
304.036
300.98
301.935
303.332
302.409
303.257
304.954
304.193
304.588
304.232
303.713
304.932
302.252
303.828
304.114
305.607
351.523
348.718
348.596
349.167
350.398
349.452
351.988
351.624
353.057
351.844
352.362
354.237
353.11
351.046
349.29
350.349
350.092
348.884
349.526
351.444
343.807
342.601
341.341
343.192
342.719
344.212
345.306
344.604
344.173
345.447
346.035
343.781
344.692
345.661
344.854
344.159
343.429
343.599
342.179
345.688
334.709
338.158
337.387
337.171
336.133
336.351
336.61
335.994
338.262
339.349
340.042
339.527
339.347
338.49
340.892
337.001
338.273
335.826
337.342
336.535
331.476
330.568
329.054
331.029
330.254
329.589
331.26
334.25
330.987
331.221
332.776
332.879
331.078
330.848
330.794
329.748
329.081
330.54
331.871
329.484
324.34
324.314
324.603
319.289
324.505
325.325
323.345
323.496
322.356
325.186
323.543
324.589
324.932
326.184
326.03
324.665
322.923
322.08
325.216
324.278
316.662
316.129
314.829
316.343
316.783
316.54
315.953
317.594
318.054
318.727
318.55
319.122
316.49
321.128
316.507
317.715
315.873
315.106
317.407
318.01
310.665
309.883
310.273
309.507
307.169
311.167
311.586
310.508
309.727
310.594
311.206
310.33
310.344
309.936
310.451
310.428
311.025
310.738
309.499
310.087
303.766
303.986
301.472
305.725
302.228
303.938
304.067
303.538
303.753
303.707
304.633
305.803
304.617
305.289
306.008
303.946
304.038
302.14
305.236
303.482
354.143
351.345
352.196
350.914
353.331
351.073
354.249
353.102
354.007
353.614
356.207
353.425
355.166
354.668
351.539
351.088
351.803
354.488
352.737
352.822
346.794
344.507
343.934
342.922
345.552
345.609
347.002
347.474
347.162
345.658
346.151
346.904
347.582
346.11
346.215
345.865
345.018
345.525
343.265
343.748
337.904
337.407
336.969
338.542
337.075
336.878
340.985
339.601
338.408
340.075
340.671
343.13
338.917
337.242
337.561
338.268
338.245
339.087
339.365
340.052
331.668
330.965
331.058
330.206
330.552
328.915
331.267
333.074
331.822
332.884
330.828
332.087
332.964
330.861
332.324
330.582
330.884
330.722
330.772
329.979
325.717
323.408
325.533
321.862
323.205
325.144
324.157
324.105
323.697
323.04
325.119
325.079
324.193
326.038
324.64
325.065
325.105
322.134
324.795
325.012
316.465
315.853
315.721
317.194
315.881
317.017
320.512
317.16
317.653
318.856
319.166
317.385
318.179
316.719
317.178
316.073
317.017
317.459
317.915
317.674
310.952
309.563
311.508
309.956
312.268
309.862
310.671
310.879
312.193
311.147
309.536
312.223
308.949
311.865
309.545
309.195
309.314
309.628
310.044
310.326
303.417
303.289
302.341
302.8
305.577
303.314
305.982
305.177
303.98
304.389
303.887
304.988
305.351
304.445
303.033
301.235
303.065
301.935
303.983
303.504
354.26
352.258
353.162
353.189
352.202
354.465
355.511
353.796
355.423
354.345
357.736
353.623
353.971
355.824
357.34
351.742
351.294
353.025
353.449
353.939
345.326
344.658
347.412
344.686
343.809
346.033
345.692
346.973
346.957
347.297
346.592
351.502
346.725
347.3
346.139
344.001
345.222
347.016
344.263
346.054
339.478
338.428
339.618
339.143
340.148
338.506
339.082
339.452
339.807
339.333
339.841
341.436
340.119
341.61
337.648
337.119
337.683
338.849
336.017
340.416
330.564
331.723
332.676
334.288
332.785
334.387
331.076
332.174
333.544
333.989
333.442
333.848
333.27
331.134
331.738
332.731
330.846
331.167
332.549
334.193
326.938
323.949
325.087
324.913
324.254
325.471
325.188
324.148
323.592
326.814
325.882
327.407
326.86
324.632
326.458
323.997
326.497
323.358
326.039
325.417
319.182
316.373
317.99
318.188
317.497
317.012
319.285
319.66
317.333
317.62
319.848
318.998
317.921
318.577
318.001
320.3
316.96
317.977
318.263
318.265
311.448
309.692
309.445
309.551
307.012
310.164
312.646
308.912
310.734
310.469
310.749
310.909
312.658
311.832
311.252
309.741
311.027
309.375
312.814
312.458
303.314
301.058
301.799
300.822
305.504
300.63
303.362
305.072
303.144
302.118
303.55
302.685
302.322
302.055
304.018
304.758
303.66
303.5
302.786
303.008
355.967
355.906
356.395
352.58
353.364
352.663
355.024
354.424
355.039
358.262
357.854
358.992
356.728
355.568
355.179
354.897
353.84
353.621
359.193
358.164
347.505
349.124
347.52
346.609
346.447
345.706
346.765
350.542
348.431
350.345
349.275
349.672
347.003
348.852
347.409
349.207
346.195
347.881
347.575
349.208
341.016
340.719
341.199
338.733
339.615
340.569
341.723
339.091
341.358
339.743
343.639
342.56
340.488
340.83
340.154
340.378
342.395
340.531
339.529
342.382
334.2
334.986
332.226
333.062
333.151
331.221
332.95
333.541
332.661
333.164
334.332
336.87
333.982
335.508
332.559
332.855
333.05
332.096
335.465
333.673
326.079
325.87
326.111
327.322
326.413
326.404
327.594
326.771
327.53
326.424
324.329
326.748
326.978
326.162
326.169
326.381
327.071
326.54
324.124
326.333
318.52
317.992
317.809
318.007
317.699
317.678
319.491
319.484
318.708
321.568
316.592
320.103
322.068
318.877
318.171
317.278
316.083
318.175
319.081
319.027
310.672
312.227
310.946
311.991
311.682
310.293
312.616
310.385
309.232
312.39
313.951
310.374
310.193
310.34
310.669
310.872
308.167
311.761
311.302
310.414
303.484
303.452
303.329
303.725
303.979
302.367
302.394
304.898
303.011
304.385
303.971
304.523
305.305
304.236
302.535
303.303
305.656
304.807
302.792
302.515
356.517
356.614
352.368
354.395
355.792
355.836
357.162
357.694
356.672
359.069
358.177
358.946
360.087
358.974
358.048
354.752
358.008
355.059
355.892
356.433
349.822
346.861
348.349
347.473
348.45
347.871
347.929
349.145
349.939
350.025
349.743
352.562
349.222
351.22
348.61
347.353
347.929
346.023
346.377
349.849
343.063
341.347
344.009
341.689
341.802
339.085
343.073
340.387
343.582
344.702
344.059
344.162
343.421
342.136
340.662
341.705
341.716
339.84
341.211
340.935
334.503
335.568
333.267
332.945
333.025
332.885
336.384
333.101
333.476
334.315
336.396
336.584
334.808
336.46
335.46
334.67
334.839
334.382
334.865
331.214
325.46
329.001
326.149
326.666
327.25
327.777
327.349
328.633
325.844
325.219
328.696
327.875
329.676
328.396
326.329
327.832
324.373
326.351
324.534
325.541
321.312
320.338
318.919
316.97
318.513
319.086
319.767
320.335
319.379
318.559
319.082
320.982
319.65
318.474
319.02
320.807
317.16
319.121
316.719
317.419
313.527
309.231
312.922
309.84
311.073
311.949
311.499
312.113
311.901
311.094
310.566
311.122
313.09
310.999
312.266
310.58
311.613
310.348
313.392
309.097
303.015
304.322
303.173
303.918
302.594
302.389
305.622
302.031
302.957
304.118
305.277
304.348
303.591
303.741
304.589
303.159
305.157
304.368
307.45
302.27
359.787
359.437
358.88
357.465
355.684
357.614
357.31
359.879
359.883
359.113
361.452
360.558
361.169
358.899
360.944
358.789
357.554
355.917
356.396
359.957
351.342
348.509
349.752
348.44
349.966
349.649
350.977
349.998
351.583
350.215
350.378
351.496
349.964
353.242
349.102
353.387
349.456
349.911
348.886
349.51
342.058
345.209
343.469
343.131
342.712
343.061
342.328
344.185
347.496
344.33
345.145
344.628
346.192
342.639
344.056
343.834
342.119
339.955
343.014
343.608
336.494
338.137
332.549
335.883
333.905
334.944
333.586
336.301
336.24
335.236
336.346
336.521
337.349
336.199
334.97
333.904
336.727
332.903
335.493
336.825
328.338
327.133
327.63
327.692
327.064
325.956
327.125
325.661
326.07
327.306
328.802
328.418
329.032
327.597
326.548
328.108
326.043
326.559
325.805
327.557
318.827
321.487
319.269
318.329
319.222
319.913
319.411
317.385
321.07
319.358
319.518
320.014
320.211
322.019
318.543
320.077
320.039
320.099
319.919
320.859
310.003
313.167
313.408
311.102
309.987
311.262
310.191
310.371
312.654
313.699
312.066
312.49
309.646
313.659
312.589
312.626
313.418
308.937
313.555
312.605
303.581
302.41
304.043
303.11
301.807
302.908
303.329
304.218
302.213
303.815
304.289
304.262
303.46
302.359
304.951
303.274
304.236
303.977
304.976
303.365
360.465
360.89
359.933
359.004
358.711
359.628
359.576
360.94
361.602
360.946
362.853
360.973
362.335
360.863
360.193
357.767
358.39
357.634
359.268
357.741
353.886
354.442
353.284
350.575
351.664
353.254
353.609
352.859
354.593
353.208
355.054
351.786
354.068
355.033
351.399
352.653
350.698
351.962
353.024
352.418
343.782
345.322
345.207
343.215
345.033
344.639
344.187
345.907
345.311
344.87
344.364
344.94
344.367
346.599
343.534
344.771
341.883
346.328
343.042
347.345
336.169
334.64
337.377
335.62
337.463
334.718
337.271
337.187
339.211
336.736
338.632
336.574
339.326
333.633
335.419
337.161
337.245
335.297
338.286
336.518
328.586
328.157
326.865
330.004
325.907
327.541
327.254
330.3
327.24
328.76
328.025
331.272
329.997
330.933
329.347
328.956
326.926
329.941
326.919
328.336
321.527
320.944
320.64
322.412
321.461
320.52
322.015
319.852
320.892
322.308
321.085
320.454
320.482
320.347
319.467
319.618
320.401
318.11
320.326
322.798
312.786
313.883
310.732
312.052
312.356
310.987
310.72
314.343
310.665
309.661
310.539
311.696
312.507
311.285
313.734
310.607
313.66
313.404
309.481
311.127
305.75
304.205
303.096
303.659
302.069
302.351
302.708
304.083
303.916
303.219
303.918
302.561
305.493
303.799
304.056
305.493
304.883
303.664
305.192
304.751
363.946
361.475
361.743
363.136
361.079
360.792
360.653
360.347
362.69
363.657
364.619
362.833
363.637
360.673
362.518
361.273
361.501
359.455
362.13
364.475
356.673
351.363
356.765
351.96
353.687
352.68
356.078
352.545
355.526
353.622
353.057
356.156
353.153
353.359
353.207
354.445
352.029
353.637
350.951
355.574
347.342
346.311
345.762
344.411
344.438
344.047
345.72
342.255
346.83
346.536
346.785
350.201
347.482
345.777
341.955
344.333
344.163
344.931
345.05
346.56
339.447
338.175
337.738
336.23
337.696
334.824
337.424
340.853
338.452
335.556
339.214
338.733
338.73
337.648
334.869
336.845
337.077
337.309
339.19
338.75
330.163
328.254
327.689
332.052
328.368
329.196
328.691
328.482
329.831
329.041
330.28
330.095
330.666
328.988
329.835
328.906
329.96
328.476
328.361
329.019
322.955
320.918
318.32
319.497
321.369
321.677
321.413
321.202
321.869
323.269
321.417
321.771
322.507
319.991
320.165
321.083
318.711
321.11
319.451
319.534
312.626
312.266
312.043
310.896
310.327
314.026
312.988
312.809
312.998
313.045
313.641
312.32
312.886
312.097
311.334
309.026
313.244
313.084
312
312.57
303.658
305.389
303.887
303.594
303.149
308.878
303.689
305.042
302.83
304.674
302.108
302.423
302.665
302.979
304.203
305.764
306.006
305.646
304.687
304.64
365.879
367.189
365.245
364.62
361.621
363.382
363.713
363.447
365.293
364.587
364.693
363.993
364.059
361.378
365.294
364.024
364.355
364.63
363.639
364.897
355.884
356.652
356.037
354.827
353.205
356.78
355.702
356.876
354.844
356.03
356.495
355.131
357.282
353.671
357.17
356.044
354.865
353.797
356.331
357.464
348.65
347.714
349.441
346.406
348.236
346.251
346.879
346.895
346.531
348.494
347.422
347.663
347.122
347.441
349.01
346.026
344.848
347.282
345.528
345.476
339.818
339.246
338.072
340.819
341.823
338.24
340.209
338.516
339.111
338.599
338.168
338.532
339.224
339.061
340.891
339.799
337.883
338.233
338.374
339.838
330.499
330.914
331.654
330.425
330.675
329.344
330.21
329.712
331.005
329.328
332.736
332.169
330.762
330.163
330.578
330.621
329.373
331.146
329.751
330.569
321.558
321.913
322.118
320.704
320.75
321.639
322.174
321.412
323.301
321.174
320.051
322.06
322.746
321.106
321.812
320.534
321.219
319.209
322.405
322.614
313.91
314.496
310.726
315.147
311.387
315.615
313.233
312.895
314.423
315.563
313.217
312.121
312.093
312.327
311.889
311.468
309.515
313.061
312.628
313.607
304.918
304.273
305.954
305.815
303.314
302.848
302.628
304.753
304.857
305.332
303.994
304.778
303.581
304.747
303.495
303.245
304.784
303.94
306.02
302.556
368.328
365.724
366.977
366.596
363.985
363.933
366.394
367.334
364.915
364.509
369.115
365.063
365.193
367.872
367.244
363.903
366.005
366.59
364.487
365.955
358.596
355.485
359.782
355.677
357.513
356.3
355.229
356.568
356.025
357.531
356.514
355.575
356.903
357.41
356.838
356.585
355.708
355.912
355.565
358.526
352.074
347.966
349.824
349.74
348.196
346.945
346.556
347.778
347.985
349.974
350.234
351.162
348.373
346.693
348.35
349.377
348.01
348.894
351.285
346.573
340.714
340.302
340.788
342.14
338.913
340.084
338.72
340.417
339.915
341.279
340.206
340.349
341.807
337.72
338.218
339
340.723
339.49
339.35
341.658
330.278
330.316
332.655
327.606
329.202
330.916
329.623
330.726
330.779
330.331
329.979
330.631
331.14
330.957
329.612
332.23
329.882
331.485
329.627
330.309
322.408
321.145
323.657
321.045
323.715
321.505
320.671
321.171
322.17
320.49
323.83
323.198
323.304
322.911
319.212
322.376
321.798
321.568
321.527
323.155
313.965
312.506
313.595
312.685
313.052
314.335
311.079
312.008
312.439
314.45
314.953
312.476
312.94
313.109
313.549
311.341
312.738
312.954
312.698
313.292
305.044
305.477
304.559
302.807
304.315
304.394
304.506
305.191
304.249
300.845
305.98
303.495
304.623
305.186
305.737
303.824
304.586
302.993
305.896
305.857
369.913
368.801
368.248
369.313
368.432
365.86
366.383
366.323
368.146
366.001
365.473
366.087
368.989
368.158
367.556
365.956
367.733
367.936
366.828
367.442
360.941
360.444
358.801
356.443
357.423
357.718
358.609
357.229
360.872
359.785
357.924
358.678
360.264
356.533
359.486
356.125
356.466
357.907
359.645
360.677
352.659
351.524
348.161
348.784
348.874
347.719
346.912
348.897
348.282
349.958
349.963
346.989
349.435
349.378
349.247
347.437
348.378
349.207
349.199
350.771
341.066
343.42
341.379
341.985
339.476
340.845
341.348
340.353
336.755
340.37
341.796
341.146
343.164
339.888
339.699
339.824
339.005
340.514
340.071
340.585
330.706
331.575
330.171
332.012
331.74
329.567
331.808
330.406
330.956
334.04
331.115
331.013
332.455
330.488
328.144
332.089
331.554
331.485
332.383
330.675
323.285
323.7
323.105
321.815
320.981
320.632
322.791
323.132
322.98
323.063
322.336
322.964
323.555
323.93
321.068
321.781
320.291
320.285
322.142
323.939
313.975
314.019
315.658
312.89
311.502
313.559
313.29
314.326
313.934
315.186
312.362
314.502
312.707
311.919
314.036
313.599
312.178
312.355
312.459
313.874
303.597
303.855
304.068
304.321
305.142
303.702
304.6
302.454
304.083
304.95
303.437
303.834
305.981
303.553
302.34
303.354
304.326
303.579
303.638
304.472
371.442
373.29
371.662
370.122
369.81
368.402
370.192
368.589
367.995
367.762
370.036
369.057
368.351
367.862
367.632
368.321
369.543
367.998
367.541
371.325
363.16
360.346
361.77
360.076
358.914
360.404
360.422
360.639
357.938
360.618
360.828
360.892
360.867
359.15
361.348
357.003
360.788
357.347
359.799
360.702
352.443
351.659
351.878
349.9
350.503
353.308
350.741
352.013
353.406
349.478
349.892
350.714
349.741
350.747
350.029
348.258
353.113
348.157
351.247
352.978
342.325
345.406
341.056
342.943
340.124
341.889
341.008
340.522
340.355
340.554
341.321
341.904
341.524
341.782
341.409
340.281
339.531
341.767
339.469
342.03
334.081
331.811
332.167
333.502
331.69
329.932
332.168
333.393
332.68
332.485
331.33
331.168
332.666
334.061
334.243
331.468
332.572
333.702
332.087
330.605
324.383
324.513
322.248
321.339
322.64
323.225
322.623
322.994
321.456
323.531
322.845
322.389
323.437
323.453
322.82
322.384
322.507
323.325
323.111
323.673
315.545
315.189
311.443
314.686
313.517
315.724
313.441
312.976
312.757
313.8
314.912
314.312
310.996
313.73
314.109
314.173
313.895
313.552
314.158
315.37
306.326
303.677
305.356
303.417
304.118
303.355
304.986
305.75
305.352
301.583
304.485
304.243
304.57
304.978
305.788
304.718
305.69
305.269
303.629
305.341
371.05
373.312
370.311
369.352
371.1
371.456
370.38
370.759
370.189
370.797
368.956
370.662
369.899
370.863
368.301
369.848
368.764
372.369
368.498
371.657
363.254
363.774
362.835
362.99
360.602
360.939
362.853
361.067
362.698
362.424
360.82
359.292
359.554
360.413
359.83
362.056
362.001
363.643
364.229
359.5
355.08
352.969
352.522
352.088
351.711
351.49
351.265
352.982
352.236
352.638
351.623
351.796
351.065
352.6
352.645
351.231
350.638
350.836
351.529
351.701
343.69
343.483
343.264
345.847
342.237
342.805
341.516
343.486
343.238
342.54
342.521
341.393
340.7
341.183
340.596
343.057
342.778
343.103
342.466
342.753
333.803
333.921
333.143
331.788
332.37
331.485
332.717
332.422
333.136
333.052
333.66
333.109
332.573
331.416
333.939
333.69
334.704
333.043
333.239
332.681
321.668
323.623
322.12
324.391
322.716
323.894
324.883
324.647
323.686
325.436
322.803
323.877
323.071
323.505
322.899
322.045
322.42
321.984
325.325
324.236
315.038
315.961
314.972
313.894
311.871
313.167
312.384
314.169
316.475
314.614
314.76
315.781
311.876
317.758
314.685
313.333
312.405
314.924
316.334
314.068
305.281
304.797
303.705
305.029
305.187
303.041
307.421
305.851
303.05
304.579
303.672
304.475
303.825
303.48
303.611
302.501
305.829
305.425
306.057
303.603
374.057
375.103
371.637
371.393
374.144
372.564
368.94
372.612
371.05
370.525
371.312
370.582
372.784
371.761
369.411
371.857
374.155
372.296
371.481
374.874
362.116
364.144
361.817
364.07
361.697
364.982
360.016
365.747
362.436
365.281
365.484
362.374
364.749
362.762
364.536
360.288
364.6
361.683
364.486
364.505
353.587
353.836
353.856
355.231
352.834
350.376
353.659
353.266
352.187
351.017
352.494
353.405
354.384
351.338
351.317
355.897
351.351
352.699
351.575
355.787
345.201
345.488
344.3
344.865
343.959
341.776
342.54
344.558
345.917
344.279
342.17
342.35
341.47
344.047
343.059
343.069
342.191
343.92
344.925
343.492
335.627
334.012
335.631
333.049
335.608
335.324
334.106
335.165
333.216
333.188
335.051
333.987
331.005
334.579
332.516
333.613
332.331
334.214
334.252
334.872
323.873
325.107
324.962
323.022
324.358
323.806
324.381
324.546
324.506
324.937
320.835
322.77
323.79
326.748
323.718
324.316
324.018
325.828
323.356
323.961
315.405
314.665
312.03
316.302
314.396
312.672
311.721
314.836
313.96
313.165
313.132
316.212
314.212
313.049
316.359
313.013
313.048
315.027
316.143
314.407
306.099
303.4
302.906
304.818
306.547
304.199
304.717
304.806
303.646
306.523
305.286
304.375
305.151
304.999
303.675
303.755
303.562
303.192
304.736
304.696
373.194
373.693
376.048
374.296
373.326
372.018
373.658
372.353
372.638
373.906
373.97
373.013
373.399
371.823
371.087
371.422
372.327
371.607
373.638
373.779
365.671
366.664
365.06
363.381
363.274
364.744
364.194
361.348
362.81
364.986
362.905
362.579
361.61
364.56
361.921
363.284
363.561
362.46
362.502
364.615
356.639
355.38
355.892
353.404
354.829
351.238
354.248
350.959
350.492
352.699
355.133
352.454
353.632
354.19
354.282
351.086
353.783
354.589
354.537
355.205
346.92
345.59
342.783
344.454
341.851
345.002
341.739
343.195
343.791
345.581
344.253
344.054
342.059
341.356
346.042
344.027
342.762
343.855
344.523
342.768
335.031
333.965
335.301
330.442
334.224
333.084
333.865
331.954
333.938
334.73
333.51
334.682
335.062
331.265
336.101
334.467
334.744
332.616
334.829
333.593
325.678
326.833
324.023
323.696
324.441
326.634
324.011
323.381
324.931
323.422
323.997
326.321
323.177
322.276
323.491
323.869
322.998
322.89
322.715
325.262
315.403
315.491
316.083
314.362
313.873
315.089
315.312
316.024
313.953
314.893
314.785
311.322
316.108
313.765
315.806
314.844
315.663
314.745
315.016
314.855
304.583
306.363
304.393
304.59
303.486
305.981
303.607
304.461
305.052
306.683
304.874
305.081
304.674
302.306
302.461
304.744
305.958
305.583
305.664
305.814
)
;

boundaryField
{
    hotSide
    {
        type            fixedGradient;
        gradient        nonuniform List<scalar> 
400
(
321.511
322.87
325.591
329.677
335.133
341.965
350.181
359.788
370.794
383.208
397.037
412.289
428.971
447.088
466.647
487.651
510.105
534.011
559.372
586.191
323.738
325.08
327.767
331.802
337.194
343.949
352.078
361.591
372.498
384.81
398.537
413.687
430.268
448.289
467.755
488.672
511.043
534.872
560.161
586.913
326.149
327.47
330.116
334.091
339.406
346.071
354.099
363.503
374.296
386.491
400.101
415.136
431.606
449.52
468.885
489.706
511.988
535.735
560.948
587.63
328.704
330
332.597
336.503
341.73
348.292
356.205
365.485
376.15
388.215
401.695
416.604
432.954
450.753
470.009
490.73
512.919
536.579
561.714
588.325
331.33
332.599
335.142
338.97
344.099
350.546
358.332
367.477
378.003
389.928
403.271
418.047
434.27
451.949
471.095
491.712
513.807
537.382
562.439
588.978
333.918
335.158
337.643
341.389
346.414
352.74
360.392
369.397
379.779
391.562
404.765
419.407
435.503
453.065
472.101
492.618
514.622
538.114
563.096
589.569
336.321
337.531
339.959
343.622
348.544
354.751
362.274
371.142
381.385
393.031
406.101
420.618
436.595
454.047
472.983
493.409
515.33
538.747
563.663
590.076
338.36
339.543
341.92
345.509
350.339
356.44
363.847
372.595
382.718
394.244
407.2
421.608
437.485
454.844
473.695
494.045
515.897
539.253
564.114
590.478
339.852
341.015
343.352
346.885
351.645
357.665
364.985
373.643
383.675
395.113
407.984
422.312
438.116
455.407
474.197
494.491
516.294
539.606
564.428
590.758
340.643
341.795
344.11
347.613
352.334
358.311
365.584
374.193
384.176
395.567
408.393
422.679
438.443
455.699
474.456
494.722
516.498
539.788
564.589
590.901
340.643
341.795
344.11
347.613
352.334
358.311
365.584
374.193
384.176
395.567
408.393
422.679
438.443
455.699
474.456
494.722
516.498
539.788
564.589
590.901
339.852
341.015
343.352
346.885
351.645
357.665
364.985
373.643
383.675
395.113
407.984
422.312
438.116
455.407
474.197
494.491
516.294
539.606
564.428
590.758
338.36
339.543
341.92
345.509
350.339
356.44
363.847
372.595
382.718
394.244
407.2
421.608
437.485
454.844
473.695
494.045
515.897
539.253
564.114
590.478
336.321
337.531
339.959
343.622
348.544
354.751
362.274
371.142
381.385
393.031
406.101
420.618
436.595
454.047
472.983
493.409
515.33
538.747
563.663
590.076
333.918
335.158
337.643
341.389
346.414
352.74
360.392
369.397
379.779
391.562
404.765
419.407
435.503
453.065
472.101
492.618
514.622
538.114
563.096
589.569
331.33
332.599
335.142
338.97
344.099
350.546
358.332
367.477
378.003
389.928
403.271
418.047
434.27
451.949
471.095
491.712
513.807
537.382
562.439
588.978
328.704
330
332.597
336.503
341.73
348.292
356.205
365.485
376.15
388.215
401.695
416.604
432.954
450.753
470.009
490.73
512.919
536.579
561.714
588.325
326.149
327.47
330.116
334.091
339.406
346.071
354.099
363.503
374.296
386.491
400.101
415.136
431.606
449.52
468.885
489.706
511.988
535.735
560.948
587.63
323.738
325.08
327.767
331.802
337.194
343.949
352.078
361.591
372.498
384.81
398.537
413.687
430.268
448.289
467.755
488.672
511.043
534.872
560.161
586.913
321.511
322.87
325.591
329.677
335.133
341.965
350.181
359.788
370.794
383.208
397.037
412.289
428.971
447.088
466.647
487.651
510.105
534.011
559.372
586.191
)
;
    }
    coldSide
    {
        type            mixed;
        refValue        uniform 300;
        refGradient     uniform 0;
        valueFraction   uniform 0.991591;
        source          uniform 0;
        value           nonuniform List<scalar> 
400
(
300.012
300.026
300.053
300.035
300.036
300.032
300.029
300.028
300.029
300.025
300.03
300.048
300.031
300.041
300.042
300.03
300.053
300.044
300.051
300.039
300.017
300.027
300.033
300.026
300.047
300.034
300.028
300.009
300.029
300.036
300.02
300.035
300.045
300.036
300.046
300.032
300.031
300.04
300.029