/*--------------------------------*- C++ -*----------------------------------*\
| =========                 |                                                 |
| \\      /  F ield         | OpenFOAM: The Open Source CFD Toolbox           |
|  \\    /   O peration     | Version:  2212                                  |
|   \\  /    A nd           | Website:  www.openfoam.com                      |
|    \\/     M anipulation  |                                                 |
\*---------------------------------------------------------------------------*/
FoamFile
{
    version     2.0;
    format      ascii;
    arch        "LSB;label=32;scalar=64";
    class       volScalarField;
    location    "0";
    object      Tdirect;
}
// * * * * * * * * * * * * * * * * * * * * * * * * * * * * * * * * * * * * * //

dimensions      [0 0 0 1 0 0 0];

internalField   nonuniform List<scalar> 
3200
(
342.672
343.656
344.913
346.282
347.693
349.077
350.355
351.433
352.219
352.634
352.634
352.219
351.433
350.355
349.077
347.693
346.282
344.913
343.656
342.672
337.017
337.85
338.934
340.118
341.339
342.536
343.641
344.573
345.251
345.61
345.61
345.251
344.573
343.641
342.536
341.339
340.118
338.934
337.85
337.017
331.348
332.039
332.952
333.953
334.984
335.996
336.929
337.715
338.288
338.59
338.59
338.288
337.715
336.929
335.996
334.984
333.953
332.952
332.039
331.348
325.668
326.224
326.968
327.786
328.629
329.456
330.218
330.86
331.327
331.574
331.574
331.327
330.86
330.218
329.456
328.629
327.786
326.968
326.224
325.668
319.978
320.406
320.983
321.618
322.274
322.916
323.508
324.007
324.369
324.561
324.561
324.369
324.007
323.508
322.916
322.274
321.618
320.983
320.406
319.978
314.282
314.584
314.996
315.45
315.918
316.376
316.799
317.155
317.414
317.55
317.55
317.414
317.155
316.799
316.376
315.918
315.45
314.996
314.584
314.282
308.581
308.761
309.008
309.281
309.562
309.837
310.091
310.304
310.459
310.541
310.541
310.459
310.304
310.091
309.837
309.562
309.281
309.008
308.761
308.581
302.877
302.937
303.02
303.111
303.205
303.297
303.382
303.454
303.506
303.533
303.533
303.506
303.454
303.382
303.297
303.205
303.111
303.02
302.937
302.877
342.773
343.749
344.994
346.351
347.747
349.116
350.379
351.444
352.219
352.629
352.629
352.219
351.444
350.379
349.116
347.747
346.351
344.994
343.749
342.773
337.103
337.93
339.004
340.178
341.386
342.57
343.662
344.582
345.252
345.606
345.606
345.252
344.582
343.662
342.57
341.386
340.178
339.004
337.93
337.103
331.421
332.106
333.012
334.003
335.024
336.025
336.947
337.723
338.289
338.587
338.587
338.289
337.723
336.947
336.025
335.024
334.003
333.012
332.106
331.421
325.727
326.279
327.017
327.827
328.662
329.48
330.233
330.867
331.328
331.572
331.572
331.328
330.867
330.233
329.48
328.662
327.827
327.017
326.279
325.727
320.025
320.448
321.021
321.65
322.299
322.935
323.52
324.012
324.37
324.559
324.559
324.37
324.012
323.52
322.935
322.299
321.65
321.021
320.448
320.025
314.315
314.615
315.023
315.473
315.936
316.39
316.807
317.159
317.414
317.549
317.549
317.414
317.159
316.807
316.39
315.936
315.473
315.023
314.615
314.315
308.601
308.78
309.024
309.294
309.572
309.845
310.096
310.307
310.46
310.541
310.541
310.46
310.307
310.096
309.845
309.572
309.294
309.024
308.78
308.601
302.883
302.943
303.025
303.116
303.209
303.3
303.384
303.455
303.506
303.533
303.533
303.506
303.455
303.384
303.3
303.209
303.116
303.025
302.943
302.883
342.974
343.934
345.159
346.49
347.858
349.198
350.431
351.47
352.226
352.625
352.625
352.226
351.47
350.431
349.198
347.858
346.49
345.159
343.934
342.974
337.277
338.091
339.147
340.299
341.482
342.641
343.708
344.606
345.259
345.603
345.603
345.259
344.606
343.708
342.641
341.482
340.299
339.147
338.091
337.277
331.568
332.242
333.132
334.105
335.106
336.085
336.986
337.744
338.295
338.585
338.585
338.295
337.744
336.986
336.085
335.106
334.105
333.132
332.242
331.568
325.847
326.39
327.115
327.911
328.729
329.529
330.265
330.884
331.333
331.571
331.571
331.333
330.884
330.265
329.529
328.729
327.911
327.115
326.39
325.847
320.118
320.535
321.097
321.715
322.351
322.973
323.545
324.025
324.375
324.559
324.559
324.375
324.025
323.545
322.973
322.351
321.715
321.097
320.535
320.118
314.382
314.677
315.078
315.519
315.973
316.417
316.825
317.168
317.418
317.549
317.549
317.418
317.168
316.825
316.417
315.973
315.519
315.078
314.677
314.382
308.641
308.817
309.057
309.322
309.595
309.861
310.106
310.312
310.462
310.541
310.541
310.462
310.312
310.106
309.861
309.595
309.322
309.057
308.817
308.641
302.897
302.956
303.036
303.125
303.216
303.306
303.388
303.457
303.507
303.533
303.533
303.507
303.457
303.388
303.306
303.216
303.125
303.036
302.956
302.897
343.278
344.216
345.41
346.705
348.032
349.329
350.521
351.522
352.25
352.633
352.633
352.25
351.522
350.521
349.329
348.032
346.705
345.41
344.216
343.278
337.54
338.334
339.364
340.484
341.633
342.755
343.786
344.652
345.28
345.611
345.611
345.28
344.652
343.786
342.755
341.633
340.484
339.364
338.334
337.54
331.789
332.448
333.316
334.263
335.234
336.182
337.052
337.783
338.313
338.593
338.593
338.313
337.783
337.052
336.182
335.234
334.263
333.316
332.448
331.789
326.028
326.559
327.266
328.04
328.833
329.608
330.319
330.916
331.349
331.578
331.578
331.349
330.916
330.319
329.608
328.833
328.04
327.266
326.559
326.028
320.258
320.666
321.214
321.815
322.433
323.035
323.587
324.051
324.387
324.564
324.564
324.387
324.051
323.587
323.035
322.433
321.815
321.214
320.666
320.258
314.482
314.77
315.161
315.591
316.031
316.461
316.856
317.187
317.427
317.553
317.553
317.427
317.187
316.856
316.461
316.031
315.591
315.161
314.77
314.482
308.701
308.873
309.107
309.365
309.63
309.888
310.125
310.323
310.467
310.543
310.543
310.467
310.323
310.125
309.888
309.63
309.365
309.107
308.873
308.701
302.917
302.974
303.053
303.139
303.228
303.315
303.394
303.46
303.509
303.534
303.534
303.509
303.46
303.394
303.315
303.228
303.139
303.053
302.974
302.917
343.688
344.598
345.752
347.001
348.277
349.52
350.659
351.614
352.306
352.67
352.67
352.306
351.614
350.659
349.52
348.277
347.001
345.752
344.598
343.688
337.895
338.665
339.66
340.741
341.846
342.921
343.906
344.731
345.33
345.644
345.644
345.33
344.731
343.906
342.921
341.846
340.741
339.66
338.665
337.895
332.089
332.727
333.566
334.479
335.413
336.322
337.154
337.851
338.356
338.622
338.622
338.356
337.851
337.154
336.322
335.413
334.479
333.566
332.727
332.089
326.272
326.787
327.471
328.217
328.98
329.723
330.403
330.973
331.385
331.602
331.602
331.385
330.973
330.403
329.723
328.98
328.217
327.471
326.787
326.272
320.448
320.843
321.373
321.953
322.547
323.124
323.653
324.095
324.415
324.584
324.584
324.415
324.095
323.653
323.124
322.547
321.953
321.373
320.843
320.448
314.617
314.897
315.275
315.689
316.113
316.525
316.903
317.218
317.447
317.567
317.567
317.447
317.218
316.903
316.525
316.113
315.689
315.275
314.897
314.617
308.782
308.949
309.176
309.424
309.679
309.926
310.153
310.342
310.48
310.552
310.552
310.48
310.342
310.153
309.926
309.679
309.424
309.176
308.949
308.782
302.944
303
303.076
303.159
303.245
303.327
303.403
303.467
303.513
303.537
303.537
303.513
303.467
303.403
303.327
303.245
303.159
303.076
303
302.944
344.208
345.084
346.192
347.386
348.602
349.782
350.859
351.76
352.411
352.754
352.754
352.411
351.76
350.859
349.782
348.602
347.386
346.192
345.084
344.208
338.344
339.085
340.041
341.074
342.127
343.148
344.08
344.859
345.422
345.718
345.718
345.422
344.859
344.08
343.148
342.127
341.074
340.041
339.085
338.344
332.468
333.083
333.888
334.761
335.651
336.515
337.302
337.96
338.436
338.685
338.685
338.436
337.96
337.302
336.515
335.651
334.761
333.888
333.083
332.468
326.582
327.077
327.733
328.447
329.175
329.881
330.525
331.062
331.45
331.654
331.654
331.45
331.062
330.525
329.881
329.175
328.447
327.733
327.077
326.582
320.689
321.068
321.578
322.133
322.698
323.247
323.747
324.165
324.467
324.625
324.625
324.467
324.165
323.747
323.247
322.698
322.133
321.578
321.068
320.689
314.789
315.058
315.421
315.817
316.221
316.613
316.97
317.269
317.484
317.597
317.597
317.484
317.269
316.97
316.613
316.221
315.817
315.421
315.058
314.789
308.885
309.046
309.263
309.501
309.744
309.979
310.194
310.373
310.502
310.57
310.57
310.502
310.373
310.194
309.979
309.744
309.501
309.263
309.046
308.885
302.979
303.032
303.105
303.185
303.266
303.345
303.417
303.477
303.52
303.543
303.543
303.52
303.477
303.417
303.345
303.266
303.185
303.105
303.032
302.979
344.842
345.679
346.735
347.868
349.017
350.128
351.138
351.98
352.587
352.905
352.905
352.587
351.98
351.138
350.128
349.017
347.868
346.735
345.679
344.842
338.892
339.6
340.511
341.492
342.487
343.448
344.322
345.051
345.575
345.851
345.851
345.575
345.051
344.322
343.448
342.487
341.492
340.511
339.6
338.892
332.93
333.518
334.285
335.114
335.956
336.769
337.507
338.122
338.566
338.798
338.798
338.566
338.122
337.507
336.769
335.956
335.114
334.285
333.518
332.93
326.96
327.433
328.058
328.736
329.424
330.089
330.693
331.195
331.557
331.747
331.747
331.557
331.195
330.693
330.089
329.424
328.736
328.058
327.433
326.96
320.982
321.345
321.83
322.357
322.892
323.409
323.878
324.269
324.55
324.698
324.698
324.55
324.269
323.878
323.409
322.892
322.357
321.83
321.345
320.982
314.998
315.255
315.601
315.978
316.36
316.729
317.064
317.343
317.544
317.649
317.649
317.544
317.343
317.064
316.729
316.36
315.978
315.601
315.255
314.998
309.011
309.164
309.372
309.598
309.827
310.049
310.25
310.417
310.538
310.601
310.601
310.538
310.417
310.25
310.049
309.827
309.598
309.372
309.164
309.011
303.021
303.072
303.142
303.217
303.294
303.368
303.436
303.492
303.532
303.554
303.554
303.532
303.492
303.436
303.368
303.294
303.217
303.142
303.072
303.021
345.594
346.389
347.388
348.457
349.535
350.572
351.511
352.291
352.851
353.145
353.145
352.851
352.291
351.511
350.572
349.535
348.457
347.388
346.389
345.594
339.541
340.215
341.077
342.001
342.935
343.833
344.646
345.321
345.806
346.06
346.06
345.806
345.321
344.646
343.833
342.935
342.001
341.077
340.215
339.541
333.479
334.037
334.763
335.545
336.335
337.094
337.781
338.351
338.761
338.976
338.976
338.761
338.351
337.781
337.094
336.335
335.545
334.763
334.037
333.479
327.408
327.857
328.449
329.088
329.734
330.355
330.917
331.383
331.718
331.893
331.893
331.718
331.383
330.917
330.355
329.734
329.088
328.449
327.857
327.408
321.33
321.675
322.134
322.631
323.133
323.616
324.053
324.415
324.675
324.811
324.811
324.675
324.415
324.053
323.616
323.133
322.631
322.134
321.675
321.33
315.247
315.491
315.818
316.173
316.532
316.877
317.189
317.447
317.633
317.73
317.73
317.633
317.447
317.189
316.877
316.532
316.173
315.818
315.491
315.247
309.16
309.306
309.502
309.715
309.93
310.138
310.325
310.48
310.592
310.65
310.65
310.592
310.48
310.325
310.138
309.93
309.715
309.502
309.306
309.16
303.071
303.119
303.185
303.257
303.329
303.398
303.461
303.513
303.55
303.57
303.57
303.55
303.513
303.461
303.398
303.329
303.257
303.185
303.119
303.071
346.469
347.22
348.16
349.16
350.165
351.126
351.993
352.71
353.224
353.493
353.493
353.224
352.71
351.993
351.126
350.165
349.16
348.16
347.22
346.469
340.298
340.934
341.745
342.61
343.481
344.313
345.064
345.684
346.129
346.362
346.362
346.129
345.684
345.064
344.313
343.481
342.61
341.745
340.934
340.298
334.117
334.645
335.328
336.06
336.796
337.5
338.135
338.659
339.035
339.232
339.232
339.035
338.659
338.135
337.5
336.796
336.06
335.328
334.645
334.117
327.929
328.354
328.911
329.51
330.111
330.687
331.206
331.635
331.942
332.103
332.103
331.942
331.635
331.206
330.687
330.111
329.51
328.911
328.354
327.929
321.735
322.061
322.493
322.958
323.427
323.875
324.278
324.611
324.85
324.975
324.975
324.85
324.611
324.278
323.875
323.427
322.958
322.493
322.061
321.735
315.536
315.767
316.075
316.407
316.742
317.062
317.35
317.588
317.758
317.847
317.847
317.758
317.588
317.35
317.062
316.742
316.407
316.075
315.767
315.536
309.333
309.471
309.656
309.855
310.056
310.248
310.422
310.564
310.667
310.72
310.72
310.667
310.564
310.422
310.248
310.056
309.855
309.656
309.471
309.333
303.129
303.175
303.237
303.304
303.371
303.435
303.493
303.541
303.576
303.594
303.594
303.576
303.541
303.493
303.435
303.371
303.304
303.237
303.175
303.129
347.471
348.177
349.057
349.988
350.918
351.804
352.599
353.254
353.722
353.966
353.966
353.722
353.254
352.599
351.804
350.918
349.988
349.057
348.177
347.471
341.164
341.762
342.521
343.327
344.133
344.9
345.589
346.156
346.561
346.772
346.772
346.561
346.156
345.589
344.9
344.133
343.327
342.521
341.762
341.164
334.849
335.345
335.984
336.666
337.348
337.997
338.579
339.058
339.401
339.579
339.579
339.401
339.058
338.579
337.997
337.348
336.666
335.984
335.345
334.849
328.527
328.926
329.447
330.005
330.562
331.093
331.57
331.962
332.241
332.387
332.387
332.241
331.962
331.57
331.093
330.562
330.005
329.447
328.926
328.527
322.199
322.506
322.91
323.343
323.777
324.19
324.561
324.865
325.083
325.196
325.196
325.083
324.865
324.561
324.19
323.777
323.343
322.91
322.506
322.199
315.867
316.084
316.373
316.682
316.992
317.287
317.552
317.769
317.925
318.006
318.006
317.925
317.769
317.552
317.287
316.992
316.682
316.373
316.084
315.867
309.532
309.662
309.835
310.021
310.207
310.384
310.543
310.673
310.767
310.815
310.815
310.767
310.673
310.543
310.384
310.207
310.021
309.835
309.662
309.532
303.196
303.239
303.297
303.359
303.421
303.481
303.534
303.578
303.609
303.625
303.625
303.609
303.578
303.534
303.481
303.421
303.359
303.297
303.239
303.196
348.606
349.266
350.085
350.947
351.804
352.616
353.341
353.936
354.359
354.58
354.58
354.359
353.936
353.341
352.616
351.804
350.947
350.085
349.266
348.606
342.145
342.704
343.41
344.157
344.9
345.603
346.231
346.746
347.113
347.304
347.304
347.113
346.746
346.231
345.603
344.9
344.157
343.41
342.704
342.145
335.678
336.141
336.736
337.368
337.996
338.591
339.123
339.558
339.868
340.03
340.03
339.868
339.558
339.123
338.591
337.996
337.368
336.736
336.141
335.678
329.204
329.577
330.062
330.579
331.093
331.58
332.014
332.37
332.624
332.756
332.756
332.624
332.37
332.014
331.58
331.093
330.579
330.062
329.577
329.204
322.725
323.011
323.388
323.79
324.189
324.568
324.906
325.183
325.38
325.483
325.483
325.38
325.183
324.906
324.568
324.189
323.79
323.388
323.011
322.725
316.243
316.445
316.714
317.001
317.286
317.557
317.799
317.996
318.137
318.211
318.211
318.137
317.996
317.799
317.557
317.286
317.001
316.714
316.445
316.243
309.758
309.879
310.04
310.212
310.384
310.546
310.691
310.81
310.895
310.939
310.939
310.895
310.81
310.691
310.546
310.384
310.212
310.04
309.879
309.758
303.271
303.311
303.365
303.423
303.481
303.535
303.584
303.624
303.652
303.667
303.667
303.652
303.624
303.584
303.535
303.481
303.423
303.365
303.311
303.271
349.876
350.491
351.25
352.045
352.831
353.572
354.23
354.767
355.149
355.347
355.347
355.149
354.767
354.23
353.572
352.831
352.045
351.25
350.491
349.876
343.244
343.764
344.419
345.108
345.789
346.431
347.001
347.467
347.797
347.969
347.969
347.797
347.467
347.001
346.431
345.789
345.108
344.419
343.764
343.244
336.606
337.037
337.589
338.171
338.748
339.291
339.773
340.167
340.447
340.592
340.592
340.447
340.167
339.773
339.291
338.748
338.171
337.589
337.037
336.606
329.962
330.309
330.759
331.236
331.707
332.152
332.546
332.868
333.097
333.216
333.216
333.097
332.868
332.546
332.152
331.707
331.236
330.759
330.309
329.962
323.314
323.581
323.93
324.3
324.667
325.013
325.32
325.57
325.748
325.841
325.841
325.748
325.57
325.32
325.013
324.667
324.3
323.93
323.581
323.314
316.663
316.852
317.101
317.366
317.628
317.875
318.094
318.273
318.4
318.466
318.466
318.4
318.273
318.094
317.875
317.628
317.366
317.101
316.852
316.663
310.01
310.123
310.272
310.431
310.588
310.737
310.869
310.976
311.052
311.092
311.092
311.052
310.976
310.869
310.737
310.588
310.431
310.272
310.123
310.01
303.356
303.393
303.443
303.497
303.549
303.599
303.643
303.679
303.705
303.718
303.718
303.705
303.679
303.643
303.599
303.549
303.497
303.443
303.393
303.356
351.286
351.857
352.558
353.288
354.006
354.679
355.274
355.758
356.101
356.278
356.278
356.101
355.758
355.274
354.679
354.006
353.288
352.558
351.857
351.286
344.464
344.946
345.551
346.184
346.806
347.389
347.905
348.324
348.621
348.775
348.775
348.621
348.324
347.905
347.389
346.806
346.184
345.551
344.946
344.464
337.636
338.036
338.545
339.081
339.607
340.101
340.537
340.892
341.143
341.274
341.274
341.143
340.892
340.537
340.101
339.607
339.081
338.545
338.036
337.636
330.804
331.126
331.541
331.979
332.41
332.814
333.171
333.461
333.667
333.773
333.773
333.667
333.461
333.171
332.814
332.41
331.979
331.541
331.126
330.804
323.968
324.215
324.538
324.878
325.213
325.528
325.806
326.031
326.191
326.274
326.274
326.191
326.031
325.806
325.528
325.213
324.878
324.538
324.215
323.968
317.13
317.305
317.535
317.778
318.018
318.242
318.441
318.602
318.717
318.776
318.776
318.717
318.602
318.441
318.242
318.018
317.778
317.535
317.305
317.13
310.29
310.395
310.533
310.679
310.823
310.958
311.077
311.174
311.242
311.278
311.278
311.242
311.174
311.077
310.958
310.823
310.679
310.533
310.395
310.29
303.45
303.484
303.531
303.58
303.628
303.673
303.713
303.746
303.769
303.78
303.78
303.769
303.746
303.713
303.673
303.628
303.58
303.531
303.484
303.45
352.838
353.365
354.011
354.679
355.333
355.943
356.479
356.914
357.221
357.379
357.379
357.221
356.914
356.479
355.943
355.333
354.679
354.011
353.365
352.838
345.805
346.252
346.808
347.388
347.954
348.483
348.948
349.325
349.59
349.728
349.728
349.59
349.325
348.948
348.483
347.954
347.388
346.808
346.252
345.805
338.769
339.139
339.608
340.098
340.578
341.025
341.419
341.738
341.963
342.079
342.079
341.963
341.738
341.419
341.025
340.578
340.098
339.608
339.139
338.769
331.73
332.027
332.41
332.811
333.203
333.569
333.892
334.152
334.336
334.432
334.432
334.336
334.152
333.892
333.569
333.203
332.811
332.41
332.027
331.73
324.688
324.916
325.213
325.525
325.83
326.115
326.366
326.569
326.712
326.786
326.786
326.712
326.569
326.366
326.115
325.83
325.525
325.213
324.916
324.688
317.644
317.806
318.017
318.24
318.458
318.662
318.841
318.986
319.088
319.141
319.141
319.088
318.986
318.841
318.662
318.458
318.24
318.017
317.806
317.644
310.599
310.695
310.822
310.956
311.087
311.209
311.317
311.404
311.466
311.497
311.497
311.466
311.404
311.317
311.209
311.087
310.956
310.822
310.695
310.599
303.553
303.585
303.628
303.673
303.716
303.757
303.794
303.823
303.843
303.854
303.854
303.843
303.823
303.794
303.757
303.716
303.673
303.628
303.585
303.553
354.531
355.017
355.61
356.221
356.814
357.365
357.848
358.237
358.511
358.653
358.653
358.511
358.237
357.848
357.365
356.814
356.221
355.61
355.017
354.531
347.269
347.681
348.192
348.721
349.236
349.714
350.132
350.47
350.707
350.83
350.83
350.707
350.47
350.132
349.714
349.236
348.721
348.192
347.681
347.269
340.005
340.346
340.777
341.225
341.661
342.065
342.419
342.705
342.906
343.01
343.01
342.906
342.705
342.419
342.065
341.661
341.225
340.777
340.346
340.005
332.739
333.014
333.365
333.731
334.088
334.419
334.709
334.943
335.107
335.192
335.192
335.107
334.943
334.709
334.419
334.088
333.731
333.365
333.014
332.739
325.472
325.683
325.955
326.24
326.518
326.775
327.001
327.183
327.311
327.377
327.377
327.311
327.183
327.001
326.775
326.518
326.24
325.955
325.683
325.472
318.204
318.353
318.547
318.751
318.949
319.133
319.295
319.425
319.516
319.563
319.563
319.516
319.425
319.295
319.133
318.949
318.751
318.547
318.353
318.204
310.935
311.024
311.14
311.263
311.382
311.492
311.589
311.667
311.722
311.751
311.751
311.722
311.667
311.589
311.492
311.382
311.263
311.14
311.024
310.935
303.666
303.695
303.734
303.775
303.815
303.852
303.885
303.911
303.929
303.939
303.939
303.929
303.911
303.885
303.852
303.815
303.775
303.734
303.695
303.666
356.36
356.807
357.35
357.907
358.446
358.943
359.376
359.725
359.969
360.095
360.095
359.969
359.725
359.376
358.943
358.446
357.907
357.35
356.807
356.36
348.849
349.228
349.696
350.179
350.646
351.077
351.453
351.755
351.967
352.076
352.076
351.967
351.755
351.453
351.077
350.646
350.179
349.696
349.228
348.849
341.338
341.652
342.047
342.455
342.851
343.216
343.534
343.79
343.969
344.062
344.062
343.969
343.79
343.534
343.216
342.851
342.455
342.047
341.652
341.338
333.828
334.08
334.402
334.736
335.06
335.359
335.619
335.829
335.976
336.052
336.052
335.976
335.829
335.619
335.359
335.06
334.736
334.402
334.08
333.828
326.317
326.511
326.761
327.021
327.273
327.505
327.708
327.871
327.985
328.044
328.044
327.985
327.871
327.708
327.505
327.273
327.021
326.761
326.511
326.317
318.807
318.944
319.122
319.308
319.488
319.654
319.799
319.916
319.997
320.039
320.039
319.997
319.916
319.799
319.654
319.488
319.308
319.122
318.944
318.807
311.297
311.379
311.486
311.597
311.705
311.805
311.892
311.962
312.011
312.037
312.037
312.011
311.962
311.892
311.805
311.705
311.597
311.486
311.379
311.297
303.787
303.814
303.85
303.887
303.924
303.957
303.986
304.01
304.026
304.035
304.035
304.026
304.01
303.986
303.957
303.924
303.887
303.85
303.814
303.787
358.305
358.717
359.214
359.721
360.209
360.658
361.047
361.359
361.577
361.689
361.689
361.577
361.359
361.047
360.658
360.209
359.721
359.214
358.717
358.305
350.527
350.875
351.304
351.744
352.167
352.556
352.894
353.165
353.354
353.451
353.451
353.354
353.165
352.894
352.556
352.167
351.744
351.304
350.875
350.527
342.752
343.041
343.402
343.774
344.133
344.463
344.749
344.978
345.138
345.22
345.22
345.138
344.978
344.749
344.463
344.133
343.774
343.402
343.041
342.752
334.98
335.213
335.507
335.812
336.105
336.375
336.61
336.797
336.928
336.996
336.996
336.928
336.797
336.61
336.375
336.105
335.812
335.507
335.213
334.98
327.211
327.389
327.618
327.855
328.084
328.294
328.476
328.622
328.724
328.777
328.777
328.724
328.622
328.476
328.294
328.084
327.855
327.618
327.389
327.211
319.444
319.57
319.734
319.903
320.066
320.216
320.347
320.451
320.524
320.562
320.562
320.524
320.451
320.347
320.216
320.066
319.903
319.734
319.57
319.444
311.679
311.754
311.852
311.954
312.052
312.142
312.221
312.283
312.327
312.35
312.35
312.327
312.283
312.221
312.142
312.052
311.954
311.852
311.754
311.679
303.915
303.94
303.973
304.007
304.04
304.07
304.096
304.117
304.132
304.14
304.14
304.132
304.117
304.096
304.07
304.04
304.007
303.973
303.94
303.915
360.318
360.696
361.151
361.614
362.058
362.463
362.814
363.093
363.289
363.389
363.389
363.289
363.093
362.814
362.463
362.058
361.614
361.151
360.696
360.318
352.255
352.575
352.968
353.369
353.754
354.106
354.411
354.654
354.823
354.91
354.91
354.823
354.654
354.411
354.106
353.754
353.369
352.968
352.575
352.255
344.202
344.467
344.799
345.139
345.465
345.763
346.021
346.227
346.37
346.444
346.444
346.37
346.227
346.021
345.763
345.465
345.139
344.799
344.467
344.202
336.158
336.371
336.642
336.92
337.187
337.432
337.643
337.812
337.929
337.99
337.99
337.929
337.812
337.643
337.432
337.187
336.92
336.642
336.371
336.158
328.122
328.286
328.496
328.712
328.92
329.11
329.275
329.406
329.498
329.545
329.545
329.498
329.406
329.275
329.11
328.92
328.712
328.496
328.286
328.122
320.092
320.208
320.358
320.512
320.661
320.797
320.915
321.009
321.074
321.108
321.108
321.074
321.009
320.915
320.797
320.661
320.512
320.358
320.208
320.092
312.067
312.136
312.226
312.319
312.408
312.49
312.561
312.617
312.657
312.677
312.677
312.657
312.617
312.561
312.49
312.408
312.319
312.226
312.136
312.067
304.045
304.068
304.098
304.129
304.159
304.186
304.21
304.229
304.242
304.249
304.249
304.242
304.229
304.21
304.186
304.159
304.129
304.098
304.068
304.045
362.266
362.616
363.036
363.461
363.866
364.236
364.554
364.808
364.984
365.074
365.074
364.984
364.808
364.554
364.236
363.866
363.461
363.036
362.616
362.266
353.907
354.203
354.566
354.935
355.288
355.609
355.886
356.106
356.26
356.338
356.338
356.26
356.106
355.886
355.609
355.288
354.935
354.566
354.203
353.907
345.573
345.819
346.125
346.438
346.737
347.01
347.245
347.432
347.562
347.629
347.629
347.562
347.432
347.245
347.01
346.737
346.438
346.125
345.819
345.573
337.261
337.459
337.71
337.966
338.211
338.435
338.627
338.781
338.887
338.942
338.942
338.887
338.781
338.627
338.435
338.211
337.966
337.71
337.459
337.261
328.968
329.121
329.315
329.515
329.706
329.88
330.03
330.15
330.233
330.276
330.276
330.233
330.15
330.03
329.88
329.706
329.515
329.315
329.121
328.968
320.691
320.799
320.937
321.08
321.217
321.342
321.449
321.535
321.594
321.625
321.625
321.594
321.535
321.449
321.342
321.217
321.08
320.937
320.799
320.691
312.424
312.488
312.572
312.657
312.74
312.815
312.879
312.931
312.966
312.985
312.985
312.966
312.931
312.879
312.815
312.74
312.657
312.572
312.488
312.424
304.164
304.185
304.213
304.242
304.27
304.295
304.317
304.334
304.346
304.352
304.352
304.346
304.334
304.317
304.295
304.27
304.242
304.213
304.185
304.164
363.803
364.132
364.527
364.926
365.305
365.65
365.946
366.181
366.345
366.429
366.429
366.345
366.181
365.946
365.65
365.305
364.926
364.527
364.132
363.803
355.161
355.44
355.783
356.13
356.461
356.762
357.02
357.225
357.368
357.441
357.441
357.368
357.225
357.02
356.762
356.461
356.13
355.783
355.44
355.161
346.581
346.814
347.103
347.399
347.68
347.936
348.156
348.33
348.452
348.514
348.514
348.452
348.33
348.156
347.936
347.68
347.399
347.103
346.814
346.581
338.053
338.24
338.477
338.72
338.951
339.161
339.342
339.485
339.585
339.636
339.636
339.585
339.485
339.342
339.161
338.951
338.72
338.477
338.24
338.053
329.564
329.709
329.893
330.082
330.263
330.427
330.568
330.68
330.758
330.798
330.798
330.758
330.68
330.568
330.427
330.263
330.082
329.893
329.709
329.564
321.106
321.209
321.34
321.476
321.605
321.723
321.824
321.904
321.96
321.988
321.988
321.96
321.904
321.824
321.723
321.605
321.476
321.34
321.209
321.106
312.67
312.731
312.81
312.891
312.969
313.04
313.101
313.149
313.183
313.2
313.2
313.183
313.149
313.101
313.04
312.969
312.891
312.81
312.731
312.67
304.246
304.266
304.293
304.32
304.346
304.37
304.39
304.406
304.418
304.423
304.423
304.418
304.406
304.39
304.37
304.346
304.32
304.293
304.266
304.246
)
;

boundaryField
{
    hotSide
    {
        type            fixedGradient;
        gradient        nonuniform List<scalar> 
400
(
451.174
452.277
454.492
457.84
462.351
468.061
475.011
483.248
492.819
503.771
516.149
529.997
545.354
562.257
580.735
600.815
622.521
645.869
670.875
697.548
464.124
465.123
467.137
470.192
474.328
479.592
486.04
493.731
502.726
513.085
524.865
538.12
552.896
569.236
587.177
606.748
627.973
650.873
675.461
701.749
478.137
479.015
480.789
483.496
487.188
491.927
497.787
504.844
513.175
522.856
533.958
546.544
560.672
576.391
593.743
612.76
633.468
655.888
680.034
705.915
492.984
493.719
495.214
497.518
500.697
504.835
510.025
516.363
523.949
532.874
543.225
555.08
568.505
583.556
600.279
618.71
638.876
660.798
684.487
709.953
508.248
508.823
510.005
511.857
514.465
517.937
522.389
527.943
534.719
542.832
552.384
563.466
576.154
590.512
606.588
624.422
644.04
665.461
688.696
713.75
523.293
523.696
524.544
525.915
527.918
530.687
534.365
539.103
545.045
552.326
561.067
571.37
583.323
596.994
612.436
629.688
648.777
669.718
692.521
717.186
537.258
537.49
538.004
538.896
540.301
542.378
545.3
549.244
554.381
560.866
568.835
578.406
589.671
602.705
617.563
634.283
652.891
673.399
695.814
720.133
549.11
549.188
549.401
549.864
550.733
552.194
554.446
557.692
562.124
567.917
575.221
584.162
594.842
607.338
621.704
637.98
656.188
676.339
698.435
722.47
557.784
557.743
557.727
557.862
558.323
559.316
561.062
563.783
567.689
572.966
579.778
588.256
598.507
610.61
624.62
640.575
658.495
678.39
700.259
724.094
562.38
562.274
562.133
562.09
562.33
563.07
564.543
566.981
570.603
575.605
582.154
590.386
600.41
612.305
626.127
641.914
659.684
679.446
701.196
724.926
562.38
562.274
562.133
562.09
562.33
563.07
564.543
566.981
570.603
575.605
582.154
590.386
600.41
612.305
626.127
641.914
659.684
679.446
701.196
724.926
557.784
557.743
557.727
557.862
558.323
559.316
561.062
563.783
567.689
572.966
579.778
588.256
598.507
610.61
624.62
640.575
658.495
678.39
700.259
724.094
549.11
549.188
549.401
549.864
550.733
552.194
554.446
557.692
562.124
567.917
575.221
584.162
594.842
607.338
621.704
637.98
656.188
676.339
698.435
722.47
537.258
537.49
538.004
538.896
540.301
542.378
545.3
549.244
554.381
560.866
568.835
578.406
589.671
602.705
617.563
634.283
652.891
673.399
695.814
720.133
523.293
523.696
524.544
525.915
527.918
530.687
534.365
539.103
545.045
552.326
561.067
571.37
583.323
596.994
612.436
629.688
648.777
669.718
692.521
717.186
508.248
508.823
510.005
511.857
514.465
517.937
522.389
527.943
534.719
542.832
552.384
563.466
576.154
590.512
606.588
624.422
644.04
665.461
688.696
713.75
492.984
493.719
495.214
497.518
500.697
504.835
510.025
516.363
523.949
532.874
543.225
555.08
568.505
583.556
600.279
618.71
638.876
660.798
684.487
709.953
478.137
479.015
480.789
483.496
487.188
491.927
497.787
504.844
513.175
522.856
533.958
546.544
560.672
576.391
593.743
612.76
633.468
655.888
680.034
705.915
464.124
465.123
467.137
470.192
474.328
479.592
486.04
493.731
502.726
513.085
524.865
538.12
552.896
569.236
587.177
606.748
627.973
650.873
675.461
701.749
451.174
452.277
454.492
457.84
462.351
468.061
475.011
483.248
492.819
503.771
516.149
529.997
545.354
562.257
580.735
600.815
622.521
645.869
670.875
697.548
)
;
    }
    coldSide
    {
        type            mixed;
        refValue        uniform 300;
        refGradient     uniform 0;
        valueFraction   uniform 0.991591;
        source          uniform 0;
        value           nonuniform List<scalar> 
400
(
300.024
300.024
300.024
300.025
300.025
300.025
300.025
300.026
300.026
300.027
300.028
300.028
300.029
300.03
300.031
300.032
300.033
300.034
300.035
300.036
300.025
300.025
300.025
300.025
300.025
300.025
300.026
300.026
300.027
300.027
300.028
300.029
300.029
300.03
300.031
300.032