/*--------------------------------*- C++ -*----------------------------------*\
| =========                 |                                                 |
| \\      /  F ield         | OpenFOAM: The Open Source CFD Toolbox           |
|  \\    /   O peration     | Version:  2212                                  |
|   \\  /    A nd           | Website:  www.openfoam.com                      |
|    \\/     M anipulation  |                                                 |
\*---------------------------------------------------------------------------*/
FoamFile
{
    version     2.0;
    format      ascii;
    arch        "LSB;label=32;scalar=64";
    class       volScalarField;
    location    "0";
    object      Tdirect;
}
// * * * * * * * * * * * * * * * * * * * * * * * * * * * * * * * * * * * * * //

dimensions      [0 0 0 1 0 0 0];

internalField   nonuniform List<scalar> 
3200
(
322.571
322.971
323.482
324.039
324.612
325.175
325.695
326.133
326.453
326.621
326.621
326.453
326.133
325.695
325.175
324.612
324.039
323.482
322.971
322.571
319.659
319.997
320.438
320.919
321.416
321.903
322.352
322.731
323.006
323.152
323.152
323.006
322.731
322.352
321.903
321.416
320.919
320.438
319.997
319.659
316.705
316.986
317.357
317.764
318.184
318.595
318.974
319.294
319.527
319.65
319.65
319.527
319.294
318.974
318.595
318.184
317.764
317.357
316.986
316.705
313.718
313.944
314.246
314.579
314.922
315.258
315.567
315.829
316.019
316.119
316.119
316.019
315.829
315.567
315.258
314.922
314.579
314.246
313.944
313.718
310.702
310.875
311.11
311.368
311.635
311.896
312.137
312.339
312.487
312.565
312.565
312.487
312.339
312.137
311.896
311.635
311.368
311.11
310.875
310.702
307.663
307.786
307.954
308.138
308.328
308.515
308.687
308.831
308.937
308.992
308.992
308.937
308.831
308.687
308.515
308.328
308.138
307.954
307.786
307.663
304.61
304.683
304.783
304.894
305.008
305.12
305.223
305.31
305.373
305.407
305.407
305.373
305.31
305.223
305.12
305.008
304.894
304.783
304.683
304.61
301.546
301.571
301.604
301.642
301.68
301.717
301.752
301.781
301.802
301.813
301.813
301.802
301.781
301.752
301.717
301.68
301.642
301.604
301.571
301.546
322.637
323.034
323.54
324.092
324.659
325.216
325.729
326.162
326.478
326.644
326.644
326.478
326.162
325.729
325.216
324.659
324.092
323.54
323.034
322.637
319.716
320.052
320.488
320.966
321.457
321.938
322.382
322.756
323.029
323.172
323.172
323.029
322.756
322.382
321.938
321.457
320.966
320.488
320.052
319.716
316.754
317.033
317.401
317.804
318.219
318.626
319
319.316
319.546
319.667
319.667
319.546
319.316
319
318.626
318.219
317.804
317.401
317.033
316.754
313.757
313.982
314.282
314.611
314.951
315.283
315.589
315.847
316.035
316.134
316.134
316.035
315.847
315.589
315.283
314.951
314.611
314.282
313.982
313.757
310.733
310.905
311.138
311.394
311.657
311.916
312.154
312.354
312.499
312.576
312.576
312.499
312.354
312.154
311.916
311.657
311.394
311.138
310.905
310.733
307.686
307.808
307.974
308.156
308.345
308.529
308.699
308.842
308.946
309.001
309.001
308.946
308.842
308.699
308.529
308.345
308.156
307.974
307.808
307.686
304.623
304.696
304.795
304.905
305.018
305.129
305.231
305.317
305.379
305.412
305.412
305.379
305.317
305.231
305.129
305.018
304.905
304.795
304.696
304.623
301.551
301.575
301.608
301.645
301.683
301.72
301.754
301.783
301.804
301.815
301.815
301.804
301.783
301.754
301.72
301.683
301.645
301.608
301.575
301.551
322.768
323.159
323.657
324.198
324.754
325.299
325.8
326.223
326.53
326.692
326.692
326.53
326.223
325.8
325.299
324.754
324.198
323.657
323.159
322.768
319.83
320.161
320.59
321.059
321.54
322.011
322.445
322.81
323.075
323.215
323.215
323.075
322.81
322.445
322.011
321.54
321.059
320.59
320.161
319.83
316.851
317.126
317.487
317.883
318.29
318.688
319.054
319.362
319.586
319.704
319.704
319.586
319.362
319.054
318.688
318.29
317.883
317.487
317.126
316.851
313.837
314.058
314.353
314.677
315.009
315.334
315.634
315.885
316.068
316.164
316.164
316.068
315.885
315.634
315.334
315.009
314.677
314.353
314.058
313.837
310.795
310.965
311.193
311.445
311.703
311.956
312.188
312.384
312.526
312.601
312.601
312.526
312.384
312.188
311.956
311.703
311.445
311.193
310.965
310.795
307.73
307.85
308.013
308.193
308.378
308.558
308.724
308.863
308.965
309.018
309.018
308.965
308.863
308.724
308.558
308.378
308.193
308.013
307.85
307.73
304.65
304.721
304.819
304.927
305.038
305.146
305.246
305.33
305.39
305.422
305.422
305.39
305.33
305.246
305.146
305.038
304.927
304.819
304.721
304.65
301.56
301.584
301.616
301.653
301.69
301.726
301.759
301.787
301.808
301.819
301.819
301.808
301.787
301.759
301.726
301.69
301.653
301.616
301.584
301.56
322.967
323.348
323.834
324.36
324.9
325.427
325.911
326.319
326.614
326.77
326.77
326.614
326.319
325.911
325.427
324.9
324.36
323.834
323.348
322.967
320.003
320.326
320.745
321.2
321.667
322.123
322.542
322.894
323.15
323.285
323.285
323.15
322.894
322.542
322.123
321.667
321.2
320.745
320.326
320.003
316.998
317.266
317.619
318.004
318.398
318.784
319.138
319.435
319.651
319.764
319.764
319.651
319.435
319.138
318.784
318.398
318.004
317.619
317.266
316.998
313.958
314.174
314.461
314.776
315.098
315.414
315.703
315.945
316.121
316.214
316.214
316.121
315.945
315.703
315.414
315.098
314.776
314.461
314.174
313.958
310.889
311.055
311.278
311.522
311.773
312.018
312.243
312.431
312.568
312.64
312.64
312.568
312.431
312.243
312.018
311.773
311.522
311.278
311.055
310.889
307.798
307.915
308.074
308.249
308.428
308.603
308.763
308.897
308.995
309.046
309.046
308.995
308.897
308.763
308.603
308.428
308.249
308.074
307.915
307.798
304.69
304.76
304.856
304.96
305.068
305.173
305.269
305.35
305.409
305.439
305.439
305.409
305.35
305.269
305.173
305.068
304.96
304.856
304.76
304.69
301.573
301.597
301.629
301.664
301.7
301.735
301.767
301.794
301.814
301.824
301.824
301.814
301.794
301.767
301.735
301.7
301.664
301.629
301.597
301.573
323.233
323.603
324.072
324.58
325.099
325.604
326.067
326.455
326.737
326.885
326.885
326.737
326.455
326.067
325.604
325.099
324.58
324.072
323.603
323.233
320.235
320.548
320.953
321.392
321.841
322.279
322.679
323.015
323.258
323.386
323.386
323.258
323.015
322.679
322.279
321.841
321.392
320.953
320.548
320.235
317.195
317.455
317.796
318.167
318.547
318.916
319.255
319.538
319.743
319.851
319.851
319.743
319.538
319.255
318.916
318.547
318.167
317.796
317.455
317.195
314.12
314.329
314.607
314.91
315.221
315.523
315.799
316.031
316.198
316.287
316.287
316.198
316.031
315.799
315.523
315.221
314.91
314.607
314.329
314.12
311.015
311.176
311.391
311.627
311.869
312.103
312.318
312.498
312.628
312.697
312.697
312.628
312.498
312.318
312.103
311.869
311.627
311.391
311.176
311.015
307.888
308.002
308.156
308.324
308.496
308.664
308.817
308.946
309.039
309.087
309.087
309.039
308.946
308.817
308.664
308.496
308.324
308.156
308.002
307.888
304.745
304.813
304.905
305.006
305.109
305.21
305.302
305.379
305.435
305.464
305.464
305.435
305.379
305.302
305.21
305.109
305.006
304.905
304.813
304.745
301.592
301.614
301.645
301.679
301.714
301.747
301.778
301.804
301.823
301.833
301.833
301.823
301.804
301.778
301.747
301.714
301.679
301.645
301.614
301.592
323.569
323.925
324.376
324.861
325.356
325.835
326.273
326.64
326.904
327.044
327.044
326.904
326.64
326.273
325.835
325.356
324.861
324.376
323.925
323.569
320.528
320.829
321.217
321.638
322.066
322.481
322.86
323.177
323.406
323.526
323.526
323.406
323.177
322.86
322.481
322.066
321.638
321.217
320.829
320.528
317.444
317.694
318.021
318.376
318.738
319.089
319.409
319.677
319.87
319.972
319.972
319.87
319.677
319.409
319.089
318.738
318.376
318.021
317.694
317.444
314.324
314.525
314.792
315.082
315.378
315.665
315.927
316.145
316.303
316.386
316.386
316.303
316.145
315.927
315.665
315.378
315.082
314.792
314.525
314.324
311.174
311.329
311.536
311.762
311.992
312.215
312.418
312.588
312.711
312.775
312.775
312.711
312.588
312.418
312.215
311.992
311.762
311.536
311.329
311.174
308.002
308.111
308.259
308.42
308.585
308.744
308.889
309.01
309.098
309.144
309.144
309.098
309.01
308.889
308.744
308.585
308.42
308.259
308.111
308.002
304.813
304.879
304.967
305.064
305.162
305.258
305.345
305.418
305.471
305.498
305.498
305.471
305.418
305.345
305.258
305.162
305.064
304.967
304.879
304.813
301.615
301.636
301.666
301.698
301.732
301.764
301.793
301.817
301.835
301.844
301.844
301.835
301.817
301.793
301.764
301.732
301.698
301.666
301.636
301.615
323.976
324.317
324.746
325.207
325.674
326.125
326.536
326.878
327.125
327.255
327.255
327.125
326.878
326.536
326.125
325.674
325.207
324.746
324.317
323.976
320.882
321.17
321.54
321.939
322.344
322.735
323.09
323.386
323.6
323.712
323.712
323.6
323.386
323.09
322.735
322.344
321.939
321.54
321.17
320.882
317.745
317.984
318.296
318.633
318.975
319.306
319.606
319.856
320.036
320.131
320.131
320.036
319.856
319.606
319.306
318.975
318.633
318.296
317.984
317.745
314.571
314.763
315.018
315.293
315.573
315.843
316.089
316.293
316.44
316.518
316.518
316.44
316.293
316.089
315.843
315.573
315.293
315.018
314.763
314.571
311.367
311.515
311.712
311.927
312.144
312.354
312.545
312.704
312.818
312.878
312.878
312.818
312.704
312.545
312.354
312.144
311.927
311.712
311.515
311.367
308.14
308.245
308.385
308.538
308.694
308.844
308.98
309.094
309.175
309.218
309.218
309.175
309.094
308.98
308.844
308.694
308.538
308.385
308.245
308.14
304.896
304.959
305.043
305.135
305.228
305.318
305.4
305.468
305.517
305.543
305.543
305.517
305.468
305.4
305.318
305.228
305.135
305.043
304.959
304.896
301.642
301.663
301.692
301.722
301.754
301.784
301.811
301.834
301.85
301.859
301.859
301.85
301.834
301.811
301.784
301.754
301.722
301.692
301.663
301.642
324.456
324.78
325.186
325.62
326.059
326.48
326.862
327.179
327.407
327.526
327.526
327.407
327.179
326.862
326.48
326.059
325.62
325.186
324.78
324.456
321.3
321.574
321.924
322.3
322.68
323.045
323.375
323.65
323.847
323.95
323.95
323.847
323.65
323.375
323.045
322.68
322.3
321.924
321.574
321.3
318.1
318.327
318.622
318.94
319.261
319.57
319.849
320.081
320.248
320.335
320.335
320.248
320.081
319.849
319.57
319.261
318.94
318.622
318.327
318.1
314.863
315.045
315.286
315.546
315.809
316.061
316.289
316.479
316.615
316.686
316.686
316.615
316.479
316.289
316.061
315.809
315.546
315.286
315.045
314.863
311.595
311.735
311.922
312.124
312.328
312.524
312.702
312.849
312.955
313.01
313.01
312.955
312.849
312.702
312.524
312.328
312.124
311.922
311.735
311.595
308.303
308.402
308.536
308.68
308.826
308.966
309.093
309.198
309.273
309.313
309.313
309.273
309.198
309.093
308.966
308.826
308.68
308.536
308.402
308.303
304.994
305.054
305.133
305.22
305.308
305.392
305.468
305.531
305.577
305.6
305.6
305.577
305.531
305.468
305.392
305.308
305.22
305.133
305.054
304.994
301.675
301.695
301.722
301.751
301.78
301.808
301.834
301.855
301.87
301.878
301.878
301.87
301.855
301.834
301.808
301.78
301.751
301.722
301.695
301.675
325.011
325.317
325.699
326.106
326.514
326.905
327.257
327.549
327.758
327.867
327.867
327.758
327.549
327.257
326.905
326.514
326.106
325.699
325.317
325.011
321.783
322.042
322.372
322.724
323.077
323.416
323.721
323.973
324.154
324.249
324.249
324.154
323.973
323.721
323.416
323.077
322.724
322.372
322.042
321.783
318.511
318.725
319.003
319.301
319.6
319.886
320.144
320.357
320.51
320.59
320.59
320.51
320.357
320.144
319.886
319.6
319.301
319.003
318.725
318.511
315.2
315.372
315.599
315.842
316.087
316.321
316.532
316.707
316.831
316.897
316.897
316.831
316.707
316.532
316.321
316.087
315.842
315.599
315.372
315.2
311.858
311.99
312.166
312.355
312.546
312.728
312.892
313.027
313.124
313.175
313.175
313.124
313.027
312.892
312.728
312.546
312.355
312.166
311.99
311.858
308.491
308.585
308.711
308.846
308.982
309.112
309.229
309.326
309.395
309.431
309.431
309.395
309.326
309.229
309.112
308.982
308.846
308.711
308.585
308.491
305.108
305.164
305.239
305.32
305.402
305.48
305.55
305.608
305.65
305.672
305.672
305.65
305.608
305.55
305.48
305.402
305.32
305.239
305.164
305.108
301.713
301.732
301.757
301.784
301.812
301.838
301.862
301.881
301.895
301.902
301.902
301.895
301.881
301.862
301.838
301.812
301.784
301.757
301.732
301.713
325.643
325.93
326.287
326.666
327.044
327.405
327.728
327.994
328.184
328.283
328.283
328.184
327.994
327.728
327.405
327.044
326.666
326.287
325.93
325.643
322.333
322.576
322.885
323.213
323.54
323.852
324.132
324.363
324.527
324.613
324.613
324.527
324.363
324.132
323.852
323.54
323.213
322.885
322.576
322.333
318.978
319.179
319.439
319.717
319.994
320.258
320.494
320.689
320.828
320.901
320.901
320.828
320.689
320.494
320.258
319.994
319.717
319.439
319.179
318.978
315.584
315.746
315.958
316.184
316.411
316.627
316.821
316.98
317.094
317.153
317.153
317.094
316.98
316.821
316.627
316.411
316.184
315.958
315.746
315.584
312.157
312.282
312.446
312.622
312.799
312.967
313.117
313.241
313.329
313.376
313.376
313.329
313.241
313.117
312.967
312.799
312.622
312.446
312.282
312.157
308.706
308.794
308.911
309.037
309.163
309.283
309.391
309.479
309.542
309.575
309.575
309.542
309.479
309.391
309.283
309.163
309.037
308.911
308.794
308.706
305.237
305.289
305.359
305.435
305.511
305.583
305.647
305.7
305.738
305.758
305.758
305.738
305.7
305.647
305.583
305.511
305.435
305.359
305.289
305.237
301.757
301.774
301.798
301.823
301.848
301.873
301.894
301.912
301.925
301.931
301.931
301.925
301.912
301.894
301.873
301.848
301.823
301.798
301.774
301.757
326.353
326.622
326.954
327.305
327.654
327.984
328.278
328.52
328.692
328.782
328.782
328.692
328.52
328.278
327.984
327.654
327.305
326.954
326.622
326.353
322.952
323.179
323.466
323.77
324.072
324.358
324.613
324.822
324.972
325.049
325.049
324.972
324.822
324.613
324.358
324.072
323.77
323.466
323.179
322.952
319.503
319.692
319.934
320.191
320.446
320.688
320.904
321.081
321.207
321.273
321.273
321.207
321.081
320.904
320.688
320.446
320.191
319.934
319.692
319.503
316.015
316.167
316.364
316.574
316.783
316.981
317.158
317.302
317.405
317.459
317.459
317.405
317.302
317.158
316.981
316.783
316.574
316.364
316.167
316.015
312.494
312.61
312.763
312.926
313.089
313.243
313.38
313.493
313.573
313.615
313.615
313.573
313.493
313.38
313.243
313.089
312.926
312.763
312.61
312.494
308.947
309.029
309.138
309.255
309.371
309.481
309.579
309.66
309.717
309.747
309.747
309.717
309.66
309.579
309.481
309.371
309.255
309.138
309.029
308.947
305.382
305.431
305.496
305.566
305.636
305.702
305.761
305.809
305.844
305.862
305.862
305.844
305.809
305.761
305.702
305.636
305.566
305.496
305.431
305.382
301.805
301.822
301.844
301.867
301.89
301.913
301.932
301.949
301.96
301.966
301.966
301.96
301.949
301.932
301.913
301.89
301.867
301.844
301.822
301.805
327.143
327.393
327.702
328.025
328.345
328.646
328.913
329.132
329.287
329.368
329.368
329.287
329.132
328.913
328.646
328.345
328.025
327.702
327.393
327.143
323.64
323.851
324.118
324.398
324.675
324.936
325.167
325.357
325.491
325.561
325.561
325.491
325.357
325.167
324.936
324.675
324.398
324.118
323.851
323.64
320.088
320.263
320.488
320.725
320.959
321.18
321.376
321.536
321.65
321.709
321.709
321.65
321.536
321.376
321.18
320.959
320.725
320.488
320.263
320.088
316.495
316.636
316.819
317.013
317.205
317.385
317.546
317.677
317.77
317.818
317.818
317.77
317.677
317.546
317.385
317.205
317.013
316.819
316.636
316.495
312.868
312.977
313.118
313.269
313.418
313.559
313.684
313.785
313.858
313.895
313.895
313.858
313.785
313.684
313.559
313.418
313.269
313.118
312.977
312.868
309.215
309.292
309.393
309.5
309.607
309.707
309.797
309.869
309.921
309.948
309.948
309.921
309.869
309.797
309.707
309.607
309.5
309.393
309.292
309.215
305.543
305.589
305.649
305.714
305.778
305.838
305.892
305.935
305.967
305.983
305.983
305.967
305.935
305.892
305.838
305.778
305.714
305.649
305.589
305.543
301.859
301.875
301.895
301.917
301.938
301.958
301.976
301.991
302.001
302.007
302.007
302.001
301.991
301.976
301.958
301.938
301.917
301.895
301.875
301.859
328.015
328.247
328.532
328.829
329.121
329.394
329.636
329.833
329.972
330.045
330.045
329.972
329.833
329.636
329.394
329.121
328.829
328.532
328.247
328.015
324.399
324.595
324.841
325.098
325.351
325.588
325.798
325.969
326.089
326.152
326.152
326.089
325.969
325.798
325.588
325.351
325.098
324.841
324.595
324.399
320.733
320.895
321.103
321.32
321.534
321.735
321.913
322.057
322.159
322.212
322.212
322.159
322.057
321.913
321.735
321.534
321.32
321.103
320.895
320.733
317.024
317.155
317.324
317.502
317.677
317.842
317.987
318.105
318.188
318.232
318.232
318.188
318.105
317.987
317.842
317.677
317.502
317.324
317.155
317.024
313.281
313.382
313.513
313.651
313.787
313.915
314.028
314.12
314.185
314.219
314.219
314.185
314.12
314.028
313.915
313.787
313.651
313.513
313.382
313.281
309.511
309.582
309.675
309.774
309.871
309.963
310.043
310.109
310.155
310.18
310.18
310.155
310.109
310.043
309.963
309.871
309.774
309.675
309.582
309.511
305.721
305.763
305.819
305.878
305.937
305.992
306.04
306.08
306.108
306.122
306.122
306.108
306.08
306.04
305.992
305.937
305.878
305.819
305.763
305.721
301.919
301.933
301.952
301.972
301.991
302.01
302.026
302.039
302.049
302.053
302.053
302.049
302.039
302.026
302.01
301.991
301.972
301.952
301.933
301.919
328.968
329.183
329.445
329.717
329.983
330.231
330.449
330.626
330.75
330.815
330.815
330.75
330.626
330.449
330.231
329.983
329.717
329.445
329.183
328.968
325.229
325.41
325.637
325.872
326.103
326.318
326.507
326.66
326.768
326.824
326.824
326.768
326.66
326.507
326.318
326.103
325.872
325.637
325.41
325.229
321.438
321.588
321.779
321.978
322.173
322.355
322.515
322.645
322.736
322.784
322.784
322.736
322.645
322.515
322.355
322.173
321.978
321.779
321.588
321.438
317.603
317.724
317.88
318.043
318.202
318.351
318.482
318.588
318.663
318.702
318.702
318.663
318.588
318.482
318.351
318.202
318.043
317.88
317.724
317.603
313.732
313.825
313.946
314.073
314.197
314.313
314.415
314.497
314.555
314.586
314.586
314.555
314.497
314.415
314.313
314.197
314.073
313.946
313.825
313.732
309.834
309.899
309.986
310.076
310.165
310.248
310.32
310.379
310.421
310.443
310.443
310.421
310.379
310.32
310.248
310.165
310.076
309.986
309.899
309.834
305.915
305.954
306.006
306.06
306.114
306.163
306.207
306.242
306.267
306.28
306.28
306.267
306.242
306.207
306.163
306.114
306.06
306.006
305.954
305.915
301.984
301.997
302.015
302.033
302.051
302.067
302.082
302.094
302.102
302.107
302.107
302.102
302.094
302.082
302.067
302.051
302.033
302.015
301.997
301.984
330.003
330.2
330.441
330.689
330.931
331.155
331.351
331.509
331.621
331.678
331.678
331.621
331.509
331.351
331.155
330.931
330.689
330.441
330.2
330.003
326.129
326.296
326.504
326.719
326.928
327.123
327.293
327.43
327.527
327.576
327.576
327.527
327.43
327.293
327.123
326.928
326.719
326.504
326.296
326.129
322.202
322.341
322.516
322.698
322.875
323.04
323.184
323.3
323.381
323.424
323.424
323.381
323.3
323.184
323.04
322.875
322.698
322.516
322.341
322.202
318.23
318.342
318.485
318.634
318.779
318.913
319.031
319.126
319.193
319.228
319.228
319.193
319.126
319.031
318.913
318.779
318.634
318.485
318.342
318.23
314.221
314.307
314.418
314.534
314.647
314.751
314.843
314.917
314.969
314.996
314.996
314.969
314.917
314.843
314.751
314.647
314.534
314.418
314.307
314.221
310.184
310.244
310.323
310.406
310.487
310.562
310.627
310.68
310.717
310.737
310.737
310.717
310.68
310.627
310.562
310.487
310.406
310.323
310.244
310.184
306.125
306.162
306.209
306.259
306.307
306.352
306.392
306.423
306.446
306.457
306.457
306.446
306.423
306.392
306.352
306.307
306.259
306.209
306.162
306.125
302.055
302.067
302.083
302.099
302.116
302.131
302.144
302.155
302.162
302.166
302.166
302.162
302.155
302.144
302.131
302.116
302.099
302.083
302.067
302.055
331.113
331.295
331.516
331.742
331.961
332.163
332.339
332.481
332.58
332.632
332.632
332.58
332.481
332.339
332.163
331.961
331.742
331.516
331.295
331.113
327.094
327.248
327.439
327.635
327.825
328
328.153
328.276
328.362
328.406
328.406
328.362
328.276
328.153
328
327.825
327.635
327.439
327.248
327.094
323.021
323.149
323.309
323.475
323.636
323.785
323.914
324.018
324.091
324.129
324.129
324.091
324.018
323.914
323.785
323.636
323.475
323.309
323.149
323.021
318.902
319.005
319.136
319.271
319.403
319.525
319.631
319.716
319.775
319.806
319.806
319.775
319.716
319.631
319.525
319.403
319.271
319.136
319.005
318.902
314.745
314.824
314.925
315.031
315.133
315.228
315.31
315.377
315.423
315.447
315.447
315.423
315.377
315.31
315.228
315.133
315.031
314.925
314.824
314.745
310.558
310.614
310.687
310.762
310.835
310.903
310.962
311.009
311.042
311.06
311.06
311.042
311.009
310.962
310.903
310.835
310.762
310.687
310.614
310.558
306.351
306.384
306.427
306.473
306.517
306.557
306.593
306.621
306.641
306.651
306.651
306.641
306.621
306.593
306.557
306.517
306.473
306.427
306.384
306.351
302.13
302.141
302.156
302.171
302.186
302.199
302.211
302.221
302.228
302.231
302.231
302.228
302.221
302.211
302.199
302.186
302.171
302.156
302.141
302.13
332.287
332.454
332.656
332.862
333.061
333.243
333.402
333.528
333.617
333.663
333.663
333.617
333.528
333.402
333.243
333.061
332.862
332.656
332.454
332.287
328.113
328.255
328.429
328.608
328.78
328.938
329.075
329.185
329.262
329.302
329.302
329.262
329.185
329.075
328.938
328.78
328.608
328.429
328.255
328.113
323.884
324.001
324.148
324.3
324.446
324.58
324.696
324.789
324.854
324.888
324.888
324.854
324.789
324.696
324.58
324.446
324.3
324.148
324.001
323.884
319.609
319.703
319.823
319.947
320.066
320.176
320.271
320.347
320.401
320.428
320.428
320.401
320.347
320.271
320.176
320.066
319.947
319.823
319.703
319.609
315.295
315.367
315.46
315.557
315.65
315.735
315.809
315.869
315.91
315.932
315.932
315.91
315.869
315.809
315.735
315.65
315.557
315.46
315.367
315.295
310.952
311.003
311.069
311.138
311.204
311.265
311.318
311.361
311.391
311.406
311.406
311.391
311.361
311.318
311.265
311.204
311.138
311.069
311.003
310.952
306.587
306.618
306.657
306.699
306.739
306.775
306.807
306.833
306.85
306.86
306.86
306.85
306.833
306.807
306.775
306.739
306.699
306.657
306.618
306.587
302.209
302.22
302.233
302.247
302.26
302.273
302.283
302.292
302.298
302.301
302.301
302.298
302.292
302.283
302.273
302.26
302.247
302.233
302.22
302.209
333.492
333.646
333.831
334.019
334.2
334.364
334.507
334.621
334.7
334.741
334.741
334.7
334.621
334.507
334.364
334.2
334.019
333.831
333.646
333.492
329.154
329.284
329.444
329.607
329.764
329.907
330.031
330.129
330.198
330.234
330.234
330.198
330.129
330.031
329.907
329.764
329.607
329.444
329.284
329.154
324.762
324.87
325.005
325.143
325.276
325.397
325.502
325.586
325.644
325.674
325.674
325.644
325.586
325.502
325.397
325.276
325.143
325.005
324.87
324.762
320.325
320.412
320.522
320.635
320.744
320.843
320.929
320.997
321.045
321.07
321.07
321.045
320.997
320.929
320.843
320.744
320.635
320.522
320.412
320.325
315.851
315.918
316.003
316.091
316.176
316.253
316.32
316.373
316.41
316.43
316.43
316.41
316.373
316.32
316.253
316.176
316.091
316.003
315.918
315.851
311.348
311.395
311.456
311.519
311.58
311.635
311.683
311.721
311.748
311.761
311.761
311.748
311.721
311.683
311.635
311.58
311.519
311.456
311.395
311.348
306.825
306.853
306.889
306.927
306.964
306.997
307.026
307.049
307.065
307.073
307.073
307.065
307.049
307.026
306.997
306.964
306.927
306.889
306.853
306.825
302.289
302.299
302.311
302.323
302.336
302.347
302.356
302.364
302.369
302.372
302.372
302.369
302.364
302.356
302.347
302.336
302.323
302.311
302.299
302.289
334.649
334.791
334.962
335.134
335.299
335.45
335.579
335.682
335.754
335.791
335.791
335.754
335.682
335.579
335.45
335.299
335.134
334.962
334.791
334.649
330.141
330.261
330.409
330.559
330.702
330.833
330.945
331.035
331.097
331.129
331.129
331.097
331.035
330.945
330.833
330.702
330.559
330.409
330.261
330.141
325.585
325.685
325.81
325.937
326.059
326.17
326.265
326.341
326.394
326.421
326.421
326.394
326.341
326.265
326.17
326.059
325.937
325.81
325.685
325.585
320.99
321.071
321.173
321.277
321.377
321.468
321.546
321.608
321.652
321.674
321.674
321.652
321.608
321.546
321.468
321.377
321.277
321.173
321.071
320.99
316.363
316.425
316.504
316.586
316.663
316.734
316.795
316.844
316.878
316.895
316.895
316.878
316.844
316.795
316.734
316.663
316.586
316.504
316.425
316.363
311.712
311.755
311.812
311.87
311.925
311.976
312.02
312.055
312.079
312.091
312.091
312.079
312.055
312.02
311.976
311.925
311.87
311.812
311.755
311.712
307.042
307.068
307.102
307.137
307.17
307.201
307.227
307.248
307.262
307.27
307.27
307.262
307.248
307.227
307.201
307.17
307.137
307.102
307.068
307.042
302.362
302.37
302.382
302.394
302.405
302.415
302.424
302.431
302.436
302.438
302.438
302.436
302.431
302.424
302.415
302.405
302.394
302.382
302.37
302.362
335.55
335.684
335.845
336.007
336.161
336.301
336.422
336.517
336.584
336.618
336.618
336.584
336.517
336.422
336.301
336.161
336.007
335.845
335.684
335.55
330.881
330.995
331.134
331.275
331.41
331.532
331.637
331.72
331.778
331.808
331.808
331.778
331.72
331.637
331.532
331.41
331.275
331.134
330.995
330.881
326.184
326.279
326.396
326.516
326.631
326.735
326.824
326.895
326.945
326.97
326.97
326.945
326.895
326.824
326.735
326.631
326.516
326.396
326.279
326.184
321.463
321.539
321.635
321.734
321.828
321.913
321.987
322.045
322.086
322.107
322.107
322.086
322.045
321.987
321.913
321.828
321.734
321.635
321.539
321.463
316.72
316.779
316.854
316.931
317.004
317.071
317.128
317.174
317.206
317.222
317.222
317.206
317.174
317.128
317.071
317.004
316.931
316.854
316.779
316.72
311.961
312.003
312.057
312.112
312.164
312.212
312.253
312.286
312.308
312.32
312.32
312.308
312.286
312.253
312.212
312.164
312.112
312.057
312.003
311.961
307.19
307.215
307.247
307.28
307.312
307.34
307.365
307.385
307.398
307.405
307.405
307.398
307.385
307.365
307.34
307.312
307.28
307.247
307.215
307.19
302.411
302.419
302.43
302.441
302.452
302.461
302.47
302.476
302.481
302.483
302.483
302.481
302.476
302.47
302.461
302.452
302.441
302.43
302.419
302.411
)
;

boundaryField
{
    hotSide
    {
        type            fixedGradient;
        gradient        nonuniform List<scalar> 
400
(
229.273
229.941
231.282
233.303
236.016
239.437
243.582
248.471
254.121
260.553
267.784
275.833
284.716
294.447
305.038
316.5
328.843
342.074
356.199
371.222
234.538
235.164
236.423
238.325
240.886
244.125
248.066
252.733
258.149
264.34
271.328
279.136
287.782
297.284
307.657
318.912
331.06
344.109
358.064
372.93
240.235
240.812
241.973
243.734
246.114
249.141
252.843
257.251
262.397
268.312
275.025
282.561
290.944
300.193
310.326
321.357
333.294
346.148
359.923
374.624
246.272
246.79
247.838
249.434
251.607
254.388
257.818
261.934
266.777
272.385
278.793
286.031
294.128
303.106
312.984
323.776
335.493
348.144
361.734
376.265
252.477
252.931
253.852
255.264
257.204
259.715
262.845
266.642
271.156
276.434
282.516
289.441
297.238
305.934
315.549
326.098
337.593
350.04
363.445
377.809
258.594
258.978
259.763
260.98
262.674
264.899
267.714
271.179
275.354
280.294
286.046
292.654
300.153
308.57
317.927
328.239
339.518
351.771
365
379.206
264.272
264.586
265.235
266.258
267.708
269.652
272.16
275.303
279.15
283.766
289.205
295.515
302.734
310.892
320.011
330.107
341.191
353.267
366.339
380.404
269.091
269.342
269.869
270.717
271.95
273.643
275.878
278.737
282.298
286.632
291.801
297.855
304.836
312.775
321.695
331.61
342.531
354.462
367.404
381.354
272.618
272.821
273.254
273.969
275.036
276.539
278.568
281.214
284.561
288.685
293.654
299.52
306.326
314.105
322.88
332.665
343.47
355.297
368.146
382.014
274.486
274.663
275.045
275.688
276.665
278.065
279.983
282.514
285.746
289.758
294.62
300.386
307.1
314.795
323.493
333.21
343.953
355.726
368.527
382.353
274.486
274.663
275.045
275.688
276.665
278.065
279.983
282.514
285.746
289.758
294.62
300.386
307.1
314.795
323.493
333.21
343.953
355.726
368.527
382.353
272.618
272.821
273.254
273.969
275.036
276.539
278.568
281.214
284.561
288.685
293.654
299.52
306.326
314.105
322.88
332.665
343.47
355.297
368.146
382.014
269.091
269.342
269.869
270.717
271.95
273.643
275.878
278.737
282.298
286.632
291.801
297.855
304.836
312.775
321.695
331.61
342.531
354.462
367.404
381.354
264.272
264.586
265.235
266.258
267.708
269.652
272.16
275.303
279.15
283.766
289.205
295.515
302.734
310.892
320.011
330.107
341.191
353.267
366.339
380.404
258.594
258.978
259.763
260.98
262.674
264.899
267.714
271.179
275.354
280.294
286.046
292.654
300.153
308.57
317.927
328.239
339.518
351.771
365
379.206
252.477
252.931
253.852
255.264
257.204
259.715
262.845
266.642
271.156
276.434
282.516
289.441
297.238
305.934
315.549
326.098
337.593
350.04
363.445
377.809
246.272
246.79
247.838
249.434
251.607
254.388
257.818
261.934
266.777
272.385
278.793
286.031
294.128
303.106
312.984
323.776
335.493
348.144
361.734
376.265
240.235
240.812
241.973
243.734
246.114
249.141
252.843
257.251
262.397
268.312
275.025
282.561
290.944
300.193
310.326
321.357
333.294
346.148
359.923
374.624
234.538
235.164
236.423
238.325
240.886
244.125
248.066
252.733
258.149
264.34
271.328
279.136
287.782
297.284
307.657
318.912
331.06
344.109
358.064
372.93
229.273
229.941
231.282
233.303
236.016
239.437
243.582
248.471
254.121
260.553
267.784
275.833
284.716
294.447
305.038
316.5
328.843
342.074
356.199
371.222
)
;
    }
    coldSide
    {
        type            mixed;
        refValue        uniform 300;
        refGradient     uniform 0;
        valueFraction   uniform 0.991591;
        source          uniform 0;
        value           nonuniform List<scalar> 
400
(
300.013
300.013
300.013
300.013
300.013
300.014
300.014
300.014
300.014
300.015
300.015
300.016
300.016
300.017
300.017
300.018
300.019
300.019
300.02
300.02
300.013
300.013
300.013
300.013
300.014
300.014
300.014
300.014
300.015
300.015
300.015
300.016
300.016
300.017
300.017
300.018
300.019
300.019
300.02