/*--------------------------------*- C++ -*----------------------------------*\
| =========                 |                                                 |
| \\      /  F ield         | OpenFOAM: The Open Source CFD Toolbox           |
|  \\    /   O peration     | Version:  2212                                  |
|   \\  /    A nd           | Website:  www.openfoam.com                      |
|    \\/     M anipulation  |                                                 |
\*---------------------------------------------------------------------------*/
FoamFile
{
    version     2.0;
    format      ascii;
    arch        "LSB;label=32;scalar=64";
    class       volScalarField;
    location    "./ITHACAoutput/true/7.3";
    object      trueState;
}
// * * * * * * * * * * * * * * * * * * * * * * * * * * * * * * * * * * * * * //

dimensions      [0 0 0 1 0 0 0];

internalField   nonuniform List<scalar> 
3200
(
349.77
350.373
351.143
351.982
352.846
353.694
354.477
355.137
355.619
355.873
355.873
355.619
355.137
354.477
353.694
352.846
351.982
351.143
350.373
349.77
343.181
343.691
344.355
345.081
345.828
346.562
347.239
347.81
348.225
348.445
348.445
348.225
347.81
347.239
346.562
345.828
345.081
344.355
343.691
343.181
336.573
336.996
337.555
338.168
338.8
339.42
339.991
340.473
340.824
341.009
341.009
340.824
340.473
339.991
339.42
338.8
338.168
337.555
336.996
336.573
329.949
330.29
330.746
331.247
331.763
332.27
332.736
333.13
333.416
333.567
333.567
333.416
333.13
332.736
332.27
331.763
331.247
330.746
330.29
329.949
323.313
323.574
323.928
324.317
324.719
325.112
325.475
325.78
326.003
326.12
326.12
326.003
325.78
325.475
325.112
324.719
324.317
323.928
323.574
323.313
316.667
316.852
317.104
317.382
317.669
317.95
318.209
318.427
318.585
318.669
318.669
318.585
318.427
318.209
317.95
317.669
317.382
317.104
316.852
316.667
310.014
310.125
310.276
310.443
310.615
310.784
310.939
311.07
311.165
311.215
311.215
311.165
311.07
310.939
310.784
310.615
310.443
310.276
310.125
310.014
303.357
303.394
303.445
303.501
303.558
303.615
303.667
303.711
303.743
303.76
303.76
303.743
303.711
303.667
303.615
303.558
303.501
303.445
303.394
303.357
349.944
350.542
351.306
352.137
352.992
353.831
354.604
355.257
355.732
355.983
355.983
355.732
355.257
354.604
353.831
352.992
352.137
351.306
350.542
349.944
343.332
343.838
344.496
345.215
345.955
346.681
347.349
347.913
348.324
348.54
348.54
348.324
347.913
347.349
346.681
345.955
345.215
344.496
343.838
343.332
336.7
337.12
337.675
338.282
338.908
339.52
340.085
340.561
340.907
341.09
341.09
340.907
340.561
340.085
339.52
338.908
338.282
337.675
337.12
336.7
330.053
330.391
330.843
331.34
331.851
332.352
332.813
333.202
333.484
333.634
333.634
333.484
333.202
332.813
332.352
331.851
331.34
330.843
330.391
330.053
323.394
323.653
324.004
324.39
324.787
325.176
325.535
325.837
326.056
326.172
326.172
326.056
325.837
325.535
325.176
324.787
324.39
324.004
323.653
323.394
316.725
316.908
317.158
317.434
317.718
317.996
318.251
318.467
318.623
318.706
318.706
318.623
318.467
318.251
317.996
317.718
317.434
317.158
316.908
316.725
310.049
310.159
310.308
310.474
310.644
310.811
310.965
311.094
311.188
311.237
311.237
311.188
311.094
310.965
310.811
310.644
310.474
310.308
310.159
310.049
303.369
303.406
303.456
303.511
303.568
303.624
303.676
303.719
303.751
303.767
303.767
303.751
303.719
303.676
303.624
303.568
303.511
303.456
303.406
303.369
350.293
350.882
351.632
352.448
353.286
354.106
354.862
355.499
355.962
356.206
356.206
355.962
355.499
354.862
354.106
353.286
352.448
351.632
350.882
350.293
343.634
344.132
344.779
345.485
346.21
346.92
347.573
348.123
348.523
348.734
348.734
348.523
348.123
347.573
346.92
346.21
345.485
344.779
344.132
343.634
336.956
337.369
337.914
338.51
339.123
339.723
340.275
340.739
341.077
341.255
341.255
341.077
340.739
340.275
339.723
339.123
338.51
337.914
337.369
336.956
330.262
330.595
331.039
331.527
332.028
332.518
332.969
333.348
333.623
333.769
333.769
333.623
333.348
332.969
332.518
332.028
331.527
331.039
330.595
330.262
323.556
323.812
324.156
324.535
324.925
325.306
325.656
325.95
326.164
326.277
326.277
326.164
325.95
325.656
325.306
324.925
324.535
324.156
323.812
323.556
316.841
317.022
317.267
317.538
317.816
318.088
318.338
318.548
318.701
318.781
318.781
318.701
318.548
318.338
318.088
317.816
317.538
317.267
317.022
316.841
310.119
310.227
310.374
310.536
310.703
310.867
311.017
311.143
311.234
311.283
311.283
311.234
311.143
311.017
310.867
310.703
310.536
310.374
310.227
310.119
303.392
303.428
303.478
303.532
303.588
303.643
303.693
303.735
303.766
303.782
303.782
303.766
303.735
303.693
303.643
303.588
303.532
303.478
303.428
303.392
350.818
351.393
352.124
352.918
353.731
354.525
355.255
355.869
356.315
356.55
356.55
356.315
355.869
355.255
354.525
353.731
352.918
352.124
351.393
350.818
344.088
344.575
345.206
345.892
346.596
347.283
347.915
348.445
348.83
349.033
349.033
348.83
348.445
347.915
347.283
346.596
345.892
345.206
344.575
344.088
337.34
337.744
338.275
338.855
339.45
340.031
340.564
341.012
341.337
341.508
341.508
341.337
341.012
340.564
340.031
339.45
338.855
338.275
337.744
337.34
330.577
330.902
331.335
331.809
332.295
332.77
333.205
333.571
333.837
333.976
333.976
333.837
333.571
333.205
332.77
332.295
331.809
331.335
330.902
330.577
323.801
324.05
324.386
324.755
325.133
325.502
325.84
326.124
326.33
326.439
326.439
326.33
326.124
325.84
325.502
325.133
324.755
324.386
324.05
323.801
317.016
317.192
317.432
317.695
317.965
318.228
318.47
318.673
318.82
318.897
318.897
318.82
318.673
318.47
318.228
317.965
317.695
317.432
317.192
317.016
310.224
310.329
310.473
310.631
310.793
310.951
311.096
311.218
311.306
311.352
311.352
311.306
311.218
311.096
310.951
310.793
310.631
310.473
310.329
310.224
303.428
303.463
303.511
303.564
303.618
303.671
303.72
303.761
303.79
303.806
303.806
303.79
303.761
303.72
303.671
303.618
303.564
303.511
303.463
303.428
351.521
352.078
352.785
353.55
354.332
355.093
355.791
356.376
356.8
357.023
357.023
356.8
356.376
355.791
355.093
354.332
353.55
352.785
352.078
351.521
344.697
345.169
345.779
346.441
347.117
347.776
348.38
348.885
349.252
349.445
349.445
349.252
348.885
348.38
347.776
347.117
346.441
345.779
345.169
344.697
337.855
338.246
338.76
339.319
339.892
340.448
340.958
341.385
341.694
341.857
341.857
341.694
341.385
340.958
340.448
339.892
339.319
338.76
338.246
337.855
330.998
331.313
331.732
332.189
332.657
333.112
333.528
333.877
334.13
334.263
334.263
334.13
333.877
333.528
333.112
332.657
332.189
331.732
331.313
330.998
324.128
324.37
324.695
325.05
325.414
325.768
326.091
326.362
326.559
326.662
326.662
326.559
326.362
326.091
325.768
325.414
325.05
324.695
324.37
324.128
317.249
317.421
317.652
317.906
318.166
318.418
318.649
318.843
318.983
319.057
319.057
318.983
318.843
318.649
318.418
318.166
317.906
317.652
317.421
317.249
310.364
310.466
310.605
310.757
310.913
311.065
311.204
311.32
311.404
311.448
311.448
311.404
311.32
311.204
311.065
310.913
310.757
310.605
310.466
310.364
303.475
303.509
303.555
303.606
303.659
303.709
303.756
303.795
303.823
303.838
303.838
303.823
303.795
303.756
303.709
303.659
303.606
303.555
303.509
303.475
352.403
352.94
353.618
354.35
355.095
355.818
356.478
357.03
357.429
357.639
357.639
357.429
357.03
356.478
355.818
355.095
354.35
353.618
352.94
352.403
345.461
345.915
346.501
347.134
347.779
348.405
348.976
349.453
349.798
349.979
349.979
349.798
349.453
348.976
348.405
347.779
347.134
346.501
345.915
345.461
338.501
338.878
339.371
339.906
340.452
340.981
341.463
341.866
342.157
342.31
342.31
342.157
341.866
341.463
340.981
340.452
339.906
339.371
338.878
338.501
331.526
331.83
332.232
332.669
333.115
333.547
333.942
334.271
334.509
334.634
334.634
334.509
334.271
333.942
333.547
333.115
332.669
332.232
331.83
331.526
324.539
324.772
325.084
325.424
325.771
326.107
326.413
326.669
326.854
326.951
326.951
326.854
326.669
326.413
326.107
325.771
325.424
325.084
324.772
324.539
317.543
317.708
317.93
318.173
318.421
318.661
318.88
319.062
319.194
319.264
319.264
319.194
319.062
318.88
318.661
318.421
318.173
317.93
317.708
317.543
310.54
310.639
310.772
310.918
311.067
311.211
311.342
311.452
311.531
311.573
311.573
311.531
311.452
311.342
311.211
311.067
310.918
310.772
310.639
310.54
303.534
303.567
303.611
303.66
303.71
303.758
303.802
303.839
303.866
303.879
303.879
303.866
303.839
303.802
303.758
303.71
303.66
303.611
303.567
303.534
353.469
353.981
354.628
355.322
356.027
356.707
357.326
357.841
358.213
358.408
358.408
358.213
357.841
357.326
356.707
356.027
355.322
354.628
353.981
353.469
346.384
346.818
347.376
347.977
348.587
349.176
349.711
350.157
350.479
350.647
350.647
350.479
350.157
349.711
349.176
348.587
347.977
347.376
346.818
346.384
339.282
339.642
340.112
340.62
341.135
341.633
342.086
342.463
342.734
342.877
342.877
342.734
342.463
342.086
341.633
341.135
340.62
340.112
339.642
339.282
332.165
332.454
332.838
333.253
333.675
334.082
334.452
334.76
334.981
335.098
335.098
334.981
334.76
334.452
334.082
333.675
333.253
332.838
332.454
332.165
325.036
325.258
325.556
325.878
326.206
326.523
326.81
327.05
327.222
327.312
327.312
327.222
327.05
326.81
326.523
326.206
325.878
325.556
325.258
325.036
317.898
318.055
318.267
318.498
318.732
318.958
319.163
319.334
319.457
319.522
319.522
319.457
319.334
319.163
318.958
318.732
318.498
318.267
318.055
317.898
310.753
310.847
310.975
311.113
311.254
311.389
311.513
311.615
311.689
311.728
311.728
311.689
311.615
311.513
311.389
311.254
311.113
310.975
310.847
310.753
303.605
303.637
303.679
303.725
303.773
303.818
303.859
303.894
303.919
303.932
303.932
303.919
303.894
303.859
303.818
303.773
303.725
303.679
303.637
303.605
354.719
355.206
355.818
356.473
357.133
357.768
358.344
358.821
359.165
359.345
359.345
359.165
358.821
358.344
357.768
357.133
356.473
355.818
355.206
354.719
347.467
347.879
348.407
348.974
349.546
350.096
350.594
351.007
351.305
351.46
351.46
351.305
351.007
350.594
350.096
349.546
348.974
348.407
347.879
347.467
340.198
340.54
340.985
341.464
341.947
342.412
342.833
343.183
343.434
343.565
343.565
343.434
343.183
342.833
342.412
341.947
341.464
340.985
340.54
340.198
332.914
333.189
333.552
333.944
334.339
334.72
335.064
335.349
335.554
335.662
335.662
335.554
335.349
335.064
334.72
334.339
333.944
333.552
333.189
332.914
325.619
325.83
326.111
326.416
326.723
327.019
327.287
327.509
327.668
327.751
327.751
327.668
327.509
327.287
327.019
326.723
326.416
326.111
325.83
325.619
318.314
318.464
318.664
318.882
319.102
319.313
319.504
319.662
319.776
319.836
319.836
319.776
319.662
319.504
319.313
319.102
318.882
318.664
318.464
318.314
311.003
311.093
311.213
311.344
311.476
311.602
311.717
311.812
311.881
311.916
311.916
311.881
311.812
311.717
311.602
311.476
311.344
311.213
311.093
311.003
303.689
303.719
303.759
303.803
303.847
303.89
303.928
303.96
303.983
303.995
303.995
303.983
303.96
303.928
303.89
303.847
303.803
303.759
303.719
303.689
356.157
356.617
357.193
357.806
358.422
359.011
359.542
359.981
360.296
360.46
360.46
360.296
359.981
359.542
359.011
358.422
357.806
357.193
356.617
356.157
348.713
349.103
349.599
350.13
350.663
351.173
351.633
352.013
352.285
352.428
352.428
352.285
352.013
351.633
351.173
350.663
350.13
349.599
349.103
348.713
341.252
341.575
341.993
342.442
342.893
343.324
343.713
344.034
344.264
344.385
344.385
344.264
344.034
343.713
343.324
342.893
342.442
341.993
341.575
341.252
333.776
334.036
334.378
334.744
335.113
335.466
335.784
336.046
336.235
336.333
336.333
336.235
336.046
335.784
335.466
335.113
334.744
334.378
334.036
333.776
326.289
326.489
326.754
327.039
327.325
327.6
327.847
328.051
328.197
328.274
328.274
328.197
328.051
327.847
327.6
327.325
327.039
326.754
326.489
326.289
318.793
318.935
319.123
319.327
319.532
319.728
319.904
320.05
320.155
320.209
320.209
320.155
320.05
319.904
319.728
319.532
319.327
319.123
318.935
318.793
311.291
311.375
311.489
311.611
311.734
311.852
311.958
312.045
312.108
312.141
312.141
312.108
312.045
311.958
311.852
311.734
311.611
311.489
311.375
311.291
303.785
303.814
303.851
303.892
303.934
303.973
304.009
304.038
304.059
304.07
304.07
304.059
304.038
304.009
303.973
303.934
303.892
303.851
303.814
303.785
357.787
358.219
358.758
359.328
359.898
360.441
360.928
361.329
361.616
361.765
361.765
361.616
361.329
360.928
360.441
359.898
359.328
358.758
358.219
357.787
350.124
350.49
350.955
351.449
351.943
352.413
352.835
353.182
353.43
353.56
353.56
353.43
353.182
352.835
352.413
351.943
351.449
350.955
350.49
350.124
342.446
342.749
343.141
343.558
343.976
344.374
344.731
345.024
345.234
345.343
345.343
345.234
345.024
344.731
344.374
343.976
343.558
343.141
342.749
342.446
334.753
334.997
335.316
335.658
336
336.325
336.617
336.857
337.028
337.118
337.118
337.028
336.857
336.617
336.325
336
335.658
335.316
334.997
334.753
327.049
327.236
327.484
327.75
328.015
328.268
328.495
328.682
328.815
328.885
328.885
328.815
328.682
328.495
328.268
328.015
327.75
327.484
327.236
327.049
319.336
319.469
319.645
319.835
320.025
320.206
320.368
320.501
320.596
320.646
320.646
320.596
320.501
320.368
320.206
320.025
319.835
319.645
319.469
319.336
311.617
311.696
311.802
311.916
312.03
312.139
312.236
312.316
312.373
312.403
312.403
312.373
312.316
312.236
312.139
312.03
311.916
311.802
311.696
311.617
303.895
303.921
303.957
303.995
304.033
304.069
304.102
304.129
304.148
304.158
304.158
304.148
304.129
304.102
304.069
304.033
303.995
303.957
303.921
303.895
359.61
360.014
360.516
361.044
361.569
362.066
362.51
362.875
363.134
363.269
363.269
363.134
362.875
362.51
362.066
361.569
361.044
360.516
360.014
359.61
351.704
352.046
352.479
352.936
353.391
353.822
354.207
354.522
354.747
354.864
354.864
354.747
354.522
354.207
353.822
353.391
352.936
352.479
352.046
351.704
343.781
344.065
344.43
344.817
345.202
345.566
345.892
346.159
346.349
346.447
346.447
346.349
346.159
345.892
345.566
345.202
344.817
344.43
344.065
343.781
335.845
336.074
336.371
336.688
337.003
337.301
337.567
337.785
337.941
338.022
338.022
337.941
337.785
337.567
337.301
337.003
336.688
336.371
336.074
335.845
327.899
328.074
328.305
328.551
328.796
329.028
329.235
329.404
329.525
329.588
329.588
329.525
329.404
329.235
329.028
328.796
328.551
328.305
328.074
327.899
319.943
320.067
320.232
320.407
320.583
320.748
320.896
321.017
321.104
321.149
321.149
321.104
321.017
320.896
320.748
320.583
320.407
320.232
320.067
319.943
311.982
312.056
312.155
312.26
312.365
312.465
312.554
312.626
312.678
312.705
312.705
312.678
312.626
312.554
312.465
312.365
312.26
312.155
312.056
311.982
304.017
304.042
304.075
304.11
304.145
304.179
304.208
304.233
304.25
304.259
304.259
304.25
304.233
304.208
304.179
304.145
304.11
304.075
304.042
304.017
361.628
362.005
362.47
362.957
363.439
363.892
364.295
364.625
364.858
364.98
364.98
364.858
364.625
364.295
363.892
363.439
362.957
362.47
362.005
361.628
353.453
353.771
354.172
354.594
355.012
355.405
355.754
356.039
356.242
356.347
356.347
356.242
356.039
355.754
355.405
355.012
354.594
354.172
353.771
353.453
345.261
345.525
345.863
346.22
346.573
346.906
347.201
347.443
347.614
347.703
347.703
347.614
347.443
347.201
346.906
346.573
346.22
345.863
345.525
345.261
337.056
337.268
337.544
337.836
338.125
338.397
338.639
338.836
338.976
339.049
339.049
338.976
338.836
338.639
338.397
338.125
337.836
337.544
337.268
337.056
328.84
329.003
329.217
329.444
329.669
329.88
330.068
330.222
330.331
330.388
330.388
330.331
330.222
330.068
329.88
329.669
329.444
329.217
329.003
328.84
320.616
320.731
320.884
321.046
321.206
321.358
321.492
321.602
321.68
321.72
321.72
321.68
321.602
321.492
321.358
321.206
321.046
320.884
320.731
320.616
312.386
312.455
312.546
312.643
312.74
312.831
312.912
312.977
313.024
313.048
313.048
313.024
312.977
312.912
312.831
312.74
312.643
312.546
312.455
312.386
304.152
304.175
304.206
304.239
304.271
304.301
304.328
304.35
304.366
304.374
304.374
304.366
304.35
304.328
304.301
304.271
304.239
304.206
304.175
304.152
363.844
364.194
364.623
365.071
365.511
365.923
366.287
366.584
366.794
366.903
366.903
366.794
366.584
366.287
365.923
365.511
365.071
364.623
364.194
363.844
355.372
355.668
356.038
356.426
356.807
357.165
357.481
357.738
357.919
358.014
358.014
357.919
357.738
357.481
357.165
356.807
356.426
356.038
355.668
355.372
346.885
347.13
347.442
347.77
348.093
348.395
348.662
348.88
349.034
349.113
349.113
349.034
348.88
348.662
348.395
348.093
347.77
347.442
347.13
346.885
338.384
338.581
338.836
339.104
339.368
339.616
339.834
340.012
340.138
340.203
340.203
340.138
340.012
339.834
339.616
339.368
339.104
338.836
338.581
338.384
329.873
330.024
330.222
330.43
330.636
330.828
330.999
331.137
331.235
331.286
331.286
331.235
331.137
330.999
330.828
330.636
330.43
330.222
330.024
329.873
321.354
321.461
321.602
321.751
321.898
322.035
322.157
322.256
322.326
322.362
322.362
322.326
322.256
322.157
322.035
321.898
321.751
321.602
321.461
321.354
312.829
312.893
312.977
313.067
313.155
313.238
313.311
313.37
313.412
313.434
313.434
313.412
313.37
313.311
313.238
313.155
313.067
312.977
312.893
312.829
304.301
304.322
304.35
304.38
304.41
304.438
304.462
304.482
304.496
304.504
304.504
304.496
304.482
304.462
304.438
304.41
304.38
304.35
304.322
304.301
366.258
366.581
366.977
367.386
367.787
368.16
368.489
368.755
368.943
369.04
369.04
368.943
368.755
368.489
368.16
367.787
367.386
366.977
366.581
366.258
357.463
357.737
358.078
358.433
358.78
359.104
359.388
359.619
359.782
359.866
359.866
359.782
359.619
359.388
359.104
358.78
358.433
358.078
357.737
357.463
348.653
348.88
349.167
349.467
349.761
350.035
350.276
350.472
350.61
350.681
350.681
350.61
350.472
350.276
350.035
349.761
349.467
349.167
348.88
348.653
339.83
340.013
340.247
340.493
340.733
340.958
341.155
341.315
341.427
341.486
341.486
341.427
341.315
341.155
340.958
340.733
340.493
340.247
340.013
339.83
330.998
331.138
331.32
331.511
331.698
331.872
332.026
332.15
332.238
332.283
332.283
332.238
332.15
332.026
331.872
331.698
331.511
331.32
331.138
330.998
322.157
322.256
322.386
322.523
322.656
322.781
322.891
322.98
323.042
323.075
323.075
323.042
322.98
322.891
322.781
322.656
322.523
322.386
322.256
322.157
313.312
313.371
313.449
313.53
313.611
313.686
313.752
313.805
313.843
313.862
313.862
313.843
313.805
313.752
313.686
313.611
313.53
313.449
313.371
313.312
304.463
304.482
304.508
304.536
304.563
304.588
304.61
304.628
304.641
304.647
304.647
304.641
304.628
304.61
304.588
304.563
304.536
304.508
304.482
304.463
368.866
369.164
369.527
369.901
370.265
370.603
370.898
371.137
371.305
371.391
371.391
371.305
371.137
370.898
370.603
370.265
369.901
369.527
369.164
368.866
359.722
359.974
360.287
360.611
360.927
361.219
361.476
361.682
361.828
361.903
361.903
361.828
361.682
361.476
361.219
360.927
360.611
360.287
359.974
359.722
350.563
350.772
351.036
351.31
351.577
351.825
352.042
352.217
352.34
352.403
352.403
352.34
352.217
352.042
351.825
351.577
351.31
351.036
350.772
350.563
341.392
341.56
341.775
342
342.218
342.421
342.599
342.742
342.843
342.895
342.895
342.843
342.742
342.599
342.421
342.218
342
341.775
341.56
341.392
332.212
332.341
332.508
332.683
332.853
333.01
333.149
333.26
333.339
333.379
333.379
333.339
333.26
333.149
333.01
332.853
332.683
332.508
332.341
332.212
323.025
323.116
323.235
323.36
323.481
323.594
323.693
323.773
323.829
323.858
323.858
323.829
323.773
323.693
323.594
323.481
323.36
323.235
323.116
323.025
313.832
313.887
313.958
314.033
314.106
314.174
314.233
314.281
314.315
314.332
314.332
314.315
314.281
314.233
314.174
314.106
314.033
313.958
313.887
313.832
304.637
304.655
304.679
304.704
304.729
304.752
304.771
304.788
304.799
304.805
304.805
304.799
304.788
304.771
304.752
304.729
304.704
304.679
304.655
304.637
371.658
371.932
372.265
372.606
372.936
373.24
373.506
373.719
373.869
373.946
373.946
373.869
373.719
373.506
373.24
372.936
372.606
372.265
371.932
371.658
362.137
362.369
362.656
362.952
363.238
363.502
363.732
363.917
364.047
364.114
364.114
364.047
363.917
363.732
363.502
363.238
362.952
362.656
362.369
362.137
352.604
352.796
353.038
353.288
353.53
353.754
353.949
354.106
354.216
354.272
354.272
354.216
354.106
353.949
353.754
353.53
353.288
353.038
352.796
352.604
343.06
343.215
343.412
343.617
343.815
343.998
344.158
344.286
344.376
344.423
344.423
344.376
344.286
344.158
343.998
343.815
343.617
343.412
343.215
343.06
333.508
333.627
333.78
333.939
334.094
334.236
334.36
334.46
334.53
334.566
334.566
334.53
334.46
334.36
334.236
334.094
333.939
333.78
333.627
333.508
323.95
324.034
324.144
324.257
324.368
324.469
324.558
324.63
324.68
324.706
324.706
324.68
324.63
324.558
324.469
324.368
324.257
324.144
324.034
323.95
314.388
314.438
314.504
314.572
314.638
314.7
314.753
314.796
314.826
314.841
314.841
314.826
314.796
314.753
314.7
314.638
314.572
314.504
314.438
314.388
304.823
304.84
304.862
304.885
304.907
304.928
304.946
304.96
304.97
304.975
304.975
304.97
304.96
304.946
304.928
304.907
304.885
304.862
304.84
304.823
374.603
374.855
375.16
375.471
375.77
376.044
376.283
376.474
376.608
376.676
376.676
376.608
376.474
376.283
376.044
375.77
375.471
375.16
374.855
374.603
364.681
364.894
365.157
365.426
365.686
365.924
366.131
366.297
366.413
366.473
366.473
366.413
366.297
366.131
365.924
365.686
365.426
365.157
364.894
364.681
354.75
354.927
355.148
355.376
355.596
355.798
355.973
356.113
356.211
356.262
356.262
356.211
356.113
355.973
355.798
355.596
355.376
355.148
354.927
354.75
344.811
344.954
345.134
345.321
345.501
345.666
345.81
345.925
346.005
346.046
346.046
346.005
345.925
345.81
345.666
345.501
345.321
345.134
344.954
344.811
334.868
334.977
335.117
335.262
335.402
335.531
335.643
335.732
335.795
335.827
335.827
335.795
335.732
335.643
335.531
335.402
335.262
335.117
334.977
334.868
324.92
324.997
325.097
325.201
325.301
325.393
325.473
325.537
325.582
325.605
325.605
325.582
325.537
325.473
325.393
325.301
325.201
325.097
324.997
324.92
314.97
315.016
315.076
315.138
315.198
315.254
315.302
315.34
315.367
315.381
315.381
315.367
315.34
315.302
315.254
315.198
315.138
315.076
315.016
314.97
305.018
305.034
305.054
305.075
305.095
305.113
305.129
305.142
305.151
305.156
305.156
305.151
305.142
305.129
305.113
305.095
305.075
305.054
305.034
305.018
377.626
377.858
378.137
378.42
378.692
378.94
379.155
379.326
379.446
379.507
379.507
379.446
379.326
379.155
378.94
378.692
378.42
378.137
377.858
377.626
367.28
367.476
367.717
367.963
368.198
368.414
368.601
368.749
368.853
368.907
368.907
368.853
368.749
368.601
368.414
368.198
367.963
367.717
367.476
367.28
356.933
357.096
357.299
357.507
357.707
357.889
358.047
358.174
358.261
358.307
358.307
358.261
358.174
358.047
357.889
357.707
357.507
357.299
357.096
356.933
346.587
346.718
346.883
347.054
347.217
347.367
347.497
347.6
347.672
347.709
347.709
347.672
347.6
347.497
347.367
347.217
347.054
346.883
346.718
346.587
336.242
336.342
336.471
336.603
336.731
336.847
336.948
337.029
337.085
337.114
337.114
337.085
337.029
336.948
336.847
336.731
336.603
336.471
336.342
336.242
325.898
325.969
326.061
326.156
326.247
326.33
326.402
326.46
326.5
326.521
326.521
326.5
326.46
326.402
326.33
326.247
326.156
326.061
325.969
325.898
315.556
315.598
315.653
315.71
315.765
315.815
315.858
315.893
315.917
315.929
315.929
315.917
315.893
315.858
315.815
315.765
315.71
315.653
315.598
315.556
305.214
305.229
305.247
305.266
305.284
305.301
305.316
305.327
305.335
305.34
305.34
305.335
305.327
305.316
305.301
305.284
305.266
305.247
305.229
305.214
380.531
380.745
381.003
381.263
381.512
381.738
381.933
382.088
382.196
382.252
382.252
382.196
382.088
381.933
381.738
381.512
381.263
381.003
380.745
380.531
369.747
369.929
370.151
370.377
370.593
370.79
370.96
371.095
371.189
371.237
371.237
371.189
371.095
370.96
370.79
370.593
370.377
370.151
369.929
369.747
358.984
359.134
359.322
359.514
359.697
359.864
360.008
360.122
360.202
360.243
360.243
360.202
360.122
360.008
359.864
359.697
359.514
359.322
359.134
358.984
348.239
348.36
348.513
348.671
348.821
348.958
349.076
349.17
349.235
349.269
349.269
349.235
349.17
349.076
348.958
348.821
348.671
348.513
348.36
348.239
337.511
337.604
337.723
337.845
337.962
338.069
338.161
338.234
338.285
338.312
338.312
338.285
338.234
338.161
338.069
337.962
337.845
337.723
337.604
337.511
326.796
326.862
326.947
327.035
327.119
327.195
327.261
327.313
327.35
327.368
327.368
327.35
327.313
327.261
327.195
327.119
327.035
326.947
326.862
326.796
316.092
316.131
316.182
316.235
316.285
316.331
316.371
316.402
316.424
316.435
316.435
316.424
316.402
316.371
316.331
316.285
316.235
316.182
316.131
316.092
305.393
305.407
305.424
305.441
305.458
305.474
305.487
305.497
305.505
305.509
305.509
305.505
305.497
305.487
305.474
305.458
305.441
305.424
305.407
305.393
382.807
383.009
383.251
383.495
383.728
383.939
384.12
384.264
384.364
384.416
384.416
384.364
384.264
384.12
383.939
383.728
383.495
383.251
383.009
382.807
371.607
371.778
371.988
372.201
372.404
372.588
372.746
372.872
372.959
373.004
373.004
372.959
372.872
372.746
372.588
372.404
372.201
371.988
371.778
371.607
360.482
360.624
360.802
360.983
361.155
361.312
361.446
361.553
361.628
361.666
361.666
361.628
361.553
361.446
361.312
361.155
360.983
360.802
360.624
360.482
349.416
349.531
349.677
349.825
349.967
350.095
350.206
350.294
350.355
350.387
350.387
350.355
350.294
350.206
350.095
349.967
349.825
349.677
349.531
349.416
338.398
338.487
338.6
338.715
338.826
338.927
339.013
339.082
339.129
339.154
339.154
339.129
339.082
339.013
338.927
338.826
338.715
338.6
338.487
338.398
327.416
327.478
327.559
327.642
327.721
327.793
327.855
327.904
327.939
327.956
327.956
327.939
327.904
327.855
327.793
327.721
327.642
327.559
327.478
327.416
316.458
316.496
316.544
316.594
316.642
316.685
316.722
316.752
316.772
316.783
316.783
316.772
316.752
316.722
316.685
316.642
316.594
316.544
316.496
316.458
305.515
305.528
305.544
305.561
305.577
305.591
305.604
305.614
305.621
305.624
305.624
305.621
305.614
305.604
305.591
305.577
305.561
305.544
305.528
305.515
)
;

boundaryField
{
    hotSide
    {
        type            fixedGradient;
        gradient        nonuniform List<scalar> 
400
(
525.424
527.294
531.04
536.675
544.217
553.688
565.114
578.522
593.942
611.403
630.932
652.556
676.299
702.184
730.228
760.449
792.86
827.472
864.294
903.332
533.357
535.164
538.787
544.243
551.555
560.752
571.87
584.944
600.011
617.109
636.272
657.532
680.92
706.46
734.175
764.084
796.2
830.537
867.103
905.905
541.942
543.675
547.151
552.393
559.433
568.309
579.067
591.752
606.413
623.095
641.842
662.693
685.684
710.843
738.197
767.767
799.567
833.61
869.905
908.458
551.038
552.683
555.988
560.983
567.709
576.217
586.564
598.809
613.013
629.232
647.519
667.922
690.482
715.232
742.202
771.412
802.88
836.618
872.633
910.931
560.389
561.935
565.049
569.767
576.144
584.243
594.138
605.903
619.611
635.333
653.13
673.06
695.168
719.494
746.067
774.911
806.043
839.475
875.212
913.258
569.606
571.048
573.956
578.38
584.385
592.054
601.476
612.74
625.937
641.149
658.45
677.902
699.56
723.465
749.65
778.138
808.945
842.082
877.554
915.362
578.161
579.498
582.202
586.332
591.971
599.217
608.174
618.953
631.656
646.381
663.209
682.212
703.449
726.964
752.79
780.953
811.465
844.338
879.572
917.168
585.422
586.664
589.184
593.052
598.363
605.23
613.777
624.128
636.4
650.7
667.121
685.739
706.617
729.802
755.327
783.217
813.485
846.138
881.178
918.6
590.736
591.905
594.285
597.951
603.012
609.593
617.831
627.86
639.809
653.794
669.912
688.247
708.862
731.806
757.114
784.807
814.899
847.395
882.295
919.594
593.552
594.681
596.984
600.542
605.467
611.893
619.963
629.819
641.595
655.41
671.368
689.552
710.028
732.845
758.037
785.627
815.627
848.042
882.869
920.104
593.552
594.681
596.984
600.542
605.467
611.893
619.963
629.819
641.595
655.41
671.368
689.552
710.028
732.845
758.037
785.627
815.627
848.042
882.869
920.104
590.736
591.905
594.285
597.951
603.012
609.593
617.831
627.86
639.809
653.794
669.912
688.247
708.862
731.806
757.114
784.807
814.899
847.395
882.295
919.594
585.422
586.664
589.184
593.052
598.363
605.23
613.777
624.128
636.4
650.7
667.121
685.739
706.617
729.802
755.327
783.217
813.485
846.138
881.178
918.6
578.161
579.498
582.202
586.332
591.971
599.217
608.174
618.953
631.656
646.381
663.209
682.212
703.449
726.964
752.79
780.953
811.465
844.338
879.572
917.168
569.606
571.048
573.956
578.38
584.385
592.054
601.476
612.74
625.937
641.149
658.45
677.902
699.56
723.465
749.65
778.138
808.945
842.082
877.554
915.362
560.389
561.935
565.049
569.767
576.144
584.243
594.138
605.903
619.611
635.333
653.13
673.06
695.168
719.494
746.067
774.911
806.043
839.475
875.212
913.258
551.038
552.683
555.988
560.983
567.709
576.217
586.564
598.809
613.013
629.232
647.519
667.922
690.482
715.232
742.202
771.412
802.88
836.618
872.633
910.931
541.942
543.675
547.151
552.393
559.433
568.309
579.067
591.752
606.413
623.095
641.842
662.693
685.684
710.843
738.197
767.767
799.567
833.61
869.905
908.458
533.357
535.164
538.787
544.243
551.555
560.752
571.87
584.944
600.011
617.109
636.272
657.532
680.92
706.46
734.175
764.084
796.2
830.537
867.103
905.905
525.424
527.294
531.04
536.675
544.217
553.688
565.114
578.522
593.942
611.403
630.932
652.556
676.299
702.184
730.228
760.449
792.86
827.472
864.294
903.332
)
;
    }
    coldSide
    {
        type            mixed;
        refValue        uniform 300;
        refGradient     uniform 0;
        valueFraction   uniform 0.991591;
        source          uniform 0;
        value           nonuniform List<scalar> 
400
(
300.028
300.028
300.029
300.029
300.029
300.03
300.03
300.031
300.032
300.033
300.034
300.035
300.036
300.038
300.039
300.041
300.042
300.044
300.045
300.046
300.029
300.029
300.029
300.029
300.03
300.03
300.031
300.031
300.032
300.033
300.034
300.035
300.036