/*--------------------------------*- C++ -*----------------------------------*\
| =========                 |                                                 |
| \\      /  F ield         | OpenFOAM: The Open Source CFD Toolbox           |
|  \\    /   O peration     | Version:  2212                                  |
|   \\  /    A nd           | Website:  www.openfoam.com                      |
|    \\/     M anipulation  |                                                 |
\*---------------------------------------------------------------------------*/
FoamFile
{
    version     2.0;
    format      ascii;
    arch        "LSB;label=32;scalar=64";
    class       volScalarField;
    location    "./ITHACAoutput/true/15.6";
    object      error;
}
// * * * * * * * * * * * * * * * * * * * * * * * * * * * * * * * * * * * * * //

dimensions      [0 0 0 1 0 0 0];

internalField   nonuniform List<scalar> 
3200
(
6.42257
5.9292
5.48427
5.05523
4.74092
4.42441
4.31122
4.21483
4.12297
4.09062
4.00995
3.925
3.91713
3.83985
3.89571
4.06574
4.28982
4.57622
5.07932
5.49178
5.39144
5.01331
4.56217
4.24242
3.95205
3.73398
3.63331
3.5295
3.39203
3.36374
3.33987
3.28041
3.21913
3.22769
3.28669
3.30079
3.53939
3.79537
4.22275
4.6151
4.51559
4.15642
3.75149
3.43686
3.25483
3.00386
2.93092
2.88147
2.75994
2.74304
2.65322
2.65965
2.6591
2.53824
2.57115
2.68132
2.92884
3.09215
3.50427
3.70267
3.55863
3.32456
3.00135
2.7424
2.55689
2.43965
2.34116
2.20508
2.21683
2.19027
2.14426
1.97314
2.02981
2.03708
2.05436
2.17116
2.26902
2.51856
2.76399
3.03645
2.73989
2.49519
2.35375
2.12477
1.96998
1.80045
1.68709
1.73552
1.69322
1.62874
1.61139
1.5572
1.54756
1.50888
1.56925
1.62814
1.69563
1.82948
2.09194
2.29145
1.89966
1.75278
1.65835
1.4664
1.35636
1.23323
1.18449
1.21419
1.16559
1.18808
1.08243
1.07425
1.11085
1.0514
1.08169
1.16259
1.23543
1.35795
1.45705
1.63144
1.22842
1.09011
0.935897
0.864562
0.791473
0.811211
0.760364
0.690579
0.672574
0.63708
0.630713
0.609232
0.604704
0.632266
0.611064
0.700366
0.690067
0.804253
0.822697
0.957468
0.416873
0.334843
0.261261
0.319494
0.268399
0.210328
0.270654
0.235007
0.189262
0.235182
0.216232
0.218133
0.180626
0.211581
0.18349
0.182631
0.282586
0.270049
0.28811
0.265807
5.61999
5.0937
4.55572
4.13336
3.74198
3.47359
3.35748
3.25116
3.13092
3.04217
2.99537
2.92214
2.98
2.94672
2.90026
3.11578
3.336
3.6548
4.10395
4.6833
4.76374
4.32321
3.84202
3.48985
3.1863
2.99161
2.86077
2.68361
2.56911
2.58516
2.50211
2.48735
2.42559
2.48981
2.42954
2.5206
2.82656
3.1173
3.57455
3.89197
3.95564
3.63976
3.24761
2.85535
2.64272
2.404
2.32813
2.18045
2.18126
2.12163
1.95539
1.93669
1.99076
1.96469
1.95278
2.0691
2.25876
2.53978
2.88542
3.23159
3.15896
2.88678
2.58223
2.2854
2.09558
1.87823
1.82957
1.73927
1.68555
1.67585
1.60744
1.60321
1.52724
1.54089
1.54545
1.67491
1.83158
2.05789
2.28113
2.53569
2.42075
2.19519
1.98772
1.80088
1.62486
1.45989
1.36032
1.34201
1.26802
1.24222
1.19783
1.22036
1.2067
1.18767
1.2081
1.30154
1.36651
1.51236
1.72799
1.97677
1.75629
1.52062
1.4119
1.23343
1.09724
1.05128
1.02829
0.930117
0.895242
0.874747
0.820142
0.818099
0.878469
0.741959
0.879244
0.906064
0.954885
1.07013
1.21834
1.35898
0.970748
0.935207
0.78543
0.748831
0.634344
0.671925
0.569865
0.493044
0.531266
0.50762
0.448359
0.480466
0.516315
0.484542
0.526089
0.581621
0.484962
0.724344
0.720281
0.902695
0.351174
0.286394
0.248187
0.231081
0.258187
0.182212
0.157708
0.200822
0.180708
0.116538
0.178068
0.144018
0.167556
0.16388
0.177933
0.169857
0.223013
0.232144
0.233191
0.327788
4.72691
4.186
3.569
3.12413
2.64389
2.34271
2.24321
2.04593
2.01627
1.8393
1.83117
1.72092
1.67226
1.76671
1.81235
2.01911
2.24947
2.67325
3.10916
3.64663
4.00718
3.43702
2.97788
2.61191
2.22597
1.98562
1.83622
1.72172
1.62607
1.54131
1.48877
1.39523
1.40535
1.40066
1.48138
1.70014
1.88309
2.2182
2.56716
3.0938
3.36083
2.96619
2.50288
2.08353
1.86436
1.61868
1.46627
1.37212
1.35276
1.19672
1.16207
1.17363
1.10416
1.10987
1.19341
1.34076
1.49999
1.80999
2.16559
2.54003
2.67621
2.37984
2.01194
1.75446
1.49543
1.2553
1.25057
1.01256
1.03609
0.917738
0.968406
0.927048
0.958646
0.911779
0.966639
1.02058
1.19124
1.44368
1.68965
2.00664
1.96572
1.80012
1.55224
1.29555
1.18249
0.980093
0.87369
0.859685
0.809263
0.740707
0.684694
0.723798
0.665855
0.741879
0.691023
0.842922
0.898018
1.13979
1.42424
1.53433
1.44766
1.25868
1.12824
0.980408
0.810494
0.693579
0.603833
0.572429
0.517465
0.562061
0.543981
0.48283
0.51141
0.419333
0.551844
0.625504
0.567143
0.793083
0.878254
1.08996
0.900023
0.756202
0.657134
0.548706
0.446035
0.396296
0.41316
0.412069
0.328734
0.324577
0.23235
0.195471
0.279601
0.291763
0.296389
0.34875
0.408869
0.403869
0.540736
0.639546
0.278781
0.228593
0.19838
0.163117
0.122514
0.130014
0.0930977
0.146001
0.0762671
0.116939
0.136832
0.126279
0.0528973
0.142412
0.11879
0.132646
0.0807016
0.20499
0.165591
0.217632
3.84722
3.24418
2.63312
2.08523
1.69458
1.31061
1.0998
0.969674
0.798428
0.685339
0.689072
0.631103
0.612168
0.591364
0.727302
0.952562
1.1994
1.65273
2.13106
2.71229
3.31614
2.76062
2.16647
1.75938
1.30383
1.09418
0.956629
0.690506
0.658705
0.574787
0.437369
0.479394
0.451951
0.431685
0.55794
0.696115
1.00093
1.31907
1.8623
2.26254
2.75072
2.27163
1.81385
1.42366
1.16712
0.923332
0.751298
0.60842
0.511425
0.491054
0.366299
0.327791
0.32477
0.312857
0.389571
0.519085
0.801231
1.15099
1.46887
1.79556
2.15164
1.78371
1.45679
1.16
0.916105
0.65641
0.462735
0.481875
0.358121
0.282927
0.243745
0.261897
0.235964
0.21929
0.336334
0.42025
0.622383
0.91412
1.18863
1.48779
1.59853
1.3881
1.14118
0.835388
0.669181
0.513649
0.424905
0.351057
0.259504
0.175243
0.0962822
0.133075
0.114696
0.137184
0.233143
0.363473
0.485658
0.693393
0.887967
1.12944
1.21849
0.959377
0.793529
0.607219
0.476814
0.368229
0.311438
0.183665
0.153195
0.0678048
0.197684
0.157056
0.134566
0.110781
0.0685022
0.274885
0.317358
0.5114
0.638117
0.774892
0.677982
0.621692
0.436164
0.311681
0.234321
0.257503
0.206524
0.114928
0.0283702
0.109081
0.045055
0.0202619
0.0500996
0.0247119
0.0779844
0.122061
0.251343
0.298201
0.352812
0.420976
0.23095
0.185998
0.184361
0.101041
0.0444731
0.00357059
0.0750917
0.0522124
0.0489696
0.033123
-0.0160008
0.0383312
0.0244765
-0.0196767
0.0290964
0.0390489
0.0658541
0.00555373
0.187883
0.0940521
3.17957
2.56833
1.9189
1.21892
0.748694
0.443488
0.0944409
-0.0445803
-0.255459
-0.321761
-0.353667
-0.455401
-0.392593
-0.39225
-0.258447
-0.0285627
0.292642
0.745901
1.37232
2.026
2.72104
2.15633
1.6025
1.08753
0.643007
0.310765
0.0902567
-0.0720554
-0.185671
-0.312699
-0.419503
-0.453422
-0.380712
-0.349462
-0.25289
0.0338223
0.209399
0.633463
1.13708
1.64473
2.22923
1.73625
1.28832
0.825537
0.497078
0.27545
0.0259259
-0.101621
-0.309345
-0.290991
-0.406929
-0.453566
-0.390068
-0.366375
-0.312772
-0.13689
0.165734
0.44889
0.901935
1.37501
1.78013
1.42515
1.05231
0.650233
0.298874
0.160649
-0.011274
-0.130806
-0.24052
-0.314474
-0.364823
-0.416243
-0.381684
-0.338163
-0.260709
-0.122308
0.0980499
0.396715
0.664369
1.01836
1.36651
1.10386
0.818752
0.54161
0.248621
0.0462485
-0.0197109
-0.120276
-0.175164
-0.231413
-0.336834
-0.316537
-0.293337
-0.24278
-0.211358
-0.0943282
0.0688437
0.311748
0.607758
0.768437
0.969033
0.749726
0.610412
0.321757
0.182875
0.0665166
-0.0387772
-0.0823271
-0.128762
-0.146576
-0.226616
-0.2959
-0.27808
-0.236724
-0.12251
-0.12952
0.0393846
0.201005
0.382125
0.550941
0.541313
0.503505
0.315643
0.189015
0.019109
-0.0127937
-0.0402917
-0.110994
-0.117255
-0.0981813
-0.119959
-0.140124
-0.0934485
-0.146535
-0.0471923
-0.0793263
-0.0586878
0.126815
0.237046
0.336354
0.167512
0.229405
0.112602
0.0486365
-0.0310489
0.0363854
-0.0627853
-0.0511669
0.0111579
-0.032487
-0.0482824
-0.0161865
-0.0216308
-0.0612809
0.0847707
-0.0769859
0.030514
-0.010768
0.0823439
0.0774662
2.78671
2.02633
1.32892
0.674034
0.140523
-0.260263
-0.606757
-0.839696
-1.04644
-1.12407
-1.24435
-1.27498
-1.24049
-1.08444
-0.98393
-0.70804
-0.322012
0.227175
0.797707
1.44523
2.36243
1.63181
0.98164
0.521045
0.0900217
-0.325625
-0.549341
-0.814888
-0.944633
-0.995599
-1.07403
-1.09455
-1.13917
-1.03611
-0.903416
-0.677759
-0.339509
0.142255
0.631111
1.17826
1.82357
1.39228
0.7591
0.409941
0.00246107
-0.280789
-0.486399
-0.707658
-0.842447
-0.958884
-0.981044
-1.05205
-1.00036
-0.921466
-0.833942
-0.600895
-0.30348
0.0282629
0.467301
0.90472
1.49065
1.10099
0.689507
0.258596
-0.0775865
-0.33482
-0.479325
-0.568108
-0.726877
-0.803299
-0.884955
-0.91915
-0.812661
-0.736069
-0.703856
-0.535931
-0.273885
0.052849
0.339636
0.722971
1.09944
0.893258
0.503638
0.246035
0.027106
-0.174179
-0.386285
-0.486984
-0.567565
-0.687578
-0.677487
-0.665769
-0.684846
-0.638198
-0.547629
-0.412549
-0.2491
0.0437045
0.347856
0.578645
0.731783
0.567961
0.323801
0.158451
-0.146172
-0.21142
-0.269178
-0.363741
-0.485336
-0.481059
-0.471516
-0.579728
-0.542296
-0.483232
-0.407777
-0.3462
-0.23215
0.0215238
0.19581
0.37418
0.509101
0.342692
0.265069
0.0454032
-0.0597923
-0.0573424
-0.218209
-0.226052
-0.285195
-0.325633
-0.339642
-0.300573
-0.279817
-0.30292
-0.232011
-0.193118
-0.15829
-0.0451582
0.179174
0.231413
0.18841
0.149915
0.109087
0.0393492
0.0665997
-0.0245931
-0.0158718
-0.108249
-0.0563816
-0.0994016
-0.111531
-0.118452
-0.0988233
-0.0817875
-0.0808986
-0.0303737
-0.0746268
0.0162959
0.0085199
0.0411392
2.49303
1.74019
0.95054
0.259443
-0.280015
-0.828837
-1.1485
-1.42591
-1.59236
-1.74458
-1.81028
-1.81995
-1.83616
-1.63282
-1.40882
-1.23087
-0.814877
-0.175397
0.443542
1.13233
2.10667
1.4352
0.755419
0.116091
-0.309848
-0.654526
-0.995741
-1.32143
-1.46191
-1.57118
-1.64245
-1.68863
-1.57482
-1.46399
-1.43156
-1.11915
-0.731299
-0.176358
0.41293
0.869153
1.75872
1.17262
0.566747
0.11532
-0.304426
-0.703225
-0.883036
-1.16509
-1.30309
-1.36257
-1.40945
-1.46621
-1.47537
-1.35982
-1.23613
-0.987455
-0.658138
-0.276246
0.189636
0.676129
1.34591
0.915307
0.546593
0.0286735
-0.290151
-0.595459
-0.814771
-0.934042
-1.07008
-1.10087
-1.25158
-1.19534
-1.23021
-1.12669
-1.00587
-0.79375
-0.586292
-0.18036
0.163232
0.479159
1.01019
0.726406
0.339102
0.0402618
-0.219067
-0.443427
-0.680963
-0.783786
-0.878247
-0.923206
-1.00548
-0.981295
-0.952149
-0.909569
-0.815624
-0.684282
-0.489055
-0.220604
0.0527591
0.361719
0.61512
0.550012
0.196486
-0.00971872
-0.239946
-0.375328
-0.474923
-0.441084
-0.673555
-0.739279
-0.627135
-0.753413
-0.685196
-0.737667
-0.604256
-0.549188
-0.375475
-0.153305
0.0348665
0.280081
0.485261
0.328161
0.130656
-0.01105
-0.163079
-0.240731
-0.285452
-0.350371
-0.400847
-0.387116
-0.445455
-0.333921
-0.391832
-0.419334
-0.395122
-0.251774
-0.218386
-0.11007
0.0817996
0.164222
0.107839
0.114457
0.0145892
-0.0263539
-0.049992
-0.0442887
-0.0734936
-0.0808063
-0.145271
-0.152704
-0.145268
-0.165393
-0.100909
-0.125329
-0.103451
-0.100714
-0.0335786
-0.0791917
0.0566489
0.14173
2.47456
1.73116
0.839108
0.148994
-0.526987
-1.0127
-1.48609
-1.80624
-1.96545
-2.09058
-2.19359
-2.23447
-2.15863
-2.04189
-1.78285
-1.38061
-0.983387
-0.357509
0.379706
1.05626
2.00395
1.44689
0.701543
-0.0669966
-0.486304
-0.986156
-1.27889
-1.47904
-1.74187
-1.90413
-2.01884
-1.95939
-1.85007
-1.8425
-1.60854
-1.3295
-0.866979
-0.339826
0.22835
0.905441
1.6897
1.11076
0.4941
-0.0144761
-0.513464
-0.838066
-1.13294
-1.42408
-1.52113
-1.73368
-1.75526
-1.71512
-1.70432
-1.61893
-1.41767
-1.16146
-0.774927
-0.396555
0.168779
0.672769
1.34964
0.900936
0.421729
-0.071496
-0.379168
-0.748372
-0.955189
-1.1621
-1.27228
-1.38121
-1.37208
-1.40802
-1.38692
-1.39073
-1.14746
-0.99806
-0.643919
-0.253957
0.0868071
0.513121
1.01947
0.655827
0.290123
-0.0618945
-0.354454
-0.601257
-0.753572
-0.966237
-1.01667
-1.09677
-1.16322
-1.0564
-1.1473
-1.02789
-0.997142
-0.782586
-0.568232
-0.295206
0.0303828
0.348892
0.665352
0.518275
0.197942
-0.0483906
-0.22908
-0.389572
-0.589312
-0.687548
-0.693538
-0.749248
-0.90852
-0.857477
-0.764729
-0.779596
-0.724575
-0.576895
-0.478707
-0.186309
0.00472151
0.235513
0.423521
0.32296
0.0297977
-0.0726136
-0.0994382
-0.268255
-0.359175
-0.426663
-0.410466
-0.56086
-0.439437
-0.531622
-0.414298
-0.445128
-0.419456
-0.35352
-0.291321
-0.195403
0.0120478
0.212633
0.12117
0.116515
0.032299
-0.0100784
-0.0266346
-0.0721442
-0.174799
-0.104365
-0.141486
-0.105942
-0.212105
-0.150758
-0.182338
-0.0581491
-0.111489
-0.0876521
-0.0504822
-0.00332644
0.0481499
0.0662486
2.73023
1.89832
1.01285
0.26608
-0.407399
-1.05139
-1.41661
-1.77516
-2.02296
-2.26708
-2.31018
-2.32432
-2.29044
-2.14204
-1.86177
-1.4829
-0.986575
-0.219878
0.467889
1.27791
2.30232
1.53797
0.78304
0.105791
-0.487905
-0.870053
-1.34771
-1.66713
-1.81993
-1.98268
-2.08277
-2.03513
-2.06433
-1.85711
-1.64066
-1.35328
-0.820159
-0.30267
0.447099
0.975708
1.90551
1.25168
0.662538
0.0336423
-0.400792
-0.877564
-1.17351
-1.32644
-1.63275
-1.70024
-1.79935
-1.76123
-1.76049
-1.67748
-1.31206
-1.10901
-0.730491
-0.336612
0.309541
0.769036
1.46207
0.972401
0.500241
-0.0573955
-0.406536
-0.741884
-1.03557
-1.20523
-1.37156
-1.46215
-1.53461
-1.51813
-1.37507
-1.39223
-1.19465
-1.00546
-0.639394
-0.203652
0.125264
0.63245
1.0775
0.742918
0.335187
-0.0120418
-0.304486
-0.622498
-0.788267
-0.975333
-1.06203
-1.17056
-1.14036
-1.23328
-1.20472
-1.01185
-0.963547
-0.792403
-0.535256
-0.238432
0.084597
0.425614
0.792562
0.513701
0.208233
-0.0500593
-0.259666
-0.433535
-0.633814
-0.717593
-0.801329
-0.850776
-0.887919
-0.85926
-0.875264
-0.769183
-0.697854
-0.622071
-0.392384
-0.219961
0.0469673
0.297839
0.444402
0.277811
0.151662
-0.00826159
-0.150613
-0.254015
-0.348734
-0.43221
-0.508584
-0.452375
-0.550411
-0.561349
-0.480837
-0.527433
-0.470592
-0.375618
-0.216024
-0.1238
0.0310576
0.197965
0.103399
0.190666
0.0454631
0.0271687
-0.086136
-0.0071742
-0.118505
-0.129309
-0.126105
-0.193166
-0.226415
-0.203287
-0.185569
-0.214419
-0.095232
-0.137015
-0.0959979
-0.0925876
-0.0420728
0.0616538
3.21643
2.4033
1.40974
0.571096
-0.129949
-0.694277
-1.23622
-1.64863
-1.89652
-2.12954
-2.23193
-2.13551
-2.07006
-1.92827
-1.68424
-1.1316
-0.636549
0.0988237
0.962995
1.6926
2.74087
1.97367
1.17667
0.483613
-0.159243
-0.704555
-1.10023
-1.46262
-1.66286
-1.92708
-1.90766
-1.96532
-1.90169
-1.79055
-1.47427
-1.12328
-0.618745
0.0310605
0.780148
1.3781
2.2186
1.59348
0.947325
0.294148
-0.197051
-0.67451
-1.02013
-1.29071
-1.52278
-1.63956
-1.75158
-1.70711
-1.63465
-1.46698
-1.25122
-0.97171
-0.453345
-0.00452406
0.615767
1.08428
1.75619
1.28524
0.73
0.162957
-0.133099
-0.523814
-0.858415
-1.12948
-1.37197
-1.40144
-1.45598
-1.38362
-1.38615
-1.20105
-1.10769
-0.866258
-0.515112
-0.0412999
0.414898
0.785863
1.35607
0.934216
0.556976
0.144559
-0.233312
-0.477731
-0.769316
-0.84891
-0.978254
-1.11649
-1.19852
-1.10705
-1.13825
-1.05702
-0.888485
-0.610396
-0.35499
-0.0162756
0.33869
0.65815
0.862779
0.701172
0.356874
0.0951919
-0.134845
-0.333554
-0.516719
-0.6198
-0.79103
-0.78509
-0.839474
-0.762312
-0.79546
-0.747773
-0.651153
-0.478682
-0.331561
-0.00600453
0.184977
0.369074
0.536885
0.341479
0.204025
-0.0230609
-0.105005
-0.226019
-0.313906
-0.421024
-0.552016
-0.471908
-0.477274
-0.500431
-0.509316
-0.407759
-0.369956
-0.315336
-0.221057
-0.0441782
0.122753
0.297927
0.201446
0.158957
0.0985316
0.055789
-0.0158982
-0.0142728
-0.187215
-0.100152
-0.130747
-0.14405
-0.121241
-0.139133
-0.212969
-0.176074
-0.159527
-0.097887
-0.110989
-0.00758769
0.0844179
0.140471
4.00694
3.09353
2.14275
1.23587
0.444729
-0.31556
-0.729853
-1.18704
-1.42149
-1.67742
-1.7427
-1.79364
-1.72624
-1.40327
-1.11535
-0.639801
-0.048208
0.745592
1.58117
2.40596
3.34591
2.58976
1.75623
0.939069
0.306029
-0.273134
-0.645962
-1.07444
-1.34759
-1.53365
-1.60006
-1.57048
-1.52699
-1.31448
-1.00126
-0.64639
-0.0524897
0.543181
1.34375
2.03349
2.79171
2.11617
1.47181
0.80216
0.149797
-0.309096
-0.639298
-0.899503
-1.10203
-1.32907
-1.42213
-1.34877
-1.32318
-1.15529
-0.922535
-0.535463
-0.00759523
0.506727
1.0406
1.57519
2.24031
1.67925
1.13582
0.619231
0.135772
-0.320905
-0.60407
-0.848173
-0.985081
-1.16677
-1.244
-1.16394
-1.15467
-0.955682
-0.731301
-0.489761
-0.108437
0.364539
0.799486
1.32634
1.7457
1.28175
0.853844
0.419152
0.0894307
-0.202602
-0.463359
-0.656651
-0.771225
-0.886732
-0.930573
-0.943502
-0.828996
-0.734713
-0.660434
-0.41194
-0.126456
0.238848
0.599808
1.03579
1.1688
0.930039
0.613288
0.288837
0.105222
-0.201904
-0.356106
-0.484318
-0.573242
-0.619836
-0.668076
-0.719255
-0.56109
-0.588659
-0.535074
-0.249841
-0.0504906
0.108861
0.432825
0.649031
0.703835
0.518025
0.34522
0.107324
0.00373687
-0.144547
-0.258262
-0.22763
-0.345444
-0.395191
-0.461047
-0.424859
-0.362531
-0.345662
-0.298815
-0.20894
-0.0741967
0.0930211
0.199536
0.37691
0.250082
0.123525
0.0967267
0.0914315
0.0489477
-0.0469506
-0.0745642
-0.0739922
-0.133719
-0.153456
-0.176725
-0.170213
-0.137563
-0.0603182
-0.0814438
-0.0153361
-0.034523
0.0230021
0.0898881
0.11529
4.95134
4.12378
3.09982
2.16878
1.37458
0.682189
0.0603326
-0.390321
-0.659575
-0.936875
-0.97536
-1.01679
-0.948933
-0.650228
-0.224121
0.234811
0.885674
1.58757
2.52898
3.40123
4.21833
3.47115
2.59104
1.74032
1.04012
0.46485
-0.0722433
-0.40799
-0.670934
-0.88621
-1.03245
-0.942843
-0.784764
-0.634707
-0.346301
0.0927521
0.697791
1.41006
2.2024
2.85373
3.49795
2.84563
2.13597
1.48888
0.886287
0.334538
-0.0439621
-0.406639
-0.550766
-0.801241
-0.8744
-0.917175
-0.708723
-0.583371
-0.320101
0.0408633
0.546066
1.15182
1.71435
2.37849
2.86874
2.30788
1.73517
1.16535
0.681911
0.27538
-0.0591642
-0.459554
-0.586895
-0.719151
-0.734932
-0.823922
-0.668258
-0.466493
-0.283009
0.0797116
0.428773
0.863844
1.40783
1.86831
2.10403
1.78454
1.30395
0.855779
0.539309
0.228735
-0.019561
-0.335523
-0.462861
-0.544551
-0.613787
-0.569059
-0.550934
-0.45239
-0.253441
-0.0304223
0.328452
0.658927
1.10607
1.43275
1.57187
1.23612
0.949696
0.62405
0.322883
0.078058
-0.038816
-0.253896
-0.376835
-0.410884
-0.441554
-0.484746
-0.403855
-0.409181
-0.189989
-0.00770159
0.224168
0.455283
0.771759
1.00916
0.940329
0.765212
0.528212
0.306044
0.190784
0.0438498
-0.0830052
-0.174315
-0.151599
-0.214371
-0.260088
-0.270079
-0.301959
-0.163011
-0.120938
-0.0394844
0.11255
0.290233
0.514888
0.61023
0.302713
0.27781
0.128608
0.117472
0.0213819
0.0808722
-0.0136914
-0.0083945
-0.0745663
-0.084232
-0.101173
-0.0653166
-0.0732612
-0.109347
0.00194386
-0.0237697
0.0612612
0.130741
0.121358
0.222157
6.3612
5.35317
4.26402
3.34033
2.42504
1.64942
1.15143
0.652572
0.385567
0.0663734
8.85304e-05
-0.0200587
0.133583
0.460126
0.860226
1.36855
2.00547
2.85796
3.82434
4.72869
5.41163
4.57221
3.68248
2.78537
2.04348
1.39996
0.801176
0.487629
0.222231
-0.000553069
-0.176546
-0.0498901
0.0332152
0.259263
0.642375
1.05764
1.75902
2.3914
3.19596
4.02798
4.49972
3.81921
3.01525
2.31028
1.66355
1.16835
0.713404
0.372046
0.0568976
-0.00791332
-0.154955
-0.142432
-0.0115415
0.235748
0.494302
0.878253
1.39898
1.94992
2.63848
3.30142
3.63451
3.14103
2.464
1.87871
1.38436
0.94276
0.490064
0.26171
0.0294651
-0.0052656
-0.142209
-0.153168
-0.0531584
0.18703
0.287978
0.666236
1.15607
1.60363
2.19497
2.6991
2.81115
2.32952
1.90567
1.34958
1.00661
0.574793
0.422711
0.189344
0.00377335
-0.100353
-0.13561
-0.153675
-0.0073108
0.0176964
0.301961
0.517804
0.846246
1.25879
1.71366
1.99131
1.92345
1.69882
1.30635
1.02086
0.679741
0.447256
0.346944
0.0596213
-0.0313266
-0.0574876
-0.0670591
-0.124107
-0.0444197
-0.00173342
0.172354
0.360323
0.580697
0.886676
1.17665
1.4543
1.21548
0.954574
0.797938
0.581681
0.376792
0.255054
0.159235
0.0566716
-0.0457551
-0.0559702
-0.0986906
0.0493574
-0.0785405
0.0828958
0.0647805
0.204364
0.266601
0.560894
0.64902
0.85907
0.347313
0.381195
0.22254
0.165354
0.164373
0.0850402
0.0665669
-0.0509845
0.00067067
-0.0217053
-0.0185107
-0.0109816
-0.0221171
-0.00156644
0.0105363
0.135994
0.142156
0.169756
0.217798
0.244167
7.9878
6.97835
5.77511
4.82749
3.96477
3.09872
2.48214
2.02538
1.72776
1.40059
1.29541
1.31768
1.46113
1.78048
2.13392
2.74318
3.47221
4.36234
5.31009
6.27272
6.82411
5.94922
4.97748
4.06048
3.26726
2.64449
2.1416
1.65045
1.40071
1.13301
0.986932
1.12408
1.21375
1.46564
1.81199
2.35125
2.9233
3.74868
4.55977
5.27133
5.67557
4.95453
4.14091
3.37676
2.71362
2.08241
1.69216
1.39649
1.12409
0.97586
0.904453
0.924982
1.0214
1.16625
1.53234
1.89773
2.34623
3.00994
3.85274
4.42725
4.58327
4.07355
3.36576
2.70889
2.21156
1.70713
1.3624
1.10583
0.850736
0.759338
0.635786
0.625184
0.729167
0.940411
1.18511
1.59629
1.95073
2.48564
3.02208
3.53079
3.52299
3.08787
2.60284
2.1673
1.67188
1.2884
0.987879
0.771765
0.571741
0.519223
0.488434
0.524409
0.555141
0.668702
0.910399
1.17625
1.51158
1.88278
2.37826
2.72873
2.51487
2.15677
1.84149
1.48121
1.26073
0.916886
0.755617
0.526688
0.430473
0.370109
0.348069
0.378549
0.392996
0.445426
0.654528
0.762624
1.05155
1.40087
1.66469
1.91736
1.45428
1.31147
1.0643
0.909718
0.693163
0.535289
0.418321
0.398865
0.257164
0.201257
0.176276
0.194907
0.215674
0.29865
0.338643
0.492883
0.648342
0.821979
1.00164
1.16401
0.479899
0.483546
0.361411
0.293422
0.220731
0.187512
0.17478
0.0598628
0.102345
0.0835458
0.036205
0.055473
0.0697187
0.115285
0.113258
0.152349
0.222197
0.234261
0.287511
0.340947
9.86755
8.77648
7.60239
6.50129
5.54385
4.81866
4.14338
3.63322
3.28708
3.02541
3.00271
2.9508
3.12353
3.38206
3.8812
4.49209
5.23412
6.08018
7.14222
8.10776
8.41464
7.51758
6.5363
5.63651
4.84936
4.13277
3.51244
3.14488
2.76244
2.56151
2.39966
2.48059
2.62711
2.85999
3.22564
3.86313
4.45669
5.2359
6.15293
6.88214
7.09445
6.29434
5.49711
4.75934
3.98962
3.43351
2.92195
2.58241
2.29055
2.20205
2.04592
2.05176
2.17389
2.38601
2.78662
3.1216
3.74199
4.40118
5.03609
5.80183
5.79732
5.14846
4.43075
3.76915
3.27686
2.7975
2.37589
1.98915
1.78285
1.69735
1.58506
1.54452
1.68524
1.86866
2.21201
2.60258
2.97723
3.5959
4.1631
4.69087
4.4118
3.98003
3.44987
2.92378
2.53734
2.05357
1.81283
1.58525
1.42542
1.2336
1.19513
1.2536
1.28003
1.46556
1.659
1.95872
2.39368
2.77005
3.20221
3.58318
3.14303
2.81712
2.46934
2.14674
1.72525
1.50685
1.29591
1.09033
0.997317
0.881179
0.868807
0.875683
0.95498
1.01712
1.22678
1.42845
1.74402
1.98105
2.27236
2.5273
1.93253
1.67001
1.46511
1.26427
1.08914
0.840549
0.758215
0.683629
0.596254
0.517429
0.529463
0.571155
0.547323
0.553859
0.67736
0.792247
0.953723
1.18913
1.33724
1.48439
0.669311
0.576671
0.529715
0.387967
0.317118
0.313019
0.280741
0.183155
0.233044
0.172954
0.180436
0.166894
0.185351
0.159573
0.28888
0.231108
0.255384
0.282016
0.470009
0.474157
12.09
10.9646
9.77923
8.67897
7.66901
6.83635
6.14612
5.59892
5.19482
4.92471
4.91165
4.85173
5.05845
5.41634
5.87852
6.50329
7.27928
8.26037
9.21002
10.2549
10.3688
9.44119
8.34652
7.39585
6.59098
5.82154
5.29432
4.76887
4.3844
4.2057
4.069
4.11262
4.31577
4.58509
4.99068
5.58106
6.25364
7.04585
7.96279
8.76933
8.62517
7.96753
6.96594
6.24654
5.40337
4.83568
4.38462
3.97788
3.6186
3.53513
3.41253
3.42857
3.50738
3.81016
4.21706
4.66519
5.14218
5.86443
6.67568
7.34511
7.00775
6.38458
5.66906
5.03419
4.38623
3.96016
3.47426
3.1757
2.91747
2.79177
2.6966
2.85772
2.9179
3.02347
3.38398
3.77062
4.20835
4.76786
5.42197
5.9555
5.37241
4.97652
4.37989
3.85951
3.41155
2.99511
2.70348
2.40286
2.31362
2.13993
2.12294
2.09543
2.22026
2.43057
2.53279
2.87167
3.23425
3.68869
4.16428
4.58306
3.82717
3.53727
3.10789
2.72956
2.48856
2.25222
1.92333
1.71639
1.60218
1.47361
1.48606
1.56961
1.63011
1.61467
1.83065
2.06553
2.27184
2.63736
2.93477
3.27996
2.32919
2.05689
1.92357
1.7256
1.45236
1.25414
1.10864
1.01794
1.02755
0.864403
0.859842
0.977231
0.922712
0.985119
1.08044
1.2548
1.34383
1.55111
1.723
1.93317
0.714804
0.727369
0.645479
0.514635
0.454485
0.417209
0.382527
0.337637
0.377433
0.346021
0.241778
0.269931
0.371091
0.360103
0.397506
0.464946
0.517693
0.483433
0.600458
0.699747
14.4225
13.4132
12.0882
11.0575
9.98151
9.13923
8.32227
7.8326
7.38376
7.07812
7.05027
7.05553
7.24259
7.56293
8.08352
8.72227
9.57401
10.5573
11.637
12.581
12.3889
11.4772
10.3655
9.40835
8.56762
7.81667
7.18396
6.76626
6.31325
6.09851
6.10862
6.07081
6.15947
6.49585
6.90487
7.53784
8.20077
9.09866
9.93184
10.7686
10.3762
9.61528
8.75108
7.86723
7.20807
6.60717
5.96736
5.60036
5.3289
5.0878
5.04517
5.09779
5.1903
5.4056
5.77765
6.26668
6.914
7.55378
8.30168
9.0509
8.41512
7.8093
7.07796
6.38722
5.75174
5.31914
4.91236
4.5744
4.31513
4.09314
4.03544
4.03805
4.18232
4.40583
4.71136
5.10908
5.55834
6.17137
6.81054
7.32928
6.54273
5.99275
5.46233
4.93258
4.4469
4.11454
3.74875
3.47245
3.28317
3.14406
3.15274
3.16359
3.2584
3.45034
3.58747
3.89428
4.32288
4.80255
5.27688
5.66072
4.68537
4.30183
3.94578
3.52175
3.27565
2.8928
2.70181
2.43884
2.34327
2.28108
2.23661
2.26682
2.28089
2.38723
2.55678
2.81985
2.99653
3.27668
3.73373
4.04263
2.76133
2.56603
2.39665
2.0679
1.92438
1.70084
1.57912
1.44613
1.33576
1.3666
1.32999
1.29479
1.4121
1.39787
1.5483
1.55733
1.8111
2.02391
2.20821
2.38652
0.865545
0.860345
0.770844
0.738676
0.670759
0.603589
0.470271
0.547216
0.486837
0.435322
0.413605
0.480233
0.403964
0.423013
0.476819
0.600222
0.652426
0.664479
0.746966
0.81267
17.0707
15.9424
14.7013
13.5233
12.4372
11.6301
10.8289
10.2531
9.85091
9.53666
9.46496
9.49192
9.6749
10.0506
10.5246
11.2773
12.0368
13.0871
14.133
15.0915
14.6257
13.6784
12.5604
11.5416
10.7287
9.91139
9.30503
8.74505
8.38706
8.09938
8.11089
8.08936
8.27919
8.57597
9.03678
9.64896
10.3582
11.1942
12.0978
13.0208
12.1994
11.4804
10.5613
9.66365
8.95405
8.28917
7.76467
7.31311
7.06979
6.84943
6.76762
6.80453
6.91489
7.12922
7.49618
8.12208
8.67167
9.46354
10.1667
10.9223
9.90318
9.3321
8.67597
7.9231
7.30189
6.74695
6.26015
6.02733
5.69996
5.6102
5.39789
5.46458
5.5908
5.80925
6.13528
6.5142
7.07143
7.56035
8.26308
8.80706
7.67221
7.24104
6.60444
6.16585
5.64304
5.17254
4.88625
4.56303
4.39861
4.24801
4.20999
4.20029
4.32656
4.41722
4.70751
5.09654
5.42756
5.94954
6.44642
6.84828
5.46782
5.14959
4.68867
4.37484
4.01611
3.68281
3.49175
3.31331
3.10529
3.0954
3.00648
2.95434
3.05261
3.19028
3.35414
3.50498
3.84138
4.14903
4.53487
4.83974
3.31416
3.03406
2.83151
2.59122
2.36052
2.21604
2.07693
1.93897
1.87777
1.76505
1.78444
1.78567
1.81907
1.89693
2.04705
2.12244
2.31647
2.52746
2.6939
2.90028
1.09309
1.04273
0.907629
0.894548
0.829672
0.754238
0.633873
0.625917
0.568362
0.584984
0.624734
0.573636
0.594329
0.602336
0.66662
0.715589
0.769514
0.819736
0.898073
1.02125
19.674
18.5164
17.2105
15.9828
14.9896
14.0275
13.3344
12.7298
12.2728
11.9778
11.8955
11.9314
12.115
12.4955
13.0234
13.6722
14.5849
15.582
16.6715
17.7831
16.8529
15.8534
14.7099
13.7125
12.8718
12.0423
11.3584
10.909
10.5063
10.2737
10.0837
10.1386
10.3503
10.7031
11.1771
11.7402
12.5014
13.3287
14.3096
15.1322
14.0751
13.2735
12.3649
11.6103
10.769
10.059
9.52731
9.0673
8.77129
8.52704
8.46282
8.49655
8.62613
8.95018
9.2322
9.86674
10.4317
11.1422
11.987
12.695
11.5152
10.8157
10.0211
9.35007
8.65046
8.1919
7.7279
7.35699
7.05013
6.94963
6.85253
6.84217
7.03529
7.19152
7.52467
7.91607
8.50506
9.07219
9.74261
10.2794
8.80654
8.31195
7.75431
7.20513
6.66013
6.30323
5.95872
5.65127
5.48053
5.33252
5.22185
5.26813
5.35479
5.61022
5.7915
6.14615
6.52493
7.07537
7.40733
7.96191
6.25857
5.94388
5.45075
5.11954
4.74692
4.5367
4.11035
3.96389
3.88153
3.80685
3.69947
3.69529
3.89319
3.99822
4.10903
4.40864
4.6099
5.02469
5.3299
5.62256
3.75849
3.56745
3.24446
3.09293
2.86379
2.67213
2.54492
2.43119
2.34079
2.24736
2.17766
2.27126
2.29479
2.4761
2.47898
2.62709
2.80229
2.99187
3.19217
3.41985
1.25153
1.17954
1.16799
0.970901
0.946829
0.847638
0.880787
0.743631
0.742724
0.770725
0.763236
0.760304
0.844976
0.79654
0.829432
0.88291
0.913714
0.944063
1.03781
1.14595
21.762
20.608
19.3242
18.1601
16.9995
16.1295
15.3424
14.7463
14.2588
14.0711
13.9344
13.9587
14.1394
14.492
14.9859
15.758
16.5882
17.63
18.7466
19.7763
18.5161
17.5421
16.4194
15.4335
14.4744
13.6896
13.0032
12.4803
12.1668
11.8977
11.8116
11.8106
11.992
12.3351
12.8135
13.4157
14.1231
15.0303
15.9933
16.8291
15.4819
14.6483
13.7477
12.884
12.0619
11.3637
10.8611
10.3877
10.132
9.83788
9.80126
9.80936
9.93856
10.206
10.6117
11.0969
11.7557
12.4902
13.3773
14.0254
12.569
11.921
11.0996
10.3689
9.76803
9.1887
8.76573
8.35699
8.05148
7.88946
7.86664
7.91432
7.98802
8.21265
8.59029
8.95892
9.43107
10.1456
10.82
11.2773
9.66855
9.15389
8.54999
7.96724
7.42578
7.09104
6.71064
6.39611
6.2032
6.10504
6.05492
6.06238
6.18588
6.32981
6.61403
6.88865
7.32037
7.75039
8.30097
8.75146
6.85141
6.52038
6.11148
5.63341
5.29375
5.07408
4.76945
4.58612
4.47825
4.26992
4.2686
4.22755
4.39131
4.42101
4.69596
4.94112
5.17268
5.53756
5.85635
6.15455
4.07069
3.94927
3.64467
3.39038
3.15297
2.94338
2.8923
2.74534
2.62
2.61134
2.54997
2.5318
2.55945
2.67506
2.79022
2.96394
3.09273
3.34356
3.49522
3.65925
1.36005
1.34227
1.26885
1.09022
1.06219
0.946359
0.958932
0.905746
0.94355
0.823259
0.83888
0.852322
0.868185
0.897229
0.906376
0.926957
1.03842
1.14533
1.14246
1.29094
)
;

boundaryField
{
    hotSide
    {
        type            calculated;
        value           nonuniform List<scalar> 
400
(
7.41398
6.61552
5.7307
4.86342
4.21232
3.8402
3.57147
3.58218
3.8713
4.39523
5.2278
6.21859
7.67922
9.36097
11.3003
13.5867
15.9876
18.7087
21.3893
23.5591
6.92831
6.09687
5.19731
4.26771
3.6082
3.08667
2.82518
2.84502
3.04527
3.58764
4.31956
5.39585
6.67566
8.35567
10.213
12.4648
14.9815
17.5834
20.2344
22.4076
6.4917
5.56715
4.58842
3.66456
2.96641
2.3966
2.04252
1.95956
2.16602
2.59989
3.37419
4.37691
5.59114
7.15668
9.04284
11.283
13.6598
16.3452
18.9312
21.1262
6.07149
5.15353
4.15212
3.12501
2.27447
1.74938
1.35869
1.2763
1.42565
1.7672
2.47282
3.45093
4.6721
6.21331
7.94563
10.1863
12.6323
15.1702
17.7062
19.9646
5.76626
4.77112
3.68068
2.74287
1.81242
1.22366
0.82658
0.6072
0.758571
1.07207
1.68712
2.66173
3.76136
5.35473
6.99194
9.17974
11.5594
14.0868
16.7155
18.8062
5.45868
4.51157
3.38813
2.36726
1.5152
0.830452
0.284879
0.128114
0.120718
0.513382
0.931991
1.97403
2.99
4.49253
6.27022
8.35021
10.7199
13.2822
15.7557
17.9382
5.35379
4.40365
3.29663
2.16417
1.17352
0.490905
-0.0282886
-0.339248
-0.238955
-0.0234891
0.522313
1.35635
2.49578