/*--------------------------------*- C++ -*----------------------------------*\
| =========                 |                                                 |
| \\      /  F ield         | OpenFOAM: The Open Source CFD Toolbox           |
|  \\    /   O peration     | Version:  2212                                  |
|   \\  /    A nd           | Website:  www.openfoam.com                      |
|    \\/     M anipulation  |                                                 |
\*---------------------------------------------------------------------------*/
FoamFile
{
    version     2.0;
    format      ascii;
    arch        "LSB;label=32;scalar=64";
    class       volScalarField;
    location    "./ITHACAoutput/true/15.6";
    object      trueState;
}
// * * * * * * * * * * * * * * * * * * * * * * * * * * * * * * * * * * * * * //

dimensions      [0 0 0 1 0 0 0];

internalField   nonuniform List<scalar> 
3200
(
344.752
345.015
345.35
345.716
346.093
346.463
346.804
347.092
347.302
347.413
347.413
347.302
347.092
346.804
346.463
346.093
345.716
345.35
345.015
344.752
338.762
338.984
339.274
339.59
339.916
340.236
340.531
340.78
340.961
341.057
341.057
340.961
340.78
340.531
340.236
339.916
339.59
339.274
338.984
338.762
332.782
332.967
333.211
333.478
333.754
334.024
334.273
334.483
334.636
334.717
334.717
334.636
334.483
334.273
334.024
333.754
333.478
333.211
332.967
332.782
326.812
326.961
327.16
327.378
327.603
327.824
328.028
328.199
328.324
328.39
328.39
328.324
328.199
328.028
327.824
327.603
327.378
327.16
326.961
326.812
320.851
320.965
321.119
321.289
321.464
321.635
321.794
321.927
322.024
322.075
322.075
322.024
321.927
321.794
321.635
321.464
321.289
321.119
320.965
320.851
314.896
314.976
315.086
315.208
315.333
315.455
315.568
315.663
315.732
315.769
315.769
315.732
315.663
315.568
315.455
315.333
315.208
315.086
314.976
314.896
308.946
308.994
309.06
309.132
309.207
309.281
309.349
309.406
309.447
309.469
309.469
309.447
309.406
309.349
309.281
309.207
309.132
309.06
308.994
308.946
302.998
303.014
303.037
303.061
303.086
303.111
303.133
303.153
303.166
303.174
303.174
303.166
303.153
303.133
303.111
303.086
303.061
303.037
303.014
302.998
344.938
345.199
345.531
345.894
346.267
346.632
346.97
347.254
347.461
347.571
347.571
347.461
347.254
346.97
346.632
346.267
345.894
345.531
345.199
344.938
338.923
339.143
339.43
339.744
340.066
340.383
340.675
340.92
341.099
341.194
341.194
341.099
340.92
340.675
340.383
340.066
339.744
339.43
339.143
338.923
332.918
333.101
333.343
333.608
333.881
334.148
334.394
334.602
334.753
334.832
334.832
334.753
334.602
334.394
334.148
333.881
333.608
333.343
333.101
332.918
326.923
327.071
327.268
327.484
327.707
327.926
328.127
328.296
328.42
328.485
328.485
328.42
328.296
328.127
327.926
327.707
327.484
327.268
327.071
326.923
320.937
321.05
321.203
321.371
321.545
321.714
321.871
322.002
322.098
322.148
322.148
322.098
322.002
321.871
321.714
321.545
321.371
321.203
321.05
320.937
314.957
315.037
315.146
315.267
315.39
315.512
315.623
315.717
315.785
315.821
315.821
315.785
315.717
315.623
315.512
315.39
315.267
315.146
315.037
314.957
308.983
309.03
309.096
309.168
309.242
309.315
309.382
309.438
309.479
309.501
309.501
309.479
309.438
309.382
309.315
309.242
309.168
309.096
309.03
308.983
303.011
303.027
303.049
303.073
303.098
303.122
303.144
303.163
303.177
303.184
303.184
303.177
303.163
303.144
303.122
303.098
303.073
303.049
303.027
303.011
345.31
345.567
345.894
346.249
346.615
346.973
347.302
347.58
347.782
347.888
347.888
347.782
347.58
347.302
346.973
346.615
346.249
345.894
345.567
345.31
339.245
339.462
339.744
340.052
340.368
340.677
340.962
341.202
341.377
341.469
341.469
341.377
341.202
340.962
340.677
340.368
340.052
339.744
339.462
339.245
333.19
333.37
333.608
333.868
334.135
334.397
334.638
334.84
334.987
335.065
335.065
334.987
334.84
334.638
334.397
334.135
333.868
333.608
333.37
333.19
327.146
327.291
327.485
327.697
327.916
328.129
328.326
328.491
328.611
328.675
328.675
328.611
328.491
328.326
328.129
327.916
327.697
327.485
327.291
327.146
321.11
321.221
321.372
321.537
321.706
321.873
322.025
322.154
322.247
322.296
322.296
322.247
322.154
322.025
321.873
321.706
321.537
321.372
321.221
321.11
315.081
315.16
315.267
315.385
315.506
315.625
315.734
315.825
315.892
315.927
315.927
315.892
315.825
315.734
315.625
315.506
315.385
315.267
315.16
315.081
309.057
309.104
309.168
309.239
309.312
309.383
309.448
309.503
309.543
309.564
309.564
309.543
309.503
309.448
309.383
309.312
309.239
309.168
309.104
309.057
303.036
303.051
303.073
303.097
303.121
303.145
303.167
303.185
303.199
303.206
303.206
303.199
303.185
303.167
303.145
303.121
303.097
303.073
303.051
303.036
345.869
346.12
346.439
346.785
347.139
347.486
347.804
348.071
348.266
348.368
348.368
348.266
348.071
347.804
347.486
347.139
346.785
346.439
346.12
345.869
339.728
339.94
340.215
340.515
340.822
341.121
341.397
341.628
341.796
341.884
341.884
341.796
341.628
341.397
341.121
340.822
340.515
340.215
339.94
339.728
333.599
333.775
334.007
334.259
334.519
334.772
335.005
335.2
335.342
335.416
335.416
335.342
335.2
335.005
334.772
334.519
334.259
334.007
333.775
333.599
327.48
327.621
327.81
328.017
328.229
328.436
328.626
328.785
328.901
328.962
328.962
328.901
328.785
328.626
328.436
328.229
328.017
327.81
327.621
327.48
321.369
321.478
321.625
321.785
321.95
322.111
322.259
322.382
322.472
322.52
322.52
322.472
322.382
322.259
322.111
321.95
321.785
321.625
321.478
321.369
315.266
315.343
315.447
315.562
315.68
315.795
315.9
315.989
316.053
316.086
316.086
316.053
315.989
315.9
315.795
315.68
315.562
315.447
315.343
315.266
309.168
309.214
309.276
309.345
309.416
309.485
309.548
309.601
309.64
309.66
309.66
309.64
309.601
309.548
309.485
309.416
309.345
309.276
309.214
309.168
303.073
303.088
303.109
303.132
303.156
303.179
303.2
303.218
303.231
303.238
303.238
303.231
303.218
303.2
303.179
303.156
303.132
303.109
303.088
303.073
346.616
346.859
347.167
347.501
347.842
348.174
348.478
348.733
348.918
349.015
349.015
348.918
348.733
348.478
348.174
347.842
347.501
347.167
346.859
346.616
340.374
340.58
340.846
341.134
341.43
341.717
341.98
342.201
342.36
342.444
342.444
342.36
342.201
341.98
341.717
341.43
341.134
340.846
340.58
340.374
334.145
334.315
334.539
334.783
335.033
335.275
335.498
335.684
335.819
335.89
335.89
335.819
335.684
335.498
335.275
335.033
334.783
334.539
334.315
334.145
327.926
328.063
328.246
328.445
328.649
328.847
329.029
329.181
329.291
329.349
329.349
329.291
329.181
329.029
328.847
328.649
328.445
328.246
328.063
327.926
321.716
321.821
321.963
322.118
322.277
322.431
322.572
322.69
322.776
322.821
322.821
322.776
322.69
322.572
322.431
322.277
322.118
321.963
321.821
321.716
315.513
315.588
315.689
315.8
315.913
316.023
316.124
316.208
316.269
316.301
316.301
316.269
316.208
316.124
316.023
315.913
315.8
315.689
315.588
315.513
309.316
309.361
309.422
309.488
309.556
309.622
309.683
309.733
309.77
309.789
309.789
309.77
309.733
309.683
309.622
309.556
309.488
309.422
309.361
309.316
303.123
303.137
303.158
303.18
303.203
303.225
303.245
303.262
303.275
303.281
303.281
303.275
303.262
303.245
303.225
303.203
303.18
303.158
303.137
303.123
347.551
347.785
348.081
348.4
348.725
349.04
349.328
349.568
349.742
349.834
349.834
349.742
349.568
349.328
349.04
348.725
348.4
348.081
347.785
347.551
341.183
341.381
341.636
341.913
342.194
342.467
342.716
342.924
343.074
343.153
343.153
343.074
342.924
342.716
342.467
342.194
341.913
341.636
341.381
341.183
334.828
334.992
335.207
335.441
335.679
335.909
336.119
336.295
336.422
336.489
336.489
336.422
336.295
336.119
335.909
335.679
335.441
335.207
334.992
334.828
328.484
328.616
328.792
328.982
329.177
329.365
329.537
329.681
329.785
329.839
329.839
329.785
329.681
329.537
329.365
329.177
328.982
328.792
328.616
328.484
322.15
322.251
322.387
322.536
322.687
322.833
322.967
323.079
323.159
323.202
323.202
323.159
323.079
322.967
322.833
322.687
322.536
322.387
322.251
322.15
315.823
315.895
315.992
316.098
316.206
316.311
316.406
316.486
316.543
316.574
316.574
316.543
316.486
316.406
316.311
316.206
316.098
315.992
315.895
315.823
309.502
309.545
309.603
309.667
309.732
309.795
309.852
309.9
309.934
309.952
309.952
309.934
309.9
309.852
309.795
309.732
309.667
309.603
309.545
309.502
303.185
303.199
303.219
303.24
303.262
303.283
303.302
303.318
303.33
303.336
303.336
303.33
303.318
303.302
303.283
303.262
303.24
303.219
303.199
303.185
348.676
348.899
349.181
349.484
349.791
350.088
350.358
350.583
350.745
350.83
350.83
350.745
350.583
350.358
350.088
349.791
349.484
349.181
348.899
348.676
342.156
342.346
342.589
342.851
343.117
343.374
343.607
343.802
343.942
344.015
344.015
343.942
343.802
343.607
343.374
343.117
342.851
342.589
342.346
342.156
335.65
335.807
336.012
336.234
336.459
336.676
336.873
337.037
337.156
337.218
337.218
337.156
337.037
336.873
336.676
336.459
336.234
336.012
335.807
335.65
329.156
329.282
329.45
329.631
329.814
329.992
330.153
330.288
330.384
330.435
330.435
330.384
330.288
330.153
329.992
329.814
329.631
329.45
329.282
329.156
322.672
322.769
322.899
323.04
323.182
323.32
323.446
323.55
323.625
323.665
323.665
323.625
323.55
323.446
323.32
323.182
323.04
322.899
322.769
322.672
316.196
316.265
316.357
316.458
316.56
316.659
316.748
316.823
316.876
316.904
316.904
316.876
316.823
316.748
316.659
316.56
316.458
316.357
316.265
316.196
309.726
309.767
309.823
309.883
309.944
310.004
310.057
310.102
310.134
310.151
310.151
310.134
310.102
310.057
310.004
309.944
309.883
309.823
309.767
309.726
303.26
303.274
303.292
303.312
303.333
303.353
303.371
303.386
303.397
303.402
303.402
303.397
303.386
303.371
303.353
303.333
303.312
303.292
303.274
303.26
349.992
350.204
350.471
350.756
351.044
351.321
351.572
351.78
351.93
352.009
352.009
351.93
351.78
351.572
351.321
351.044
350.756
350.471
350.204
349.992
343.295
343.474
343.705
343.952
344.201
344.441
344.658
344.838
344.968
345.036
345.036
344.968
344.838
344.658
344.441
344.201
343.952
343.705
343.474
343.295
336.612
336.761
336.955
337.164
337.375
337.578
337.761
337.914
338.023
338.08
338.08
338.023
337.914
337.761
337.578
337.375
337.164
336.955
336.761
336.612
329.942
330.062
330.22
330.391
330.563
330.729
330.879
331.004
331.093
331.14
331.14
331.093
331.004
330.879
330.729
330.563
330.391
330.22
330.062
329.942
323.283
323.375
323.498
323.63
323.765
323.894
324.01
324.107
324.176
324.213
324.213
324.176
324.107
324.01
323.894
323.765
323.63
323.498
323.375
323.283
316.632
316.698
316.785
316.88
316.976
317.068
317.151
317.22
317.27
317.296
317.296
317.27
317.22
317.151
317.068
316.976
316.88
316.785
316.698
316.632
309.988
310.027
310.079
310.136
310.194
310.249
310.299
310.341
310.371
310.386
310.386
310.371
310.341
310.299
310.249
310.194
310.136
310.079
310.027
309.988
303.348
303.361
303.378
303.397
303.417
303.435
303.452
303.466
303.476
303.481
303.481
303.476
303.466
303.452
303.435
303.417
303.397
303.378
303.361
303.348
351.499
351.7
351.951
352.218
352.487
352.744
352.975
353.167
353.304
353.376
353.376
353.304
353.167
352.975
352.744
352.487
352.218
351.951
351.7
351.499
344.599
344.769
344.986
345.217
345.449
345.672
345.872
346.038
346.157
346.219
346.219
346.157
346.038
345.872
345.672
345.449
345.217
344.986
344.769
344.599
337.714
337.855
338.038
338.233
338.43
338.618
338.787
338.927
339.028
339.08
339.08
339.028
338.927
338.787
338.618
338.43
338.233
338.038
337.855
337.714
330.843
330.956
331.105
331.265
331.426
331.58
331.718
331.833
331.915
331.958
331.958
331.915
331.833
331.718
331.58
331.426
331.265
331.105
330.956
330.843
323.983
324.07
324.185
324.31
324.435
324.554
324.662
324.751
324.815
324.848
324.848
324.815
324.751
324.662
324.554
324.435
324.31
324.185
324.07
323.983
317.132
317.194
317.276
317.365
317.454
317.54
317.617
317.68
317.726
317.75
317.75
317.726
317.68
317.617
317.54
317.454
317.365
317.276
317.194
317.132
310.288
310.325
310.374
310.428
310.481
310.533
310.579
310.617
310.644
310.659
310.659
310.644
310.617
310.579
310.533
310.481
310.428
310.374
310.325
310.288
303.448
303.461
303.477
303.495
303.513
303.53
303.546
303.558
303.568
303.572
303.572
303.568
303.558
303.546
303.53
303.513
303.495
303.477
303.461
303.448
353.2
353.389
353.624
353.873
354.121
354.358
354.57
354.745
354.87
354.935
354.935
354.87
354.745
354.57
354.358
354.121
353.873
353.624
353.389
353.2
346.071
346.23
346.433
346.648
346.864
347.069
347.253
347.404
347.512
347.569
347.569
347.512
347.404
347.253
347.069
346.864
346.648
346.433
346.23
346.071
338.958
339.09
339.261
339.443
339.625
339.798
339.954
340.082
340.173
340.221
340.221
340.173
340.082
339.954
339.798
339.625
339.443
339.261
339.09
338.958
331.859
331.965
332.105
332.254
332.403
332.544
332.672
332.776
332.851
332.89
332.89
332.851
332.776
332.672
332.544
332.403
332.254
332.105
331.965
331.859
324.773
324.854
324.962
325.078
325.194
325.304
325.403
325.485
325.543
325.573
325.573
325.543
325.485
325.403
325.304
325.194
325.078
324.962
324.854
324.773
317.696
317.754
317.831
317.914
317.996
318.075
318.146
318.204
318.246
318.267
318.267
318.246
318.204
318.146
318.075
317.996
317.914
317.831
317.754
317.696
310.627
310.661
310.707
310.757
310.807
310.854
310.897
310.932
310.956
310.969
310.969
310.956
310.932
310.897
310.854
310.807
310.757
310.707
310.661
310.627
303.562
303.573
303.589
303.605
303.622
303.638
303.652
303.664
303.672
303.677
303.677
303.672
303.664
303.652
303.638
303.622
303.605
303.589
303.573
303.562
355.096
355.272
355.491
355.721
355.95
356.167
356.361
356.52
356.633
356.692
356.692
356.633
356.52
356.361
356.167
355.95
355.721
355.491
355.272
355.096
347.711
347.86
348.049
348.248
348.446
348.634
348.802
348.94
349.038
349.089
349.089
349.038
348.94
348.802
348.634
348.446
348.248
348.049
347.86
347.711
340.343
340.467
340.626
340.795
340.962
341.121
341.263
341.38
341.463
341.506
341.506
341.463
341.38
341.263
341.121
340.962
340.795
340.626
340.467
340.343
332.991
333.091
333.22
333.358
333.496
333.626
333.742
333.837
333.905
333.94
333.94
333.905
333.837
333.742
333.626
333.496
333.358
333.22
333.091
332.991
325.653
325.729
325.83
325.937
326.044
326.145
326.235
326.309
326.362
326.389
326.389
326.362
326.309
326.235
326.145
326.044
325.937
325.83
325.729
325.653
318.324
318.378
318.45
318.527
318.603
318.675
318.74
318.793
318.83
318.85
318.85
318.83
318.793
318.74
318.675
318.603
318.527
318.45
318.378
318.324
311.004
311.036
311.079
311.125
311.171
311.215
311.253
311.285
311.308
311.319
311.319
311.308
311.285
311.253
311.215
311.171
311.125
311.079
311.036
311.004
303.688
303.699
303.713
303.729
303.744
303.759
303.772
303.782
303.79
303.794
303.794
303.79
303.782
303.772
303.759
303.744
303.729
303.713
303.699
303.688
357.186
357.351
357.553
357.766
357.976
358.174
358.349
358.493
358.595
358.648
358.648
358.595
358.493
358.349
358.174
357.976
357.766
357.553
357.351
357.186
349.519
349.658
349.833
350.017
350.199
350.371
350.523
350.647
350.736
350.782
350.782
350.736
350.647
350.523
350.371
350.199
350.017
349.833
349.658
349.519
341.871
341.987
342.134
342.29
342.444
342.589
342.717
342.823
342.897
342.936
342.936
342.897
342.823
342.717
342.589
342.444
342.29
342.134
341.987
341.871
334.24
334.333
334.453
334.58
334.706
334.825
334.93
335.017
335.078
335.109
335.109
335.078
335.017
334.93
334.825
334.706
334.58
334.453
334.333
334.24
326.623
326.694
326.788
326.887
326.985
327.077
327.159
327.226
327.273
327.298
327.298
327.273
327.226
327.159
327.077
326.985
326.887
326.788
326.694
326.623
319.017
319.068
319.134
319.205
319.275
319.341
319.4
319.447
319.481
319.499
319.499
319.481
319.447
319.4
319.341
319.275
319.205
319.134
319.068
319.017
311.42
311.45
311.49
311.532
311.574
311.614
311.649
311.678
311.698
311.709
311.709
311.698
311.678
311.649
311.614
311.574
311.532
311.49
311.45
311.42
303.828
303.838
303.851
303.865
303.879
303.893
303.904
303.914
303.921
303.924
303.924
303.921
303.914
303.904
303.893
303.879
303.865
303.851
303.838
303.828
359.473
359.625
359.812
360.007
360.199
360.379
360.538
360.667
360.759
360.806
360.806
360.759
360.667
360.538
360.379
360.199
360.007
359.812
359.625
359.473
351.497
351.626
351.788
351.957
352.123
352.279
352.416
352.528
352.608
352.649
352.649
352.608
352.528
352.416
352.279
352.123
351.957
351.788
351.626
351.497
343.542
343.649
343.785
343.928
344.069
344.201
344.317
344.412
344.479
344.514
344.514
344.479
344.412
344.317
344.201
344.069
343.928
343.785
343.649
343.542
335.606
335.692
335.803
335.92
336.035
336.143
336.238
336.316
336.371
336.399
336.399
336.371
336.316
336.238
336.143
336.035
335.92
335.803
335.692
335.606
327.684
327.75
327.836
327.927
328.017
328.101
328.175
328.235
328.278
328.3
328.3
328.278
328.235
328.175
328.101
328.017
327.927
327.836
327.75
327.684
319.775
319.822
319.883
319.948
320.012
320.072
320.125
320.168
320.199
320.215
320.215
320.199
320.168
320.125
320.072
320.012
319.948
319.883
319.822
319.775
311.875
311.903
311.94
311.979
312.017
312.053
312.085
312.111
312.129
312.139
312.139
312.129
312.111
312.085
312.053
312.017
311.979
311.94
311.903
311.875
303.98
303.989
304.002
304.015
304.028
304.04
304.05
304.059
304.065
304.068
304.068
304.065
304.059
304.05
304.04
304.028
304.015
304.002
303.989
303.98
361.953
362.094
362.266
362.445
362.62
362.783
362.926
363.042
363.124
363.166
363.166
363.124
363.042
362.926
362.783
362.62
362.445
362.266
362.094
361.953
353.643
353.762
353.911
354.066
354.217
354.358
354.482
354.583
354.654
354.691
354.691
354.654
354.583
354.482
354.358
354.217
354.066
353.911
353.762
353.643
345.355
345.454
345.579
345.71
345.838
345.958
346.063
346.148
346.208
346.239
346.239
346.208
346.148
346.063
345.958
345.838
345.71
345.579
345.454
345.355
337.087
337.166
337.269
337.376
337.481
337.578
337.665
337.734
337.783
337.809
337.809
337.783
337.734
337.665
337.578
337.481
337.376
337.269
337.166
337.087
328.835
328.896
328.976
329.059
329.141
329.217
329.284
329.338
329.376
329.396
329.396
329.376
329.338
329.284
329.217
329.141
329.059
328.976
328.896
328.835
320.597
320.64
320.697
320.756
320.815
320.869
320.917
320.956
320.983
320.997
320.997
320.983
320.956
320.917
320.869
320.815
320.756
320.697
320.64
320.597
312.368
312.394
312.428
312.464
312.499
312.531
312.56
312.583
312.6
312.608
312.608
312.6
312.583
312.56
312.531
312.499
312.464
312.428
312.394
312.368
304.145
304.154
304.165
304.177
304.189
304.2
304.21
304.217
304.223
304.226
304.226
304.223
304.217
304.21
304.2
304.189
304.177
304.165
304.154
304.145
364.624
364.754
364.912
365.076
365.234
365.381
365.51
365.614
365.688
365.725
365.725
365.688
365.614
365.51
365.381
365.234
365.076
364.912
364.754
364.624
355.953
356.063
356.199
356.341
356.478
356.606
356.718
356.808
356.871
356.904
356.904
356.871
356.808
356.718
356.606
356.478
356.341
356.199
356.063
355.953
347.306
347.397
347.512
347.632
347.748
347.856
347.951
348.027
348.081
348.109
348.109
348.081
348.027
347.951
347.856
347.748
347.632
347.512
347.397
347.306
338.681
338.754
338.848
338.946
339.041
339.129
339.207
339.269
339.313
339.336
339.336
339.313
339.269
339.207
339.129
339.041
338.946
338.848
338.754
338.681
330.074
330.13
330.203
330.279
330.353
330.422
330.482
330.531
330.565
330.582
330.582
330.565
330.531
330.482
330.422
330.353
330.279
330.203
330.13
330.074
321.481
321.521
321.573
321.627
321.68
321.729
321.772
321.807
321.831
321.844
321.844
321.831
321.807
321.772
321.729
321.68
321.627
321.573
321.521
321.481
312.899
312.923
312.954
312.986
313.018
313.048
313.074
313.095
313.109
313.117
313.117
313.109
313.095
313.074
313.048
313.018
312.986
312.954
312.923
312.899
304.323
304.331
304.341
304.352
304.363
304.373
304.382
304.389
304.394
304.396
304.396
304.394
304.389
304.382
304.373
304.363
304.352
304.341
304.331
304.323
367.474
367.594
367.739
367.888
368.032
368.164
368.28
368.373
368.438
368.472
368.472
368.438
368.373
368.28
368.164
368.032
367.888
367.739
367.594
367.474
358.416
358.517
358.642
358.771
358.896
359.011
359.111
359.192
359.249
359.278
359.278
359.249
359.192
359.111
359.011
358.896
358.771
358.642
358.517
358.416
349.385
349.468
349.574
349.683
349.789
349.886
349.971
350.039
350.087
350.112
350.112
350.087
350.039
349.971
349.886
349.789
349.683
349.574
349.468
349.385
340.378
340.445
340.531
340.62
340.707
340.787
340.856
340.912
340.952
340.972
340.972
340.952
340.912
340.856
340.787
340.707
340.62
340.531
340.445
340.378
331.391
331.443
331.51
331.579
331.647
331.709
331.763
331.806
331.837
331.853
331.853
331.837
331.806
331.763
331.709
331.647
331.579
331.51
331.443
331.391
322.421
322.458
322.506
322.555
322.603
322.648
322.686
322.718
322.739
322.751
322.751
322.739
322.718
322.686
322.648
322.603
322.555
322.506
322.458
322.421
313.463
313.485
313.514
313.543
313.572
313.599
313.622
313.641
313.654
313.661
313.661
313.654
313.641
313.622
313.599
313.572
313.543
313.514
313.485
313.463
304.512
304.52
304.529
304.539
304.549
304.558
304.565
304.572
304.576
304.578
304.578
304.576
304.572
304.565
304.558
304.549
304.539
304.529
304.52
304.512
370.473
370.583
370.716
370.852
370.982
371.102
371.206
371.289
371.347
371.377
371.377
371.347
371.289
371.206
371.102
370.982
370.852
370.716
370.583
370.473
361.003
361.096
361.21
361.328
361.441
361.545
361.635
361.707
361.758
361.784
361.784
361.758
361.707
361.635
361.545
361.441
361.328
361.21
361.096
361.003
351.564
351.641
351.738
351.837
351.933
352.021
352.098
352.159
352.202
352.224
352.224
352.202
352.159
352.098
352.021
351.933
351.837
351.738
351.641
351.564
342.155
342.217
342.296
342.377
342.456
342.528
342.59
342.64
342.675
342.693
342.693
342.675
342.64
342.59
342.528
342.456
342.377
342.296
342.217
342.155
332.77
332.817
332.879
332.942
333.003
333.059
333.108
333.147
333.174
333.188
333.188
333.174
333.147
333.108
333.059
333.003
332.942
332.879
332.817
332.77
323.404
323.438
323.481
323.527
323.57
323.61
323.645
323.673
323.693
323.703
323.703
323.693
323.673
323.645
323.61
323.57
323.527
323.481
323.438
323.404
314.053
314.073
314.099
314.126
314.152
314.176
314.197
314.214
314.226
314.232
314.232
314.226
314.214
314.197
314.176
314.152
314.126
314.099
314.073
314.053
304.71
304.716
304.725
304.734
304.743
304.751
304.758
304.764
304.768
304.77
304.77
304.768
304.764
304.758
304.751
304.743
304.734
304.725
304.716
304.71
373.545
373.646
373.768
373.891
374.01
374.118
374.212
374.286
374.339
374.365
374.365
374.339
374.286
374.212
374.118
374.01
373.891
373.768
373.646
373.545
363.64
363.726
363.831
363.938
364.041
364.135
364.216
364.281
364.326
364.349
364.349
364.326
364.281
364.216
364.135
364.041
363.938
363.831
363.726
363.64
353.778
353.849
353.937
354.028
354.115
354.195
354.264
354.319
354.357
354.377
354.377
354.357
354.319
354.264
354.195
354.115
354.028
353.937
353.849
353.778
343.953
344.01
344.082
344.157
344.228
344.293
344.35
344.395
344.426
344.442
344.442
344.426
344.395
344.35
344.293
344.228
344.157
344.082
344.01
343.953
334.16
334.204
334.26
334.318
334.374
334.425
334.468
334.504
334.528
334.541
334.541
334.528
334.504
334.468
334.425
334.374
334.318
334.26
334.204
334.16
324.393
324.424
324.464
324.506
324.545
324.582
324.613
324.638
324.656
324.665
324.665
324.656
324.638
324.613
324.582
324.545
324.506
324.464
324.424
324.393
314.645
314.663
314.687
314.712
314.736
314.758
314.777
314.792
314.802
314.808
314.808
314.802
314.792
314.777
314.758
314.736
314.712
314.687
314.663
314.645
304.908
304.914
304.922
304.93
304.938
304.946
304.952
304.957
304.961
304.962
304.962
304.961
304.957
304.952
304.946
304.938
304.93
304.922
304.914
304.908
376.494
376.588
376.7
376.813
376.922
377.02
377.105
377.173
377.22
377.244
377.244
377.22
377.173
377.105
377.02
376.922
376.813
376.7
376.588
376.494
366.142
366.221
366.318
366.417
366.511
366.597
366.671
366.729
366.77
366.791
366.791
366.77
366.729
366.671
366.597
366.511
366.417
366.318
366.221
366.142
355.855
355.92
356.002
356.086
356.166
356.239
356.301
356.351
356.386
356.404
356.404
356.386
356.351
356.301
356.239
356.166
356.086
356.002
355.92
355.855
345.625
345.678
345.745
345.813
345.879
345.939
345.99
346.031
346.059
346.074
346.074
346.059
346.031
345.99
345.939
345.879
345.813
345.745
345.678
345.625
335.444
335.484
335.536
335.59
335.641
335.687
335.727
335.759
335.782
335.793
335.793
335.782
335.759
335.727
335.687
335.641
335.59
335.536
335.484
335.444
325.301
325.33
325.367
325.405
325.442
325.475
325.504
325.526
325.542
325.551
325.551
325.542
325.526
325.504
325.475
325.442
325.405
325.367
325.33
325.301
315.186
315.204
315.226
315.249
315.271
315.291
315.308
315.322
315.331
315.336
315.336
315.331
315.322
315.308
315.291
315.271
315.249
315.226
315.204
315.186
305.089
305.095
305.102
305.11
305.117
305.124
305.13
305.134
305.137
305.139
305.139
305.137
305.134
305.13
305.124
305.117
305.11
305.102
305.095
305.089
378.805
378.893
378.998
379.105
379.206
379.298
379.377
379.44
379.484
379.506
379.506
379.484
379.44
379.377
379.298
379.206
379.105
378.998
378.893
378.805
368.028
368.103
368.194
368.287
368.375
368.456
368.525
368.58
368.618
368.637
368.637
368.618
368.58
368.525
368.456
368.375
368.287
368.194
368.103
368.028
357.372
357.435
357.512
357.591
357.666
357.734
357.793
357.84
357.872
357.889
357.889
357.872
357.84
357.793
357.734
357.666
357.591
357.512
357.435
357.372
346.817
346.867
346.93
346.995
347.057
347.113
347.161
347.2
347.226
347.24
347.24
347.226
347.2
347.161
347.113
347.057
346.995
346.93
346.867
346.817
336.341
336.38
336.429
336.48
336.528
336.572
336.609
336.639
336.66
336.671
336.671
336.66
336.639
336.609
336.572
336.528
336.48
336.429
336.38
336.341
325.927
325.955
325.99
326.026
326.061
326.092
326.119
326.14
326.155
326.163
326.163
326.155
326.14
326.119
326.092
326.061
326.026
325.99
325.955
325.927
315.557
315.573
315.594
315.616
315.637
315.656
315.672
315.685
315.694
315.698
315.698
315.694
315.685
315.672
315.656
315.637
315.616
315.594
315.573
315.557
305.212
305.217
305.224
305.232
305.239
305.245
305.25
305.255
305.258
305.259
305.259
305.258
305.255
305.25
305.245
305.239
305.232
305.224
305.217
305.212
)
;

boundaryField
{
    hotSide
    {
        type            fixedGradient;
        gradient        nonuniform List<scalar> 
400
(
480.136
482.156
486.198
492.268
500.373
510.524
522.731
537.007
553.365
571.816
592.374
615.049
639.853
666.795
695.882
727.123
760.523
796.087
833.818
873.721
483.596
485.588
489.576
495.567
503.573
513.604
525.677
539.808
556.011
574.305
594.702
617.219
641.868
668.659
697.603
728.708
761.979
797.423
835.044
874.843
487.339
489.299
493.223
499.121
507.008
516.9
528.816
542.776
558.803
576.915
597.131
619.47
643.945
670.571
699.357
730.314
763.447
798.763
836.265
875.956
491.305
493.227
497.076
502.867
510.617
520.348
532.085
545.854
561.681
579.591
599.607
621.75
646.037
672.484
701.103
731.903
764.892
800.075
837.455
877.035
495.383
497.261
501.027
506.697
514.295
523.848
535.387
548.947
564.558
582.251
602.054
623.99
648.081
674.343
702.789
733.429
766.271
801.321
838.579
878.049
499.402
501.235
504.911
510.453
517.888
527.254
538.587
551.928
567.316
584.787
604.373
626.102
649.996
676.074
704.351
734.836
767.537
802.458
839.601
878.967
503.132
504.919
508.507
513.921
521.196
530.377
541.508
554.637
569.81
587.068
606.448
627.981
651.692
677.6
705.72
736.063
768.636
803.441
840.481
879.754
506.299
508.044
511.552
516.851
523.983
532.999
543.951
556.894
571.879
588.952
608.154
629.519
653.073
678.837
706.827
737.051
769.517
804.226
841.181
880.378
508.616
510.33
513.776
518.987
526.011
534.901
545.719
558.521
573.365
590.301
609.372
630.613
654.052
679.711
707.605
737.744
770.133
804.774
841.668
880.812
509.843
511.54
514.953
520.117
527.081
535.904
546.648
559.375
574.144
591.006
610.006
631.182
654.56
680.164
708.008
738.102
770.451
805.056
841.918
881.034
509.843
511.54
514.953
520.117
527.081
535.904
546.648
559.375
574.144
591.006
610.006
631.182
654.56
680.164
708.008
738.102
770.451
805.056
841.918
881.034
508.616
510.33
513.776
518.987
526.011
534.901
545.719
558.521
573.365
590.301
609.372
630.613
654.052
679.711
707.605
737.744
770.133
804.774
841.668
880.812
506.299
508.044
511.552
516.851
523.983
532.999
543.951
556.894
571.879
588.952
608.154
629.519
653.073
678.837
706.827
737.051
769.517
804.226
841.181
880.378
503.132
504.919
508.507
513.921
521.196
530.377
541.508
554.637
569.81
587.068
606.448
627.981
651.692
677.6
705.72
736.063
768.636
803.441
840.481
879.754
499.402
501.235
504.911
510.453
517.888
527.254
538.587
551.928
567.316
584.787
604.373
626.102
649.996
676.074
704.351
734.836
767.537
802.458
839.601
878.967
495.383
497.261
501.027
506.697
514.295
523.848
535.387
548.947
564.558
582.251
602.054
623.99
648.081
674.343
702.789
733.429
766.271
801.321
838.579
878.049
491.305
493.227
497.076
502.867
510.617
520.348
532.085
545.854
561.681
579.591
599.607
621.75
646.037
672.484
701.103
731.903
764.892
800.075
837.455
877.035
487.339
489.299
493.223
499.121
507.008
516.9
528.816
542.776
558.803
576.915
597.131
619.47
643.945
670.571
699.357
730.314
763.447
798.763
836.265
875.956
483.596
485.588
489.576
495.567
503.573
513.604
525.677
539.808
556.011
574.305
594.702
617.219
641.868
668.659
697.603
728.708
761.979
797.423
835.044
874.843
480.136
482.156
486.198
492.268
500.373
510.524
522.731
537.007
553.365
571.816
592.374
615.049
639.853
666.795
695.882
727.123
760.523
796.087
833.818
873.721
)
;
    }
    coldSide
    {
        type            mixed;
        refValue        uniform 300;
        refGradient     uniform 0;
        valueFraction   uniform 0.991591;
        source          uniform 0;
        value           nonuniform List<scalar> 
400
(
300.025
300.025
300.026
300.026
300.026
300.027
300.027
300.028
300.029
300.03
300.031
300.032
300.033
300.035
300.036
300.038
300.04
300.041
300.043
300.044
300.025
300.025
300.026
300.026
300.026
300.027
300.028
300.028
300.029
300.03
300.031