/*--------------------------------*- C++ -*----------------------------------*\
| =========                 |                                                 |
| \\      /  F ield         | OpenFOAM: The Open Source CFD Toolbox           |
|  \\    /   O peration     | Version:  2212                                  |
|   \\  /    A nd           | Website:  www.openfoam.com                      |
|    \\/     M anipulation  |                                                 |
\*---------------------------------------------------------------------------*/
FoamFile
{
    version     2.0;
    format      ascii;
    arch        "LSB;label=32;scalar=64";
    class       volScalarField;
    location    "./ITHACAoutput/true/9.8";
    object      error;
}
// * * * * * * * * * * * * * * * * * * * * * * * * * * * * * * * * * * * * * //

dimensions      [0 0 0 1 0 0 0];

internalField   nonuniform List<scalar> 
3200
(
-1.08843
1.84705
1.42381
4.50427
3.24105
4.47562
3.66182
5.27096
3.93986
4.34033
1.99776
1.1089
3.41164
2.79556
1.90192
1.29642
3.36821
0.700682
-0.896288
-2.80006
-1.81675
3.11603
1.54721
3.91297
2.9569
2.27509
1.76186
3.48932
4.69079
1.10729
1.46657
2.16034
2.4459
4.08723
2.38133
2.60432
2.65141
1.15818
1.14985
-0.538203
0.788705
0.214439
1.51857
2.66093
-0.289707
4.44606
3.61648
1.44918
2.98496
0.832101
2.54172
2.50216
1.80502
-0.839921
2.40898
0.617375
1.86304
1.60166
-0.309873
-1.97105
1.52865
1.65791
0.362677
3.1901
1.50879
0.778782
2.20554
2.45595
1.13846
0.429266
3.43439
1.06894
1.301
1.56887
0.628157
2.26992
1.27487
-0.737154
1.02391
-0.354658
2.89684
0.605763
0.566588
2.75144
1.53047
0.267081
0.150687
2.42216
-0.429061
0.670584
1.68138
-0.308178
2.24425
-0.0774137
2.21247
0.955494
-0.325076
0.243133
-2.29383
0.259843
1.93655
0.204838
1.05802
0.13857
2.24035
1.51114
2.63444
1.91904
-1.05139
0.823295
1.2446
1.28891
1.64043
1.06117
1.62079
-0.630374
0.937992
0.722301
-2.63262
-0.651501
-0.665833
1.74413
1.26798
0.0397635
1.36701
0.728244
2.19317
1.39807
0.442918
4.61628
-1.42581
-1.65725
-1.85039
2.17187
-0.307718
2.52379
0.956087
-2.39032
0.39348
0.922665
-0.751945
0.197223
0.908846
-0.264497
0.77998
0.646304
1.80905
0.210055
1.10248
1.20891
0.0631807
0.0781337
0.527373
-1.66478
-2.5028
-0.52681
-1.36446
-0.514487
1.76497
-1.5315
0.684788
-2.6374
2.33208
2.1466
3.35927
0.848576
2.86461
2.50963
3.57822
2.48133
2.53685
1.47847
-0.135067
1.89286
1.22848
0.614524
-0.126505
1.42252
0.0487709
0.164662
-1.3773
-0.271475
2.38167
0.315009
2.616
0.0348912
3.96343
0.301794
2.73375
0.134343
-0.207841
1.28307
0.302416
0.450863
0.267668
1.55626
0.290142
2.96129
0.27962
-0.973898
0.247899
-0.272263
2.81696
1.33908
1.65089
3.56507
3.45477
1.92666
0.680738
3.42279
0.86221
1.36486
2.3755
1.76484
-0.356071
2.77748
1.60262
0.506149
0.615238
-1.94894
1.15596
-0.167583
1.99102
2.00463
2.53388
2.21083
1.53576
0.023419
1.48236
2.78846
1.23493
0.389938
2.69051
0.613871
0.620205
0.453013
1.59263
1.86984
0.0068513
-1.21844
-0.167678
-0.181039
1.29189
2.1857
1.17771
1.78725
0.294638
0.37514
1.8466
3.49966
0.467162
-0.742621
2.78566
2.89641
-0.0780568
3.21752
3.57652
0.25775
-0.50189
-2.03657
-1.36679
1.86354
1.40724
1.00926
0.432487
0.846817
0.151132
-0.904391
0.893473
-0.752901
2.62005
-0.949187
2.08586
-0.236753
0.236508
0.866538
-2.32937
1.07077
1.21745
-0.673798
-0.620258
0.766587
-2.03977
0.0803791
0.724566
-0.678017
-1.37492
-1.06504
1.20247
2.26286
-0.27533
0.909027
0.549214
0.412198
-0.172921
2.6474
0.829597
1.40073
1.33285
-0.566599
0.547303
-0.699743
0.484093
-1.19701
1.62604
0.397575
0.237956
0.152901
-0.751767
1.05688
1.71611
-1.85863
1.19962
1.5981
-0.607311
-0.332287
-0.75608
-2.21283
-0.112957
0.798554
0.194487
-0.922761
1.96928
2.69103
3.22598
2.79893
3.25084
3.90271
4.06786
2.59101
3.61106
3.80261
0.433185
2.73699
1.78847
3.21445
1.52819
1.32485
-0.170879
-3.4443
-0.100682
-2.79262
1.54069
1.72697
2.0946
1.30491
0.30273
1.87436
1.89187
2.78297
1.2452
-1.71953
3.80925
2.55678
2.66378
0.536708
2.2575
1.93228
0.681885
-2.12803
0.529703
0.8057
1.94693
2.52407
0.925123
2.24938
3.74569
2.65547
1.41278
2.41991
1.79187
1.17747
-0.387088
1.51595
1.61717
1.00641
2.89948
0.960094
0.970873
-1.39413
0.117571
0.111327
3.80675
0.298815
2.07618
2.54801
1.13127
2.53432
0.819021
0.955315
1.34646
-2.47527
0.68466
3.90175
0.10112
1.64284
-0.0390999
0.577254
-0.792866
-0.103091
-0.95721
-0.815769
-0.79229
3.2534
2.13154
2.5829
-1.11184
1.22203
0.575461
-0.851391
0.0714557
2.05872
2.27445
1.11117
2.31316
0.33756
-0.267884
-2.88402
0.278611
-0.971476
0.489941
0.960799
1.09626
0.330446
2.95915
0.879188
1.57808
1.51571
0.0570337
-1.01295
1.01084
-0.571424
2.14311
0.159768
0.583687
-0.393554
1.16641
0.159976
-0.998329
-0.604089
-0.513438
1.49197
1.9761
1.42214
0.0190887
1.53253
1.27879
0.0577699
-0.327252
1.02029
1.47273
-1.42045
1.50579
0.269485
-0.652289
0.0625482
1.54041
-0.229789
0.0219259
0.790062
0.959801
-0.376861
-0.390217
-1.33348
-1.06342
-0.0284976
-0.0700644
0.241312
3.2314
-0.860688
-0.753196
1.6061
-1.41199
0.0836791
-2.3697
0.112299
-0.24849
0.488916
-0.346387
-1.10323
-1.85217
0.377466
-0.753453
3.31742
2.09033
2.28836
2.11917
2.85281
0.0622447
0.411391
1.3032
-0.890987
1.98766
1.55714
0.402236
1.92118
0.761751
-0.321507
-0.654043
-1.75294
0.899419
-0.172206
1.98688
-0.280349
1.16445
-0.0942268
-0.165053
0.45224
1.61493
0.143931
-0.182506
1.45082
-0.288
0.855427
0.0239105
1.36744
0.590007
3.77772
0.366641
-0.114585
-0.530389
1.47817
1.13172
1.82953
0.829748
0.0456621
2.57858
0.323908
2.37503
1.75191
-1.24968
-1.15047
1.50715
1.39169
-0.694976
-2.4826
0.537258
2.39862
1.87914
-1.0707
-1.185
-1.36967
0.626376
-0.336724
1.00542
1.06232
1.51278
-0.266023
0.380246
2.20477
-1.48853
0.433899
1.48696
0.488148
2.61695
0.232905
0.942421
-0.720528
-0.29703
-0.389225
0.0893045
2.50115
0.153879
1.70962
-1.9192
3.36466
2.37042
-0.492686
2.96097
1.16432
-0.480087
-0.0374455
-1.03046
0.676225
0.860838
1.22204
-1.88311
-0.71564
-1.15561
-2.45211
-0.727749
-0.845314
0.878981
1.50569
2.42941
1.43055
2.81035
0.070532
0.575631
-0.293201
1.0611
1.23882
0.840928
0.823931
0.080897
0.219775
-1.08144
0.740747
-2.28868
-1.76599
-0.023594
-0.385099
1.66046
1.40531
-0.22865
0.858646
1.28879
-0.152158
0.735821
1.31742
1.35627
0.554743
1.48853
-1.29018
-1.13516
-0.722026
-1.34092
1.49346
-1.35708
1.71295
0.840189
-0.367157
-1.10496
-0.775256
1.68481
-0.313315
-0.805899
1.34105
-1.87308
-0.714836
1.72278
-2.04438
-0.565142
0.547562
0.402438
-1.53774
1.87642
-0.284937
-1.29033
1.10199
-2.51346
0.262368
0.721364
2.49565
-0.000843739
-0.0337759
1.28005
2.13389
2.43656
0.641986
2.5949
0.716278
-2.08305
0.346913
-1.41836
-0.181732
-0.205686
1.82
0.894862
-2.19197
1.81974
0.647542
0.462985
2.90576
3.61295
-0.327082
2.585
2.20852
0.590457
-1.3408
2.10857
0.368111
0.468313
1.59555
1.02001
0.856406
3.27932
-0.804987
-1.24372
-2.25342
-0.303544
-0.468041
0.418699
1.7791
2.25547
1.1726
1.18183
1.45072
0.986915
0.99228
0.195982
-0.565336
-0.875801
-0.778201
0.275557
1.71235
0.661325
0.20798
1.06205
-4.06756
-2.14253
1.40172
1.00132
0.822258
0.394515
2.05894
0.664098
3.14708
1.05543
1.51428
0.224376
-0.268531
-1.46355
0.178716
1.74212
1.09971
0.941153
1.02825
-1.77681
-1.19271
-1.33058
0.368464
-1.37193
0.39537
1.41577
0.356541
1.25028
0.503609
-0.832886
-1.58187
0.351062
0.00445081
-0.957179
1.02283
-1.99128
-0.38673
3.25565
0.174918
-0.699769
-1.68471
-3.20997
-0.421791
-0.618609
-1.04289
0.8701
1.64574
2.40493
0.740902
0.494183
0.942717
1.96804
0.0766475
-0.443501
1.31913
1.76701
-1.78811
-1.35578
-2.01484
0.288701
-1.00808
-1.45684
-0.0479269
0.887947
-0.547975
-0.563408
-0.362023
-0.817873
1.34484
-0.668868
-0.193526
-0.164083
-1.7235
-1.87016
-0.246917
1.46853
1.07672
0.615015
-2.06827
0.314676
0.658409
-0.199922
-0.291706
1.03989
0.332106
-2.41546
-0.378663
1.06617
0.471979
0.14525
0.407021
-0.759555
0.392261
0.954873
-1.46796
1.17949
3.65173
0.967237
0.0331423
-2.13672
0.280118
-1.39345
-0.61859
0.420969
1.3041
0.653652
1.21947
0.162478
2.57352
0.454025
0.759799
-1.29302
-1.24094
-2.07741
-1.6877
1.18585
-1.14507
0.108142
-2.22299
-0.477545
-2.79958
-2.88677
0.413169
1.32506
0.142706
-0.584469
-0.226004
2.36076
-0.145013
-1.19985
-0.141912
0.40584
2.5049
-0.424183
0.739479
0.00845073
1.42595
0.104284
1.27526
-0.625694
-1.71626
0.987389
-1.55519
0.697139
1.02128
-0.935359
2.70987
1.63875
-0.0224598
-2.55306
-2.2367
-1.03393
-1.73758
1.84659
1.67047
1.92013
-1.75233
0.7806
-0.359235
-0.529939
-3.50438
-2.40795
-1.19465
-1.41738
-0.0930615
0.11475
-1.47942
-0.415082
-0.0463133
-0.904011
-0.0787711
0.324471
0.830038
0.378524
-0.221766
-0.539718
1.39047
1.21255
-2.30364
-1.4501
-1.70018
-1.02878
-1.98461
-1.5282
0.221233
1.79222
-0.413813
-0.832623
1.91927
0.436415
-1.73321
-0.0126447
-0.228168
-0.773284
0.97835
0.793796
1.88984
-0.0983109
0.370744
-0.695401
-1.10902
-0.46878
1.32738
0.2503
-0.848344
0.779217
-0.414186
0.174868
0.64732
0.297678
-1.11302
1.7773
-2.03627
0.281076
-1.61775
0.503975
0.395233
-3.04129
0.0348871
0.171831
1.89269
1.09799
-0.698677
0.562998
0.661757
0.927639
1.7008
1.58151
-0.986584
0.573845
-0.520901
-0.319377
-0.421555
-0.0457449
2.16291
1.79588
0.826653
1.31532
1.49586
1.42684
-2.64155
0.390129
2.8227
-1.76357
-0.570187
-0.548853
0.454915
3.57107
-1.09984
-2.84378
-1.75165
0.0531154
1.47246
0.347066
2.73844
-1.00815
-0.735916
0.841533
0.901609
-1.54508
0.35511
-3.40857
0.398475
0.591198
1.65524
-0.0980266
1.24284
-1.64166
1.0747
-1.14291
-0.0785452
-2.61381
-0.76854
-2.06387
-0.341045
1.35629
-1.33631
0.710391
-0.708642
-1.62358
-4.47035
-2.12369
-1.28832
1.13457
1.47299
1.41895
1.00223
-0.541144
0.581508
-1.57251
-0.39863
-1.78323
0.16775
-1.60583
-2.4544
-0.777375
-0.762271
-0.601621
0.798273
-1.77446
-2.13131
-3.91865
1.52359
0.0532495
1.65656
0.628484
1.45145
0.405762
0.569416
0.795613
-0.0329139
-1.31661
-0.872597
-2.39935
-1.19214
-1.16372
-0.188189
-0.444182
-3.07798
-1.3384
-0.511469
-0.357673
-3.12648
0.938234
0.0353057
1.25716
1.3075
-0.836985
0.378185
-0.0524512
0.186204
-1.09268
-0.689527
-1.91384
-2.87798
0.853336
0.254658
-0.0993373
-2.8686
0.886183
-2.74286
-0.659293
-0.768914
1.82321
1.29158
-1.44103
-0.731799
-1.74438
-0.0805907
-0.774545
-1.68138
0.515216
-1.97551
-2.78977
-1.20505
-0.144926
2.13084
-0.449735
0.117037
-0.563187
-3.27406
-0.537208
-0.713722
1.21752
0.0451232
2.26093
-0.105097
-1.05245
-1.6383
0.138128
1.16484
0.872515
0.830058
-2.24144
0.294997
-0.0739978
3.0511
1.32544
-1.21541
-0.816616
-2.08832
0.461474
0.672658
0.893502
-0.0500886
1.51643
-1.32934
-0.74239
1.40777
-0.77972
-1.811
-2.04736
0.0822949
0.321638
0.027219
-1.46632
2.24989
-3.59062
-0.757124
1.28507
-0.152957
0.660263
-1.83214
0.640299
-0.4619
2.11748
-0.612703
0.300665
-0.474217
0.373227
-0.363839
-0.323413
1.4615
-0.866083
2.4758
0.219459
-0.0232081
0.55949
0.392376
2.23528
-0.815225
-3.36462
-0.575282
-0.545424
-1.68741
0.69589
0.236118
-1.15472
-1.7251
-2.35027
-2.36445
-1.27471
-3.38237
-2.04797
-2.42734
-0.31527
0.738469
-1.83025
2.52914
-0.747284
-1.72914
-3.59622
0.154138
1.79913
-0.382435
-0.665114
0.159426
-1.19178
0.0501177
-0.0095765
-0.249705
0.504625
-3.55613
-0.781645
1.7289
0.160373
-2.72715
-0.363339
-1.07267
0.53508
-3.3416
-1.86226
-0.657924
1.07678
1.28263
1.09367
0.427853
1.12971
-1.0384
-2.88206
0.630964
-0.993262
-2.42706
-1.11002
-3.16113
-2.82504
-0.256248
-0.672563
-0.885307
-2.59787
-0.620467
-1.62049
0.548359
0.490423
0.878534
-0.127582
-0.298446
0.651205
0.718952
-1.70517
-2.29551
-1.82197
-1.7007
-0.769494
-1.15781
0.595292
0.00902717
-0.147703
0.285762
-0.423743
0.743976
-0.0169033
-0.40112
-0.138264
0.49827
0.306284
-0.779335
-0.293549
0.180669
0.573044
-0.436415
-0.86764
0.375358
-3.08202
-0.164174
-3.57805
0.403757
0.252222
-0.0660316
-3.13828
-2.66378
0.367334
0.0570698
1.49861
0.257253
0.00832488
-0.521727
1.52164
0.697776
-1.76065
0.249866
1.40084
-1.12454
-0.110742
-0.996806
-1.31308
-0.881705
-0.0653751
-0.458276
-1.40286
-0.466444
3.35776
0.337584
-1.27023
1.14853
0.310712
2.34774
2.15394
0.129065
-0.0343607
-1.34966
-0.0624729
0.448376
0.653275
0.473688
-2.85311
0.273294
-0.587678
2.30075
-0.504793
-1.18625
1.33278
0.0720632
-0.854648
-2.31645
-0.348518
-0.381765
0.33709
-0.607281
-1.62613
-0.121582
-1.51507
-0.106544
0.166375
-1.24733
-0.710953
0.283435
1.08457
1.40082
-0.2414
-2.70504
-3.01322
-0.980078
-0.689485
-1.42988
0.652811
1.24514
-2.43732
-0.0346481
-0.598647
-2.7419
-3.02777
-3.05253
-2.29388
-0.662685
-0.99861
-2.55641
0.473665
-3.11525
-0.541371
-3.70326
-1.62745
-0.810502
-0.137956
-0.884823
2.01258
-1.43336
0.536806
-1.23638
-1.70201
-0.908053
-2.44735
-3.49619
-3.78363
-2.0014
-1.36249
-1.19017
-0.265923
-1.04108
-0.621372
-2.687
-3.28758
-3.43246
-0.538702
2.02231
-0.9395
-1.02207
2.04567
-1.29753
-1.83273
-1.00122
-0.329017
-2.67314
-0.973861
-1.8795
-0.303031
-0.527278
-0.120945
-0.66343
-1.62926
-0.624781
-2.01878
-2.4066
-1.67049
-1.10438
2.05544
1.61404
-0.375159
0.3174
-1.45158
-0.496294
-0.0566947
-1.06758
0.0827952
-2.09432
-1.09948
-0.465714
0.288379
-1.17582
-2.01731
-0.0130899
-0.835805
-0.315023
1.20904
0.374706
-1.27057
-2.96393
1.03596
-1.14619
-2.64885
-2.0551
-0.38223
0.505983
-1.12025
-0.251096
-0.0397224
-2.16398
-1.26193
-2.70941
-0.835291
-1.492
-0.494116
-3.54374
-2.04898
-1.98505
0.114335
0.550688
-2.06131
-0.823885
0.594005
-1.02021
-1.44672
-2.26189
1.54192
-1.55758
0.394853
-1.02747
-0.0102138
-0.863845
-0.0955513
0.115292
-0.98274
-0.553035
-1.15497
0.108712
-0.933448
1.6951
-1.17257
1.12076
-1.02687
0.111213
0.142885
0.0962158
0.357938
-0.223773
-0.661097
3.7043
-0.550392
-0.802257
-0.69641
-1.63869
2.9394
-0.907091
0.324681
-1.72078
1.07539
-0.893212
-0.966014
0.161398
0.065156
-0.311629
0.244874
0.404985
-0.364251
-1.56976
1.61244
0.149555
-0.387474
-0.170254
0.556019
-1.42495
-3.18977
-1.3679
-1.68109
-1.22128
-1.78137
0.326512
-1.86655
0.0861948
-1.95778
-1.31312
-3.12772
-4.43841
-1.24671
-2.00335
-1.04041
-1.70466
-1.94051
-1.10701
-2.09901
-3.86783
-3.01646
-0.70264
-0.81118
0.0124789
0.438531
-0.980912
0.144772
-0.404609
-0.830086
0.341375
-0.671385
-4.07265
-0.378691
-1.18012
0.101207
-1.59745
-0.49592
-1.40412
0.253026
-4.67984
-1.7231
-2.76275
-1.82683
0.327836
0.0459672
-0.366406
-1.89421
1.52478
-2.95327
-0.668486
-3.52842
-2.8762
-0.767421
-1.02549
-0.50322
-2.18977
-2.67033
-2.0152
-0.280021
-3.62591
-1.90039
-1.83121
0.179375
0.569024
1.52305
0.499653
-1.88575
2.41019
-0.303496
-2.02529
-0.0432599
-1.49035
0.118529
0.361746
-1.96125
0.862116
-0.616422
-1.69115
-1.16759
-1.06961
-4.70422
-1.24595
-1.13708
-0.533054
-1.47904
0.757255
-2.74393
0.156902
-1.49695
-1.96893
-1.25055
-0.946785
-1.27547
-1.27312
-2.58658
-0.319408
2.33836
-0.490301
-2.17152
-0.976781
-0.409395
-0.596644
-0.307822
-0.484626
0.180807
0.582396
-0.224443
-0.717313
-1.05401
-2.56654
-0.823879
-2.58087
0.528268
-0.440443
1.2852
0.841045
1.40932
-1.52484
-0.549818
-1.34733
0.520932
1.54919
0.411427
1.3188
1.04993
-0.0496426
-0.220197
-2.1991
-0.501087
-0.794518
-0.195027
-1.72451
-0.985448
0.922541
-0.204172
-1.57741
0.169775
-1.58289
-0.955498
-1.59562
0.37601
0.542056
-0.242937
0.816721
0.291262
-2.24443
1.08898
-1.02104
-0.74183
0.688827
-0.97631
0.213059
0.57741
-2.09924
0.305871
-1.54119
-0.157613
-0.285182
-0.176698
-0.117545
-3.48118
-2.58477
-1.3921
-2.12436
-1.57618
1.93983
-0.107017
-1.31193
-1.9289
-1.65143
-1.68712
-2.62725
-2.93933
-2.20684
-2.67225
0.048247
-2.28862
-3.21404
-1.35114
-4.68476
-3.82352
0.512772
-4.36167
-0.186437
-1.51675
-0.0435738
-0.659585
0.443361
-3.24439
0.562039
0.613631
-2.14417
-0.473965
0.864767
-0.19808
-3.41108
-0.101308
-0.472906
0.23369
-3.13332
-1.91395
-2.1011
-1.39399
-2.35854
-0.317575
-0.350078
0.5536
0.0481314
-2.24064
-0.588327
-0.820753
-2.52885
-0.915542
-1.76703
-3.00953
-0.0665423
-2.05792
-3.65799
-0.903844
-4.91136
-1.40157
-0.452912
-1.31638
-0.0340963
-0.611514
1.0096
-1.5688
-0.473264
-3.14869
-2.937
-2.16248
-1.74849
-2.33672
-1.11513
-0.101944
-1.85857
-0.915188
-1.88344
-3.18977
-1.35292
-2.66164
-0.850099
-0.417947
-1.50624
-0.500513
-2.697
-2.02558
-3.05854
-2.95475
-3.00463
-1.15264
-2.83585
0.72505
-0.577558
-0.609385
1.13719
-1.01953
-1.10848
-0.405765
-0.0142965
-1.33453
-0.375938
-2.43031
-3.21937
-0.89992
0.333599
-1.31046
-0.897828
0.894208
-0.368781
-0.179565
-0.881496
-2.46309
-0.938613
-2.70866
-0.417511
0.761556
0.156997
-1.43932
-2.86827
-0.855646
-0.646841
-0.485282
-0.241596
-0.917759
0.22568
0.377904
-1.00445
0.185764
-0.392305
0.704333
1.55241
-0.959621
-0.646339
-1.98653
0.388775
-2.05166
-0.672375
-0.241828
0.60086
-0.275042
-1.10335
-0.849134
0.0665655
-0.114086
-1.80562
1.06947
1.4689
0.613181
0.317613
-1.98148
0.699395
0.698042
-1.43703
-2.16439
-0.727777
-0.679252
2.40304
2.21131
0.964871
-1.10228
-2.42116
-0.136971
-2.80088
-1.69898
-0.745097
-0.782908
-1.94028
-2.36635
-3.8613
-3.23091
-1.98537
-3.20757
-1.36873
-2.82363
0.181178
-0.505106
-3.39082
-2.02601
-2.7388
-2.80761
-1.58061
-1.94418
-2.54186
1.64838
-1.24982
-0.409639
-0.464894
-3.37564
-3.23033
-4.25483
-4.10937
-0.327212
1.16508
-1.21789
-1.62377
-0.101984
-2.20497
-2.90517
-2.9299
-2.40327
-4.15425
1.82175
-0.392317
0.762683
0.681416
0.0167077
-0.329565
-2.31316
-1.25937
0.862045
-0.436669
-4.06853
-0.925712
-1.06917
-2.70084
-0.900462
-1.86126
-2.53435
-4.67633
-3.40093
-2.79909
0.413337
0.0283119
-0.515358
0.10304
-0.973054
-0.774787
-1.71329
0.451139
-0.968996
-3.65395
-3.69798
-0.279006
-1.92114
-0.171223
-0.374235
-3.35794
-1.41727
-1.66354
-2.06741
-1.56089
-2.71403
0.0286715
0.205782
-0.774402
1.01809
0.0298525
0.662479
-0.271907
-0.508812
2.36245
0.0541106
-0.0222288
-0.261981
-0.307252
-1.50548
-0.786574
-0.816739
-2.27038
-1.69461
0.925854
-1.02878
-2.51442
1.35153
-0.235042
-0.95346
-1.32477
-0.728787
-0.953746
-2.64564
-0.663565
-3.18028
-1.77964
1.37682
-0.489556
-1.57553
0.0990259
-0.0326919
-1.61431
0.0200065
-0.519458
-2.67358
-2.05513
0.0341099
-0.719323
0.617969
-2.09117
-1.22567
-0.397199
0.1609
-0.368183
-0.843811
0.987634
0.526027
-0.614035
0.241155
-1.16164
-1.26537
-2.77144
1.59042
-0.766089
0.465476
-0.58246
0.370962
-1.16697
1.14269
-0.72827
-0.717652
-0.400565
0.387096
-0.856042
-0.0726342
1.11784
-0.674787
0.441739
0.167852
-0.229262
-0.0581674
0.0142015
-4.87401
-1.96604
-2.34413
-0.947203
1.5667
1.97489
-1.55773
0.469254
-1.14075
-0.92406
-3.3054
-4.78884
-1.98993
-2.71496
0.0700411
-1.33193
-0.913008
-0.763013
-1.88787
-2.86783
-2.57625
-0.430108
-0.948378
-0.251012
-2.3493
-0.48347
-2.28031
0.232221
-3.09575
-0.176888
-0.0465459
-1.47651
0.07101
0.0752147
-0.592939
-1.02737
-0.033354
-2.55769
-0.212589
-3.75053
-1.53087
-3.18506
-2.3432
-1.09367
-0.625115
-1.52008
0.131696
-1.55486
1.28848
-1.29027
-1.97968
-1.97442
-1.28208
-0.740794
-0.869547
-1.05255
-0.642971
-0.551673
-2.54721
-1.99363
-2.74483
-2.85139
-1.10488
-2.57711
1.43863
-1.97226
-0.611159
-0.803883
-1.83072
-0.834215
-3.76807
0.753058
-0.730649
-3.95684
0.384345
-1.40898
-0.990245
-1.28657
-0.285607
-3.5773
-2.66899
-3.06222
-0.472594
-0.435101
-2.22803
-1.02742
0.898369
-0.570674
-0.189403
-3.33139
0.624401
1.67432
0.638408
1.52208
0.417288
-2.80846
0.815827
-1.1754
-3.20786
-0.210158
-0.68574
-0.247258
-0.148966
-1.48883
-0.0118856
-0.612184
1.1032
0.978436
-0.448498
-0.211426
-1.61793
-2.69901
-2.90673
-0.490105
0.351916
0.706457
1.8175
-1.7691
-0.610685
-0.385002
-1.53538
-0.490687
-1.32878
0.163238
0.85306
-0.354324
-1.44654
-0.153811
-2.10335
-0.233302
-1.44076
-0.19599
0.780384
0.111001
-0.448477
0.0185262
1.75662
0.403399
-0.248346
-0.185843
-0.400531
0.418006
0.883578
0.116702
-1.12532
0.61983
1.13035
-1.43787
-1.00333
1.26835
-0.168432
-2.01464
0.0573706
0.28419
-0.661846
-1.64058
0.118576
0.748208
0.787457
-2.23634
-3.04549
-2.90278
-2.33282
-0.584614
-1.67598
0.245633
0.877457
-0.467681
-2.50886
-0.579702
-1.7884
-3.91367
-0.745147
-2.44095
-1.52292
0.381537
-1.36928
-2.56413
-3.72223
-2.18336
-1.72166
-1.75309
-1.88411
0.856645
-0.365656
1.55782
-1.04042
-2.19877
-0.629392
-1.53492
-0.323046
-1.30268
-2.07037
0.361887
-0.827548
-2.80163
-1.0634
-1.04368
-3.80348
-2.47079
-3.38337
-2.89177
-0.962695
-0.373045
-1.45951
-2.13755
-1.21748
-0.682156
-2.74196
-1.8402
-0.752174
-0.223173
-1.65951
-1.1839
0.400155
0.135062
1.8039
-0.167723
-2.33544
-3.02887
-1.31006
-2.3845
-1.89704
-2.09059
-2.00314
0.315787
-3.68585
0.802043
-0.572702
-1.40922
0.391024
0.430206
-2.56305
1.29938
-0.908429
-0.627123
1.35964
-2.37697
-0.764996
-0.628147
-1.52617
-1.81656
-0.310679
0.693983
-0.854218
-0.338324
0.9583
-2.67151
0.425733
-0.85651
-1.42075
-1.65965
-1.14172
1.79012
1.08149
1.41993
-1.33438
-0.958378
-1.5228
-1.61845
1.90732
-3.75059
-0.121142
1.02839
0.352879
0.724637
0.440572
-0.0391033
0.40587
-0.926554
-2.66685
-2.69073
-0.522592
0.509476
-1.69918
-0.413353
1.16332
0.760023
0.21701
0.0525167
-1.58758
-1.5681
-0.0185416
-0.201031
1.65668
-0.378598
-1.21139
1.25532
0.141506
0.802684
-0.139669
0.375132
-1.16742
-1.68132
-0.902907
-0.228841
-1.63719
-0.265239
0.969868
-1.153
-1.42785
0.429154
1.02212
-0.644737
0.109944
-0.482539
-2.12904
-0.388348
-0.83482
-0.425195
-0.511373
1.49536
1.63048
-0.277647
0.965285
0.481755
-1.3795
-0.93021
0.519838
0.0805887
-2.83509
-2.06399
-2.05929
-1.12145
-0.480351
0.0152923
-0.631885
-1.14779
-1.16623
0.248975
-2.26436
-0.780766
-0.424428
-1.85951
-2.09423
-3.15613
2.04536
-1.05416
-1.45079
-1.70787
-1.50051
-0.115367
-2.25895
-0.104808
-0.0103172
-0.410223
-0.384089
0.00483043
-0.757442
0.518552
-0.331276
-0.878933
-0.101225
-0.961166
-0.141246
-2.44778
0.210511
-0.490473
0.47014
-2.71103
-2.93156
-2.53139
-1.03272
0.385372
-0.798068
-1.80798
0.216348
0.0589396
0.353885
-1.85115
-0.420918
-2.60458
-1.07888
-2.36778
-0.405253
-2.91262
2.95035
0.390377
-1.71026
-1.20086
-2.60626
-0.740773
-1.34774
-0.239222
-1.72798
-3.47121
1.95803
-1.25707
-0.14278
-1.20424
-1.32932
1.54264
1.59484
-0.655225
1.54921
0.74154
-0.895987
0.115598
-0.308087
0.748063
-0.721465
-1.14115
0.447572
-0.154977
2.15792
-0.952911
1.1904
-0.179933
0.100782
1.15741
-0.638942
-0.344862
0.144384
0.260417
-0.967548
1.68217
-1.18236
-0.484113
-0.963862
-0.49609
0.597812
-0.79767
0.790293
-0.93578
-0.406717
-0.276002
0.345756
-0.345419
-1.86995
-1.69197
1.30751
-1.54985
-2.10823
0.985345
0.861556
-4.03022
1.10761
0.833634
-1.26184
-0.944051
-0.991866
0.884764
2.37091
1.0191
1.35432
-2.20652
-0.00263964
1.32155
-0.485908
0.144558
-0.133126
-1.08583
-2.37505
-0.729593
-0.479577
0.852828
-0.817123
-0.992311
0.648362
2.49095
-1.45579
0.46877
1.80146
1.17163
1.67165
-1.58491
2.26807
-0.127959
-0.549665
-1.18076
-0.773584
2.16858
0.577031
-1.36322
0.380668
-1.45389
0.323945
0.719711
1.63248
-0.604432
-3.80096
-0.26439
-1.32769
-1.71855
-0.873716
-0.90716
0.190219
0.355719
-0.0643804
0.671351
0.509354
-0.813937
-1.02173
-0.759706
-1.12974
2.05646
-1.9511
0.266555
-1.16277
-0.0469822
-1.45904
-2.74827
0.395819
-2.98847
0.2063
0.367526
0.481002
0.442659
-0.0427917
-0.337885
-0.415247
-1.99231
-1.09882
0.382047
-1.18108
-1.66389
-0.174791
0.927725
-0.530889
-2.41254
-1.27629
-1.46705
-2.50593
-0.274673
0.922802
-0.979042
-0.616551
-0.814587
0.647555
0.99743
-0.132436
-2.08096
-0.245271
-0.67015
-0.810662
1.19953
2.46928
-1.10262
-1.20938
-1.65183
0.217839
-1.77044
-1.81077
-0.610313
0.377519
0.603243
-1.04052
0.681576
1.08625
1.22231
1.04353
0.345451
-0.92393
1.5291
-0.3077
0.0198382
-0.745854
-1.22926
-1.08232
-1.04862
-0.683094
-2.6107
-0.251038
0.421476
1.19899
1.42252
1.76831
1.80298
-0.901306
-0.595619
1.38498
2.24184
-0.626725
-1.1224
-0.349764
0.0225525
-0.321386
2.88389
-1.4249
0.599028
-1.10746
-0.523655
0.66937
1.33742
1.54407
-1.72846
1.23498
0.249176
-0.502336
-0.549627
0.540064
-0.421195
1.39768
-0.48662
0.520833
-0.458433
0.387754
0.0760456
-0.587074
-1.13727
-0.416416
0.270852
-0.699554
-0.841588
-0.310993
1.4907
-0.455288
-0.532684
0.278531
-1.36415
-1.912
-0.414851
-0.648402
-1.81703
-0.567045
0.188549
1.65204
0.476212
-0.551307
0.0617341
0.251135
1.15997
0.357735
-0.433976
1.14836
-1.0402
0.413023
2.56269
0.00138516
0.920585
-0.117839
-0.603832
-1.75936
1.32167
2.71348
0.992906
0.283209
-0.220516
-2.25449
0.231621
1.17928
-0.81688
-0.785155
1.37004
0.225512
0.726187
-0.753587
1.95527
2.72044
0.783478
1.04556
-0.268414
-0.346868
1.59698
0.103401
0.956682
1.13413
1.35819
-1.08225
-2.20529
-0.504017
0.185429
2.05332
0.448645
1.3106
0.211524
0.822567
-0.251428
-0.413458
-0.107395
1.09242
0.188725
0.097811
-0.577119
0.375549
1.30608
-0.141591
-0.485992
0.217414
-0.0361827
-1.88139
-0.695985
2.40104
-1.23027
1.47899
1.15967
-1.03144
0.0594705
0.625571
1.07481
0.116889
0.431726
1.90554
2.42831
1.56993
1.57153
2.11078
0.435946
0.368238
-0.15827
-0.819608
0.395842
-1.51755
0.52142
1.12
1.17279
-0.627536
-1.73036
0.870558
-1.96379
-1.86759
-1.28228
2.5612
1.86653
-0.363275
0.300706
-0.0146368
-0.542653
-0.187196
-0.150821
-3.21649
-1.03987
-0.29205
-2.19245
0.0389177
-0.641316
0.800595
0.244798
1.74282
0.461314
0.446736
0.366073
0.863274
-0.194061
0.0681416
-0.837533
0.692461
0.637072
1.04446
0.306905
-1.24503
-1.28312
-0.316838
-0.182643
-1.09241
0.0446428
-0.132505
0.104144
1.14285
1.68893
-0.452315
-0.135817
0.926246
2.97399
0.550263
-1.48009
-1.46612
-0.537896
0.404865
-2.22986
0.202119
0.616409
-0.149835
-0.157749
0.105956
-1.03673
-0.175756
0.29193
-0.164232
0.473721
0.815468
-0.31321
-0.958277
-0.344576
-1.51737
-1.00465
-0.471039
-0.36776
-0.56372
-0.359018
0.187945
-1.80218
-1.90907
-1.70031
-0.827491
-2.30884
-0.14074
0.762846
1.04928
0.245831
0.912544
0.118774
-0.644198
-0.331677
0.755305
-2.63272
0.204801
-1.78858
1.05953
-0.569885
-0.664754
-1.60848
-1.78207
3.73774
3.46109
-0.125477
1.97192
1.04379
1.10841
1.13807
1.73262
2.21999
2.24689
-1.15096
2.47597
3.84507
2.62537
-0.336478
0.910874
-0.0171907
-0.980071
-0.824503
0.511506
2.46592
1.24175
4.24415
2.14065
0.167817
1.58186
0.92062
1.00059
-0.560811
-2.22981
2.1634
3.0154
0.202585
1.81782
0.893333
1.92905
-1.5205
0.808492
0.551163
0.0596685
1.58321
-0.525324
2.48409
0.961676
3.31919
2.19087
0.401836
1.43222
0.329137
1.82972
0.238406
-0.433044
0.259543
1.08414
1.76217
0.567951
0.240183
-0.442214
-0.615007
1.16684
0.227267
0.483577
0.193801
1.54091
0.20327
1.21185
-0.559819
0.501132
0.229855
0.764918
2.86703
0.726247
0.374146
1.11019
1.36624
-0.374645
-1.4649
0.920352
-0.15123
1.27752
2.32774
1.15382
2.77858
0.70847
1.16309
3.14204
1.51828
2.21555
-0.946087
2.59936
1.63533
0.331082
2.42098
-1.25083
1.58521
-0.159664
1.59078
0.511869
0.794969
-1.40252
-0.559077
-0.820393
0.305584
2.13175
0.390693
-0.418725
-0.218341
1.15869
0.0255252
-0.890623
0.542524
3.25648
1.0761
2.26336
1.11209
0.982922
0.460235
0.864391
1.11749
1.73966
-1.37543
0.713893
0.880589
0.605024
-0.469945
-0.312946
0.762118
-1.44021
-0.0379443
0.588382
0.599039
3.54527
1.99819
-0.081093
0.818718
-0.544471
0.0468958
-1.0483
1.3414
-1.15432
0.570937
-1.09164
1.13749
-0.598344
-1.1265
2.46078
0.913015
0.255439
-1.888
0.45227
0.45184
0.919793
-1.13556
-0.113383
-0.123929
-0.923427
-0.206496
-2.12831
0.780536
-0.79329
0.108953
1.1401
1.77541
2.82882
2.36846
3.67534
5.32112
1.79155
4.09975
1.96564
2.18333
3.10746
1.54979
1.72224
0.41376
-0.197258
-1.92004
0.0893963
-0.241466
1.9524
0.291443
1.55177
0.119884
2.83938
0.234941
2.46934
0.189963
0.437308
2.84101
-0.337094
4.20581
-0.0618889
2.35189
0.576277
5.38638
-0.00235657
-1.40279
-0.391531
-0.530581
0.674457
1.63036
2.77758
2.89029
2.80644
1.51041
1.86495
1.43223
2.69161
2.16536
2.39915
3.98924
0.656785
0.0329943
2.50778
0.571619
0.0386393
0.884696
-0.874782
2.44555
2.62722
-0.354099
1.42195
1.45176
0.280235
1.89738
2.85601
0.903665
1.42615
0.899526
3.27189
1.23386
-0.349268
2.90597
2.34234
1.90637
1.90644
-1.08195
-0.0919447
0.095529
1.0261
-0.125612
1.85033
1.97844
1.65302
1.82247
0.828077
1.64819
0.3044
3.41139
2.86251
1.75999
2.37279
-1.02583
0.337416
2.0379
1.65301
-1.35744
0.875257
-1.25327
0.622868
-0.0613677
1.53186
1.54676
0.302033
-0.999383
1.17173
0.529476
-0.889261
0.869517
1.08022
1.71978
2.39121
1.59448
1.87055
1.3386
1.1698
0.920095
0.388386
1.04378
-0.889054
0.142537
-0.261913
0.535699
-0.416831
-0.23294
-2.96023
-0.871749
1.28212
0.842364
-1.08194
0.933189
0.862194
1.40955
1.3707
0.31865
-0.959445
0.334189
1.40856
1.09332
-0.889402
1.15637
0.286972
1.96033
-1.24831
-1.20625
0.051954
1.09141
0.341044
2.12073
0.170883
-0.68636
0.501009
-0.496491
1.42238
-1.03351
0.37198
0.359908
2.01731
-1.8544
2.24773
2.17392
4.36257
2.55528
1.57643
4.24738
3.33937
2.11019
3.80683
4.64829
3.55698
2.80462
4.21873
3.43474
3.05537
2.32113
1.71851
1.55536
1.17047
2.76742
1.91062
0.640772
2.61857
1.02965
2.9993
3.79809
4.47431
1.41633
4.04555
4.52317
4.16781
3.51507
3.67319
1.1711
3.80136
3.78179
3.00144
1.55905
-0.105898
0.146399
1.72814
2.90368
2.24676
1.34516
4.23088
3.06899
0.941079
2.14269
-0.0261947
2.26249
1.57211
1.88074
1.15227
3.03157
2.61735
1.09911
1.60223
2.56225
-1.16571
1.75393
2.8076
-0.65054
1.40604
2.32862
4.51587
0.965276
2.13074
1.79465
0.10784
0.98021
0.942217
2.18802
3.66965
4.82924
4.5187
1.57652
-0.835668
1.97913
0.152609
1.92405
0.491144
0.681038
3.81305
2.1428
2.19814
0.744871
2.03127
0.774788
1.25828
2.88451
0.95881
2.47851
0.907164
1.48441
5.03923
-0.910134
1.20123
0.444466
1.87757
-1.11906
-0.698213
1.54208
0.0805974
2.00873
0.445521
1.62995
-1.05099
3.30468
1.60785
2.07005
0.778387
2.74715
2.73905
0.707036
2.08
-1.0545
0.00456855
0.777236
1.00767
2.45442
0.456121
-0.0995876
-0.234261
0.307315
0.295122
1.63732
2.30855
2.50775
2.32387
-1.47385
-0.744456
2.41635
-0.0871653
-0.421023
3.69695
-0.20726
0.719716
-1.21375
-0.13636
0.602008
0.418059
-2.41398
2.09265
-0.464717
1.20969
1.75875
2.61359
-0.62023
0.521562
1.50707
-1.96535
1.24791
1.68643
-2.26844
0.831655
0.42947
0.234019
-0.670101
)
;

boundaryField
{
    hotSide
    {
        type            calculated;
        value           nonuniform List<scalar> 
400
(
-0.735631
1.03725
0.546305
-1.50128
-2.1637
-1.04497
-3.06144
-3.01883
-2.66866
-2.84623
-3.13838
-0.759855
-4.53152
-2.70241
-2.49086
-3.45496
1.52771
-0.313185
-1.77288
2.37735
2.22454
-2.26044
-0.546829
0.75192
0.63497
-0.248122
0.76663
-0.209502
-0.616624
-1.00661
-2.22535
-2.06325
-1.60917
-2.5464
-1.70748
0.0929186
-0.458047