/*--------------------------------*- C++ -*----------------------------------*\
| =========                 |                                                 |
| \\      /  F ield         | OpenFOAM: The Open Source CFD Toolbox           |
|  \\    /   O peration     | Version:  2212                                  |
|   \\  /    A nd           | Website:  www.openfoam.com                      |
|    \\/     M anipulation  |                                                 |
\*---------------------------------------------------------------------------*/
FoamFile
{
    version     2.0;
    format      ascii;
    arch        "LSB;label=32;scalar=64";
    class       volScalarField;
    location    "0";
    object      relativeErrorField;
}
// * * * * * * * * * * * * * * * * * * * * * * * * * * * * * * * * * * * * * //

dimensions      [0 0 0 1 0 0 0];

internalField   nonuniform List<scalar> 
3200
(
0.00323194
0.00547693
0.00421445
0.0133068
0.0095559
0.0131702
0.0107562
0.0154595
0.0115428
0.0127087
0.00584952
0.00324878
0.0100062
0.00821167
0.0055967
0.00382237
0.00995057
0.002074
0.0026577
0.00831441
0.00547232
0.00937471
0.0046476
0.0117341
0.00885166
0.00679895
0.00525692
0.0103975
0.0139641
0.00329464
0.00436363
0.00643116
0.00728826
0.0121952
0.00711645
0.00779617
0.007951
0.00347903
0.00345936
0.00162115
0.00241079
0.000654807
0.00463092
0.00810273
0.000880861
0.0134985
0.010965
0.00438887
0.00903254
0.00251686
0.00768794
0.00757158
0.00546654
0.00254661
0.0073138
0.00187714
0.0056731
0.00488429
0.000946221
0.00602479
0.00474325
0.00514009
0.00112319
0.00986758
0.00466117
0.002403
0.00679777
0.00756242
0.00350316
0.00132042
0.0105642
0.00328925
0.00400606
0.00483545
0.00193824
0.00701256
0.00394343
0.00228292
0.00317449
0.00110046
0.00912768
0.00190748
0.00178257
0.0086482
0.00480577
0.000837847
0.000472296
0.00758605
0.00134306
0.00209849
0.00526161
0.000964671
0.00702886
0.000242636
0.00694063
0.00300031
0.00102176
0.000764932
0.00722299
0.00081874
0.00619832
0.000655322
0.00338272
0.000442731
0.00715281
0.0048213
0.00839975
0.00611544
0.00334915
0.00262203
0.00396382
0.00410579
0.00522757
0.00338348
0.00517111
0.00201261
0.00299689
0.00230935
0.00842234
0.00208526
0.00216549
0.00567083
0.00412112
0.000129182
0.00443917
0.00236385
0.00711617
0.00453482
0.00143631
0.0149679
0.00462309
0.00537418
0.00600198
0.00704705
0.000998843
0.00819563
0.0031061
0.00776886
0.00127936
0.00300078
0.00248571
0.000651899
0.00300371
0.000874025
0.00257705
0.00213507
0.00597542
0.000693748
0.00364085
0.00399217
0.000208641
0.000258031
0.00174175
0.00549888
0.00826804
0.00174058
0.00450885
0.00170036
0.00583391
0.00506269
0.00203263
0.00781768
0.00690051
0.00633951
0.0099014
0.00249636
0.00841227
0.00735885
0.0104808
0.00726381
0.00742634
0.00433052
0.00039605
0.00555862
0.00361398
0.0018113
0.000373606
0.00420916
0.000144565
0.00048876
0.00414726
0.000816483
0.00715205
0.000944369
0.00782902
0.000104244
0.0118231
0.000899086
0.00813647
0.000399646
0.000618288
0.00381881
0.000900939
0.00134494
0.000799707
0.00465749
0.000869818
0.0088926
0.00084098
0.00293255
0.000757524
0.000831146
0.00858807
0.00407657
0.00501839
0.0108214
0.0104726
0.00583383
0.00205956
0.0103511
0.00260748
0.00412936
0.0071929
0.00534986
0.00108082
0.00844302
0.00487889
0.0015431
0.00187815
0.00595554
0.00358598
0.000519444
0.00616468
0.00619943
0.0078265
0.00682046
0.0047326
7.21012e-05
0.0045607
0.00857605
0.00379808
0.0011997
0.00828339
0.00189171
0.00191335
0.00139924
0.00492529
0.00578949
2.12365e-05
0.00377981
0.000528238
0.000569965
0.00406378
0.00686886
0.00369752
0.00560587
0.000923351
0.00117477
0.00577961
0.0109504
0.00146175
0.00232431
0.00872342
0.00907691
0.000244833
0.0101017
0.0112397
0.00081078
0.0015801
0.00641584
0.00437409
0.0059611
0.00449866
0.0032242
0.00138065
0.00270148
0.000481829
0.00288178
0.00284588
0.00239764
0.00834364
0.00302334
0.00664643
0.0007548
0.000754499
0.0027663
0.00744143
0.00342305
0.00389439
0.00215633
0.00201709
0.00249227
0.00662901
0.000261114
0.00235276
0.00220068
0.00446092
0.0034544
0.00389922
0.0073368
0.000892693
0.00294767
0.00178134
0.00133737
0.000561262
0.00859647
0.00269497
0.00455222
0.00433326
0.00184259
0.00180917
0.00231287
0.00159987
0.00395541
0.00537229
0.00131337
0.00078597
0.000504976
0.00248261
0.00349007
0.00566697
0.00613787
0.00396191
0.00527852
0.00200622
0.00109785
0.0024984
0.00731314
0.000373357
0.00263971
0.000576855
0.00273323
0.00582295
0.00794215
0.00950267
0.00822922
0.00954141
0.011438
0.0119094
0.00758145
0.0105662
0.0111329
0.00126957
0.00803321
0.00525834
0.00946871
0.0045102
0.00391745
0.000506143
0.0102159
0.000302968
0.00839364
0.00462379
0.00517427
0.00626516
0.00389668
0.000902628
0.00558153
0.00562845
0.00827549
0.00370275
0.00511572
0.0113433
0.00762336
0.00795449
0.00160535
0.00676384
0.00579897
0.00204951
0.00640359
0.00161773
0.00245822
0.00593246
0.00768021
0.00281087
0.00682475
0.0113499
0.00803759
0.00427281
0.00731571
0.00541706
0.00356113
0.00117164
0.00459352
0.0049066
0.00305787
0.00882251
0.00292549
0.00296217
0.00425772
0.000364551
0.000344915
0.0117814
0.000923712
0.00641026
0.00785778
0.00348494
0.0078
0.00251908
0.00293726
0.00413991
0.00761323
0.00210722
0.0120195
0.000311843
0.0050723
0.000120867
0.00178653
0.00245646
0.000319653
0.00301438
0.00256735
0.00249136
0.0102208
0.00669003
0.00809914
0.00348339
0.00382586
0.00180068
0.00266337
0.000223532
0.00644199
0.00712075
0.00348129
0.00725333
0.00105946
0.000841582
0.0090688
0.000876832
0.0030593
0.00156751
0.00307259
0.00350363
0.0010554
0.00944453
0.00280415
0.00503012
0.0048288
0.000181631
0.00322521
0.0032185
0.00181978
0.00682759
0.000509259
0.00186166
0.00125608
0.00372534
0.000511282
0.00319261
0.00193271
0.00166943
0.00484979
0.00642108
0.00461919
6.19748e-05
0.00497356
0.00414852
0.000187352
0.00106106
0.00330769
0.00477448
0.00460555
0.00488338
0.00087424
0.00211689
0.000203074
0.00500332
0.000746671
7.12721e-05
0.00256887
0.00317255
0.00124557
0.00128955
0.00440612
0.00351328
9.4136e-05
0.000231414
0.000796936
0.0106709
0.00284208
0.00248713
0.00530373
0.00466312
0.000276381
0.0078278
0.000371008
0.000821069
0.00161572
0.00114485
0.00364663
0.00548742
0.00111683
0.00222554
0.00978111
0.00615166
0.0067222
0.00621481
0.00835461
0.000182102
0.00120291
0.00381057
0.00260666
0.00582099
0.00456658
0.00118159
0.00565387
0.00224595
0.000949665
0.00193516
0.00519342
0.00270381
0.000517091
0.00595732
0.000839232
0.0034801
0.000281159
0.000491772
0.00134578
0.00480146
0.000427728
0.000542366
0.00431352
0.000857035
0.00254873
7.13455e-05
0.00408676
0.0017662
0.0113269
0.00110093
0.000344463
0.00161845
0.00450619
0.00344569
0.00556263
0.00251928
0.000138449
0.00780853
0.000979834
0.00717906
0.0052934
0.00377591
0.00347754
0.00455919
0.00421436
0.00210719
0.00753766
0.00163352
0.00730298
0.00572855
0.00326717
0.00367171
0.00424057
0.00193727
0.00104024
0.00310241
0.00327425
0.00465777
0.000818353
0.00116899
0.00677585
0.00457465
0.00133393
0.00457425
0.00150298
0.00806588
0.000718671
0.00291141
0.00222847
0.000919621
0.001206
0.000281073
0.00786719
0.000483617
0.00536822
0.00602075
0.0105458
0.00742347
0.00154188
0.00926181
0.00364099
0.00150129
0.000117128
0.00322486
0.00211774
0.00269811
0.00383368
0.005913
0.00224915
0.00363491
0.00771767
0.0023274
0.00270219
0.00280814
0.00480718
0.00775112
0.00456124
0.00895531
0.00022464
0.00183268
0.000933308
0.00337765
0.0039441
0.0026783
0.00262549
0.000257936
0.000701199
0.00345268
0.00236651
0.00731616
0.00564777
7.66961e-05
0.0012515
0.00539422
0.00456348
0.000742198
0.00278604
0.00418017
0.000493373
0.00238537
0.00427028
0.00439622
0.00179836
0.00482659
0.00418469
0.00368325
0.00234369
0.00435442
0.00485169
0.00441024
0.00556823
0.00277694
0.0012134
0.00365125
0.00256143
0.00556581
0.0010349
0.00266161
0.00442857
0.00618503
0.00236034
0.00568849
0.00675068
0.00186628
0.00180841
0.00132928
0.00507998
0.00619967
0.000941555
0.00426436
0.00364224
0.0074354
0.00077515
0.00212776
0.00734834
2.47991e-06
9.91009e-05
0.00374978
0.00624268
0.00712129
0.00187536
0.00758019
0.00209345
0.00609397
0.00101625
0.00416157
0.000534144
0.000605634
0.00536834
0.00264381
0.00648435
0.00546321
0.00194189
0.00138646
0.0086882
0.0107857
0.000974938
0.00769437
0.00656604
0.00175398
0.00398112
0.00626081
0.00109349
0.00139232
0.00474921
0.00304037
0.00255661
0.00980514
0.00241062
0.00372976
0.00676517
0.000925181
0.00142523
0.00127343
0.00540378
0.00684146
0.00355215
0.00357579
0.00438495
0.00298089
0.00299594
0.00059172
0.00170755
0.0026472
0.00235456
0.000834739
0.00519401
0.00200869
0.000632549
0.00323405
0.0123976
0.00663224
0.00433578
0.00309414
0.00253804
0.00121637
0.0063412
0.00204327
0.00967472
0.00324262
0.00465087
0.000689136
0.000825015
0.00449922
0.000549864
0.00536545
0.00339061
0.00290503
0.00317735
0.00549599
0.00369207
0.00418464
0.00115813
0.00430873
0.00124063
0.00443859
0.00111683
0.00391328
0.00157522
0.00260391
0.00494429
0.00109728
1.39149e-05
0.00299392
0.00320138
0.00623749
0.00121244
0.0102159
0.000549351
0.00219946
0.00529837
0.0102601
0.0013476
0.00197529
0.00332798
0.00277479
0.00524505
0.00766022
0.0023588
0.00157278
0.00299973
0.00626232
0.000243937
0.00141197
0.00420172
0.00563156
0.00570238
0.00432643
0.00643364
0.00092239
0.00322215
0.0047341
0.000155702
0.00288369
0.00177891
0.0018283
0.00117434
0.00265211
0.00435962
0.00216783
0.000627155
0.000531742
0.00558596
0.00606256
0.000800676
0.00476366
0.00349403
0.00199655
0.0067169
0.0010223
0.00213955
0.000660695
0.000963935
0.00343588
0.00109716
0.00797874
0.00125064
0.00352089
0.00155849
0.000479587
0.00134385
0.00250781
0.00129517
0.00315303
0.00484776
0.00389557
0.0120624
0.00319541
0.000109505
0.00706074
0.000925724
0.00411437
0.00182422
0.00123951
0.00383337
0.00191813
0.00357261
0.000475285
0.00751869
0.00132526
0.00221673
0.0037724
0.00362219
0.00606926
0.00493691
0.0034741
0.00336019
0.000317882
0.00654539
0.00140828
0.00826616
0.00865216
0.00123703
0.00396181
0.000426052
0.00174233
0.000672752
0.00701802
0.000430618
0.00356013
0.000420896
0.00120368
0.0074324
0.00125962
0.00219831
2.51555e-05
0.00425082
0.000311342
0.00381293
0.00187333
0.00514393
0.00300518
0.00472908
0.00211742
0.003098
0.00283372
0.00819947
0.00495287
6.78168e-05
0.00770363
0.00674663
0.00311868
0.00524298
0.00557575
0.00504874
0.00580987
0.00530878
0.00236791
0.0010911
0.00161146
0.0106658
0.00744496
0.00369095
0.00437485
0.00028694
0.000353436
0.00455193
0.00127594
0.000142253
0.00277512
0.000241737
0.000995757
0.00254804
0.00116265
0.000681695
0.00166063
0.00428271
0.0037387
0.00711038
0.00448019
0.00525665
0.00323242
0.00623209
0.00479522
0.000693615
0.00561425
0.00129523
0.00260416
0.00599909
0.00136349
0.0054138
3.94966e-05
0.000712865
0.00241706
0.00305994
0.00248458
0.00592006
0.000308226
0.00116333
0.00218371
0.00348456
0.00149734
0.00423809
0.000798718
0.00270547
0.00248349
0.00131929
0.000556698
0.00205984
0.00094693
0.00353998
0.00565272
0.00647749
0.000894411
0.00515016
0.00160529
0.00125967
0.00969906
0.000111326
0.000548624
0.0060455
0.00356649
0.00226888
0.00182767
0.00214748
0.00300916
0.0055152
0.00512669
0.00319726
0.00185931
0.00168759
0.0010347
0.00136588
0.000148247
0.00701138
0.00582351
0.00268157
0.00426835
0.00485603
0.00463352
0.00858029
0.0012891
0.00932625
0.00582619
0.00188345
0.00181275
0.0015023
0.0117917
0.00363133
0.00938866
0.00578282
0.000175353
0.00486129
0.0011459
0.00904235
0.00332928
0.00243058
0.00277977
0.00297858
0.00510497
0.00117339
0.0100414
0.0011725
0.001737
0.00485555
0.000287094
0.00363431
0.0047938
0.00313453
0.00333065
0.000228795
0.00761378
0.00223968
0.00601962
0.000995881
0.00396607
0.00391369
0.00208389
0.00208207
0.00477731
0.0131693
0.00635228
0.00384967
0.00338586
0.00438965
0.00422265
0.00297845
0.0016062
0.00172422
0.00465919
0.00118064
0.00528145
0.000497027
0.00476143
0.00728504
0.00231023
0.00226843
0.00179289
0.00238226
0.00530233
0.00637509
0.011906
0.00462516
0.00016147
0.00501724
0.00190118
0.00438552
0.0012247
0.00171713
0.00239772
9.91584e-05
0.0039665
0.00262972
0.00723547
0.00359819
0.00351615
0.000569276
0.0013453
0.00933346
0.00406298
0.00155399
0.00110427
0.00964589
0.00289199
0.000108717
0.00386725
0.0040182
0.00256995
0.00116035
0.000160847
0.000570855
0.00334988
0.0021145
0.00587208
0.00883679
0.00262247
0.000783376
0.00030589
0.00884212
0.00273407
0.00846822
0.00206914
0.00241185
0.00571473
0.00404517
0.00450965
0.00228837
0.00545096
0.000251688
0.00241792
0.00524766
0.00160801
0.006167
0.00871257
0.00376563
0.00045319
0.00666836
0.00140855
0.000366845
0.00176655
0.0102754
0.00171448
0.00227693
0.00388211
0.000143795
0.00720077
0.000334531
0.00334834
0.00520998
0.000439127
0.00370259
0.00277341
0.00263887
0.00712805
0.000938521
0.000235541
0.00971736
0.0042238
0.00387539
0.00260518
0.00666479
0.0014982
0.0021833
0.00289918
0.000162468
0.00491697
0.00430885
0.00240559
0.00456045
0.00252543
0.00586507
0.00663054
0.000266545
0.00104194
8.81986e-05
0.00475286
0.00729518
0.0116466
0.00245667
0.00417105
0.000496583
0.00218133
0.00605238
0.00211496
0.00152551
0.00699253
0.00202309
0.000992665
0.00156552
0.00123205
0.00120101
0.00106757
0.00482452
0.00285917
0.00817401
0.000724634
7.664e-05
0.00184782
0.00129605
0.00738412
0.00269327
0.00988551
0.00168833
0.00159847
0.00493793
0.00203334
0.000688924
0.00336476
0.00502134
0.00683573
0.00687416
0.00370595
0.00983756
0.00596113
0.00707304
0.000919867
0.00215775
0.00535591
0.00741217
0.00219313
0.00508033
0.0107316
0.000459525
0.0053571
0.00113725
0.00197523
0.000472856
0.00353076
0.000148337
2.83248e-05
0.000738297
0.00149202
0.0105181
0.00231348
0.00512202
0.000475665
0.008099
0.00108046
0.003194
0.00159521
0.00997175
0.00564662
0.0019933
0.00325889
0.00387751
0.0033025
0.00129056
0.00340425
0.00312652
0.0086725
0.00189807
0.00298794
0.00730334
0.00334216
0.00952567
0.00852131
0.000773779
0.00203322
0.00267939
0.0078707
0.00188134
0.0049946
0.001689
0.00150925
0.0027011
0.000391886
0.000915883
0.0019968
0.00220304
0.00522248
0.00702873
0.0055788
0.00520878
0.00235791
0.00355021
0.00182686
2.77282e-05
0.000454119
0.000879415
0.00130517
0.00229304
5.29783e-05
0.00125655
0.000432826
0.00155865
0.000957378
0.00243427
0.000916312
0.000563654
0.0017871
0.00136073
0.00270528
0.00117059
0.00961533
0.000512468
0.0111761
0.00126206
0.00078898
0.000206708
0.00983096
0.00834883
0.00117119
0.000181891
0.00477396
0.000819058
2.64909e-05
0.00165934
0.00483723
0.00221733
0.00559328
0.000793661
0.00444955
0.00357248
0.000351906
0.00316881
0.0041762
0.0028057
0.000208145
0.00145988
0.00447114
0.00148719
0.0108947
0.00109509
0.00411922
0.00372336
0.00100694
0.00760601
0.00697615
0.000417913
0.000111241
0.00436905
0.000202235
0.00145159
0.00211531
0.00153417
0.00924326
0.000885679
0.00190516
0.00746112
0.00163749
0.00384892
0.00440224
0.00023801
0.00282243
0.00764909
0.0011507
0.00126034
0.00111274
0.00200448
0.00536713
0.000401274
0.00500041
0.000351654
0.000549161
0.00411747
0.0023471
0.000935817
0.00358135
0.00462614
0.000797294
0.00893486
0.00882599
0.00286772
0.0020148
0.00417255
0.00190231
0.00362353
0.00708444
0.00010061
0.00173709
0.00795318
0.00878238
0.00885752
0.00666088
0.00192619
0.00290609
0.00744946
0.00138221
0.00910332
0.00158406
0.0108472
0.0048434
0.00240993
0.000409724
0.00262467
0.00596259
0.00424158
0.00158683
0.00365162
0.00502368
0.00267935
0.00722127
0.0103194
0.0111748
0.00591625
0.00403185
0.00352607
0.000788812
0.00309197
0.00184757
0.00799666
0.00994516
0.0103755
0.00162677
0.00610052
0.00283111
0.00307681
0.00615262
0.00389956
0.00550504
0.00300657
0.000988008
0.00802943
0.00292681
0.00565282
0.000912235
0.00158891
0.000364845
0.00200342
0.00492487
0.00189001
0.00621009
0.00739849
0.00513129
0.00338937
0.00630266
0.00494501
0.00114853
0.000971091
0.00443916
0.00151738
0.00017334
0.00326482
0.000253313
0.00641163
0.00336854
0.00142804
0.000885045
0.00361181
0.00620171
4.02667e-05
0.00261555
0.000985351
0.00377928
0.00117046
0.00396608
0.00924574
0.00322966
0.00357152
0.0082509
0.00640024
0.00119038
0.00157609
0.00349071
0.000782803
0.000123911
0.00675487
0.00394185
0.00846918
0.00261268
0.00466903
0.00157365
0.0112821
0.00652019
0.00631358
0.000363464
0.00174976
0.00654676
0.00261573
0.00188541
0.00323778
0.00459136
0.00717936
0.00489541
0.00494691
0.00125461
0.00326628
3.24857e-05
0.0027489
0.000304203
0.00036718
0.00318643
0.00179277
0.00374301
0.000352204
0.00302322
0.0054884
0.00379556
0.00362704
0.00332267
0.000359824
0.000462298
0.000311328
0.00115837
0.00072434
0.0021405
0.0119974
0.00178315
0.00259994
0.00225755
0.00531329
0.00970669
0.00299524
0.001072
0.00568091
0.00354988
0.00294821
0.00318821
0.000532633
0.000215012
0.00102833
0.000808046
0.00133643
0.00120207
0.00518079
0.00532215
0.000493682
0.00127919
0.00056213
0.00183599
0.00470557
0.00931087
0.00398895
0.00489623
0.00355242
0.00517492
0.000947362
0.00540977
0.000249591
0.00566537
0.0037986
0.00904789
0.0128438
0.00361004
0.00580626
0.00301872
0.00495207
0.0056445
0.0032242
0.00612094
0.0112901
0.00894976
0.00208295
0.00240214
3.69116e-05
0.00129567
0.00289503
0.000426862
0.00119204
0.00244418
0.00100488
0.00197629
0.0119919
0.00111568
0.00347959
0.000298699
0.00471977
0.00146689
0.00415802
0.000750087
0.0138849
0.00519876
0.00832955
0.00550276
0.000986533
0.000138191
0.0011005
0.00568453
0.00457273
0.00885232
0.00200325
0.0105736
0.00862132
0.00230144
0.00307748
0.00151142
0.00658309
0.00803564
0.00607016
0.000844249
0.0109397
0.00583307
0.00561744
0.000549832
0.00174279
0.00466096
0.00152789
0.00576245
0.00736082
0.000926513
0.0061815
0.000132036
0.00454975
0.000361992
0.00110542
0.00599733
0.00263832
0.00188796
0.00518385
0.00358172
0.00328306
0.0146956
0.00389049
0.00354841
0.00166239
0.00460959
0.00235862
0.00854178
0.000488211
0.00465637
0.00612345
0.00388926
0.00294504
0.00396871
0.00396319
0.00805641
0.000995469
0.00729245
0.00153004
0.00678057
0.00305139
0.00130218
0.00189714
0.00097835
0.00153956
0.000574119
0.00184847
0.000712073
0.00227502
0.00334209
0.00813707
0.00261206
0.00818353
0.00167545
0.00139736
0.00407909
0.00267059
0.00447715
0.00484638
0.00174825
0.00428549
0.00168775
0.00501817
0.00133235
0.00426953
0.00339809
0.000160625
0.000712299
0.00711227
0.00162037
0.00256904
0.000630611
0.00557655
0.00318711
0.00298426
0.000660623
0.00510529
0.000549634
0.00512598
0.00309507
0.0051696
0.00124136
0.00178942
0.000801903
0.00269563
0.000961227
0.00740643
0.00359325
0.00336882
0.00244748
0.00227255
0.00322101
0.000702935
0.00190511
0.00692673
0.00100935
0.00508625
0.000520208
0.000941346
0.00058331
0.000388062
0.0101223
0.00750892
0.00403957
0.00615708
0.00456285
0.0056093
0.000309147
0.00378675
0.00556432
0.00476244
0.00486537
0.00757884
0.00848403
0.00637501
0.00772719
0.000139669
0.00663315
0.00932645
0.00392516
0.013622
0.0113057
0.00151501
0.012874
0.000549711
0.00446747
0.000128217
0.00193914
0.00130251
0.00952648
0.00164987
0.00180132
0.00629591
0.00139242
0.00254236
0.000582855
0.0100471
0.000298708
0.00139583
0.00069045
0.00926483
0.0057576
0.00631639
0.00418708
0.00707788
0.000952173
0.00104873
0.00165717
0.000143989
0.00670008
0.00175884
0.00245369
0.00756189
0.00273891
0.00528949
0.00901566
0.000199511
0.00617574
0.0109874
0.00271717
0.0147745
0.00429143
0.00138601
0.00402554
0.000104189
0.00186723
0.00308057
0.00478382
0.0014424
0.00959297
0.00894632
0.00658706
0.00532705
0.00712181
0.00340044
0.000311061
0.00567505
0.00279658
0.00575962
0.00976136
0.00414247
0.00829859
0.00264936
0.00130181
0.00468881
0.00155713
0.00838586
0.00629505
0.00950131
0.00917623
0.00932971
0.00357907
0.00880696
0.00225236
0.00179492
0.00189478
0.00353788
0.00317371
0.00345268
0.00126458
4.45743e-05
0.00423877
0.0011937
0.0077137
0.0102137
0.00285384
0.00105748
0.0041525
0.00284414
0.00283207
0.00116785
0.000568644
0.00279181
0.00780258
0.00297423
0.00858622
0.00132402
0.0024161
0.000498303
0.00457021
0.00911028
0.00276977
0.00209347
0.0015702
0.000781513
0.00296797
0.00072965
0.00122154
0.00324617
0.000600275
0.0012676
0.00227582
0.00501644
0.0031013
0.00208922
0.0064227
0.00125727
0.00663668
0.00217557
0.000782666
0.00194501
0.000907755
0.00364128
0.00280208
0.000219641
0.000376407
0.00595681
0.00352795
0.00484527
0.00202254
0.0010476
0.00653564
0.00230691
0.00230255
0.00474045
0.00714041
0.00240117
0.00224127
0.00792986
0.00729777
0.00318448
0.00319151
0.00700423
0.00039583
0.00808538
0.00489918
0.00214638
0.00225327
0.00558014
0.00680192
0.011096
0.00928453
0.00570684
0.00922479
0.0039393
0.00813397
0.000522446
0.0014581
0.00979909
0.00586108
0.00792985
0.00827057
0.00465269
0.00571766
0.00746815
0.00483843
0.00366527
0.00120036
0.00136139
0.00988061
0.00945301
0.012451
0.0120283
0.000958203
0.00341401
0.00357163
0.0047662
0.000299635
0.00648462
0.00855168
0.0086308
0.00720615
0.0124487
0.00545481
0.00117372
0.0022799
0.00203539
4.98716e-05
0.000983182
0.00689804
0.00375477
0.00257016
0.00130218
0.0121375
0.0027632
0.00319362
0.00807365
0.00269398
0.0055731
0.0075945
0.0140219
0.010385
0.00854292
0.00126069
8.62926e-05
0.0015697
0.000313639
0.00296015
0.0023559
0.00520787
0.00137109
0.00294495
0.0111069
0.0112445
0.00084877
0.00584771
0.000521518
0.00114064
0.0102418
0.00432556
0.00507975
0.00643201
0.00485424
0.00843602
8.90707e-05
0.000638935
0.00240321
0.00315801
9.25653e-05
0.00205365
0.000842781
0.00157707
0.00732346
0.000167784
6.89517e-05
0.00081301
0.000953989
0.00467692
0.00244491
0.00253998
0.00706349
0.00537401
0.00293527
0.00326035
0.00796536
0.00427977
0.000744011
0.00301712
0.00419095
0.0023051
0.00301633
0.00836715
0.00209881
0.0100609
0.00563148
0.00435824
0.00155024
0.00499109
0.000313827
0.000103644
0.00511936
6.46998e-05
0.0016796
0.00864271
0.00664187
0.000110211
0.00232364
0.00199583
0.00675266
0.00395738
0.00128238
0.000519474
0.00118877
0.00272477
0.00318972
0.00169923
0.00198398
0.000779376
0.00375517
0.00409143
0.00896268
0.00524731
0.00252743
0.00153555
0.0019213
0.00122355
0.00384874
0.00376839
0.00240157
0.00236646
0.00132084
0.00127643
0.00282281
0.000239521
0.00368646
0.00222549
0.001457
0.000553676
0.000756305
0.000191902
4.68553e-05
0.0140465
0.00566155
0.00674383
0.00272228
0.0044983
0.00566506
0.00446479
0.00134409
0.00326594
0.00264492
0.00946098
0.0137103
0.0056998
0.00778167
0.000200916
0.00382422
0.002624
0.00219511
0.00543644
0.00826488
0.00755785
0.00126094
0.00277799
0.000734615
0.00686953
0.00141255
0.00665757
0.000677595
0.00902932
0.000515816
0.00013573
0.0043065
0.0002072
0.000219597
0.00173239
0.00300409
9.76142e-05
0.00749198
0.000623241
0.0110028
0.00457398
0.00951099
0.00699202
0.00326096
0.0018625
0.00452581
0.000391862
0.00462417
0.00383059
0.0038352
0.00588441
0.00586988
0.00381292
0.00220425
0.00258896
0.00313602
0.00191714
0.00164617
0.0076063
0.00595661
0.0083567
0.00867704
0.00336022
0.00783267
0.00436972
0.0059871
0.00185431
0.00243803
0.00555059
0.00252887
0.0114227
0.0022832
0.00221592
0.0120054
0.00116674
0.00427968
0.00300968
0.00391279
0.000869128
0.0108912
0.00828401
0.00950106
0.0014656
0.00134865
0.00690264
0.00318157
0.0027808
0.00176587
0.000585942
0.0103048
0.00193142
0.00517971
0.00197546
0.00471143
0.0012922
0.00870088
0.00252876
0.00364513
0.00995292
0.000652288
0.00217091
0.000782559
0.000471306
0.00470871
3.75768e-05
0.00193479
0.0034856
0.00309064
0.00141645
0.000667669
0.00510932
0.00852408
0.00918165
0.0015485
0.00111222
0.00223349
0.00574818
0.00559717
0.00193278
0.00121884
0.00496009
0.00158493
0.00429107
0.000527028
0.00275357
0.00114348
0.00466744
0.000496215
0.00678499
0.000752545
0.00464735
0.000632225
0.00251763
0.000358157
0.00144733
5.98002e-05
0.00567142
0.00130271
0.000802162
0.00060037
0.001321
0.00137857
0.00291379
0.000384818
0.0037104
0.00204357
0.00372652
0.00474008
0.00330745
0.00418102
0.000555221
0.00664121
0.000189128
0.000936909
0.00218209
0.00540935
0.000390998
0.00246738
0.002597
0.00737573
0.00873268
0.00831749
0.00667846
0.00167212
0.00478939
0.000701352
0.00250357
0.0013336
0.00715106
0.00165199
0.00509643
0.0111553
0.0021248
0.00696454
0.00434839
0.0010903
0.00391644
0.00734067
0.0106655
0.0062606
0.00502826
0.00511686
0.00549503
0.0024964
0.00106474
0.00453284
0.00302538
0.00639034
0.00182855
0.0044585
0.000938353
0.00378462
0.00601716
0.00105231
0.00240794
0.00815796
0.00309893
0.00304391
0.0111015
0.00721615
0.01007
0.00860231
0.00286188
0.00110821
0.00433283
0.00634171
0.00361004
0.00202179
0.00812412
0.0054514
0.00222823
0.000661236
0.00491848
0.00351045
0.00118719
0.000400956
0.00535887
0.000498602
0.00694736
0.00901488
0.00397565
0.00723315
0.00575132
0.00633442
0.00606601
0.000955778
0.0111506
0.00242546
0.00173145
0.0042599
0.00118202
0.00130064
0.00775091
0.00393093
0.0027495
0.00189908
0.00411966
0.00720633
0.00232054
0.00190624
0.0047248
0.00562191
0.000961074
0.00214582
0.00264009
0.0010452
0.00295943
0.00824772
0.00131408
0.00264344
0.00438486
0.00512271
0.00352483
0.00552826
0.00334109
0.00438849
0.00412597
0.00296471
0.0047128
0.00501051
0.00602688
0.0118485
0.000382577
0.00324666
0.00111368
0.00228624
0.00138964
0.000123311
0.00127971
0.00292119
0.00840789
0.00848389
0.00164798
0.00160698
0.00536096
0.00130454
0.00367263
0.00240022
0.000685555
0.000165946
0.00512286
0.00505924
5.98098e-05
0.000648333
0.00534181
0.00122052
0.00390461
0.00404568
0.000456005
0.00258654
0.000450063
0.00120887
0.00376239
0.00541934
0.00291078
0.000737877
0.00528001
0.000855586
0.00312913
0.00372052
0.00470739
0.00141478
0.00336937
0.00212519
0.000362375
0.00159034
0.00701643
0.00127978
0.00275101
0.00140113
0.00168511
0.00492769
0.00537315
0.000915008
0.00318136
0.00158786
0.00454714
0.00306639
0.00171374
0.000265688
0.00808539
0.00588241
0.0058643
0.00319093
0.00136567
4.34446e-05
0.00179398
0.00325695
0.00330805
0.000706091
0.00642171
0.00221467
0.00120435
0.0052793
0.00594959
0.00897308
0.00581979
0.00300196
0.00413478
0.00487067
0.00436135
0.000335133
0.00655746
0.00030402
2.99062e-05
0.00118832
0.00111197
1.3978e-05
0.00219113
0.00149981
0.00095815
0.00254258
0.000292919
0.00278266
0.000409156
0.00709536
0.000610638
0.00142378
0.00136573
0.00787986
0.00868909
0.00749939
0.00305762
0.00114027
0.00235993
0.00534325
0.00063907
0.000174031
0.00104462
0.00546357
0.00124232
0.00768839
0.00318561
0.00699416
0.00119767
0.00861279
0.00872974
0.00115581
0.00506673
0.00355934
0.00788184
0.00223936
0.00407216
0.000722419
0.00521559
0.0104722
0.00590468
0.00378958
0.000430325
0.00362902
0.00400593
0.00464936
0.00480783
0.00197591
0.00467379
0.00223821
0.00270576
0.000349275
0.000931348
0.00226228
0.0022274
0.00352201
0.00138082
0.000477926
0.00665199
0.00293632
0.00366689
0.000554116
0.000310307
0.00356331
0.00196711
0.00106183
0.000444639
0.000802185
0.00298142
0.00518542
0.0036462
0.00149355
0.00297484
0.00153159
0.0018852
0.00251489
0.0024909
0.00294856
0.00128115
0.000869158
0.00108856
0.00108728
0.00588526
0.00532473
0.00411481
0.00487781
0.00663612
0.0031022
0.00271313
0.0126951
0.00348997
0.00262751
0.00397833
0.00297707
0.00319662
0.00285105
0.00763863
0.00328272
0.00436175
0.00710517
8.49857e-06
0.00425433
0.00156411
0.000465303
0.000428507
0.00349521
0.00764576
0.00234899
0.00154427
0.00274664
0.00263212
0.00319704
0.00208927
0.00802793
0.00479748
0.00154473
0.00593595
0.00386037
0.00550753
0.00522144
0.00747173
0.000421518
0.00181063
0.00388944
0.00254821
0.00714345
0.00190084
0.00449088
0.0012541
0.0047901
0.00106736
0.0023715
0.0053795
0.00199187
0.0107775
0.000749217
0.0037596
0.00486274
0.00247043
0.00256328
0.00053717
0.00100406
0.000181662
0.00189403
0.001437
0.00229669
0.00288396
0.00214538
0.0031922
0.00581465
0.00552076
0.000754802
0.00329501
0.000133217
0.00421922
0.00794321
0.00114328
0.00862616
0.000595096
0.00105954
0.00138597
0.00127495
0.000123214
0.000972754
0.00119547
0.00573661
0.00316483
0.00110084
0.00340495
0.00479969
0.000504531
0.00267964
0.0015344
0.0069765
0.00376622
0.00432721
0.00738742
0.000809265
0.00271733
0.00288145
0.00181379
0.00239551
0.00190383
0.00293209
0.000389314
0.00611808
0.000721284
0.00197146
0.00238589
0.0035322
0.00727518
0.00325049
0.00356721
0.00487442
0.00065636
0.00533247
0.0054514
0.0018365
0.00113547
0.00181361
0.00312708
0.00204773
0.00326285
0.00367113
0.0031342
0.00103766
0.00277586
0.0045954
0.000925077
5.96676e-05
0.00224436
0.00370076
0.00325989
0.00315954
0.00210275
0.00803416
0.000772262
0.00129608
0.00368566
0.00437127
0.00543224
0.00553744
0.00276769
0.00182884
0.00425256
0.00688412
0.00192484
0.00344801
0.00107479
6.93257e-05
0.000988293
0.00887164
0.00438499
0.00184397
0.00348489
0.00164747
0.00210534
0.00420537
0.00485384
0.00543211
0.00388036
0.000782788
0.0015779
0.00172634
0.0016963
0.00132303
0.00439083
0.00152899
0.00163685
0.0014411
0.00121924
0.000239182
0.00184699
0.00357871
0.00134027
0.000871649
0.00225092
0.00270747
0.00100033
0.0047942
0.00146404
0.00171274
0.000895493
0.00438565
0.00614693
0.00133377
0.00208481
0.00584293
0.00182366
0.000606483
0.00531478
0.00153228
0.0017742
0.000198696
0.000827226
0.00382071
0.00117825
0.00142927
0.00378183
0.00342546
0.00136005
0.00843842
4.56092e-06
0.00303118
0.000388004
0.00198824
0.00579322
0.00435217
0.00893568
0.00326988
0.000932727
0.000726297
0.00742585
0.000762949
0.00332365
0.00230099
0.00221015
0.00385393
0.000633952
0.00204021
0.00211608
0.00548815
0.00763362
0.00219812
0.00293343
0.000753177
0.000973605
0.00448435
0.000290503
0.00268939
0.00319033
0.00382321
0.00304848
0.00621531
0.00144972
0.0005331
0.00589975
0.0012883
0.00376125
0.000606725
0.00235832
0.000720584
0.00118465
0.00030767
0.0031296
0.000540739
0.000280323
0.00165461
0.0010772
0.0037483
0.000406585
0.00139639
0.000625057
0.000104073
0.00552625
0.0020435
0.00704618
0.00360853
0.00433586
0.00339818
0.00302122
0.00017414
0.00183137
0.00314616
0.000342155
0.00126389
0.00557976
0.0071128
0.00460034
0.00460717
0.00619116
0.00127934
0.00108119
0.000464888
0.00246
0.0011877
0.0045514
0.00156314
0.00335619
0.00351302
0.00187912
0.00518008
0.00260565
0.00587721
0.0055893
0.00383797
0.00766733
0.0055892
0.00108817
0.000901097
4.3879e-05
0.00162751