/*--------------------------------*- C++ -*----------------------------------*\
| =========                 |                                                 |
| \\      /  F ield         | OpenFOAM: The Open Source CFD Toolbox           |
|  \\    /   O peration     | Version:  2212                                  |
|   \\  /    A nd           | Website:  www.openfoam.com                      |
|    \\/     M anipulation  |                                                 |
\*---------------------------------------------------------------------------*/
FoamFile
{
    version     2.0;
    format      ascii;
    arch        "LSB;label=32;scalar=64";
    class       volScalarField;
    location    "0";
    object      stateMean;
}
// * * * * * * * * * * * * * * * * * * * * * * * * * * * * * * * * * * * * * //

dimensions      [0 0 0 1 0 0 0];

internalField   nonuniform List<scalar> 
3200
(
337.86
335.395
336.417
333.99
335.926
335.352
336.776
335.681
337.387
337.185
339.527
340.218
337.54
337.642
337.926
337.871
335.126
337.14
338.138
339.572
333.806
329.271
331.357
329.556
331.094
332.348
333.388
332.105
331.227
334.982
334.622
333.758
333.148
331.063
332.242
331.447
330.818
331.746
331.237
332.527
326.367
327.271
326.402
325.738
329.181
324.928
326.203
328.745
327.482
329.779
328.069
327.965
328.389
330.659
326.965
328.274
326.536
326.319
327.795
329.127
320.751
320.887
322.537
320.101
322.184
323.308
322.245
322.301
323.842
324.669
321.664
323.911
323.456
322.882
323.459
321.423
322.016
323.637
321.521
322.635
314.472
316.967
317.282
315.401
316.935
318.504
318.902
316.869
319.894
318.885
317.875
319.773
317.047
319.13
316.559
317.51
318.477
317.606
319.867
317.109
310.495
312.371
311.714
312.85
310.972
311.92
310.999
311.884
314.977
313.168
312.746
312.637
312.163
312.572
311.81
313.842
312.051
312.05
315.209
313.084
308.141
305.817
306.411
307.769
306.576
307.347
306.003
306.899
307.929
303.795
309.837
310.029
310.147
306.024
308.383
305.419
306.853
310.069
307.168
306.552
303.259
302.339
301.666
302.883
301.884
302.062
300.939
302.573
301.705
301.611
302.757
302.729
302.256
304.413
305.211
303.191
303.983
303.089
300.771
304.038
336.213
340.001
335.626
336.459
335.913
339.076
337.662
338.526
337.828
339.12
339.064
339.928
341.171
338.634
338.697
338.657
338.733
336.535
337.315
336.733
333.476
332.764
330.624
333.251
331.526
334.672
331.265
335.365
333.253
336.022
336.364
334.704
335.365
334.777
334.439
332.586
333.276
330.045
332.213
333.073
327.001
327.848
325.191
327.142
327.317
325.88
326.43
328.329
329.845
327.245
329.806
329.161
327.881
328.12
329.801
326.191
326.878
327.502
326.961
329.198
321.2
322.787
320.981
321.353
321.222
321.936
322.97
324.785
323.547
322.357
323.91
324.639
322.117
323.892
323.527
323.303
321.765
321.102
322.612
323.574
317.597
317.812
316.612
316.018
317.336
317.03
318.801
318.956
317.655
316.092
319.125
320.245
316.545
316.2
318.895
315.296
314.627
317.646
318.133
319.466
313.841
310.753
311.405
312.018
312.816
312.617
313.513
314.735
313.06
314.771
311.398
314.902
311.745
313.901
313.227
312.381
315.356
311.741
311.4
313.148
308.121
306.819
309.743
307.752
307.239
308.772
309.589
309.38
307.186
306.163
308.701
307.479
307.766
307.802
308.267
305.317
307.002
306.302
306.253
308.068
301.969
303.244
302.099
303.823
301.045
302.316
302.517
302.635
303.565
301.769
301.11
304.672
301.588
301.157
303.321
303.003
303.382
304.796
302.657
301.717
336.957
338.532
336.224
336.138
336.255
337.322
337.458
337.302
337.498
339.165
338.145
337.763
340.772
337.972
338.333
336.267
337.301
336.868
337.78
340.595
332.419
335.499
331.669
332.033
332.23
333.573
335.084
333.941
334.235
333.508
335.046
337.847
332.006
332.83
332.214
333.788
331.503
331.278
332.024
334.446
326.905
326.951
326.235
326.122
328.198
327.342
326.274
327.727
329.232
328.363
328.991
329.468
330.769
328.504
327.974
328.117
325.747
327.222
326.786
328.829
322.391
322.657
319.307
323.195
321.808
321.718
323.486
322.378
324.308
324.285
323.894
327.602
324.227
320.715
324.165
322.241
323.533
322.537
323.561
322.612
318.505
318.563
318.807
315.057
316.482
316.327
320.295
318.19
319.004
320.518
319.596
317.52
317.138
318.072
316.597
318.276
318.578
320.899
317.468
318.519
312.07
311.739
311.796
312.772
310.36
312.652
312.148
312.373
313.951
315.084
313.06
314.579
311.746
313.566
312.947
313.713
311.936
312.732
313.698
313.164
308.065
306.144
305.775
306.455
307.988
306.602
306.972
308.292
308.748
307.439
306.986
309.841
306.844
307.982
308.787
307.944
306.337
307.981
307.614
306.762
301.573
302.938
302.989
303.975
303.748
302.756
302.837
302.559
299.593
303.698
303.59
301.218
304.212
302.683
305.098
302.573
302.89
302.11
302.907
303.636
339.383
337.602
339.301
335.849
337.71
338.13
338.868
338.612
341.75
341.584
340.692
342.703
339.477
339.43
340.016
337.879
338.404
338.87
338.633
339.284
331.75
333.2
331.532
334.334
333.438
335.231
335.794
335.59
334.727
336.356
336.683
334.891
336.33
334.774
335.113
333.235
333.464
329.741
332.661
332.764
328.245
326.552
327.312
327.066
328.529
329.765
327.647
330.251
328.453
329.21
332.212
331.978
329.068
328.834
330.506
331.842
328.359
326.045
326.151
328.786
323.924
324.362
322.703
324.036
323.072
323.385
323.273
325.337
324.898
323.182
326.876
324.844
323.584
324.298
321.83
323.844
322.757
324.05
323.289
323.128
317.638
315.42
318.029
316.76
320.683
315.687
316.945
320.03
316.736
318.618
320.262
319.734
320.567
318.639
318.191
317.542
320.353
318.899
319.077
320.179
313.416
313.67
312.133
311.711
310.998
312.201
311.01
313.907
313.517
314.446
313.092
312.854
313.137
312.996
313.551
313.207
314.298
312.271
315.114
314.454
307.653
308.096
306.163
306.541
308.301
307.337
307.02
308.555
307.736
307.191
307.152
307.917
306.914
309.599
309.331
308.794
309.287
306.33
309.068
305.916
301.719
302.953
303.729
303.44
301.022
303.061
303.592
301.477
304.714
303.568
301.13
304.885
303.383
302.238
302.346
304.245
300.789
302.909
303.876
301.457
340.553
338.212
338.304
337.125
340.231
340.857
340.086
339.688
339.715
341.684
339.731
341.436
343.905
341.019
342.241
340.412
339.827
337.205
337.579
340.232
331.271
332.811
333.471
331.543
331.364
335.817
333.375
334.145
336.049
338.13
334.68
336.271
335.886
334.364
334.47
334.121
331.17
334.739
334.703
335.344
328.395
328.864
328.377
327.453
327.422
328.938
329.326
329.39
330.094
330.216
331.012
331.646
331.717
331.286
329.835
327.965
328.571
328.588
327.334
332.159
325.19
321.89
322.617
323.152
323.944
322.634
324.354
322.142
324.431
324.076
325.366
325.755
326.753
324.839
322.951
323.239
323.033
322.59
325.069
324.24
319.298
317.787
319.78
318.29
317.552
318.887
318.246
319.203
320.693
321.522
319.589
319.856
320.664
318.473
321.235
319.355
315.429
318.233
318.855
319.652
316.069
313.415
313.792
314.414
312.703
312.124
311.545
313.36
313.716
313.324
312.299
314.133
314.545
312.631
312.003
315.361
314.727
315.188
312.704
313.867
309.189
307.86
307.032
308.587
308.723
308.64
309.204
307.132
309.211
308.771
308.741
310.266
310.347
308.633
306.809
307.083
307.424
309.988
307.497
307.074
302.793
302.912
301.616
302.364
305.152
303.155
301.746
302.371
302.72
302.469
303.636
302.473
301.888
304.28
301.597
299.085
301.729
302.623
304.757
302.313
340.073
339.717
339.205
338.892
340.122
340.12
341.691
339.709
342.14
341.997
344.05
343.835
344.36
343.541
340.153
341.921
340.088
341.849
339.576
341.48
336.534
333.588
333.132
334.807
336.037
336.166
334.024
336.901
338.225
337.308
336.76
334.52
337.18
335.646
335.932
334.027
334.846
333.182
334.627
335.363
327.576
330.411
328.543
328.636
331.017
327.784
329.23
331.205
333.963
333.766
332.563
333.148
329.336
329.199
328.574
331.834
328.876
329.599
329.386
332.067
325.842
324.865
325.4
324.417
324.556
326.487
325.73
325.617
326.66
325.933
325.53
324.926
325.192
325.537
325.548
323.281
323.111
326.287
325.12
325.134
319.297
320.435
320.221
318.736
317.435
319.903
320.561
318.008
319.635
321.88
320.16
320.299
320.7
318.75
318.695
317.337
319.055
318.322
319.145
319.377
313.544
311.876
313.127
314.414
312.98
314.36
313.941
313.611
314.063
315.528
312.638
316.397
313.977
315.734
313.442
313.364
316.607
313.342
313.031
311.182
306.764
308.638
307.479
307.494
307.344
306.683
306.904
309.559
308.059
309.187
308.985
309.055
308.618
306.323
306.588
307.445
306.841
306.546
306.512
310.504
302.247
299.839
304.461
303.305
303.323
302.357
299.275
303.975
305.739
304.658
302.853
301.423
302.528
300.108
303.82
303.51
301.893
301.795
304.207
302.282
342.861
339.454
339.764
339.241
341.542
340.731
344.098
341.783
344.291
343.379
345.914
343.917
344.922
342.797
340.618
342.78
340.186
341.064
341.476
343.922
336.443
335.945
333.956
334.087
334.615
335.491
337.451
336.676
339.081
338.038
339.422
337.34
338.864
339.364
337.27
336.796
336.162
334.293
336.431
336.45
333.051
327.889
329.726
328.517
329.948
329.513
330.91
331.041
331.025
331.965
333.249
332.694
334.009
332.508
332.128
330.764
330.618
332.857
330.751
329.643
324.259
327.252
323.487
324.713
323.82
324.087
326.519
325.544
326.146
325.999
327.278
326.784
327.836
328.56
324.541
324.822
324.847
327.294
323.24
326.644
319.291
319.575
317.214
317.997
320.985
320.522
321.758
320.282
321.11
322.086
319.89
322.311
322.991
321.219
319.935
317.413
319.739
318.92
319.369
321.906
313.873
314.172
312.405
313.758
311.724
314.266
315.373
316.092
314.412
313.435
313.727
313.72
316.695
314.026
314.235
310.934
312.478
314.838
314.275
315.424
307.558
307.419
307.297
308.349
306.892
309.843
309.352
307.282
309.527
310.588
310.824
308.665
308.368
308.583
309.98
306.158
311.89
308.948
306.807
308.172
302.029
304.546
302.107
303.245
300.703
303.468
302.586
303.388
302.56
303.308
303.267
301.471
303.78
300.411
302.636
302.843
302.224
302.355
300.479
303.504
343.724
341.314
341.76
343.412
341.544
342.498
344.337
345.279
346.172
346.326
345.237
347.204
345.602
345.609
343.049
341.502
343.555
338.686
341.486
342.088
338.703
335.275
334.041
336.663
337.392
336.996
338.735
337.815
338.106
338.467
337.712
341.652
338.647
335.814
336.995
339.454
336.644
336.913
334.894
338.449
331.663
330.726
329.337
329.504
330.07
331.098
330.724
333.164
335.204
331.793
333.417
334.749
333.236
335.015
334.351
331.42
331.46
331.299
332.666
330.421
326.069
324.116
324.456
324.372
325.687
326.154
325.473
325.627
328.211
328.885
328.411
328.207
327.115
327.282
325.261
325.55
325.399
324.66
325.088
323.705
319.077
319.625
319.582
319.183
319.614
320.93
320.653
320.351
320.083
321.157
321.589
320.281
323.614
320.523
323.729
319.516
319.429
319.51
322.362
321.724
313.274
313.701
312.415
313.827
314.247
314.941
313.046
313.994
316.541
314.577
313.426
315.905
314.803
315.565
315.732
315.137
314.149
314.372
315.161
314.107
304.844
307.934
309.636
307.318
308.259
306.321
306.604
308.703
308.92
310.263
308.975
308.438
308.179
308.284
311.522
308.297
309.055
306.065
308.777
309.388
301.418
302.702
303.661
305.156
303.223
303.289
302.6
303.569
304.606
303.111
304.504
303.087
302.796
304.184
303.618
302.591
301.755
301.405
303.015
305.456
344.416
342.742
342.899
344.117
342.514
342.381
346.476
344.416
345.225
347.497
347.783
347.679
346.675
344.702
344.625
345.723
342.213
345.325
342.303
345.106
337.642
337.129
336.843
338.003
335.521
339.364
337.752
339.821
340.499
339.816
341.355
342.293
342.369
340.29
339.293
338.724
337.384
337.746
336.939
338.702
333.859
334.255
331.688
329.476
332.788
333.207
330.442
334.036
334.751
334.012
333.34
335.591
333.712
334.367
332.488
332.376
331.619
331.812
332.452
331.196
327.1
327.69
327.219
326.939
324.067
324.783
327.019
326.532
328.447
327.568
327.129
328.063
326.766
328.738
327.496
326.588
325.547
326.725
327.3
325.094
320.388
320.022
318.705
319.761
321.63
323.537
319.729
322.07
323.687
323.153
321.48
320.532
322.044
321.016
320.613
322.523
321.398
322.623
320.542
321.044
314.488
317.648
316.3
316.394
314.455
314.171
316.92
315.797
314.46
316.116
316.543
317.316
313.431
316.417
314.327
315.596
314.419
315.115
314.2
313.879
309.397
309.033
309.723
308.554
309.692
307.156
310.106
307.88
310.077
308.965
308.933
308.954
308.643
309.157
309.512
305.055
309.213
309.37
309.176
310.053
299.883
303.751
302.548
304.626
301.862
303.861
303.962
302.858
302.97
303.356
302.799
302.63
303.383
304.566
301.356
302.787
303.292
303.043
302.288
304.247
345.776
344.291
345.024
345.008
346.012
344.327
346.9
345.259
347.527
346.998
348.813
350.007
346.592
347.036
345.694
345.936
345.728
344.45
345.022
346.454
340.06
338.032
338.502
338.063
338.021
339.807
339.01
339.83
340.448
339.378
340.39
343.691
339.804
340.335
338.725
340.057
338.571
339.095
337.076
341.724
333.167
334.443
333.812
331.983
332.59
333.312
335.117
331.927
336.568
334.369
337.229
336.491
334.219
334.248
333.449
334.826
334.981
334
331.96
335.07
327.696
327.817
326.056
325.932
325.244
326.521
329.134
325.025
327.871
329.663
327.681
329.058
327.316
326.886
328.982
325.905
327.117
327.926
327.154
326.866
324.814
321.502
321.586
321.188
322.341
320.302
323.98
321.225
322.982
323.509
322.791
322.432
322.657
322.509
323.646
321.181
318.317
320.939
322.428
321.087
314.802
315.093
314.942
315.266
314.748
314.488
315.42
316.017
316.428
317.98
316.237
317.955
314.772
315.636
313.785
314.088
313.372
316.159
315.046
315.74
308.133
307.167
308.387
307.568
307.926
309.11
309.356
311.397
309.744
310.061
309.461
310.968
310.183
308.213
309.264
310.553
308.717
310.381
309.671
310.25
302.526
302.381
303.194
302.163
302.719
305.282
301.975
304.106
303.842
302.418
304.083
302.887
302.508
305.163
302.732
304.551
303.138
303.236
303.1
303.02
347.392
346.811
346.008
347.152
347.013
343.884
346.277
347.766
348.585
348.412
348.448
349.283
349.393
348.377
348.496
345.389
347.317
347.83
345.577
348.596
342.019
337.948
343.16
339.341
341.026
339.889
340.804
339.947
343.809
340.094
340.042
342.709
340.864
339.279
340.043
342.92
339.256
339.271
338.227
341.328
334.335
334.743
334.32
335.586
333.845
334.161
333.51
334.224
336.661
335.085
335.318
336.949
335.188
335.831
336.821
333.594
335.285
336.584
333.546
337.332
327.999
327.228
328.323
327.287
328.11
326.721
329.507
328.581
331.378
331.229
330.454
329.977
330.445
329.053
327.833
329.357
328.168
328.89
329.965
327.95
323.396
321.72
321.468
322.748
321.933
324.31
323.8
324.966
324.956
325.055
323.203
324.837
321.182
322.352
322.222
320.295
322.262
322.158
321.276
320.748
316.174
315.312
317.494
318.42
316.237
315.132
316.892
316.574
314.849
316.147
315.958
316.624
318.139
316.521
318.175
315.755
314.439
314.907
316.375
317.707
309.779
309.627
309.542
309.381
310.139
309.073
308.99
310.429
309.279
309.878
308.782
307.913
310.385
310.014
311.286
308.832
311.191
309.729
309.222
308.322
303.267
304.115
303.886
302.998
303.206
304.924
302.073
301.692
302.561
302.863
305.162
302.475
302.463
304.579
305.282
303.82
303.744
300.634
300.801
302.027
346.48
348.092
346.171
349.214
348.487
347.886
348.238
349.652
350.26
351.85
351.22
349.879
350.92
348.824
349.965
346.607
346.918
349.425
347.697
348.117
342.278
341.3
341.975
342.902
339.037
342.241
341.673
341.95
345.019
344.955
345.98
345.752
341.812
340.098
342.209
342.309
340.462
342.236
342.624
342.4
335.906
337.863
332.15
334.642
333.762
334.103
334.997
335.532
337.649
336.664
334.543
335.773
339.271
335.94
335.853
337.226
335.15
335.833
336.243
338.179
330.886
330.449
327.452
328.064
328.832
328.426
329.691
329.646
330.694
328.586
330.006
332.635
332.569
328.997
330.45
328.488
328.466
331.223
329.067
329.149
323.492
323.114
324.433
321.867
321.865
323.01
321.364
322.472
321.925
322.903
323.14
320.225
322.448
322.404
322.498
322.378
323.401
322.506
322.37
323.695
317.029
314.498
316.572
318.183
314.442
316.147
316.97
317.427
316.892
317.148
318.84
316.827
319.282
317.797
314.535
316.284
317.245
315.444
315.457
316.948
309.2
309.793
312.019
311.476
309.462
310.286
309.012
311.772
310.943
310.133
309.575
310.085
310.525
308.642
309.041
310.11
309.18
310.507
310.539
311.991
301.502
303.876
302.669
303.741
302.814
304.375
302.086
303.975
303.977
303.666
302.878
304.115
303.32
302.111
303.883
302.743
302.991
303.363
303.168
303.078
351.864
349.228
349.94
348.892
346.72
346.633
350.45
348.654
350.428
350.296
352.677
354.076
351.113
351.607
348.538
349.619
348.858
348.359
349.15
349.858
343.447
341.532
342.338
341.943
344.338
342.75
344.793
342.481
345.951
343.106
342.976
344.332
342.642
342.438
342.86
343.016
341.725
343.948
341.315
344.622
336.222
338.067
337.468
336.475
336.257
337.388
335.944
337.8
335.077
337.717
338.407
338.339
337.527
336.817
336.738
336.685
336.024
335.677
337.429
336.685
331.204
331.464
329.916
331.597
327.787
331.39
330.2
330.531
331.656
330.71
333.644
329.072
330.458
333.546
329.034
330.635
330.01
330.098
328.899
332.036
324.854
325.365
322.93
323.054
325.007
323.956
322.163
323.74
323.434
326.616
322.661
321.571
322.531
321.539
322.512
325.587
321.803
323.632
325.511
322.395
316.563
316.208
316.22
317.676
316.313
317.02
315.4
315.602
317.082
316.874
318.281
319.333
319.487
316.993
316.056
315.595
314.369
317.84
316.572
316.262
311.082
310.087
310.991
309.569
308.948
310.219
311.369
310.122
312.104
310.251
311.459
310.197
309.188
309.811
310.313
309.782
307.975
309.259
309.844
309.733
303.603
302.8
302.356
303.147
304.412
302.688
302.197
304.781
304.357
302.092
303.528
305.369
303.286
303.043
303.97
304.928
303.145
302.492
302.431
305.438
351.791
351.9
351.638
350.209
351.612
349.981
349.606
351.158
353.346
351.492
352.7
354.751
351.435
352.924
351.75
349.554
350.993
351.869
352.719
350.929
344.119
344.363
344.76
342.295
343.789
342.117
344.937
346.276
344.832
345.804
344.592
345.506
346.147
343.535
344.503
346.225
344.215
343.92
346.413
344.868
339.369
339.054
337.349
336.993
338.309
339.2
338.467
338.084
340.251
339.405
338.317
337.732
339.062
338.434
336.662
336.714
334.816
336.554
338.497
339.015
330.831
332.048
331.742
332.127
332.227
330.082
334.238
329.875
331.337
332.219
330.419
330.334
333.24
329.253
331.306
330.851
328.676
332.222
330.428
330.149
324.538
324.938
323.573
322.717
324.411
324.031
322.854
326.581
323.552
324.87
325.434
325.638
325.051
322.022
322.612
322.137
324.745
324.22
324.644
324.63
314.562
320.297
316.768
315.726
316.505
316.23
316.599
317.149
316.752
318.111
319.851
319.849
317.633
316.531
318.654
317.271
315.591
315.887
316.329
316.416
311.49
311.516
310.028
310.274
308.478
310.573
311.456
309.032
310.174
309.528
310.471
309.941
311.454
311.926
311.097
310.364
311.71
310.274
308.978
311.055
304.749
302.907
302.335
304.023
303.289
303.902
305.565
303.838
304.295
303.89
303.976
301.965
301.82
303.714
302.454
302.917
304.758
304.287
302.816
303.24
353.478
352.939
353.217
352.57
352.213
351.98
352.858
353.56
353.708
352.361
354.874
353.323
352.836
354.086
354.089
354.889
349.404
352.212
352.326
352.351
345.547
344.357
346.745
344.844
344.994
345.622
345.796
345.568
346.443
345.226
346.076
346.565
345.674
346.373
345.353
347.432
344.528
344.976
343.772
346.757
340.316
340.077
338.785
337.581
338.972
340.175
338.32
338.613
338.414
340.668
339.238
341.373
339.751
340.904
338.772
341.087
335.016
337.362
339.256
338.585
333.273
331.538
332.313
331.379
333.038
334.939
329.648
332.975
331.939
333.041
333.166
330.253
330.123
332.261
329.919
330.568
332.036
330.849
331.105
329.919
324.626
325.146
323.687
324.426
322.245
325.479
323.444
324.901
324.681
323.656
325.452
325.127
324.577
324.374
325.494
322.721
325.453
324.619
324.969
324.401
316.51
317.977
316.482
318.305
317.87
317.827
317.282
318.035
319.604
319.448
316.448
319.284
319.798
316.643
316.689
321.493
316.261
316.438
318.441
318.052
311.278
309.444
308.013
309.424
309.145
312.759
310.601
309.314
311.148
310.53
310.808
311.748
313.011
311.328
311.032
309.646
311.26
311.376
309.681
307.795
304.906
302.995
301.682
302.33
301.849
305.124
301.286
303.695
304.126
304.761
304.354
301.407
302.99
304.917
303.158
304.975
303.178
302.763
301.832
304.054
356.475
353.152
354.474
355.131
354.543
354.813
353.923
353.923
354.46
353.785
353.947
355.21
355.301
354.873
355.036
351.613
355.363
352.879
354.051
352.721
347.268
348.738
345.817
349.431
346.46
346.504
346.57
346.753
347.34
347.687
347.764
349.289
348.295
346.669
348.053
348.33
346.618
345.285
346.521
348.222
340.154
340.495
341.722
339.686
338.676
340.753
340.542
340.862
339.485
339.18
340.309
342.214
340.292
340.595
340.585
338.399
336.942
340.319
340.237
340.53
331.672
333.781
333.976
332.934
332.1
332.018
333.786
332.163
331.829
331.729
331.907
332.57
333.769
331.216
332.929
332.458
333.07
333.394
333.093
332.939
325.54
327.561
325.32
324.772
324.114
324.001
323.753
323.796
326.554
326.277
324.296
323.411
326.226
326.643
325.774
325.29
325.514
322.185
326.375
324.258
318.896
318.379
317.271
316.691
316.57
319.921
317.028
318.069
318.859
318.927
317.837
318.778
316.92
318.75
317.672
318.572
317.64
317.864
318.442
318.926
311.112
310.464
311.486
311.681
311.201
309.447
311.435
311.546
310.757
312.413
312.961
311.451
311.661
312.797
311.505
310.701
309.187
310.31
311.286
310.634
303.336
302.44
303.259
304.069
302.504
304.708
303.269
301.13
303.7
302.784
303.823
304.305
305.452
302.36
300.955
302.659
303.352
303.838
305.854
303.355
353.636
355.829
356.034
354.121
355.498
355.212
356.878
354.317
353.656
355.647
355.384
356.644
356.619
354.527
355.835
354.767
354.357
353.891
356.094
357.02
348.169
347.646
345.982
347.796
347.136
348.421
347.971
349.174
349.426
349.167
347.968
348.824
348.825
349.371
348.257
347.141
348.387
348.521
347.614
347.701
342.328
341.281
338.357
342.165
339.627
340.103
342.431
341.45
340.96
340.55
341.508
341.154
339.603
338.972
339.693
339.534
338.824
340.322
340.217
340.605
333.994
332.889
334.944
333.05
332.591
332.667
334.58
335.771
333.233
336.1
336.004
335.386
331.48
332.085
334.203
333.41
333.586
333.969
333.472
333.325
329.072
326.981
326.342
328.355
326.233
327.013
325.658
326.284
324.835
326.142
326.156
326.212
325.666
326.653
326.304
327.11
325.471
325.413
324.897
325.549
319.747
319.846
318.957
318.904
319.891
318.826
319.066
318.879
317.875
317.347
319.488
319.154
318.057
315.959
318.321
320.279
320.187
319.178
318.158
320.732
310.922
310.544
311.357
311.413
311.196
312.382
311.558
311.12
311.597
310.97
310.629
311.746
312.37
311.727
312.862
312.307
311.726
311.575
311.724
311.483
303.543
305.545
305.667
305.474
304.617
306.114
303.958
303.064
302.785
303.592
302.925
303.715
304.471
304.149
303.05
306.423
303.569
305.547
302.683
304.301
357.675
358.799
359.19
353.891
354.379
358.159
356.229
357.29
357.32
357.337
356.742
356.208
356.087
359.352
355.558
353.995
355.004
357.744
356.28
357.027
350.537
350.535
349.386
347.623
349.031
346.197
348.445
350.534
349.201
349.904
349.824
351.344
352.932
348.423
347.426
350.07
348.271
349.005
347.781
351.077
341.234
341.618
342.267
340.906
343.17
340.303
341.948
339.689
340.886
342.71
341.68
342.748
341.178
342.672
343.22
342.385
341.405
340.565
341.601
341.802
334.916
335.191
333.538
334.611
334.481
334.888
333.642
335.06
334.107
335.908
334.847
335.089
334.498
332.316
334.356
334.591
333.728
333.339
334.951
335.939
325.943
327.093
325.764
324.817
326.09
324.556
326.706
326.313
324.378
326.025
325.327
328.466
324.877
325.779
327.004
324.823
328.396
325.457
327.102
325.272
318.709
318.481
320.75
319.98
320.312
319.251
317.481
319.267
320.108
319.923
318.546
319.663
320.549
319.07
316.301
318.416
317.158
318.235
318.293
318.761
310.691
310.471
309.89
313.05
311.003
310.875
311.185
312.287
312.149
311.084
313.286
311.874
311.229
311.191
308.211
309.719
311.756
310.811
312.132
311.508
304.923
302.545
305.054
303.344
305.021
302.805
304.552
305.09
301.508
303.059
303.717
305.857
303.511
303.502
303.022
305.065
304.028
304.024
304.809
304.081
361.242
358.5
360.274
359.575
358.737
358.279
357.377
357.958
356.736
355.133
358.662
356.311
358.36
358.023
356.947
358.327
357.962
359.067
359.478
361.034
351.261
351.732
349.712
351.55
350.457
352.042
349.455
352.164
350.003
352.32
352.073
349.631
352.736
348.088
352.224
349.657
351.265
346.278
351.493
352.753
343.928
344.184
343.125
342.318
341.313
341.331
341.527
342.912
342.62
343.084
341.824
342.32
342.023
340.344
343.564
344.058
341.44
343.227
343.614
342.651
336.555
333.329
333.267
336.37
334.711
334.788
336.052
334.508
333.6
335.578
335.056
335.556
333.133
335.098
336.589
333.227
333.674
333.988
333.869
336.762
327.884
327.768
326.931
328.178
326.294
326.249
326.645
326.533
327.567
326.767
328.111
324.984
325.492
326.538
325.854
329.17
327.715
325.919
326.211
329.149
319.003
321.183
319.373
320.125
318.597
318.642
319.938
321.28
319.137
319.795
321.213
319.439
319.201
318.52
317.798
318.535
318.193
318.657
318.76
318.958
311.56
310.934
312.907
311.916
312.36
311.598
312.582
312.422
315.166
313.087
310.933
311.364
313.271
311.232
311.272
310.688
310.688
311.699
312.937
311.614
302.597
302.923
304.919
302.887
303.77
302.109
305.327
305.293
304.041
303.005
303.755
301.972
303.916
304.765
303.568
304.553
302.621
305.064
303.644
303.646
358.738
362.766
358.852
359.116
357.108
359.081
360.201
357.642
358.628
359.897
358.2
357.319
358.332
358.972
357.417
358.036
358.235
358.779
359.193
359.2
351.525
350.061
351.081
352.517
350.696
352.429
350.583
349.882
349.274
352.367
349.737
349.225
349.512
350.067
349.786
352.144
349.357
349.21
349.827
351.136
344.728
344.587
343.144
342.108
342.9
343.924
341.143
342.388
344.574
343.402
345.571
343.253
343.885
343.493
344.117
342.115
342.395
343.773
343.131
342.06
337.702
334.872
333.931
337.506
335.559
334.736
332.636
336.255
335.137
335.497
337.184
336.288
336.278
334.964
333.395
332.136
332.336
335.162
337.462
334.557
328.286
326.583
328.104
328.005
324.959
326.707
326.719
328.226
326.977
328.252
327.769
326.123
328.012
326.438
327.943
327.288
323.647
329.505
327.306
327.995
318.453
321.499
321.14
318.965
320.488
318.616
320.227
319.081
321.789
317.447
319.144
318.668
319.933
317.926
317.886
319.862
318.427
321.496
320.375
319.554
311.207
309.79
311.826
312.421
312.592
312.085
312.126
310.807
310.151
309.96
310.144
313.934
313.188
310.005
312.479
312.779
308.624
312.489
311.524
313.429
304.231
303.503
303.7
306.545
302.05
304.619
302.954
302.413
301.563
304.8
303.658
302.67
306.137
302.916
302.468
306.411
303.299
303.689
303.871
304.765
)
;

boundaryField
{
    hotSide
    {
        type            fixedGradient;
        gradient        nonuniform List<scalar> 
400
(
321.511
322.87
325.591
329.677
335.133
341.965
350.181
359.788
370.794
383.208
397.037
412.289
428.971
447.088
466.647
487.651
510.105
534.011
559.372
586.191
323.738
325.08
327.767
331.802
337.194
343.949
352.078
361.591
372.498
384.81
398.537
413.687
430.268
448.289
467.755
488.672
511.043
534.872
560.161
586.913
326.149
327.47
330.116
334.091
339.406
346.071
354.099
363.503
374.296
386.491
400.101
415.136
431.606
449.52
468.885
489.706
511.988
535.735
560.948
587.63
328.704
330
332.597
336.503
341.73
348.292
356.205
365.485
376.15
388.215
401.695
416.604
432.954
450.753
470.009
490.73
512.919
536.579
561.714
588.325
331.33
332.599
335.142
338.97
344.099
350.546
358.332
367.477
378.003
389.928
403.271
418.047
434.27
451.949
471.095
491.712
513.807
537.382
562.439
588.978
333.918
335.158
337.643
341.389
346.414
352.74
360.392
369.397
379.779
391.562
404.765
419.407
435.503
453.065
472.101
492.618
514.622
538.114
563.096
589.569
336.321
337.531
339.959
343.622
348.544
354.751
362.274
371.142
381.385
393.031
406.101
420.618
436.595
454.047
472.983
493.409
515.33
538.747
563.663
590.076
338.36
339.543
341.92
345.509
350.339
356.44
363.847
372.595
382.718
394.244
407.2
421.608
437.485
454.844
473.695
494.045
515.897
539.253
564.114
590.478
339.852
341.015
343.352
346.885
351.645
357.665
364.985
373.643
383.675
395.113
407.984
422.312
438.116
455.407
474.197
494.491
516.294
539.606
564.428
590.758
340.643
341.795
344.11
347.613
352.334
358.311
365.584
374.193
384.176
395.567
408.393
422.679
438.443
455.699
474.456
494.722
516.498
539.788
564.589
590.901
340.643
341.795
344.11
347.613
352.334
358.311
365.584
374.193
384.176
395.567
408.393
422.679
438.443
455.699
474.456
494.722
516.498
539.788
564.589
590.901
339.852
341.015
343.352
346.885
351.645
357.665
364.985
373.643
383.675
395.113
407.984
422.312
438.116
455.407
474.197
494.491
516.294
539.606
564.428
590.758
338.36
339.543
341.92
345.509
350.339
356.44
363.847
372.595
382.718
394.244
407.2
421.608
437.485
454.844
473.695
494.045
515.897
539.253
564.114
590.478
336.321
337.531
339.959
343.622
348.544
354.751
362.274
371.142
381.385
393.031
406.101
420.618
436.595
454.047
472.983
493.409
515.33
538.747
563.663
590.076
333.918
335.158
337.643
341.389
346.414
352.74
360.392
369.397
379.779
391.562
404.765
419.407
435.503
453.065
472.101
492.618
514.622
538.114
563.096
589.569
331.33
332.599
335.142
338.97
344.099
350.546
358.332
367.477
378.003
389.928
403.271
418.047
434.27
451.949
471.095
491.712
513.807
537.382
562.439
588.978
328.704
330
332.597
336.503
341.73
348.292
356.205
365.485
376.15
388.215
401.695
416.604
432.954
450.753
470.009
490.73
512.919
536.579
561.714
588.325
326.149
327.47
330.116
334.091
339.406
346.071
354.099
363.503
374.296
386.491
400.101
415.136
431.606
449.52
468.885
489.706
511.988
535.735
560.948
587.63
323.738
325.08
327.767
331.802
337.194
343.949
352.078
361.591
372.498
384.81
398.537
413.687
430.268
448.289
467.755
488.672
511.043
534.872
560.161
586.913
321.511
322.87
325.591
329.677
335.133
341.965
350.181
359.788
370.794
383.208
397.037
412.289
428.971
447.088
466.647
487.651
510.105
534.011
559.372
586.191
)
;
    }
    coldSide
    {
        type            mixed;
        refValue        uniform 300;
        refGradient     uniform 0;
        valueFraction   uniform 0.991591;
        source          uniform 0;
        value           nonuniform List<scalar> 
400
(
300.027
300.017
300.013
300.014
300.023
300.019
300.017
300.012
299.999
300.021
300.027
300.013
300.03
300.04
300.041
300.028
300.03
300.041
300.022
300.036
300.02
300.027
300.025
300.025
300.024
299.999
300.038
300.023
300.032
300.02
300.035
300.033
300.024
300.024
300.025
300.021
300.047
300.021