/*--------------------------------*- C++ -*----------------------------------*\
| =========                 |                                                 |
| \\      /  F ield         | OpenFOAM: The Open Source CFD Toolbox           |
|  \\    /   O peration     | Version:  2212                                  |
|   \\  /    A nd           | Website:  www.openfoam.com                      |
|    \\/     M anipulation  |                                                 |
\*---------------------------------------------------------------------------*/
FoamFile
{
    version     2.0;
    format      ascii;
    arch        "LSB;label=32;scalar=64";
    class       volScalarField;
    location    "0";
    object      Tdirect;
}
// * * * * * * * * * * * * * * * * * * * * * * * * * * * * * * * * * * * * * //

dimensions      [0 0 0 1 0 0 0];

internalField   nonuniform List<scalar> 
3200
(
342.418
343.484
344.845
346.327
347.854
349.353
350.736
351.904
352.755
353.204
353.204
352.755
351.904
350.736
349.353
347.854
346.327
344.845
343.484
342.418
336.813
337.715
338.889
340.171
341.493
342.789
343.985
344.994
345.728
346.116
346.116
345.728
344.994
343.985
342.789
341.493
340.171
338.889
337.715
336.813
331.188
331.936
332.924
334.008
335.125
336.22
337.23
338.081
338.701
339.028
339.028
338.701
338.081
337.23
336.22
335.125
334.008
332.924
331.936
331.188
325.545
326.147
326.953
327.839
328.751
329.646
330.471
331.166
331.672
331.939
331.939
331.672
331.166
330.471
329.646
328.751
327.839
326.953
326.147
325.545
319.888
320.351
320.976
321.664
322.373
323.068
323.709
324.249
324.642
324.849
324.849
324.642
324.249
323.709
323.068
322.373
321.664
320.976
320.351
319.888
314.22
314.548
314.993
315.485
315.991
316.488
316.945
317.33
317.61
317.758
317.758
317.61
317.33
316.945
316.488
315.991
315.485
314.993
314.548
314.22
308.545
308.74
309.008
309.303
309.607
309.905
310.179
310.41
310.579
310.667
310.667
310.579
310.41
310.179
309.905
309.607
309.303
309.008
308.74
308.545
302.865
302.93
303.02
303.119
303.22
303.32
303.412
303.49
303.546
303.576
303.576
303.546
303.49
303.412
303.32
303.22
303.119
303.02
302.93
302.865
342.508
343.565
344.914
346.383
347.894
349.377
350.744
351.897
352.737
353.18
353.18
352.737
351.897
350.744
349.377
347.894
346.383
344.914
343.565
342.508
336.891
337.786
338.949
340.22
341.528
342.81
343.992
344.988
345.713
346.096
346.096
345.713
344.988
343.992
342.81
341.528
340.22
338.949
337.786
336.891
331.253
331.995
332.975
334.049
335.154
336.237
337.235
338.076
338.688
339.011
339.011
338.688
338.076
337.235
336.237
335.154
334.049
332.975
331.995
331.253
325.598
326.196
326.995
327.872
328.775
329.661
330.476
331.162
331.662
331.925
331.925
331.662
331.162
330.476
329.661
328.775
327.872
326.995
326.196
325.598
319.93
320.388
321.008
321.69
322.392
323.08
323.713
324.246
324.634
324.839
324.839
324.634
324.246
323.713
323.08
322.392
321.69
321.008
320.388
319.93
314.25
314.575
315.017
315.503
316.005
316.496
316.948
317.328
317.605
317.751
317.751
317.605
317.328
316.948
316.496
316.005
315.503
315.017
314.575
314.25
308.563
308.757
309.022
309.314
309.615
309.91
310.181
310.409
310.575
310.663
310.663
310.575
310.409
310.181
309.91
309.615
309.314
309.022
308.757
308.563
302.871
302.936
303.024
303.122
303.223
303.322
303.413
303.489
303.545
303.574
303.574
303.545
303.489
303.413
303.322
303.223
303.122
303.024
302.936
302.871
342.689
343.73
345.056
346.497
347.978
349.428
350.764
351.889
352.707
353.139
353.139
352.707
351.889
350.764
349.428
347.978
346.497
345.056
343.73
342.689
337.047
337.928
339.071
340.318
341.6
342.855
344.009
344.982
345.688
346.061
346.061
345.688
344.982
344.009
342.855
341.6
340.318
339.071
337.928
337.047
331.385
332.115
333.079
334.133
335.216
336.276
337.251
338.071
338.668
338.982
338.982
338.668
338.071
337.251
336.276
335.216
334.133
333.079
332.115
331.385
325.706
326.294
327.079
327.941
328.826
329.692
330.489
331.159
331.645
331.902
331.902
331.645
331.159
330.489
329.692
328.826
327.941
327.079
326.294
325.706
320.013
320.465
321.074
321.743
322.431
323.104
323.723
324.244
324.622
324.821
324.821
324.622
324.244
323.723
323.104
322.431
321.743
321.074
320.465
320.013
314.31
314.629
315.064
315.541
316.033
316.513
316.955
317.327
317.596
317.739
317.739
317.596
317.327
316.955
316.513
316.033
315.541
315.064
314.629
314.31
308.599
308.789
309.05
309.337
309.632
309.92
310.185
310.408
310.57
310.655
310.655
310.57
310.408
310.185
309.92
309.632
309.337
309.05
308.789
308.599
302.883
302.947
303.034
303.13
303.229
303.326
303.414
303.489
303.543
303.572
303.572
303.543
303.489
303.414
303.326
303.229
303.13
303.034
302.947
302.883
342.963
343.979
345.272
346.674
348.111
349.515
350.805
351.89
352.677
353.093
353.093
352.677
351.89
350.805
349.515
348.111
346.674
345.272
343.979
342.963
337.284
338.144
339.259
340.472
341.716
342.93
344.046
344.983
345.664
346.022
346.022
345.664
344.983
344.046
342.93
341.716
340.472
339.259
338.144
337.284
331.585
332.298
333.237
334.262
335.314
336.34
337.282
338.074
338.648
338.95
338.95
338.648
338.074
337.282
336.34
335.314
334.262
333.237
332.298
331.585
325.869
326.443
327.209
328.047
328.906
329.745
330.515
331.161
331.63
331.877
331.877
331.63
331.161
330.515
329.745
328.906
328.047
327.209
326.443
325.869
320.14
320.581
321.175
321.826
322.494
323.146
323.744
324.246
324.61
324.801
324.801
324.61
324.246
323.744
323.146
322.494
321.826
321.175
320.581
320.14
314.4
314.712
315.136
315.6
316.078
316.543
316.97
317.328
317.588
317.725
317.725
317.588
317.328
316.97
316.543
316.078
315.6
315.136
314.712
314.4
308.653
308.839
309.093
309.372
309.659
309.938
310.194
310.409
310.565
310.647
310.647
310.565
310.409
310.194
309.938
309.659
309.372
309.093
308.839
308.653
302.901
302.963
303.048
303.142
303.238
303.332
303.417
303.489
303.542
303.569
303.569
303.542
303.489
303.417
303.332
303.238
303.142
303.048
302.963
302.901
343.334
344.319
345.569
346.921
348.302
349.648
350.881
351.915
352.664
353.059
353.059
352.664
351.915
350.881
349.648
348.302
346.921
345.569
344.319
343.334
337.604
338.438
339.516
340.686
341.882
343.046
344.112
345.006
345.653
345.994
345.994
345.653
345.006
344.112
343.046
341.882
340.686
339.516
338.438
337.604
331.855
332.546
333.455
334.443
335.454
336.438
337.339
338.094
338.64
338.928
338.928
338.64
338.094
337.339
336.438
335.454
334.443
333.455
332.546
331.855
326.089
326.646
327.387
328.195
329.021
329.825
330.561
331.178
331.624
331.859
331.859
331.624
331.178
330.561
329.825
329.021
328.195
327.387
326.646
326.089
320.311
320.738
321.313
321.941
322.583
323.208
323.78
324.259
324.606
324.788
324.788
324.606
324.259
323.78
323.208
322.583
321.941
321.313
320.738
320.311
314.522
314.825
315.234
315.683
316.142
316.588
316.996
317.338
317.585
317.716
317.716
317.585
317.338
316.996
316.588
316.142
315.683
315.234
314.825
314.522
308.726
308.907
309.152
309.421
309.697
309.965
310.21
310.415
310.564
310.642
310.642
310.564
310.415
310.21
309.965
309.697
309.421
309.152
308.907
308.726
302.926
302.986
303.068
303.158
303.251
303.341
303.423
303.491
303.541
303.567
303.567
303.541
303.491
303.423
303.341
303.251
303.158
303.068
302.986
302.926
343.804
344.752
345.952
347.245
348.562
349.839
351.006
351.981
352.686
353.057
353.057
352.686
351.981
351.006
349.839
348.562
347.245
345.952
344.752
343.804
338.01
338.813
339.847
340.967
342.106
343.212
344.221
345.065
345.674
345.995
345.995
345.674
345.065
344.221
343.212
342.106
340.967
339.847
338.813
338.01
332.198
332.863
333.735
334.681
335.645
336.579
337.432
338.144
338.659
338.929
338.929
338.659
338.144
337.432
336.579
335.645
334.681
333.735
332.863
332.198
326.37
326.905
327.616
328.389
329.177
329.941
330.638
331.22
331.64
331.861
331.861
331.64
331.22
330.638
329.941
329.177
328.389
327.616
326.905
326.37
320.529
320.94
321.491
322.092
322.705
323.298
323.84
324.292
324.618
324.79
324.79
324.618
324.292
323.84
323.298
322.705
322.092
321.491
320.94
320.529
314.678
314.969
315.362
315.791
316.228
316.652
317.039
317.362
317.595
317.717
317.717
317.595
317.362
317.039
316.652
316.228
315.791
315.362
314.969
314.678
308.819
308.993
309.229
309.486
309.749
310.004
310.236
310.43
310.569
310.643
310.643
310.569
310.43
310.236
310.004
309.749
309.486
309.229
308.993
308.819
302.957
303.015
303.094
303.18
303.268
303.354
303.431
303.496
303.543
303.568
303.568
303.543
303.496
303.431
303.354
303.268
303.18
303.094
303.015
302.957
344.379
345.286
346.429
347.656
348.901
350.103
351.197
352.108
352.765
353.11
353.11
352.765
352.108
351.197
350.103
348.901
347.656
346.429
345.286
344.379
338.507
339.275
340.261
341.323
342.4
343.441
344.387
345.176
345.744
346.042
346.042
345.744
345.176
344.387
343.441
342.4
341.323
340.261
339.275
338.507
332.617
333.254
334.085
334.982
335.893
336.773
337.573
338.239
338.719
338.971
338.971
338.719
338.239
337.573
336.773
335.893
334.982
334.085
333.254
332.617
326.712
327.224
327.902
328.636
329.381
330.1
330.754
331.298
331.69
331.895
331.895
331.69
331.298
330.754
330.1
329.381
328.636
327.902
327.224
326.712
320.795
321.188
321.713
322.284
322.863
323.422
323.93
324.353
324.658
324.817
324.817
324.658
324.353
323.93
323.422
322.863
322.284
321.713
321.188
320.795
314.867
315.146
315.52
315.928
316.341
316.741
317.104
317.406
317.623
317.737
317.737
317.623
317.406
317.104
316.741
316.341
315.928
315.52
315.146
314.867
308.933
309.099
309.324
309.569
309.817
310.057
310.275
310.456
310.587
310.655
310.655
310.587
310.456
310.275
310.057
309.817
309.569
309.324
309.099
308.933
302.995
303.051
303.126
303.208
303.291
303.371
303.444
303.505
303.549
303.572
303.572
303.549
303.505
303.444
303.371
303.291
303.208
303.126
303.051
302.995
345.064
345.925
347.007
348.164
349.331
350.454
351.471
352.315
352.922
353.24
353.24
352.922
352.315
351.471
350.454
349.331
348.164
347.007
345.925
345.064
339.099
339.828
340.761
341.763
342.773
343.746
344.626
345.356
345.881
346.156
346.156
345.881
345.356
344.626
343.746
342.773
341.763
340.761
339.828
339.099
333.117
333.722
334.508
335.354
336.209
337.031
337.775
338.392
338.836
339.068
339.068
338.836
338.392
337.775
337.031
336.209
335.354
334.508
333.722
333.117
327.12
327.607
328.248
328.94
329.639
330.311
330.919
331.424
331.786
331.976
331.976
331.786
331.424
330.919
330.311
329.639
328.94
328.248
327.607
327.12
321.112
321.485
321.983
322.52
323.064
323.587
324.059
324.451
324.733
324.88
324.88
324.733
324.451
324.059
323.587
323.064
322.52
321.983
321.485
321.112
315.094
315.358
315.713
316.097
316.485
316.858
317.196
317.476
317.677
317.782
317.782
317.677
317.476
317.196
316.858
316.485
316.097
315.713
315.358
315.094
309.069
309.227
309.44
309.67
309.903
310.127
310.33
310.498
310.619
310.682
310.682
310.619
310.498
310.33
310.127
309.903
309.67
309.44
309.227
309.069
303.041
303.093
303.164
303.242
303.32
303.395
303.463
303.519
303.56
303.581
303.581
303.56
303.519
303.463
303.395
303.32
303.242
303.164
303.093
303.041
345.864
346.677
347.695
348.778
349.866
350.907
351.845
352.621
353.178
353.469
353.469
353.178
352.621
351.845
350.907
349.866
348.778
347.695
346.677
345.864
339.79
340.479
341.357
342.294
343.236
344.138
344.951
345.622
346.104
346.355
346.355
346.104
345.622
344.951
344.138
343.236
342.294
341.357
340.479
339.79
333.7
334.272
335.011
335.804
336.601
337.363
338.05
338.618
339.025
339.237
339.237
339.025
338.618
338.05
337.363
336.601
335.804
335.011
334.272
333.7
327.597
328.056
328.66
329.308
329.959
330.583
331.145
331.609
331.941
332.115
332.115
331.941
331.609
331.145
330.583
329.959
329.308
328.66
328.056
327.597
321.482
321.835
322.303
322.806
323.313
323.798
324.235
324.595
324.854
324.989
324.989
324.854
324.595
324.235
323.798
323.313
322.806
322.303
321.835
321.482
315.358
315.608
315.941
316.301
316.663
317.009
317.321
317.579
317.764
317.86
317.86
317.764
317.579
317.321
317.009
316.663
316.301
315.941
315.608
315.358
309.228
309.377
309.577
309.793
310.01
310.218
310.406
310.56
310.671
310.729
310.729
310.671
310.56
310.406
310.218
310.01
309.793
309.577
309.377
309.228
303.094
303.143
303.21
303.283
303.356
303.425
303.488
303.54
303.577
303.597
303.597
303.577
303.54
303.488
303.425
303.356
303.283
303.21
303.143
303.094
346.783
347.547
348.5
349.508
350.515
351.474
352.335
353.044
353.55
353.814
353.814
353.55
353.044
352.335
351.474
350.515
349.508
348.5
347.547
346.783
340.585
341.232
342.053
342.926
343.799
344.63
345.375
345.989
346.427
346.656
346.656
346.427
345.989
345.375
344.63
343.799
342.926
342.053
341.232
340.585
334.371
334.908
335.6
336.338
337.076
337.779
338.409
338.928
339.299
339.492
339.492
339.299
338.928
338.409
337.779
337.076
336.338
335.6
334.908
334.371
328.145
328.577
329.141
329.745
330.348
330.923
331.439
331.863
332.166
332.324
332.324
332.166
331.863
331.439
330.923
330.348
329.745
329.141
328.577
328.145
321.908
322.239
322.677
323.146
323.616
324.063
324.464
324.793
325.029
325.152
325.152
325.029
324.793
324.464
324.063
323.616
323.146
322.677
322.239
321.908
315.662
315.896
316.209
316.544
316.879
317.199
317.485
317.721
317.889
317.977
317.977
317.889
317.721
317.485
317.199
316.879
316.544
316.209
315.896
315.662
309.41
309.55
309.737
309.939
310.14
310.332
310.504
310.645
310.746
310.799
310.799
310.746
310.645
310.504
310.332
310.14
309.939
309.737
309.55
309.41
303.155
303.202
303.264
303.332
303.399
303.464
303.521
303.569
303.602
303.62
303.62
303.602
303.569
303.521
303.464
303.399
303.332
303.264
303.202
303.155
347.826
348.541
349.428
350.362
351.29
352.169
352.953
353.597
354.056
354.295
354.295
354.056
353.597
352.953
352.169
351.29
350.362
349.428
348.541
347.826
341.487
342.092
342.857
343.666
344.47
345.231
345.911
346.469
346.866
347.072
347.072
346.866
346.469
345.911
345.231
344.47
343.666
342.857
342.092
341.487
335.134
335.635
336.28
336.964
337.644
338.288
338.863
339.334
339.67
339.845
339.845
339.67
339.334
338.863
338.288
337.644
336.964
336.28
335.635
335.134
328.768
329.171
329.697
330.256
330.812
331.339
331.81
332.195
332.47
332.613
332.613
332.47
332.195
331.81
331.339
330.812
330.256
329.697
329.171
328.768
322.391
322.701
323.109
323.544
323.977
324.386
324.752
325.052
325.266
325.377
325.377
325.266
325.052
324.752
324.386
323.977
323.544
323.109
322.701
322.391
316.007
316.227
316.517
316.828
317.137
317.43
317.691
317.905
318.058
318.137
318.137
318.058
317.905
317.691
317.43
317.137
316.828
316.517
316.227
316.007
309.618
309.748
309.923
310.109
310.295
310.471
310.628
310.756
310.848
310.896
310.896
310.848
310.756
310.628
310.471
310.295
310.109
309.923
309.748
309.618
303.224
303.268
303.326
303.389
303.451
303.51
303.563
303.606
303.637
303.653
303.653
303.637
303.606
303.563
303.51
303.451
303.389
303.326
303.268
303.224
348.999
349.665
350.486
351.347
352.198
353
353.713
354.295
354.708
354.922
354.922
354.708
354.295
353.713
353
352.198
351.347
350.486
349.665
348.999
342.501
343.064
343.774
344.519
345.257
345.951
346.569
347.073
347.431
347.617
347.617
347.431
347.073
346.569
345.951
345.257
344.519
343.774
343.064
342.501
335.99
336.457
337.055
337.685
338.309
338.897
339.419
339.846
340.148
340.306
340.306
340.148
339.846
339.419
338.897
338.309
337.685
337.055
336.457
335.99
329.467
329.843
330.33
330.846
331.357
331.838
332.265
332.614
332.861
332.99
332.99
332.861
332.614
332.265
331.838
331.357
330.846
330.33
329.843
329.467
322.935
323.224
323.602
324.003
324.4
324.774
325.106
325.377
325.57
325.67
325.67
325.57
325.377
325.106
324.774
324.4
324.003
323.602
323.224
322.935
316.395
316.6
316.869
317.156
317.439
317.707
317.944
318.138
318.275
318.347
318.347
318.275
318.138
317.944
317.707
317.439
317.156
316.869
316.6
316.395
309.851
309.972
310.134
310.306
310.476
310.637
310.78
310.896
310.979
311.021
311.021
310.979
310.896
310.78
310.637
310.476
310.306
310.134
309.972
309.851
303.302
303.343
303.397
303.455
303.512
303.566
303.614
303.653
303.68
303.695
303.695
303.68
303.653
303.614
303.566
303.512
303.455
303.397
303.343
303.302
350.304
350.922
351.681
352.471
353.249
353.977
354.622
355.146
355.517
355.709
355.709
355.517
355.146
354.622
353.977
353.249
352.471
351.681
350.922
350.304
343.63
344.153
344.807
345.492
346.166
346.798
347.356
347.81
348.131
348.298
348.298
348.131
347.81
347.356
346.798
346.166
345.492
344.807
344.153
343.63
336.943
337.377
337.929
338.508
339.078
339.612
340.085
340.469
340.741
340.882
340.882
340.741
340.469
340.085
339.612
339.078
338.508
337.929
337.377
336.943
330.246
330.595
331.045
331.519
331.985
332.423
332.809
333.123
333.346
333.461
333.461
333.346
333.123
332.809
332.423
331.985
331.519
331.045
330.595
330.246
323.54
323.808
324.157
324.526
324.888
325.229
325.529
325.774
325.947
326.036
326.036
325.947
325.774
325.529
325.229
324.888
324.526
324.157
323.808
323.54
316.828
317.017
317.266
317.529
317.788
318.032
318.246
318.421
318.545
318.609
318.609
318.545
318.421
318.246
318.032
317.788
317.529
317.266
317.017
316.828
310.11
310.223
310.372
310.53
310.686
310.832
310.961
311.066
311.14
311.179
311.179
311.14
311.066
310.961
310.832
310.686
310.53
310.372
310.223
310.11
303.389
303.427
303.477
303.53
303.582
303.631
303.674
303.71
303.735
303.747
303.747
303.735
303.71
303.674
303.631
303.582
303.53
303.477
303.427
303.389
351.744
352.315
353.014
353.738
354.446
355.106
355.687
356.157
356.489
356.661
356.661
356.489
356.157
355.687
355.106
354.446
353.738
353.014
352.315
351.744
344.876
345.359
345.962
346.589
347.203
347.775
348.278
348.686
348.974
349.123
349.123
348.974
348.686
348.278
347.775
347.203
346.589
345.962
345.359
344.876
337.996
338.396
338.904
339.435
339.954
340.438
340.864
341.21
341.453
341.579
341.579
341.453
341.21
340.864
340.438
339.954
339.435
338.904
338.396
337.996
331.106
331.428
331.843
332.277
332.702
333.098
333.447
333.729
333.928
334.031
334.031
333.928
333.729
333.447
333.098
332.702
332.277
331.843
331.428
331.106
324.208
324.456
324.777
325.115
325.445
325.754
326.025
326.245
326.4
326.48
326.48
326.4
326.245
326.025
325.754
325.445
325.115
324.777
324.456
324.208
317.305
317.48
317.709
317.95
318.186
318.407
318.6
318.757
318.868
318.925
318.925
318.868
318.757
318.6
318.407
318.186
317.95
317.709
317.48
317.305
310.396
310.501
310.638
310.783
310.925
311.057
311.174
311.268
311.334
311.369
311.369
311.334
311.268
311.174
311.057
310.925
310.783
310.638
310.501
310.396
303.485
303.52
303.566
303.615
303.662
303.707
303.746
303.777
303.8
303.811
303.811
303.8
303.777
303.746
303.707
303.662
303.615
303.566
303.52
303.485
353.32
353.847
354.488
355.149
355.793
356.389
356.911
357.333
357.629
357.783
357.783
357.629
357.333
356.911
356.389
355.793
355.149
354.488
353.847
353.32
346.238
346.684
347.237
347.81
348.368
348.885
349.338
349.703
349.96
350.093
350.093
349.96
349.703
349.338
348.885
348.368
347.81
347.237
346.684
346.238
339.146
339.516
339.982
340.467
340.939
341.376
341.76
342.069
342.287
342.399
342.399
342.287
342.069
341.76
341.376
340.939
340.467
339.982
339.516
339.146
332.046
332.343
332.724
333.12
333.506
333.864
334.178
334.431
334.609
334.701
334.701
334.609
334.431
334.178
333.864
333.506
333.12
332.724
332.343
332.046
324.939
325.167
325.462
325.77
326.071
326.349
326.594
326.791
326.929
327.001
327.001
326.929
326.791
326.594
326.349
326.071
325.77
325.462
325.167
324.939
317.826
317.987
318.198
318.418
318.633
318.832
319.006
319.147
319.246
319.297
319.297
319.246
319.147
319.006
318.832
318.633
318.418
318.198
317.987
317.826
310.709
310.805
310.932
311.064
311.193
311.313
311.418
311.502
311.562
311.592
311.592
311.562
311.502
311.418
311.313
311.193
311.064
310.932
310.805
310.709
303.59
303.622
303.665
303.709
303.752
303.792
303.827
303.856
303.876
303.886
303.886
303.876
303.856
303.827
303.792
303.752
303.709
303.665
303.622
303.59
355.026
355.511
356.099
356.701
357.285
357.823
358.292
358.669
358.934
359.07
359.07
358.934
358.669
358.292
357.823
357.285
356.701
356.099
355.511
355.026
347.712
348.122
348.63
349.152
349.658
350.124
350.531
350.858
351.088
351.206
351.206
351.088
350.858
350.531
350.124
349.658
349.152
348.63
348.122
347.712
340.39
340.73
341.158
341.6
342.028
342.423
342.768
343.044
343.239
343.339
343.339
343.239
343.044
342.768
342.423
342.028
341.6
341.158
340.73
340.39
333.062
333.335
333.684
334.045
334.396
334.719
335.001
335.228
335.387
335.469
335.469
335.387
335.228
335.001
334.719
334.396
334.045
333.684
333.335
333.062
325.727
325.937
326.208
326.489
326.762
327.013
327.233
327.409
327.533
327.597
327.597
327.533
327.409
327.233
327.013
326.762
326.489
326.208
325.937
325.727
318.389
318.537
318.73
318.931
319.126
319.306
319.463
319.589
319.677
319.723
319.723
319.677
319.589
319.463
319.306
319.126
318.931
318.73
318.537
318.389
311.047
311.136
311.251
311.372
311.489
311.597
311.691
311.767
311.82
311.848
311.848
311.82
311.767
311.691
311.597
311.489
311.372
311.251
311.136
311.047
303.703
303.733
303.772
303.812
303.851
303.888
303.919
303.945
303.962
303.972
303.972
303.962
303.945
303.919
303.888
303.851
303.812
303.772
303.733
303.703
356.845
357.291
357.829
358.378
358.907
359.392
359.814
360.151
360.387
360.509
360.509
360.387
360.151
359.814
359.392
358.907
358.378
357.829
357.291
356.845
349.281
349.658
350.123
350.599
351.057
351.478
351.844
352.137
352.342
352.447
352.447
352.342
352.137
351.844
351.478
351.057
350.599
350.123
349.658
349.281
341.713
342.025
342.417
342.819
343.207
343.564
343.874
344.122
344.295
344.385
344.385
344.295
344.122
343.874
343.564
343.207
342.819
342.417
342.025
341.713
334.14
334.391
334.71
335.04
335.358
335.65
335.903
336.106
336.248
336.322
336.322
336.248
336.106
335.903
335.65
335.358
335.04
334.71
334.391
334.14
326.563
326.756
327.004
327.261
327.508
327.735
327.933
328.091
328.201
328.258
328.258
328.201
328.091
327.933
327.735
327.508
327.261
327.004
326.756
326.563
318.985
319.121
319.298
319.481
319.658
319.821
319.962
320.075
320.154
320.194
320.194
320.154
320.075
319.962
319.821
319.658
319.481
319.298
319.121
318.985
311.404
311.486
311.592
311.702
311.808
311.906
311.991
312.058
312.106
312.13
312.13
312.106
312.058
311.991
311.906
311.808
311.702
311.592
311.486
311.404
303.823
303.85
303.886
303.923
303.958
303.991
304.019
304.042
304.058
304.066
304.066
304.058
304.042
304.019
303.991
303.958
303.923
303.886
303.85
303.823
358.73
359.14
359.633
360.134
360.614
361.053
361.433
361.735
361.947
362.055
362.055
361.947
361.735
361.433
361.053
360.614
360.134
359.633
359.14
358.73
350.9
351.247
351.672
352.107
352.523
352.904
353.234
353.497
353.68
353.775
353.775
353.68
353.497
353.234
352.904
352.523
352.107
351.672
351.247
350.9
343.071
343.358
343.717
344.085
344.438
344.761
345.04
345.263
345.418
345.498
345.498
345.418
345.263
345.04
344.761
344.438
344.085
343.717
343.358
343.071
335.243
335.474
335.767
336.068
336.357
336.622
336.851
337.033
337.16
337.226
337.226
337.16
337.033
336.851
336.622
336.357
336.068
335.767
335.474
335.243
327.417
327.594
327.822
328.056
328.281
328.487
328.665
328.807
328.906
328.957
328.957
328.906
328.807
328.665
328.487
328.281
328.056
327.822
327.594
327.417
319.592
319.717
319.88
320.047
320.208
320.355
320.483
320.584
320.655
320.692
320.692
320.655
320.584
320.483
320.355
320.208
320.047
319.88
319.717
319.592
311.768
311.843
311.94
312.041
312.137
312.226
312.302
312.364
312.406
312.428
312.428
312.406
312.364
312.302
312.226
312.137
312.041
311.94
311.843
311.768
303.945
303.97
304.002
304.036
304.068
304.098
304.124
304.144
304.159
304.166
304.166
304.159
304.144
304.124
304.098
304.068
304.036
304.002
303.97
303.945
360.558
360.937
361.391
361.852
362.291
362.691
363.035
363.31
363.501
363.599
363.599
363.501
363.31
363.035
362.691
362.291
361.852
361.391
360.937
360.558
352.45
352.771
353.164
353.563
353.945
354.293
354.592
354.831
354.997
355.082
355.082
354.997
354.831
354.592
354.293
353.945
353.563
353.164
352.771
352.45
344.357
344.623
344.955
345.294
345.618
345.913
346.167
346.369
346.51
346.582
346.582
346.51
346.369
346.167
345.913
345.618
345.294
344.955
344.623
344.357
336.278
336.493
336.764
337.041
337.307
337.549
337.757
337.923
338.039
338.098
338.098
338.039
337.923
337.757
337.549
337.307
337.041
336.764
336.493
336.278
328.211
328.376
328.586
328.803
329.009
329.198
329.361
329.49
329.58
329.626
329.626
329.58
329.49
329.361
329.198
329.009
328.803
328.586
328.376
328.211
320.154
320.27
320.421
320.575
320.723
320.858
320.974
321.067
321.131
321.164
321.164
321.131
321.067
320.974
320.858
320.723
320.575
320.421
320.27
320.154
312.103
312.173
312.263
312.356
312.445
312.526
312.596
312.651
312.69
312.71
312.71
312.69
312.651
312.596
312.526
312.445
312.356
312.263
312.173
312.103
304.057
304.08
304.11
304.141
304.171
304.198
304.222
304.24
304.253
304.26
304.26
304.253
304.24
304.222
304.198
304.171
304.141
304.11
304.08
304.057
362.002
362.358
362.786
363.217
363.628
364.001
364.322
364.576
364.753
364.844
364.844
364.753
364.576
364.322
364.001
363.628
363.217
362.786
362.358
362.002
353.627
353.93
354.301
354.677
355.035
355.361
355.64
355.862
356.017
356.096
356.096
356.017
355.862
355.64
355.361
355.035
354.677
354.301
353.93
353.627
345.304
345.556
345.87
346.189
346.494
346.771
347.009
347.198
347.329
347.396
347.396
347.329
347.198
347.009
346.771
346.494
346.189
345.87
345.556
345.304
337.021
337.225
337.481
337.744
337.994
338.222
338.417
338.572
338.68
338.736
338.736
338.68
338.572
338.417
338.222
337.994
337.744
337.481
337.225
337.021
328.771
328.927
329.127
329.331
329.527
329.704
329.857
329.978
330.063
330.106
330.106
330.063
329.978
329.857
329.704
329.527
329.331
329.127
328.927
328.771
320.544
320.655
320.797
320.944
321.084
321.211
321.32
321.407
321.468
321.499
321.499
321.468
321.407
321.32
321.211
321.084
320.944
320.797
320.655
320.544
312.334
312.4
312.486
312.574
312.658
312.734
312.8
312.852
312.889
312.907
312.907
312.889
312.852
312.8
312.734
312.658
312.574
312.486
312.4
312.334
304.133
304.155
304.184
304.214
304.242
304.268
304.29
304.307
304.319
304.326
304.326
304.319
304.307
304.29
304.268
304.242
304.214
304.184
304.155
304.133
)
;

boundaryField
{
    hotSide
    {
        type            fixedGradient;
        gradient        nonuniform List<scalar> 
400
(
446.547
447.538
449.533
452.553
456.63
461.803
468.117
475.623
484.371
494.413
505.798
518.572
532.779
548.457
565.64
584.356
604.63
626.481
649.924
674.973
460.574
461.455
463.232
465.934
469.604
474.295
480.065
486.979
495.104
504.503
515.24
527.371
540.949
556.018
572.618
590.782
610.536
631.901
654.893
679.523
475.755
476.504
478.021
480.346
483.535
487.657
492.79
499.018
506.423
515.088
525.089
536.497
549.372
563.769
579.731
597.295
616.489
637.334
659.847
684.037
491.838
492.432
493.647
495.535
498.169
501.64
506.047
511.496
518.094
525.94
535.129
545.744
557.857
571.53
586.811
603.741
622.347
642.653
664.671
688.411
508.374
508.794
509.67
511.068
513.085
515.833
519.441
524.04
529.761
536.728
545.051
554.828
566.144
579.065
593.646
609.928
627.941
647.705
669.231
692.525
524.672
524.906
525.42
526.297
527.658
529.645
532.415
536.13
540.947
547.012
554.456
563.391
573.91
586.088
599.982
615.634
633.072
652.316
673.373
696.246
539.8
539.849
540.001
540.36
541.072
542.309
544.26
547.116
551.061
556.263
562.872
571.012
580.787
592.274
605.535
620.611
637.529
656.304
676.941
699.438
552.64
552.521
552.347
552.242
552.373
552.943
554.168
556.267
559.449
563.901
569.789
577.249
586.389
597.293
610.021
624.615
641.1
659.488
679.78
701.971
562.036
561.789
561.366
560.905
560.595
560.659
561.335
562.866
565.477
569.372
574.726
581.684
590.359
600.837
613.18
627.426
643.6
661.711
681.757
703.729
567.015
566.698
566.139
565.486
564.935
564.725
565.105
566.33
568.634
572.23
577.3
583.991
592.42
602.674
614.813
628.877
644.888
662.854
682.771
704.631
567.015
566.698
566.139
565.486
564.935
564.725
565.105
566.33
568.634
572.23
577.3
583.991
592.42
602.674
614.813
628.877
644.888
662.854
682.771
704.631
562.036
561.789
561.366
560.905
560.595
560.659
561.335
562.866
565.477
569.372
574.726
581.684
590.359
600.837
613.18
627.426
643.6
661.711
681.757
703.729
552.64
552.521
552.347
552.242
552.373
552.943
554.168
556.267
559.449
563.901
569.789
577.249
586.389
597.293
610.021
624.615
641.1
659.488
679.78
701.971
539.8
539.849
540.001
540.36
541.072
542.309
544.26
547.116
551.061
556.263
562.872
571.012
580.787
592.274
605.535
620.611
637.529
656.304
676.941
699.438
524.672
524.906
525.42
526.297
527.658
529.645
532.415
536.13
540.947
547.012
554.456
563.391
573.91
586.088
599.982
615.634
633.072
652.316
673.373
696.246
508.374
508.794
509.67
511.068
513.085
515.833
519.441
524.04
529.761
536.728
545.051
554.828
566.144
579.065
593.646
609.928
627.941
647.705
669.231
692.525
491.838
492.432
493.647
495.535
498.169
501.64
506.047
511.496
518.094
525.94
535.129
545.744
557.857
571.53
586.811
603.741
622.347
642.653
664.671
688.411
475.755
476.504
478.021
480.346
483.535
487.657
492.79
499.018
506.423
515.088
525.089
536.497
549.372
563.769
579.731
597.295
616.489
637.334
659.847
684.037
460.574
461.455
463.232
465.934
469.604
474.295
480.065
486.979
495.104
504.503
515.24
527.371
540.949
556.018
572.618
590.782
610.536
631.901
654.893
679.523
446.547
447.538
449.533
452.553
456.63
461.803
468.117
475.623
484.371
494.413
505.798
518.572
532.779
548.457
565.64
584.356
604.63
626.481
649.924
674.973
)
;
    }
    coldSide
    {
        type            mixed;
        refValue        uniform 300;
        refGradient     uniform 0;
        valueFraction   uniform 0.991591;
        source          uniform 0;
        value           nonuniform List<scalar> 
400
(
300.024
300.024
300.024
300.024
300.025
300.025
300.025
300.026
300.026
300.027
300.027
300.028
300.029
300.029
300.03
300.031
300.032
300.033
300.034
300.035
300.025
300.025
300.025
300.025
300.025
300.025
300.026
300.026
300.026
300.027
300.027
300.028
300.029
300.03
300.03
300.031
300.032
300.033
300.034
300.035
300.025