/*--------------------------------*- C++ -*----------------------------------*\
| =========                 |                                                 |
| \\      /  F ield         | OpenFOAM: The Open Source CFD Toolbox           |
|  \\    /   O peration     | Version:  2212                                  |
|   \\  /    A nd           | Website:  www.openfoam.com                      |
|    \\/     M anipulation  |                                                 |
\*---------------------------------------------------------------------------*/
FoamFile
{
    version     2.0;
    format      ascii;
    arch        "LSB;label=32;scalar=64";
    class       volScalarField;
    location    "0";
    object      Ttrue;
}
// * * * * * * * * * * * * * * * * * * * * * * * * * * * * * * * * * * * * * //

dimensions      [0 0 0 1 0 0 0];

internalField   nonuniform List<scalar> 
3200
(
349.316
349.901
350.648
351.462
352.301
353.124
353.883
354.525
354.992
355.239
355.239
354.992
354.525
353.883
353.124
352.301
351.462
350.648
349.901
349.316
342.796
343.291
343.935
344.64
345.365
346.077
346.734
347.288
347.691
347.904
347.904
347.691
347.288
346.734
346.077
345.365
344.64
343.935
343.291
342.796
336.253
336.664
337.207
337.802
338.415
339.016
339.571
340.039
340.379
340.559
340.559
340.379
340.039
339.571
339.016
338.415
337.802
337.207
336.664
336.253
329.692
330.022
330.465
330.951
331.452
331.944
332.397
332.779
333.056
333.203
333.203
333.056
332.779
332.397
331.944
331.452
330.951
330.465
330.022
329.692
323.115
323.369
323.712
324.09
324.48
324.862
325.214
325.51
325.726
325.84
325.84
325.726
325.51
325.214
324.862
324.48
324.09
323.712
323.369
323.115
316.527
316.707
316.952
317.221
317.5
317.772
318.023
318.235
318.389
318.47
318.47
318.389
318.235
318.023
317.772
317.5
317.221
316.952
316.707
316.527
309.931
310.038
310.185
310.347
310.514
310.677
310.828
310.955
311.048
311.096
311.096
311.048
310.955
310.828
310.677
310.514
310.347
310.185
310.038
309.931
303.329
303.365
303.414
303.469
303.525
303.58
303.63
303.673
303.704
303.72
303.72
303.704
303.673
303.63
303.58
303.525
303.469
303.414
303.365
303.329
349.49
350.07
350.811
351.617
352.447
353.261
354.012
354.645
355.106
355.35
355.35
355.106
354.645
354.012
353.261
352.447
351.617
350.811
350.07
349.49
342.946
343.438
344.076
344.774
345.492
346.197
346.846
347.393
347.791
348.001
348.001
347.791
347.393
346.846
346.197
345.492
344.774
344.076
343.438
342.946
336.38
336.788
337.326
337.916
338.523
339.118
339.666
340.128
340.463
340.641
340.641
340.463
340.128
339.666
339.118
338.523
337.916
337.326
336.788
336.38
329.796
330.124
330.563
331.044
331.541
332.027
332.474
332.852
333.126
333.271
333.271
333.126
332.852
332.474
332.027
331.541
331.044
330.563
330.124
329.796
323.196
323.448
323.788
324.163
324.549
324.926
325.274
325.567
325.78
325.892
325.892
325.78
325.567
325.274
324.926
324.549
324.163
323.788
323.448
323.196
316.585
316.763
317.006
317.273
317.549
317.818
318.067
318.276
318.428
318.508
318.508
318.428
318.276
318.067
317.818
317.549
317.273
317.006
316.763
316.585
309.966
310.072
310.217
310.378
310.543
310.705
310.854
310.98
311.071
311.119
311.119
311.071
310.98
310.854
310.705
310.543
310.378
310.217
310.072
309.966
303.341
303.377
303.425
303.479
303.535
303.589
303.639
303.681
303.711
303.728
303.728
303.711
303.681
303.639
303.589
303.535
303.479
303.425
303.377
303.341
349.838
350.41
351.138
351.929
352.742
353.539
354.272
354.89
355.339
355.576
355.576
355.339
354.89
354.272
353.539
352.742
351.929
351.138
350.41
349.838
343.248
343.732
344.36
345.044
345.748
346.437
347.071
347.605
347.993
348.198
348.198
347.993
347.605
347.071
346.437
345.748
345.044
344.36
343.732
343.248
336.636
337.037
337.566
338.145
338.739
339.321
339.857
340.308
340.635
340.808
340.808
340.635
340.308
339.857
339.321
338.739
338.145
337.566
337.037
336.636
330.005
330.328
330.759
331.232
331.718
332.194
332.631
332.999
333.267
333.408
333.408
333.267
332.999
332.631
332.194
331.718
331.232
330.759
330.328
330.005
323.359
323.607
323.941
324.309
324.687
325.056
325.396
325.682
325.89
325.999
325.999
325.89
325.682
325.396
325.056
324.687
324.309
323.941
323.607
323.359
316.701
316.877
317.115
317.377
317.647
317.911
318.154
318.358
318.506
318.584
318.584
318.506
318.358
318.154
317.911
317.647
317.377
317.115
316.877
316.701
310.035
310.14
310.283
310.441
310.603
310.761
310.907
311.029
311.118
311.165
311.165
311.118
311.029
310.907
310.761
310.603
310.441
310.283
310.14
310.035
303.365
303.399
303.447
303.5
303.555
303.608
303.656
303.697
303.727
303.743
303.743
303.727
303.697
303.656
303.608
303.555
303.5
303.447
303.399
303.365
350.362
350.92
351.63
352.4
353.189
353.96
354.668
355.264
355.696
355.924
355.924
355.696
355.264
354.668
353.96
353.189
352.4
351.63
350.92
350.362
343.702
344.174
344.786
345.453
346.136
346.803
347.415
347.93
348.304
348.501
348.501
348.304
347.93
347.415
346.803
346.136
345.453
344.786
344.174
343.702
337.02
337.411
337.927
338.49
339.068
339.631
340.149
340.583
340.898
341.065
341.065
340.898
340.583
340.149
339.631
339.068
338.49
337.927
337.411
337.02
330.319
330.634
331.055
331.515
331.987
332.447
332.87
333.225
333.483
333.618
333.618
333.483
333.225
332.87
332.447
331.987
331.515
331.055
330.634
330.319
323.603
323.845
324.171
324.529
324.896
325.254
325.582
325.858
326.058
326.163
326.163
326.058
325.858
325.582
325.254
324.896
324.529
324.171
323.845
323.603
316.876
317.047
317.28
317.535
317.797
318.053
318.287
318.484
318.627
318.702
318.702
318.627
318.484
318.287
318.053
317.797
317.535
317.28
317.047
316.876
310.14
310.242
310.382
310.535
310.692
310.846
310.987
311.105
311.19
311.236
311.236
311.19
311.105
310.987
310.846
310.692
310.535
310.382
310.242
310.14
303.4
303.434
303.481
303.532
303.585
303.636
303.683
303.723
303.751
303.767
303.767
303.751
303.723
303.683
303.636
303.585
303.532
303.481
303.434
303.4
351.064
351.604
352.291
353.033
353.792
354.531
355.207
355.775
356.187
356.403
356.403
356.187
355.775
355.207
354.531
353.792
353.033
352.291
351.604
351.064
344.31
344.767
345.359
346.002
346.659
347.298
347.884
348.374
348.73
348.917
348.917
348.73
348.374
347.884
347.298
346.659
346.002
345.359
344.767
344.31
337.534
337.913
338.412
338.955
339.51
340.051
340.545
340.96
341.26
341.418
341.418
341.26
340.96
340.545
340.051
339.51
338.955
338.412
337.913
337.534
330.739
331.045
331.452
331.895
332.349
332.791
333.195
333.534
333.779
333.908
333.908
333.779
333.534
333.195
332.791
332.349
331.895
331.452
331.045
330.739
323.93
324.165
324.48
324.825
325.178
325.521
325.835
326.098
326.289
326.389
326.389
326.289
326.098
325.835
325.521
325.178
324.825
324.48
324.165
323.93
317.109
317.276
317.5
317.747
317.999
318.244
318.468
318.656
318.792
318.863
318.863
318.792
318.656
318.468
318.244
317.999
317.747
317.5
317.276
317.109
310.281
310.38
310.514
310.662
310.814
310.961
311.095
311.208
311.29
311.333
311.333
311.29
311.208
311.095
310.961
310.814
310.662
310.514
310.38
310.281
303.447
303.48
303.525
303.575
303.625
303.675
303.72
303.757
303.785
303.799
303.799
303.785
303.757
303.72
303.675
303.625
303.575
303.525
303.48
303.447
351.944
352.465
353.123
353.833
354.556
355.258
355.898
356.434
356.821
357.025
357.025
356.821
356.434
355.898
355.258
354.556
353.833
353.123
352.465
351.944
345.073
345.513
346.082
346.696
347.322
347.929
348.483
348.946
349.281
349.457
349.457
349.281
348.946
348.483
347.929
347.322
346.696
346.082
345.513
345.073
338.179
338.545
339.024
339.543
340.072
340.585
341.053
341.445
341.727
341.876
341.876
341.727
341.445
341.053
340.585
340.072
339.543
339.024
338.545
338.179
331.268
331.562
331.952
332.377
332.809
333.229
333.611
333.931
334.162
334.283
334.283
334.162
333.931
333.611
333.229
332.809
332.377
331.952
331.562
331.268
324.341
324.567
324.87
325.2
325.536
325.862
326.159
326.408
326.587
326.681
326.681
326.587
326.408
326.159
325.862
325.536
325.2
324.87
324.567
324.341
317.403
317.563
317.779
318.014
318.255
318.487
318.7
318.877
319.005
319.072
319.072
319.005
318.877
318.7
318.487
318.255
318.014
317.779
317.563
317.403
310.457
310.552
310.682
310.823
310.967
311.107
311.235
311.341
311.418
311.458
311.458
311.418
311.341
311.235
311.107
310.967
310.823
310.682
310.552
310.457
303.506
303.538
303.581
303.628
303.677
303.724
303.766
303.802
303.828
303.841
303.841
303.828
303.802
303.766
303.724
303.677
303.628
303.581
303.538
303.506
353.007
353.505
354.132
354.806
355.489
356.15
356.75
357.251
357.611
357.801
357.801
357.611
357.251
356.75
356.15
355.489
354.806
354.132
353.505
353.007
345.994
346.415
346.956
347.539
348.131
348.703
349.222
349.655
349.967
350.131
350.131
349.967
349.655
349.222
348.703
348.131
347.539
346.956
346.415
345.994
338.958
339.308
339.764
340.257
340.757
341.24
341.68
342.045
342.309
342.447
342.447
342.309
342.045
341.68
341.24
340.757
340.257
339.764
339.308
338.958
331.905
332.186
332.558
332.961
333.37
333.765
334.124
334.423
334.638
334.751
334.751
334.638
334.423
334.124
333.765
333.37
332.961
332.558
332.186
331.905
324.837
325.053
325.341
325.654
325.973
326.28
326.559
326.791
326.958
327.046
327.046
326.958
326.791
326.559
326.28
325.973
325.654
325.341
325.053
324.837
317.757
317.91
318.116
318.339
318.567
318.786
318.985
319.151
319.271
319.333
319.333
319.271
319.151
318.985
318.786
318.567
318.339
318.116
317.91
317.757
310.67
310.761
310.884
311.018
311.155
311.287
311.406
311.506
311.578
311.615
311.615
311.578
311.506
311.406
311.287
311.155
311.018
310.884
310.761
310.67
303.577
303.608
303.649
303.694
303.74
303.784
303.824
303.857
303.881
303.894
303.894
303.881
303.857
303.824
303.784
303.74
303.694
303.649
303.608
303.577
354.254
354.727
355.321
355.956
356.597
357.214
357.772
358.236
358.569
358.744
358.744
358.569
358.236
357.772
357.214
356.597
355.956
355.321
354.727
354.254
347.074
347.475
347.987
348.537
349.092
349.626
350.109
350.51
350.799
350.95
350.95
350.799
350.51
350.109
349.626
349.092
348.537
347.987
347.475
347.074
339.873
340.205
340.637
341.101
341.571
342.022
342.431
342.77
343.013
343.141
343.141
343.013
342.77
342.431
342.022
341.571
341.101
340.637
340.205
339.873
332.653
332.92
333.272
333.652
334.036
334.405
334.739
335.016
335.215
335.32
335.32
335.215
335.016
334.739
334.405
334.036
333.652
333.272
332.92
332.653
325.419
325.624
325.897
326.192
326.491
326.778
327.037
327.253
327.408
327.489
327.489
327.408
327.253
327.037
326.778
326.491
326.192
325.897
325.624
325.419
318.173
318.318
318.513
318.724
318.937
319.142
319.328
319.481
319.592
319.65
319.65
319.592
319.481
319.328
319.142
318.937
318.724
318.513
318.318
318.173
310.919
311.006
311.123
311.249
311.377
311.501
311.612
311.704
311.771
311.805
311.805
311.771
311.704
311.612
311.501
311.377
311.249
311.123
311.006
310.919
303.661
303.69
303.729
303.771
303.814
303.856
303.893
303.924
303.946
303.958
303.958
303.946
303.924
303.893
303.856
303.814
303.771
303.729
303.69
303.661
355.689
356.136
356.695
357.289
357.886
358.458
358.973
359.4
359.705
359.865
359.865
359.705
359.4
358.973
358.458
357.886
357.289
356.695
356.136
355.689
348.318
348.696
349.178
349.693
350.21
350.705
351.151
351.52
351.784
351.923
351.923
351.784
351.52
351.151
350.705
350.21
349.693
349.178
348.696
348.318
340.925
341.238
341.644
342.08
342.517
342.936
343.313
343.625
343.848
343.965
343.965
343.848
343.625
343.313
342.936
342.517
342.08
341.644
341.238
340.925
333.514
333.766
334.097
334.453
334.811
335.153
335.462
335.717
335.899
335.995
335.995
335.899
335.717
335.462
335.153
334.811
334.453
334.097
333.766
333.514
326.088
326.282
326.539
326.815
327.094
327.36
327.6
327.798
327.94
328.014
328.014
327.94
327.798
327.6
327.36
327.094
326.815
326.539
326.282
326.088
318.651
318.788
318.972
319.169
319.368
319.558
319.73
319.871
319.973
320.026
320.026
319.973
319.871
319.73
319.558
319.368
319.169
318.972
318.788
318.651
311.207
311.288
311.398
311.517
311.636
311.751
311.854
311.939
311.999
312.031
312.031
311.999
311.939
311.854
311.751
311.636
311.517
311.398
311.288
311.207
303.757
303.784
303.821
303.861
303.901
303.939
303.974
304.002
304.023
304.033
304.033
304.023
304.002
303.974
303.939
303.901
303.861
303.821
303.784
303.757
357.314
357.734
358.256
358.81
359.363
359.89
360.362
360.752
361.03
361.175
361.175
361.03
360.752
360.362
359.89
359.363
358.81
358.256
357.734
357.314
349.726
350.081
350.532
351.011
351.49
351.947
352.356
352.693
352.934
353.059
353.059
352.934
352.693
352.356
351.947
351.49
351.011
350.532
350.081
349.726
342.116
342.41
342.791
343.196
343.601
343.987
344.333
344.618
344.822
344.928
344.928
344.822
344.618
344.333
343.987
343.601
343.196
342.791
342.41
342.116
334.488
334.725
335.035
335.367
335.698
336.014
336.297
336.53
336.697
336.783
336.783
336.697
336.53
336.297
336.014
335.698
335.367
335.035
334.725
334.488
326.846
327.028
327.269
327.526
327.784
328.03
328.25
328.431
328.561
328.628
328.628
328.561
328.431
328.25
328.03
327.784
327.526
327.269
327.028
326.846
319.193
319.322
319.493
319.677
319.862
320.037
320.194
320.324
320.416
320.464
320.464
320.416
320.324
320.194
320.037
319.862
319.677
319.493
319.322
319.193
311.532
311.609
311.712
311.822
311.933
312.038
312.133
312.21
312.266
312.295
312.295
312.266
312.21
312.133
312.038
311.933
311.822
311.712
311.609
311.532
303.866
303.892
303.926
303.963
304
304.036
304.067
304.093
304.112
304.122
304.122
304.112
304.093
304.067
304.036
304
303.963
303.926
303.892
303.866
359.131
359.524
360.011
360.523
361.033
361.516
361.947
362.3
362.552
362.683
362.683
362.552
362.3
361.947
361.516
361.033
360.523
360.011
359.524
359.131
351.301
351.633
352.053
352.497
352.938
353.357
353.73
354.036
354.254
354.368
354.368
354.254
354.036
353.73
353.357
352.938
352.497
352.053
351.633
351.301
343.449
343.724
344.078
344.453
344.827
345.181
345.497
345.755
345.94
346.036
346.036
345.94
345.755
345.497
345.181
344.827
344.453
344.078
343.724
343.449
335.579
335.8
336.089
336.396
336.702
336.991
337.249
337.461
337.612
337.69
337.69
337.612
337.461
337.249
336.991
336.702
336.396
336.089
335.8
335.579
327.694
327.865
328.089
328.327
328.565
328.79
328.991
329.156
329.273
329.334
329.334
329.273
329.156
328.991
328.79
328.565
328.327
328.089
327.865
327.694
319.799
319.92
320.079
320.25
320.42
320.581
320.724
320.842
320.925
320.969
320.969
320.925
320.842
320.724
320.581
320.42
320.25
320.079
319.92
319.799
311.896
311.968
312.064
312.166
312.268
312.365
312.451
312.522
312.572
312.598
312.598
312.572
312.522
312.451
312.365
312.268
312.166
312.064
311.968
311.896
303.988
304.012
304.044
304.079
304.113
304.145
304.174
304.198
304.215
304.223
304.223
304.215
304.198
304.174
304.145
304.113
304.079
304.044
304.012
303.988
361.144
361.509
361.961
362.433
362.901
363.341
363.732
364.052
364.279
364.397
364.397
364.279
364.052
363.732
363.341
362.901
362.433
361.961
361.509
361.144
353.045
353.354
353.743
354.153
354.558
354.939
355.278
355.555
355.751
355.854
355.854
355.751
355.555
355.278
354.939
354.558
354.153
353.743
353.354
353.045
344.924
345.181
345.509
345.855
346.198
346.52
346.807
347.041
347.208
347.294
347.294
347.208
347.041
346.807
346.52
346.198
345.855
345.509
345.181
344.924
336.786
336.992
337.26
337.543
337.823
338.088
338.322
338.514
338.65
338.72
338.72
338.65
338.514
338.322
338.088
337.823
337.543
337.26
336.992
336.786
328.634
328.792
329
329.22
329.438
329.643
329.826
329.975
330.081
330.136
330.136
330.081
329.975
329.826
329.643
329.438
329.22
329
328.792
328.634
320.47
320.582
320.73
320.888
321.044
321.19
321.321
321.427
321.503
321.542
321.542
321.503
321.427
321.321
321.19
321.044
320.888
320.73
320.582
320.47
312.299
312.366
312.455
312.549
312.643
312.731
312.809
312.873
312.919
312.942
312.942
312.919
312.873
312.809
312.731
312.643
312.549
312.455
312.366
312.299
304.123
304.146
304.175
304.207
304.238
304.268
304.294
304.316
304.331
304.339
304.339
304.331
304.316
304.294
304.268
304.238
304.207
304.175
304.146
304.123
363.353
363.692
364.108
364.543
364.97
365.37
365.724
366.011
366.215
366.321
366.321
366.215
366.011
365.724
365.37
364.97
364.543
364.108
363.692
363.353
354.959
355.245
355.605
355.981
356.351
356.698
357.005
357.254
357.43
357.522
357.522
357.43
357.254
357.005
356.698
356.351
355.981
355.605
355.245
354.959
346.544
346.781
347.084
347.403
347.716
348.009
348.269
348.48
348.629
348.706
348.706
348.629
348.48
348.269
348.009
347.716
347.403
347.084
346.781
346.544
338.111
338.302
338.55
338.81
339.066
339.306
339.518
339.691
339.813
339.877
339.877
339.813
339.691
339.518
339.306
339.066
338.81
338.55
338.302
338.111
329.664
329.811
330.003
330.205
330.405
330.592
330.757
330.891
330.986
331.035
331.035
330.986
330.891
330.757
330.592
330.405
330.205
330.003
329.811
329.664
321.207
321.311
321.447
321.592
321.734
321.868
321.986
322.082
322.15
322.185
322.185
322.15
322.082
321.986
321.868
321.734
321.592
321.447
321.311
321.207
312.742
312.804
312.886
312.972
313.058
313.138
313.209
313.267
313.307
313.329
313.329
313.307
313.267
313.209
313.138
313.058
312.972
312.886
312.804
312.742
304.272
304.292
304.32
304.349
304.378
304.404
304.428
304.448
304.461
304.468
304.468
304.461
304.448
304.428
304.404
304.378
304.349
304.32
304.292
304.272
365.758
366.072
366.455
366.853
367.241
367.604
367.923
368.181
368.364
368.458
368.458
368.364
368.181
367.923
367.604
367.241
366.853
366.455
366.072
365.758
357.043
357.308
357.639
357.983
358.32
358.635
358.911
359.135
359.293
359.375
359.375
359.293
359.135
358.911
358.635
358.32
357.983
357.639
357.308
357.043
348.307
348.527
348.806
349.097
349.382
349.648
349.882
350.072
350.205
350.274
350.274
350.205
350.072
349.882
349.648
349.382
349.097
348.806
348.527
348.307
339.553
339.73
339.958
340.196
340.43
340.647
340.839
340.994
341.103
341.16
341.16
341.103
340.994
340.839
340.647
340.43
340.196
339.958
339.73
339.553
330.786
330.922
331.099
331.284
331.466
331.635
331.784
331.905
331.99
332.034
332.034
331.99
331.905
331.784
331.635
331.466
331.284
331.099
330.922
330.786
322.008
322.105
322.23
322.363
322.493
322.614
322.72
322.806
322.867
322.899
322.899
322.867
322.806
322.72
322.614
322.493
322.363
322.23
322.105
322.008
313.223
313.28
313.356
313.435
313.513
313.586
313.65
313.702
313.738
313.757
313.757
313.738
313.702
313.65
313.586
313.513
313.435
313.356
313.28
313.223
304.433
304.452
304.477
304.504
304.53
304.555
304.576
304.593
304.606
304.612
304.612
304.606
304.593
304.576
304.555
304.53
304.504
304.477
304.452
304.433
368.357
368.646
368.998
369.361
369.714
370.042
370.329
370.56
370.723
370.807
370.807
370.723
370.56
370.329
370.042
369.714
369.361
368.998
368.646
368.357
359.293
359.538
359.842
360.157
360.463
360.747
360.996
361.196
361.337
361.41
361.41
361.337
361.196
360.996
360.747
360.463
360.157
359.842
359.538
359.293
350.21
350.413
350.669
350.935
351.195
351.435
351.646
351.815
351.935
351.997
351.997
351.935
351.815
351.646
351.435
351.195
350.935
350.669
350.413
350.21
341.11
341.274
341.482
341.7
341.912
342.109
342.281
342.421
342.518
342.569
342.569
342.518
342.421
342.281
342.109
341.912
341.7
341.482
341.274
341.11
331.997
332.122
332.284
332.454
332.619
332.772
332.906
333.014
333.09
333.13
333.13
333.09
333.014
332.906
332.772
332.619
332.454
332.284
332.122
331.997
322.873
322.962
323.078
323.199
323.317
323.426
323.522
323.599
323.654
323.682
323.682
323.654
323.599
323.522
323.426
323.317
323.199
323.078
322.962
322.873
313.742
313.795
313.865
313.937
314.008
314.074
314.132
314.178
314.211
314.228
314.228
314.211
314.178
314.132
314.074
314.008
313.937
313.865
313.795
313.742
304.607
304.625
304.648
304.672
304.696
304.718
304.737
304.753
304.764
304.77
304.77
304.764
304.753
304.737
304.718
304.696
304.672
304.648
304.625
304.607
371.137
371.404
371.726
372.057
372.377
372.673
372.931
373.138
373.283
373.358
373.358
373.283
373.138
372.931
372.673
372.377
372.057
371.726
371.404
371.137
361.7
361.926
362.204
362.491
362.769
363.025
363.248
363.428
363.554
363.619
363.619
363.554
363.428
363.248
363.025
362.769
362.491
362.204
361.926
361.7
352.245
352.431
352.666
352.909
353.144
353.361
353.55
353.702
353.809
353.864
353.864
353.809
353.702
353.55
353.361
353.144
352.909
352.666
352.431
352.245
342.773
342.923
343.115
343.313
343.506
343.684
343.838
343.963
344.05
344.095
344.095
344.05
343.963
343.838
343.684
343.506
343.313
343.115
342.923
342.773
333.29
333.405
333.553
333.708
333.858
333.996
334.116
334.213
334.281
334.316
334.316
334.281
334.213
334.116
333.996
333.858
333.708
333.553
333.405
333.29
323.796
323.878
323.984
324.094
324.201
324.3
324.386
324.456
324.504
324.529
324.529
324.504
324.456
324.386
324.3
324.201
324.094
323.984
323.878
323.796
314.297
314.345
314.409
314.475
314.539
314.599
314.651
314.692
314.721
314.736
314.736
314.721
314.692
314.651
314.599
314.539
314.475
314.409
314.345
314.297
304.793
304.809
304.83
304.853
304.874
304.894
304.911
304.925
304.935
304.94
304.94
304.935
304.925
304.911
304.894
304.874
304.853
304.83
304.809
304.793
374.071
374.315
374.611
374.912
375.203
375.469
375.701
375.886
376.016
376.082
376.082
376.016
375.886
375.701
375.469
375.203
374.912
374.611
374.315
374.071
364.235
364.442
364.696
364.958
365.21
365.441
365.642
365.803
365.915
365.973
365.973
365.915
365.803
365.642
365.441
365.21
364.958
364.696
364.442
364.235
354.383
354.554
354.769
354.991
355.204
355.4
355.57
355.706
355.801
355.85
355.85
355.801
355.706
355.57
355.4
355.204
354.991
354.769
354.554
354.383
344.519
344.657
344.832
345.013
345.188
345.348
345.487
345.599
345.677
345.717
345.717
345.677
345.599
345.487
345.348
345.188
345.013
344.832
344.657
344.519
334.645
334.751
334.887
335.027
335.163
335.288
335.397
335.483
335.544
335.575
335.575
335.544
335.483
335.397
335.288
335.163
335.027
334.887
334.751
334.645
324.763
324.838
324.935
325.036
325.133
325.222
325.3
325.362
325.405
325.428
325.428
325.405
325.362
325.3
325.222
325.133
325.036
324.935
324.838
324.763
314.877
314.921
314.98
315.04
315.098
315.152
315.199
315.236
315.262
315.275
315.275
315.262
315.236
315.199
315.152
315.098
315.04
314.98
314.921
314.877
304.987
305.002
305.022
305.042
305.061
305.079
305.095
305.108
305.116
305.121
305.121
305.116
305.108
305.095
305.079
305.061
305.042
305.022
305.002
304.987
377.08
377.305
377.576
377.851
378.114
378.355
378.564
378.73
378.846
378.906
378.906
378.846
378.73
378.564
378.355
378.114
377.851
377.576
377.305
377.08
366.823
367.013
367.247
367.485
367.714
367.923
368.104
368.249
368.349
368.401
368.401
368.349
368.249
368.104
367.923
367.714
367.485
367.247
367.013
366.823
356.558
356.715
356.913
357.115
357.308
357.486
357.639
357.761
357.847
357.891
357.891
357.847
357.761
357.639
357.486
357.308
357.115
356.913
356.715
356.558
346.287
346.414
346.575
346.741
346.899
347.045
347.17
347.271
347.34
347.376
347.376
347.34
347.271
347.17
347.045
346.899
346.741
346.575
346.414
346.287
336.014
336.111
336.236
336.365
336.488
336.601
336.699
336.777
336.832
336.86
336.86
336.832
336.777
336.699
336.601
336.488
336.365
336.236
336.111
336.014
325.738
325.807
325.896
325.988
326.076
326.157
326.227
326.283
326.322
326.342
326.342
326.322
326.283
326.227
326.157
326.076
325.988
325.896
325.807
325.738
315.461
315.502
315.555
315.61
315.664
315.712
315.754
315.788
315.811
315.823
315.823
315.811
315.788
315.754
315.712
315.664
315.61
315.555
315.502
315.461
305.183
305.196
305.214
305.233
305.251
305.267
305.281
305.292
305.3
305.304
305.304
305.3
305.292
305.281
305.267
305.251
305.233
305.214
305.196
305.183
379.972
380.18
380.429
380.682
380.923
381.143
381.332
381.483
381.587
381.641
381.641
381.587
381.483
381.332
381.143
380.923
380.682
380.429
380.18
379.972
369.279
369.455
369.671
369.891
370.1
370.291
370.456
370.587
370.678
370.725
370.725
370.678
370.587
370.456
370.291
370.1
369.891
369.671
369.455
369.279
358.599
358.746
358.928
359.114
359.292
359.454
359.593
359.705
359.782
359.822
359.822
359.782
359.705
359.593
359.454
359.292
359.114
358.928
358.746
358.599
347.933
348.051
348.199
348.352
348.498
348.631
348.745
348.836
348.9
348.932
348.932
348.9
348.836
348.745
348.631
348.498
348.352
348.199
348.051
347.933
337.278
337.368
337.484
337.603
337.716
337.82
337.909
337.98
338.03
338.055
338.055
338.03
337.98
337.909
337.82
337.716
337.603
337.484
337.368
337.278
326.633
326.697
326.779
326.864
326.945
327.019
327.083
327.134
327.17
327.188
327.188
327.17
327.134
327.083
327.019
326.945
326.864
326.779
326.697
326.633
315.995
316.033
316.082
316.133
316.182
316.227
316.265
316.296
316.317
316.328
316.328
316.317
316.296
316.265
316.227
316.182
316.133
316.082
316.033
315.995
305.361
305.374
305.39
305.408
305.424
305.439
305.452
305.462
305.469
305.473
305.473
305.469
305.462
305.452
305.439
305.424
305.408
305.39
305.374
305.361
382.236
382.432
382.666
382.903
383.129
383.334
383.51
383.65
383.747
383.797
383.797
383.747
383.65
383.51
383.334
383.129
382.903
382.666
382.432
382.236
371.13
371.296
371.5
371.706
371.903
372.082
372.235
372.357
372.442
372.486
372.486
372.442
372.357
372.235
372.082
371.903
371.706
371.5
371.296
371.13
360.091
360.229
360.401
360.577
360.744
360.896
361.027
361.131
361.203
361.24
361.24
361.203
361.131
361.027
360.896
360.744
360.577
360.401
360.229
360.091
349.105
349.217
349.358
349.502
349.639
349.764
349.872
349.957
350.016
350.047
350.047
350.016
349.957
349.872
349.764
349.639
349.502
349.358
349.217
349.105
338.162
338.247
338.357
338.469
338.577
338.674
338.758
338.825
338.871
338.895
338.895
338.871
338.825
338.758
338.674
338.577
338.469
338.357
338.247
338.162
327.25
327.31
327.389
327.469
327.546
327.616
327.676
327.724
327.757
327.774
327.774
327.757
327.724
327.676
327.616
327.546
327.469
327.389
327.31
327.25
316.36
316.396
316.443
316.491
316.538
316.58
316.616
316.644
316.664
316.675
316.675
316.664
316.644
316.616
316.58
316.538
316.491
316.443
316.396
316.36
305.482
305.495
305.51
305.527
305.542
305.556
305.568
305.578
305.585
305.588
305.588
305.585
305.578
305.568
305.556
305.542
305.527
305.51
305.495
305.482
)
;

boundaryField
{
    hotSide
    {
        type            fixedGradient;
        gradient        nonuniform List<scalar> 
400
(
519.542
521.403
525.131
530.739
538.243
547.665
559.031
572.367
587.701
605.062
624.477
645.971
669.568
695.289
723.153
753.175
785.368
819.743
856.31
895.074
527.241
529.041
532.649
538.082
545.363
554.521
565.587
578.599
593.591
610.6
629.659
650.8
674.052
699.439
726.983
756.701
788.609
822.718
859.037
897.571
535.572
537.3
540.765
545.991
553.008
561.854
572.571
585.206
599.803
616.409
635.065
655.809
678.675
703.693
730.886
760.276
791.876
825.7
861.755
900.048
544.399
546.041
549.341
554.328
561.04
569.528
579.847
592.054
606.208
622.365
640.574
660.883
683.331
707.952
734.772
763.813
795.092
828.619
864.403
902.448
553.473
555.021
558.135
562.852
569.226
577.317
587.197
598.938
612.612
628.285
646.02
665.869
687.879
712.087
738.523
767.209
798.161
831.391
866.905
904.706
562.418
563.864
566.779
571.21
577.224
584.897
594.318
605.573
618.751
633.929
651.181
670.568
692.141
715.941
742
770.34
800.978
833.922
869.179
906.749
570.721
572.064
574.781
578.928
584.586
591.848
600.819
611.603
624.301
639.006
655.8
674.751
695.915
719.337
745.048
773.072
803.423
836.111
871.137
908.501
577.767
579.019
581.557
585.449
590.788
597.684
606.256
616.625
628.904
643.198
659.596
678.174
698.99
722.091
747.51
775.269
805.383
837.858
872.695
909.89
582.924
584.105
586.506
590.204
595.3
601.918
610.19
620.246
632.213
646.2
662.306
680.607
701.169
724.036
749.243
776.812
806.755
839.078
873.78
910.855
585.656
586.799
589.126
592.717
597.682
604.15
612.259
622.147
633.945
647.769
663.718
681.874
702.3
725.044
750.14
777.608
807.462
839.705
874.337
911.35
585.656
586.799
589.126
592.717
597.682
604.15
612.259
622.147
633.945
647.769
663.718
681.874
702.3
725.044
750.14
777.608
807.462
839.705
874.337
911.35
582.924
584.105
586.506
590.204
595.3
601.918
610.19
620.246
632.213
646.2
662.306
680.607
701.169
724.036
749.243
776.812
806.755
839.078
873.78
910.855
577.767
579.019
581.557
585.449
590.788
597.684
606.256
616.625
628.904
643.198
659.596
678.174
698.99
722.091
747.51
775.269
805.383
837.858
872.695
909.89
570.721
572.064
574.781
578.928
584.586
591.848
600.819
611.603
624.301
639.006
655.8
674.751
695.915
719.337
745.048
773.072
803.423
836.111
871.137
908.501
562.418
563.864
566.779
571.21
577.224
584.897
594.318
605.573
618.751
633.929
651.181
670.568
692.141
715.941
742
770.34
800.978
833.922
869.179
906.749
553.473
555.021
558.135
562.852
569.226
577.317
587.197
598.938
612.612
628.285
646.02
665.869
687.879
712.087
738.523
767.209
798.161
831.391
866.905
904.706
544.399
546.041
549.341
554.328
561.04
569.528
579.847
592.054
606.208
622.365
640.574
660.883
683.331
707.952
734.772
763.813
795.092
828.619
864.403
902.448
535.572
537.3
540.765
545.991
553.008
561.854
572.571
585.206
599.803
616.409
635.065
655.809
678.675
703.693
730.886
760.276
791.876
825.7
861.755
900.048
527.241
529.041
532.649
538.082
545.363
554.521
565.587
578.599
593.591
610.6
629.659
650.8
674.052
699.439
726.983
756.701
788.609
822.718
859.037
897.571
519.542
521.403
525.131
530.739
538.243
547.665
559.031
572.367
587.701
605.062
624.477
645.971
669.568
695.289
723.153
753.175
785.368
819.743
856.31
895.074
)
;
    }
    coldSide
    {
        type            mixed;
        refValue        uniform 300;
        refGradient     uniform 0;
        valueFraction   uniform 0.991591;
        source          uniform 0;
        value           nonuniform List<scalar> 
400
(
300.028
300.028
300.028
300.029
300.029
300.029
300.03
300.031
300.032
300.033
300.034
300.035
300.036
300.037
300.039
300.04
300.042
300.044
300.045
300.046
300.028
300.028
300.029
300.029
300.029
300.03
300.03
300.031
300.032
300.033
300.034
300.035
300.036
300.037
300.039
300.04
300.042
300.044
300.045
300.046
300.029
300.029
300.029
300.029
300.03