/*--------------------------------*- C++ -*----------------------------------*\
| =========                 |                                                 |
| \\      /  F ield         | OpenFOAM: The Open Source CFD Toolbox           |
|  \\    /   O peration     | Version:  2212                                  |
|   \\  /    A nd           | Website:  www.openfoam.com                      |
|    \\/     M anipulation  |                                                 |
\*---------------------------------------------------------------------------*/
FoamFile
{
    version     2.0;
    format      ascii;
    arch        "LSB;label=32;scalar=64";
    class       volScalarField;
    location    "./ITHACAoutput/true/8";
    object      error;
}
// * * * * * * * * * * * * * * * * * * * * * * * * * * * * * * * * * * * * * //

dimensions      [0 0 0 1 0 0 0];

internalField   nonuniform List<scalar> 
3200
(
0.1965
-0.174589
-0.317902
-0.312001
-0.185247
0.044353
0.464987
0.848269
1.23213
1.64952
1.88498
1.99614
2.07803
2.21543
2.42127
2.49609
2.70001
3.21035
3.67333
4.21296
0.154729
-0.105903
-0.298467
-0.274908
-0.187463
-0.02441
0.280786
0.706411
0.989313
1.29059
1.51814
1.67389
1.84502
1.89359
1.96332
2.12281
2.32245
2.67186
3.11486
3.55484
0.0509926
-0.134837
-0.26123
-0.275243
-0.244636
-0.0733212
0.225216
0.512679
0.848069
1.10246
1.26476
1.34422
1.44604
1.57888
1.64261
1.75715
1.9701
2.27182
2.58305
3.0083
0.0216436
-0.128319
-0.24739
-0.204259
-0.20723
-0.0362628
0.0915164
0.421058
0.659601
0.892177
0.949389
1.09125
1.19849
1.24742
1.41422
1.38571
1.51878
1.7839
2.14494
2.38634
0.00647104
-0.119213
-0.264675
-0.172103
-0.181799
-0.0938555
0.140188
0.22005
0.433374
0.687943
0.740119
0.825224
0.87077
0.906673
0.994465
1.09007
1.17291
1.44155
1.58355
1.83586
0.000886818
-0.116509
-0.219736
-0.155862
-0.146196
-0.140903
0.107975
0.19743
0.344263
0.339475
0.539018
0.624437
0.61792
0.614076
0.746366
0.727438
0.837299
0.975545
1.18513
1.31864
-0.0120245
-0.0253405
-0.121549
-0.0641687
-0.0468589
-0.0416128
0.0188867
0.13361
0.133565
0.242153
0.340593
0.341691
0.305892
0.369853
0.438028
0.420649
0.487565
0.544955
0.735806
0.781901
0.0456866
0.0299378
0.0425136
0.00205055
-0.0483501
0.008562
0.0824468
-0.0417565
0.098159
0.0431206
0.10388
0.0511323
0.104987
0.123143
0.140162
0.161223
0.146174
0.18392
0.219733
0.293902
-0.794419
-1.07233
-1.27555
-1.32111
-1.29945
-1.04661
-0.713276
-0.214382
0.151516
0.569888
0.729699
1.02437
1.04606
1.2645
1.39163
1.4969
1.87655
2.21154
2.78223
3.37916
-0.701277
-0.968727
-1.13182
-1.14148
-1.0506
-0.841148
-0.650574
-0.142623
0.103625
0.435296
0.68512
0.828921
0.945445
1.04049
1.14457
1.36973
1.58847
1.94639
2.4239
2.8696
-0.549495
-0.795199
-0.970105
-1.02353
-0.937043
-0.746835
-0.467433
-0.254912
0.143654
0.350523
0.548941
0.649558
0.74133
0.85692
0.934199
1.13501
1.3129
1.61207
1.9981
2.45369
-0.465658
-0.610502
-0.793551
-0.800837
-0.734066
-0.576518
-0.419164
-0.149626
0.0904431
0.232316
0.479824
0.559402
0.634332
0.664243
0.743159
0.871734
1.04179
1.29607
1.65778
1.94348
-0.402357
-0.448293
-0.564788
-0.597012
-0.606812
-0.480815
-0.33815
-0.0887986
0.132579
0.205745
0.347385
0.41788
0.496113
0.548294
0.573216
0.667771
0.891794
1.04021
1.26978
1.53761
-0.256324
-0.28597
-0.385574
-0.495889
-0.413073
-0.323771
-0.220901
-0.0998243
0.0436492
0.100587
0.292529
0.282106
0.344491
0.387043
0.394526
0.507364
0.621488
0.739445
0.895528
1.09539
-0.120585
-0.192807
-0.251795
-0.226912
-0.248504
-0.15838
-0.108605
-0.0171194
-0.00605435
0.143932
0.192069
0.193089
0.193023
0.260235
0.232166
0.293232
0.340344
0.381224
0.510963
0.665597
-0.0255745
-0.0930119
-0.0642082
-0.0403726
-0.040351
-0.0453663
-0.0384749
-0.036981
-0.0331135
0.0117787
0.015766
-0.0288361
0.0444478
0.108469
0.0904056
0.0659827
0.116863
0.056611
0.212622
0.172355
-1.89346
-2.21828
-2.48056
-2.54614
-2.44347
-2.35208
-2.02083
-1.661
-1.15509
-0.951877
-0.611924
-0.422522
-0.275088
-0.0607123
0.158871
0.247214
0.669323
1.13827
1.74045
2.35964
-1.5723
-1.88175
-2.12719
-2.244
-2.11934
-1.99142
-1.74069
-1.3585
-1.0106
-0.76901
-0.4635
-0.319271
-0.236509
-0.0338445
0.0826671
0.280682
0.585235
0.999915
1.55778
2.0671
-1.29024
-1.6252
-1.77728
-1.9001
-1.78319
-1.66167
-1.43972
-1.09508
-0.900705
-0.633389
-0.387583
-0.305591
-0.190973
-0.0376233
0.0752763
0.29454
0.508112
0.897885
1.24473
1.71086
-1.10398
-1.24109
-1.46879
-1.54304
-1.49094
-1.35621
-1.12089
-0.943184
-0.771448
-0.453879
-0.322708
-0.226693
-0.15154
-0.0947999
0.0267979
0.198348
0.45382
0.758895
1.03448
1.44203
-0.833685
-0.961325
-1.0694
-1.14453
-1.0956
-1.02907
-0.913322
-0.720449
-0.504873
-0.35638
-0.24499
-0.127598
-0.121727
0.0124672
0.00352958
0.141448
0.259002
0.490785
0.869777
1.02167
-0.559455
-0.664124
-0.741924
-0.868441
-0.792699
-0.712367
-0.586446
-0.533769
-0.429627
-0.277985
-0.130768
-0.0629055
-0.0262861
-0.0407062
-0.0349496
0.196106
0.291101
0.376694
0.560405
0.779118
-0.371103
-0.384956
-0.472596
-0.509315
-0.447407
-0.484396
-0.39861
-0.291879
-0.24523
-0.226035
-0.0990949
-0.145655
-0.0425764
0.00136529
0.00877245
0.0529918
0.127899
0.140882
0.344805
0.470106
-0.0822417
-0.178277
-0.122619
-0.160749
-0.112615
-0.226502
-0.123307
-0.126682
-0.12227
-0.00849672
-0.0555198
-0.0742662
0.00914161
-0.022654
0.0164903
0.0260186
0.0628525
0.0683621
0.14088
0.214646
-2.88346
-3.30159
-3.64142
-3.82081
-3.76475
-3.68282
-3.31645
-2.97941
-2.58146
-2.2808
-1.93141
-1.73941
-1.53814
-1.29563
-1.1415
-0.824791
-0.425131
0.153997
0.804637
1.39623
-2.46215
-2.83921
-3.04979
-3.21959
-3.17828
-3.07463
-2.84555
-2.53208
-2.1759
-1.85858
-1.66317
-1.45614
-1.32728
-1.12773
-0.915036
-0.762002
-0.337636
0.131226
0.71265
1.19354
-2.1235
-2.38219
-2.60347
-2.66511
-2.71316
-2.54845
-2.34368
-2.13803
-1.84422
-1.65523
-1.4447
-1.27897
-1.06563
-0.97158
-0.7475
-0.569746
-0.303848
0.0831055
0.549858
1.03711
-1.66513
-1.96725
-2.05557
-2.13802
-2.14825
-2.1618
-1.94223
-1.7344
-1.51842
-1.31196
-1.16563
-0.985112
-0.913532
-0.750599
-0.67259
-0.471622
-0.199522
0.0401516
0.49705
0.811002
-1.31152
-1.46846
-1.64341
-1.68358
-1.67304
-1.58938
-1.51735
-1.32777
-1.20816
-0.992508
-0.95433
-0.848685
-0.665994
-0.643811
-0.533248
-0.377555
-0.173913
0.0408895
0.370255
0.648348
-0.983927
-1.02646
-1.12062
-1.22083
-1.14778
-1.11634
-1.03893
-0.930917
-0.891896
-0.76361
-0.616222
-0.538402
-0.503371
-0.398592
-0.327552
-0.343753
-0.0936999
0.0591886
0.279418
0.530398
-0.577279
-0.58231
-0.628922
-0.661526
-0.761149
-0.68083
-0.69407
-0.597332
-0.518421
-0.480182
-0.398276
-0.360336
-0.321841
-0.209638
-0.256094
-0.134326
-0.0998638
0.00255769
0.141928
0.270527
-0.208732
-0.251771
-0.244064
-0.310405
-0.17539
-0.232733
-0.282557
-0.245344
-0.155627
-0.122939
-0.154714
-0.160352
-0.0949745
-0.0732062
-0.0690917
-0.0429008
-0.0447464
0.0252514
0.0438471
0.10367
-3.80977
-4.23928
-4.58902
-4.87064
-4.8634
-4.72127
-4.44077
-4.1653
-3.85111
-3.51463
-3.26695
-2.98289
-2.76632
-2.55461
-2.26132
-1.93921
-1.39653
-0.834616
-0.00548351
0.747071
-3.22532
-3.66171
-3.91486
-4.1447
-4.14783
-4.03466
-3.87855
-3.56059
-3.2993
-3.06416
-2.66405
-2.55854
-2.36981
-2.14685
-1.88646
-1.5971
-1.15555
-0.615136
0.0355588
0.612568
-2.67742
-2.98653
-3.30075
-3.43764
-3.4558
-3.35817
-3.26126
-2.99472
-2.75537
-2.49008
-2.27438
-2.11245
-1.96238
-1.80474
-1.61637
-1.33289
-0.992218
-0.58076
0.0110772
0.492035
-2.13197
-2.42298
-2.6952
-2.80319
-2.7979
-2.77884
-2.60527
-2.43548
-2.2821
-2.07921
-1.87383
-1.78305
-1.58112
-1.4056
-1.34471
-1.05965
-0.757432
-0.422757
-0.0393752
0.412256
-1.70676
-1.89712
-2.04785
-2.21893
-2.16972
-2.19581
-2.04666
-1.91543
-1.70377
-1.56217
-1.51652
-1.34071
-1.2802
-1.09919
-1.01385
-0.890628
-0.602085
-0.320716
0.0313471
0.265447
-1.18644
-1.32885
-1.47926
-1.56944
-1.56686
-1.47084
-1.39964
-1.2406
-1.175
-1.13451
-1.03275
-0.964707
-0.932107
-0.786217
-0.677879
-0.606956
-0.450276
-0.246609
0.0308349
0.247068
-0.773791
-0.825042
-0.884669
-0.828672
-0.976733
-0.863359
-0.907867
-0.834851
-0.704531
-0.680818
-0.667698
-0.602277
-0.498955
-0.524661
-0.430484
-0.373591
-0.252716
-0.194369
0.00807418
0.127214
-0.194173
-0.314475
-0.339569
-0.268081
-0.359523
-0.240416
-0.273578
-0.273581
-0.212975
-0.1651
-0.21659
-0.233565
-0.1723
-0.202134
-0.181643
-0.149286
-0.136939
-0.0183492
-0.0408184
0.0417032
-4.44578
-4.90197
-5.36049
-5.71118
-5.72724
-5.6695
-5.55801
-5.22131
-4.91466
-4.63849
-4.30489
-4.05394
-3.7645
-3.49536
-3.15517
-2.75783
-2.14152
-1.48633
-0.728474
0.131528
-3.85057
-4.25323
-4.59073
-4.85023
-4.93577
-4.82664
-4.76532
-4.493
-4.21153
-3.94179
-3.75207
-3.47266
-3.17094
-3.04349
-2.75979
-2.3014
-1.83189
-1.23912
-0.607222
0.0979622
-3.13936
-3.52398
-3.81707
-4.13811
-4.10924
-4.11656
-4.03046
-3.78069
-3.51124
-3.36224
-3.13393
-2.89419
-2.73938
-2.52317
-2.24057
-1.979
-1.4698
-1.06422
-0.487456
0.107905
-2.56409
-2.93052
-3.10984
-3.30146
-3.23455
-3.35215
-3.23376
-2.99892
-2.84577
-2.6016
-2.53118
-2.34807
-2.17038
-1.98744
-1.84104
-1.66399
-1.21894
-0.801083
-0.35082
0.0555176
-1.94655
-2.23267
-2.44138
-2.60821
-2.6019
-2.57559
-2.55015
-2.34862
-2.26018
-2.1061
-1.98144
-1.84248
-1.70208
-1.5717
-1.44405
-1.247
-0.962573
-0.712915
-0.250339
0.0838554
-1.40919
-1.53885
-1.66082
-1.79915
-1.88129
-1.81079
-1.77848
-1.6878
-1.5681
-1.52031
-1.40147
-1.26803
-1.22218
-1.05965
-0.998046
-0.883396
-0.688119
-0.473797
-0.283165
0.0135049
-0.823207
-0.918111
-1.03858
-1.10068
-1.12668
-1.05382
-0.99815
-1.05092
-0.926317
-0.861541
-0.822901
-0.739532
-0.705373
-0.744089
-0.62904
-0.477255
-0.430586
-0.32113
-0.0913533
0.0370527
-0.306994
-0.336534
-0.321291
-0.34998
-0.328033
-0.312285
-0.396498
-0.376689
-0.35788
-0.321412
-0.254126
-0.295832
-0.221859
-0.234623
-0.169137
-0.179292
-0.176734
-0.116411
-0.0853272
0.0354691
-4.83348
-5.38983
-5.97843
-6.26431
-6.34348
-6.44207
-6.24809
-6.09311
-5.78435
-5.541
-5.18096
-4.94383
-4.63271
-4.23891
-3.82616
-3.3121
-2.66525
-1.95477
-1.06803
-0.251603
-4.1371
-4.63128
-5.05558
-5.4063
-5.48619
-5.56386
-5.3674
-5.19196
-5.00116
-4.71517
-4.50925
-4.18397
-3.90086
-3.53453
-3.30174
-2.87948
-2.26995
-1.72464
-0.884668
-0.205079
-3.5187
-3.85234
-4.2659
-4.50748
-4.62085
-4.57676
-4.60001
-4.42395
-4.1484
-3.99923
-3.71063
-3.4779
-3.29288
-3.05032
-2.78377
-2.41181
-1.93092
-1.35048
-0.784571
-0.12619
-2.83157
-3.18123
-3.45188
-3.66475
-3.76236
-3.76978
-3.71289
-3.55221
-3.34279
-3.2318
-3.10295
-2.76448
-2.71551
-2.51444
-2.16666
-1.97349
-1.53755
-1.07215
-0.633908
-0.173426
-2.19924
-2.37598
-2.65235
-2.81525
-2.90934
-2.9326
-2.82979
-2.77949
-2.65846
-2.48148
-2.35808
-2.25942
-2.12361
-1.87769
-1.75358
-1.41699
-1.24743
-0.900933
-0.402899
-0.126774
-1.54317
-1.7467
-1.8783
-2.00506
-2.03028
-2.08076
-1.98434
-1.94596
-1.90005
-1.74755
-1.63655
-1.55709
-1.44078
-1.39902
-1.27539
-1.08467
-0.844567
-0.576819
-0.344988
-0.0725981
-0.960551
-1.01776
-1.08132
-1.18387
-1.24549
-1.27547
-1.21648
-1.15893
-1.11061
-1.09728
-0.986763
-0.944646
-0.929152
-0.815404
-0.732929
-0.600537
-0.49169
-0.333077
-0.187838
-0.0637046
-0.32645
-0.310219
-0.370601
-0.382325
-0.464862
-0.449099
-0.401127
-0.382778
-0.290128
-0.332096
-0.343261
-0.330872
-0.301277
-0.284925
-0.242737
-0.216174
-0.139247
-0.0714245
-0.0487471
-0.00701818
-5.08033
-5.75154
-6.25669
-6.62835
-6.87557
-6.95269
-6.90671
-6.68607
-6.42531
-6.19648
-5.80574
-5.55202
-5.20253
-4.74975
-4.21198
-3.71231
-2.97582
-2.16052
-1.21183
-0.356761
-4.3502
-4.89345
-5.34429
-5.67833
-5.90572
-5.93444
-5.87735
-5.74562
-5.54742
-5.21741
-5.02054
-4.75068
-4.42408
-4.13009
-3.61379
-3.2023
-2.61191
-1.82252
-1.03476
-0.305264
-3.6472
-4.04956
-4.50817
-4.72134
-4.9352
-5.00416
-4.89725
-4.76333
-4.60635
-4.40284
-4.18399
-3.98242
-3.70821
-3.42922
-3.06702
-2.63036
-2.09693
-1.61727
-0.938833
-0.281897
-2.96137
-3.29228
-3.63039
-3.83509
-3.96806
-4.00578
-4.05487
-3.89472
-3.78655
-3.64523
-3.4316
-3.26323
-3.00703
-2.75338
-2.5447
-2.21318
-1.70427
-1.28426
-0.731025
-0.231356
-2.29382
-2.5572
-2.77482
-3.01606
-3.05122
-3.15155
-3.13327
-3.0384
-2.9637
-2.83275
-2.66087
-2.54798
-2.33496
-2.09488
-1.99102
-1.68578
-1.35335
-0.97929
-0.575092
-0.208468
-1.67819
-1.77276
-2.04418
-2.13577
-2.25116
-2.2791
-2.16795
-2.19422
-2.13461
-1.97572
-1.91082
-1.80968
-1.63683
-1.50366
-1.35327
-1.2325
-0.943247
-0.58799
-0.343652
-0.17366
-0.915156
-1.04574
-1.22093
-1.29204
-1.35376
-1.30588
-1.34879
-1.24667
-1.29961
-1.20244
-1.16045
-1.0754
-0.96482
-0.861074
-0.818148
-0.753696
-0.594113
-0.375888
-0.297376
-0.0649097
-0.317911
-0.332777
-0.360773
-0.443113
-0.470273
-0.408528
-0.450478
-0.473535
-0.434262
-0.374601
-0.395231
-0.404167
-0.323401
-0.340605
-0.306354
-0.282204
-0.109397
-0.145332
-0.105398
-0.0307632
-5.02648
-5.67945
-6.30237
-6.73552
-7.0797
-7.16453
-7.1421
-7.02552
-6.75076
-6.51246
-6.29395
-5.88246
-5.4632
-5.00707
-4.40649
-3.81383
-3.15498
-2.17932
-1.17056
-0.150033
-4.26571
-4.75946
-5.42219
-5.74258
-6.02573
-6.21618
-6.1217
-6.04884
-5.77516
-5.56635
-5.42426
-5.0643
-4.73036
-4.34034
-3.80381
-3.21003
-2.54729
-1.84816
-0.987325
-0.240907
-3.64829
-4.04323
-4.53652
-4.90263
-4.98607
-5.20704
-5.18796
-5.07479
-4.97978
-4.75089
-4.47931
-4.26183
-3.93231
-3.60772
-3.20934
-2.79688
-2.19223
-1.60437
-0.800064
-0.123251
-2.98661
-3.29164
-3.66654
-3.9574
-4.05253
-4.22248
-4.19116
-4.07476
-3.98773
-3.84976
-3.68067
-3.45372
-3.2374
-2.8978
-2.62669
-2.2196
-1.75715
-1.24682
-0.657141
-0.107084
-2.28704
-2.54722
-2.87338
-3.01044
-3.20173
-3.23959
-3.28268
-3.15753
-3.07757
-2.97544
-2.76326
-2.65908
-2.49585
-2.3008
-1.98827
-1.71605
-1.2976
-0.944432
-0.468114
-0.128187
-1.63102
-1.77425
-2.04501
-2.19938
-2.30762
-2.28183
-2.35922
-2.22927
-2.25001
-2.15233
-2.00424
-1.90507
-1.8246
-1.59331
-1.42225
-1.1899
-1.0029
-0.693148
-0.39367
-0.104721
-0.949386
-1.08971
-1.23806
-1.26899
-1.36354
-1.40434
-1.32508
-1.38527
-1.32621
-1.21988
-1.15181
-1.12886
-1.02693
-1.01246
-0.814025
-0.790101
-0.563837
-0.327638
-0.22631
-0.0450357
-0.379037
-0.334263
-0.40693
-0.466707
-0.428242
-0.449543
-0.49084
-0.489516
-0.457613
-0.412194
-0.38267
-0.365602
-0.403692
-0.367792
-0.319466
-0.232202
-0.168187
-0.132996
-0.0348841
0.0626939
-4.66964
-5.37149
-6.12492
-6.63388
-7.00012
-7.13055
-7.14865
-7.12276
-6.8892
-6.64263
-6.26783
-5.93977
-5.55407
-4.98749
-4.4108
-3.68988
-2.85737
-1.90448
-0.735019
0.214487
-3.95354
-4.565
-5.20317
-5.67742
-6.00415
-6.07745
-6.12956
-6.07236
-5.90339
-5.68488
-5.37368
-5.14258
-4.66159
-4.28077
-3.6983
-3.11962
-2.4352
-1.54924
-0.67768
0.173247
-3.34711
-3.87045
-4.32015
-4.7454
-4.99023
-5.23524
-5.13427
-5.0784
-4.97174
-4.80064
-4.56595
-4.2304
-3.96792
-3.67111
-3.1309
-2.59827
-1.9965
-1.33034
-0.533075
0.166374
-2.78312
-3.11393
-3.54876
-3.88835
-4.03233
-4.1574
-4.21246
-4.07409
-4.04615
-3.80415
-3.67613
-3.45722
-3.1649
-3.00596
-2.55701
-2.11405
-1.61384
-1.09026
-0.416779
0.181516
-2.12771
-2.37446
-2.66538
-2.9376
-3.16579
-3.29197
-3.23194
-3.15301
-3.15667
-3.04383
-2.88761
-2.66381
-2.43756
-2.28254
-1.89483
-1.71375
-1.24352
-0.740029
-0.332823
-0.0267159
-1.48781
-1.71789
-1.9689
-2.07657
-2.21593
-2.31138
-2.32251
-2.27189
-2.26672
-2.17297
-2.06103
-1.87777
-1.79103
-1.61654
-1.38186
-1.17702
-0.850704
-0.56387
-0.259753
0.0619988
-0.925659
-0.98501
-1.1278
-1.21928
-1.30564
-1.39811
-1.38909
-1.41808
-1.30517
-1.25493
-1.22124
-1.138
-1.01666
-0.926643
-0.884111
-0.712174
-0.526016
-0.334657
-0.161142
0.00470808
-0.240134
-0.311427
-0.355156
-0.414476
-0.4087
-0.442159
-0.506975
-0.475468
-0.435035
-0.366582
-0.348354
-0.362526
-0.364735
-0.364989
-0.304967
-0.221852
-0.204889
-0.0901802
-0.0805509
-0.0127672
-4.02792
-4.84724
-5.48883
-6.10675
-6.57631
-6.85364
-6.90197
-6.83947
-6.72557
-6.42382
-6.13624
-5.7766
-5.2845
-4.73889
-4.02587
-3.24563
-2.27432
-1.27637
-0.121703
0.909142
-3.46383
-4.03457
-4.67352
-5.30827
-5.57828
-5.78243
-5.93829
-5.93341
-5.83618
-5.51068
-5.35899
-4.90814
-4.49297
-3.97026
-3.40323
-2.80397
-1.98768
-0.996876
-0.107966
0.851643
-2.86276
-3.41378
-3.91709
-4.44463
-4.73009
-4.91136
-5.01459
-4.85372
-4.73398
-4.62587
-4.37389
-4.14337
-3.8125
-3.32161
-2.96786
-2.3732
-1.62967
-0.853649
-0.0693388
0.642979
-2.32516
-2.7986
-3.20454
-3.58369
-3.83906
-4.03388
-4.0055
-4.00945
-3.97723
-3.79345
-3.6275
-3.37116
-3.04552
-2.73537
-2.35129
-1.83384
-1.30311
-0.756754
-0.0465049
0.565738
-1.75244
-2.14506
-2.53812
-2.69057
-2.96305
-3.0107
-3.09869
-3.13142
-3.02968
-2.83664
-2.80181
-2.60353
-2.42563
-2.06085
-1.82931
-1.4171
-1.04697
-0.511672
-0.0204253
0.390201
-1.25465
-1.48492
-1.77892
-1.98438
-2.10297
-2.13155
-2.2064
-2.20292
-2.1297
-2.06798
-1.96392
-1.82495
-1.7124
-1.42631
-1.28809
-1.01646
-0.735383
-0.394994
0.0330711
0.344783
-0.829903
-0.89245
-1.03147
-1.20685
-1.27168
-1.28794
-1.34078
-1.35062
-1.34155
-1.26678
-1.19125
-1.11196
-1.01672
-0.910178
-0.785851
-0.620834
-0.424382
-0.161691
0.031286
0.221905
-0.287129
-0.309692
-0.371108
-0.408827
-0.43454
-0.417904
-0.381971
-0.516013
-0.457942
-0.389227
-0.388494
-0.469853
-0.323456
-0.385911
-0.217219
-0.237384
-0.167716
-0.116833
0.027305
0.0100985
-3.0592
-3.90681
-4.74827
-5.41838
-5.84314
-6.16068
-6.36158
-6.34016
-6.19486
-6.00473
-5.66887
-5.32526
-4.68435
-4.12202
-3.35539
-2.4992
-1.5339
-0.449582
0.730507
1.87699
-2.69685
-3.3636
-3.98854
-4.59146
-5.05545
-5.35391
-5.4514
-5.44585
-5.31851
-5.08549
-4.94105
-4.46003
-4.02466
-3.51995
-2.85817
-2.0942
-1.2867
-0.389421
0.698633
1.6386
-2.20993
-2.77325
-3.3319
-3.80939
-4.14738
-4.37452
-4.56866
-4.58771
-4.4152
-4.24341
-4.05567
-3.76741
-3.39415
-2.90122
-2.38924
-1.76819
-1.08568
-0.210782
0.603998
1.35834
-1.73593
-2.17214
-2.70917
-3.09671
-3.48549
-3.64438
-3.61071
-3.73155
-3.59268
-3.43283
-3.21314
-3.01825
-2.7083
-2.36511
-1.90478
-1.46715
-0.894278
-0.164102
0.547399
1.1369
-1.34906
-1.7469
-2.09313
-2.43827
-2.62011
-2.79788
-2.74555
-2.9183
-2.81348
-2.65614
-2.51847
-2.3673
-2.15862
-1.8419
-1.48409
-1.14646
-0.65909
-0.147511
0.427386
0.896482
-1.01534
-1.24031
-1.4208
-1.69989
-1.86147
-2.00878
-2.00599
-2.05722
-2.06875
-1.9375
-1.82742
-1.5891
-1.52068
-1.35605
-1.07025
-0.794332
-0.466284
-0.112556
0.282569
0.612067
-0.602264
-0.769441
-0.913581
-1.02049
-1.15472
-1.13549
-1.26112
-1.22113
-1.22196
-1.16505
-1.07209
-0.970245
-0.925579
-0.746866
-0.616199
-0.465436
-0.278424
-0.0462499
0.194847
0.40853
-0.233564
-0.262448
-0.304397
-0.321734
-0.392643
-0.414783
-0.367837
-0.400046
-0.376572
-0.376648
-0.390644
-0.402194
-0.228889
-0.288478
-0.198659
-0.166251
-0.0228816
0.0267115
0.0337794
0.14178
-1.94377
-2.69174
-3.62788
-4.31241
-4.94861
-5.2724
-5.45102
-5.50278
-5.35305
-5.07999
-4.83315
-4.43993
-3.8522
-3.15316
-2.46642
-1.52743
-0.417943
0.787999
1.94961
3.10362
-1.56557
-2.31527
-3.05541
-3.66062
-4.17108
-4.47661
-4.68269
-4.69868
-4.6014
-4.40389
-4.15551
-3.77405
-3.31645
-2.73485
-2.02538
-1.26302
-0.355402
0.637579
1.81384
2.69296
-1.37959
-1.95872
-2.52102
-3.08226
-3.39078
-3.80631
-3.85365
-3.87798
-3.80266
-3.64822
-3.3822
-3.05925
-2.75365
-2.20353
-1.76073
-1.1079
-0.260466
0.587812
1.5207
2.29977
-1.05671
-1.58361
-2.05592
-2.49575
-2.90567
-2.97101
-3.12618
-3.22213
-3.09507
-2.9918
-2.79888
-2.51536
-2.16038
-1.76662
-1.36998
-0.811336
-0.223735
0.48881
1.24613
1.88791
-0.889518
-1.11915
-1.58541
-1.89496
-2.21875
-2.36834
-2.38912
-2.42985
-2.42214
-2.27025
-2.12249
-1.94061
-1.66077
-1.44813
-1.00388
-0.568639
-0.154413
0.375955
0.969995
1.43369
-0.570255
-0.817206
-1.07441
-1.41652
-1.5824
-1.57358
-1.72247
-1.71408
-1.70477
-1.62895
-1.59027
-1.34684
-1.15182
-0.987927
-0.703894
-0.495739
-0.0741643
0.334287
0.628576
1.00249
-0.253577
-0.495356
-0.664367
-0.857476
-0.971502
-1.02747
-1.07883
-1.03021
-0.979198
-0.974179
-0.93805
-0.802973
-0.705642
-0.604384
-0.384469
-0.214664
-0.0103095
0.212522
0.387483
0.662821
-0.128887
-0.171821
-0.279153
-0.268727
-0.317492
-0.226938
-0.316606
-0.325584
-0.355969
-0.352323
-0.316461
-0.267042
-0.244671
-0.224745
-0.130976
-0.0681014
-0.0424218
0.0218336
0.206099
0.255345
-0.402182
-1.33111
-2.21033
-3.04651
-3.63536
-3.98895
-4.24901
-4.28757
-4.27944
-4.0689
-3.70027
-3.25951
-2.64769
-1.91031
-1.11043
-0.185038
0.893112
2.1331
3.48493
4.65371
-0.357157
-1.08097
-1.88911
-2.47656
-3.03101
-3.39725
-3.58932
-3.6741
-3.58521
-3.43663
-3.14901
-2.77154
-2.26069
-1.66566
-0.896901
-0.160597
0.798152
1.88306
3.06513
4.03273
-0.198133
-0.902427
-1.4819
-2.07885
-2.54837
-2.8478
-2.99995
-3.12513
-3.00406
-2.79654
-2.57317
-2.30213
-1.90791
-1.3458
-0.756622
-0.0659313
0.781176
1.67512
2.62668
3.46792
-0.188003
-0.678796
-1.23412
-1.60445
-2.0478
-2.24891
-2.42351
-2.45131
-2.41349
-2.30436
-2.13836
-1.81203
-1.47206
-1.08152
-0.565266
-0.00753228
0.630799
1.34999
2.13293
2.83851
-0.141727
-0.478483
-0.883341
-1.23394
-1.4688
-1.76434
-1.86353
-1.86753
-1.9044
-1.76398
-1.5954
-1.44535
-1.16131
-0.80715
-0.442715
-0.0553838
0.50331
1.10537
1.64539
2.1609
-0.0702521
-0.275717
-0.684672
-0.892986
-1.14014
-1.28602
-1.27846
-1.3272
-1.29034
-1.33335
-1.15969
-0.952152
-0.851409
-0.5876
-0.363208
-0.014883
0.321566
0.723961
1.20071
1.53271
-0.0392674
-0.191862
-0.366095
-0.492064
-0.619758
-0.74843
-0.818987
-0.838957
-0.776911
-0.695256
-0.674009
-0.597174
-0.49375
-0.340349
-0.220586
-0.0071512
0.182487
0.471278
0.705308
1.02016
-0.0191513
-0.0342457
-0.122335
-0.109924
-0.224461
-0.221639
-0.25554
-0.262379
-0.272516
-0.246048
-0.206928
-0.209254
-0.168469
-0.104874
-0.0820232
0.0239675
0.0914961
0.154013
0.252817
0.304733
1.39559
0.410194
-0.556423
-1.39102
-2.00757
-2.46774
-2.67879
-2.87598
-2.82634
-2.53738
-2.25367
-1.7291
-1.08383
-0.415906
0.414823
1.402
2.5358
3.84794
5.26568
6.49545
1.26054
0.503934
-0.319976
-1.0695
-1.69103
-1.96819
-2.22659
-2.34586
-2.29948
-2.12493
-1.84521
-1.47711
-0.981343
-0.340667
0.455974
1.33176
2.28918
3.43573
4.54591
5.70379
1.07804
0.426989
-0.255351
-0.89333
-1.30617
-1.6482
-1.84435
-1.96531
-1.9179
-1.82921
-1.49431
-1.1734
-0.77664
-0.234162
0.437702
1.1838
2.00303
2.8854
3.90903
4.80118
0.963659
0.407651
-0.219912
-0.671154
-1.08009
-1.32975
-1.49854
-1.57564
-1.5006
-1.39731
-1.2589
-0.917691
-0.554686
-0.123147
0.387725
0.963705
1.66041
2.37053
3.14777
3.91005
0.806073
0.440697
-0.125689
-0.430631
-0.78896
-1.05971
-1.15005
-1.16357
-1.2287
-1.11708
-0.905414
-0.700432
-0.457487
-0.119776
0.305815
0.808527
1.31877
1.90968
2.49782
3.04789
0.622885
0.218295
-0.0294816
-0.316325
-0.573995
-0.684771
-0.7634
-0.869393
-0.785301
-0.71475
-0.660918
-0.527482
-0.316151
-0.100666
0.193011
0.572449
0.940663
1.36934
1.86835
2.2188
0.349988
0.175672
-0.0221089
-0.197535
-0.366192
-0.408812
-0.455953
-0.462083
-0.423676
-0.499769
-0.357591
-0.318998
-0.194611
-0.0237698
0.131464
0.373748
0.556058
0.807503
1.06356
1.33048
0.133292
0.0569697
0.0483859
-0.0128272
-0.180439
-0.138502
-0.172331
-0.130664
-0.156252
-0.178431
-0.0910824
-0.141577
-0.0941709
-0.0209792
0.0326343
0.0811798
0.205862
0.303444
0.29308
0.445803
3.50076
2.54803
1.50039
0.681967
-0.0328234
-0.56912
-0.829916
-0.962178
-0.979542
-0.738021
-0.425235
0.0195999
0.658525
1.45976
2.27702
3.48244
4.60814
5.99968
7.40638
8.59523
3.13605
2.26475
1.38253
0.686968
-0.00771255
-0.39958
-0.691992
-0.819462
-0.799896
-0.532164
-0.340192
0.1217
0.641295
1.31408
2.09688
2.99445
4.04858
5.16538
6.46759
7.48503
2.68484
1.97716
1.32232
0.602621
0.0901341
-0.30934
-0.477918
-0.608883
-0.510601
-0.41012
-0.200639
0.180449
0.528424
1.10426
1.79256
2.55489
3.40908
4.43121
5.44182
6.29492
2.19158
1.66702
1.08201
0.526631
0.1551
-0.145433
-0.397822
-0.461649
-0.47356
-0.323268
-0.0848368
0.129864
0.520147
0.990575
1.42752
2.11178
2.82859
3.69971
4.55192
5.17846
1.71962
1.30175
0.846576
0.391987
0.112278
-0.168699
-0.221559
-0.303572
-0.357665
-0.184872
-0.125695
0.113001
0.406603
0.819076
1.22435
1.64813
2.23702
2.85254
3.45597
4.04754
1.19435
0.921008
0.633279
0.341511
0.062048
-0.062474
-0.232055
-0.252629
-0.2633
-0.177174
-0.0136724
0.0780416
0.30517
0.592484
0.875041
1.25586
1.63154
2.08952
2.52385
2.89483
0.726946
0.531201
0.373005
0.235466
0.0666491
-0.0427099
-0.0685486
-0.0998079
-0.160553
-0.15282
-0.0824506
0.076351
0.250072
0.358356
0.533422
0.669156
0.969256
1.25998
1.49276
1.77912
0.249104
0.154358
0.164134
0.0653056
0.0750105
-0.0456593
-0.146207
0.00783938
0.0477035
0.00779161
0.0231543
-0.00305669
0.0656247
0.0635548
0.224297
0.301988
0.357591
0.423652
0.47656
0.632761
5.95794
4.85214
3.77824
2.82904
2.089
1.55684
1.34755
1.11227
1.18187
1.37245
1.71573
2.11186
2.79916
3.6287
4.5349
5.62356
6.912
8.31434
9.64646
11.0083
5.192
4.2748
3.38626
2.52103
1.93725
1.47094
1.22797
1.0925
1.01913
1.20824
1.48484
2.00139
2.44568
3.10426
3.96697
4.97084
6.00614
7.18916
8.4475
9.59229
4.35626
3.67526
2.79207
2.17384
1.63527
1.29015
1.11397
0.889613
0.969575
0.996538
1.29131
1.66091
2.12168
2.68044
3.43963
4.21153
5.07813
6.10457
7.15596
8.06659
3.55052
3.07467
2.36323
1.93278
1.42927
1.13843
0.875509
0.823768
0.852058
0.879151
1.07733
1.38703
1.80579
2.24371
2.80621
3.37675
4.15526
5.01732
5.87924
6.60422
2.82819
2.34229
1.95173
1.45255
1.1702
0.89082
0.663541
0.642024
0.597933
0.731603
0.896577
1.08844
1.37878
1.71172
2.17525
2.72735
3.37404
3.92272
4.49577
5.13445
2.03242
1.73901
1.41257
1.07695
0.768441
0.611371
0.526251
0.454297
0.461403
0.497115
0.597313
0.827628
0.996845
1.23628
1.55842
1.90594
2.33741
2.66939
3.3158
3.62768
1.23197
1.04341
0.827899
0.552849
0.477257
0.302389
0.304386
0.241844
0.25329
0.261326
0.439221
0.439201
0.530975
0.798258
0.906207
1.18641
1.36563
1.68962
1.93629
2.21547
0.351147
0.321535
0.292884
0.194981
0.109611
0.170563
0.160717
0.0500099
0.0422478
0.102907
0.144788
0.170618
0.221621
0.23433
0.308534
0.429799
0.44062
0.526794
0.623838
0.715643
8.4605
7.44407
6.35862
5.38314
4.58204
4.00571
3.62792
3.43966
3.43592
3.61923
3.89403
4.52205
5.19368
5.92758
6.89012
8.13848
9.32318
10.7899
12.19
13.5985
7.35568
6.44335
5.50828
4.67969
3.97053
3.5639
3.17878
3.10369
3.07631
3.24006
3.49249
3.97062
4.54034
5.25389
6.09126
7.08307
8.16119
9.38427
10.6862
11.8577
6.22863
5.47201
4.73117
3.96572
3.39937
3.02865
2.77073
2.60464
2.62788
2.75212
3.07063
3.32999
3.85928
4.40838
5.16762
5.90562
6.85201
7.98028
8.96568
9.98039
5.10514
4.50964
3.93313
3.28351
2.86506
2.48658
2.23726
2.13649
2.14719
2.26071
2.45943
2.7608
3.18632
3.67962
4.19699
4.93842
5.63645
6.50545
7.43732
8.08007
3.9536
3.5419
3.00463
2.51109
2.27859
1.94827
1.86001
1.77658
1.78477
1.75829
1.9117
2.18014
2.48604
2.83464
3.25612
3.87072
4.40313
5.06997
5.75426
6.33794
2.84277
2.56559
2.17445
1.82448
1.62914
1.34549
1.21678
1.22114
1.20776
1.29539
1.36878
1.62414
1.78362
2.08001
2.36885
2.72114
3.12276
3.64607
4.12887
4.48624
1.72006
1.50497
1.29106
1.1373
1.05133
0.865112
0.789556
0.770286
0.679781
0.768005
0.833617
0.919117
1.07179
1.21159
1.47016
1.68761
1.86302
2.19721
2.4327
2.68031
0.50224
0.485427
0.424237
0.359113
0.314945
0.328608
0.249851
0.259869
0.207681
0.216126
0.257537
0.310827
0.358125
0.371337
0.470279
0.542108
0.663423
0.758284
0.78379
0.886597
11.0233
10.0271
8.81705
7.86195
7.07696
6.45432
6.07408
5.88951
5.77609
5.99458
6.29807
6.81432
7.53456
8.40315
9.36814
10.5086
11.8483
13.3203
14.8475
16.1715
9.55123
8.63643
7.68832
6.78579
6.13327
5.55678
5.2521
5.12454
5.03335
5.2185
5.50758
5.95706
6.52043
7.15603
8.1318
9.11118
10.2753
11.5469
12.8636
14.0021
8.0175
7.28138
6.49456
5.83254
5.1444
4.71836
4.41433
4.30337
4.34737
4.4204
4.73564
5.00909
5.4856
6.08879
6.87905
7.73346
8.63187
9.73619
10.8357
11.8107
6.50208
5.99506
5.35277
4.70566
4.23433
3.95909
3.68465
3.53761
3.47953
3.59388
3.77916
4.18942
4.50748
5.09757
5.51997
6.31575
7.12257
7.92087
8.86143
9.62796
5.118
4.67329
4.18317
3.60291
3.28865
3.00106
2.91604
2.76785
2.7764
2.82558
2.95567
3.22759
3.48344
3.91023
4.32476
4.85785
5.56132
6.203
6.90285
7.42622
3.69174
3.32782
2.99232
2.64006
2.32039
2.1457
2.02255
1.90116
1.95064
1.96176
2.07543
2.29276
2.51586
2.79155
3.1063
3.51879
3.88337
4.35307
4.88255
5.30979
2.24219
2.00566
1.73855
1.67595
1.39099
1.34131
1.25786
1.16795
1.08566
1.27597
1.22105
1.32774
1.51064
1.64617
1.8469
2.09122
2.38205
2.63282
2.91176
3.16517
0.635076
0.637774
0.549337
0.555122
0.478802
0.444669
0.439838
0.394783
0.375078
0.443441
0.413293
0.504974
0.533142
0.501192
0.639762
0.77368
0.836791
0.905172
0.951714
1.08696
13.1409
12.0374
10.9035
9.89281
9.10397
8.46747
8.07836
7.87098
7.81225
7.9576
8.32227
8.83681
9.49953
10.3711
11.378
12.5136
13.9219
15.3357
16.9106
18.2557
11.1912
10.284
9.34058
8.40411
7.85779
7.20952
6.8694
6.72503
6.70267
6.80759
7.07175
7.57153
8.19773
8.77509
9.76549
10.789
11.9144
13.1424
14.4763
15.6015
9.40857
8.67597
7.87845
7.19695
6.48016
6.04489
5.75585
5.5532
5.64068
5.66395
5.97198
6.34046
6.80188
7.45939
8.14222
9.05657
9.95316
10.9712
12.1555
13.1353
7.71865
6.99496
6.38459
5.77196
5.30157
4.96808
4.64533
4.56629
4.51482
4.56612
4.82025
5.10405
5.50004
6.02858
6.66617
7.263
8.08769
8.93858
9.87253
10.6007
5.85324
5.4041
4.91406
4.43467
4.04965
3.7771
3.59602
3.53591
3.46658
3.54303
3.6713
3.95722
4.27704
4.68309
5.01424
5.69221
6.29008
6.96344
7.6589
8.22792
4.21938
3.86234
3.55137
3.20702
2.90353
2.72686
2.52228
2.53209
2.45495
2.48633
2.66798
2.74695
3.00923
3.36008
3.61296
4.06538
4.52449
4.99935
5.41726
5.77802
2.53756
2.44743
2.03729
1.95874
1.75646
1.65116
1.54801
1.43967
1.43269
1.46074
1.60551
1.70851
1.79824
1.97111
2.16305
2.3778
2.69362
2.98831
3.29509
3.43604
0.892401
0.812032
0.68488
0.652325
0.55527
0.566575
0.496462
0.497024
0.474001
0.473408
0.518887
0.556334
0.613241
0.687787
0.679194
0.78053
0.928951
0.969323
1.08834
1.1687
)
;

boundaryField
{
    hotSide
    {
        type            calculated;
        value           nonuniform List<scalar> 
400
(
1.35459
0.36658
-0.726619
-1.7078
-2.62223
-3.24322
-3.61264
-3.83785
-3.75888
-3.37331
-2.69916
-1.69417
-0.538551
1.04723
2.89329
5.05089
7.56472
10.1282
12.7562
14.9433
1.01581
0.120716
-1.0199
-2.09511
-3.02187
-3.67064
-4.14148
-4.48291
-4.38714
-4.05193