/*--------------------------------*- C++ -*----------------------------------*\
| =========                 |                                                 |
| \\      /  F ield         | OpenFOAM: The Open Source CFD Toolbox           |
|  \\    /   O peration     | Version:  2212                                  |
|   \\  /    A nd           | Website:  www.openfoam.com                      |
|    \\/     M anipulation  |                                                 |
\*---------------------------------------------------------------------------*/
FoamFile
{
    version     2.0;
    format      ascii;
    arch        "LSB;label=32;scalar=64";
    class       volScalarField;
    location    "0";
    object      stateMean;
}
// * * * * * * * * * * * * * * * * * * * * * * * * * * * * * * * * * * * * * //

dimensions      [0 0 0 1 0 0 0];

internalField   nonuniform List<scalar> 
3200
(
348.07
349.003
349.864
350.64
351.318
351.88
352.189
352.422
352.487
352.306
352.071
351.723
351.192
350.439
349.503
348.637
347.628
346.336
345.155
344.053
341.743
342.48
343.291
343.945
344.554
345.075
345.401
345.508
345.613
345.515
345.288
344.928
344.369
343.788
343.088
342.244
341.348
340.321
339.259
338.343
335.452
336.033
336.68
337.266
337.825
338.231
338.466
338.627
338.619
338.537
338.374
338.123
337.694
337.112
336.515
335.823
335.021
334.147
333.315
332.495
329.062
329.53
330.074
330.498
330.983
331.284
331.591
331.629
331.657
331.566
331.509
331.226
330.852
330.436
329.834
329.39
328.775
328.043
327.257
326.698
322.64
323.009
323.485
323.755
324.14
324.419
324.523
324.727
324.722
324.576
324.524
324.33
324.076
323.756
323.331
322.868
322.41
321.778
321.306
320.81
316.193
316.484
316.822
317.017
317.275
317.532
317.524
317.638
317.639
317.722
317.522
317.359
317.217
317.018
316.645
316.402
316.024
315.626
315.182
314.875
309.744
309.86
310.098
310.195
310.339
310.491
310.575
310.582
310.671
310.61
310.511
310.463
310.41
310.224
310.011
309.871
309.643
309.431
309.099
308.95
303.217
303.267
303.302
303.395
303.498
303.494
303.47
303.635
303.524
303.595
303.534
303.571
303.488
303.429
303.363
303.289
303.251
303.161
303.077
302.969
349.231
350.067
350.982
351.802
352.577
353.107
353.495
353.604
353.681
353.497
353.337
352.809
352.344
351.517
350.668
349.781
348.604
347.494
346.213
345.058
342.748
343.488
344.264
344.944
345.544
346.01
346.444
346.462
346.597
346.468
346.218
345.872
345.374
344.753
344.024
343.123
342.215
341.186
340.095
339.177
336.177
336.815
337.507
338.127
338.624
339.005
339.252
339.483
339.407
339.371
339.173
338.901
338.487
337.928
337.324
336.552
335.79
334.925
334.022
333.174
329.653
330.113
330.718
331.187
331.597
331.907
332.179
332.273
332.296
332.293
332.045
331.827
331.489
331.096
330.587
329.991
329.344
328.628
327.844
327.244
323.128
323.417
323.86
324.252
324.633
324.87
325.061
325.093
325.076
325.111
324.97
324.791
324.508
324.175
323.816
323.358
322.763
322.255
321.699
321.188
316.507
316.709
317.042
317.409
317.59
317.76
317.896
317.976
317.978
317.998
317.806
317.74
317.532
317.288
317.041
316.67
316.292
315.917
315.527
315.156
309.887
310.061
310.26
310.389
310.57
310.635
310.729
310.757
310.834
310.73
310.682
310.635
310.547
310.36
310.245
310.028
309.822
309.627
309.357
309.1
303.3
303.402
303.419
303.447
303.5
303.557
303.598
303.638
303.663
303.634
303.63
303.659
303.557
303.452
303.422
303.394
303.29
303.298
303.096
303.102
350.673
351.547
352.509
353.335
354.013
354.687
355.061
355.294
355.22
355.245
354.905
354.488
353.908
353.101
352.176
351.323
350.12
348.89
347.589
346.42
343.916
344.691
345.539
346.314
346.865
347.399
347.758
347.889
347.914
347.869
347.563
347.222
346.767
346.051
345.325
344.465
343.485
342.412
341.251
340.277
337.17
337.89
338.551
339.23
339.684
340.122
340.415
340.503
340.624
340.522
340.277
340.029
339.599
339.013
338.385
337.606
336.822
335.876
335.02
334.169
330.497
330.944
331.586
332.115
332.53
332.852
333.037
333.213
333.298
333.116
332.985
332.754
332.422
332.011
331.469
330.841
330.118
329.358
328.669
327.951
323.721
324.086
324.515
324.944
325.259
325.547
325.757
325.839
325.823
325.779
325.668
325.446
325.241
324.832
324.514
324.022
323.54
322.955
322.255
321.865
316.925
317.199
317.506
317.884
318.068
318.241
318.348
318.492
318.53
318.453
318.306
318.163
317.984
317.803
317.564
317.079
316.725
316.387
315.975
315.587
310.206
310.32
310.546
310.733
310.827
311.016
311.071
311.082
311.12
311.146
311.019
311.021
310.833
310.671
310.523
310.327
310.096
309.932
309.59
309.365
303.379
303.509
303.5
303.589
303.593
303.758
303.701
303.744
303.768
303.669
303.717
303.72
303.608
303.601
303.515
303.454
303.365
303.309
303.19
303.082
352.179
353.134
354.155
355.075
355.777
356.435
356.749
356.984
357.002
356.921
356.571
356.16
355.543
354.729
353.894
352.837
351.679
350.36
349.027
347.9
345.253
346.084
346.883
347.693
348.307
348.845
349.205
349.385
349.388
349.261
349.065
348.668
348.18
347.487
346.685
345.891
344.811
343.702
342.532
341.597
338.382
339.017
339.733
340.336
340.939
341.316
341.609
341.82
341.829
341.8
341.59
341.264
340.748
340.237
339.515
338.796
337.975
337.047
336.085
335.222
331.368
331.973
332.466
332.99
333.453
333.91
334.096
334.229
334.26
334.184
334.038
333.727
333.409
332.905
332.421
331.777
331.052
330.37
329.509
328.892
324.44
324.828
325.317
325.701
326.043
326.303
326.546
326.622
326.694
326.58
326.541
326.335
325.96
325.673
325.247
324.748
324.191
323.633
322.99
322.48
317.522
317.729
318.047
318.392
318.571
318.785
318.933
319.014
319.112
319.057
318.909
318.758
318.586
318.293
317.997
317.767
317.265
316.867
316.424
316.008
310.515
310.619
310.799
310.98
311.23
311.297
311.446
311.462
311.465
311.471
311.389
311.307
311.187
310.962
310.872
310.603
310.418
310.167
309.895
309.667
303.541
303.617
303.654
303.769
303.685
303.792
303.888
303.888
303.826
303.808
303.84
303.83
303.738
303.678
303.628
303.553
303.504
303.385
303.321
303.228
353.797
354.745
355.755
356.75
357.471
358.039
358.409
358.679
358.76
358.632
358.384
357.892
357.28
356.523
355.579
354.547
353.276
352.001
350.511
349.24
346.615
347.492
348.313
349.161
349.795
350.296
350.703
350.856
350.936
350.881
350.481
350.196
349.665
348.971
348.147
347.244
346.172
345.013
343.794
342.777
339.442
340.117
340.91
341.569
342.12
342.541
342.92
343.052
343.1
342.987
342.771
342.457
342.019
341.464
340.799
339.997
339.123
338.19
337.119
336.273
332.249
332.834
333.497
334.031
334.462
334.867
335.082
335.237
335.319
335.24
335.035
334.82
334.383
333.883
333.433
332.724
331.985
331.225
330.45
329.705
325.157
325.573
326.027
326.529
326.819
327.175
327.328
327.448
327.42
327.375
327.33
327.057
326.813
326.38
325.993
325.54
324.912
324.3
323.645
323.185
317.955
318.257
318.623
318.95
319.19
319.33
319.474
319.495
319.56
319.589
319.487
319.35
319.186
318.86
318.537
318.23
317.831
317.391
316.897
316.522
310.851
310.997
311.187
311.273
311.566
311.593
311.768
311.803
311.751
311.769
311.756
311.648
311.467
311.385
311.16
310.963
310.697
310.496
310.164
309.95
303.573
303.724
303.794
303.769
303.91
303.838
303.915
303.951
303.916
303.882
303.934
303.937
303.849
303.843
303.78
303.699
303.638
303.472
303.451
303.337
355.3
356.256
357.347
358.38
359.091
359.707
360.211
360.389
360.455
360.373
360.04
359.594
358.932
358.148
357.193
356.122
354.811
353.473
352.082
350.722
347.993
348.818
349.702
350.551
351.239
351.713
352.183
352.356
352.397
352.296
352.106
351.658
351.034
350.461
349.646
348.604
347.533
346.35
345.172
344.044
340.54
341.277
342.03
342.85
343.329
343.83
344.193
344.32
344.321
344.315
344.087
343.704
343.278
342.686
341.954
341.199
340.182
339.277
338.24
337.293
333.202
333.852
334.406
335.004
335.354
335.874
336.124
336.196
336.265
336.137
336.066
335.767
335.367
334.877
334.363
333.783
332.922
332.097
331.272
330.582
325.802
326.305
326.804
327.288
327.606
327.893
328.153
328.19
328.273
328.21
328.085
327.855
327.543
327.175
326.761
326.251
325.643
325.076
324.322
323.771
318.467
318.751
319.08
319.445
319.757
319.911
320.082
320.163
320.166
320.182
320.063
319.866
319.697
319.364
319.098
318.759
318.334
317.893
317.495
317.044
311.074
311.26
311.506
311.704
311.868
311.93
311.996
312.151
312.1
312.075
312.036
311.914
311.805
311.742
311.505
311.218
311.034
310.788
310.433
310.214
303.744
303.804
303.83
303.905
303.929
303.958
304.083
304.098
304.104
304.08
304.013
304.042
303.943
303.922
303.815
303.78
303.732
303.625
303.552
303.402
356.733
357.768
358.959
359.893
360.628
361.362
361.745
362.07
362.108
362.047
361.687
361.268
360.61
359.736
358.746
357.597
356.294
354.936
353.446
352.152
349.186
350.084
351.03
351.94
352.588
353.216
353.518
353.759
353.868
353.739
353.533
353.051
352.468
351.686
350.954
349.981
348.804
347.699
346.338
345.254
341.688
342.357
343.209
343.924
344.518
344.939
345.384
345.559
345.536
345.52
345.232
344.866
344.428
343.834
343.146
342.309
341.348
340.293
339.29
338.295
334.098
334.717
335.346
335.946
336.436
336.824
337.112
337.238
337.236
337.233
337.104
336.657
336.402
335.913
335.221
334.647
333.819
332.966
332.17
331.439
326.543
326.928
327.481
327.945
328.344
328.664
328.829
329.001
329.041
328.948
328.825
328.642
328.346
327.877
327.485
326.852
326.377
325.73
324.955
324.471
318.951
319.301
319.63
319.972
320.215
320.477
320.572
320.693
320.762
320.67
320.559
320.419
320.188
319.987
319.671
319.27
318.812
318.329
317.899
317.481
311.422
311.566
311.748
311.98
312.172
312.328
312.384
312.423
312.444
312.466
312.356
312.278
312.193
311.983
311.786
311.528
311.288
311
310.736
310.525
303.833
303.846
303.947
304.001
304.128
304.155
304.145
304.159
304.089
304.144
304.155
304.13
304.077
304.029
303.949
303.879
303.758
303.647
303.585
303.514
358.208
359.334
360.41
361.391
362.255
362.925
363.415
363.639
363.699
363.638
363.248
362.826
362.156
361.258
360.184
359.091
357.739
356.314
354.794
353.485
350.463
351.391
352.334
353.196
353.958
354.499
354.906
355.16
355.238
355.053
354.857
354.442
353.838
353.159
352.179
351.254
350.13
348.813
347.533
346.418
342.717
343.439
344.312
344.971
345.636
346.139
346.425
346.616
346.693
346.613
346.394
346.069
345.561
344.957
344.202
343.331
342.347
341.421
340.328
339.352
334.965
335.552
336.229
336.799
337.3
337.693
338.063
338.169
338.252
338.211
337.998
337.728
337.281
336.761
336.232
335.545
334.668
333.883
332.991
332.235
327.212
327.672
328.152
328.677
328.999
329.376
329.606
329.718
329.793
329.74
329.568
329.377
329.015
328.568
328.215
327.634
327.014
326.356
325.69
325.126
319.496
319.73
320.188
320.483
320.803
321.028
321.095
321.269
321.316
321.212
321.147
320.991
320.712
320.431
320.102
319.784
319.29
318.732
318.301
317.992
311.622
311.836
312.123
312.316
312.501
312.571
312.721
312.708
312.825
312.76
312.718
312.6
312.426
312.233
312.083
311.901
311.618
311.278
311.087
310.772
303.908
303.951
304.016
304.139
304.207
304.186
304.263
304.316
304.298
304.25
304.27
304.268
304.165
304.154
304.083
304.019
303.805
303.8
303.723
303.621
359.566
360.648
361.808
362.814
363.732
364.366
364.838
365.131
365.15
365.064
364.846
364.281
363.568
362.703
361.607
360.466
359.233
357.685
356.14
354.69
351.603
352.46
353.586
354.401
355.181
355.847
356.182
356.463
356.443
356.367
356.225
355.732
355.144
354.4
353.435
352.365
351.205
350.012
348.688
347.578
343.754
344.45
345.335
346.119
346.622
347.246
347.589
347.776
347.895
347.779
347.507
347.177
346.633
346.009
345.248
344.433
343.408
342.402
341.207
340.229
335.839
336.386
337.079
337.711
338.151
338.649
338.914
339.043
339.132
339.086
338.917
338.598
338.205
337.621
337.054
336.318
335.511
334.659
333.751
332.959
327.865
328.311
328.884
329.287
329.746
330.04
330.313
330.379
330.435
330.403
330.191
330.016
329.717
329.331
328.788
328.26
327.575
326.955
326.232
325.706
319.92
320.195
320.642
320.986
321.286
321.443
321.684
321.69
321.809
321.762
321.614
321.464
321.286
320.918
320.583
320.168
319.79
319.29
318.815
318.394
311.939
312.159
312.412
312.557
312.767
312.917
312.937
313.078
313.078
313.002
312.934
312.881
312.72
312.624
312.327
312.193
311.852
311.502
311.295
311.035
304.064
304.045
304.153
304.252
304.251
304.31
304.384
304.41
304.398
304.362
304.333
304.306
304.324
304.261
304.179
304.055
303.953
303.879
303.746
303.622
360.809
361.914
363.17
364.211
365.108
365.745
366.217
366.565
366.599
366.492
366.117
365.65
364.996
364.055
363.025
361.798
360.434
358.949
357.278
355.925
352.678
353.63
354.701
355.636
356.423
356.935
357.381
357.647
357.709
357.612
357.301
356.949
356.237
355.532
354.556
353.539
352.394
351.047
349.743
348.551
344.627
345.433
346.248
347.062
347.697
348.313
348.544
348.762
348.851
348.782
348.547
348.109
347.652
347.081
346.209
345.305
344.314
343.258
342.096
341.114
336.595
337.154
337.887
338.544
339.007
339.435
339.762
339.848
339.98
339.821
339.693
339.391
338.939
338.556
337.835
337.089
336.27
335.428
334.457
333.63
328.453
328.874
329.396
329.916
330.392
330.754
330.906
331.001
331.129
331.081
330.925
330.636
330.286
329.957
329.357
328.94
328.222
327.471
326.833
326.352
320.311
320.665
321.081
321.366
321.682
321.945
322.108
322.182
322.265
322.218
322.106
321.876
321.701
321.402
321.016
320.643
320.14
319.676
319.207
318.761
312.237
312.37
312.612
312.809
313.002
313.195
313.277
313.381
313.321
313.299
313.265
313.154
312.98
312.815
312.681
312.408
312.116
311.819
311.546
311.306
304.032
304.128
304.205
304.3
304.33
304.397
304.493
304.486
304.463
304.405
304.386
304.391
304.376
304.351
304.26
304.143
304.091
303.94
303.898
303.805
361.956
363.152
364.262
365.372
366.331
367.073
367.535
367.811
367.94
367.764
367.476
366.991
366.256
365.372
364.245
363.001
361.539
360.049
358.427
357.019
353.738
354.628
355.671
356.731
357.426
358.031
358.546
358.835
358.948
358.732
358.58
358.02
357.395
356.578
355.652
354.652
353.411
351.994
350.701
349.422
345.455
346.271
347.114
348.002
348.646
349.167
349.575
349.662
349.72
349.704
349.452
349.129
348.621
347.882
347.224
346.289
345.187
344.051
342.926
341.949
337.211
337.898
338.581
339.255
339.804
340.277
340.496
340.704
340.817
340.708
340.543
340.211
339.741
339.226
338.594
337.799
336.974
336.133
335.146
334.32
328.913
329.469
330.077
330.46
330.96
331.224
331.506
331.696
331.707
331.573
331.538
331.281
330.991
330.468
330.042
329.414
328.816
328.051
327.344
326.771
320.676
321.021
321.469
321.837
322.12
322.303
322.515
322.625
322.633
322.613
322.509
322.328
322.134
321.735
321.459
321.033
320.588
320.085
319.503
319.076
312.5
312.631
312.862
313.136
313.299
313.408
313.544
313.622
313.661
313.611
313.535
313.431
313.288
313.113
312.906
312.648
312.353
311.993
311.708
311.448
304.2
304.246
304.337
304.408
304.467
304.481
304.473
304.63
304.588
304.528
304.527
304.6
304.437
304.477
304.28
304.269
304.167
304.083
303.909
303.903
362.967
364.166
365.44
366.565
367.439
368.18
368.756
369.041
369.114
369.038
368.702
368.244
367.385
366.516
365.374
364.095
362.681
361.142
359.528
358.031
354.688
355.652
356.651
357.646
358.499
359.165
359.588
359.849
359.91
359.774
359.63
359.051
358.428
357.657
356.669
355.538
354.342
353.051
351.589
350.352
346.255
347.064
347.938
348.748
349.415
349.954
350.423
350.667
350.654
350.565
350.378
350.006
349.473
348.755
347.968
347.036
346.025
344.817
343.687
342.687
337.811
338.445
339.239
339.9
340.557
340.97
341.162
341.467
341.459
341.367
341.147
340.884
340.443
339.916
339.231
338.539
337.697
336.694
335.726
334.938
329.435
329.985
330.531
331.087
331.479
331.854
331.978
332.293
332.289
332.185
332.047
331.843
331.534
331.074
330.54
330.005
329.308
328.586
327.811
327.19
321.097
321.429
321.753
322.183
322.494
322.783
322.905
323.058
323.143
323.05
322.939
322.663
322.522
322.255
321.844
321.427
320.949
320.445
319.906
319.47
312.669
312.9
313.131
313.327
313.552
313.617
313.818
313.84
313.884
313.85
313.757
313.632
313.545
313.304
313.098
312.862
312.585
312.263
311.936
311.658
304.28
304.329
304.4
304.448
304.549
304.6
304.578
304.631
304.622
304.63
304.644
304.647
304.46
304.498
304.384
304.322
304.149
304.069
304.033
303.904
364.024
365.098
366.434
367.536
368.583
369.29
369.809
370.138
370.183
370.012
369.765
369.27
368.487
367.511
366.484
365.161
363.642
362.018
360.456
358.976
355.44
356.465
357.55
358.518
359.383
360.022
360.523
360.778
360.85
360.741
360.493
360.023
359.395
358.575
357.57
356.475
355.212
353.857
352.336
351.181
347.019
347.827
348.68
349.546
350.156
350.853
351.151
351.377
351.446
351.365
351.099
350.702
350.253
349.501
348.808
347.873
346.724
345.571
344.347
343.339
338.437
339.148
339.857
340.547
341.203
341.499
341.858
342.12
342.11
342.068
341.875
341.53
341.058
340.499
339.898
339.108
338.275
337.312
336.318
335.492
329.991
330.361
331.012
331.516
332.031
332.36
332.54
332.71
332.793
332.688
332.54
332.312
331.941
331.599
330.996
330.381
329.775
329.051
328.272
327.667
321.377
321.724
322.113
322.594
322.896
323.017
323.278
323.362
323.418
323.376
323.337
323.06
322.8
322.544
322.147
321.81
321.251
320.705
320.278
319.805
312.757
313.057
313.305
313.582
313.779
313.911
314.031
314.037
314.026
314.041
314.005
313.85
313.713
313.556
313.268
313.022
312.735
312.428
312.175
311.84
304.321
304.384
304.517
304.535
304.611
304.546
304.659
304.687
304.73
304.733
304.697
304.641
304.606
304.567
304.45
304.362
304.308
304.216
304.006
303.937
364.848
366.078
367.326
368.545
369.506
370.208
370.775
371.062
371.228
371.109
370.74
370.209
369.422
368.436
367.329
366.056
364.605
362.983
361.262
359.792
356.282
357.261
358.386
359.305
360.183
360.851
361.309
361.609
361.672
361.602
361.314
360.859
360.196
359.386
358.351
357.313
356.03
354.614
353.115
351.892
347.572
348.488
349.336
350.213
350.956
351.511
351.888
352.195
352.203
352.062
351.838
351.501
350.978
350.234
349.42
348.474
347.353
346.179
344.959
343.906
338.988
339.649
340.423
341.022
341.69
342.1
342.459
342.635
342.702
342.648
342.482
342.101
341.656
341.117
340.416
339.65
338.787
337.839
336.837
335.961
330.348
330.815
331.389
331.918
332.328
332.785
333.029
333.149
333.266
333.169
333
332.807
332.442
331.972
331.464
330.914
330.181
329.401
328.692
328.045
321.667
321.965
322.495
322.83
323.202
323.464
323.559
323.691
323.712
323.785
323.612
323.374
323.215
322.869
322.541
322.077
321.615
321.086
320.488
320.064
313.016
313.224
313.471
313.673
313.876
314.074
314.206
314.276
314.249
314.185
314.164
314.069
313.931
313.727
313.547
313.263
312.999
312.634
312.327
311.957
304.37
304.403
304.516
304.529
304.668
304.69
304.744
304.767
304.79
304.769
304.73
304.726
304.673
304.593
304.55
304.42
304.328
304.24
304.116
304.046
365.605
366.869
368.173
369.357
370.313
371.088
371.575
371.994
372.101
371.892
371.609
371.004
370.202
369.312
368.205
366.903
365.43
363.769
362.013
360.506
356.878
357.87
358.986
360.037
360.953
361.503
362.001
362.313
362.402
362.298
362.018
361.58
360.948
360.115
359.079
357.93
356.679
355.23
353.828
352.435
348.17
349.016
349.944
350.837
351.499
352.072
352.471
352.755
352.823
352.793
352.458
352.078
351.567
350.861
349.986
349.009
347.941
346.804
345.534
344.447
339.369
340.082
340.91
341.57
342.183
342.622
342.957
343.168
343.186
343.131
342.993
342.603
342.147
341.581
340.904
340.139
339.239
338.319
337.342
336.423
330.592
331.078
331.8
332.268
332.785
333.203
333.422
333.54
333.678
333.603
333.391
333.149
332.833
332.392
331.837
331.187
330.518
329.764
329.021
328.35
321.826
322.316
322.674
323.077
323.449
323.665
323.835
324.015
323.983
323.94
323.886
323.725
323.462
323.173
322.787
322.303
321.82
321.276
320.666
320.23
313.139
313.364
313.628
313.874
314.11
314.216
314.319
314.369
314.363
314.455
314.313
314.258
314.102
313.887
313.676
313.37
313.12
312.798
312.476
312.159
304.389
304.482
304.514
304.598
304.788
304.768
304.82
304.794
304.829
304.856
304.769
304.815
304.757
304.669
304.596
304.527
304.379
304.259
304.246
304.076
366.234
367.443
368.801
369.937
370.959
371.779
372.288
372.619
372.777
372.607
372.294
371.777
370.998
369.998
368.933
367.444
366.011
364.301
362.585
361.14
357.37
358.457
359.607
360.579
361.54
362.179
362.685
362.985
363.087
362.881
362.689
362.165
361.525
360.679
359.682
358.538
357.217
355.825
354.254
353.021
348.564
349.452
350.332
351.284
352.023
352.631
352.982
353.259
353.263
353.215
353.006
352.572
352.122
351.4
350.529
349.558
348.478
347.223
345.987
344.954
339.777
340.447
341.216
341.961
342.518
342.989
343.391
343.574
343.67
343.563
343.325
343.066
342.592
342.002
341.416
340.561
339.659
338.598
337.562
336.791
330.951
331.479
332.077
332.681
333.104
333.518
333.687
333.862
333.981
333.842
333.783
333.51
333.151
332.646
332.125
331.568
330.836
330.071
329.325
328.623
322.164
322.515
322.905
323.302
323.685
323.904
324.156
324.244
324.301
324.239
324.076
323.96
323.686
323.332
322.967
322.491
322.012
321.448
320.912
320.463
313.307
313.55
313.769
313.971
314.201
314.368
314.444
314.515
314.604
314.61
314.539
314.367
314.165
314.017
313.792
313.599
313.237
312.882
312.588
312.255
304.456
304.567
304.577
304.698
304.708
304.848
304.965
304.825
304.794
304.839
304.824
304.845
304.767
304.755
304.578
304.481
304.405
304.317
304.244
304.072
366.66
368.001
369.359
370.598
371.616
372.405
372.836
373.25
373.305
373.179
372.835
372.375
371.563
370.555
369.427
368.081
366.515
364.823
363.207
361.61
357.806
358.922
360.056
361.172
361.998
362.686
363.122
363.412
363.594
363.46
363.183
362.612
362.058
361.246
360.19
358.964
357.687
356.253
354.749
353.406
348.997
349.842
350.932
351.762
352.506
353.04
353.379
353.734
353.745
353.766
353.472
353.054
352.502
351.813
350.89
349.929
348.858
347.619
346.361
345.286
340.136
340.744
341.625
342.229
342.9
343.346
343.741
343.9
343.947
343.959
343.761
343.412
342.918
342.373
341.678
340.952
340.007
338.971
337.94
337.083
331.176
331.764
332.285
332.919
333.333
333.732
334.063
334.168
334.27
334.166
334.001
333.78
333.431
333.015
332.448
331.776
330.998
330.314
329.61
328.87
322.277
322.642
323.062
323.494
323.896
324.139
324.299
324.43
324.465
324.451
324.351
324.098
323.887
323.589
323.192
322.758
322.234
321.806
321.065
320.681
313.374
313.605
313.876
314.209
314.342
314.568
314.611
314.709
314.723
314.728
314.55
314.537
314.42
314.117
313.964
313.633
313.396
313.014
312.712
312.391
304.546
304.589
304.637
304.754
304.858
304.814
304.839
304.962
304.979
304.922
304.88
304.85
304.79
304.766
304.676
304.538
304.508
304.403
304.287
304.181
367.114
368.347
369.692
370.932
371.987
372.794
373.372
373.72
373.836
373.71
373.435
372.75
371.966
371.072
369.91
368.431
366.992
365.261
363.601
361.976
358.186
359.282
360.441
361.499
362.427
363.035
363.594
363.808
363.933
363.819
363.567
363.038
362.372
361.519
360.508
359.315
358.018
356.565
355.039
353.684
349.262
350.171
351.101
352.06
352.813
353.354
353.759
354.043
354.102
354.02
353.701
353.4
352.789
352.122
351.215
350.306
349.174
347.852
346.677
345.511
340.321
341.038
341.77
342.578
343.149
343.667
344.038
344.235
344.291
344.212
344.014
343.677
343.185
342.595
341.957
341.076
340.226
339.198
338.111
337.346
331.397
331.903
332.56
333.177
333.528
333.968
334.15
334.308
334.352
334.406
334.252
333.957
333.599
333.175
332.66
331.936
331.285
330.495
329.691
329.013
322.425
322.769
323.246
323.684
323.964
324.326
324.521
324.571
324.621
324.554
324.48
324.205
324.008
323.658
323.302
322.872
322.385
321.774
321.206
320.782
313.46
313.715
313.98
314.187
314.324
314.557
314.672
314.724
314.837
314.761
314.695
314.598
314.422
314.25
313.952
313.687
313.461
313.074
312.787
312.5
304.587
304.617
304.695
304.778
304.839
304.841
304.933
304.934
304.994
304.99
304.948
304.891
304.836
304.812
304.7
304.612
304.474
304.361
304.318
304.202
367.392
368.587
370.037
371.235
372.252
373.086
373.648
373.976
374.191
374.024
373.721
373.153
372.331
371.319
370.172
368.82
367.249
365.534
363.766
362.244
358.404
359.489
360.644
361.757
362.611
363.371
363.834
364.087
364.266
364.126
363.836
363.342
362.692
361.93
360.796
359.633
358.268
356.785
355.261
353.953
349.481
350.357
351.319
352.159
353.019
353.601
354.039
354.257
354.287
354.252
353.936
353.625
353.074
352.364
351.44
350.43
349.36
348.078
346.802
345.687
340.542
341.162
341.947
342.741
343.353
343.756
344.14
344.374
344.493
344.41
344.225
343.784
343.405
342.727
342.195
341.271
340.324
339.379
338.296
337.416
331.476
332.008
332.609
333.303
333.727
334.114
334.285
334.501
334.541
334.515
334.385
334.089
333.786
333.291
332.79
332.158
331.345
330.589
329.778
329.168
322.456
322.882
323.297
323.731
324.129
324.374
324.558
324.729
324.713
324.72
324.607
324.371
324.114
323.789
323.414
322.93
322.488
321.936
321.327
320.838
313.463
313.736
314.051
314.163
314.495
314.588
314.707
314.827
314.929
314.75
314.805
314.687
314.484
314.319
314.082
313.795
313.457
313.157
312.83
312.54
304.629
304.639
304.744
304.754
304.846
304.894
304.912
304.966
304.993
304.929
304.959
304.863
304.828
304.851
304.699
304.551
304.472
304.388
304.325
304.177
367.496
368.788
370.146
371.385
372.391
373.225
373.783
374.124
374.277
374.179
373.815
373.252
372.495
371.49
370.314
368.981
367.356
365.714
363.914
362.381
358.582
359.648
360.787
361.922
362.657
363.477
363.966
364.227
364.33
364.267
364.003
363.461
362.754
362.06
360.922
359.726
358.412
356.986
355.456
354.171
349.554
350.42
351.383
352.233
353.11
353.692
354.106
354.409
354.39
354.403
354.095
353.691
353.16
352.403
351.595
350.533
349.477
348.29
346.94
345.828
340.477
341.308
342.054
342.805
343.407
343.861
344.288
344.449
344.557
344.535
344.281
343.968
343.515
342.904
342.163
341.446
340.489
339.5
338.43
337.595
331.61
332.141
332.737
333.324
333.812
334.179
334.44
334.564
334.678
334.625
334.497
334.188
333.823
333.353
332.942
332.17
331.469
330.688
329.886
329.235
322.536
322.951
323.338
323.759
324.136
324.38
324.643
324.679
324.787
324.773
324.591
324.495
324.202
323.805
323.494
322.975
322.442
321.89
321.396
320.977
313.526
313.652
314.107
314.232
314.479
314.625
314.762
314.898
314.924
314.906
314.761
314.648
314.54
314.339
314.113
313.857
313.497
313.156
312.804
312.628
304.492
304.583
304.726
304.774
304.886
304.888
304.97
304.979
305.008
305.012
304.966
304.926
304.863
304.778
304.776
304.66
304.497
304.442
304.307
304.215
)
;

boundaryField
{
    hotSide
    {
        type            fixedGradient;
        gradient        nonuniform List<scalar> 
400
(
321.511
322.87
325.591
329.677
335.133
341.965
350.181
359.788
370.794
383.208
397.037
412.289
428.971
447.088
466.647
487.651
510.105
534.011
559.372
586.191
323.738
325.08
327.767
331.802
337.194
343.949
352.078
361.591
372.498
384.81
398.537
413.687
430.268
448.289
467.755
488.672
511.043
534.872
560.161
586.913
326.149
327.47
330.116
334.091
339.406
346.071
354.099
363.503
374.296
386.491
400.101
415.136
431.606
449.52
468.885
489.706
511.988
535.735
560.948
587.63
328.704
330
332.597
336.503
341.73
348.292
356.205
365.485
376.15
388.215
401.695
416.604
432.954
450.753
470.009
490.73
512.919
536.579
561.714
588.325
331.33
332.599
335.142
338.97
344.099
350.546
358.332
367.477
378.003
389.928
403.271
418.047
434.27
451.949
471.095
491.712
513.807
537.382
562.439
588.978
333.918
335.158
337.643
341.389
346.414
352.74
360.392
369.397
379.779
391.562
404.765
419.407
435.503
453.065
472.101
492.618
514.622
538.114
563.096
589.569
336.321
337.531
339.959
343.622
348.544
354.751
362.274
371.142
381.385
393.031
406.101
420.618
436.595
454.047
472.983
493.409
515.33
538.747
563.663
590.076
338.36
339.543
341.92
345.509
350.339
356.44
363.847
372.595
382.718
394.244
407.2
421.608
437.485
454.844
473.695
494.045
515.897
539.253
564.114
590.478
339.852
341.015
343.352
346.885
351.645
357.665
364.985
373.643
383.675
395.113
407.984
422.312
438.116
455.407
474.197
494.491
516.294
539.606
564.428
590.758
340.643
341.795
344.11
347.613
352.334
358.311
365.584
374.193
384.176
395.567
408.393
422.679
438.443
455.699
474.456
494.722
516.498
539.788
564.589
590.901
340.643
341.795
344.11
347.613
352.334
358.311
365.584
374.193
384.176
395.567
408.393
422.679
438.443
455.699
474.456
494.722
516.498
539.788
564.589
590.901
339.852
341.015
343.352
346.885
351.645
357.665
364.985
373.643
383.675
395.113
407.984
422.312
438.116
455.407
474.197
494.491
516.294
539.606
564.428
590.758
338.36
339.543
341.92
345.509
350.339
356.44
363.847
372.595
382.718
394.244
407.2
421.608
437.485
454.844
473.695
494.045
515.897
539.253
564.114
590.478
336.321
337.531
339.959
343.622
348.544
354.751
362.274
371.142
381.385
393.031
406.101
420.618
436.595
454.047
472.983
493.409
515.33
538.747
563.663
590.076
333.918
335.158
337.643
341.389
346.414
352.74
360.392
369.397
379.779
391.562
404.765
419.407
435.503
453.065
472.101
492.618
514.622
538.114
563.096
589.569
331.33
332.599
335.142
338.97
344.099
350.546
358.332
367.477
378.003
389.928
403.271
418.047
434.27
451.949
471.095
491.712
513.807
537.382
562.439
588.978
328.704
330
332.597
336.503
341.73
348.292
356.205
365.485
376.15
388.215
401.695
416.604
432.954
450.753
470.009
490.73
512.919
536.579
561.714
588.325
326.149
327.47
330.116
334.091
339.406
346.071
354.099
363.503
374.296
386.491
400.101
415.136
431.606
449.52
468.885
489.706
511.988
535.735
560.948
587.63
323.738
325.08
327.767
331.802
337.194
343.949
352.078
361.591
372.498
384.81
398.537
413.687
430.268
448.289
467.755
488.672
511.043
534.872
560.161
586.913
321.511
322.87
325.591
329.677
335.133
341.965
350.181
359.788
370.794
383.208
397.037
412.289
428.971
447.088
466.647
487.651
510.105
534.011
559.372
586.191
)
;
    }
    coldSide
    {
        type            mixed;
        refValue        uniform 300;
        refGradient     uniform 0;
        valueFraction   uniform 0.991591;
        source          uniform 0;
        value           nonuniform List<scalar> 
400
(
300.027
300.028
300.028
300.03
300.03
300.031
300.032
300.033
300.034
300.034
300.035
300.036
300.036
300.037
300.037
300.037
300.038
300.039
300.039
300.038
300.027
300.029
300.03
300.03
300.031
300.032
300.032
300.033
300.034
300.035
300.036
300.036
300.037
300.037
300.038
300.038
300.039
300.039
300.039
300.039
300.028