/*--------------------------------*- C++ -*----------------------------------*\
| =========                 |                                                 |
| \\      /  F ield         | OpenFOAM: The Open Source CFD Toolbox           |
|  \\    /   O peration     | Version:  2212                                  |
|   \\  /    A nd           | Website:  www.openfoam.com                      |
|    \\/     M anipulation  |                                                 |
\*---------------------------------------------------------------------------*/
FoamFile
{
    version     2.0;
    format      ascii;
    arch        "LSB;label=32;scalar=64";
    class       volScalarField;
    location    "0";
    object      relativeErrorField;
}
// * * * * * * * * * * * * * * * * * * * * * * * * * * * * * * * * * * * * * //

dimensions      [0 0 0 1 0 0 0];

internalField   nonuniform List<scalar> 
3200
(
0.00192859
0.00238287
0.00245565
0.00218669
0.00138607
0.000386845
0.000911088
0.00220847
0.00315216
0.00411987
0.00418879
0.00385894
0.00327351
0.00225965
0.00138087
0.000641184
7.1877e-05
5.636e-05
0.000502943
0.00131799
0.00233945
0.00271979
0.00273733
0.00251384
0.00185543
0.000739268
0.000302496
0.00138729
0.00223086
0.00280051
0.00319889
0.00297762
0.00228045
0.00154179
0.000737695
0.000187043
0.000418765
0.00027631
0.000106539
0.000696739
0.00208889
0.00253074
0.00252072
0.0024946
0.00193964
0.00106324
5.77977e-05
0.00102527
0.00176858
0.002142
0.00226811
0.00219947
0.00152401
0.000916617
0.000385881
0.000263206
0.000562972
0.000880413
0.000319298
8.02002e-05
0.00217597
0.00236358
0.00237586
0.00248334
0.00173482
0.00110935
0.000231448
0.000419973
0.00100386
0.00166583
0.0017398
0.00146205
0.00111199
0.000493095
2.40701e-05
0.000516201
0.000951879
0.000872824
0.000516644
0.000132353
0.00180594
0.00208722
0.00195793
0.0017959
0.001679
0.00105895
0.000424008
0.000229776
0.000692022
0.00126857
0.00108808
0.000868602
0.000686223
0.000340467
3.56304e-05
0.000380145
0.000839346
0.000616208
0.000528867
0.000266523
0.00135901
0.00158653
0.00166614
0.00148912
0.00119714
0.000699903
0.00027216
7.26446e-05
0.00059673
0.000504259
0.000720595
0.000677079
0.00050043
0.000187926
0.000192792
0.000412929
0.000778225
0.000571119
0.000330308
0.000377221
0.000979001
0.000901775
0.000915778
0.00105669
0.000915624
0.000653929
0.000176874
1.81379e-05
0.000393753
0.000436593
0.000239791
0.000384288
0.000252917
7.49216e-08
0.000189636
0.000417736
0.000344996
0.000379532
0.000437079
0.000377895
0.000588748
0.000241152
0.000308498
0.000319411
0.000172685
0.00010201
0.000123175
7.40703e-05
4.57028e-05
0.000142963
2.52205e-05
0.000151779
0.00013637
0.000166208
6.70157e-05
3.10732e-05
5.12268e-05
8.30917e-05
1.85479e-06
0.000120055
0.00394114
0.00454174
0.00480086
0.00461277
0.00415328
0.00283753
0.00159634
0.000430393
0.000633373
0.00115555
0.00137943
0.00134662
0.000550205
0.000264526
0.00120418
0.00173882
0.00227308
0.0021553
0.0016996
0.000761308
0.00397052
0.00455681
0.00470108
0.00457214
0.00395497
0.00279222
0.00181415
0.000673492
6.39938e-05
0.000655503
0.0010415
0.000673956
0.00011385
0.000639732
0.00153043
0.00194526
0.00247619
0.00244448
0.00184982
0.00105888
0.00366658
0.0040088
0.00421592
0.00407988
0.00342024
0.00269205
0.00186338
0.000907166
0.00014228
0.000157252
0.00062962
0.00020452
0.000234857
0.000976443
0.0014492
0.00181123
0.00247314
0.00212858
0.00181142
0.00132898
0.003078
0.00353781
0.00371489
0.00369842
0.00327158
0.00264574
0.00167148
0.00115767
0.000323636
0.000332479
0.000138315
0.000128373
0.000438489
0.000932267
0.00134828
0.00180542
0.00209475
0.00175787
0.00195305
0.00134341
0.00269565
0.00283907
0.00299316
0.00312314
0.00258409
0.0020343
0.00140907
0.000971299
0.000244512
4.81001e-05
0.000180762
4.44411e-06
0.000229525
0.000653527
0.0014693
0.00163882
0.00182218
0.00181766
0.00145347
0.00116597
0.00182907
0.00210349
0.00239476
0.0023614
0.00176274
0.00164024
0.00122838
0.000711984
0.000408035
8.90501e-05
0.00017193
7.34885e-05
0.00056932
0.000730712
0.00101331
0.00101225
0.00142413
0.00128363
0.0011633
0.00082447
0.00149447
0.00137285
0.0013286
0.0013014
0.00133493
0.00101883
0.000583608
0.000346672
0.000403162
1.82924e-05
7.42358e-05
0.000110011
0.000249425
0.000357778
0.000650732
0.000818586
0.000923426
0.000759087
0.000452214
0.000495024
0.000318415
0.000349584
0.000688243
0.000198556
0.000326024
0.000166211
0.000283411
0.000160684
4.45301e-05
2.09394e-05
0.00016271
5.07022e-06
7.60737e-05
0.000392575
2.18989e-05
0.00029644
0.000156806
0.000436748
7.63109e-05
0.000166954
0.00663179
0.00747911
0.00771975
0.00749962
0.00692105
0.00592561
0.00479815
0.00381987
0.00299265
0.00215411
0.00201158
0.0023049
0.00257052
0.00360433
0.00426483
0.00510714
0.00505121
0.00496158
0.00440824
0.00330205
0.00594059
0.00680836
0.00724475
0.00722093
0.00652936
0.00560404
0.00467898
0.00347267
0.00273429
0.00229575
0.00205487
0.00214316
0.00260977
0.00326352
0.0041418
0.00456751
0.00494609
0.00462044
0.00430096
0.00318895
0.0054529
0.00589485
0.00630339
0.00612925
0.00581832
0.00509111
0.00420938
0.00341979
0.00266835
0.00223856
0.00188283
0.00220562
0.00268535
0.00322798
0.00367181
0.00432608
0.00424679
0.00427339
0.00355711
0.00318991
0.00478028
0.00519874
0.00536985
0.00546836
0.00490973
0.00432046
0.00377241
0.00303576
0.00241163
0.00199702
0.00212337
0.00189799
0.00228479
0.00289331
0.00334223
0.00358143
0.00383687
0.00357839
0.00323614
0.00251566
0.00378948
0.00420012
0.00441045
0.00428708
0.00391469
0.00359343
0.00315261
0.00255306
0.00197621
0.00158885
0.00176561
0.00157008
0.00165079
0.00245439
0.00280738
0.00318689
0.00317592
0.00303557
0.00259418
0.00222936
0.00295908
0.00302246
0.00331595
0.00306737
0.00323265
0.00263902
0.00206222
0.00192535
0.00146041
0.00119068
0.00136929
0.00151697
0.00127223
0.00185149
0.00220321
0.00228277
0.00223766
0.00213473
0.00194686
0.00172623
0.00162922
0.00191942
0.00199519
0.00196491
0.00204188
0.0016682
0.00142983
0.00101517
0.000851411
0.000849566
0.000827207
0.000779555
0.000761845
0.00129929
0.00101081
0.0014001
0.00140382
0.00127154
0.00109906
0.0011777
0.000653856
0.000652688
0.000805745
0.000524922
0.000759952
0.000363088
0.000368412
0.000401142
0.000308014
0.000481568
0.000414694
0.000204229
0.00042759
0.000476524
0.00031836
0.000343794
0.000355472
0.000528896
0.000426374
0.000174351
0.0088391
0.0097624
0.0105457
0.010283
0.00982263
0.0091931
0.00808882
0.00709515
0.00625244
0.00568744
0.00509556
0.00554358
0.00622276
0.00665692
0.00723215
0.00774192
0.00803128
0.00734844
0.00656947
0.00572895
0.00830999
0.00883562
0.00938347
0.00981219
0.0091116
0.00857693
0.00755537
0.00654579
0.00570106
0.00553427
0.00530557
0.00527303
0.0055891
0.00617687
0.00666757
0.00722963
0.00727177
0.00696125
0.00613639
0.00540608
0.00737273
0.00795195
0.00839632
0.00818648
0.00802216
0.00740473
0.00667524
0.00593854
0.00535532
0.00475362
0.00445806
0.00473981
0.005148
0.00547087
0.00576799
0.00642512
0.00639533
0.00612246
0.00555919
0.00471158
0.00624123
0.00683882
0.00725808
0.00712756
0.00682316
0.00661153
0.00574958
0.00509882
0.00448712
0.003985
0.00409586
0.00409357
0.00444631
0.00495009
0.00506384
0.00558469
0.00571849
0.00515844
0.00464884
0.00429022
0.00499773
0.00509182
0.00565297
0.00580355
0.00545167
0.00513933
0.00456614
0.00402751
0.00375459
0.00348467
0.00316438
0.00325067
0.00378635
0.00391265
0.00424772
0.00444026
0.00439519
0.00427527
0.00398493
0.00344932
0.00364639
0.00400182
0.00427048
0.00428166
0.00431651
0.0038494
0.0033687
0.00290308
0.00283906
0.00257344
0.002601
0.00237857
0.00273535
0.00271455
0.00309931
0.0033035
0.00332195
0.00347723
0.00274321
0.00245852
0.00225559
0.00236842
0.00270258
0.00263641
0.00247764
0.00242287
0.00219146
0.0019322
0.00177928
0.00161846
0.0014342
0.00164183
0.00169617
0.00176122
0.00196575
0.00201509
0.00189825
0.00188217
0.00161183
0.00171558
0.000637198
0.000653595
0.000812037
0.000867459
0.000716279
0.000913564
0.000542745
0.000468162
0.000662598
0.000495369
0.000597348
0.000636768
0.000436643
0.00056157
0.000667244
0.000676732
0.000730964
0.000546296
0.000648512
0.000576068
0.0110186
0.0119594
0.0126166
0.0128053
0.0126063
0.0119893
0.0111082
0.0101972
0.0094434
0.0086859
0.00876147
0.008829
0.00902707
0.00959624
0.00983372
0.0104397
0.0102929
0.00960921
0.00875946
0.00746036
0.009827
0.0105816
0.0113911
0.0115267
0.0113941
0.0110357
0.00999634
0.00933648
0.00857427
0.00810883
0.0078769
0.00813529
0.00846797
0.008993
0.00902257
0.00935654
0.00918524
0.00878026
0.00796256
0.00713012
0.00882584
0.00949867
0.00994604
0.0101449
0.00995669
0.00955912
0.00893383
0.00821325
0.00778881
0.00723903
0.00712043
0.00705465
0.0074001
0.00785823
0.00819273
0.00841866
0.00819323
0.00768151
0.00717415
0.00611059
0.007242
0.00807965
0.00843898
0.00836716
0.00849343
0.00827287
0.00749428
0.00701854
0.00665286
0.00619007
0.00612635
0.00614143
0.00615918
0.00655512
0.00692754
0.00718333
0.00702952
0.00649037
0.0060575
0.00534324
0.00597119
0.00664203
0.00689803
0.00665323
0.00689304
0.00660024
0.00612827
0.00578801
0.00509699
0.00500739
0.00480105
0.00478852
0.00517936
0.00557954
0.00550307
0.00544836
0.00578441
0.00531522
0.0047936
0.00439217
0.0045933
0.00485902
0.00487388
0.00492315
0.00509522
0.00477635
0.00456526
0.00422222
0.00409027
0.0036479
0.00358198
0.00350832
0.00382006
0.00386726
0.00409768
0.00388015
0.00426965
0.00391594
0.0036283
0.00316711
0.00273849
0.00308582
0.00303093
0.00298603
0.00316064
0.00282769
0.00271749
0.00286437
0.00250642
0.00230406
0.00220699
0.00224443
0.00203092
0.00242445
0.00274489
0.00256851
0.00250024
0.00251283
0.00204157
0.00224773
0.000807362
0.000938065
0.00126884
0.000946185
0.00104755
0.000831364
0.0010254
0.000794374
0.00106919
0.000797289
0.000742179
0.000934887
0.00096073
0.000898024
0.000853107
0.000535074
0.000995011
0.000738705
0.000944158
0.000723782
0.0122479
0.0133351
0.0143783
0.0146254
0.0147642
0.0143562
0.0135264
0.0127668
0.0120496
0.0116554
0.0113922
0.0114495
0.0117351
0.0121557
0.012244
0.012377
0.0122897
0.0112391
0.0101062
0.00882899
0.011191
0.0121438
0.0129325
0.0131488
0.0133325
0.0128844
0.0122403
0.0115996
0.0111068
0.0106132
0.0104518
0.010512
0.010949
0.0111479
0.0112329
0.0111953
0.0110312
0.0102567
0.00937168
0.00802803
0.00978063
0.0107526
0.0113604
0.0116012
0.0116561
0.0112748
0.0109285
0.0102455
0.00965056
0.00943323
0.00934515
0.00925437
0.00941426
0.00979827
0.00995575
0.00995965
0.00968647
0.00918677
0.00824964
0.00708364
0.00843063
0.00916167
0.00952938
0.00971605
0.0100069
0.00968834
0.00913807
0.00863964
0.00839615
0.00795591
0.00782895
0.00771557
0.00803154
0.0081724
0.00846262
0.00848897
0.00831104
0.00765074
0.00687924
0.0061154
0.00669684
0.00725392
0.00755543
0.0080053
0.0079185
0.00782032
0.00735489
0.00700767
0.00661459
0.00657345
0.00630358
0.00627784
0.00665708
0.00640698
0.00660708
0.00685139
0.00675379
0.00602073
0.00554159
0.0050405
0.00489601
0.00531428
0.00572128
0.00587034
0.00570113
0.00560243
0.00519866
0.00504996
0.00475397
0.00463304
0.00466378
0.00480509
0.00465963
0.00490649
0.00501412
0.00493924
0.00492079
0.00447492
0.00411145
0.0037291
0.00297461
0.0031727
0.00341921
0.00341981
0.00363882
0.00333918
0.00322862
0.00336928
0.00312552
0.00280736
0.00277277
0.00285428
0.00302116
0.00304299
0.00288047
0.00300056
0.00309313
0.00282198
0.00239648
0.00228041
0.000947617
0.00101782
0.00120419
0.00114567
0.00132202
0.00100907
0.00102206
0.00104437
0.000798725
0.00107005
0.00119495
0.00119262
0.00090753
0.00111941
0.00107653
0.00106229
0.000977528
0.00090877
0.000805667
0.000709728
0.0131083
0.0144503
0.015558
0.0162029
0.0161755
0.0161869
0.01567
0.0147944
0.0144332
0.0139092
0.0137859
0.0137064
0.0139157
0.0140582
0.0140499
0.013957
0.0134276
0.0124799
0.01114
0.00956697
0.011784
0.0128404
0.0139335
0.0145793
0.014489
0.0144253
0.0140011
0.0132718
0.0129951
0.0126891
0.0122639
0.0124297
0.0126283
0.0127754
0.0125988
0.0127134
0.012192
0.0111898
0.0100632
0.00876853
0.0103564
0.011229
0.0119798
0.0125706
0.012745
0.0125554
0.0121851
0.0119101
0.0113847
0.0113936
0.0108447
0.0110493
0.0110355
0.0112661
0.0112244
0.0109655
0.0107826
0.00992291
0.00892846
0.00788533
0.00855822
0.0097243
0.0102923
0.0104369
0.0106344
0.0105881
0.0104149
0.00987178
0.00994322
0.00941536
0.00939957
0.00926473
0.00926815
0.00939306
0.00961515
0.0092606
0.00909948
0.00836497
0.00766108
0.00645414
0.00701788
0.00796995
0.00806029
0.00870426
0.00871053
0.00823456
0.00847105
0.00810514
0.00795905
0.00751907
0.00755976
0.00739746
0.00768707
0.00758393
0.00757991
0.0075505
0.00729551
0.00658022
0.00614626
0.00552256
0.00528475
0.0058643
0.00602275
0.00640634
0.00648927
0.00626284
0.00617622
0.00599649
0.00561258
0.00559554
0.00557176
0.00543056
0.00551006
0.00534046
0.0054852
0.00549574
0.0053886
0.00506367
0.0044133
0.00388647
0.00315134
0.00334876
0.00360163
0.00389053
0.00397253
0.0043531
0.00379324
0.00383921
0.00350053
0.00340969
0.00323834
0.00348913
0.00344122
0.00331786
0.00362214
0.00331219
0.00327746
0.00297691
0.00253279
0.00250159
0.00110454
0.00104012
0.00102982
0.00128844
0.00130308
0.00127436
0.00135221
0.00135106
0.00109066
0.00154625
0.00103192
0.00123219
0.00126844
0.00113045
0.00140764
0.00107638
0.00136176
0.00119477
0.000827858
0.00109034
0.0131492
0.014692
0.015914
0.0169379
0.0172551
0.0170998
0.0167979
0.0163896
0.016177
0.015654
0.0154605
0.0150934
0.0152368
0.0156421
0.0152889
0.0147269
0.0140673
0.0129674
0.0115817
0.0096156
0.0121526
0.0132312
0.0143668
0.0151628
0.0153527
0.01547
0.0152819
0.0149102
0.0144521
0.0140421
0.013989
0.013798
0.013801
0.0139665
0.0138538
0.0132933
0.0127425
0.0118033
0.0101974
0.00866305
0.0104166
0.0116064
0.0125154
0.0131481
0.0134929
0.0135183
0.0133646
0.0131731
0.0126718
0.0126284
0.0123066
0.0121358
0.0123683
0.0123571
0.0119872
0.0117185
0.0113904
0.0103143
0.00923751
0.00797327
0.00905619
0.00976617
0.0106393
0.0112289
0.0113284
0.0115729
0.0114249
0.0111061
0.0107203
0.0105706
0.0103887
0.010457
0.0105378
0.0103501
0.0102709
0.00997042
0.00934385
0.00876272
0.00770815
0.00662038
0.00711602
0.00778358
0.00858448
0.00877854
0.00896028
0.0092466
0.00918337
0.00865129
0.00879025
0.00838855
0.00829411
0.00829024
0.00817943
0.00832454
0.00827567
0.00798923
0.00776191
0.00677901
0.00618693
0.00531969
0.00508617
0.00564467
0.00630029
0.0065769
0.00678168
0.0066632
0.00666504
0.00658833
0.00635731
0.00606093
0.00633508
0.00622318
0.00610376
0.00622924
0.00609099
0.00577317
0.00562308
0.00504338
0.00458821
0.00414005
0.003359
0.00364263
0.00389149
0.00403238
0.00386408
0.00403167
0.00403621
0.00401893
0.00395909
0.00374236
0.0039523
0.00395253
0.00365409
0.00380154
0.00375436
0.00359975
0.00331903
0.00305061
0.00279959
0.00253389
0.00108042
0.00124255
0.00142038
0.00145286
0.00151009
0.00148146
0.00133524
0.00134632
0.00129624
0.00131137
0.00133229
0.00137988
0.00131425
0.00156554
0.00137701
0.00122026
0.00133457
0.00125913
0.000912926
0.000916136
0.0128338
0.0142399
0.015822
0.0170014
0.017526
0.0176242
0.0176569
0.0172885
0.0170039
0.0167718
0.0167077
0.0161852
0.0163066
0.0159547
0.0156953
0.0151652
0.0140517
0.0127885
0.0111217
0.00900107
0.0116244
0.0130065
0.0142205
0.0153582
0.0157293
0.0159256
0.0158768
0.0156243
0.0154789
0.0149183
0.0149856
0.0146747
0.0145153
0.0144355
0.0141676
0.0135351
0.0127155
0.0115754
0.0100513
0.00840007
0.0102226
0.0111356
0.0124854
0.0131772
0.0136725
0.0138583
0.0139462
0.0137445
0.0133824
0.013227
0.0131312
0.0129444
0.0129901
0.0127184
0.0124874
0.0120436
0.011189
0.00998416
0.00879445
0.00734035
0.00833265
0.00942742
0.0105144
0.0110059
0.0116236
0.0118799
0.0116582
0.0117083
0.0114091
0.0110772
0.0109808
0.0108172
0.0108022
0.0107167
0.0106228
0.0100569
0.00944536
0.00873588
0.00713168
0.00632026
0.00711298
0.00762093
0.00833187
0.00918097
0.00938806
0.00942137
0.00941969
0.00911681
0.00922173
0.00898918
0.00884624
0.00880894
0.00863727
0.00872872
0.00845052
0.00805039
0.0076249
0.00668994
0.0062503
0.00508052
0.00526679
0.00556226
0.00626385
0.00675474
0.00676311
0.00691743
0.00680602
0.0069575
0.00684506
0.00670781
0.00663632
0.00660719
0.00627668
0.0061594
0.00639485
0.00592361
0.00565262
0.00495254
0.00432324
0.00368829
0.0032268
0.00330295
0.00360712
0.0040781
0.00433835
0.00421793
0.00419329
0.00399694
0.00420245
0.00423597
0.00403136
0.00402731
0.00406379
0.00395297
0.00398081
0.00364696
0.00343871
0.00303392
0.0027742
0.00210642
0.00104008
0.0011448
0.00135905
0.00143765
0.00157541
0.00125776
0.00147444
0.0015432
0.00142857
0.00128435
0.00134242
0.00109318
0.00123411
0.00122576
0.00136913
0.00122677
0.00121917
0.000986018
0.00123537
0.000987773
0.0114468
0.0131337
0.0150217
0.0162888
0.0171395
0.0177206
0.0175067
0.0175343
0.0175124
0.017197
0.0168526
0.0167192
0.0163482
0.0162734
0.01551
0.0147979
0.013541
0.011733
0.00970696
0.00771233
0.0103318
0.0120413
0.013439
0.0146312
0.015489
0.0156511
0.0160918
0.0157475
0.0157695
0.0152958
0.0151391
0.0149335
0.0151489
0.0144068
0.0140083
0.0131121
0.0121781
0.0107197
0.00883054
0.00742931
0.00939209
0.0107591
0.0118065
0.0128932
0.0134866
0.0137895
0.0141017
0.0138492
0.0138894
0.0136603
0.0134165
0.0131097
0.0131214
0.0127913
0.0121169
0.0115236
0.0106418
0.00938776
0.00807978
0.0065412
0.00794305
0.00878452
0.0100529
0.0109134
0.0115125
0.0116571
0.0118272
0.0117417
0.0116764
0.0113576
0.011371
0.0111189
0.0110269
0.0107838
0.0104834
0.00976934
0.00927409
0.00798555
0.00685512
0.00576246
0.00621413
0.00705039
0.00821309
0.00855573
0.00930753
0.00924303
0.00930193
0.00952531
0.00935904
0.0089361
0.00904627
0.00908685
0.00882096
0.00887001
0.00842113
0.00796224
0.00735627
0.00651103
0.00533535
0.0046896
0.00482612
0.00529787
0.00591116
0.0065948
0.00672578
0.00690122
0.00702178
0.00695594
0.0069032
0.00691808
0.00685773
0.00667184
0.00650733
0.0064288
0.00609507
0.0057808
0.00515533
0.00461448
0.0037955
0.00324213
0.00281682
0.00294086
0.00357334
0.0038254
0.00406753
0.00411631
0.00421596
0.00435835
0.00417627
0.00401902
0.00415844
0.00407402
0.00412564
0.00385558
0.0037122
0.00348222
0.00328672
0.00289562
0.0025687
0.00188634
0.00103182
0.00134406
0.00127155
0.00128928
0.00124087
0.00135558
0.00163291
0.0013908
0.00154521
0.00160248
0.00150299
0.00142494
0.00152616
0.00123383
0.0012514
0.00137387
0.00118758
0.00130362
0.000924367
0.00072749
0.0096069
0.0115583
0.0133401
0.0147444
0.0159686
0.0166899
0.0169093
0.0168359
0.0168776
0.0166407
0.0163907
0.0162568
0.0158787
0.0152944
0.0147621
0.0135806
0.0120375
0.010277
0.00801315
0.00596456
0.00887755
0.0107405
0.012003
0.0135042
0.0144159
0.0150396
0.0153392
0.0151851
0.0151481
0.0150216
0.0149237
0.0147999
0.0142957
0.0139378
0.0130703
0.0123146
0.0110678
0.00933946
0.00734918
0.0054973
0.00788536
0.00911325
0.0107069
0.0120402
0.0127288
0.0131265
0.0133245
0.0136057
0.0132523
0.0132491
0.0131658
0.0128269
0.0126965
0.012337
0.0114387
0.0108766
0.0096433
0.00821495
0.00661533
0.00484009
0.00689936
0.00795961
0.00900505
0.00989604
0.0104969
0.0110849
0.0113857
0.0113428
0.011303
0.0112927
0.01122
0.0109576
0.0106995
0.0102809
0.00990582
0.00907583
0.00801328
0.00699581
0.00579509
0.0043619
0.00545977
0.0063052
0.0072719
0.00794364
0.00870936
0.00896098
0.0091848
0.00921211
0.00920858
0.00903896
0.00883443
0.00863036
0.00839247
0.00830479
0.0076694
0.00730412
0.00675377
0.00569418
0.0045258
0.0036007
0.00393335
0.00474171
0.00512278
0.00596687
0.00627974
0.00649993
0.0066021
0.00682822
0.00676822
0.00683126
0.00679227
0.00630021
0.00614457
0.0059357
0.0060545
0.00517734
0.00486013
0.00414738
0.00331814
0.00260717
0.00250128
0.00272916
0.00345868
0.00350345
0.00390321
0.00418657
0.00414005
0.00412664
0.00386724
0.00409913
0.00391229
0.00382685
0.00413926
0.00370432
0.00375066
0.00346342
0.00298748
0.00241277
0.00191766
0.00163655
0.00081515
0.000919888
0.00101713
0.00127881
0.00140625
0.00150194
0.00137364
0.00150043
0.00158609
0.00131957
0.00139747
0.0013506
0.00126001
0.00112765
0.00135612
0.000948471
0.00112525
0.000772439
0.000725239
0.000634217
0.00724682
0.00911971
0.0110538
0.0128746
0.0141779
0.0151568
0.0156075
0.0155046
0.0158302
0.0156933
0.0153818
0.0150407
0.0144765
0.0137645
0.0128832
0.0116483
0.00995739
0.00790633
0.00548263
0.00328694
0.00663925
0.00847692
0.0103097
0.01158
0.012644
0.0134146
0.0140261
0.0141074
0.0142367
0.0140781
0.013821
0.0135193
0.0129934
0.0125645
0.0115882
0.0104639
0.00916389
0.0074418
0.00527758
0.00314575
0.00582855
0.00730831
0.00916069
0.0102079
0.0110931
0.0118688
0.0122104
0.0123612
0.0124239
0.0122642
0.0121514
0.0119418
0.0117037
0.010935
0.010342
0.00919179
0.00790295
0.0064081
0.00462647
0.00292811
0.0052181
0.00616836
0.00785615
0.00845065
0.00923029
0.00996619
0.0103698
0.0104435
0.0106898
0.0106211
0.0101914
0.0100974
0.00962918
0.00944362
0.00857094
0.00776505
0.00683649
0.00545693
0.00405592
0.0026366
0.00414945
0.00497083
0.00619307
0.00689489
0.00748852
0.00809364
0.0083908
0.00828778
0.00847182
0.00828853
0.00854201
0.00803511
0.00771418
0.00761805
0.00706856
0.00637362
0.00533527
0.00435802
0.0031935
0.00228306
0.00288155
0.00347463
0.00461095
0.00505907
0.0056895
0.00599783
0.00610857
0.00638335
0.0062752
0.00610055
0.0060994
0.00606752
0.00572271
0.00553643
0.00521927
0.00459646
0.00398253
0.00337065
0.00253821
0.00141474
0.00187159
0.00222971
0.0029126
0.00308588
0.00349815
0.00358045
0.00388362
0.0040612
0.0038657
0.00377614
0.00362797
0.00352276
0.00372846
0.00358372
0.00327552
0.00304224
0.00254067
0.00182414
0.00152552
0.00085276
0.000437063
0.000657203
0.000848828
0.00110374
0.00118728
0.00132313
0.00130502
0.00137098
0.00122204
0.00137523
0.00126168
0.00140417
0.00118963
0.00119852
0.00126266
0.00105981
0.000835614
0.000692966
0.000453795
0.00036609
0.0035127
0.00599914
0.00826632
0.0101082
0.0113584
0.0123684
0.0132865
0.0135989
0.0134821
0.0136591
0.0135816
0.0131211
0.0123917
0.0114981
0.0104518
0.00902068
0.00722467
0.00493379
0.00241264
1.98667e-05
0.00341643
0.00543542
0.00739216
0.00902433
0.0105394
0.0115095
0.011848
0.0120773
0.0122784
0.012098
0.0122347
0.0118215
0.0112863
0.0105445
0.00950633
0.00821237
0.0065737
0.00466153
0.00250091
0.000458473
0.00333933
0.00488349
0.00660483
0.00805601
0.0094025
0.0100816
0.010601
0.0108325
0.0109471
0.010802
0.0105419
0.010349
0.00992192
0.00914705
0.00827451
0.0073251
0.00585073
0.00392477
0.00204397
0.000210824
0.00276478
0.00403388
0.00570271
0.006721
0.00754852
0.00846312
0.0089183
0.00923662
0.00915776
0.00932157
0.0090697
0.0088544
0.00839073
0.00797751
0.00721375
0.00586384
0.00503818
0.003555
0.00205081
0.000558561
0.00242521
0.00332147
0.00442968
0.00550045
0.00623757
0.00703627
0.00699651
0.00743035
0.00738606
0.00734985
0.00706126
0.00709151
0.00685145
0.00622567
0.00559496
0.00507549
0.00402636
0.00292556
0.00169097
0.000330594
0.00188214
0.00246906
0.00341434
0.00397804
0.00449849
0.00501621
0.00532647
0.00548774
0.00550524
0.00540441
0.00543008
0.00550556
0.00486897
0.00468837
0.0043612
0.00378215
0.00309126
0.00210811
0.00119841
0.000400219
0.00120337
0.00163598
0.00215604
0.00251955
0.00300263
0.00317084
0.0030544
0.00346847
0.00339271
0.0035541
0.0034384
0.00322425
0.00299668
0.00297543
0.00272621
0.00226457
0.00198816
0.00141215
0.000687466
0.000340028
0.000244106
0.000623396
0.000644626
0.000766392
0.000938197
0.00127102
0.0011551
0.00121884
0.00132682
0.00126793
0.00119002
0.00107799
0.00110508
0.00102356
0.00121526
0.000665992
0.00077289
0.00038335
0.000384874
1.32459e-05
0.000437697
0.00205895
0.00434893
0.00635233
0.00808326
0.00924198
0.0100536
0.0105368
0.0107176
0.0107663
0.0107585
0.010287
0.00922438
0.00836734
0.00703987
0.00554386
0.00349654
0.00108992
0.00156707
0.004218
3.46321e-06
0.00188807
0.0041465
0.00600704
0.00748278
0.00843852
0.00919132
0.00964987
0.00962508
0.00985399
0.00951243
0.00927015
0.00849155
0.00778047
0.00656776
0.00531168
0.00350581
0.00128224
0.00114192
0.0034078
0.000210784
0.00205779
0.0037986
0.00515183
0.00668161
0.00746524
0.0080474
0.00865722
0.00873025
0.00863673
0.00836305
0.00809552
0.00763603
0.00680006
0.00585904
0.00466096
0.00323893
0.00137759
0.00092552
0.00265717
0.000209265
0.00172088
0.00321757
0.00472403
0.00566166
0.00646514
0.00697633
0.00735883
0.00720586
0.00747244
0.00715039
0.00677394
0.00637037
0.0060021
0.00495981
0.00385153
0.00285477
0.00114719
0.000443209
0.00202745
0.00028045
0.00152592
0.00265164
0.00377543
0.00456896
0.00520907
0.00551962
0.0057617
0.00592041
0.006218
0.00593015
0.00569098
0.00511447
0.00478956
0.00412974
0.00339167
0.0023558
0.00102386
0.000477307
0.00160507
0.000283886
0.0011579
0.00179588
0.00292565
0.003461
0.00382818
0.00417187
0.00421241
0.00445411
0.00444498
0.00439147
0.00428345
0.00385772
0.00336978
0.00304064
0.00236575
0.00166551
0.000754754
0.00031565
0.0012479
0.000104912
0.000557751
0.00118965
0.00165393
0.00204427
0.0023544
0.00226892
0.00253709
0.00270164
0.00239132
0.00263181
0.00267489
0.00240359
0.0022533
0.00184969
0.00146133
0.00109862
0.000598479
0.000124825
0.000427027
6.58913e-05
0.000253069
0.000449132
0.000769665
0.000667717
0.000733298
0.000800146
0.000903026
0.00101508
0.000766751
0.000982042
0.000858433
0.000836159
0.000796681
0.00079378
0.000590424
0.000163741
0.000250833
0.000151141
0.000266871
0.00496958
0.00274425
6.52283e-05
0.00220041
0.00375037
0.00512512
0.00618081
0.00691713
0.0070814
0.00709456
0.00684883
0.00629072
0.0054025
0.00440537
0.00320363
0.00144836
0.000732189
0.00336082
0.00610285
0.0087228
0.00432663
0.00208569
0.000269919
0.00215028
0.00374227
0.00476304
0.005926
0.00625744
0.0066145
0.00634382
0.00649051
0.00592309
0.00518288
0.00429612
0.00309305
0.00147936
0.000547607
0.00272711
0.00516185
0.00753974
0.00354732
0.00178884
0.000387374
0.00216406
0.00349487
0.0044804
0.00522218
0.00566798
0.00594572
0.00578904
0.00567624
0.00534825
0.004685
0.00390997
0.00290226
0.00141685
0.000392265
0.00210176
0.00426555
0.0062869
0.00263739
0.0011411
0.000216311
0.00179107
0.0029753
0.00379944
0.00445371
0.00493333
0.00515241
0.00506423
0.00492722
0.00448626
0.0040906
0.00334895
0.00234293
0.00127385
0.000119344
0.00167492
0.00352774
0.00515692
0.00218406
0.00096176
0.00040933
0.00144901
0.00215222
0.00305902
0.0035241
0.00386544
0.00408559
0.00406892
0.00405855
0.00375152
0.00337345
0.00250877
0.00227748
0.00114214
0.000149658
0.00172865
0.00277652
0.00397681
0.00157617
0.000805765
0.000439068
0.00102748
0.00203542
0.00243563
0.00265458
0.00302249
0.00314475
0.00313717
0.00302904
0.00284235
0.00247127
0.00213775
0.00158861
0.000847526
0.000260496
0.00104104
0.00185823
0.00273002
0.00139441
0.000407883
0.000186619
0.000767356
0.00109442
0.00143338
0.0018088
0.00175699
0.00187438
0.00197882
0.0019213
0.00180463
0.00167689
0.00130568
0.000821847
0.000558953
0.000103669
0.000743721
0.0010665
0.00169062
0.000401717
5.3544e-05
0.000166741
0.000287413
0.000442904
0.00045621
0.000862545
0.000651798
0.000682799
0.000542101
0.000732238
0.000546572
0.000519106
0.000355441
0.000381486
7.47609e-05
5.36537e-05
0.000119884
0.000333526
0.000726027
0.0104142
0.0078267
0.00529657
0.00276499
0.00102102
0.000514503
0.00160488
0.00226743
0.00249587
0.0027731
0.00242514
0.00202986
0.00108954
0.000114701
0.00172407
0.00363593
0.00575084
0.00851134
0.0113557
0.0140857
0.00901451
0.00680684
0.00447278
0.00234383
0.000843593
0.000820452
0.00158313
0.00241801
0.00269425
0.00235575
0.00243665
0.00227799
0.00123784
0.000187974
0.00123805
0.00291688
0.00491149
0.00719848
0.00995311
0.0123149
0.00773434
0.00567102
0.00350211
0.00190844
0.00026146
0.000766718
0.00152823
0.00188621
0.00247307
0.00245541
0.00238325
0.00191024
0.00130012
0.000205879
0.000740273
0.00233715
0.00416269
0.00618594
0.00827951
0.0104568
0.00617298
0.00481272
0.00278408
0.00129179
0.000325335
0.000732044
0.00137428
0.00199963
0.00211041
0.00232441
0.00219785
0.00179078
0.00125692
0.000528056
0.000578487
0.00164357
0.00317665
0.0051399
0.00682362
0.00882524
0.00464768
0.00356415
0.00232876
0.000928907
0.000176615
0.000756948
0.00132616
0.0014723
0.00147081
0.00176182
0.00159454
0.00140695
0.000849253
0.0006698
0.000565938
0.00133263
0.00245364
0.00400677
0.00523209
0.00651803
0.0034107
0.00267667
0.00168335
0.000820939
5.45017e-05
0.000671948
0.000945744
0.00119102
0.00138822
0.00144077
0.00129034
0.00119539
0.000739464
0.000305992
5.58739e-05
0.00088106
0.00163619
0.0030451
0.00396527
0.0049018
0.00210649
0.00169299
0.000975989
0.000469782
0.000140333
0.000312409
0.000672326
0.000850748
0.000953878
0.000689166
0.000896946
0.000572979
0.000462539
0.000342028
0.000190661
0.000460866
0.000956257
0.00185436
0.00244078
0.00291213
0.000787976
0.000416045
0.000238892
7.78321e-05
2.30832e-05
7.76034e-06
0.000357471
0.000486709
0.000403424
0.000346531
0.000201245
0.000290623
3.9058e-05
0.000221989
0.000145503
0.000156752
0.00041671
0.000646651
0.000742168
0.00110672
0.0163952
0.0136931
0.0109436
0.00854625
0.006473
0.00480062
0.00366467
0.00282133
0.00255468
0.00244324
0.00253694
0.00324809
0.00415663
0.00524144
0.00707544
0.00897775
0.0113948
0.0142245
0.0173386
0.0202722
0.0142547
0.011981
0.00946038
0.00727268
0.0054293
0.00412849
0.00288155
0.00221953
0.00195155
0.00190146
0.00221843
0.00264404
0.00327653
0.00465293
0.00598016
0.0077535
0.00991096
0.0122655
0.0151125
0.0175362
0.0121697
0.0101142
0.00802747
0.0062046
0.00468709
0.00353924
0.00250071
0.00186873
0.0015805
0.00161855
0.00153301
0.00207047
0.00273729
0.00353282
0.00477682
0.00659351
0.00846241
0.0104771
0.0129738
0.0149101
0.00999352
0.0084242
0.0066628
0.00515203
0.00375251
0.00274915
0.0020477
0.00140465
0.000946206
0.000953064
0.00122621
0.0016045
0.00243505
0.00285362
0.00388945
0.00536527
0.00704766
0.00881273
0.010505
0.0124652
0.00787669
0.00655205
0.00533073
0.00398767
0.00294344
0.00205697
0.00132205
0.000996799
0.000837158
0.000770807
0.000700953
0.00119614
0.00174682
0.0021588
0.0029778
0.00405885
0.00542149
0.00690746
0.00856918
0.00966145
0.00561301
0.00484542
0.00384443
0.00280402
0.0021287
0.00136735
0.000962485
0.000653461
0.0005371
0.000357926
0.000560171
0.000603774
0.0013127
0.00167469
0.00210574
0.00321472
0.00393173