/*--------------------------------*- C++ -*----------------------------------*\
| =========                 |                                                 |
| \\      /  F ield         | OpenFOAM: The Open Source CFD Toolbox           |
|  \\    /   O peration     | Version:  2212                                  |
|   \\  /    A nd           | Website:  www.openfoam.com                      |
|    \\/     M anipulation  |                                                 |
\*---------------------------------------------------------------------------*/
FoamFile
{
    version     2.0;
    format      ascii;
    arch        "LSB;label=32;scalar=64";
    class       volScalarField;
    location    "./ITHACAoutput/true/4.6";
    object      trueState;
}
// * * * * * * * * * * * * * * * * * * * * * * * * * * * * * * * * * * * * * //

dimensions      [0 0 0 1 0 0 0];

internalField   nonuniform List<scalar> 
3200
(
346.32
347.11
348.118
349.217
350.349
351.46
352.485
353.351
353.981
354.314
354.314
353.981
353.351
352.485
351.46
350.349
349.217
348.118
347.11
346.32
340.16
340.829
341.698
342.649
343.628
344.589
345.476
346.224
346.768
347.056
347.056
346.768
346.224
345.476
344.589
343.628
342.649
341.698
340.829
340.16
333.994
334.549
335.282
336.085
336.913
337.725
338.473
339.104
339.564
339.806
339.806
339.564
339.104
338.473
337.725
336.913
336.085
335.282
334.549
333.994
327.824
328.271
328.868
329.524
330.201
330.864
331.476
331.991
332.366
332.564
332.564
332.366
331.991
331.476
330.864
330.201
329.524
328.868
328.271
327.824
321.651
321.993
322.457
322.967
323.493
324.008
324.483
324.883
325.174
325.328
325.328
325.174
324.883
324.483
324.008
323.493
322.967
322.457
321.993
321.651
315.474
315.717
316.047
316.411
316.787
317.155
317.494
317.78
317.987
318.097
318.097
317.987
317.78
317.494
317.155
316.787
316.411
316.047
315.717
315.474
309.296
309.44
309.639
309.857
310.083
310.304
310.507
310.679
310.803
310.869
310.869
310.803
310.679
310.507
310.304
310.083
309.857
309.639
309.44
309.296
303.116
303.165
303.231
303.304
303.38
303.454
303.522
303.579
303.621
303.643
303.643
303.621
303.579
303.522
303.454
303.38
303.304
303.231
303.165
303.116
346.458
347.241
348.241
349.33
350.45
351.549
352.562
353.417
354.039
354.368
354.368
354.039
353.417
352.562
351.549
350.45
349.33
348.241
347.241
346.458
340.279
340.943
341.805
342.747
343.716
344.667
345.543
346.281
346.819
347.103
347.103
346.819
346.281
345.543
344.667
343.716
342.747
341.805
340.943
340.279
334.095
334.645
335.372
336.168
336.987
337.79
338.53
339.153
339.607
339.846
339.846
339.607
339.153
338.53
337.79
336.987
336.168
335.372
334.645
334.095
327.907
328.349
328.942
329.592
330.262
330.918
331.522
332.031
332.401
332.597
332.597
332.401
332.031
331.522
330.918
330.262
329.592
328.942
328.349
327.907
321.714
322.055
322.514
323.019
323.54
324.05
324.519
324.915
325.202
325.354
325.354
325.202
324.915
324.519
324.05
323.54
323.019
322.514
322.055
321.714
315.52
315.76
316.088
316.449
316.82
317.185
317.52
317.802
318.007
318.115
318.115
318.007
317.802
317.52
317.185
316.82
316.449
316.088
315.76
315.52
309.323
309.467
309.663
309.88
310.103
310.322
310.523
310.692
310.815
310.88
310.88
310.815
310.692
310.523
310.322
310.103
309.88
309.663
309.467
309.323
303.125
303.173
303.239
303.312
303.387
303.46
303.527
303.584
303.625
303.647
303.647
303.625
303.584
303.527
303.46
303.387
303.312
303.239
303.173
303.125
346.735
347.506
348.489
349.557
350.655
351.73
352.72
353.554
354.16
354.48
354.48
354.16
353.554
352.72
351.73
350.655
349.557
348.489
347.506
346.735
340.519
341.171
342.019
342.943
343.893
344.823
345.679
346.4
346.924
347.2
347.2
346.924
346.4
345.679
344.823
343.893
342.943
342.019
341.171
340.519
334.297
334.839
335.553
336.334
337.137
337.923
338.645
339.254
339.696
339.929
339.929
339.696
339.254
338.645
337.923
337.137
336.334
335.553
334.839
334.297
328.072
328.507
329.09
329.728
330.384
331.026
331.617
332.114
332.475
332.665
332.665
332.475
332.114
331.617
331.026
330.384
329.728
329.09
328.507
328.072
321.843
322.177
322.629
323.125
323.635
324.134
324.593
324.979
325.259
325.407
325.407
325.259
324.979
324.593
324.134
323.635
323.125
322.629
322.177
321.843
315.611
315.848
316.17
316.524
316.889
317.245
317.572
317.848
318.048
318.153
318.153
318.048
317.848
317.572
317.245
316.889
316.524
316.17
315.848
315.611
309.378
309.519
309.712
309.925
310.144
310.358
310.554
310.72
310.84
310.903
310.903
310.84
310.72
310.554
310.358
310.144
309.925
309.712
309.519
309.378
303.144
303.191
303.256
303.327
303.4
303.472
303.538
303.593
303.633
303.655
303.655
303.633
303.593
303.538
303.472
303.4
303.327
303.256
303.191
303.144
347.152
347.905
348.863
349.902
350.968
352.008
352.964
353.768
354.352
354.66
354.66
354.352
353.768
352.964
352.008
350.968
349.902
348.863
347.905
347.152
340.879
341.517
342.343
343.242
344.164
345.065
345.892
346.586
347.091
347.357
347.357
347.091
346.586
345.892
345.065
344.164
343.242
342.343
341.517
340.879
334.602
335.131
335.827
336.587
337.366
338.127
338.825
339.412
339.837
340.062
340.062
339.837
339.412
338.825
338.127
337.366
336.587
335.827
335.131
334.602
328.32
328.746
329.314
329.935
330.572
331.193
331.764
332.243
332.591
332.774
332.774
332.591
332.243
331.764
331.193
330.572
329.935
329.314
328.746
328.32
322.036
322.363
322.803
323.286
323.781
324.264
324.707
325.08
325.35
325.492
325.492
325.35
325.08
324.707
324.264
323.781
323.286
322.803
322.363
322.036
315.749
315.98
316.294
316.639
316.993
317.338
317.654
317.92
318.113
318.214
318.214
318.113
317.92
317.654
317.338
316.993
316.639
316.294
315.98
315.749
309.461
309.599
309.787
309.994
310.206
310.414
310.604
310.763
310.879
310.939
310.939
310.879
310.763
310.604
310.414
310.206
309.994
309.787
309.599
309.461
303.171
303.218
303.281
303.35
303.421
303.491
303.554
303.608
303.646
303.667
303.667
303.646
303.608
303.554
303.491
303.421
303.35
303.281
303.218
303.171
347.712
348.442
349.368
350.37
351.395
352.392
353.306
354.072
354.627
354.92
354.92
354.627
354.072
353.306
352.392
351.395
350.37
349.368
348.442
347.712
341.363
341.981
342.78
343.648
344.534
345.397
346.188
346.85
347.33
347.583
347.583
347.33
346.85
346.188
345.397
344.534
343.648
342.78
341.981
341.363
335.01
335.523
336.196
336.929
337.679
338.408
339.076
339.635
340.04
340.254
340.254
340.04
339.635
339.076
338.408
337.679
336.929
336.196
335.523
335.01
328.654
329.067
329.616
330.215
330.827
331.424
331.969
332.426
332.757
332.931
332.931
332.757
332.426
331.969
331.424
330.827
330.215
329.616
329.067
328.654
322.295
322.612
323.038
323.503
323.98
324.443
324.867
325.222
325.479
325.614
325.614
325.479
325.222
324.867
324.443
323.98
323.503
323.038
322.612
322.295
315.934
316.159
316.462
316.795
317.135
317.466
317.768
318.022
318.205
318.302
318.302
318.205
318.022
317.768
317.466
317.135
316.795
316.462
316.159
315.934
309.572
309.706
309.888
310.087
310.292
310.49
310.672
310.824
310.934
310.992
310.992
310.934
310.824
310.672
310.49
310.292
310.087
309.888
309.706
309.572
303.209
303.253
303.314
303.381
303.45
303.516
303.577
303.628
303.665
303.685
303.685
303.665
303.628
303.577
303.516
303.45
303.381
303.314
303.253
303.209
348.418
349.12
350.009
350.968
351.943
352.89
353.755
354.478
355.001
355.276
355.276
355.001
354.478
353.755
352.89
351.943
350.968
350.009
349.12
348.418
341.973
342.568
343.335
344.164
345.009
345.829
346.577
347.202
347.654
347.892
347.892
347.654
347.202
346.577
345.829
345.009
344.164
343.335
342.568
341.973
335.526
336.019
336.665
337.366
338.081
338.773
339.405
339.933
340.315
340.515
340.515
340.315
339.933
339.405
338.773
338.081
337.366
336.665
336.019
335.526
329.075
329.472
329.999
330.572
331.156
331.722
332.239
332.67
332.982
333.146
333.146
332.982
332.67
332.239
331.722
331.156
330.572
329.999
329.472
329.075
322.622
322.927
323.336
323.781
324.235
324.675
325.077
325.412
325.654
325.781
325.781
325.654
325.412
325.077
324.675
324.235
323.781
323.336
322.927
322.622
316.168
316.384
316.675
316.993
317.317
317.632
317.918
318.158
318.33
318.421
318.421
318.33
318.158
317.918
317.632
317.317
316.993
316.675
316.384
316.168
309.712
309.841
310.016
310.206
310.401
310.59
310.762
310.906
311.01
311.064
311.064
311.01
310.906
310.762
310.59
310.401
310.206
310.016
309.841
309.712
303.256
303.299
303.357
303.421
303.486
303.55
303.607
303.656
303.69
303.709
303.709
303.69
303.656
303.607
303.55
303.486
303.421
303.357
303.299
303.256
349.272
349.944
350.791
351.701
352.623
353.514
354.325
355
355.487
355.743
355.743
355.487
355
354.325
353.514
352.623
351.701
350.791
349.944
349.272
342.712
343.281
344.012
344.799
345.598
346.369
347.071
347.655
348.076
348.297
348.297
348.076
347.655
347.071
346.369
345.598
344.799
344.012
343.281
342.712
336.15
336.621
337.237
337.902
338.578
339.23
339.823
340.317
340.672
340.859
340.859
340.672
340.317
339.823
339.23
338.578
337.902
337.237
336.621
336.15
329.585
329.964
330.466
331.01
331.563
332.096
332.581
332.984
333.275
333.427
333.427
333.275
332.984
332.581
332.096
331.563
331.01
330.466
329.964
329.585
323.018
323.31
323.699
324.122
324.551
324.966
325.343
325.656
325.882
326
326
325.882
325.656
325.343
324.966
324.551
324.122
323.699
323.31
323.018
316.45
316.657
316.934
317.236
317.543
317.839
318.108
318.332
318.493
318.578
318.578
318.493
318.332
318.108
317.839
317.543
317.236
316.934
316.657
316.45
309.882
310.005
310.171
310.353
310.537
310.715
310.876
311.011
311.107
311.158
311.158
311.107
311.011
310.876
310.715
310.537
310.353
310.171
310.005
309.882
303.313
303.354
303.409
303.47
303.532
303.592
303.646
303.691
303.723
303.74
303.74
303.723
303.691
303.646
303.592
303.532
303.47
303.409
303.354
303.313
350.279
350.917
351.719
352.576
353.442
354.274
355.028
355.653
356.103
356.339
356.339
356.103
355.653
355.028
354.274
353.442
352.576
351.719
350.917
350.279
343.583
344.123
344.815
345.557
346.306
347.027
347.679
348.221
348.61
348.814
348.814
348.61
348.221
347.679
347.027
346.306
345.557
344.815
344.123
343.583
336.885
337.333
337.916
338.543
339.177
339.786
340.338
340.795
341.124
341.296
341.296
341.124
340.795
340.338
339.786
339.177
338.543
337.916
337.333
336.885
330.186
330.546
331.022
331.534
332.053
332.551
333.002
333.376
333.644
333.785
333.785
333.644
333.376
333.002
332.551
332.053
331.534
331.022
330.546
330.186
323.485
323.762
324.131
324.529
324.932
325.32
325.67
325.961
326.17
326.279
326.279
326.17
325.961
325.67
325.32
324.932
324.529
324.131
323.762
323.485
316.784
316.98
317.243
317.527
317.815
318.092
318.342
318.55
318.699
318.777
318.777
318.699
318.55
318.342
318.092
317.815
317.527
317.243
316.98
316.784
310.082
310.199
310.356
310.527
310.7
310.866
311.017
311.141
311.231
311.278
311.278
311.231
311.141
311.017
310.866
310.7
310.527
310.356
310.199
310.082
303.38
303.419
303.471
303.529
303.587
303.642
303.693
303.735
303.765
303.78
303.78
303.765
303.735
303.693
303.642
303.587
303.529
303.471
303.419
303.38
351.442
352.045
352.8
353.602
354.409
355.18
355.876
356.451
356.863
357.079
357.079
356.863
356.451
355.876
355.18
354.409
353.602
352.8
352.045
351.442
344.589
345.099
345.75
346.445
347.143
347.812
348.414
348.912
349.269
349.455
349.455
349.269
348.912
348.414
347.812
347.143
346.445
345.75
345.099
344.589
337.735
338.158
338.706
339.294
339.885
340.45
340.959
341.38
341.681
341.839
341.839
341.681
341.38
340.959
340.45
339.885
339.294
338.706
338.158
337.735
330.88
331.22
331.668
332.148
332.631
333.093
333.51
333.854
334.1
334.229
334.229
334.1
333.854
333.51
333.093
332.631
332.148
331.668
331.22
330.88
324.024
324.286
324.633
325.006
325.382
325.741
326.065
326.333
326.524
326.624
326.624
326.524
326.333
326.065
325.741
325.382
325.006
324.633
324.286
324.024
317.169
317.354
317.601
317.868
318.136
318.393
318.624
318.815
318.952
319.024
319.024
318.952
318.815
318.624
318.393
318.136
317.868
317.601
317.354
317.169
310.313
310.423
310.572
310.732
310.893
311.047
311.186
311.301
311.383
311.426
311.426
311.383
311.301
311.186
311.047
310.893
310.732
310.572
310.423
310.313
303.457
303.494
303.544
303.597
303.651
303.703
303.75
303.788
303.816
303.83
303.83
303.816
303.788
303.75
303.703
303.651
303.597
303.544
303.494
303.457
352.766
353.332
354.038
354.785
355.532
356.243
356.881
357.406
357.782
357.978
357.978
357.782
357.406
356.881
356.243
355.532
354.785
354.038
353.332
352.766
345.734
346.213
346.822
347.469
348.116
348.732
349.284
349.739
350.064
350.234
350.234
350.064
349.739
349.284
348.732
348.116
347.469
346.822
346.213
345.734
338.702
339.099
339.612
340.159
340.707
341.228
341.695
342.079
342.354
342.497
342.497
342.354
342.079
341.695
341.228
340.707
340.159
339.612
339.099
338.702
331.67
331.99
332.408
332.855
333.303
333.729
334.111
334.426
334.651
334.768
334.768
334.651
334.426
334.111
333.729
333.303
332.855
332.408
331.99
331.67
324.638
324.884
325.209
325.556
325.904
326.236
326.533
326.778
326.952
327.043
327.043
326.952
326.778
326.533
326.236
325.904
325.556
325.209
324.884
324.638
317.607
317.781
318.012
318.261
318.509
318.746
318.959
319.133
319.258
319.323
319.323
319.258
319.133
318.959
318.746
318.509
318.261
318.012
317.781
317.607
310.576
310.68
310.819
310.968
311.117
311.259
311.387
311.492
311.567
311.606
311.606
311.567
311.492
311.387
311.259
311.117
310.968
310.819
310.68
310.576
303.545
303.58
303.626
303.676
303.726
303.774
303.817
303.852
303.877
303.89
303.89
303.877
303.852
303.817
303.774
303.726
303.676
303.626
303.58
303.545
354.253
354.782
355.44
356.132
356.82
357.471
358.053
358.53
358.87
359.047
359.047
358.87
358.53
358.053
357.471
356.82
356.132
355.44
354.782
354.253
347.02
347.468
348.035
348.634
349.23
349.795
350.299
350.712
351.006
351.16
351.16
351.006
350.712
350.299
349.795
349.23
348.634
348.035
347.468
347.02
339.788
340.16
340.637
341.144
341.649
342.126
342.552
342.902
343.151
343.28
343.28
343.151
342.902
342.552
342.126
341.649
341.144
340.637
340.16
339.788
332.557
332.857
333.246
333.661
334.073
334.464
334.813
335.098
335.302
335.408
335.408
335.302
335.098
334.813
334.464
334.073
333.661
333.246
332.857
332.557
325.328
325.558
325.86
326.182
326.503
326.807
327.078
327.3
327.459
327.541
327.541
327.459
327.3
327.078
326.807
326.503
326.182
325.86
325.558
325.328
318.1
318.262
318.478
318.708
318.937
319.154
319.348
319.507
319.62
319.679
319.679
319.62
319.507
319.348
319.154
318.937
318.708
318.478
318.262
318.1
310.872
310.969
311.098
311.236
311.374
311.504
311.621
311.716
311.784
311.819
311.819
311.784
311.716
311.621
311.504
311.374
311.236
311.098
310.969
310.872
303.644
303.677
303.72
303.766
303.812
303.856
303.895
303.927
303.95
303.962
303.962
303.95
303.927
303.895
303.856
303.812
303.766
303.72
303.677
303.644
355.906
356.4
357.009
357.647
358.278
358.872
359.4
359.831
360.138
360.297
360.297
360.138
359.831
359.4
358.872
358.278
357.647
357.009
356.4
355.906
348.45
348.867
349.393
349.946
350.492
351.007
351.465
351.839
352.104
352.242
352.242
352.104
351.839
351.465
351.007
350.492
349.946
349.393
348.867
348.45
340.996
341.342
341.785
342.253
342.715
343.151
343.538
343.854
344.079
344.195
344.195
344.079
343.854
343.538
343.151
342.715
342.253
341.785
341.342
340.996
333.545
333.823
334.184
334.567
334.945
335.302
335.619
335.877
336.061
336.156
336.156
336.061
335.877
335.619
335.302
334.945
334.567
334.184
333.823
333.545
326.095
326.309
326.589
326.886
327.181
327.458
327.705
327.906
328.049
328.123
328.123
328.049
327.906
327.705
327.458
327.181
326.886
326.589
326.309
326.095
318.647
318.799
318.998
319.211
319.421
319.619
319.795
319.939
320.041
320.094
320.094
320.041
319.939
319.795
319.619
319.421
319.211
318.998
318.799
318.647
311.201
311.291
311.411
311.538
311.665
311.784
311.889
311.976
312.037
312.069
312.069
312.037
311.976
311.889
311.784
311.665
311.538
311.411
311.291
311.201
303.754
303.785
303.825
303.868
303.91
303.95
303.985
304.014
304.035
304.045
304.045
304.035
304.014
303.985
303.95
303.91
303.868
303.825
303.785
303.754
357.729
358.187
358.749
359.336
359.912
360.452
360.929
361.318
361.593
361.735
361.735
361.593
361.318
360.929
360.452
359.912
359.336
358.749
358.187
357.729
350.027
350.414
350.899
351.407
351.906
352.375
352.788
353.125
353.363
353.487
353.487
353.363
353.125
352.788
352.375
351.906
351.407
350.899
350.414
350.027
342.328
342.649
343.058
343.488
343.91
344.307
344.657
344.942
345.143
345.248
345.248
345.143
344.942
344.657
344.307
343.91
343.488
343.058
342.649
342.328
334.633
334.891
335.225
335.576
335.922
336.246
336.533
336.766
336.931
337.016
337.016
336.931
336.766
336.533
336.246
335.922
335.576
335.225
334.891
334.633
326.941
327.139
327.398
327.671
327.94
328.192
328.415
328.597
328.725
328.791
328.791
328.725
328.597
328.415
328.192
327.94
327.671
327.398
327.139
326.941
319.251
319.391
319.576
319.771
319.963
320.144
320.303
320.433
320.524
320.572
320.572
320.524
320.433
320.303
320.144
319.963
319.771
319.576
319.391
319.251
311.563
311.647
311.757
311.875
311.99
312.098
312.194
312.272
312.327
312.355
312.355
312.327
312.272
312.194
312.098
311.99
311.875
311.757
311.647
311.563
303.876
303.904
303.941
303.98
304.019
304.055
304.087
304.113
304.132
304.141
304.141
304.132
304.113
304.087
304.055
304.019
303.98
303.941
303.904
303.876
359.722
360.146
360.663
361.2
361.725
362.214
362.645
362.993
363.239
363.367
363.367
363.239
362.993
362.645
362.214
361.725
361.2
360.663
360.146
359.722
351.751
352.109
352.555
353.02
353.475
353.899
354.273
354.575
354.788
354.899
354.899
354.788
354.575
354.273
353.899
353.475
353.02
352.555
352.109
351.751
343.784
344.081
344.458
344.851
345.236
345.595
345.911
346.167
346.347
346.441
346.441
346.347
346.167
345.911
345.595
345.236
344.851
344.458
344.081
343.784
335.823
336.062
336.369
336.691
337.006
337.299
337.558
337.767
337.915
337.991
337.991
337.915
337.767
337.558
337.299
337.006
336.691
336.369
336.062
335.823
327.865
328.049
328.287
328.537
328.782
329.011
329.212
329.375
329.49
329.549
329.549
329.49
329.375
329.212
329.011
328.782
328.537
328.287
328.049
327.865
319.911
320.041
320.211
320.39
320.565
320.728
320.872
320.988
321.07
321.113
321.113
321.07
320.988
320.872
320.728
320.565
320.39
320.211
320.041
319.911
311.959
312.037
312.139
312.246
312.351
312.449
312.536
312.606
312.655
312.68
312.68
312.655
312.606
312.536
312.449
312.351
312.246
312.139
312.037
311.959
304.009
304.035
304.069
304.105
304.14
304.173
304.202
304.225
304.242
304.25
304.25
304.242
304.225
304.202
304.173
304.14
304.105
304.069
304.035
304.009
361.884
362.275
362.75
363.24
363.717
364.159
364.546
364.859
365.078
365.192
365.192
365.078
364.859
364.546
364.159
363.717
363.24
362.75
362.275
361.884
353.62
353.95
354.36
354.785
355.198
355.582
355.917
356.188
356.379
356.477
356.477
356.379
356.188
355.917
355.582
355.198
354.785
354.36
353.95
353.62
345.363
345.637
345.982
346.342
346.692
347.016
347.3
347.53
347.691
347.774
347.774
347.691
347.53
347.3
347.016
346.692
346.342
345.982
345.637
345.363
337.112
337.333
337.615
337.909
338.195
338.461
338.693
338.881
339.013
339.081
339.081
339.013
338.881
338.693
338.461
338.195
337.909
337.615
337.333
337.112
328.867
329.036
329.255
329.484
329.707
329.913
330.094
330.24
330.343
330.396
330.396
330.343
330.24
330.094
329.913
329.707
329.484
329.255
329.036
328.867
320.626
320.746
320.902
321.065
321.225
321.372
321.502
321.606
321.68
321.717
321.717
321.68
321.606
321.502
321.372
321.225
321.065
320.902
320.746
320.626
312.389
312.46
312.554
312.652
312.747
312.836
312.914
312.976
313.021
313.043
313.043
313.021
312.976
312.914
312.836
312.747
312.652
312.554
312.46
312.389
304.153
304.176
304.208
304.241
304.273
304.302
304.329
304.35
304.364
304.372
304.372
304.364
304.35
304.329
304.302
304.273
304.241
304.208
304.176
304.153
364.207
364.566
365.001
365.448
365.88
366.279
366.627
366.907
367.103
367.204
367.204
367.103
366.907
366.627
366.279
365.88
365.448
365.001
364.566
364.207
355.626
355.93
356.306
356.693
357.068
357.414
357.716
357.959
358.129
358.216
358.216
358.129
357.959
357.716
357.414
357.068
356.693
356.306
355.93
355.626
347.056
347.308
347.625
347.953
348.27
348.563
348.819
349.024
349.168
349.242
349.242
349.168
349.024
348.819
348.563
348.27
347.953
347.625
347.308
347.056
338.495
338.698
338.956
339.224
339.484
339.724
339.933
340.101
340.219
340.28
340.28
340.219
340.101
339.933
339.724
339.484
339.224
338.956
338.698
338.495
329.941
330.097
330.297
330.505
330.708
330.894
331.057
331.188
331.28
331.327
331.327
331.28
331.188
331.057
330.894
330.708
330.505
330.297
330.097
329.941
321.393
321.503
321.646
321.795
321.939
322.073
322.189
322.282
322.348
322.382
322.382
322.348
322.282
322.189
322.073
321.939
321.795
321.646
321.503
321.393
312.848
312.914
313
313.089
313.176
313.256
313.326
313.382
313.422
313.442
313.442
313.422
313.382
313.326
313.256
313.176
313.089
313
312.914
312.848
304.307
304.329
304.357
304.387
304.416
304.443
304.467
304.486
304.499
304.506
304.506
304.499
304.486
304.467
304.443
304.416
304.387
304.357
304.329
304.307
366.665
366.996
367.394
367.801
368.193
368.553
368.865
369.116
369.291
369.381
369.381
369.291
369.116
368.865
368.553
368.193
367.801
367.394
366.996
366.665
357.747
358.027
358.371
358.723
359.063
359.376
359.647
359.864
360.016
360.094
360.094
360.016
359.864
359.647
359.376
359.063
358.723
358.371
358.027
357.747
348.843
349.075
349.365
349.664
349.951
350.216
350.445
350.629
350.758
350.824
350.824
350.758
350.629
350.445
350.216
349.951
349.664
349.365
349.075
348.843
339.952
340.138
340.375
340.619
340.855
341.071
341.259
341.41
341.515
341.569
341.569
341.515
341.41
341.259
341.071
340.855
340.619
340.375
340.138
339.952
331.071
331.214
331.398
331.588
331.771
331.94
332.086
332.203
332.285
332.327
332.327
332.285
332.203
332.086
331.94
331.771
331.588
331.398
331.214
331.071
322.198
322.299
322.43
322.566
322.697
322.818
322.922
323.006
323.065
323.095
323.095
323.065
323.006
322.922
322.818
322.697
322.566
322.43
322.299
322.198
313.331
313.392
313.47
313.552
313.631
313.703
313.766
313.816
313.852
313.87
313.87
313.852
313.816
313.766
313.703
313.631
313.552
313.47
313.392
313.331
304.468
304.489
304.515
304.542
304.569
304.593
304.614
304.631
304.643
304.649
304.649
304.643
304.631
304.614
304.593
304.569
304.542
304.515
304.489
304.468
369.197
369.501
369.866
370.238
370.593
370.919
371.2
371.425
371.581
371.662
371.662
371.581
371.425
371.2
370.919
370.593
370.238
369.866
369.501
369.197
359.921
360.178
360.494
360.816
361.124
361.407
361.651
361.846
361.982
362.052
362.052
361.982
361.846
361.651
361.407
361.124
360.816
360.494
360.178
359.921
350.667
350.88
351.147
351.419
351.681
351.92
352.127
352.292
352.408
352.467
352.467
352.408
352.292
352.127
351.92
351.681
351.419
351.147
350.88
350.667
341.434
341.605
341.822
342.045
342.26
342.456
342.625
342.761
342.855
342.904
342.904
342.855
342.761
342.625
342.456
342.26
342.045
341.822
341.605
341.434
332.217
332.348
332.517
332.691
332.857
333.01
333.142
333.248
333.321
333.359
333.359
333.321
333.248
333.142
333.01
332.857
332.691
332.517
332.348
332.217
323.013
323.106
323.227
323.351
323.47
323.579
323.674
323.749
323.802
323.829
323.829
323.802
323.749
323.674
323.579
323.47
323.351
323.227
323.106
323.013
313.82
313.875
313.947
314.022
314.094
314.159
314.216
314.261
314.293
314.309
314.309
314.293
314.261
314.216
314.159
314.094
314.022
313.947
313.875
313.82
304.632
304.65
304.675
304.7
304.724
304.746
304.765
304.78
304.79
304.796
304.796
304.79
304.78
304.765
304.746
304.724
304.7
304.675
304.65
304.632
371.639
371.92
372.257
372.598
372.924
373.22
373.476
373.679
373.821
373.893
373.893
373.821
373.679
373.476
373.22
372.924
372.598
372.257
371.92
371.639
361.992
362.23
362.521
362.818
363.101
363.358
363.581
363.757
363.88
363.944
363.944
363.88
363.757
363.581
363.358
363.101
362.818
362.521
362.23
361.992
352.387
352.584
352.83
353.081
353.321
353.54
353.728
353.878
353.983
354.036
354.036
353.983
353.878
353.728
353.54
353.321
353.081
352.83
352.584
352.387
342.817
342.976
343.177
343.383
343.58
343.759
343.914
344.037
344.123
344.166
344.166
344.123
344.037
343.914
343.759
343.58
343.383
343.177
342.976
342.817
333.279
333.401
333.557
333.717
333.871
334.01
334.131
334.227
334.294
334.328
334.328
334.294
334.227
334.131
334.01
333.871
333.717
333.557
333.401
333.279
323.764
323.851
323.962
324.077
324.187
324.287
324.373
324.442
324.489
324.514
324.514
324.489
324.442
324.373
324.287
324.187
324.077
323.962
323.851
323.764
314.268
314.319
314.386
314.455
314.521
314.581
314.633
314.674
314.703
314.718
314.718
314.703
314.674
314.633
314.581
314.521
314.455
314.386
314.319
314.268
304.781
304.799
304.821
304.844
304.866
304.887
304.904
304.918
304.927
304.932
304.932
304.927
304.918
304.904
304.887
304.866
304.844
304.821
304.799
304.781
373.561
373.825
374.141
374.462
374.766
375.043
375.28
375.469
375.6
375.667
375.667
375.6
375.469
375.28
375.043
374.766
374.462
374.141
373.825
373.561
363.56
363.784
364.059
364.338
364.603
364.844
365.052
365.216
365.331
365.39
365.39
365.331
365.216
365.052
364.844
364.603
364.338
364.059
363.784
363.56
353.647
353.834
354.067
354.303
354.529
354.735
354.911
355.051
355.149
355.199
355.199
355.149
355.051
354.911
354.735
354.529
354.303
354.067
353.834
353.647
343.807
343.958
344.148
344.342
344.528
344.697
344.842
344.957
345.037
345.078
345.078
345.037
344.957
344.842
344.697
344.528
344.342
344.148
343.958
343.807
334.024
334.14
334.288
334.44
334.584
334.716
334.829
334.919
334.982
335.014
335.014
334.982
334.919
334.829
334.716
334.584
334.44
334.288
334.14
334.024
324.284
324.366
324.472
324.581
324.684
324.779
324.86
324.924
324.969
324.992
324.992
324.969
324.924
324.86
324.779
324.684
324.581
324.472
324.366
324.284
314.575
314.624
314.687
314.753
314.815
314.872
314.921
314.96
314.987
315
315
314.987
314.96
314.921
314.872
314.815
314.753
314.687
314.624
314.575
304.884
304.9
304.921
304.943
304.964
304.983
305
305.013
305.022
305.026
305.026
305.022
305.013
305
304.983
304.964
304.943
304.921
304.9
304.884
)
;

boundaryField
{
    hotSide
    {
        type            fixedGradient;
        gradient        nonuniform List<scalar> 
400
(
492.264
493.774
496.8
501.361
507.479
515.184
524.509
535.491
548.168
562.578
578.757
596.74
616.559
638.243
661.815
687.298
714.71
744.064
775.373
808.645
502.657
504.084
506.949
511.274
517.091
524.438
533.36
543.904
556.119
570.053
585.752
603.259
622.612
643.844
666.985
692.059
719.085
748.08
779.054
812.016
513.903
515.232
517.904
521.95
527.411
534.338
542.788
552.823
564.505
577.895
593.049
610.019
628.852
649.586
672.254
696.884
723.495
752.105
782.724
815.36
525.817
527.032
529.481
533.203
538.253
544.696
552.608
562.067
573.151
585.934
600.486
616.87
635.138
655.335
677.499
701.659
727.835
756.045
786.298
818.6
538.067
539.153
541.351
544.711
549.302
555.211
562.531
571.36
581.794
593.926
607.837
623.6
641.277
660.918
682.563
706.243
731.979
759.787
789.675
821.648
550.141
551.089
553.019
555.992
560.098
565.443
572.142
580.316
590.081
601.545
614.804
629.943
647.03
666.12
687.256
710.469
735.781
763.203
792.744
824.405
561.348
562.159
563.82
566.41
570.036
574.825
580.917
588.454
597.573
608.398
621.039
635.589
652.124
670.703
691.371
714.157
739.082
766.158
795.387
826.77
570.86
571.547
572.967
575.212
578.408
582.703
588.257
595.234
603.787
614.056
626.163
640.209
656.274
674.421
694.694
717.123
741.728
768.516
797.49
828.646
577.821
578.412
579.648
581.631
584.499
588.418
593.567
600.122
608.253
618.109
629.82
643.495
659.216
677.047
697.034
719.206
743.58
770.163
798.955
829.948
581.51
582.049
583.185
585.024
587.714
591.431
596.36
602.688
610.592
620.227
631.727
645.204
660.742
678.407
698.243
720.28
744.534
771.01
799.707
830.616
581.51
582.049
583.185
585.024
587.714
591.431
596.36
602.688
610.592
620.227
631.727
645.204
660.742
678.407
698.243
720.28
744.534
771.01
799.707
830.616
577.821
578.412
579.648
581.631
584.499
588.418
593.567
600.122
608.253
618.109
629.82
643.495
659.216
677.047
697.034
719.206
743.58
770.163
798.955
829.948
570.86
571.547
572.967
575.212
578.408
582.703
588.257
595.234
603.787
614.056
626.163
640.209
656.274
674.421
694.694
717.123
741.728
768.516
797.49
828.646
561.348
562.159
563.82
566.41
570.036
574.825
580.917
588.454
597.573
608.398
621.039
635.589
652.124
670.703
691.371
714.157
739.082
766.158
795.387
826.77
550.141
551.089
553.019
555.992
560.098
565.443
572.142
580.316
590.081
601.545
614.804
629.943
647.03
666.12
687.256
710.469
735.781
763.203
792.744
824.405
538.067
539.153
541.351
544.711
549.302
555.211
562.531
571.36
581.794
593.926
607.837
623.6
641.277
660.918
682.563
706.243
731.979
759.787
789.675
821.648
525.817
527.032
529.481
533.203
538.253
544.696
552.608
562.067
573.151
585.934
600.486
616.87
635.138
655.335
677.499
701.659
727.835
756.045
786.298
818.6
513.903
515.232
517.904
521.95
527.411
534.338
542.788
552.823
564.505
577.895
593.049
610.019
628.852
649.586
672.254
696.884
723.495
752.105
782.724
815.36
502.657
504.084
506.949
511.274
517.091
524.438
533.36
543.904
556.119
570.053
585.752
603.259
622.612
643.844
666.985
692.059
719.085
748.08
779.054
812.016
492.264
493.774
496.8
501.361
507.479
515.184
524.509
535.491
548.168
562.578
578.757
596.74
616.559
638.243
661.815
687.298
714.71
744.064
775.373
808.645
)
;
    }
    coldSide
    {
        type            mixed;
        refValue        uniform 300;
        refGradient     uniform 0;
        valueFraction   uniform 0.991591;
        source          uniform 0;
        value           nonuniform List<scalar> 
400
(
300.026
300.026
300.026
300.027
300.027
300.027
300.028
300.028
300.029
300.03
300.031
300.032
300.033
300.034
300.035
300.036
300.038
300.039
300.04
300.041
300.027
300.027
300.027
300.027
300.027
300.028
300.028
300.029
300.029
300.03
300.031
300.032
300.033
300.034
300.035
300.036
300.038
300.039
300.04
300.041
300.027
300.027
300.027