/*--------------------------------*- C++ -*----------------------------------*\
| =========                 |                                                 |
| \\      /  F ield         | OpenFOAM: The Open Source CFD Toolbox           |
|  \\    /   O peration     | Version:  2212                                  |
|   \\  /    A nd           | Website:  www.openfoam.com                      |
|    \\/     M anipulation  |                                                 |
\*---------------------------------------------------------------------------*/
FoamFile
{
    version     2.0;
    format      ascii;
    arch        "LSB;label=32;scalar=64";
    class       volScalarField;
    location    "./ITHACAoutput/true/0.3";
    object      error;
}
// * * * * * * * * * * * * * * * * * * * * * * * * * * * * * * * * * * * * * //

dimensions      [0 0 0 1 0 0 0];

internalField   nonuniform List<scalar> 
3200
(
1.37485
1.66312
2.14428
2.87253
3.63049
4.46737
5.36239
6.23906
6.84733
7.18965
7.20924
6.93368
6.22489
5.59065
4.65778
3.88872
3.05561
2.44628
2.03502
1.76133
1.13257
1.40119
1.81015
2.33442
3.05522
3.76589
4.57548
5.19077
5.81049
6.07413
6.04745
5.83817
5.34399
4.66975
3.94925
3.19499
2.58242
2.03732
1.70082
1.47077
0.909897
1.03687
1.4632
1.8906
2.5658
3.10119
3.76748
4.37373
4.75029
4.98276
5.01825
4.79637
4.3398
3.84606
3.23542
2.61563
2.08258
1.68651
1.31477
1.15775
0.692865
0.842252
1.08813
1.49705
1.9254
2.44904
2.905
3.41685
3.79073
3.96944
3.94456
3.77902
3.43197
3.06296
2.6139
2.0684
1.67977
1.20852
1.06506
0.923428
0.53367
0.604131
0.849683
1.16855
1.47187
1.81525
2.26119
2.6639
2.84098
2.9768
2.97695
2.87466
2.68089
2.26278
1.93518
1.61299
1.20454
0.986043
0.75478
0.648967
0.358749
0.456298
0.626762
0.850637
1.00095
1.26099
1.55946
1.84234
1.92605
2.14135
2.10753
2.00836
1.94234
1.61019
1.3554
1.17538
0.878938
0.695408
0.613765
0.510422
0.252441
0.238433
0.346344
0.46217
0.668028
0.769691
0.898685
1.06018
1.27461
1.32568
1.20756
1.17117
1.1365
0.995377
0.760677
0.683826
0.521696
0.341846
0.353135
0.323523
0.0967379
0.124295
0.147435
0.185152
0.17477
0.251805
0.297445
0.364041
0.390005
0.389559
0.352621
0.404061
0.36011
0.310043
0.295054
0.240927
0.189307
0.155726
0.0810669
0.0825432
0.772303
1.08243
1.55919
2.12324
3.01962
3.84896
4.70984
5.44779
6.08536
6.40819
6.37729
6.15866
5.57995
4.86556
3.96098
3.16817
2.45111
1.81397
1.44427
1.17413
0.577859
0.895524
1.25734
1.82783
2.45605
3.19521
3.89341
4.60655
5.06723
5.49612
5.44638
5.14782
4.69853
4.17885
3.35141
2.63153
2.0451
1.52228
1.16884
0.907037
0.452136
0.720063
1.10446
1.48662
1.99103
2.61534
3.25694
3.8621
4.2843
4.46836
4.43947
4.24519
3.89117
3.34762
2.77477
2.17081
1.62422
1.20146
0.943821
0.809712
0.440407
0.572323
0.757148
1.1645
1.63844
2.17177
2.58219
3.03933
3.37438
3.53932
3.59015
3.44065
3.17053
2.68952
2.17657
1.73535
1.33133
0.9769
0.772377
0.581063
0.366241
0.400441
0.619873
0.894269
1.27865
1.58082
1.96546
2.27167
2.54232
2.77823
2.80838
2.61119
2.35578
2.03973
1.69203
1.27078
0.992377
0.757985
0.554046
0.512015
0.241325
0.257115
0.472019
0.668147
0.886409
1.06829
1.40949
1.57004
1.78527
1.84783
1.97519
1.82349
1.61584
1.4095
1.13864
0.950172
0.73995
0.543732
0.382336
0.338531
0.136281
0.198499
0.294883
0.401445
0.539039
0.70371
0.765619
0.936792
1.0453
1.09536
1.15295
1.05521
0.991045
0.870328
0.688615
0.563632
0.403896
0.273221
0.205547
0.200348
0.0767586
0.0920022
0.0287864
0.145289
0.186828
0.195481
0.267221
0.321447
0.407141
0.37965
0.399143
0.373662
0.384294
0.285979
0.200346
0.20593
0.166491
0.11101
0.0296492
0.0377616
0.0912757
0.331227
0.762675
1.38903
2.06126
2.84037
3.71378
4.50935
5.05105
5.37838
5.3171
5.07409
4.54531
3.89163
3.07037
2.41448
1.552
1.1392
0.696417
0.471163
0.0057062
0.256745
0.687393
1.10581
1.76147
2.53444
3.1501
3.661
4.23946
4.50705
4.55551
4.222
3.82677
3.24256
2.61381
2.02791
1.38798
0.84986
0.534611
0.327709
0.0604461
0.239985
0.499667
0.938142
1.42651
2.00397
2.58763
3.03521
3.51912
3.71348
3.80109
3.61249
3.18945
2.64332
2.1181
1.54329
1.15147
0.734499
0.483454
0.243217
0.0183985
0.23115
0.430141
0.746965
1.15711
1.63396
2.05447
2.50336
2.90143
2.97943
2.97264
2.80669
2.55509
2.15725
1.76668
1.3396
0.89259
0.56997
0.299336
0.254806
0.022688
0.172009
0.335092
0.545655
0.894385
1.25613
1.65976
1.90199
2.10018
2.36266
2.28659
2.19627
1.94606
1.59339
1.29939
0.973166
0.68441
0.403876
0.234731
0.217909
0.0254263
0.105498
0.181592
0.41037
0.626329
0.880984
1.19926
1.31462
1.48674
1.63063
1.66495
1.55574
1.38681
1.0886
0.923121
0.719741
0.572763
0.298635
0.215749
0.0664307
0.0263731
0.0443102
0.0657549
0.294807
0.438961
0.54885
0.676651
0.790746
0.872038
0.960424
0.929697
0.899693
0.813612
0.711933
0.510185
0.383659
0.247126
0.208659
0.0932538
0.108169
-0.0292109
0.0539462
0.0520647
0.147991
0.135512
0.185415
0.221286
0.262312
0.334472
0.280142
0.253222
0.292492
0.228826
0.280254
0.225449
0.163972
0.126474
0.0497391
0.0473869
0.0322442
-0.551491
-0.422536
0.0450694
0.520361
1.23391
1.96703
2.66391
3.46743
4.04761
4.26458
4.33671
4.08969
3.53898
2.93298
2.15024
1.48851
0.814114
0.293502
-0.0675797
-0.28247
-0.520537
-0.314935
0.00956351
0.464962
1.01636
1.66458
2.3249
2.94703
3.39659
3.59124
3.64259
3.43734
3.00565
2.43068
1.81718
1.32739
0.612962
0.227077
-0.0189244
-0.196004
-0.4473
-0.286702
-0.0658186
0.330061
0.801503
1.42149
1.85154
2.34675
2.77043
2.98285
2.96
2.76686
2.41355
2.06738
1.53086
0.993459
0.559921
0.190881
-0.0528553
-0.169351
-0.346104
-0.227773
-0.0387411
0.289426
0.709633
1.14928
1.46455
1.93447
2.19886
2.3243
2.42429
2.33936
1.92873
1.61861
1.15545
0.814677
0.395674
0.146552
-0.0208767
-0.152244
-0.283094
-0.177302
-0.0131313
0.242897
0.523195
0.791109
1.14685
1.44596
1.68188
1.83091
1.8784
1.73186
1.49887
1.19922
0.899245
0.582325
0.357253
0.0724598
-0.0696755
-0.0735237
-0.176175
-0.0455677
-0.0195969
0.187957
0.313719
0.591989
0.819492
1.00852
1.22954
1.26985
1.30709
1.25219
1.03417
0.924752
0.679157
0.376934
0.220101
0.109013
-0.0222306
-0.151434
-0.133881
-0.0695503
-0.0278997
0.121149
0.255532
0.384624
0.462381
0.659659
0.730073
0.743988
0.791096
0.72141
0.617052
0.536859
0.464479
0.320281
0.154895
0.0388958
-0.0221343
-0.0797101
-0.0494045
-0.0683287
-0.0159206
0.0471982
0.0299901
0.125391
0.204689
0.270738
0.313498
0.214825
0.311704
0.256586
0.271518
0.161623
0.125759
0.0915758
0.0706455
-0.0312231
0.00783118
-0.0175867
-1.15614
-0.972033
-0.645455
-0.152675
0.365378
1.08772
1.80993
2.41221
2.89822
3.1085
3.21275
2.99716
2.6279
2.02189
1.40206
0.647068
0.0825401
-0.351697
-0.627984
-0.80201
-0.969592
-0.924042
-0.575588
-0.22328
0.34225
0.871634
1.49272
2.06295
2.46833
2.62651
2.64458
2.45772
2.1437
1.64869
1.08115
0.448721
0.115569
-0.369736
-0.594609
-0.648554
-0.827389
-0.66142
-0.523542
-0.225838
0.247749
0.766915
1.26221
1.6724
2.03542
2.24286
2.23514
2.03145
1.73902
1.30817
0.882397
0.444744
0.000774593
-0.30476
-0.489458
-0.604539
-0.619455
-0.556744
-0.443059
-0.138217
0.163992
0.630214
0.972426
1.33543
1.62689
1.80426
1.75917
1.64669
1.41504
1.0841
0.687956
0.308303
0.0774203
-0.245694
-0.449533
-0.521816
-0.492217
-0.450108
-0.30244
-0.130642
0.134453
0.516942
0.785605
1.00239
1.18643
1.32897
1.37453
1.24173
1.03122
0.874589
0.562145
0.290797
0.027267
-0.258884
-0.307428
-0.334
-0.362843
-0.305419
-0.1756
-0.0328722
0.0877618
0.332957
0.621587
0.698855
0.826867
0.990462
0.943137
0.916549
0.74806
0.561144
0.389298
0.20829
0.0212493
-0.123683
-0.258103
-0.268958
-0.201194
-0.149347
-0.110228
-0.0688554
0.0575326
0.242644
0.309611
0.439441
0.522795
0.58639
0.556551
0.569941
0.439636
0.369579
0.174424
0.171468
0.0580645
-0.113781
-0.0838248
-0.133035
0.00977407
-0.067076
0.0170563
-0.0652107
0.00631842
0.0189601
0.117699
0.180868
0.176517
0.211768
0.13971
0.108304
0.154548
0.129585
0.0201159
0.0209144
-0.017808
-0.0536084
0.0167325
-0.0475734
-1.58295
-1.55734
-1.34693
-0.87769
-0.349119
0.217693
0.844363
1.45467
1.88177
2.0866
2.1883
1.99218
1.59311
1.04604
0.462438
-0.0520117
-0.525315
-1.00062
-1.16763
-1.20386
-1.37927
-1.33103
-0.995152
-0.719771
-0.304582
0.217397
0.725014
1.20179
1.57133
1.77145
1.88448
1.70977
1.3551
0.851432
0.34179
-0.105763
-0.477609
-0.868818
-1.08045
-1.07085
-1.11904
-1.06311
-0.881108
-0.60765
-0.2742
0.174976
0.586727
1.03665
1.37184
1.45208
1.4782
1.37428
1.07171
0.7007
0.361954
-0.0698257
-0.446557
-0.709174
-0.810549
-0.81901
-0.909439
-0.846837
-0.704198
-0.523175
-0.260423
0.161084
0.465164
0.730729
1.01815
1.14787
1.10235
1.04224
0.867851
0.548743
0.274038
-0.126974
-0.317246
-0.624576
-0.724231
-0.692524
-0.676335
-0.579469
-0.584559
-0.449846
-0.160094
0.078567
0.395877
0.566037
0.740791
0.919308
0.869859
0.816485
0.686471
0.493281
0.171984
-0.0809037
-0.182848
-0.404667
-0.562666
-0.589445
-0.558329
-0.467583
-0.383699
-0.308364
-0.130372
0.0769564
0.24216
0.394834
0.571938
0.643228
0.655372
0.568674
0.418573
0.287409
0.156401
-0.0206366
-0.173094
-0.33037
-0.335466
-0.366008
-0.246519
-0.319605
-0.183292
-0.170602
-0.0390491
0.01929
0.116629
0.263531
0.32751
0.399102
0.381713
0.317346
0.319905
0.151824
0.112239
-0.0163748
-0.0590223
-0.184416
-0.247889
-0.268276
-0.0991858
-0.0230316
-0.0451972
0.0525288
-0.0101906
-0.0738972
0.0109588
0.136144
0.116434
0.150439
0.133931
0.0930796
0.114945
-0.0109394
0.103657
-0.0819904
-0.0481986
-0.0201528
-0.0299453
-0.0225243
-1.92051
-1.86885
-1.78732
-1.37511
-0.983376
-0.512217
0.0249192
0.598493
1.04383
1.13333
1.22875
1.04961
0.701587
0.283811
-0.215457
-0.765727
-1.10209
-1.39998
-1.63112
-1.53743
-1.60665
-1.6401
-1.49255
-1.14001
-0.789926
-0.358918
0.0788621
0.48491
0.868113
1.0377
1.00466
0.817982
0.51065
0.200406
-0.189981
-0.591172
-0.993181
-1.21852
-1.27014
-1.35537
-1.3806
-1.32646
-1.12881
-0.951166
-0.69884
-0.311061
0.067758
0.417601
0.681912
0.807971
0.865267
0.689274
0.462516
0.12666
-0.212401
-0.529416
-0.838815
-1.03449
-1.16167
-1.16224
-1.12212
-1.08036
-1.02037
-0.802835
-0.537458
-0.24935
0.0452607
0.282589
0.5467
0.716583
0.62256
0.564174
0.41462
0.133025
-0.180354
-0.432112
-0.612479
-0.875202
-0.925496
-0.945963
-0.904457
-0.828547
-0.771961
-0.633741
-0.496614
-0.220026
0.0518528
0.314509
0.359396
0.443842
0.523631
0.411527
0.309387
0.0737548
-0.173927
-0.346751
-0.556053
-0.597359
-0.748542
-0.731745
-0.588296
-0.592817
-0.523617
-0.454416
-0.36328
-0.223618
-0.0403259
0.125076
0.297656
0.319463
0.387486
0.328739
0.163074
0.00622871
-0.134514
-0.245144
-0.395501
-0.515182
-0.482714
-0.511851
-0.340523
-0.412134
-0.336434
-0.278212
-0.246117
-0.0897628
-0.0126363
0.0943546
0.171232
0.230863
0.202398
0.208931
0.130792
0.0360866
0.0373225
-0.114955
-0.187933
-0.23816
-0.247504
-0.219188
-0.142175
-0.102105
-0.0479393
-0.0811349
-0.101774
-0.0431461
0.0429619
0.0628772
0.0393108
0.0618441
0.114219
0.0831608
-0.0456953
0.00765545
0.000405579
-0.0514425
-0.0844216
-0.0901842
-0.0631545
-0.0881066
-2.14551
-2.15701
-2.11237
-1.81825
-1.4696
-1.004
-0.590542
-0.185864
0.10556
0.376448
0.406233
0.240641
0.0133979
-0.496403
-0.822465
-1.22742
-1.5676
-1.71355
-1.79693
-1.71979
-1.79291
-1.83922
-1.74495
-1.52736
-1.31129
-0.95654
-0.483684
-0.117726
0.123472
0.306903
0.31058
0.209168
-0.0537927
-0.368418
-0.783726
-1.03046
-1.34169
-1.44966
-1.55655
-1.52498
-1.52142
-1.6003
-1.45321
-1.37009
-0.970935
-0.743986
-0.39872
-0.107293
0.0770628
0.207596
0.236826
0.0869067
-0.0610915
-0.309098
-0.608392
-0.880039
-1.10743
-1.22288
-1.30516
-1.21132
-1.19257
-1.19942
-1.23591
-1.09376
-0.857509
-0.508514
-0.416602
-0.0893272
0.112234
0.180863
0.213026
0.0680024
-0.0416627
-0.331125
-0.456561
-0.722778
-0.893424
-0.976648
-1.00609
-1.038
-0.959939
-0.966877
-0.919436
-0.812762
-0.638772
-0.454981
-0.233428
-0.0813992
0.0765127
0.153136
0.150295
0.0623841
-0.0922828
-0.227845
-0.409024
-0.593462
-0.693212
-0.796138
-0.812817
-0.76126
-0.656766
-0.676653
-0.602965
-0.591897
-0.436733
-0.361341
-0.146829
-0.131521
0.0745693
0.102214
0.030659
0.107603
0.00603021
-0.225246
-0.246649
-0.363863
-0.436146
-0.560516
-0.553722
-0.535146
-0.349972
-0.452443
-0.348112
-0.367407
-0.252398
-0.227978
-0.151592
-0.0122979
0.061576
0.133546
0.0613419
0.0236398
-0.0316269
-0.105465
-0.177922
-0.273233
-0.266547
-0.352001
-0.410279
-0.358718
-0.193263
-0.163454
-0.0971802
-0.0975683
-0.0903757
-0.0843584
-0.00598479
0.0106008
0.0482682
0.011771
0.0116534
-0.00362522
-0.0209477
-0.0305924
-0.0325615
-0.0747696
-0.107015
-0.123518
-0.0531247
-0.136326
-2.24713
-2.26327
-2.2777
-2.11321
-1.89353
-1.47764
-1.11241
-0.810754
-0.534823
-0.256541
-0.286844
-0.376217
-0.673476
-0.944468
-1.22577
-1.59976
-1.81914
-1.98683
-1.89423
-1.80662
-1.88702
-1.96789
-1.90584
-1.79017
-1.5828
-1.30289
-0.931734
-0.631451
-0.532038
-0.29784
-0.25477
-0.368985
-0.564666
-0.878779
-1.08026
-1.32629
-1.58722
-1.69841
-1.64099
-1.5706
-1.54661
-1.66964
-1.62398
-1.55604
-1.36244
-1.00467
-0.808344
-0.573803
-0.380165
-0.301186
-0.264357
-0.345704
-0.493294
-0.770007
-0.947878
-1.13869
-1.29485
-1.40126
-1.36145
-1.25225
-1.29167
-1.24487
-1.23759
-1.20542
-1.06787
-0.884751
-0.668939
-0.451156
-0.202659
-0.225509
-0.142414
-0.237264
-0.514698
-0.551986
-0.74746
-0.918382
-1.08513
-1.13711
-1.15359
-1.00384
-0.951316
-0.947937
-1.0192
-0.978136
-0.808348
-0.666685
-0.488975
-0.320673
-0.230253
-0.148651
-0.165581
-0.212497
-0.343906
-0.463986
-0.563707
-0.643774
-0.773803
-0.783277
-0.857714
-0.831549
-0.67833
-0.627555
-0.630417
-0.685241
-0.583629
-0.531752
-0.328688
-0.240115
-0.153844
-0.173778
-0.14244
-0.150393
-0.236305
-0.382081
-0.426486
-0.496275
-0.62114
-0.55112
-0.538075
-0.563615
-0.423461
-0.450102
-0.468825
-0.436039
-0.405578
-0.316551
-0.250249
-0.164894
-0.129071
-0.10995
-0.0613051
-0.120328
-0.106214
-0.145185
-0.245888
-0.265172
-0.353614
-0.3924
-0.316869
-0.3603
-0.202377
-0.130464
-0.141859
-0.139221
-0.0642124
-0.0518406
-0.0131725
-0.0437564
-0.0557093
0.0424984
-0.0677372
-0.0454025
-0.042044
-0.0734788
-0.104071
-0.183907
-0.106972
-0.113567
-0.186337
-0.114803
-2.12751
-2.28357
-2.31654
-2.3154
-2.0962
-1.85153
-1.51567
-1.25751
-0.979897
-0.898572
-0.859868
-0.90705
-1.11881
-1.32653
-1.62701
-1.77492
-1.96755
-2.02553
-1.88439
-1.76989
-1.76599
-1.85803
-2.00299
-1.86784
-1.79825
-1.54027
-1.2765
-1.04884
-0.898382
-0.728386
-0.739327
-0.82463
-0.903587
-1.16333
-1.39223
-1.56062
-1.68854
-1.71974
-1.60411
-1.45481
-1.46186
-1.539
-1.64156
-1.64844
-1.38893
-1.30224
-1.00494
-0.908871
-0.737573
-0.6411
-0.601988
-0.681513
-0.846367
-1.00287
-1.15081
-1.25853
-1.34157
-1.36284
-1.37633
-1.19841
-1.14786
-1.28009
-1.26348
-1.30395
-1.21336
-1.07158
-0.837069
-0.682278
-0.577614
-0.514335
-0.518004
-0.544139
-0.58145
-0.717679
-0.935313
-1.08294
-1.11906
-1.11772
-1.12241
-1.0562
-0.938154
-1.00805
-1.03373
-0.956769
-0.864262
-0.759454
-0.656203
-0.535332
-0.42417
-0.391555
-0.390028
-0.419055
-0.458373
-0.671902
-0.643855
-0.820119
-0.846295
-0.908074
-0.791966
-0.807335
-0.6698
-0.699047
-0.704069
-0.694493
-0.645483
-0.553318
-0.450329
-0.342623
-0.322654
-0.253196
-0.308685
-0.264856
-0.382574
-0.35152
-0.530303
-0.55696
-0.613802
-0.642714
-0.581717
-0.564765
-0.349063
-0.33057
-0.449477
-0.391428
-0.412446
-0.333804
-0.347608
-0.182391
-0.241903
-0.169709
-0.121678
-0.142804
-0.201861
-0.284651
-0.309344
-0.322459
-0.338444
-0.406894
-0.331319
-0.350716
-0.172037
-0.14121
-0.0785444
-0.177495
-0.14107
-0.0823744
-0.0937518
-0.119606
-0.0629272
-0.0503033
-0.0228515
-0.0928392
-0.0606129
-0.122492
-0.142097
-0.0585115
-0.0473072
-0.130426
-0.168332
-0.0635693
-1.86389
-1.9692
-2.17644
-2.21443
-2.11269
-2.01241
-1.83738
-1.43821
-1.34922
-1.28286
-1.23909
-1.20545
-1.40112
-1.59941
-1.71119
-1.91428
-1.9203
-1.83977
-1.69675
-1.42142
-1.54208
-1.71626
-1.90253
-1.80112
-1.75572
-1.61142
-1.61889
-1.335
-1.13414
-1.06898
-1.01262
-1.09783
-1.21443
-1.29617
-1.39835
-1.60524
-1.64272
-1.51907
-1.41785
-1.24616
-1.26827
-1.41022
-1.59985
-1.50832
-1.49745
-1.37041
-1.20531
-1.08408
-0.930827
-0.825569
-0.906429
-0.913844
-1.02462
-1.12401
-1.34694
-1.30743
-1.33255
-1.34169
-1.17559
-0.990651
-1.06026
-1.17264
-1.3026
-1.23039
-1.22637
-1.17978
-1.06411
-0.874347
-0.774383
-0.713786
-0.655666
-0.811861
-0.851836
-0.85224
-0.99623
-1.01997
-1.09307
-0.9925
-0.995035
-0.820095
-0.784639
-0.816299
-1.00781
-0.93458
-0.948321
-0.791322
-0.735795
-0.748978
-0.559117
-0.510504
-0.529752
-0.566471
-0.688984
-0.723226
-0.726292
-0.805436
-0.928578
-0.815551
-0.700786
-0.650164
-0.580291
-0.645611
-0.733553
-0.684676
-0.672076
-0.644669
-0.514633
-0.510477
-0.3831
-0.439929
-0.412159
-0.372675
-0.453557
-0.469449
-0.390927
-0.599327
-0.639211
-0.58487
-0.537634
-0.461742
-0.31984
-0.345609
-0.401873
-0.381649
-0.353303
-0.335454
-0.361313
-0.335301
-0.215293
-0.23693
-0.226725
-0.293438
-0.284752
-0.280142
-0.331546
-0.383562
-0.417693
-0.371
-0.315613
-0.291133
-0.113273
-0.115589
-0.178359
-0.14565
-0.166581
-0.138495
-0.0934537
-0.0554201
-0.0482269
-0.0942181
-0.0412301
-0.0972636
-0.0789067
-0.102763
-0.111666
-0.187278
-0.0588948
-0.0321549
-0.14474
-0.0848596
-1.35292
-1.67578
-1.86032
-1.96025
-1.96679
-1.92113
-1.77948
-1.66631
-1.48564
-1.47823
-1.37297
-1.36886
-1.53159
-1.62963
-1.69564
-1.72053
-1.6925
-1.52149
-1.26355
-0.987376
-1.16042
-1.39377
-1.58351
-1.67135
-1.68986
-1.57788
-1.57768
-1.3916
-1.33295
-1.16875
-1.18036
-1.1652
-1.26227
-1.40595
-1.46447
-1.46656
-1.4238
-1.29777
-1.12939
-0.868247
-0.963946
-1.14779
-1.34327
-1.43806
-1.32063
-1.35381
-1.21142
-1.12884
-1.03907
-0.997307
-0.949563
-0.995708
-1.07455
-1.16802
-1.18033
-1.25347
-1.21437
-1.13963
-0.968401
-0.754359
-0.779665
-0.931149
-1.0882
-1.12543
-1.11085
-1.09732
-0.980456
-0.862376
-0.815828
-0.756946
-0.77298
-0.829371
-0.816857
-0.991466
-0.99973
-1.01282
-0.922393
-0.900849
-0.759969
-0.594872
-0.584918
-0.695187
-0.913881
-0.848524
-0.821866
-0.87686
-0.716817
-0.696737
-0.675411
-0.639709
-0.607877
-0.671324
-0.575077
-0.690613
-0.736503
-0.759318
-0.708973
-0.680456
-0.60804
-0.379142
-0.391713
-0.537528
-0.523111
-0.61887
-0.591754
-0.641611
-0.522535
-0.443891
-0.434631
-0.443692
-0.443059
-0.479205
-0.502729
-0.460886
-0.51496
-0.565838
-0.610555
-0.537825
-0.371866
-0.374571
-0.284268
-0.362465
-0.31512
-0.363661
-0.391325
-0.325151
-0.356669
-0.349571
-0.220101
-0.251277
-0.287659
-0.290029
-0.362626
-0.277462
-0.24831
-0.335122
-0.352563
-0.246077
-0.233026
-0.184506
-0.0847001
-0.0559574
-0.0928849
-0.0727915
-0.0875174
-0.118062
-0.126986
-0.0925834
-0.0934883
-0.00632017
-0.0965567
-0.16629
-0.11081
-0.0908687
-0.0902879
-0.140027
-0.0740869
-0.059106
-0.0598731
-0.0802229
-0.733164
-1.19066
-1.46288
-1.5161
-1.70574
-1.62829
-1.60153
-1.44425
-1.44137
-1.33563
-1.34803
-1.35042
-1.36597
-1.40692
-1.43531
-1.44224
-1.23976
-1.07048
-0.782713
-0.399634
-0.686802
-0.983222
-1.14874
-1.38638
-1.45025
-1.45045
-1.38882
-1.26293
-1.22043
-1.19151
-1.15711
-1.19499
-1.17658
-1.19233
-1.21604
-1.15293
-1.15084
-0.933129
-0.779924
-0.343251
-0.505445
-0.724124
-0.944149
-1.13458
-1.11825
-1.18106
-1.18326
-1.03301
-0.992312
-0.927635
-0.929423
-0.983202
-1.0272
-0.99859
-1.01973
-1.02804
-0.849927
-0.826116
-0.531629
-0.33297
-0.446659
-0.624598
-0.812193
-0.861543
-1.02737
-0.934357
-0.877272
-0.870531
-0.783496
-0.781925
-0.837436
-0.797205
-0.823243
-0.795481
-0.841715
-0.850048
-0.778433
-0.615581
-0.53692
-0.279571
-0.322476
-0.429238
-0.499917
-0.755687
-0.735186
-0.759781
-0.695347
-0.732233
-0.664302
-0.606937
-0.589402
-0.608284
-0.591688
-0.579201
-0.628954
-0.611521
-0.611552
-0.481984
-0.306509
-0.232061
-0.289592
-0.383157
-0.389975
-0.474306
-0.485277
-0.511026
-0.534279
-0.501532
-0.456163
-0.461639
-0.383786
-0.431571
-0.430869
-0.468562
-0.435425
-0.482578
-0.400583
-0.313415
-0.23907
-0.135049
-0.146811
-0.216072
-0.218184
-0.294222
-0.267097
-0.294296
-0.322116
-0.266407
-0.288
-0.350785
-0.252461
-0.233084
-0.241416
-0.23293
-0.33058
-0.264447
-0.278026
-0.226107
-0.149378
-0.127528
-0.117907
-0.0544412
-0.0368147
-0.0905512
-0.10527
-0.104579
-0.0965584
-0.0994933
-0.152126
-0.0907835
-0.189203
-0.0664063
-0.0924831
-0.16896
-0.0924218
-0.152769
-0.0818449
-0.0454512
-0.0532662
-0.0806897
0.00493827
-0.367559
-0.720511
-0.962868
-1.20695
-1.25459
-1.24151
-1.17156
-1.1141
-1.11023
-1.07024
-1.03293
-1.06855
-1.09361
-0.933925
-0.8683
-0.681931
-0.538194
-0.0365708
0.410847
0.0461275
-0.29152
-0.675086
-0.81217
-0.976297
-1.01357
-1.07125
-0.962949
-0.901669
-0.965407
-0.934867
-0.839654
-0.902863
-0.890972
-0.854219
-0.793589
-0.684009
-0.419443
-0.0664939
0.338318
0.0574175
-0.215538
-0.545513
-0.660917
-0.838107
-0.831686
-0.789486
-0.852998
-0.804292
-0.72555
-0.720973
-0.709503
-0.718657
-0.760662
-0.682709
-0.65097
-0.534321
-0.303382
-0.011353
0.236963
-0.0289094
-0.192354
-0.456351
-0.573504
-0.684125
-0.676685
-0.647485
-0.676271
-0.613699
-0.641562
-0.581655
-0.59218
-0.582862
-0.607589
-0.54344
-0.566909
-0.496046
-0.20272
0.00883838
0.181816
0.0168623
-0.183185
-0.298047
-0.382712
-0.510404
-0.542311
-0.493088
-0.534919
-0.445526
-0.555533
-0.412853
-0.481297
-0.443898
-0.497486
-0.449922
-0.350128
-0.331473
-0.205645
-0.0162048
0.18001
-0.0696824
-0.0906082
-0.237205
-0.302927
-0.36857
-0.346273
-0.398306
-0.352965
-0.353757
-0.347341
-0.309201
-0.339622
-0.345901
-0.296992
-0.307263
-0.281739
-0.239061
-0.151429
-0.020893
0.0668421
-0.0224084
-0.0331808
-0.191472
-0.184546
-0.221465
-0.268824
-0.173767
-0.247844
-0.155948
-0.188145
-0.254496
-0.220421
-0.167861
-0.226485
-0.146391
-0.182275
-0.12342
-0.114824
0.0251318
0.0333222
-0.0801495
0.0229645
-0.0733985
0.0151547
-0.0437264
-0.0519431
-0.112609
-0.046949
-0.0786797
-0.0847099
-0.0622919
-0.0491376
-0.142768
-0.0465546
-0.100942
-0.0028848
-0.0377765
0.0296095
-0.0126885
0.0646668
1.04068
0.570469
0.154076
-0.20409
-0.381347
-0.555381
-0.686468
-0.565967
-0.588506
-0.596042
-0.53979
-0.600531
-0.493962
-0.469606
-0.337309
-0.141551
0.0874575
0.506843
0.865931
1.3383
0.815077
0.457412
0.123844
-0.206594
-0.391516
-0.472395
-0.515664
-0.551946
-0.492289
-0.568905
-0.452432
-0.507965
-0.464325
-0.351763
-0.356222
-0.162923
0.046233
0.298809
0.80367
1.16988
0.754342
0.399986
0.125573
-0.178911
-0.291492
-0.404144
-0.410959
-0.441035
-0.428056
-0.457078
-0.435377
-0.366149
-0.422257
-0.271234
-0.21288
-0.049927
0.0349693
0.272303
0.677954
0.905159
0.543079
0.338863
-0.0125117
-0.115266
-0.248061
-0.285961
-0.372841
-0.39886
-0.365192
-0.337167
-0.355921
-0.347756
-0.29414
-0.231776
-0.27169
-0.18012
-0.0268405
0.275656
0.488863
0.75609
0.372261
0.247221
0.0200942
-0.024574
-0.214173
-0.250975
-0.289606
-0.297749
-0.273705
-0.286928
-0.259273
-0.25473
-0.203461
-0.211293
-0.222887
-0.0435971
-0.0454692
0.11424
0.405822
0.616724
0.308204
0.142844
-0.0332448
-0.0916237
-0.142082
-0.156437
-0.170152
-0.229805
-0.194493
-0.205299
-0.183491
-0.224479
-0.150015
-0.160182
-0.146085
-0.0208161
-0.0112158
0.0864774
0.19699
0.390868
0.194877
0.112169
-0.0101578
-0.0191351
-0.105868
-0.125061
-0.117739
-0.0933736
-0.094032
-0.120053
-0.165588
-0.107266
-0.113981
-0.116974
-0.0224926
-0.00222969
0.0153119
0.0627298
0.118521
0.265188
0.0453676
-0.00925672
-0.00817198
-0.0829045
-0.0334437
0.033427
0.0140803
-0.0428402
-0.0285629
-0.0513099
-0.0299683
0.00830829
0.00377955
-0.0807159
0.0244064
-0.0352052
0.0168741
-0.0438188
0.0426964
0.0351713
2.12835
1.59854
1.14079
0.794616
0.519308
0.310758
0.180478
0.168339
0.114958
0.131023
0.0984767
0.131153
0.240433
0.361917
0.525475
0.779825
1.07487
1.49186
2.04547
2.59879
1.78179
1.43893
1.00526
0.676532
0.444368
0.20615
0.20463
0.130498
0.0630624
0.0602859
0.0925772
0.179627
0.124225
0.200809
0.461486
0.659807
0.870016
1.19893
1.71896
2.05142
1.56389
1.15
0.774264
0.534296
0.359285
0.189147
0.11623
0.1168
0.0789246
0.0627585
0.0609228
0.133421
0.172682
0.185629
0.288273
0.49051
0.708185
1.02353
1.37276
1.76748
1.12818
0.964568
0.679303
0.439636
0.286577
0.135144
0.155598
0.0777267
0.074994
0.123001
0.0809978
0.0897239
0.128791
0.171057
0.301346
0.41024
0.57798
0.854296
1.18517
1.43934
0.953716
0.696832
0.502411
0.314516
0.194798
0.0703109
0.114299
0.0736676
0.0532171
0.0976152
0.104624
0.0405091
0.15238
0.133494
0.230212
0.256473
0.371562
0.645089
0.859209
1.05274
0.65462
0.499351
0.325289
0.228486
0.115583
0.107497
0.0566166
0.015988
0.0649239
0.0131033
0.00934645
0.0183781
0.133728
0.158302
0.139933
0.246298
0.286928
0.448611
0.627194
0.730732
0.378767
0.302729
0.242991
0.110425
0.0760804
0.0731587
-0.00441475
-0.0422905
0.0441963
-0.0107489
-0.0185983
0.0918601
0.0259212
0.07895
0.0462576
0.143907
0.183931
0.20504
0.391377
0.43007
0.119842
0.0527846
0.116935
0.00900412
0.0943397
0.0461341
0.0408422
0.0523763
0.0334702
-0.0107493
-0.0351884
0.0774689
-0.0152061
0.0105559
-0.0395896
0.0933148
0.0653674
0.113464
0.183746
0.162371
3.50403
2.93347
2.37254
1.92291
1.58493
1.40348
1.25126
1.1935
1.14241
1.04623
1.09211
1.14736
1.23357
1.36666
1.60887
1.87509
2.22724
2.7546
3.38858
3.88593
3.00066
2.46183
2.07208
1.60208
1.38712
1.1515
1.03808
0.954418
0.880985
0.892445
0.915978
0.910603
1.00808
1.26071
1.29857
1.56825
1.85451
2.281
2.76635
3.30248
2.40478
2.071
1.66652
1.33652
1.05419
0.872386
0.787694
0.775266
0.777626
0.69605
0.715064
0.860361
0.866116
0.947258
1.18371
1.33713
1.51624
1.88481
2.33171
2.70571
1.96359
1.64547
1.31467
1.03139
0.940221
0.705619
0.609906
0.630272
0.581944
0.593435
0.542803
0.579308
0.650468
0.738971
0.913543
1.03242
1.30852
1.5135
1.8728
2.14896
1.42139
1.19265
1.01028
0.813411
0.614605
0.525918
0.553846
0.551218
0.455315
0.405671
0.449491
0.449934
0.547155
0.584532
0.670187
0.833299
0.910133
1.12231
1.36688
1.59818
1.01723
0.861543
0.674666
0.638618
0.523085
0.464608
0.419467
0.333957
0.278012
0.336657
0.292575
0.277701
0.355648
0.426867
0.420066
0.580529
0.653735
0.808732
0.978254
1.11871
0.576869
0.498581
0.452656
0.328982
0.301563
0.214207
0.21814
0.134454
0.164493
0.219711
0.204573
0.182626
0.227525
0.231704
0.342152
0.322939
0.406038
0.471422
0.562203
0.675239
0.264671
0.21687
0.147694
0.156937
0.10749
0.0367746
0.0982297
0.0808949
0.0337674
0.0638433
-0.0100861
0.0360553
0.0765315
0.0928242
0.065578
0.126349
0.189479
0.170611
0.227592
0.231031
5.02014
4.34916
3.73969
3.31845
2.91946
2.6078
2.36149
2.33488
2.24672
2.20183
2.29686
2.34895
2.40269
2.56972
2.80128
3.11276
3.62481
4.11588
4.72927
5.42892
4.13043
3.69428
3.13716
2.75331
2.41671
2.19674
1.97931
1.96931
1.86718
1.89753
1.87363
1.93329
1.99039
2.16341
2.4018
2.63481
3.08227
3.51133
3.95986
4.43757
3.45308
3.06217
2.67004
2.26931
2.00274
1.83955
1.60829
1.54916
1.55476
1.51968
1.51159
1.56296
1.68894
1.79989
2.07009
2.21332
2.52326
2.83487
3.28591
3.6693
2.74036
2.3924
2.07159
1.83132
1.64962
1.43328
1.37466
1.29533
1.22954
1.26613
1.2
1.29348
1.27942
1.43626
1.55015
1.78856
2.01418
2.28849
2.60798
2.88417
2.16332
1.94933
1.65717
1.36916
1.23104
1.18661
1.07099
0.94326
0.916683
0.983381
0.883136
0.957702
1.06913
1.09367
1.25176
1.37425
1.51791
1.76634
1.95811
2.35591
1.44796
1.3367
1.13561
0.942491
0.86114
0.802739
0.698032
0.692047
0.642706
0.662067
0.658779
0.651595
0.723691
0.767887
0.822756
1.01269
1.07178
1.25294
1.41616
1.55389
0.808279
0.77327
0.635323
0.590633
0.536462
0.486574
0.464311
0.470866
0.302997
0.399213
0.377362
0.498207
0.427886
0.432795
0.55105
0.590507
0.666365
0.744559
0.851013
0.985417
0.291727
0.20822
0.213657
0.237865
0.204071
0.12037
0.1271
0.167701
0.124393
0.0658978
0.179036
0.182099
0.174727
0.0761949
0.152458
0.151104
0.194482
0.290099
0.351028
0.291292
6.49531
5.87961
5.24763
4.69087
4.28697
3.95325
3.76297
3.50279
3.52906
3.36261
3.45277
3.55289
3.64939
3.91758
4.16233
4.54765
5.01032
5.57189
6.24101
6.87236
5.45172
4.90871
4.39712
3.95811
3.66698
3.36554
3.17973
2.96424
2.86889
2.81905
2.90955
2.99194
3.11748
3.28323
3.48112
3.82779
4.25597
4.69492
5.18294
5.75124
4.47956
4.05849
3.64618
3.31393
2.99166
2.70849
2.56238
2.49197
2.41557
2.29309
2.36045
2.46047
2.52457
2.69252
2.96116
3.15783
3.45564
3.82852
4.27449
4.70188
3.50298
3.20413
2.9142
2.53591
2.45199
2.19518
2.05015
2.0197
1.81275
1.82934
1.84325
1.9258
2.02593
2.08484
2.35605
2.53604
2.7812
3.06869
3.40701
3.8183
2.73515
2.49028
2.2231
1.99598
1.86645
1.67694
1.60935
1.50289
1.38562
1.44828
1.39273
1.43984
1.55233
1.61422
1.74599
1.84763
2.05726
2.37563
2.64054
2.88465
1.87434
1.70119
1.58405
1.33532
1.23517
1.10861
1.06721
1.016
1.03767
0.968854
1.00588
0.97233
1.0802
1.10461
1.1982
1.34709
1.49809
1.61914
1.88185
1.98796
1.1787
1.02784
0.902158
0.794147
0.801407
0.690636
0.611787
0.568517
0.567211
0.65945
0.583783
0.563673
0.704662
0.717778
0.756058
0.792953
0.911374
1.01528
1.13141
1.20046
0.304736
0.334889
0.345712
0.241527
0.240374
0.280229
0.246195
0.223932
0.166555
0.221272
0.251003
0.2016
0.204986
0.245782
0.271134
0.239398
0.346213
0.331978
0.397854
0.404069
7.81349
7.14285
6.51347
5.8905
5.49779
5.14207
4.83494
4.61399
4.54901
4.5397
4.59213
4.5828
4.81974
5.05564
5.37251
5.72703
6.24885
6.83043
7.56439
8.099
6.47466
5.94827
5.40101
4.94014
4.55619
4.25444
4.04563
3.86039
3.75967
3.75543
3.72551
3.88455
3.97778
4.25238
4.42264
4.70729
5.16474
5.68434
6.3001
6.80394
5.30557
4.81129
4.3913
4.00131
3.74446
3.52319
3.28018
3.13276
3.07752
3.09205
2.99672
3.11209
3.26044
3.36465
3.62303
3.85219
4.23756
4.64336
5.07607
5.50861
4.21434
3.95042
3.56754
3.19153
2.9552
2.74008
2.67657
2.44672
2.45402
2.42521
2.4722
2.45133
2.52635
2.64219
2.85921
3.06336
3.37055
3.66969
4.04061
4.39939
3.16869
2.90701
2.65788
2.40236
2.23236
2.0519
1.94555
1.92802
1.79992
1.81589
1.83392
1.91327
1.93875
1.9861
2.14221
2.34088
2.59011
2.69179
3.09158
3.36493
2.32393
2.03222
1.86498
1.68305
1.55688
1.4631
1.37854
1.35514
1.25098
1.3309
1.24241
1.22723
1.31946
1.41618
1.54815
1.63124
1.81804
1.9171
2.16234
2.3513
1.36233
1.15191
1.08487
1.04045
0.922054
0.862626
0.836701
0.760883
0.706755
0.709256
0.750536
0.768196
0.783035
0.879053
0.920571
0.906568
1.06232
1.16874
1.25976
1.32303
0.463877
0.384692
0.334685
0.340084
0.29549
0.253015
0.27604
0.194465
0.248008
0.261779
0.279414
0.226096
0.319445
0.246505
0.316909