/*--------------------------------*- C++ -*----------------------------------*\
| =========                 |                                                 |
| \\      /  F ield         | OpenFOAM: The Open Source CFD Toolbox           |
|  \\    /   O peration     | Version:  2212                                  |
|   \\  /    A nd           | Website:  www.openfoam.com                      |
|    \\/     M anipulation  |                                                 |
\*---------------------------------------------------------------------------*/
FoamFile
{
    version     2.0;
    format      ascii;
    arch        "LSB;label=32;scalar=64";
    class       volScalarField;
    location    "0";
    object      relativeErrorField;
}
// * * * * * * * * * * * * * * * * * * * * * * * * * * * * * * * * * * * * * //

dimensions      [0 0 0 1 0 0 0];

internalField   nonuniform List<scalar> 
3200
(
0.00381859
0.00460568
0.00591659
0.00789509
0.00993846
0.0121816
0.0145696
0.0169001
0.0185068
0.0194094
0.0194622
0.0187402
0.0168617
0.0151897
0.0127009
0.0106454
0.00839828
0.00674986
0.00563558
0.00489204
0.00320184
0.00395138
0.00508871
0.00654043
0.00853042
0.0104792
0.0126924
0.0143615
0.0160455
0.0167566
0.016683
0.0161219
0.0147854
0.0129539
0.0109894
0.00892066
0.00723526
0.00572732
0.00479636
0.00415795
0.00262383
0.00298378
0.00419953
0.00541075
0.00732167
0.00882412
0.0106918
0.0123847
0.0134293
0.0140745
0.0141747
0.0135596
0.0122886
0.0109148
0.00920606
0.00746385
0.00596017
0.00484046
0.00378352
0.00333854
0.00204235
0.00247855
0.00319519
0.00438562
0.00562692
0.00714043
0.00845149
0.00992248
0.0109936
0.0115038
0.0114317
0.0109596
0.00996637
0.00891103
0.00762111
0.00604485
0.00492091
0.00354871
0.00313422
0.00272199
0.00161144
0.00182183
0.00255797
0.00351146
0.00441456
0.00543438
0.00675788
0.00794999
0.00846963
0.00886963
0.00887009
0.00857001
0.00800069
0.00676263
0.00579343
0.0048378
0.00361961
0.00296848
0.00227613
0.00195958
0.0011119
0.00141292
0.00193838
0.00262723
0.00308725
0.00388407
0.00479747
0.00566179
0.00591456
0.00657304
0.00646923
0.00616732
0.00596911
0.00495351
0.00417486
0.00362524
0.00271464
0.00215068
0.00190051
0.00158199
0.000804576
0.000759496
0.0011024
0.00146986
0.00212278
0.00244382
0.00285121
0.00336141
0.00403941
0.00420024
0.00382597
0.0037116
0.00360339
0.00315798
0.0024152
0.00217298
0.00165918
0.00108808
0.00112486
0.00103113
0.000317549
0.00040793
0.000483746
0.000607329
0.000573107
0.000825487
0.000974854
0.00119285
0.00127772
0.00127615
0.00115515
0.00132377
0.00117997
0.00101614
0.00096727
0.000790051
0.000620958
0.000510951
0.000266057
0.000270954
0.00214465
0.00299708
0.00430162
0.00583514
0.00826579
0.0104953
0.0127971
0.0147578
0.0164491
0.0173017
0.0172183
0.0166472
0.0151158
0.0132202
0.0108008
0.00867242
0.00673621
0.00500454
0.00399897
0.00326052
0.00163338
0.00252505
0.00353427
0.00512069
0.00685717
0.00889111
0.0108007
0.0127459
0.0139942
0.0151636
0.0150264
0.0142168
0.0130004
0.0115925
0.00932576
0.00734712
0.00572939
0.00427896
0.00329571
0.00256384
0.00130363
0.00207188
0.00316963
0.00425432
0.00568132
0.00744166
0.00924317
0.0109366
0.0121128
0.0126226
0.012541
0.0120022
0.0110189
0.0095005
0.00789528
0.00619431
0.00464808
0.00344798
0.00271571
0.00233462
0.00129804
0.00168405
0.00222311
0.00341123
0.00478815
0.006332
0.00751248
0.00882653
0.00978672
0.010258
0.0104053
0.0099789
0.00920757
0.00782473
0.00634598
0.00507136
0.00389995
0.00286834
0.00227271
0.00171261
0.00110578
0.00120749
0.00186601
0.00268712
0.00383494
0.00473254
0.00587414
0.00677969
0.00757959
0.00827841
0.00836827
0.00778494
0.00703072
0.00609612
0.00506548
0.00381133
0.00298192
0.00228178
0.00167067
0.00154591
0.000747911
0.000796108
0.00145974
0.00206354
0.00273391
0.00329052
0.00433613
0.00482508
0.00548244
0.0056723
0.00606325
0.00559978
0.00496585
0.00433618
0.00350721
0.00293058
0.0022853
0.00168151
0.00118383
0.00104917
0.000434337
0.000632272
0.000938578
0.00127671
0.00171288
0.00223432
0.00242906
0.00297026
0.00331275
0.00347058
0.00365304
0.00334418
0.00314228
0.00276126
0.00218639
0.00179102
0.00128451
0.00086963
0.00065472
0.000638522
0.000251963
0.000301942
9.44498e-05
0.000476569
0.000612648
0.000640841
0.000875798
0.00105329
0.00133387
0.0012437
0.00130756
0.00122419
0.00125922
0.000937276
0.000656791
0.000675288
0.000546115
0.000364231
9.73056e-05
0.000123954
0.000253375
0.000916822
0.00210358
0.00381664
0.0056418
0.00774493
0.0100913
0.0122173
0.0136559
0.0145246
0.0143591
0.0137182
0.0123147
0.0105746
0.00837207
0.0066086
0.00426445
0.00314211
0.00192765
0.00130791
1.61241e-05
0.000723725
0.00193176
0.00309743
0.00491748
0.0070523
0.00873911
0.0101308
0.0117101
0.0124371
0.0125709
0.0116619
0.0105896
0.00899562
0.00727314
0.00566132
0.00388781
0.00238833
0.00150699
0.000926011
0.000174236
0.000690359
0.00143369
0.00268434
0.00407016
0.00570197
0.00734399
0.00859584
0.00995082
0.0104918
0.0107393
0.0102148
0.00903266
0.00750203
0.00602671
0.00440335
0.00329474
0.00210749
0.00139074
0.000701072
5.42153e-05
0.000680022
0.00126277
0.00218788
0.00338129
0.00476387
0.00597737
0.0072706
0.00841596
0.00863638
0.00861669
0.00814113
0.00742085
0.0062764
0.00515084
0.00391456
0.00261441
0.00167327
0.000880619
0.000750842
6.84896e-05
0.000518593
0.00100861
0.00163945
0.00268231
0.00376048
0.00496064
0.00567672
0.00626197
0.00704083
0.00681416
0.00654847
0.00580825
0.00476228
0.00388997
0.00291857
0.00205635
0.00121564
0.000707697
0.000657814
7.87909e-05
0.000326618
0.00056153
0.00126733
0.00193169
0.00271355
0.00368946
0.0040403
0.00456596
0.00500592
0.00511127
0.00477784
0.00426215
0.00334901
0.00284334
0.00221979
0.00176884
0.000923457
0.000667952
0.000205855
8.40462e-05
0.00014113
0.000209279
0.000937537
0.00139483
0.00174262
0.00214682
0.00250725
0.00276378
0.00304318
0.00294582
0.00285143
0.00257976
0.00225876
0.00161986
0.00121911
0.000785903
0.000664101
0.000297018
0.000344713
9.58832e-05
0.000177042
0.000170824
0.000485426
0.000444366
0.000607839
0.000725251
0.000859528
0.00109581
0.000917736
0.000829549
0.000958274
0.000749806
0.000918515
0.000739082
0.000537694
0.000414847
0.000163194
0.000155515
0.00010584
0.00153004
0.00116898
0.000124259
0.00142938
0.00337668
0.00536325
0.00723899
0.00939597
0.0109457
0.01152
0.0117149
0.0110595
0.00958985
0.00797016
0.00586277
0.00407344
0.00223628
0.0008092
0.000186965
0.000783673
0.00147017
0.000887376
2.68666e-05
0.00130205
0.00283692
0.0046316
0.00645016
0.00815629
0.00938391
0.00991246
0.0100542
0.00949648
0.00831853
0.00674364
0.00505619
0.00370509
0.0017165
0.000637923
5.33222e-05
0.000553583
0.00128881
0.00082445
0.000188797
0.000944208
0.00228657
0.00404444
0.00525509
0.00664688
0.0078352
0.0084293
0.00836472
0.0078251
0.00683608
0.00586769
0.00435563
0.00283419
0.00160177
0.000547529
0.000151993
0.000487953
0.00101953
0.00066989
0.000113705
0.00084758
0.00207345
0.00335066
0.00426118
0.00561887
0.00637899
0.00673851
0.00702839
0.00678657
0.0056022
0.00470942
0.00336864
0.00238038
0.00115873
0.000430129
6.13993e-05
0.00044847
0.000854366
0.000534429
3.95167e-05
0.000729694
0.00156895
0.00236826
0.00342776
0.00431597
0.00501531
0.00545694
0.00559847
0.00516436
0.00447389
0.00358427
0.00269198
0.00174627
0.00107323
0.000218058
0.000210018
0.000221891
0.000545826
0.000141053
6.05903e-05
0.000580396
0.000967491
0.00182336
0.00252117
0.00309971
0.00377636
0.00389873
0.00401305
0.00384593
0.00317854
0.00284501
0.00209184
0.00116244
0.000679655
0.00033705
6.88136e-05
0.000469174
0.000426603
0.000221498
8.87889e-05
0.000385251
0.000811939
0.00122118
0.00146702
0.00209169
0.00231395
0.00235753
0.0025068
0.00228649
0.00195659
0.00170332
0.00147472
0.00101768
0.000492562
0.000123783
7.04914e-05
0.000253991
0.000162161
0.000224235
5.22337e-05
0.000154811
9.83413e-05
0.000411064
0.000670859
0.000887147
0.00102711
0.000703774
0.00102115
0.000840651
0.000889705
0.000529711
0.000412271
0.000300289
0.000231719
0.00010244
2.56996e-05
5.77252e-05
0.0032051
0.0026874
0.00177856
0.000419202
0.000999608
0.00296539
0.0049185
0.00653762
0.00783956
0.00839974
0.00868144
0.00810718
0.00712218
0.0054945
0.00382234
0.00177026
0.000226632
0.000969107
0.0017362
0.00222337
0.00273666
0.00260211
0.00161621
0.000625028
0.000955076
0.00242501
0.00414147
0.00571026
0.00682088
0.00725159
0.00730148
0.00679158
0.00593378
0.00457419
0.00300791
0.00125219
0.000323512
0.00103819
0.00167442
0.00183053
0.00238265
0.00190106
0.00150113
0.000645855
0.000706646
0.00218184
0.00358249
0.00473741
0.00575756
0.00633957
0.00631776
0.00574632
0.00492614
0.00371296
0.00251037
0.00126853
2.21519e-06
0.000873827
0.00140681
0.0017409
0.00182392
0.00163674
0.00129994
0.000404663
0.000479082
0.0018372
0.00282935
0.00387926
0.00472038
0.00523181
0.00510106
0.00477784
0.00411052
0.00315427
0.00200553
0.000900667
0.000226666
0.000720867
0.00132156
0.00153643
0.00148496
0.00135629
0.000909913
0.000392386
0.000403143
0.00154742
0.00234807
0.0029922
0.00353831
0.00396149
0.00409729
0.00370324
0.00307825
0.00261403
0.00168273
0.000871924
8.18968e-05
0.00077887
0.000926362
0.00100764
0.00112387
0.000945189
0.000542821
0.000101492
0.000270626
0.00102548
0.00191233
0.00214806
0.00253983
0.00304126
0.00289594
0.0028153
0.0022993
0.00172637
0.00119901
0.000642291
6.56068e-05
0.000382334
0.000798757
0.000833072
0.000640989
0.000475559
0.000350751
0.000218938
0.000182796
0.000770371
0.000982321
0.00139345
0.00165708
0.00185825
0.00176369
0.00180652
0.00139407
0.00117259
0.00055378
0.000544798
0.000184627
0.000362059
0.00026692
0.00042384
3.20799e-05
0.000220113
5.59578e-05
0.000213886
2.07185e-05
6.21554e-05
0.000385754
0.000592672
0.000578332
0.000693775
0.000457705
0.000354841
0.000506426
0.000424708
6.59445e-05
6.85797e-05
5.84089e-05
0.000175877
5.49086e-05
0.000156143
0.00438406
0.00430188
0.00370876
0.00240852
0.000954743
0.000593352
0.00229446
0.0039429
0.00509125
0.00564002
0.00591491
0.00538995
0.00431813
0.00284249
0.00126044
0.000142237
0.00144155
0.0027552
0.00322538
0.00333416
0.00388969
0.00374537
0.00279255
0.00201386
0.000849668
0.000604713
0.00201142
0.00332685
0.00434299
0.00489202
0.00520415
0.00472561
0.00375126
0.00236215
0.000950724
0.000295038
0.00133631
0.00243803
0.00304028
0.00301994
0.00322024
0.00305366
0.00252501
0.00173704
0.000781857
0.000497716
0.00166523
0.00293674
0.00388112
0.00410523
0.00417907
0.003888
0.00303605
0.0019887
0.00102957
0.000199102
0.00127653
0.0020323
0.00232821
0.00235685
0.00267619
0.00248827
0.00206521
0.00153119
0.000760608
0.000469531
0.00135339
0.0021228
0.00295453
0.00332901
0.00319701
0.00302442
0.00252115
0.00159656
0.000798771
0.000370847
0.000928491
0.0018317
0.00212801
0.00203788
0.00203949
0.00174538
0.00175808
0.00135075
0.000479932
0.000235158
0.00118319
0.00168974
0.0022095
0.00274069
0.00259327
0.00243526
0.00204926
0.00147431
0.000514763
0.000242534
0.000549037
0.00121705
0.00169477
0.00177748
0.0017288
0.00144661
0.00118581
0.000951875
0.000401966
0.000237001
0.000744998
0.00121363
0.00175691
0.00197524
0.00201253
0.00174688
0.0012866
0.000884204
0.000481665
6.36269e-05
0.000534318
0.001021
0.00103787
0.0011333
0.000785236
0.00101752
0.000583156
0.000542394
0.000124058
6.12409e-05
0.000370031
0.000835663
0.00103814
0.00126481
0.00120971
0.00100592
0.00101442
0.000481695
0.000356331
5.20225e-05
0.000187649
0.000586733
0.0007892
0.000854539
0.000325519
7.55745e-05
0.000148274
0.000172283
3.34145e-05
0.000242248
3.59167e-05
0.000446124
0.000381485
0.000492866
0.000438782
0.000304966
0.000376657
3.58532e-05
0.000339806
0.000268844
0.000158081
6.61132e-05
9.82606e-05
7.39227e-05
0.00531262
0.00515683
0.00491686
0.0037707
0.00268778
0.00139562
6.77039e-05
0.00162224
0.00282451
0.00306395
0.00332194
0.00284016
0.00190167
0.000771097
0.000587048
0.00209289
0.00302205
0.0038513
0.00450082
0.00425291
0.00452628
0.00461078
0.00418498
0.00318761
0.00220254
0.000998059
0.000218757
0.00134236
0.00239963
0.0028662
0.00277494
0.00226106
0.00141362
0.000555911
0.000528288
0.00164835
0.00277705
0.00341664
0.00357072
0.00381837
0.00396946
0.00380713
0.00323266
0.00271752
0.00199187
0.000884574
0.000192285
0.00118303
0.00192939
0.00228457
0.00244657
0.00195022
0.00131026
0.000359437
0.000604012
0.00150897
0.00239653
0.00296257
0.00333416
0.00334163
0.0032997
0.00317239
0.00299078
0.00234861
0.00156921
0.000726652
0.000131672
0.000820933
0.00158656
0.00207845
0.00180574
0.00163727
0.00120449
0.000386995
0.000525584
0.00126163
0.00179175
0.00256529
0.00271763
0.00278169
0.00272587
0.00249434
0.00232068
0.00190226
0.00148836
0.000658445
0.000154964
0.000938871
0.001072
0.00132333
0.00156122
0.0012275
0.000923581
0.000220419
0.000520489
0.00103922
0.00166907
0.00179579
0.00225349
0.00220535
0.00182085
0.00183339
0.0016177
0.00140236
0.00111985
0.000688585
0.000124054
0.000384456
0.000914391
0.000981078
0.00118998
0.00100988
0.000501252
1.91613e-05
0.000414209
0.000755685
0.00122054
0.00159164
0.00149288
0.00158424
0.0010844
0.0013118
0.00107018
0.000884377
0.000781818
0.000284953
4.00899e-05
0.000299199
0.000542783
0.000731667
0.000641454
0.000662283
0.000414744
0.000114488
0.000118481
0.000365167
0.000597399
0.000757575
0.000787795
0.000698005
0.000466564
0.000335016
0.000157259
0.00026609
0.000333701
0.000141437
0.000140803
0.000206039
0.000128799
0.000202615
0.000374207
0.000272471
0.000149736
2.509e-05
1.32952e-06
0.000168671
0.000276869
0.000295837
0.000207215
0.000289133
0.00592656
0.00594422
0.00580446
0.00498114
0.00401379
0.00273412
0.00160395
0.000503717
0.000285633
0.00101779
0.00109831
0.000651146
3.63102e-05
0.00134826
0.00223977
0.00335233
0.00429448
0.00470858
0.00495192
0.0047506
0.00504481
0.00516476
0.00488789
0.0042672
0.00365391
0.00265868
0.00134132
0.000325856
0.000341294
0.000847721
0.000857878
0.000578171
0.000148893
0.00102167
0.00217835
0.00287137
0.00374846
0.00406073
0.00437098
0.00429092
0.00436982
0.00458873
0.00415824
0.0039117
0.00276591
0.00211487
0.00113122
0.000303916
0.000218036
0.000587002
0.000669654
0.000245888
0.000173047
0.000876954
0.00172943
0.00250698
0.00316179
0.00349917
0.00374242
0.00347916
0.00350387
0.00351922
0.00362007
0.00319788
0.00250253
0.00148142
0.00121173
0.000259475
0.000325705
0.000524606
0.000617897
0.000197344
0.000121021
0.000963114
0.00133007
0.00210933
0.00261214
0.00286067
0.00295199
0.00304971
0.00289115
0.00290899
0.00276254
0.00243852
0.00191374
0.00136122
0.000697499
0.000242974
0.000228218
0.000456587
0.000448116
0.000186076
0.000275461
0.000680817
0.00122372
0.00177799
0.00207984
0.00239208
0.00244548
0.00229276
0.00203178
0.00209173
0.00186212
0.00182604
0.00134594
0.00111247
0.000451634
0.000404242
0.000229072
0.000313904
9.41557e-05
0.00033055
1.85345e-05
0.000692842
0.000759364
0.00112136
0.00134554
0.00173102
0.00171171
0.00165554
0.00111415
0.00143971
0.00110706
0.00116768
0.000801643
0.000723636
0.000480906
3.89953e-05
0.000195186
0.000423246
0.00019441
7.49344e-05
0.000100286
0.000334573
0.00056475
0.000867815
0.000847126
0.00111943
0.00130554
0.001142
0.000634152
0.000536256
0.00031876
0.000319963
0.000296311
0.000276523
1.96141e-05
3.47366e-05
0.000158147
3.85643e-05
3.8179e-05
1.18778e-05
6.86414e-05
0.000100261
0.000106735
0.000245144
0.000350941
0.000405151
0.00017429
0.000447327
0.00619688
0.00622749
0.00625025
0.00578245
0.00516668
0.00402101
0.00301977
0.00219648
0.00144685
0.000693497
0.000775414
0.00101778
0.00182457
0.00256388
0.00333561
0.00436511
0.00497778
0.00545208
0.00521205
0.0049821
0.00530197
0.00551874
0.0053323
0.00499643
0.00440684
0.00361904
0.00258264
0.00174726
0.00147035
0.000822582
0.000703628
0.00101973
0.00156246
0.00243586
0.00300063
0.00369266
0.00442997
0.00475193
0.00460198
0.00441293
0.00443676
0.00478216
0.00464224
0.00443881
0.00387849
0.00285434
0.00229248
0.00162492
0.00107543
0.000851545
0.000747418
0.00097795
0.00139693
0.00218376
0.002693
0.00324152
0.00369371
0.00400558
0.00389945
0.00359233
0.00379123
0.0036492
0.00362202
0.00352186
0.00311463
0.00257634
0.00194505
0.00131022
0.000588037
0.000654044
0.000413043
0.000688449
0.00149476
0.00160499
0.00217656
0.00267863
0.0031704
0.00332794
0.00338164
0.00294641
0.00286293
0.00284994
0.00306031
0.00293307
0.00242067
0.00199389
0.00146072
0.000957033
0.00068671
0.00044318
0.000493654
0.000633752
0.00102637
0.00138607
0.00168591
0.00192784
0.00232035
0.00235191
0.00257868
0.00250249
0.0020973
0.00193893
0.00194598
0.00211315
0.00179805
0.0016367
0.00101083
0.000737926
0.000472559
0.000533654
0.000437417
0.000461961
0.000726217
0.00117503
0.0013127
0.00152893
0.00191548
0.00170121
0.00166247
0.00174262
0.00134764
0.0014318
0.00149052
0.00138546
0.0012879
0.00100462
0.000793791
0.000522821
0.000409114
0.000348451
0.000194287
0.000381401
0.000336769
0.000460527
0.000780361
0.000842044
0.00112356
0.00124754
0.00100798
0.00114663
0.000663979
0.000427976
0.000465267
0.00045652
0.000210515
0.000169922
4.31687e-05
0.000143377
0.000182524
0.000139233
0.00022192
0.000148755
0.000137766
0.000240804
0.000341122
0.000602924
0.000350771
0.000372475
0.000611262
0.000376657
0.00585571
0.00627211
0.00634661
0.00632679
0.00571286
0.00503352
0.00411131
0.00340481
0.00264967
0.00242811
0.00232352
0.00245269
0.00302925
0.00359826
0.00442313
0.00483726
0.00537628
0.00554932
0.0051757
0.00487141
0.00495366
0.00520262
0.00559631
0.00520683
0.0050015
0.00427477
0.00353592
0.0029007
0.00248177
0.00201097
0.00204118
0.00227803
0.00249897
0.00322243
0.0038639
0.00434058
0.00470701
0.00480493
0.00449162
0.00408079
0.00418773
0.00440222
0.00468695
0.00469752
0.00395041
0.00369709
0.00284839
0.00257264
0.00208577
0.00181205
0.0017015
0.00192723
0.00239572
0.00284253
0.00326718
0.00357953
0.00382304
0.00389116
0.0039369
0.00343305
0.00336522
0.00374842
0.00369419
0.00380649
0.00353642
0.00311851
0.00243276
0.0019807
0.00167553
0.00149136
0.001502
0.00157843
0.00168799
0.00208578
0.00272195
0.00315631
0.00326675
0.00326803
0.00328668
0.00309652
0.00282075
0.00302809
0.00310157
0.00286707
0.00258664
0.00227027
0.00195955
0.00159721
0.00126476
0.00116713
0.00116258
0.00124951
0.0013676
0.00200643
0.00192471
0.00245453
0.00253602
0.00272455
0.002379
0.00242742
0.00206956
0.00215849
0.00217213
0.00214064
0.00198778
0.0017025
0.00138454
0.00105273
0.000990928
0.000777426
0.000947803
0.00081342
0.00117548
0.00108075
0.00163168
0.00171518
0.00189193
0.00198284
0.0017962
0.00174503
0.00111042
0.00105117
0.00142852
0.00124334
0.00130937
0.00105915
0.00110243
0.000578224
0.000766676
0.00053779
0.000385587
0.000452598
0.00063995
0.000902764
0.000981542
0.0010237
0.00107504
0.00129318
0.00105355
0.00111568
0.000564357
0.000463166
0.000257577
0.000581966
0.000462445
0.000269985
0.000307225
0.000391896
0.000206165
0.000164798
7.48632e-05
0.000304164
0.000198602
0.000401408
0.00046573
0.000191808
0.000155109
0.000427717
0.000552126
0.000208535
0.0051189
0.00539755
0.00595159
0.00604074
0.00574935
0.00546405
0.00497869
0.00389061
0.00364559
0.00346413
0.00334594
0.00325711
0.00379027
0.00433389
0.00464618
0.00520942
0.0052384
0.00503096
0.00465075
0.00390372
0.00431739
0.00479712
0.00530701
0.00501357
0.00487702
0.00446738
0.00448022
0.00368928
0.00313098
0.00294954
0.00279403
0.00303075
0.00335608
0.00358712
0.00387667
0.00445901
0.00457263
0.00423735
0.00396302
0.0034889
0.00362733
0.00402776
0.0045616
0.00429295
0.00425448
0.00388706
0.00341369
0.0030666
0.00263079
0.00233225
0.00256068
0.00258279
0.00289839
0.00318342
0.00382047
0.00371459
0.00379268
0.00382552
0.00335765
0.00283333
0.00310432
0.00342952
0.00380427
0.00358808
0.00357118
0.00343078
0.00309063
0.00253692
0.00224527
0.0020688
0.00190035
0.00235394
0.00247161
0.00247526
0.00289702
0.00297015
0.00318765
0.00289861
0.0029101
0.00240114
0.00235673
0.00244971
0.00302111
0.00279834
0.00283624
0.00236412
0.00219611
0.00223369
0.00166652
0.00152118
0.00157854
0.00168844
0.00205477
0.00215859
0.00216984
0.0024089
0.00278037
0.00244476
0.00210305
0.00195282
0.00179165
0.00199208
0.00226162
0.00210916
0.00206862
0.00198271
0.00158166
0.00156799
0.00117625
0.00135045
0.0012652
0.00114425
0.00139315
0.00144279
0.00120231
0.0018447
0.0019691
0.00180322
0.00165891
0.00142563
0.00101699
0.00109851
0.00127672
0.00121184
0.00112126
0.0010641
0.00114564
0.00106278
0.000682229
0.000750692
0.000718358
0.000929858
0.000902559
0.000888264
0.00105171
0.00121729
0.00132629
0.00117864
0.00100317
0.000925712
0.000371529
0.000379074
0.000584827
0.000477491
0.000546015
0.00045388
0.000306224
0.000181575
0.000157994
0.00030865
0.000135066
0.000318641
0.000258526
0.000336728
0.000365956
0.000613857
0.000193078
0.000105434
0.000474674
0.000278333
0.0037064
0.00458257
0.00507618
0.00533688
0.0053429
0.00520809
0.00481524
0.00450225
0.00400983
0.00398763
0.0037037
0.00369464
0.00413827
0.00440975
0.00459679
0.00467393
0.00460792
0.00415162
0.00345528
0.00270498
0.00324192
0.00388786
0.00440887
0.00464444
0.00468694
0.00436852
0.00436103
0.00384168
0.00367639
0.00322198
0.00325398
0.00321371
0.00348465
0.00388632
0.00405452
0.00406759
0.00395653
0.00361332
0.00315038
0.00242567
0.00275198
0.00327265
0.00382397
0.00408707
0.00374727
0.00383557
0.00342753
0.00319038
0.00293437
0.00281529
0.00268051
0.00281192
0.00303693
0.00330475
0.00334407
0.0035567
0.00345132
0.00324424
0.00276116
0.00215363
0.00227938
0.00271942
0.00317395
0.0032781
0.00323134
0.00318798
0.0028453
0.00250036
0.00236388
0.00219253
0.00223897
0.00240312
0.00236838
0.00287725
0.00290446
0.00294617
0.00268671
0.00262752
0.00221949
0.00173913
0.0017548
0.00208394
0.00273672
0.00253829
0.00245597
0.00261773
0.00213807
0.00207669
0.0020121
0.00190524
0.00181044
0.00199993
0.00171407
0.00205991
0.00219871
0.00226906
0.00212084
0.0020377
0.0018227
0.00113746
0.00120839
0.00165725
0.00161161
0.00190515
0.00182028
0.00197223
0.00160518
0.00136289
0.00133396
0.00136152
0.00135957
0.00147077
0.00154354
0.0014158
0.00158292
0.00174056
0.00187955
0.00165694
0.00114649
0.00115551
0.000903413
0.00115152
0.00100065
0.00115424
0.00124147
0.00103108
0.00113058
0.00110773
0.000697302
0.000795975
0.000911226
0.000918839
0.0011491
0.00087951
0.000787407
0.00106317
0.00111902
0.000781411
0.000740302
0.000586367
0.00027776
0.000183481
0.000304516
0.000238602
0.000286826
0.000386873
0.000416057
0.000303309
0.000306249
2.07027e-05
0.000316287
0.000544734
0.000363019
0.000297723
0.00029586
0.000458919
0.000242848
0.000193774
0.00019632
0.000263078
0.00200302
0.00324742
0.00398194
0.00411834
0.00462417
0.00440595
0.00432638
0.00389625
0.00388477
0.00359802
0.00363142
0.00363966
0.00368507
0.00380065
0.00388376
0.00390984
0.00336767
0.00291383
0.00213479
0.00109181
0.00191419
0.00273644
0.00319158
0.00384501
0.00401515
0.00400918
0.00383334
0.00348181
0.00336187
0.00328081
0.00318608
0.00329179
0.00324375
0.00329099
0.00336125
0.00319199
0.00319175
0.00259255
0.00217063
0.000956674
0.00144009
0.00206069
0.00268292
0.0032192
0.00316819
0.00334154
0.00334367
0.00291622
0.00279936
0.00261596
0.002621
0.00277366
0.00289982
0.00282183
0.00288508
0.0029126
0.00241154
0.00234751
0.00151289
0.000948683
0.00130365
0.00182125
0.00236542
0.00250603
0.00298475
0.00271145
0.00254323
0.00252163
0.00226821
0.00226299
0.00242364
0.0023079
0.00238466
0.00230612
0.00244261
0.00246959
0.00226428
0.00179281
0.00156559
0.000815978
0.000966191
0.00128511
0.00149531
0.00225814
0.00219478
0.00226617
0.00207235
0.00218088
0.00197765
0.00180645
0.00175426
0.00181088
0.00176228
0.0017262
0.00187596
0.00182559
0.00182744
0.00144167
0.000917667
0.000695294
0.000892511
0.00118024
0.00120042
0.00145897
0.00149168
0.0015698
0.00164029
0.00153903
0.00139935
0.00141591
0.00117712
0.00132391
0.00132219
0.00143853
0.00133757
0.00148338
0.0012322
0.000964755
0.000736405
0.000416216
0.000466298
0.000686057
0.000692474
0.000933399
0.000846983
0.000932856
0.00102068
0.000843916
0.000912132
0.00111086
0.000799489
0.000738205
0.000764751
0.000738082
0.00104787
0.000838578
0.000882017
0.000717619
0.000474294
0.000405052
0.00038658
0.000178475
0.000120672
0.000296767
0.000344956
0.000342642
0.000316326
0.000325908
0.000498281
0.000297346
0.000619702
0.00021751
0.000302945
0.000553512
0.000302811
0.0005006
0.000268233
0.000148981
0.000174623
0.000264555
1.34503e-05
0.000999566
0.00195582
0.0026088
0.00326416
0.00338726
0.00334694
0.00315458
0.00299733
0.0029856
0.00287806
0.00277895
0.00287722
0.00294825
0.0025215
0.00234829
0.00184763
0.00146092
9.9453e-05
0.00111902
0.000128223
0.00080929
0.00187115
0.00224746
0.00269737
0.00279624
0.00295156
0.0026504
0.00247991
0.0026542
0.00257024
0.00230934
0.00248502
0.00245485
0.00235663
0.00219257
0.00189281
0.00116258
0.000184594
0.000940441
0.000163225
0.000612057
0.00154701
0.0018717
0.00237032
0.00234923
0.00222759
0.00240466
0.00226594
0.00204343
0.00203054
0.00199889
0.00202594
0.00214626
0.00192842
0.00184106
0.00151318
0.000860353
3.22387e-05
0.000673634
8.42222e-05
0.000559891
0.00132685
0.00166559
0.00198466
0.00196106
0.00187474
0.00195666
0.0017747
0.00185478
0.00168159
0.00171247
0.0016864
0.00175922
0.00157491
0.00164462
0.00144063
0.000589415
2.57262e-05
0.000529686
5.04492e-05
0.000547681
0.000890321
0.00114221
0.00152199
0.00161582
0.00146811
0.00159174
0.0013252
0.00165206
0.00122776
0.0014316
0.00132089
0.00148121
0.00134055
0.00104405
0.000989287
0.000614301
4.84486e-05
0.000538559
0.000214532
0.000278819
0.000729465
0.000930974
0.00113199
0.00106289
0.00122197
0.00108241
0.00108452
0.00106469
0.000947777
0.00104119
0.00106075
0.000911146
0.000943145
0.000865308
0.000734697
0.000465683
6.42915e-05
0.000205788
7.11271e-05
0.000105288
0.000607339
0.000585136
0.000701921
0.000851714
0.00055037
0.000784789
0.000493714
0.00059559
0.00080563
0.000697829
0.000531527
0.000717342
0.000463812
0.00057771
0.000391325
0.000364216
7.97476e-05
0.000105769
0.000262726
7.52685e-05
0.00024054
4.96577e-05
0.00014326
0.000170158
0.000368851
0.000153768
0.000257677
0.000277416
0.000204
0.000160926
0.000467593
0.00015249
0.000330674
9.45138e-06
0.000123783
9.70355e-05
4.1588e-05
0.000211974
0.00282501
0.00154638
0.000416956
0.00055136
0.00102853
0.00149564
0.00184619
0.00152048
0.00157983
0.00159944
0.00144849
0.00161211
0.00132703
0.00126296
0.000908371
0.000381778
0.000236271
0.0013716
0.0023473
0.00363292
0.00225916
0.00126629
0.00034235
0.000570257
0.00107915
0.00130036
0.00141783
0.00151617
0.00135141
0.0015612
0.00124158
0.00139444
0.00127548
0.00096718
0.000980572
0.000449072
0.000127616
0.000826017
0.00222486
0.00324259
0.00213918
0.00113315
0.000355308
0.000505593
0.000822739
0.00113942
0.0011575
0.00124122
0.00120402
0.00128529
0.00122426
0.00102989
0.00118838
0.000763951
0.000600184
0.00014092
9.88213e-05
0.000770479
0.00192062
0.00256687
0.00157897
0.000984418
3.63104e-05
0.00033417
0.00071844
0.000827439
0.00107796
0.00115243
0.00105467
0.000973498
0.00102765
0.00100431
0.00084986
0.00067011
0.000786148
0.000521667
7.78141e-05
0.000799987
0.00142018
0.00219828
0.00111197
0.000738
5.99374e-05
7.32399e-05
0.000637815
0.000746868
0.000861278
0.000885037
0.000813272
0.000852402
0.000770245
0.00075689
0.000604771
0.000628378
0.000663281
0.000129834
0.000135516
0.000340759
0.00121145
0.0018422
0.000947778
0.000439068
0.000102128
0.0002813
0.000435965
0.000479756
0.000521573
0.000704164
0.000595805
0.000628823
0.000562025
0.000687664
0.000459673
0.000491013
0.000448009
6.3872e-05
3.44343e-05
0.000265657
0.0006055
0.00120198
0.000618124
0.000355686
3.21991e-05
6.06336e-05
0.000335347
0.000396013
0.000372722
0.00029552
0.000297556
0.000379865
0.000523943
0.000339434
0.000360741
0.000370298
7.12241e-05
7.06276e-06
4.85192e-05
0.000198845
0.00037583
0.000841142
0.000148676
3.03327e-05
2.67749e-05
0.000271596
0.000109549
0.000109481
4.61117e-05
0.000140287
9.35288e-05
0.000168008
9.81278e-05
2.72053e-05
1.23767e-05
0.000264338
7.99367e-05
0.000115319
5.52797e-05
0.000143569
0.000139909
0.000115261
0.00575659
0.00431795
0.00307676
0.0021398
0.00139635
0.000834442
0.000484038
0.000451049
0.000307812
0.000350708
0.000263591
0.000351177
0.000644217
0.000970653
0.001411
0.00209685
0.00289448
0.00402364
0.00552519
0.007029
0.00492312
0.00397136
0.0027708
0.00186222
0.00122159
0.000566043
0.000561286
0.00035765
0.000172732
0.000165077
0.000253498
0.000492008
0.000340458
0.000550807
0.00126714
0.00181384
0.00239481
0.00330461
0.00474424
0.0056681
0.00442307
0.00324949
0.00218535
0.00150632
0.00101181
0.000532133
0.000326704
0.000328076
0.000221578
0.000176147
0.000170995
0.000374576
0.000485039
0.000521774
0.000811005
0.00138136
0.00199656
0.0028889
0.00387893
0.00499889
0.00327291
0.00279616
0.0019674
0.00127208
0.000828452
0.000390357
0.00044911
0.000224215
0.000216244
0.000354596
0.000233506
0.000258717
0.00037152
0.00049373
0.000870422
0.00118595
0.00167237
0.00247421
0.00343566
0.0041756
0.0028439
0.00207669
0.00149619
0.00093594
0.000579268
0.000208945
0.000339471
0.000218694
0.000157932
0.000289644
0.000310441
0.000120219
0.000452364
0.00039648
0.000684126
0.000762669
0.0011057
0.00192108
0.0025606
0.00313918
0.00201053
0.00153301
0.000998111
0.000700704
0.000354276
0.000329334
0.000173382
4.8945e-05
0.000198709
4.00996e-05
2.86026e-05
5.62488e-05
0.00040939
0.000484782
0.000428709
0.000754935
0.00087993
0.00137651
0.00192549
0.0022443
0.00120048
0.000959232
0.000769694
0.000349667
0.000240834
0.000231517
1.39673e-05
0.00013377
0.000139778
3.39928e-05
5.88157e-05
0.000290523
8.19916e-05
0.00024978
0.000146386
0.000455542
0.000582426
0.000649482
0.00124013
0.00136308
0.000392636
0.000172921
0.000383034
2.94907e-05
0.000308951
0.000151068
0.000133728
0.000171481
0.000109577
3.51906e-05
0.000115199
0.000253622
4.97849e-05
3.45626e-05
0.000129638
0.000305595
0.000214094
0.000371665
0.000601948
0.000531972
0.00944046
0.00789379
0.00637547
0.00515998
0.00424733
0.00375642
0.00334543
0.00318829
0.00304998
0.00279236
0.00291478
0.00306319
0.00329532
0.00365398
0.00430617
0.0050249
0.00597663
0.00740214
0.00911847
0.0104693
0.00826288
0.00677225
0.00569319
0.00439648
0.00380214
0.00315292
0.00283975
0.00260894
0.00240697
0.00243762
0.0025019
0.00248789
0.00275564