/*--------------------------------*- C++ -*----------------------------------*\
| =========                 |                                                 |
| \\      /  F ield         | OpenFOAM: The Open Source CFD Toolbox           |
|  \\    /   O peration     | Version:  2212                                  |
|   \\  /    A nd           | Website:  www.openfoam.com                      |
|    \\/     M anipulation  |                                                 |
\*---------------------------------------------------------------------------*/
FoamFile
{
    version     2.0;
    format      ascii;
    arch        "LSB;label=32;scalar=64";
    class       volScalarField;
    location    "./ITHACAoutput/true/10.8";
    object      trueState;
}
// * * * * * * * * * * * * * * * * * * * * * * * * * * * * * * * * * * * * * //

dimensions      [0 0 0 1 0 0 0];

internalField   nonuniform List<scalar> 
3200
(
327.463
327.888
328.43
329.021
329.63
330.228
330.779
331.245
331.584
331.763
331.763
331.584
331.245
330.779
330.228
329.63
329.021
328.43
327.888
327.463
323.92
324.28
324.748
325.259
325.786
326.303
326.78
327.182
327.475
327.63
327.63
327.475
327.182
326.78
326.303
325.786
325.259
324.748
324.28
323.92
320.328
320.626
321.02
321.452
321.898
322.334
322.737
323.077
323.324
323.454
323.454
323.324
323.077
322.737
322.334
321.898
321.452
321.02
320.626
320.328
316.693
316.933
317.254
317.607
317.971
318.328
318.657
318.934
319.136
319.242
319.242
319.136
318.934
318.657
318.328
317.971
317.607
317.254
316.933
316.693
313.023
313.207
313.456
313.731
314.014
314.291
314.546
314.762
314.918
315.001
315.001
314.918
314.762
314.546
314.291
314.014
313.731
313.456
313.207
313.023
309.326
309.456
309.634
309.83
310.032
310.23
310.412
310.566
310.678
310.737
310.737
310.678
310.566
310.412
310.23
310.032
309.83
309.634
309.456
309.326
305.61
305.687
305.794
305.912
306.033
306.152
306.261
306.353
306.42
306.456
306.456
306.42
306.353
306.261
306.152
306.033
305.912
305.794
305.687
305.61
301.882
301.908
301.943
301.983
302.023
302.063
302.1
302.131
302.153
302.165
302.165
302.153
302.131
302.1
302.063
302.023
301.983
301.943
301.908
301.882
327.549
327.971
328.508
329.094
329.697
330.288
330.833
331.293
331.628
331.804
331.804
331.628
331.293
330.833
330.288
329.697
329.094
328.508
327.971
327.549
323.996
324.352
324.816
325.323
325.844
326.356
326.827
327.224
327.514
327.666
327.666
327.514
327.224
326.827
326.356
325.844
325.323
324.816
324.352
323.996
320.392
320.688
321.078
321.506
321.947
322.379
322.777
323.113
323.356
323.485
323.485
323.356
323.113
322.777
322.379
321.947
321.506
321.078
320.688
320.392
316.745
316.983
317.302
317.652
318.012
318.365
318.69
318.964
319.163
319.268
319.268
319.163
318.964
318.69
318.365
318.012
317.652
317.302
316.983
316.745
313.064
313.247
313.494
313.765
314.046
314.32
314.572
314.785
314.94
315.021
315.021
314.94
314.785
314.572
314.32
314.046
313.765
313.494
313.247
313.064
309.355
309.485
309.661
309.855
310.055
310.251
310.431
310.583
310.693
310.751
310.751
310.693
310.583
310.431
310.251
310.055
309.855
309.661
309.485
309.355
305.627
305.704
305.81
305.927
306.047
306.164
306.272
306.364
306.43
306.465
306.465
306.43
306.364
306.272
306.164
306.047
305.927
305.81
305.704
305.627
301.888
301.913
301.949
301.988
302.028
302.067
302.104
302.134
302.156
302.168
302.168
302.156
302.134
302.104
302.067
302.028
301.988
301.949
301.913
301.888
327.722
328.137
328.666
329.241
329.831
330.409
330.942
331.391
331.717
331.889
331.889
331.717
331.391
330.942
330.409
329.831
329.241
328.666
328.137
327.722
324.146
324.498
324.953
325.451
325.962
326.462
326.923
327.31
327.592
327.741
327.741
327.592
327.31
326.923
326.462
325.962
325.451
324.953
324.498
324.146
320.52
320.811
321.195
321.615
322.047
322.47
322.859
323.186
323.424
323.549
323.549
323.424
323.186
322.859
322.47
322.047
321.615
321.195
320.811
320.52
316.85
317.085
317.398
317.741
318.094
318.44
318.757
319.025
319.219
319.321
319.321
319.219
319.025
318.757
318.44
318.094
317.741
317.398
317.085
316.85
313.146
313.326
313.569
313.835
314.11
314.378
314.625
314.833
314.983
315.063
315.063
314.983
314.833
314.625
314.378
314.11
313.835
313.569
313.326
313.146
309.414
309.541
309.714
309.905
310.101
310.293
310.469
310.617
310.725
310.781
310.781
310.725
310.617
310.469
310.293
310.101
309.905
309.714
309.541
309.414
305.662
305.739
305.842
305.957
306.074
306.19
306.295
306.384
306.449
306.483
306.483
306.449
306.384
306.295
306.19
306.074
305.957
305.842
305.739
305.662
301.899
301.925
301.96
301.998
302.037
302.076
302.111
302.141
302.163
302.174
302.174
302.163
302.141
302.111
302.076
302.037
301.998
301.96
301.925
301.899
327.983
328.388
328.904
329.463
330.036
330.596
331.11
331.542
331.856
332.022
332.022
331.856
331.542
331.11
330.596
330.036
329.463
328.904
328.388
327.983
324.373
324.716
325.161
325.645
326.141
326.625
327.07
327.444
327.715
327.858
327.858
327.715
327.444
327.07
326.625
326.141
325.645
325.161
324.716
324.373
320.713
320.997
321.372
321.78
322.2
322.609
322.985
323.3
323.529
323.65
323.65
323.529
323.3
322.985
322.609
322.2
321.78
321.372
320.997
320.713
317.009
317.238
317.543
317.877
318.22
318.554
318.861
319.119
319.306
319.404
319.404
319.306
319.119
318.861
318.554
318.22
317.877
317.543
317.238
317.009
313.269
313.445
313.682
313.941
314.208
314.468
314.706
314.907
315.052
315.128
315.128
315.052
314.907
314.706
314.468
314.208
313.941
313.682
313.445
313.269
309.502
309.627
309.796
309.981
310.171
310.357
310.527
310.67
310.774
310.828
310.828
310.774
310.67
310.527
310.357
310.171
309.981
309.796
309.627
309.502
305.716
305.79
305.891
306.003
306.117
306.228
306.33
306.416
306.478
306.511
306.511
306.478
306.416
306.33
306.228
306.117
306.003
305.891
305.79
305.716
301.917
301.942
301.976
302.013
302.052
302.089
302.123
302.152
302.173
302.184
302.184
302.173
302.152
302.123
302.089
302.052
302.013
301.976
301.942
301.917
328.333
328.726
329.224
329.763
330.314
330.85
331.342
331.754
332.053
332.21
332.21
332.053
331.754
331.342
330.85
330.314
329.763
329.224
328.726
328.333
324.678
325.01
325.44
325.907
326.384
326.848
327.273
327.63
327.888
328.024
328.024
327.888
327.63
327.273
326.848
326.384
325.907
325.44
325.01
324.678
320.971
321.247
321.609
322.004
322.407
322.799
323.158
323.459
323.677
323.792
323.792
323.677
323.459
323.158
322.799
322.407
322.004
321.609
321.247
320.971
317.221
317.443
317.738
318.06
318.39
318.711
319.004
319.25
319.428
319.522
319.522
319.428
319.25
319.004
318.711
318.39
318.06
317.738
317.443
317.221
313.435
313.605
313.834
314.085
314.341
314.59
314.818
315.009
315.148
315.22
315.22
315.148
315.009
314.818
314.59
314.341
314.085
313.834
313.605
313.435
309.621
309.742
309.905
310.084
310.267
310.445
310.608
310.744
310.843
310.894
310.894
310.843
310.744
310.608
310.445
310.267
310.084
309.905
309.742
309.621
305.787
305.859
305.957
306.064
306.174
306.281
306.379
306.461
306.52
306.551
306.551
306.52
306.461
306.379
306.281
306.174
306.064
305.957
305.859
305.787
301.941
301.965
301.998
302.034
302.071
302.107
302.139
302.167
302.187
302.197
302.197
302.187
302.167
302.139
302.107
302.071
302.034
301.998
301.965
301.941
328.773
329.151
329.629
330.145
330.67
331.179
331.644
332.033
332.314
332.462
332.462
332.314
332.033
331.644
331.179
330.67
330.145
329.629
329.151
328.773
325.061
325.381
325.794
326.24
326.694
327.135
327.538
327.874
328.117
328.245
328.245
328.117
327.874
327.538
327.135
326.694
326.24
325.794
325.381
325.061
321.297
321.562
321.91
322.287
322.671
323.044
323.384
323.668
323.873
323.981
323.981
323.873
323.668
323.384
323.044
322.671
322.287
321.91
321.562
321.297
317.488
317.702
317.985
318.294
318.608
318.913
319.19
319.422
319.59
319.678
319.678
319.59
319.422
319.19
318.913
318.608
318.294
317.985
317.702
317.488
313.643
313.808
314.027
314.267
314.511
314.748
314.964
315.144
315.275
315.343
315.343
315.275
315.144
314.964
314.748
314.511
314.267
314.027
313.808
313.643
309.77
309.886
310.043
310.214
310.389
310.558
310.712
310.841
310.934
310.983
310.983
310.934
310.841
310.712
310.558
310.389
310.214
310.043
309.886
309.77
305.877
305.946
306.04
306.143
306.248
306.349
306.442
306.519
306.575
306.604
306.604
306.575
306.519
306.442
306.349
306.248
306.143
306.04
305.946
305.877
301.971
301.995
302.026
302.06
302.096
302.13
302.161
302.187
302.205
302.215
302.215
302.205
302.187
302.161
302.13
302.096
302.06
302.026
301.995
301.971
329.305
329.667
330.122
330.612
331.108
331.587
332.024
332.387
332.649
332.786
332.786
332.649
332.387
332.024
331.587
331.108
330.612
330.122
329.667
329.305
325.525
325.831
326.224
326.647
327.077
327.492
327.869
328.184
328.41
328.529
328.529
328.41
328.184
327.869
327.492
327.077
326.647
326.224
325.831
325.525
321.691
321.945
322.276
322.634
322.997
323.348
323.667
323.933
324.124
324.224
324.224
324.124
323.933
323.667
323.348
322.997
322.634
322.276
321.945
321.691
317.812
318.016
318.286
318.579
318.876
319.163
319.423
319.64
319.797
319.879
319.879
319.797
319.64
319.423
319.163
318.876
318.579
318.286
318.016
317.812
313.896
314.053
314.262
314.49
314.721
314.944
315.146
315.315
315.436
315.5
315.5
315.436
315.315
315.146
314.944
314.721
314.49
314.262
314.053
313.896
309.951
310.062
310.211
310.374
310.539
310.698
310.843
310.963
311.05
311.095
311.095
311.05
310.963
310.843
310.698
310.539
310.374
310.211
310.062
309.951
305.986
306.052
306.141
306.239
306.338
306.434
306.521
306.593
306.645
306.672
306.672
306.645
306.593
306.521
306.434
306.338
306.239
306.141
306.052
305.986
302.008
302.03
302.06
302.093
302.126
302.158
302.187
302.211
302.229
302.238
302.238
302.229
302.211
302.187
302.158
302.126
302.093
302.06
302.03
302.008
329.932
330.275
330.707
331.168
331.633
332.081
332.486
332.823
333.065
333.192
333.192
333.065
332.823
332.486
332.081
331.633
331.168
330.707
330.275
329.932
326.07
326.361
326.733
327.132
327.535
327.923
328.274
328.565
328.775
328.884
328.884
328.775
328.565
328.274
327.923
327.535
327.132
326.733
326.361
326.07
322.155
322.396
322.709
323.047
323.387
323.715
324.012
324.258
324.435
324.528
324.528
324.435
324.258
324.012
323.715
323.387
323.047
322.709
322.396
322.155
318.192
318.386
318.642
318.918
319.197
319.465
319.707
319.909
320.053
320.129
320.129
320.053
319.909
319.707
319.465
319.197
318.918
318.642
318.386
318.192
314.193
314.342
314.54
314.754
314.971
315.18
315.368
315.525
315.637
315.696
315.696
315.637
315.525
315.368
315.18
314.971
314.754
314.54
314.342
314.193
310.164
310.269
310.41
310.564
310.718
310.867
311.002
311.114
311.194
311.236
311.236
311.194
311.114
311.002
310.867
310.718
310.564
310.41
310.269
310.164
306.113
306.176
306.261
306.353
306.446
306.536
306.616
306.683
306.732
306.757
306.757
306.732
306.683
306.616
306.536
306.446
306.353
306.261
306.176
306.113
302.051
302.072
302.1
302.131
302.162
302.192
302.219
302.242
302.258
302.266
302.266
302.258
302.242
302.219
302.192
302.162
302.131
302.1
302.072
302.051
330.655
330.979
331.385
331.817
332.25
332.665
333.04
333.349
333.571
333.687
333.687
333.571
333.349
333.04
332.665
332.25
331.817
331.385
330.979
330.655
326.7
326.974
327.324
327.698
328.074
328.433
328.757
329.025
329.217
329.318
329.318
329.217
329.025
328.757
328.433
328.074
327.698
327.324
326.974
326.7
322.689
322.917
323.212
323.528
323.846
324.15
324.424
324.65
324.812
324.897
324.897
324.812
324.65
324.424
324.15
323.846
323.528
323.212
322.917
322.689
318.632
318.815
319.055
319.314
319.574
319.822
320.046
320.231
320.364
320.433
320.433
320.364
320.231
320.046
319.822
319.574
319.314
319.055
318.815
318.632
314.535
314.676
314.862
315.063
315.265
315.459
315.633
315.777
315.88
315.934
315.934
315.88
315.777
315.633
315.459
315.265
315.063
314.862
314.676
314.535
310.409
310.508
310.641
310.785
310.929
311.067
311.192
311.295
311.368
311.407
311.407
311.368
311.295
311.192
311.067
310.929
310.785
310.641
310.508
310.409
306.261
306.32
306.4
306.486
306.573
306.656
306.731
306.792
306.837
306.86
306.86
306.837
306.792
306.731
306.656
306.573
306.486
306.4
306.32
306.261
302.1
302.12
302.147
302.176
302.205
302.233
302.258
302.278
302.293
302.301
302.301
302.293
302.278
302.258
302.233
302.205
302.176
302.147
302.12
302.1
331.476
331.78
332.16
332.562
332.964
333.346
333.689
333.972
334.174
334.279
334.279
334.174
333.972
333.689
333.346
332.964
332.562
332.16
331.78
331.476
327.415
327.673
328
328.348
328.696
329.028
329.325
329.569
329.744
329.836
329.836
329.744
329.569
329.325
329.028
328.696
328.348
328
327.673
327.415
323.297
323.511
323.787
324.081
324.375
324.655
324.907
325.114
325.262
325.339
325.339
325.262
325.114
324.907
324.655
324.375
324.081
323.787
323.511
323.297
319.13
319.302
319.527
319.768
320.009
320.238
320.444
320.613
320.734
320.797
320.797
320.734
320.613
320.444
320.238
320.009
319.768
319.527
319.302
319.13
314.924
315.056
315.231
315.418
315.605
315.784
315.944
316.075
316.169
316.218
316.218
316.169
316.075
315.944
315.784
315.605
315.418
315.231
315.056
314.924
310.687
310.781
310.905
311.039
311.173
311.3
311.414
311.508
311.575
311.61
311.61
311.575
311.508
311.414
311.3
311.173
311.039
310.905
310.781
310.687
306.429
306.484
306.559
306.639
306.72
306.796
306.865
306.921
306.961
306.982
306.982
306.961
306.921
306.865
306.796
306.72
306.639
306.559
306.484
306.429
302.156
302.175
302.2
302.227
302.254
302.28
302.303
302.321
302.335
302.342
302.342
302.335
302.321
302.303
302.28
302.254
302.227
302.2
302.175
302.156
332.397
332.682
333.035
333.407
333.777
334.128
334.441
334.698
334.88
334.976
334.976
334.88
334.698
334.441
334.128
333.777
333.407
333.035
332.682
332.397
328.217
328.458
328.763
329.085
329.406
329.71
329.981
330.203
330.361
330.444
330.444
330.361
330.203
329.981
329.71
329.406
329.085
328.763
328.458
328.217
323.978
324.178
324.435
324.708
324.979
325.236
325.465
325.653
325.787
325.857
325.857
325.787
325.653
325.465
325.236
324.979
324.708
324.435
324.178
323.978
319.69
319.851
320.06
320.283
320.505
320.715
320.903
321.057
321.166
321.223
321.223
321.166
321.057
320.903
320.715
320.505
320.283
320.06
319.851
319.69
315.361
315.484
315.647
315.82
315.993
316.156
316.302
316.422
316.507
316.551
316.551
316.507
316.422
316.302
316.156
315.993
315.82
315.647
315.484
315.361
311
311.087
311.203
311.327
311.45
311.567
311.671
311.757
311.818
311.849
311.849
311.818
311.757
311.671
311.567
311.45
311.327
311.203
311.087
311
306.616
306.669
306.738
306.813
306.887
306.957
307.019
307.071
307.107
307.126
307.126
307.107
307.071
307.019
306.957
306.887
306.813
306.738
306.669
306.616
302.219
302.237
302.26
302.285
302.31
302.333
302.354
302.372
302.384
302.39
302.39
302.384
302.372
302.354
302.333
302.31
302.285
302.26
302.237
302.219
333.419
333.685
334.012
334.356
334.695
335.015
335.299
335.531
335.696
335.781
335.781
335.696
335.531
335.299
335.015
334.695
334.356
334.012
333.685
333.419
329.107
329.332
329.614
329.912
330.206
330.483
330.729
330.93
331.073
331.147
331.147
331.073
330.93
330.729
330.483
330.206
329.912
329.614
329.332
329.107
324.735
324.921
325.159
325.411
325.659
325.894
326.102
326.272
326.393
326.456
326.456
326.393
326.272
326.102
325.894
325.659
325.411
325.159
324.921
324.735
320.311
320.461
320.655
320.861
321.064
321.256
321.427
321.566
321.664
321.716
321.716
321.664
321.566
321.427
321.256
321.064
320.861
320.655
320.461
320.311
315.845
315.96
316.111
316.271
316.429
316.578
316.711
316.819
316.896
316.936
316.936
316.896
316.819
316.711
316.578
316.429
316.271
316.111
315.96
315.845
311.347
311.428
311.536
311.65
311.763
311.87
311.964
312.042
312.097
312.125
312.125
312.097
312.042
311.964
311.87
311.763
311.65
311.536
311.428
311.347
306.825
306.874
306.938
307.007
307.075
307.139
307.196
307.242
307.275
307.292
307.292
307.275
307.242
307.196
307.139
307.075
307.007
306.938
306.874
306.825
302.289
302.306
302.327
302.35
302.373
302.395
302.414
302.429
302.44
302.446
302.446
302.44
302.429
302.414
302.395
302.373
302.35
302.327
302.306
302.289
334.545
334.791
335.094
335.409
335.719
336.009
336.266
336.475
336.623
336.7
336.7
336.623
336.475
336.266
336.009
335.719
335.409
335.094
334.791
334.545
330.087
330.296
330.557
330.83
331.098
331.35
331.573
331.754
331.882
331.949
331.949
331.882
331.754
331.573
331.35
331.098
330.83
330.557
330.296
330.087
325.567
325.74
325.96
326.191
326.418
326.632
326.82
326.973
327.082
327.138
327.138
327.082
326.973
326.82
326.632
326.418
326.191
325.96
325.74
325.567
320.994
321.133
321.313
321.502
321.688
321.862
322.016
322.142
322.231
322.276
322.276
322.231
322.142
322.016
321.862
321.688
321.502
321.313
321.133
320.994
316.378
316.485
316.624
316.771
316.916
317.052
317.172
317.269
317.338
317.374
317.374
317.338
317.269
317.172
317.052
316.916
316.771
316.624
316.485
316.378
311.729
311.804
311.903
312.008
312.112
312.209
312.294
312.364
312.413
312.439
312.439
312.413
312.364
312.294
312.209
312.112
312.008
311.903
311.804
311.729
307.055
307.1
307.159
307.222
307.285
307.343
307.394
307.436
307.466
307.481
307.481
307.466
307.436
307.394
307.343
307.285
307.222
307.159
307.1
307.055
302.366
302.382
302.401
302.423
302.443
302.463
302.48
302.494
302.504
302.509
302.509
302.504
302.494
302.48
302.463
302.443
302.423
302.401
302.382
302.366
335.774
336.001
336.28
336.569
336.851
337.114
337.346
337.533
337.666
337.734
337.734
337.666
337.533
337.346
337.114
336.851
336.569
336.28
336.001
335.774
331.157
331.35
331.59
331.84
332.085
332.313
332.514
332.676
332.791
332.85
332.85
332.791
332.676
332.514
332.313
332.085
331.84
331.59
331.35
331.157
326.476
326.636
326.838
327.05
327.257
327.45
327.62
327.758
327.855
327.905
327.905
327.855
327.758
327.62
327.45
327.257
327.05
326.838
326.636
326.476
321.74
321.869
322.034
322.207
322.377
322.535
322.674
322.786
322.866
322.907
322.907
322.866
322.786
322.674
322.535
322.377
322.207
322.034
321.869
321.74
316.96
317.059
317.187
317.322
317.453
317.576
317.685
317.772
317.834
317.866
317.866
317.834
317.772
317.685
317.576
317.453
317.322
317.187
317.059
316.96
312.145
312.215
312.306
312.402
312.497
312.585
312.662
312.725
312.769
312.792
312.792
312.769
312.725
312.662
312.585
312.497
312.402
312.306
312.215
312.145
307.305
307.347
307.402
307.459
307.516
307.569
307.615
307.653
307.679
307.693
307.693
307.679
307.653
307.615
307.569
307.516
307.459
307.402
307.347
307.305
302.451
302.464
302.483
302.502
302.521
302.539
302.554
302.567
302.576
302.58
302.58
302.576
302.567
302.554
302.539
302.521
302.502
302.483
302.464
302.451
337.104
337.314
337.57
337.833
338.09
338.328
338.536
338.704
338.822
338.883
338.883
338.822
338.704
338.536
338.328
338.09
337.833
337.57
337.314
337.104
332.315
332.492
332.713
332.942
333.164
333.37
333.551
333.696
333.799
333.852
333.852
333.799
333.696
333.551
333.37
333.164
332.942
332.713
332.492
332.315
327.459
327.606
327.792
327.986
328.174
328.348
328.501
328.625
328.711
328.756
328.756
328.711
328.625
328.501
328.348
328.174
327.986
327.792
327.606
327.459
322.547
322.666
322.817
322.975
323.129
323.272
323.398
323.499
323.57
323.606
323.606
323.57
323.499
323.398
323.272
323.129
322.975
322.817
322.666
322.547
317.589
317.68
317.798
317.921
318.041
318.152
318.249
318.328
318.383
318.412
318.412
318.383
318.328
318.249
318.152
318.041
317.921
317.798
317.68
317.589
312.595
312.66
312.744
312.832
312.917
312.997
313.066
313.122
313.162
313.182
313.182
313.162
313.122
313.066
312.997
312.917
312.832
312.744
312.66
312.595
307.576
307.615
307.665
307.718
307.769
307.817
307.859
307.892
307.916
307.928
307.928
307.916
307.892
307.859
307.817
307.769
307.718
307.665
307.615
307.576
302.541
302.554
302.571
302.589
302.606
302.622
302.636
302.647
302.655
302.659
302.659
302.655
302.647
302.636
302.622
302.606
302.589
302.571
302.554
302.541
338.53
338.723
338.958
339.198
339.43
339.645
339.832
339.983
340.088
340.143
340.143
340.088
339.983
339.832
339.645
339.43
339.198
338.958
338.723
338.53
333.555
333.718
333.92
334.129
334.33
334.517
334.679
334.809
334.901
334.948
334.948
334.901
334.809
334.679
334.517
334.33
334.129
333.92
333.718
333.555
328.511
328.647
328.817
328.993
329.164
329.322
329.459
329.57
329.647
329.687
329.687
329.647
329.57
329.459
329.322
329.164
328.993
328.817
328.647
328.511
323.41
323.519
323.658
323.802
323.942
324.071
324.184
324.274
324.337
324.37
324.37
324.337
324.274
324.184
324.071
323.942
323.802
323.658
323.519
323.41
318.262
318.345
318.453
318.565
318.674
318.775
318.862
318.933
318.982
319.007
319.007
318.982
318.933
318.862
318.775
318.674
318.565
318.453
318.345
318.262
313.077
313.136
313.213
313.293
313.371
313.442
313.505
313.555
313.591
313.609
313.609
313.591
313.555
313.505
313.442
313.371
313.293
313.213
313.136
313.077
307.865
307.901
307.947
307.995
308.042
308.085
308.122
308.153
308.174
308.185
308.185
308.174
308.153
308.122
308.085
308.042
307.995
307.947
307.901
307.865
302.638
302.65
302.666
302.682
302.697
302.712
302.724
302.735
302.742
302.745
302.745
302.742
302.735
302.724
302.712
302.697
302.682
302.666
302.65
302.638
340.035
340.213
340.428
340.647
340.857
341.051
341.219
341.354
341.448
341.496
341.496
341.448
341.354
341.219
341.051
340.857
340.647
340.428
340.213
340.035
334.861
335.012
335.197
335.386
335.569
335.737
335.883
336
336.082
336.124
336.124
336.082
336
335.883
335.737
335.569
335.386
335.197
335.012
334.861
329.618
329.743
329.899
330.059
330.214
330.356
330.48
330.579
330.648
330.684
330.684
330.648
330.579
330.48
330.356
330.214
330.059
329.899
329.743
329.618
324.316
324.417
324.544
324.675
324.802
324.919
325.02
325.101
325.157
325.187
325.187
325.157
325.101
325.02
324.919
324.802
324.675
324.544
324.417
324.316
318.967
319.044
319.143
319.245
319.344
319.434
319.513
319.576
319.62
319.643
319.643
319.62
319.576
319.513
319.434
319.344
319.245
319.143
319.044
318.967
313.581
313.635
313.706
313.779
313.849
313.914
313.971
314.016
314.047
314.063
314.063
314.047
314.016
313.971
313.914
313.849
313.779
313.706
313.635
313.581
308.168
308.201
308.243
308.287
308.329
308.368
308.402
308.429
308.448
308.458
308.458
308.448
308.429
308.402
308.368
308.329
308.287
308.243
308.201
308.168
302.74
302.751
302.765
302.78
302.794
302.807
302.818
302.827
302.834
302.837
302.837
302.834
302.827
302.818
302.807
302.794
302.78
302.765
302.751
302.74
341.579
341.743
341.939
342.139
342.33
342.505
342.657
342.777
342.862
342.905
342.905
342.862
342.777
342.657
342.505
342.33
342.139
341.939
341.743
341.579
336.195
336.333
336.503
336.676
336.842
336.994
337.125
337.23
337.303
337.341
337.341
337.303
337.23
337.125
336.994
336.842
336.676
336.503
336.333
336.195
330.743
330.857
331.001
331.147
331.288
331.417
331.528
331.617
331.679
331.711
331.711
331.679
331.617
331.528
331.417
331.288
331.147
331.001
330.857
330.743
325.234
325.326
325.443
325.563
325.678
325.784
325.875
325.948
325.999
326.025
326.025
325.999
325.948
325.875
325.784
325.678
325.563
325.443
325.326
325.234
319.679
319.75
319.841
319.934
320.024
320.106
320.177
320.234
320.273
320.294
320.294
320.273
320.234
320.177
320.106
320.024
319.934
319.841
319.75
319.679
314.089
314.139
314.204
314.27
314.335
314.393
314.444
314.485
314.513
314.528
314.528
314.513
314.485
314.444
314.393
314.335
314.27
314.204
314.139
314.089
308.473
308.503
308.542
308.582
308.62
308.656
308.686
308.711
308.728
308.736
308.736
308.728
308.711
308.686
308.656
308.62
308.582
308.542
308.503
308.473
302.842
302.852
302.865
302.878
302.891
302.903
302.913
302.922
302.927
302.93
302.93
302.927
302.922
302.913
302.903
302.891
302.878
302.865
302.852
302.842
343.059
343.21
343.391
343.574
343.75
343.909
344.046
344.156
344.232
344.271
344.271
344.232
344.156
344.046
343.909
343.75
343.574
343.391
343.21
343.059
337.457
337.585
337.742
337.901
338.053
338.192
338.311
338.406
338.473
338.507
338.507
338.473
338.406
338.311
338.192
338.053
337.901
337.742
337.585
337.457
331.796
331.902
332.034
332.17
332.299
332.416
332.518
332.598
332.655
332.683
332.683
332.655
332.598
332.518
332.416
332.299
332.17
332.034
331.902
331.796
326.086
326.171
326.279
326.39
326.496
326.592
326.675
326.742
326.788
326.811
326.811
326.788
326.742
326.675
326.592
326.496
326.39
326.279
326.171
326.086
320.335
320.401
320.485
320.571
320.654
320.729
320.794
320.845
320.881
320.899
320.899
320.881
320.845
320.794
320.729
320.654
320.571
320.485
320.401
320.335
314.554
314.601
314.66
314.722
314.781
314.835
314.881
314.918
314.944
314.957
314.957
314.944
314.918
314.881
314.835
314.781
314.722
314.66
314.601
314.554
308.751
308.779
308.815
308.852
308.887
308.92
308.948
308.97
308.985
308.993
308.993
308.985
308.97
308.948
308.92
308.887
308.852
308.815
308.779
308.751
302.935
302.944
302.956
302.969
302.981
302.991
303.001
303.008
303.013
303.016
303.016
303.013
303.008
303.001
302.991
302.981
302.969
302.956
302.944
302.935
344.211
344.353
344.523
344.696
344.859
345.008
345.136
345.238
345.308
345.344
345.344
345.308
345.238
345.136
345.008
344.859
344.696
344.523
344.353
344.211
338.403
338.524
338.672
338.822
338.964
339.094
339.206
339.294
339.356
339.388
339.388
339.356
339.294
339.206
339.094
338.964
338.822
338.672
338.524
338.403
332.561
332.662
332.787
332.914
333.036
333.146
333.241
333.317
333.369
333.396
333.396
333.369
333.317
333.241
333.146
333.036
332.914
332.787
332.662
332.561
326.689
326.77
326.873
326.977
327.077
327.168
327.246
327.308
327.351
327.373
327.373
327.351
327.308
327.246
327.168
327.077
326.977
326.873
326.77
326.689
320.792
320.854
320.934
321.015
321.093
321.164
321.225
321.273
321.307
321.324
321.324
321.307
321.273
321.225
321.164
321.093
321.015
320.934
320.854
320.792
314.873
314.918
314.974
315.033
315.089
315.139
315.183
315.218
315.242
315.254
315.254
315.242
315.218
315.183
315.139
315.089
315.033
314.974
314.918
314.873
308.94
308.967
309.001
309.036
309.069
309.1
309.126
309.147
309.162
309.169
309.169
309.162
309.147
309.126
309.1
309.069
309.036
309.001
308.967
308.94
302.998
303.007
303.018
303.03
303.041
303.051
303.06
303.067
303.072
303.075
303.075
303.072
303.067
303.06
303.051
303.041
303.03
303.018
303.007
302.998
)
;

boundaryField
{
    hotSide
    {
        type            fixedGradient;
        gradient        nonuniform List<scalar> 
400
(
278.768
279.647
281.409
284.064
287.623
292.102
297.521
303.897
311.252
319.606
328.979
339.39
350.855
363.39
377.008
391.72
407.538
424.467
442.515
461.685
284.359
285.193
286.869
289.396
292.793
297.081
302.282
308.423
315.529
323.627
332.742
342.896
354.111
366.403
379.789
394.282
409.892
426.627
444.495
463.499
290.409
291.191
292.762
295.14
298.345
302.406
307.353
313.22
320.04
327.846
336.667
346.533
357.468
369.492
382.623
396.877
412.264
428.792
446.469
465.297
296.818
297.538
298.99
301.193
304.177
307.978
312.636
318.193
324.691
332.17
340.668
350.218
360.849
372.585
385.445
399.446
414.598
430.912
448.391
467.041
303.408
304.059
305.375
307.383
310.121
313.634
317.974
323.192
329.341
336.47
344.622
353.839
364.151
375.588
388.169
401.912
416.828
432.925
450.208
468.68
309.903
310.48
311.652
313.452
315.929
319.139
323.144
328.01
333.799
340.568
348.371
357.251
367.246
378.386
390.694
404.185
418.873
434.763
451.859
470.163
315.932
316.435
317.462
319.057
321.275
324.186
327.865
332.388
337.829
344.255
351.725
360.288
369.987
380.852
392.907
406.169
420.649
436.352
453.281
471.435
321.049
321.485
322.383
323.792
325.778
328.423
331.813
336.035
341.172
347.299
354.481
362.774
372.219
382.851
394.695
407.765
422.072
437.621
454.413
472.444
324.793
325.178
325.977
327.244
329.055
331.498
334.67
338.665
343.574
349.479
356.449
364.541
373.801
384.264
395.953
408.885
423.068
438.507
455.2
473.145
326.777
327.135
327.879
329.07
330.785
333.119
336.172
340.045
344.832
350.618
357.474
365.461
374.623
384.996
396.604
409.463
423.581
438.962
455.605
473.505
326.777
327.135
327.879
329.07
330.785
333.119
336.172
340.045
344.832
350.618
357.474
365.461
374.623
384.996
396.604
409.463
423.581
438.962
455.605
473.505
324.793
325.178
325.977
327.244
329.055
331.498
334.67
338.665
343.574
349.479
356.449
364.541
373.801
384.264
395.953
408.885
423.068
438.507
455.2
473.145
321.049
321.485
322.383
323.792
325.778
328.423
331.813
336.035
341.172
347.299
354.481
362.774
372.219
382.851
394.695
407.765
422.072
437.621
454.413
472.444
315.932
316.435
317.462
319.057
321.275
324.186
327.865
332.388
337.829
344.255
351.725
360.288
369.987
380.852
392.907
406.169
420.649
436.352
453.281
471.435
309.903
310.48
311.652
313.452
315.929
319.139
323.144
328.01
333.799
340.568
348.371
357.251
367.246
378.386
390.694
404.185
418.873
434.763
451.859
470.163
303.408
304.059
305.375
307.383
310.121
313.634
317.974
323.192
329.341
336.47
344.622
353.839
364.151
375.588
388.169
401.912
416.828
432.925
450.208
468.68
296.818
297.538
298.99
301.193
304.177
307.978
312.636
318.193
324.691
332.17
340.668
350.218
360.849
372.585
385.445
399.446
414.598
430.912
448.391
467.041
290.409
291.191
292.762
295.14
298.345
302.406
307.353
313.22
320.04
327.846
336.667
346.533
357.468
369.492
382.623
396.877
412.264
428.792
446.469
465.297
284.359
285.193
286.869
289.396
292.793
297.081
302.282
308.423
315.529
323.627
332.742
342.896
354.111
366.403
379.789
394.282
409.892
426.627
444.495
463.499
278.768
279.647
281.409
284.064
287.623
292.102
297.521
303.897
311.252
319.606
328.979
339.39
350.855
363.39
377.008
391.72
407.538
424.467
442.515
461.685
)
;
    }
    coldSide
    {
        type            mixed;
        refValue        uniform 300;
        refGradient     uniform 0;
        valueFraction   uniform 0.991591;
        source          uniform 0;
        value           nonuniform List<scalar> 
400
(
300.016
300.016
300.016
300.016
300.016
300.017
300.017
300.017
300.018
300.018
300.019
300.019
300.02
300.021
300.021
300.022
300.023
300.024
300.025
300.025
300.016
300.016
300.016
300.016
300.017
300.017
300.017
300.017
300.018
300.018
300.019
300.019
300.02
300.021