/*--------------------------------*- C++ -*----------------------------------*\
| =========                 |                                                 |
| \\      /  F ield         | OpenFOAM: The Open Source CFD Toolbox           |
|  \\    /   O peration     | Version:  2212                                  |
|   \\  /    A nd           | Website:  www.openfoam.com                      |
|    \\/     M anipulation  |                                                 |
\*---------------------------------------------------------------------------*/
FoamFile
{
    version     2.0;
    format      ascii;
    arch        "LSB;label=32;scalar=64";
    class       volScalarField;
    location    "0";
    object      relativeErrorField;
}
// * * * * * * * * * * * * * * * * * * * * * * * * * * * * * * * * * * * * * //

dimensions      [0 0 0 1 0 0 0];

internalField   nonuniform List<scalar> 
3200
(
0.0045574
0.00517013
0.00553749
0.00628666
0.00740148
0.00834318
0.00958502
0.0106671
0.0112762
0.0118818
0.0123057
0.0121659
0.011592
0.0109494
0.0101055
0.00936352
0.00882461
0.00824063
0.00794693
0.00789398
0.00415799
0.00452331
0.00500737
0.00567475
0.00638243
0.0072681
0.00853204
0.00930823
0.0100059
0.0106011
0.0107607
0.0107219
0.0103318
0.00968207
0.0089691
0.00816198
0.00763246
0.00729819
0.0070347
0.00695908
0.00365748
0.00391507
0.00410803
0.00471952
0.00567765
0.00629131
0.00715296
0.00801317
0.00866202
0.00898433
0.00914871
0.00905467
0.00893184
0.00823895
0.00790689
0.00699731
0.00653001
0.00608873
0.005846
0.0059453
0.00303699
0.00330592
0.00354085
0.00378959
0.00447488
0.00538648
0.00584773
0.00656705
0.00729207
0.00740935
0.00748319
0.00747521
0.00710469
0.00671992
0.00636341
0.00587402
0.00566883
0.00516375
0.00504914
0.00498537
0.00229861
0.00241831
0.0029946
0.00332901
0.00360174
0.00418457
0.00501957
0.00515758
0.00573771
0.00579404
0.00585143
0.0057415
0.00581706
0.00527343
0.00504511
0.00457658
0.00421307
0.00381712
0.00392326
0.00366341
0.00169383
0.00179903
0.00194765
0.00212308
0.00265659
0.00309095
0.00331527
0.003807
0.00394384
0.0041107
0.00445206
0.00415349
0.0040175
0.00382484
0.00352233
0.0033417
0.00305672
0.00306499
0.0028196
0.00281258
0.00110625
0.00116321
0.00124847
0.00146656
0.00163253
0.00191255
0.00192609
0.00238322
0.00263701
0.00280837
0.00268814
0.00267249
0.00262548
0.00230936
0.00209813
0.0020222
0.00171099
0.00192907
0.00164439
0.00182171
0.000306723
0.000588931
0.000478528
0.000500593
0.000447507
0.00069937
0.000754322
0.000562207
0.00102611
0.000851055
0.000673944
0.00090131
0.00084887
0.00088799
0.000904917
0.000833003
0.000461904
0.000428255
0.000595103
0.000774779
0.00276674
0.00307208
0.00323307
0.00406948
0.00485581
0.00610276
0.00712662
0.00805859
0.0091866
0.00966132
0.00988992
0.00969481
0.00928484
0.00844795
0.0077056
0.00704421
0.006345
0.00602462
0.00571736
0.00595162
0.00243636
0.00277346
0.00313058
0.00378392
0.00454872
0.00537556
0.00644194
0.0073999
0.00840359
0.00870322
0.00878152
0.00852656
0.0082574
0.00773677
0.0070919
0.00621319
0.00560367
0.00560105
0.00507651
0.00514339
0.00242949
0.0024253
0.00260648
0.00316139
0.00387735
0.00480293
0.00569613
0.00622483
0.00690291
0.00748234
0.00748747
0.00747176
0.00703352
0.00668126
0.00596871
0.00565469
0.00514293
0.00466398
0.00449372
0.00474851
0.0019945
0.00228917
0.00229161
0.00282738
0.00328201
0.00383506
0.00453465
0.0055089
0.00570125
0.00626644
0.0061023
0.00600126
0.00601008
0.00539464
0.00509641
0.00458562
0.00404096
0.00405671
0.00394395
0.00375192
0.00175571
0.00183617
0.00199916
0.00209516
0.00262382
0.00312024
0.00360593
0.0041467
0.00465174
0.00488548
0.00508918
0.00494782
0.00475021
0.00427738
0.0039602
0.00344985
0.00324262
0.00342851
0.00316998
0.00301686
0.00111376
0.00125424
0.0011442
0.00158963
0.00209291
0.00242924
0.00254301
0.00294962
0.00341927
0.0036511
0.00353888
0.00344593
0.00331745
0.00335453
0.00310281
0.00260678
0.00232884
0.00212208
0.00214044
0.00230613
0.00050813
0.00052436
0.000749117
0.0010645
0.00119367
0.00137971
0.00156251
0.0018553
0.001901
0.00202895
0.00244544
0.00207003
0.00213448
0.00201841
0.00182703
0.00155582
0.00156011
0.00136758
0.00146047
0.00127296
0.000418575
0.000404184
0.000388893
0.000339255
0.000457762
0.000333427
0.000632968
0.000794532
0.000572889
0.00090935
0.00087845
0.000645473
0.000821542
0.000716152
0.00055623
0.000575154
0.000715756
0.000429287
0.00039391
0.000629307
3.20147e-05
0.000385681
0.000567585
0.00121776
0.00206302
0.00318021
0.00399261
0.00510176
0.00605415
0.00647228
0.00661519
0.00633027
0.00614506
0.00570689
0.00460717
0.00411547
0.00397615
0.00330119
0.00346179
0.00331184
0.000594352
0.000550501
0.000963366
0.00127744
0.00212295
0.00305339
0.00376782
0.00454506
0.00537718
0.00560521
0.00594962
0.00555219
0.00575521
0.00492333
0.00433345
0.00364488
0.00339281
0.00323486
0.00313562
0.00308064
0.000507604
0.000393622
0.000832304
0.00139843
0.00174218
0.00265975
0.00321841
0.00425953
0.0047387
0.0049643
0.00529062
0.00513181
0.00471524
0.00437294
0.00386556
0.00328494
0.00310526
0.00261009
0.00276873
0.00278572
0.000343391
0.000575882
0.00070722
0.00110497
0.00161544
0.00232442
0.00294755
0.00340962
0.00396483
0.00426205
0.00443059
0.00450538
0.00414541
0.00369015
0.00326202
0.00293696
0.00264308
0.0023981
0.00218569
0.0024694
0.000322473
0.000230391
0.000683233
0.00103231
0.00153306
0.00188254
0.00225464
0.00274182
0.0034433
0.0033296
0.00350908
0.00349036
0.00300576
0.00279441
0.00270614
0.00224664
0.00207157
0.00218173
0.00172192
0.00172055
0.00026824
0.00046731
0.000751035
0.000656892
0.00111347
0.00150607
0.00122392
0.00196711
0.00228179
0.00252806
0.00261148
0.00269643
0.0022173
0.00219428
0.0019159
0.00186675
0.00147559
0.0014357
0.00152284
0.00136969
0.000108398
0.000108959
0.000225447
0.000340318
0.000737768
0.000960753
0.00110231
0.00134515
0.00161545
0.0013029
0.00162934
0.00153492
0.00171442
0.0011814
0.00127742
0.00107022
0.000937992
0.000808451
0.000625587
0.000874745
3.02718e-05
8.48462e-05
0.000129905
0.000197903
0.000148926
0.000330123
0.000368037
0.000491885
0.000416809
0.000735722
0.000569611
0.000639994
0.000680724
0.000685922
0.000507194
0.000412726
0.000156998
0.000178648
0.000247741
0.000393617
0.00254086
0.00245314
0.00220289
0.001424
0.000832444
8.60922e-05
0.000790348
0.0018057
0.00264131
0.00299317
0.00336458
0.00309617
0.00284227
0.00233598
0.0015204
0.000940334
0.000583794
0.000332112
0.00028274
0.00058635
0.00195032
0.00201633
0.00170835
0.00101232
0.000514605
0.000143059
0.00104347
0.00192246
0.00237127
0.00279475
0.00314649
0.0027808
0.00247781
0.00218197
0.00160539
0.00115943
0.000802238
0.000388404
0.000600053
0.000856907
0.0013619
0.00133881
0.00113516
0.000896011
0.000323166
0.000439262
0.00113178
0.00162933
0.00226331
0.00256101
0.00266945
0.00263525
0.00234004
0.00209346
0.00147026
0.00127602
0.000632109
0.0007533
0.000526896
0.00083336
0.00103699
0.00121145
0.000973695
0.000541856
0.000217764
0.000422075
0.000708586
0.00126484
0.00180943
0.00200611
0.00247008
0.0022935
0.00189965
0.00156059
0.0013497
0.00104082
0.000559498
0.000433854
0.000668189
0.000788579
0.000651348
0.000709188
0.000720765
0.000575457
8.68868e-06
0.000519573
0.000708095
0.00112249
0.00154855
0.00177513
0.00195645
0.0018882
0.00174642
0.00132535
0.00127254
0.000986455
0.000917836
0.00073234
0.000772089
0.000828738
0.000507647
0.000476779
0.000474281
8.18182e-05
2.38822e-05
0.000400943
0.000657676
0.00104067
0.00126646
0.00114949
0.00125317
0.00160514
0.00150734
0.00120406
0.000789223
0.000709865
0.000640333
0.000258452
0.000438833
0.000510458
0.000547421
0.000187694
9.96533e-05
0.000261496
1.07958e-05
0.000151586
0.000422544
0.000592591
0.000652117
0.00066274
0.000847713
0.000887987
0.000743333
0.000781839
0.000565997
0.0005431
0.000345367
0.000381503
0.000202778
0.00057344
1.97671e-05
4.31304e-06
0.000133579
0.000147688
0.000105255
0.00040595
1.54758e-05
0.000304608
0.000210075
0.000315043
0.000342527
0.000490006
0.00026484
0.000272709
0.000156449
3.55905e-06
0.000117466
0.000105592
4.06616e-05
0.000260685
0.00480149
0.00478716
0.00501053
0.00437299
0.00379711
0.0029816
0.00215736
0.00151436
0.000528801
0.000212244
0.000146458
2.01856e-05
0.00032061
0.000980179
0.00146165
0.00221121
0.00221105
0.00239482
0.002166
0.00174418
0.00387859
0.00411295
0.00382319
0.00366615
0.00321425
0.00249437
0.00172814
0.00125196
0.000536469
3.5382e-05
0.000146702
0.000197762
0.000299021
0.000401443
0.0013289
0.00144419
0.00183664
0.00185559
0.00171008
0.00164318
0.00311011
0.00313037
0.00319017
0.00312323
0.00254502
0.00206218
0.00137317
0.000521427
0.000311688
7.2613e-05
0.00036406
0.000151944
2.51272e-05
0.00029966
0.000731412
0.00123035
0.00129602
0.00141006
0.00112289
0.00105051
0.00251019
0.00267099
0.00248024
0.0022101
0.00195811
0.0013755
0.000930886
0.00048624
1.80682e-05
8.43925e-05
0.000378782
0.000251501
3.58499e-05
0.000319819
0.000580837
0.000716617
0.000935876
0.000850477
0.000818729
0.000754943
0.00187235
0.00188537
0.00205756
0.00172761
0.00119037
0.00125486
0.000594125
0.000227278
8.28226e-05
0.000210346
0.000257487
0.000228551
8.87929e-06
4.39417e-05
0.000415131
0.000619001
0.000710958
0.000679742
0.000761591
0.000531372
0.00150967
0.00159082
0.0014833
0.00109689
0.00111635
0.00091702
0.000331627
0.000357978
0.000142451
8.53458e-05
0.000246805
0.000273718
5.71377e-05
2.10651e-05
0.000139107
0.000414709
0.000552263
0.000417463
0.000333623
0.000369917
0.0010267
0.000866243
0.000947558
0.000758551
0.000759361
0.000352408
0.000412308
0.000203932
4.6731e-05
1.82265e-05
0.000425154
9.60377e-05
0.000260793
4.94147e-05
5.40832e-05
0.000214585
0.000237903
0.000434655
0.000187106
6.76944e-05
0.000213367
0.000333222
8.51102e-05
0.00010183
0.000303216
0.000354669
0.000106739
0.000128965
4.88695e-05
1.83326e-05
3.25076e-05
2.88274e-05
0.000208115
0.000234074
5.47188e-05
1.25822e-05
0.000233693
7.60359e-06
0.000136375
5.74497e-05
0.00690964
0.0073485
0.0075487
0.007154
0.00665938
0.00602882
0.00512677
0.00476944
0.00373097
0.0035221
0.00314142
0.00344405
0.00336949
0.00390976
0.00433071
0.00468393
0.00481288
0.00497667
0.00452465
0.00407781
0.00565256
0.00622606
0.00610336
0.0057157
0.00555306
0.00488399
0.00445316
0.00395744
0.00342963
0.00298522
0.00272723
0.00285742
0.00295139
0.00314803
0.00360695
0.00371106
0.00393095
0.00399847
0.00367848
0.00313741
0.00509774
0.00489186
0.00522689
0.00507261
0.00470556
0.00395871
0.00344079
0.00324579
0.00275655
0.00223218
0.00205691
0.00242328
0.00235642
0.00254381
0.00301903
0.00311275
0.00326841
0.0031226
0.002927
0.00275178
0.00390696
0.00403439
0.00398793
0.00395424
0.00366127
0.00331378
0.00277045
0.00243447
0.00205348
0.00201415
0.00180619
0.00186417
0.00201065
0.00193974
0.00232371
0.0025564
0.0024556
0.00251936
0.00238324
0.00222966
0.00294647
0.00304897
0.00328821
0.00293424
0.00278972
0.00236885
0.00214408
0.00176846
0.00149187
0.00135021
0.00139546
0.00138084
0.00121571
0.00154342
0.00170178
0.00181946
0.00188189
0.00180184
0.00199558
0.00180659
0.00194619
0.00213429
0.00241615
0.00222987
0.00188345
0.00167447
0.00147654
0.00120253
0.00115486
0.000878299
0.000882034
0.00089841
0.000892721
0.00124416
0.00131753
0.0012336
0.00134906
0.00136993
0.00131276
0.00106612
0.00134943
0.00120689
0.00120887
0.001286
0.00117593
0.00115128
0.000755595
0.000665901
0.000826197
0.000556791
0.000639253
0.000866675
0.000486428
0.000530693
0.000758253
0.000791809
0.000840849
0.000838284
0.000511961
0.000594776
0.000379796
0.000350803
0.000203341
0.000406498
0.000394358
0.000209168
0.000276382
0.000236707
0.000364322
0.00030893
5.05867e-05
0.000196785
0.000186148
9.5314e-05
0.000135197
0.000356248
0.000260164
0.000182171
0.000137383
7.941e-05
0.00882763
0.00909063
0.00954606
0.00933551
0.00899589
0.00844431
0.00779635
0.00733484
0.00685725
0.00652685
0.0065224
0.00636146
0.00636679
0.00659591
0.00674869
0.00707916
0.00709879
0.00709294
0.00648695
0.00578722
0.0072953
0.00780779
0.00786525
0.00795829
0.00754783
0.00730859
0.00673619
0.00610877
0.00592988
0.0054
0.00541852
0.00517285
0.00557676
0.00555998
0.00573292
0.00610807
0.00573031
0.00584679
0.00522704
0.00498029
0.00596742
0.00635108
0.00648296
0.00665117
0.00634631
0.00620214
0.00579115
0.00515705
0.00462808
0.00471577
0.00445507
0.00438135
0.00450527
0.00451145
0.00458638
0.0048308
0.00481881
0.00495055
0.00454483
0.00400294
0.00497189
0.00518487
0.00545098
0.00533007
0.00514905
0.00499068
0.00437723
0.00413755
0.00362153
0.00395975
0.00345426
0.00371961
0.00372549
0.00366365
0.00386442
0.00407348
0.0037667
0.00404677
0.00363851
0.00318906
0.00371564
0.00412438
0.00416369
0.00409569
0.00395518
0.00385304
0.00346933
0.00313631
0.00327521
0.0028851
0.00259117
0.00265908
0.00264298
0.00300766
0.0031625
0.00333763
0.00321701
0.00295182
0.00270895
0.00260895
0.00257581
0.00290472
0.00288177
0.00287121
0.00273629
0.00250877
0.00256414
0.0021747
0.0022134
0.00194543
0.00189383
0.00191598
0.00183058
0.00181844
0.00210651
0.00197929
0.00221108
0.00232829
0.00176303
0.00187545
0.00174434
0.00173373
0.00167526
0.00176706
0.00166156
0.00149178
0.00138017
0.00146768
0.00132812
0.00117298
0.00120099
0.00125634
0.00138378
0.0013104
0.00140754
0.00119587
0.00142776
0.00111815
0.00136691
0.00108276
0.000590184
0.000615081
0.00048568
0.000528798
0.000529674
0.000363865
0.000552363
0.000393653
0.000465078
0.00066936
0.000548642
0.000316118
0.000287422
0.000167658
0.000512781
0.000406438
0.00036434
0.000260074
0.000513776
0.000293532
0.0101663
0.0107699
0.0111626
0.0112824
0.0111995
0.0106147
0.0103666
0.00981661
0.00934786
0.00925961
0.00884395
0.00882785
0.00888829
0.00911069
0.00902046
0.00909077
0.00881625
0.00876976
0.00819988
0.00744434
0.00873477
0.00909207
0.00961054
0.00974814
0.0095813
0.00923732
0.00888488
0.00845751
0.00807114
0.0078639
0.00762836
0.0076803
0.00763003
0.00756468
0.00795542
0.00780082
0.00776475
0.00737094
0.00690909
0.00638005
0.00735408
0.00761589
0.00781599
0.00812256
0.0077908
0.00757761
0.00724821
0.00700977
0.00660141
0.00669957
0.00618829
0.00604227
0.00632031
0.00663364
0.00674783
0.0067132
0.00646355
0.00629058
0.00547935
0.00541618
0.00597819
0.00631204
0.00645834
0.00623387
0.00632181
0.0061057
0.00605595
0.00579871
0.0053572
0.0051857
0.00500977
0.00506359
0.00514025
0.00508096
0.00532685
0.00517495
0.00502968
0.00488141
0.00475704
0.00431319
0.00470583
0.00483235
0.00492207
0.00509707
0.00509461
0.00468509
0.00448524
0.00459908
0.00412206
0.00391236
0.00409279
0.0040635
0.00395781
0.00398133
0.00400169
0.00404952
0.00392467
0.00389977
0.00348853
0.00338397
0.0033008
0.00346913
0.00354626
0.00377616
0.00356702
0.00347151
0.00343728
0.00326104
0.00302116
0.00283964
0.00280832
0.00303865
0.0027037
0.00285597
0.00287307
0.00305133
0.00285751
0.00259934
0.00246081
0.00239533
0.00211327
0.00216871
0.0021997
0.00224317
0.00214083
0.00217642
0.00211992
0.00183146
0.00174053
0.00164471
0.00165231
0.00161136
0.00181898
0.00165377
0.00174852
0.00175964
0.00190975
0.00147104
0.00160452
0.00121744
0.000657335
0.000609378
0.000789246
0.000887067
0.000451494
0.00069376
0.000599376
0.000749249
0.000472631
0.000580843
0.000689471
0.000537886
0.000674484
0.000573744
0.000668465
0.000502358
0.000710727
0.000386736
0.000466109
0.000566813
0.0111859
0.0118587
0.0125883
0.0128834
0.0128106
0.0127423
0.0122945
0.0119368
0.0116476
0.0115137
0.0111265
0.0110177
0.0111855
0.0111212
0.0110213
0.0109142
0.0106438
0.0101904
0.00945107
0.00857773
0.00984972
0.0102877
0.0106157
0.0108455
0.0109118
0.0109435
0.0106263
0.0101076
0.00997737
0.00976146
0.00960627
0.00928441
0.00933525
0.00951209
0.0095798
0.00909413
0.00905755
0.0086245
0.00815846
0.00734414
0.00808848
0.0087493
0.0089611
0.00903168
0.00940422
0.00903255
0.00894813
0.00871996
0.0085001
0.00815634
0.00789669
0.00798634
0.00785772
0.00812601
0.00784805
0.00787733
0.00744933
0.00710994
0.00683419
0.00615698
0.00652556
0.0070355
0.00741033
0.007452
0.00736127
0.00739803
0.00725607
0.00701534
0.00688251
0.00666726
0.00641482
0.00641937
0.00658698
0.0065621
0.00645118
0.0064142
0.00633549
0.00607953
0.00550833
0.0049096
0.00506626
0.00547375
0.00583786
0.0059106
0.00583946
0.00585921
0.00574572
0.00548102
0.00515065
0.00517486
0.00510692
0.00495346
0.00488125
0.00501264
0.00492676
0.004895
0.00482568
0.00465141
0.00423089
0.00385251
0.00346368
0.00391072
0.00422148
0.00428397
0.00420458
0.00412076
0.00411203
0.00382653
0.00374682
0.00365478
0.00356473
0.00379154
0.00330621
0.00355211
0.00367342
0.00347689
0.00338759
0.00329211
0.00301579
0.00284281
0.00217006
0.0022942
0.00278118
0.00260844
0.00237621
0.00258602
0.0023042
0.00233175
0.00232453
0.00237837
0.00191583
0.00204049
0.00230424
0.0021129
0.00226907
0.0021629
0.00202779
0.00199905
0.00171707
0.00151547
0.000775849
0.000523736
0.000994266
0.00105444
0.000885347
0.000815677
0.000798136
0.000936804
0.000700256
0.000594751
0.000797946
0.00090776
0.000773852
0.000498228
0.000688279
0.000821344
0.000557154
0.000867424
0.000378608
0.000666376
0.0120476
0.0126308
0.0134898
0.0140665
0.0141915
0.0142368
0.013926
0.0137467
0.0134318
0.0132824
0.0132157
0.0131561
0.0128316
0.0126992
0.012643
0.0123527
0.0120699
0.0113037
0.0104844
0.00929519
0.0104014
0.0111101
0.0114938
0.0119649
0.012242
0.0120644
0.0118678
0.0118406
0.0115259
0.0114314
0.0111179
0.0111018
0.0109291
0.0108688
0.0106483
0.0106159
0.0102791
0.00964433
0.00877601
0.00810833
0.00846958
0.00928051
0.00977949
0.0101614
0.010257
0.0100331
0.0100597
0.00993462
0.00964992
0.00962964
0.00952739
0.00947133
0.00953733
0.00902505
0.00893926
0.00897346
0.00842142
0.00818158
0.00730309
0.00697789
0.00725339
0.00741038
0.00775071
0.00842103
0.00831165
0.00828896
0.0082465
0.00816118
0.00783817
0.00787057
0.00771631
0.007682
0.00767604
0.00748393
0.00744975
0.00720759
0.00690306
0.00654408
0.00584192
0.00539092
0.0053974
0.00577042
0.00624568
0.00662626
0.00663319
0.00625931
0.00633773
0.00620775
0.00620686
0.00605665
0.00608095
0.0057542
0.00603506
0.00566559
0.00574608
0.00561152
0.00547056
0.00500666
0.00469063
0.00426313
0.00387807
0.00430687
0.00442956
0.00448701
0.00457017
0.00452461
0.00441772
0.00430497
0.0044385
0.00453739
0.00439634
0.00439234
0.00421011
0.00420715
0.00416782
0.00412536
0.0039474
0.00362914
0.00319111
0.00298612
0.00238925
0.00239775
0.00260205
0.00259589
0.00266633
0.00288265
0.0027521
0.00281117
0.0025012
0.00267622
0.00254071
0.0024193
0.00245338
0.00266846
0.0025961
0.00270539
0.00236091
0.0022276
0.00191332
0.00174556
0.000818807
0.000777669
0.000838984
0.000767358
0.000779082
0.000935714
0.000822017
0.00092929
0.00113938
0.000920345
0.000837939
0.000818776
0.000617981
0.000649662
0.000924842
0.00096101
0.000640975
0.00080426
0.000739986
0.000809058
0.0124611
0.0131756
0.0140481
0.0148805
0.0150436
0.0152769
0.0151218
0.0151639
0.0148946
0.0147525
0.0145171
0.0144427
0.0141759
0.0139987
0.0135899
0.0131818
0.0126532
0.0117984
0.010911
0.00992163
0.0108104
0.0113842
0.0119723
0.012563
0.0128843
0.013108
0.0129108
0.0130053
0.0128177
0.0125467
0.0121995
0.0123502
0.0122158
0.0118884
0.0117944
0.0115251
0.010941
0.0099833
0.00939227
0.00841362
0.00912065
0.00946441
0.0102622
0.0108017
0.0107347
0.0111149
0.0107914
0.0107773
0.0105588
0.0105379
0.0105919
0.0103824
0.0103687
0.0101047
0.0100124
0.00960444
0.00921576
0.00861951
0.0077941
0.00699582
0.00733001
0.00756978
0.00832579
0.00874835
0.00891218
0.00905622
0.00904874
0.00897384
0.00872384
0.00844424
0.00877989
0.00821243
0.00828716
0.00822745
0.00823533
0.00771919
0.00746458
0.00687805
0.00644731
0.00553729
0.00562682
0.00596947
0.0065509
0.00677752
0.00690952
0.00695622
0.0069167
0.00669741
0.00662632
0.00660103
0.0067787
0.00651922
0.00671496
0.00635049
0.00622474
0.00600946
0.00588269
0.00543146
0.00508599
0.00452358
0.00393231
0.00429415
0.00470289
0.00461131
0.00509733
0.00500882
0.00516481
0.00495739
0.00492739
0.00492338
0.00471621
0.00492651
0.00452904
0.00444769
0.00469803
0.00436964
0.0040053
0.00395717
0.00350072
0.00323824
0.00235325
0.00263456
0.00264859
0.00294838
0.00300398
0.0031521
0.00281139
0.00308962
0.00301513
0.00293059
0.00292364
0.00272702
0.00311445
0.00303285
0.00273389
0.0028385
0.00250305
0.00231826
0.00221838
0.00170664
0.000837574
0.00102629
0.000888314
0.00105912
0.00107044
0.00108463
0.00108201
0.00105778
0.00105924
0.000907146
0.00104269
0.00101503
0.00122861
0.000930588
0.000857014
0.000838017
0.000670817
0.000821455
0.000773781
0.000505753
0.0122986
0.0133024
0.0142249
0.0149885
0.0156519
0.0156581
0.016037
0.015828
0.015717
0.0158424
0.0155422
0.0153869
0.0151284
0.0148428
0.0143151
0.0138137
0.0131332
0.0123307
0.0109671
0.00990057
0.0105625
0.0111241
0.0122472
0.0129496
0.0135145
0.0134838
0.0137453
0.01365
0.0133265
0.0136003
0.0132699
0.013249
0.0129683
0.0130187
0.0124079
0.0117881
0.0110432
0.0104022
0.00943271
0.00829702
0.00877074
0.00956574
0.0103861
0.0108
0.0110553
0.0115882
0.011646
0.0116109
0.0116193
0.0111332
0.0112044
0.0110708
0.0111368
0.0106957
0.0103579
0.00994218
0.00943251
0.00868964
0.00778008
0.00707518
0.00724794
0.00767133
0.00832894
0.00881197
0.00923256
0.00933536
0.00948909
0.00923923
0.0093602
0.00924
0.00918074
0.00920087
0.00914246
0.00864761
0.00844607
0.00811336
0.00779507
0.00723399
0.00653497
0.00568879
0.00549334
0.0060248
0.00650357
0.00697075
0.00719554
0.00717209
0.00742259
0.00747155
0.00728318
0.0073257
0.0070628
0.00707928
0.00700397
0.00660665
0.00669552
0.00621559
0.00593855
0.00549198
0.00490592
0.00450279
0.00392118
0.00436613
0.00472986
0.00482975
0.00508442
0.00516885
0.00517229
0.00521192
0.00505814
0.00506797
0.00527444
0.00507934
0.00490396
0.00501015
0.00481596
0.00432402
0.00432145
0.003931
0.00345941
0.00304646
0.00232301
0.0026058
0.00277477
0.00296635
0.00293994
0.00300481
0.00331749
0.00316153
0.00311803
0.00319577
0.00324738
0.00294078
0.00305005
0.00313052
0.00286677
0.00262027
0.00267308
0.00248167
0.00215985
0.00194321
0.000989026
0.00100926
0.000939392
0.000912803
0.000896032
0.00103235
0.00129506
0.00104141
0.00109702
0.0012623
0.00107186
0.0012521
0.00106344
0.000978938
0.00103955
0.000856027
0.000920363
0.000713424
0.000568934
0.000624178
0.0117223
0.0128004
0.0139484
0.0149162
0.0154792
0.0158376
0.0161332
0.0162382
0.0161074
0.0162847
0.0160097
0.0156192
0.0155145
0.015142
0.014894
0.0138946
0.0128754
0.011821
0.0107548
0.00947015
0.00996035
0.0109038
0.011982
0.012849
0.0132311
0.0135815
0.013904
0.0140363
0.014023
0.0137685
0.0136572
0.0134449
0.0132166
0.0129834
0.0126082
0.0118745
0.0111805
0.0101897
0.00911417
0.00803519
0.00816438
0.00911414
0.0100226
0.0108165
0.0111763
0.0114579
0.0116148
0.0119187
0.0118314
0.0115689
0.0115981
0.0115577
0.0111776
0.0109253
0.0105845
0.0100535
0.00923878
0.0084833
0.00768377
0.00655826
0.00667024
0.00741599
0.0083073
0.00888808
0.00916146
0.00931155
0.00954434
0.00982438
0.00955077
0.00972594
0.00942006
0.00918701
0.00921083
0.00880255
0.00861179
0.0080863
0.00756809
0.00686574
0.00603013
0.00544017
0.00533974
0.00562355
0.00624094
0.00689959
0.00720201
0.00746308
0.00756781
0.00739832
0.00769409
0.0074326
0.00740198
0.00719689
0.00714774
0.00674892
0.00679989
0.00637094
0.00596669
0.00556795
0.00468314
0.00401114
0.00382698
0.00414421
0.00441331
0.00492524
0.00512136
0.00544538
0.00525589
0.00531296
0.0054472
0.00525577
0.00518766
0.00526127
0.00534046
0.00494576
0.00499954
0.00480923
0.00414981
0.00383135
0.00346909
0.00311658
0.00224425
0.0024922
0.00275707
0.00294315
0.0031781
0.0031206
0.00298249
0.00333166
0.00322104
0.00322115
0.0032122
0.00334789
0.00304006
0.00313589
0.00284793
0.00268722
0.0024863
0.00235079
0.00188801
0.00169978
0.000890676
0.000950144
0.000777368
0.00103015
0.000983318
0.00101363
0.00103989
0.00123667
0.0010664
0.00117387
0.00112411
0.00109376
0.000953024
0.001025
0.000922065
0.00078836
0.0010257
0.000787762
0.000691562
0.000663382
0.0105049
0.0118693
0.0131539
0.014322
0.0149203
0.0156053
0.0159229
0.0159497
0.0162628
0.0160862
0.0159102
0.0158816
0.015391
0.0147941
0.0143289
0.0134744
0.0125435
0.0114296
0.009981
0.00840288
0.00904736
0.0099841
0.011297
0.0122135
0.0129479
0.0135198
0.0136806
0.0139859
0.01385
0.0138143
0.0137369
0.0132504
0.0130784
0.0129711
0.0123045
0.0115377
0.0107128
0.0096578
0.00826957
0.00727505
0.00753013
0.00846814
0.00940997
0.0103409
0.010768
0.0112691
0.0114548
0.0117858
0.0118507
0.0117533
0.0116419
0.0114077
0.0112059
0.0106253
0.0104659
0.00964707
0.00872534
0.00808023
0.00704238
0.00603306
0.00627386
0.00695396
0.00780087
0.00843032
0.00884563
0.0092998
0.00950145
0.00951921
0.00958216
0.00954203
0.00944098
0.00938807
0.00911159
0.00865882
0.00841563
0.00803022
0.00745544
0.00643815
0.00561885
0.00470529
0.00495558
0.00533975
0.0061149
0.0064621
0.00701098
0.00734437
0.00742662
0.00748918
0.00750546
0.00740716
0.00757988
0.00747366
0.00696675
0.00690368
0.00640786
0.00641526
0.00556399
0.00523568
0.00427258
0.00385231
0.0031284
0.00377413
0.00421914
0.00463037
0.00491574
0.00516219
0.00521453
0.00527055
0.00550508
0.00521126
0.00537647
0.00515768
0.00515243
0.00501185
0.00467848
0.00446253
0.00395462
0.00323291
0.00324261
0.00240195
0.00196857
0.00256173
0.00270208
0.00281633
0.00331975
0.00303258
0.00330698
0.00331344
0.00329556
0.00304693
0.00319479
0.00320223
0.00297928
0.00286841
0.00288061
0.00273501
0.00264323
0.00205386
0.00194006
0.00165455
0.000523124
0.000901721
0.00107673
0.00103464
0.00101592
0.00101425
0.00112459
0.00129233
0.00109461
0.00112353
0.000938871
0.00114746
0.00116743
0.00105315
0.000813608
0.000734293
0.000668958
0.00078262
0.000596966
0.000492086
0.00920675
0.0106287
0.0119207
0.0131548
0.0141747
0.014541
0.0151313
0.0156017
0.0156309
0.0156009
0.0152347
0.0153327
0.0147462
0.0142111
0.0135269
0.012671
0.0113945
0.01025
0.00859746
0.00697095
0.00775566
0.00903308
0.010217
0.0111623
0.0119718
0.0126137
0.0130389
0.0133107
0.0135796
0.0133791
0.013135
0.01309
0.0125137
0.0120487
0.0114638
0.0106958
0.00996311
0.00830508
0.00739639
0.00591115
0.00657072
0.00739708
0.00827674
0.00924467
0.0101408
0.0106335
0.0112198
0.0113003
0.0113321
0.0113476
0.0112383
0.0110552
0.0105998
0.00997152
0.00976704
0.00921264
0.00795615
0.00706651
0.00600393
0.00496649
0.00525515
0.00629611
0.00684238
0.0078324
0.00810875
0.00868956
0.00889748
0.00915739
0.00924517
0.00910396
0.0090598
0.00898028
0.0086934
0.00819677
0.00793705
0.00719048
0.00654238
0.00562328
0.00468413
0.00411755
0.00406896
0.00469594
0.00534158
0.00592804
0.00632232
0.00680526
0.00705984
0.00704771
0.00727408
0.00721398
0.00697055
0.0069616
0.00655558
0.00647716
0.00609961
0.00565599
0.00513731
0.00448252
0.003828
0.00307253
0.00302779
0.00330389
0.00379449
0.0040234
0.0043823
0.00480624
0.00511253
0.00496432
0.00522288
0.0051865
0.00510524
0.00490592
0.00476069
0.0046009
0.00452959
0.00413037
0.00359706
0.00302584
0.00281065
0.00220369
0.0018153
0.00213538
0.00236149
0.00254185
0.00295355
0.00297697
0.00305403
0.00314297
0.00310697
0.00313851
0.00304021
0.00293499
0.0028827
0.00275772
0.00255541
0.00244099
0.00209963
0.00177122
0.00158163
0.00131282
0.00049645
0.000629369
0.000961151
0.000847745
0.000981786
0.000975381
0.00111464
0.000979052
0.000940848
0.00110689
0.00104745
0.000962258
0.000932965
0.000789956
0.000910003
0.000845707
0.000694987
0.000619929
0.000459552
0.000437657
0.00731744
0.00875782
0.0104221
0.0113901
0.0124843
0.0136163
0.0140556
0.0143499
0.0145568
0.0144186
0.0143553
0.0140478
0.0136109
0.0126779
0.0121085
0.01103
0.0101219
0.00847649
0.00699618
0.00514891
0.00630671
0.00731777
0.00885571
0.00985098
0.0106146
0.0113937
0.0120476
0.0121989
0.0124814
0.012226
0.012109
0.0116695
0.0116153
0.0109806
0.0104573
0.00939184
0.00835533
0.00726184
0.00565184
0.00436155
0.00491198
0.00614073
0.00719571
0.00817062
0.0088635
0.00958429
0.0101073
0.0103906
0.0106627
0.01046
0.0103061
0.0101492
0.00989109
0.00927543
0.00879476
0.00792397
0.00705743
0.00604597
0.00452094
0.00355217
0.00405988
0.00461371
0.00578984
0.00662713
0.00715334
0.00771508
0.00820988
0.00844888
0.00846451
0.00857421
0.00840762
0.00857499
0.00791211
0.00775044
0.00690368
0.00630202
0.0054941
0.00469525
0.00380286
0.00255974
0.00304338
0.00373929
0.00436269
0.00507966
0.00549316
0.00627585
0.00624884
0.00643128
0.00649782
0.00650856
0.00637412
0.00635256
0.0061246
0.0056956
0.00527311
0.00502765
0.0044567
0.00380496
0.00293619
0.00205981
0.00220909
0.00267974
0.00329437
0.00365391
0.00411341
0.00428776
0.00441682
0.0048135
0.00449628
0.00451484
0.00472508
0.00460147
0.00441629
0.00427666
0.0038504
0.00366832
0.00296305
0.00256228
0.00199112
0.00142339
0.0011739
0.00167758
0.00192749
0.00214842
0.00247556
0.00253532
0.00291054
0.00266934
0.002853
0.00277632
0.00281659
0.00284102
0.00284319
0.00244804
0.00220594
0.00217959
0.00195699
0.00158091
0.00110473
0.000877948
0.000442647
0.000567729
0.000611006
0.000615322
0.000806739
0.000931043
0.00093124
0.00105665
0.000844676
0.0010008
0.00108047
0.000826302
0.00100201
0.000925927
0.000690116
0.000828011
0.000597331
0.000489616
0.000444461
0.000276741
0.00499738
0.00661852
0.00818303
0.00944937
0.0107836
0.011581
0.011991
0.0128169
0.0129741
0.0129164
0.0126871
0.0124354
0.011914
0.0113544
0.0105639
0.00925013
0.00812258
0.00635186
0.00448633
0.00294386
0.00392106
0.00548296
0.00687244
0.00799355
0.00906179
0.00981761
0.0104402
0.0106426
0.0109234
0.0109972
0.0108811
0.0106627
0.0100418
0.00951859
0.00883317
0.00784494
0.00680595
0.00537035
0.00386446
0.00234901
0.00354489
0.00437173
0.00550859
0.00661672
0.00755899
0.0081766
0.00879066
0.00905918
0.00913162
0.00918631
0.00913418
0.00885139
0.0087447
0.00803772
0.00742736
0.00631045
0.00554429
0.00434073
0.00302701
0.00178914
0.00243206
0.00349555
0.00442076
0.00543191
0.00610175
0.00650418
0.00680556
0.00748637
0.00764892
0.00745738
0.0074559
0.00725913
0.00697214
0.00637538
0.00615271
0.00536664
0.00440891
0.00348176
0.00255528
0.00135367
0.00201121
0.00252831
0.00360124
0.00430163
0.00475246
0.00504769
0.00528757
0.00574613
0.00593305
0.00600803
0.00555223
0.00572933
0.00561072
0.0049228
0.00447976
0.0041237
0.00325268
0.0026011
0.00147426
0.000871456
0.00140091
0.00188597