/*--------------------------------*- C++ -*----------------------------------*\
| =========                 |                                                 |
| \\      /  F ield         | OpenFOAM: The Open Source CFD Toolbox           |
|  \\    /   O peration     | Version:  2212                                  |
|   \\  /    A nd           | Website:  www.openfoam.com                      |
|    \\/     M anipulation  |                                                 |
\*---------------------------------------------------------------------------*/
FoamFile
{
    version     2.0;
    format      ascii;
    arch        "LSB;label=32;scalar=64";
    class       volScalarField;
    location    "./ITHACAoutput/true/11.1";
    object      trueState;
}
// * * * * * * * * * * * * * * * * * * * * * * * * * * * * * * * * * * * * * //

dimensions      [0 0 0 1 0 0 0];

internalField   nonuniform List<scalar> 
3200
(
324.864
325.276
325.802
326.376
326.967
327.547
328.082
328.534
328.863
329.037
329.037
328.863
328.534
328.082
327.547
326.967
326.376
325.802
325.276
324.864
321.659
322.008
322.462
322.958
323.469
323.971
324.434
324.824
325.109
325.259
325.259
325.109
324.824
324.434
323.971
323.469
322.958
322.462
322.008
321.659
318.407
318.697
319.079
319.499
319.931
320.355
320.746
321.075
321.315
321.441
321.441
321.315
321.075
320.746
320.355
319.931
319.499
319.079
318.697
318.407
315.117
315.35
315.662
316.004
316.358
316.704
317.023
317.292
317.488
317.591
317.591
317.488
317.292
317.023
316.704
316.358
316.004
315.662
315.35
315.117
311.794
311.973
312.215
312.481
312.756
313.025
313.273
313.482
313.634
313.714
313.714
313.634
313.482
313.273
313.025
312.756
312.481
312.215
311.973
311.794
308.446
308.573
308.745
308.936
309.132
309.324
309.501
309.65
309.758
309.816
309.816
309.758
309.65
309.501
309.324
309.132
308.936
308.745
308.573
308.446
305.081
305.156
305.26
305.374
305.492
305.607
305.713
305.803
305.868
305.902
305.902
305.868
305.803
305.713
305.607
305.492
305.374
305.26
305.156
305.081
301.704
301.73
301.764
301.802
301.842
301.881
301.916
301.946
301.968
301.979
301.979
301.968
301.946
301.916
301.881
301.842
301.802
301.764
301.73
301.704
324.939
325.348
325.87
326.438
327.023
327.597
328.126
328.572
328.897
329.068
329.068
328.897
328.572
328.126
327.597
327.023
326.438
325.87
325.348
324.939
321.724
322.071
322.521
323.012
323.518
324.015
324.472
324.858
325.138
325.286
325.286
325.138
324.858
324.472
324.015
323.518
323.012
322.521
322.071
321.724
318.463
318.75
319.13
319.545
319.973
320.392
320.778
321.104
321.34
321.465
321.465
321.34
321.104
320.778
320.392
319.973
319.545
319.13
318.75
318.463
315.163
315.394
315.703
316.042
316.392
316.735
317.05
317.316
317.509
317.611
317.611
317.509
317.316
317.05
316.735
316.392
316.042
315.703
315.394
315.163
311.83
312.007
312.247
312.511
312.783
313.049
313.294
313.5
313.65
313.73
313.73
313.65
313.5
313.294
313.049
312.783
312.511
312.247
312.007
311.83
308.472
308.598
308.769
308.957
309.151
309.341
309.516
309.663
309.77
309.827
309.827
309.77
309.663
309.516
309.341
309.151
308.957
308.769
308.598
308.472
305.096
305.171
305.274
305.387
305.503
305.617
305.722
305.811
305.875
305.909
305.909
305.875
305.811
305.722
305.617
305.503
305.387
305.274
305.171
305.096
301.71
301.735
301.769
301.807
301.846
301.884
301.919
301.949
301.97
301.982
301.982
301.97
301.949
301.919
301.884
301.846
301.807
301.769
301.735
301.71
325.09
325.492
326.005
326.563
327.136
327.697
328.214
328.65
328.966
329.133
329.133
328.966
328.65
328.214
327.697
327.136
326.563
326.005
325.492
325.09
321.856
322.197
322.639
323.122
323.618
324.103
324.55
324.926
325.2
325.344
325.344
325.2
324.926
324.55
324.103
323.618
323.122
322.639
322.197
321.856
318.575
318.858
319.23
319.638
320.057
320.467
320.845
321.162
321.393
321.515
321.515
321.393
321.162
320.845
320.467
320.057
319.638
319.23
318.858
318.575
315.254
315.482
315.786
316.119
316.462
316.797
317.105
317.365
317.553
317.652
317.652
317.553
317.365
317.105
316.797
316.462
316.119
315.786
315.482
315.254
311.901
312.076
312.312
312.571
312.837
313.098
313.337
313.539
313.685
313.762
313.762
313.685
313.539
313.337
313.098
312.837
312.571
312.312
312.076
311.901
308.523
308.647
308.815
309
309.19
309.376
309.547
309.691
309.795
309.85
309.85
309.795
309.691
309.547
309.376
309.19
309
308.815
308.647
308.523
305.127
305.201
305.302
305.413
305.527
305.638
305.741
305.827
305.89
305.923
305.923
305.89
305.827
305.741
305.638
305.527
305.413
305.302
305.201
305.127
301.72
301.745
301.778
301.815
301.854
301.891
301.926
301.954
301.975
301.987
301.987
301.975
301.954
301.926
301.891
301.854
301.815
301.778
301.745
301.72
325.317
325.71
326.211
326.753
327.309
327.853
328.352
328.771
329.076
329.237
329.237
329.076
328.771
328.352
327.853
327.309
326.753
326.211
325.71
325.317
322.054
322.387
322.818
323.287
323.769
324.239
324.671
325.033
325.297
325.435
325.435
325.297
325.033
324.671
324.239
323.769
323.287
322.818
322.387
322.054
318.743
319.019
319.383
319.779
320.186
320.583
320.948
321.254
321.477
321.594
321.594
321.477
321.254
320.948
320.583
320.186
319.779
319.383
319.019
318.743
315.393
315.615
315.911
316.235
316.568
316.893
317.19
317.441
317.622
317.718
317.718
317.622
317.441
317.19
316.893
316.568
316.235
315.911
315.615
315.393
312.009
312.18
312.41
312.662
312.92
313.173
313.404
313.598
313.739
313.813
313.813
313.739
313.598
313.404
313.173
312.92
312.662
312.41
312.18
312.009
308.6
308.721
308.885
309.065
309.25
309.43
309.595
309.734
309.834
309.887
309.887
309.834
309.734
309.595
309.43
309.25
309.065
308.885
308.721
308.6
305.173
305.246
305.344
305.452
305.563
305.671
305.77
305.853
305.914
305.945
305.945
305.914
305.853
305.77
305.671
305.563
305.452
305.344
305.246
305.173
301.735
301.76
301.792
301.829
301.866
301.902
301.935
301.963
301.983
301.994
301.994
301.983
301.963
301.935
301.902
301.866
301.829
301.792
301.76
301.735
325.623
326.004
326.487
327.01
327.545
328.066
328.543
328.943
329.233
329.385
329.385
329.233
328.943
328.543
328.066
327.545
327.01
326.487
326.004
325.623
322.32
322.642
323.059
323.512
323.975
324.426
324.838
325.184
325.435
325.567
325.567
325.435
325.184
324.838
324.426
323.975
323.512
323.059
322.642
322.32
318.969
319.237
319.588
319.971
320.362
320.743
321.091
321.383
321.595
321.706
321.706
321.595
321.383
321.091
320.743
320.362
319.971
319.588
319.237
318.969
315.578
315.794
316.08
316.393
316.713
317.024
317.309
317.547
317.72
317.811
317.811
317.72
317.547
317.309
317.024
316.713
316.393
316.08
315.794
315.578
312.154
312.319
312.542
312.785
313.033
313.275
313.497
313.682
313.816
313.887
313.887
313.816
313.682
313.497
313.275
313.033
312.785
312.542
312.319
312.154
308.704
308.821
308.98
309.153
309.331
309.504
309.662
309.794
309.89
309.94
309.94
309.89
309.794
309.662
309.504
309.331
309.153
308.98
308.821
308.704
305.236
305.306
305.401
305.505
305.611
305.715
305.81
305.89
305.947
305.977
305.977
305.947
305.89
305.81
305.715
305.611
305.505
305.401
305.306
305.236
301.756
301.78
301.812
301.846
301.882
301.917
301.949
301.975
301.995
302.005
302.005
301.995
301.975
301.949
301.917
301.882
301.846
301.812
301.78
301.756
326.007
326.374
326.838
327.338
327.848
328.342
328.793
329.171
329.444
329.587
329.587
329.444
329.171
328.793
328.342
327.848
327.338
326.838
326.374
326.007
322.655
322.965
323.365
323.798
324.24
324.667
325.058
325.384
325.62
325.744
325.744
325.62
325.384
325.058
324.667
324.24
323.798
323.365
322.965
322.655
319.254
319.511
319.849
320.215
320.587
320.949
321.279
321.555
321.754
321.859
321.859
321.754
321.555
321.279
320.949
320.587
320.215
319.849
319.511
319.254
315.812
316.019
316.294
316.593
316.898
317.194
317.464
317.689
317.851
317.937
317.937
317.851
317.689
317.464
317.194
316.898
316.593
316.294
316.019
315.812
312.336
312.496
312.709
312.941
313.178
313.408
313.618
313.793
313.919
313.986
313.986
313.919
313.793
313.618
313.408
313.178
312.941
312.709
312.496
312.336
308.835
308.947
309.099
309.265
309.435
309.599
309.749
309.873
309.964
310.011
310.011
309.964
309.873
309.749
309.599
309.435
309.265
309.099
308.947
308.835
305.314
305.382
305.473
305.572
305.674
305.773
305.863
305.938
305.992
306.02
306.02
305.992
305.938
305.863
305.773
305.674
305.572
305.473
305.382
305.314
301.783
301.805
301.836
301.869
301.903
301.936
301.966
301.991
302.01
302.019
302.019
302.01
301.991
301.966
301.936
301.903
301.869
301.836
301.805
301.783
326.472
326.823
327.265
327.74
328.222
328.687
329.11
329.463
329.717
329.851
329.851
329.717
329.463
329.11
328.687
328.222
327.74
327.265
326.823
326.472
323.06
323.357
323.738
324.149
324.566
324.969
325.335
325.64
325.86
325.976
325.976
325.86
325.64
325.335
324.969
324.566
324.149
323.738
323.357
323.06
319.598
319.844
320.166
320.513
320.866
321.206
321.516
321.774
321.959
322.057
322.057
321.959
321.774
321.516
321.206
320.866
320.513
320.166
319.844
319.598
316.095
316.293
316.555
316.839
317.127
317.406
317.659
317.869
318.021
318.101
318.101
318.021
317.869
317.659
317.406
317.127
316.839
316.555
316.293
316.095
312.557
312.709
312.913
313.133
313.357
313.574
313.771
313.934
314.052
314.114
314.114
314.052
313.934
313.771
313.574
313.357
313.133
312.913
312.709
312.557
308.993
309.1
309.245
309.403
309.563
309.718
309.858
309.975
310.059
310.103
310.103
310.059
309.975
309.858
309.718
309.563
309.403
309.245
309.1
308.993
305.409
305.474
305.561
305.655
305.751
305.844
305.929
305.999
306.049
306.076
306.076
306.049
305.999
305.929
305.844
305.751
305.655
305.561
305.474
305.409
301.815
301.836
301.865
301.897
301.929
301.96
301.988
302.012
302.029
302.038
302.038
302.029
302.012
301.988
301.96
301.929
301.897
301.865
301.836
301.815
327.021
327.354
327.773
328.22
328.672
329.106
329.5
329.826
330.061
330.184
330.184
330.061
329.826
329.5
329.106
328.672
328.22
327.773
327.354
327.021
323.538
323.82
324.181
324.568
324.959
325.335
325.676
325.959
326.162
326.268
326.268
326.162
325.959
325.676
325.335
324.959
324.568
324.181
323.82
323.538
320.004
320.238
320.542
320.87
321.201
321.519
321.807
322.045
322.217
322.307
322.307
322.217
322.045
321.807
321.519
321.201
320.87
320.542
320.238
320.004
316.428
316.616
316.864
317.132
317.403
317.663
317.898
318.093
318.234
318.307
318.307
318.234
318.093
317.898
317.663
317.403
317.132
316.864
316.616
316.428
312.817
312.962
313.154
313.362
313.573
313.775
313.958
314.11
314.219
314.276
314.276
314.219
314.11
313.958
313.775
313.573
313.362
313.154
312.962
312.817
309.179
309.281
309.418
309.567
309.717
309.862
309.993
310.101
310.179
310.219
310.219
310.179
310.101
309.993
309.862
309.717
309.567
309.418
309.281
309.179
305.521
305.582
305.665
305.754
305.844
305.931
306.009
306.075
306.121
306.146
306.146
306.121
306.075
306.009
305.931
305.844
305.754
305.665
305.582
305.521
301.852
301.873
301.9
301.93
301.96
301.989
302.016
302.037
302.053
302.061
302.061
302.053
302.037
302.016
301.989
301.96
301.93
301.9
301.873
301.852
327.654
327.969
328.362
328.781
329.202
329.605
329.968
330.269
330.484
330.597
330.597
330.484
330.269
329.968
329.605
329.202
328.781
328.362
327.969
327.654
324.089
324.355
324.695
325.058
325.422
325.771
326.086
326.346
326.532
326.629
326.629
326.532
326.346
326.086
325.771
325.422
325.058
324.695
324.355
324.089
320.473
320.694
320.98
321.287
321.595
321.89
322.156
322.376
322.533
322.615
322.615
322.533
322.376
322.156
321.89
321.595
321.287
320.98
320.694
320.473
316.813
316.991
317.224
317.475
317.727
317.968
318.186
318.365
318.494
318.561
318.561
318.494
318.365
318.186
317.968
317.727
317.475
317.224
316.991
316.813
313.117
313.254
313.435
313.63
313.826
314.014
314.183
314.322
314.422
314.475
314.475
314.422
314.322
314.183
314.014
313.826
313.63
313.435
313.254
313.117
309.394
309.491
309.62
309.759
309.899
310.033
310.154
310.254
310.325
310.362
310.362
310.325
310.254
310.154
310.033
309.899
309.759
309.62
309.491
309.394
305.651
305.708
305.786
305.869
305.954
306.034
306.107
306.166
306.209
306.232
306.232
306.209
306.166
306.107
306.034
305.954
305.869
305.786
305.708
305.651
301.896
301.915
301.941
301.969
301.997
302.024
302.048
302.068
302.083
302.09
302.09
302.083
302.068
302.048
302.024
301.997
301.969
301.941
301.915
301.896
328.374
328.67
329.038
329.428
329.818
330.189
330.522
330.796
330.992
331.095
331.095
330.992
330.796
330.522
330.189
329.818
329.428
329.038
328.67
328.374
324.716
324.966
325.284
325.622
325.96
326.281
326.57
326.807
326.977
327.065
327.065
326.977
326.807
326.57
326.281
325.96
325.622
325.284
324.966
324.716
321.005
321.213
321.481
321.766
322.052
322.324
322.568
322.769
322.912
322.987
322.987
322.912
322.769
322.568
322.324
322.052
321.766
321.481
321.213
321.005
317.25
317.417
317.636
317.869
318.103
318.325
318.525
318.689
318.806
318.868
318.868
318.806
318.689
318.525
318.325
318.103
317.869
317.636
317.417
317.25
313.459
313.587
313.756
313.938
314.12
314.293
314.448
314.575
314.667
314.714
314.714
314.667
314.575
314.448
314.293
314.12
313.938
313.756
313.587
313.459
309.638
309.729
309.85
309.98
310.109
310.233
310.344
310.435
310.5
310.534
310.534
310.5
310.435
310.344
310.233
310.109
309.98
309.85
309.729
309.638
305.798
305.852
305.924
306.002
306.08
306.154
306.221
306.276
306.315
306.335
306.335
306.315
306.276
306.221
306.154
306.08
306.002
305.924
305.852
305.798
301.945
301.963
301.987
302.013
302.039
302.064
302.087
302.105
302.118
302.125
302.125
302.118
302.105
302.087
302.064
302.039
302.013
301.987
301.963
301.945
329.182
329.459
329.802
330.163
330.522
330.862
331.166
331.415
331.593
331.685
331.685
331.593
331.415
331.166
330.862
330.522
330.163
329.802
329.459
329.182
325.42
325.654
325.95
326.263
326.574
326.869
327.132
327.348
327.501
327.581
327.581
327.501
327.348
327.132
326.869
326.574
326.263
325.95
325.654
325.42
321.604
321.798
322.047
322.312
322.575
322.824
323.047
323.229
323.359
323.427
323.427
323.359
323.229
323.047
322.824
322.575
322.312
322.047
321.798
321.604
317.742
317.898
318.101
318.318
318.533
318.737
318.919
319.068
319.174
319.23
319.23
319.174
319.068
318.919
318.737
318.533
318.318
318.101
317.898
317.742
313.842
313.962
314.12
314.288
314.455
314.614
314.756
314.872
314.954
314.997
314.997
314.954
314.872
314.756
314.614
314.455
314.288
314.12
313.962
313.842
309.913
309.998
310.11
310.23
310.35
310.463
310.565
310.647
310.707
310.737
310.737
310.707
310.647
310.565
310.463
310.35
310.23
310.11
309.998
309.913
305.963
306.013
306.081
306.153
306.225
306.293
306.354
306.404
306.439
306.458
306.458
306.439
306.404
306.354
306.293
306.225
306.153
306.081
306.013
305.963
302
302.017
302.04
302.064
302.088
302.111
302.131
302.148
302.16
302.166
302.166
302.16
302.148
302.131
302.111
302.088
302.064
302.04
302.017
302
330.081
330.338
330.656
330.989
331.319
331.629
331.905
332.13
332.29
332.373
332.373
332.29
332.13
331.905
331.629
331.319
330.989
330.656
330.338
330.081
326.203
326.421
326.695
326.983
327.269
327.538
327.777
327.972
328.11
328.182
328.182
328.11
327.972
327.777
327.538
327.269
326.983
326.695
326.421
326.203
322.269
322.45
322.681
322.925
323.166
323.394
323.596
323.761
323.878
323.939
323.939
323.878
323.761
323.596
323.394
323.166
322.925
322.681
322.45
322.269
318.288
318.433
318.622
318.821
319.019
319.205
319.37
319.505
319.601
319.651
319.651
319.601
319.505
319.37
319.205
319.019
318.821
318.622
318.433
318.288
314.268
314.38
314.526
314.681
314.835
314.98
315.108
315.213
315.288
315.326
315.326
315.288
315.213
315.108
314.98
314.835
314.681
314.526
314.38
314.268
310.218
310.297
310.401
310.512
310.622
310.725
310.817
310.892
310.946
310.973
310.973
310.946
310.892
310.817
310.725
310.622
310.512
310.401
310.297
310.218
306.146
306.193
306.256
306.323
306.389
306.451
306.506
306.551
306.583
306.6
306.6
306.583
306.551
306.506
306.451
306.389
306.323
306.256
306.193
306.146
302.062
302.078
302.098
302.121
302.143
302.164
302.182
302.197
302.208
302.214
302.214
302.208
302.197
302.182
302.164
302.143
302.121
302.098
302.078
302.062
331.071
331.31
331.603
331.909
332.21
332.492
332.741
332.944
333.088
333.162
333.162
333.088
332.944
332.741
332.492
332.21
331.909
331.603
331.31
331.071
327.065
327.267
327.52
327.785
328.046
328.291
328.507
328.682
328.807
328.871
328.871
328.807
328.682
328.507
328.291
328.046
327.785
327.52
327.267
327.065
323.001
323.169
323.383
323.607
323.827
324.034
324.217
324.366
324.471
324.525
324.525
324.471
324.366
324.217
324.034
323.827
323.607
323.383
323.169
323.001
318.889
319.024
319.198
319.382
319.562
319.731
319.881
320.003
320.089
320.133
320.133
320.089
320.003
319.881
319.731
319.562
319.382
319.198
319.024
318.889
314.737
314.841
314.976
315.118
315.259
315.391
315.507
315.602
315.668
315.703
315.703
315.668
315.602
315.507
315.391
315.259
315.118
314.976
314.841
314.737
310.554
310.627
310.724
310.825
310.926
311.02
311.103
311.171
311.219
311.243
311.243
311.219
311.171
311.103
311.02
310.926
310.825
310.724
310.627
310.554
306.348
306.392
306.45
306.511
306.571
306.628
306.678
306.719
306.747
306.762
306.762
306.747
306.719
306.678
306.628
306.571
306.511
306.45
306.392
306.348
302.13
302.144
302.164
302.184
302.204
302.223
302.24
302.254
302.263
302.268
302.268
302.263
302.254
302.24
302.223
302.204
302.184
302.164
302.144
302.13
332.153
332.374
332.644
332.924
333.198
333.453
333.678
333.86
333.989
334.055
334.055
333.989
333.86
333.678
333.453
333.198
332.924
332.644
332.374
332.153
328.007
328.194
328.427
328.67
328.907
329.129
329.323
329.481
329.593
329.65
329.65
329.593
329.481
329.323
329.129
328.907
328.67
328.427
328.194
328.007
323.802
323.957
324.153
324.358
324.559
324.747
324.912
325.045
325.14
325.188
325.188
325.14
325.045
324.912
324.747
324.559
324.358
324.153
323.957
323.802
319.546
319.671
319.831
319.999
320.164
320.317
320.452
320.561
320.638
320.678
320.678
320.638
320.561
320.452
320.317
320.164
319.999
319.831
319.671
319.546
315.25
315.345
315.47
315.6
315.728
315.848
315.953
316.038
316.098
316.129
316.129
316.098
316.038
315.953
315.848
315.728
315.6
315.47
315.345
315.25
310.921
310.989
311.077
311.171
311.262
311.347
311.422
311.483
311.526
311.548
311.548
311.526
311.483
311.422
311.347
311.262
311.171
311.077
310.989
310.921
306.569
306.61
306.663
306.719
306.774
306.825
306.87
306.907
306.932
306.946
306.946
306.932
306.907
306.87
306.825
306.774
306.719
306.663
306.61
306.569
302.204
302.217
302.235
302.254
302.272
302.289
302.304
302.317
302.325
302.33
302.33
302.325
302.317
302.304
302.289
302.272
302.254
302.235
302.217
302.204
333.325
333.529
333.777
334.033
334.281
334.512
334.714
334.878
334.992
335.052
335.052
334.992
334.878
334.714
334.512
334.281
334.033
333.777
333.529
333.325
329.027
329.199
329.414
329.635
329.851
330.051
330.226
330.368
330.467
330.519
330.519
330.467
330.368
330.226
330.051
329.851
329.635
329.414
329.199
329.027
324.668
324.811
324.992
325.179
325.362
325.531
325.68
325.799
325.883
325.927
325.927
325.883
325.799
325.68
325.531
325.362
325.179
324.992
324.811
324.668
320.257
320.372
320.52
320.673
320.823
320.961
321.083
321.181
321.25
321.285
321.285
321.25
321.181
321.083
320.961
320.823
320.673
320.52
320.372
320.257
315.804
315.893
316.007
316.126
316.242
316.35
316.445
316.521
316.575
316.602
316.602
316.575
316.521
316.445
316.35
316.242
316.126
316.007
315.893
315.804
311.318
311.38
311.462
311.547
311.63
311.707
311.775
311.829
311.868
311.887
311.887
311.868
311.829
311.775
311.707
311.63
311.547
311.462
311.38
311.318
306.808
306.845
306.894
306.945
306.995
307.042
307.082
307.115
307.138
307.15
307.15
307.138
307.115
307.082
307.042
306.995
306.945
306.894
306.845
306.808
302.284
302.296
302.313
302.33
302.346
302.362
302.376
302.387
302.394
302.398
302.398
302.394
302.387
302.376
302.362
302.346
302.33
302.313
302.296
302.284
334.582
334.77
334.997
335.231
335.456
335.664
335.846
335.992
336.094
336.147
336.147
336.094
335.992
335.846
335.664
335.456
335.231
334.997
334.77
334.582
330.121
330.279
330.476
330.678
330.873
331.054
331.212
331.338
331.427
331.473
331.473
331.427
331.338
331.212
331.054
330.873
330.678
330.476
330.279
330.121
325.596
325.728
325.893
326.064
326.23
326.383
326.516
326.623
326.699
326.737
326.737
326.699
326.623
326.516
326.383
326.23
326.064
325.893
325.728
325.596
321.019
321.125
321.259
321.399
321.535
321.66
321.769
321.857
321.919
321.95
321.95
321.919
321.857
321.769
321.66
321.535
321.399
321.259
321.125
321.019
316.398
316.479
316.583
316.692
316.798
316.895
316.98
317.049
317.096
317.121
317.121
317.096
317.049
316.98
316.895
316.798
316.692
316.583
316.479
316.398
311.743
311.8
311.875
311.952
312.028
312.097
312.158
312.207
312.241
312.259
312.259
312.241
312.207
312.158
312.097
312.028
311.952
311.875
311.8
311.743
307.063
307.098
307.142
307.189
307.234
307.276
307.313
307.342
307.363
307.373
307.373
307.363
307.342
307.313
307.276
307.234
307.189
307.142
307.098
307.063
302.369
302.381
302.396
302.411
302.427
302.441
302.453
302.463
302.47
302.473
302.473
302.47
302.463
302.453
302.441
302.427
302.411
302.396
302.381
302.369
335.911
336.083
336.291
336.504
336.708
336.896
337.059
337.19
337.281
337.328
337.328
337.281
337.19
337.059
336.896
336.708
336.504
336.291
336.083
335.911
331.274
331.42
331.599
331.783
331.961
332.124
332.265
332.379
332.458
332.499
332.499
332.458
332.379
332.265
332.124
331.961
331.783
331.599
331.42
331.274
326.573
326.694
326.846
327.001
327.152
327.29
327.41
327.506
327.573
327.607
327.607
327.573
327.506
327.41
327.29
327.152
327.001
326.846
326.694
326.573
321.819
321.916
322.04
322.167
322.29
322.403
322.501
322.58
322.635
322.663
322.663
322.635
322.58
322.501
322.403
322.29
322.167
322.04
321.916
321.819
317.02
317.095
317.191
317.29
317.386
317.474
317.55
317.611
317.654
317.676
317.676
317.654
317.611
317.55
317.474
317.386
317.29
317.191
317.095
317.02
312.188
312.241
312.309
312.38
312.448
312.511
312.566
312.61
312.64
312.656
312.656
312.64
312.61
312.566
312.511
312.448
312.38
312.309
312.241
312.188
307.331
307.362
307.403
307.446
307.487
307.525
307.558
307.584
307.602
307.612
307.612
307.602
307.584
307.558
307.525
307.487
307.446
307.403
307.362
307.331
302.459
302.47
302.483
302.498
302.511
302.524
302.535
302.544
302.55
302.553
302.553
302.55
302.544
302.535
302.524
302.511
302.498
302.483
302.47
302.459
337.274
337.432
337.623
337.817
338.003
338.172
338.319
338.436
338.518
338.56
338.56
338.518
338.436
338.319
338.172
338.003
337.817
337.623
337.432
337.274
332.451
332.585
332.75
332.918
333.079
333.227
333.354
333.456
333.527
333.564
333.564
333.527
333.456
333.354
333.227
333.079
332.918
332.75
332.585
332.451
327.566
327.678
327.817
327.959
328.096
328.22
328.329
328.415
328.475
328.506
328.506
328.475
328.415
328.329
328.22
328.096
327.959
327.817
327.678
327.566
322.629
322.719
322.832
322.949
323.061
323.163
323.251
323.322
323.371
323.397
323.397
323.371
323.322
323.251
323.163
323.061
322.949
322.832
322.719
322.629
317.649
317.718
317.806
317.897
317.984
318.064
318.133
318.188
318.226
318.246
318.246
318.226
318.188
318.133
318.064
317.984
317.897
317.806
317.718
317.649
312.636
312.685
312.748
312.813
312.875
312.932
312.981
313.021
313.048
313.062
313.062
313.048
313.021
312.981
312.932
312.875
312.813
312.748
312.685
312.636
307.6
307.629
307.667
307.705
307.743
307.777
307.807
307.83
307.847
307.855
307.855
307.847
307.83
307.807
307.777
307.743
307.705
307.667
307.629
307.6
302.549
302.559
302.571
302.585
302.597
302.609
302.618
302.626
302.632
302.635
302.635
302.632
302.626
302.618
302.609
302.597
302.585
302.571
302.559
302.549
338.58
338.727
338.903
339.081
339.251
339.406
339.539
339.645
339.719
339.757
339.757
339.719
339.645
339.539
339.406
339.251
339.081
338.903
338.727
338.58
333.566
333.69
333.842
333.997
334.145
334.279
334.395
334.488
334.552
334.585
334.585
334.552
334.488
334.395
334.279
334.145
333.997
333.842
333.69
333.566
328.497
328.6
328.728
328.859
328.985
329.099
329.197
329.276
329.33
329.358
329.358
329.33
329.276
329.197
329.099
328.985
328.859
328.728
328.6
328.497
323.382
323.465
323.569
323.677
323.78
323.873
323.954
324.018
324.063
324.086
324.086
324.063
324.018
323.954
323.873
323.78
323.677
323.569
323.465
323.382
318.229
318.293
318.374
318.458
318.538
318.611
318.674
318.724
318.759
318.777
318.777
318.759
318.724
318.674
318.611
318.538
318.458
318.374
318.293
318.229
313.047
313.093
313.151
313.211
313.268
313.32
313.365
313.401
313.426
313.439
313.439
313.426
313.401
313.365
313.32
313.268
313.211
313.151
313.093
313.047
307.845
307.872
307.907
307.943
307.978
308.009
308.036
308.058
308.073
308.08
308.08
308.073
308.058
308.036
308.009
307.978
307.943
307.907
307.872
307.845
302.631
302.64
302.652
302.664
302.676
302.686
302.695
302.702
302.707
302.71
302.71
302.707
302.702
302.695
302.686
302.676
302.664
302.652
302.64
302.631
339.598
339.736
339.901
340.069
340.228
340.372
340.496
340.595
340.663
340.698
340.698
340.663
340.595
340.496
340.372
340.228
340.069
339.901
339.736
339.598
334.402
334.519
334.663
334.808
334.947
335.073
335.181
335.267
335.327
335.357
335.357
335.327
335.267
335.181
335.073
334.947
334.808
334.663
334.519
334.402
329.173
329.271
329.392
329.516
329.634
329.741
329.833
329.906
329.957
329.983
329.983
329.957
329.906
329.833
329.741
329.634
329.516
329.392
329.271
329.173
323.915
323.994
324.093
324.195
324.291
324.38
324.455
324.515
324.557
324.579
324.579
324.557
324.515
324.455
324.38
324.291
324.195
324.093
323.994
323.915
318.632
318.693
318.77
318.849
318.925
318.994
319.053
319.1
319.132
319.149
319.149
319.132
319.1
319.053
318.994
318.925
318.849
318.77
318.693
318.632
313.33
313.373
313.428
313.484
313.539
313.588
313.63
313.664
313.687
313.699
313.699
313.687
313.664
313.63
313.588
313.539
313.484
313.428
313.373
313.33
308.013
308.038
308.071
308.106
308.138
308.168
308.193
308.214
308.228
308.235
308.235
308.228
308.214
308.193
308.168
308.138
308.106
308.071
308.038
308.013
302.687
302.696
302.707
302.718
302.729
302.739
302.747
302.754
302.759
302.761
302.761
302.759
302.754
302.747
302.739
302.729
302.718
302.707
302.696
302.687
)
;

boundaryField
{
    hotSide
    {
        type            fixedGradient;
        gradient        nonuniform List<scalar> 
400
(
252.126
252.89
254.424
256.735
259.836
263.741
268.47
274.04
280.471
287.784
295.997
305.129
315.195
326.212
338.192
351.145
365.082
380.01
395.936
412.862
257.551
258.273
259.722
261.91
264.853
268.572
273.09
278.431
284.622
291.686
299.649
308.532
318.355
329.136
340.891
353.631
367.367
382.107
397.857
414.622
263.422
264.092
265.441
267.483
270.241
273.74
278.012
283.087
288.999
295.78
303.458
312.061
321.613
332.134
343.641
356.149
369.669
384.208
399.773
416.368
269.642
270.253
271.485
273.358
275.901
279.148
283.139
287.913
293.513
299.977
307.341
315.637
324.894
335.135
346.38
358.642
371.935
386.265
401.639
418.059
276.037
276.58
277.681
279.365
281.669
284.637
288.318
292.764
298.025
304.149
311.178
319.15
328.099
338.049
349.023
361.035
374.098
388.219
403.402
419.65
282.34
282.812
283.772
285.255
287.305
289.979
293.336
297.44
302.351
308.126
314.815
322.462
331.102
340.765
351.473
363.242
376.082
390.002
405.004
421.09
288.191
288.591
289.411
290.694
292.493
294.877
297.917
301.689
306.263
311.704
318.07
325.41
333.762
343.158
353.621
365.167
377.806
391.544
406.384
422.324
293.156
293.491
294.186
295.289
296.864
298.989
301.749
305.228
309.507
314.658
320.745
327.821
335.928
345.099
355.356
366.715
379.187
392.776
407.482
423.303
296.79
297.076
297.674
298.639
300.043
301.973
304.521
307.78
311.838
316.773
322.654
329.536
337.464
346.47
356.577
367.802
380.154
393.635
408.246
423.984
298.716
298.974
299.52
300.411
301.722
303.545
305.979
309.119
313.059
317.879
323.65
330.429
338.261
347.18
357.209
368.363
380.652
394.077
408.639
424.332
298.716
298.974
299.52
300.411
301.722
303.545
305.979
309.119
313.059
317.879
323.65
330.429
338.261
347.18
357.209
368.363
380.652
394.077
408.639
424.332
296.79
297.076
297.674
298.639
300.043
301.973
304.521
307.78
311.838
316.773
322.654
329.536
337.464
346.47
356.577
367.802
380.154
393.635
408.246
423.984
293.156
293.491
294.186
295.289
296.864
298.989
301.749
305.228
309.507
314.658
320.745
327.821
335.928
345.099
355.356
366.715
379.187
392.776
407.482
423.303
288.191
288.591
289.411
290.694
292.493
294.877
297.917
301.689
306.263
311.704
318.07
325.41
333.762
343.158
353.621
365.167
377.806
391.544
406.384
422.324
282.34
282.812
283.772
285.255
287.305
289.979
293.336
297.44
302.351
308.126
314.815
322.462
331.102
340.765
351.473
363.242
376.082
390.002
405.004
421.09
276.037
276.58
277.681
279.365
281.669
284.637
288.318
292.764
298.025
304.149
311.178
319.15
328.099
338.049
349.023
361.035
374.098
388.219
403.402
419.65
269.642
270.253
271.485
273.358
275.901
279.148
283.139
287.913
293.513
299.977
307.341
315.637
324.894
335.135
346.38
358.642
371.935
386.265
401.639
418.059
263.422
264.092
265.441
267.483
270.241
273.74
278.012
283.087
288.999
295.78
303.458
312.061
321.613
332.134
343.641
356.149
369.669
384.208
399.773
416.368
257.551
258.273
259.722
261.91
264.853
268.572
273.09
278.431
284.622
291.686
299.649
308.532
318.355
329.136
340.891
353.631
367.367
382.107
397.857
414.622
252.126
252.89
254.424
256.735
259.836
263.741
268.47
274.04
280.471
287.784
295.997
305.129
315.195
326.212
338.192
351.145
365.082
380.01
395.936
412.862
)
;
    }
    coldSide
    {
        type            mixed;
        refValue        uniform 300;
        refGradient     uniform 0;
        valueFraction   uniform 0.991591;
        source          uniform 0;
        value           nonuniform List<scalar> 
400
(
300.014
300.014
300.014
300.015
300.015
300.015
300.015
300.016
300.016
300.016
300.017
300.017
300.018
300.019
300.019
300.02
300.021
300.021
300.022
300.023
300.015
300.015
300.015
300.015
300.015
300.015
300.015
300.016
300.016
300.017
300.017
300.017
300.018
300.019
300.019
300.02