/*--------------------------------*- C++ -*----------------------------------*\
| =========                 |                                                 |
| \\      /  F ield         | OpenFOAM: The Open Source CFD Toolbox           |
|  \\    /   O peration     | Version:  2212                                  |
|   \\  /    A nd           | Website:  www.openfoam.com                      |
|    \\/     M anipulation  |                                                 |
\*---------------------------------------------------------------------------*/
FoamFile
{
    version     2.0;
    format      ascii;
    arch        "LSB;label=32;scalar=64";
    class       volScalarField;
    location    "0";
    object      stateMean;
}
// * * * * * * * * * * * * * * * * * * * * * * * * * * * * * * * * * * * * * //

dimensions      [0 0 0 1 0 0 0];

internalField   nonuniform List<scalar> 
3200
(
342.696
341.673
344.37
345.039
345.757
348.152
347.291
346.987
348.283
347.041
347.808
348.003
346.356
349.178
346.239
344.251
344.924
344.287
342.949
343.395
337.364
335.218
340.93
339.358
340.74
341.199
339.042
343.203
339.752
341.956
339.466
341.452
342.804
340.085
339.646
336.86
340.685
338.041
337.221
336.118
331.426
330.708
330.302
334.452
336.778
334.848
334.676
336.191
334.294
335.064
335.388
336.129
336.073
332.01
336.705
330.208
332.211
331.932
328.479
331.401
324.033
327.425
327.423
328.698
324.878
328.304
325.575
326.53
328.655
328.319
329.93
327.964
329.27
326.011
328.099
324.222
328.088
327.674
328.013
325.101
320.545
322.226
320.402
323.339
320.32
322.198
321.465
321.197
321.394
325.381
323.383
323.421
322.855
319.103
323.067
318.633
321.137
320.6
316.906
320.259
315.13
313.517
313.361
315.697
311.496
316.298
315.786
314.745
315.313
318.149
316.365
315.95
315.088
316.581
316.541
313.66
312.615
312.493
312.505
313.252
309.174
309.355
309.658
311.16
309.393
307.907
309.259
309.854
309.686
309.003
308.864
309.931
307.694
310.49
310.394
309.72
306.421
306.934
307.688
309.237
302.591
302.15
304.55
303.276
304.427
302.359
301.138
305.279
303.376
304.552
304.681
303.95
304.019
302.732
304.039
300.602
303.494
303.586
301.713
303.245
345.619
342.716
344.131
348.593
345.225
349.581
347.52
349.051
346.484
348.9
350.234
350.889
349.256
349.526
346.75
347.52
344.684
345.191
346.612
343.337
337.418
339.927
339.726
339.836
340.58
342.558
340.292
344.597
341.281
345.9
345.308
338.948
344.233
340.766
342.195
338.323
340.186
338.817
338.673
337.133
332.116
332.287
333.05
331.827
335.148
335.189
334.236
334.669
335.422
337.716
335.544
335.506
334.647
334.842
336.088
337.159
334.842
329.155
330.6
330.92
326.963
328.684
328.949
327.457
328.534
328.558
328.152
328.465
329.976
329.102
329.686
330.344
329.626
328.987
329.068
325.681
330.214
324.151
326.679
328.026
320.28
323.24
321.204
320.579
322.379
323.422
323.267
322.114
320.914
324.12
321.721
321.474
322.201
322.957
322.338
319.281
322.42
321.612
322.184
319.174
312.692
316.942
315.593
313.967
316.675
316.972
316.04
318.297
318.938
318.688
317.82
316.157
318.274
314.026
317.424
315.858
315.871
314.48
312.869
314.806
307.366
309.958
309.217
307.755
306.435
308.294
309.194
308.473
311.772
311.039
308.768
309.406
308.688
308.88
311.061
309.497
309.249
309.798
305.483
310.108
303.378
303.635
303.208
301.761
299.124
303.335
302.273
305.361
300.917
305.298
305.453
304.083
302.014
304.254
302.478
301.732
302.464
302.922
301.505
304.101
342.348
343.118
348.603
344.309
350.094
349.615
348.3
350.104
348.627
346.103
349.177
352.12
348.917
347.069
347.409
347.173
348.303
344.832
347.005
342.774
336.677
338.482
339.265
342.438
342.653
340.712
343.842
343.376
343.452
346.343
344.446
345.539
341.843
340.497
339.622
340.242
340.757
338.337
338.262
338.403
334.756
334.452
335.646
332.827
334.913
332.87
335.127
336.285
335.106
334.054
338.293
337.646
334.28
336.48
334.498
333.138
334.97
330.908
335.162
332.95
327.13
326.546
328.862
326.121
330.854
329.256
328.546
330.962
330.141
332.776
330.405
330.135
329.462
327.606
329.508
327.267
329.942
329.096
325.431
325.212
320.116
321.508
321.776
321.565
322.622
321.959
324.837
323.524
323.006
322.072
318.281
325.15
322.68
323.855
325.474
322.928
321.354
323.917
320.657
322.961
314.112
317.628
312.794
319.894
314.53
315.261
314.891
313.986
315.843
314.771
317.316
317.455
318.9
316.701
318.215
315.486
315.598
314.392
315.369
313.389
306.356
311.434
308.729
307.386
311.355
309.477
311.513
308.377
310.854
309.042
311.133
308.234
311.935
309.905
312.259
307.616
310.925
308.374
305.935
310.673
302.731
303.66
302.908
304.368
305.112
305.052
305.023
301.598
302.151
302.398
304.98
305.258
303.4
302.424
302.508
302.708
303.68
302.205
303.214
302.986
347.551
347.846
349.132
346.129
346.925
350.098
348.16
352.029
352.53
351.754
350.61
350.549
353.636
352.692
347.804
346.97
347.491
346.291
346.888
346.968
335.876
337.342
342.193
344.793
342.402
342.887
345.548
344.744
342.864
345.037
346.035
345.035
344.709
343.492
343.128
340.424
340.999
340.289
338.526
338.724
334.254
334.338
336.5
335.596
337.782
336.373
334.6
336.959
339.362
338.704
336.553
335.121
338.198
337.184
335.334
333.971
333.693
333.916
331.291
331.196
328.531
326.767
326.742
328.959
330.403
329.739
329.871
327.61
333.4
330.514
331.673
332.155
331.78
331.526
331.231
329.4
328.158
326.102
326.393
328.002
321.781
320.895
324.35
323.152
322.026
322.715
323.193
319.888
326.102
326.467
328.285
324.226
325.653
325.852
321.914
323.054
320.83
323.161
320.183
321.623
312.459
316.959
316.828
313.712
314.657
315.611
316.493
315.13
318.607
316.496
318.104
315.977
317.202
314.628
315.164
317.239
313.445
312.302
315.64
315.443
307.205
308.504
308.819
310.712
308.641
308.583
311.319
308.81
309.511
309.546
311.926
312.156
309.437
310.183
310.405
308.726
310.309
307.64
308.493
311.423
302.377
302.232
301.21
304.097
305.889
306.043
302.593
306.905
304.844
301.903
304.962
306.632
303.092
303.457
302.456
302.712
303.268
300.91
303.968
302.529
346.065
347.761
348.677
352.003
350.426
347.971
353.485
352.102
354.164
354.236
350.065
352.55
353.045
351.363
347.785
350.304
346.882
346.568
345.126
347.839
340.958
342.44
342.45
340.99
342.144
346.484
342.791
343.083
346.282
345.799
349.069
348.381
347.155
342.537
345.67
339.689
341.447
342.541
342.438
337.411
333.589
335.09
334.764
337.763
335.001
334.985
338.767
337.657
337.132
337.924
339.863
339.718
340.257
339.832
336.851
337.166
333.567
334.937
334.415
331.847
326.088
328.258
326.704
329.538
331.096
329.987
329.451
331.117
330.593
335.089
331.763
329.283
332.139
331.259
332.767
330.664
328.235
327.491
328.942
327.056
322.048
322.406
322.055
323.328
325.546
321.146
321.178
325.331
324.28
325.287
325.065
326.303
325.506
324.274
325.547
321.677
320.256
324.108
320.097
321.207
314.913
316.859
318.139
317.981
316.206
314.724
316.591
316.676
318.296
317.421
318.558
320.387
315.828
315.351
316.762
316.955
317.241
317.165
311.836
314.26
307.574
310.403
309.752
314.15
309.711
308.764
311.281
309.398
311.385
309.311
311.013
312.223
309.196
312.686
310.527
309.386
310.708
309.878
310.317
307.838
302.117
303.442
304.059
304.538
303.251
304.655
304.835
304.547
304.16
302.611
302.52
302.593
304.443
301.618
300.839
303.824
304.877
303.699
304.376
305.789
348.533
347.633
350.934
349.576
354.972
350.87
356.869
353.308
351.309
354.619
352.207
354.235
353.602
352.07
350.867
350.209
350.198
347.781
349.031
348.616
342.95
340.598
343.534
343.489
343.162
343.925
346.162
344.828
347.39
346.358
346.224
344.475
345.347
346.299
342.937
347.488
341.271
337.012
339.086
338.595
333.771
336.298
333.476
337.132
336.189
335.742
339.043
339.124
338.012
338.952
339.801
338.81
342.668
336.326
338.896
336.025
334.862
332.756
334.204
334.32
329.155
330.461
328.491
334.384
328.878
333.741
332.448
331.106
332.431
334.815
330.724
331.545
332.535
334.73
331.517
333.406
330.118
330.781
328.146
328.414
321.376
323.955
322.993
325.016
321.43
324.151
325.438
323.76
324.001
326.262
325.422
325.383
326.816
326.033
322.942
323.347
323.94
322.469
320.118
319.942
318.736
316.621
318.543
317.52
316.438
316.72
316.025
318.936
316.925
322.261
318.599
317.605
318.038
317.476
314.171
315.072
317.206
315.989
313.966
316.515
310.894
311.181
310.024
307.579
308.448
309.419
310.224
308.813
311.994
309.255
311.552
312.832
312.239
310.671
307.331
311.294
310.838
307.723
309.817
308.185
303.867
303.488
306.011
301.926
302.467
301.254
304.373
304.063
303.991
304.062
304.54
303.568
302.829
302.392
306.111
304.155
301.484
301.525
301.44
303.427
348.429
351.592
348.542
350.135
351.119
353.944
353.405
354.464
353.316
356.536
353.125
356.665
357.035
353.872
354.574
354.732
353.371
348.89
348.531
346.238
342.746
342.044
342.912
343.839
347.486
346.816
345.514
347.199
345.57
345.814
348.164
343.89
343.755
348.118
344.901
345.063
343.361
343.176
343.251
341.341
336.069
335.019
338.05
336.115
340.019
340.395
337.569
338.354
338.438
340.724
338.858
337.881
339.471
340.47
336.709
337.459
335.713
335.667
334.975
334.953
327.713
328.339
326.936
330.101
332.869
331.104
331.865
333.987
331.196
332.012
331.175
334.186
331.132
330.418
331.047
330.749
329.941
331.777
329.938
328.566
324.717
323.027
322.562
324.89
324.775
325.188
325.133
326.547
326.477
326.779
323.266
326.659
328.043
325.878
323.577
323.231
324.656
324.098
324.874
321.204
315.434
321.524
317.093
318.958
319.64
318.765
316.055
320.199
316.286
319.55
318.853
315.828
317.16
316.997
318.223
319.952
316.846
317.204
313.588
313.51
309.585
309.017
310.656
311.685
310.677
313.193
307.411
309.289
312.905
309.959
311.757
307.203
311.082
310.385
311.644
310.538
309.549
308.655
312.18
311.933
303.113
302.793
306.165
305.137
300.63
303.237
300.083
302.695
301.9
304.012
303.092
304.101
303.336
303.1
303.973
301.452
302.799
303.337
303.791
303.045
350.107
350.527
350.744
351.061
354.812
354.478
356.267
355.978
354.869
356.1
354.583
356.78
355.165
352.641
354.738
352.693
353.69
348.168
350.368
347.494
343.081
342.865
345.374
345.683
344.312
344.432
349.746
345.169
348.526
345.486
346.801
347.915
345.612
347.092
344.826
343.09
342.423
341.731
341.729
340.428
339.644
335.149
334.937
336.229
338.819
338.313
341.367
339.44
341.041
340.448
340.973
339.98
341.189
340.807
338.021
340.6
336.249
337.258
336.061
333.526
331.879
332.121
331.132
329.534
332.3
331.616
331.437
334.914
331.934
332.849
335.784
332.483
331.566
332.486
330.556
334.025
332.82
330.261
331.436
329.714
322.208
324.533
323.056
322.15
325.795
322.973
326.722
325.568
328.471
323.889
325.772
326.654
326.117
328.918
326.108
326.859
326.657
321.896
322.271
321.885
314.891
317.363
318.729
318.902
317.288
317.487
317.143
319.663
317.955
320.965
317.723
319.368
320.087
318.754
316.327
315.649
318.202
316.97
319.61
315.258
307.984
312.066
310.284
312.387
312.038
310.643
311.388
308.808
309.668
309.865
310.884
310.732
311.415
311.41
310.914
309.369
310.377
310.311
311.893
310.307
302.579
303.156
302.498
302.946
301.326
303.467
306.904
306
304.1
306.473
304.03
303.479
303.779
303.228
303.567
303.377
303.418
301.017
302.366
301.998
350.122
351.486
352.21
352.485
353.311
357.138
355.629
356.301
357.195
358.072
357.55
353.878
352.874
355.812
353.434
351.635
352.911
349.45
350.607
350.297
344.092
345.011
345.554
347.692
349.089
347.435
349.286
352.569
347.928
349.677
350.174
349.128
348.284
348.224
346.261
347.424
348.212
342.287
345.521
342.652
340.431
338.007
335.931
341.475
339.848
340.966
343.687
342.557
342.163
340.5
340.732
341.128
340.105
340.679
341.836
339.971
338.7
337.665
335.601
337.335
333.597
330.961
328.535
330.986
334.265
333.747
335.708
332.428
333.902
337.294
334.714
333.691
333.116
334.977
333.979
331.107
333.308
326.748
327.855
329.19
324.483
323.817
324.826
324.493
323.193
324.851
325.408
325.655
328.606
326.463
326.196
327.895
328.601
326.733
327.559
325.205
322.65
325.042
324.594
323.559
321.576
318.661
315.899
315.521
318.064
318.224
317.934
319.676
317.988
320.218
319.322
319.29
318.495
319.014
319.005
316.999
316.996
316.217
316.789
315.427
311.82
307.793
311.008
309.726
310.145
312.616
309.257
310.9
312.509
312.822
312.155
310.433
311.144
308.673
310.778
307.652
311.061
312.93
309.439
311.326
303.273
301.529
303.603
305.109
304.636
301.882
303.909
305.261
301.239
303.363
305.111
303.021
304.874
303.862
306.238
301.996
305.508
299.616
305.246
304.458
349.229
351.445
353.512
352.252
355.583
355.65
356.728
357.774
357.896
357.206
358.822
357.173
354.646
354.181
353.672
357.017
354.651
350.876
350.618
351.048
345.354
344.043
348.59
346.244
347.337
345.528
348.198
346.502
349.252
347.582
347.142
353.35
347.345
347.089
345.492
348.679
344.166
345.806
342.472
342.139
339.056
337.572
334.963
340.079
340.025
340.246
340.418
339.798
341.403
342.041
341.023
340.155
340.702
343.443
339.063
339.195
340.872
339.22
339.084
334.825
330.607
330.715
331.697
332.182
334.567
333.067
335.242
333.462
335.066
333.123
334.95
331.731
335.16
330.468
332.468
329.239
332.789
333.05
331.602
328.929
322.919
324.872
324.551
325.963
325.709
324.99
328.195
326.392
326.316
327.526
327.901
327.233
325.893
326.812
325.799
324.654
325.506
324.669
323.69
322.271
317.314
313.864
317.273
316.948
319.507
318.63
316.55
318.911
316.687
319.885
319.514
320.14
318.862
321.398
318.109
317.84
316.366
317.746
316.596
316.071
311.734
310.105
309.583
312.354
310.886
310.177
310.648
312.132
311.167
310.54
312.752
309.991
312.259
309.283
310.58
310.819
309.816
311.395
311.485
311.312
302.607
305.067
303.949
304.743
303.539
302.098
305.038
302.206
304.228
306.077
305.873
303.271
300.933
301.336
302.719
300.788
301.923
302.832
302.545
301.785
352.414
351.249
353.82
355.132
354.767
354.991
357.274
357.839
360.046
357.057
355.898
357.552
358.448
354.727
354.559
355.568
354.565
352.711
351.978
350.394
343.326
345.93
346.966
346.563
350.183
345.847
348.409
348.01
348.258
348.522
347.927
350.956
347.597
349.892
347.105
344.774
345.232
345.942
343.496
345.659
337.754
338.066
342.122
342.511
339.982
341.793
340.735
341.075
341.81
344.526
340.816
341.745
341.575
341.747
341.415
337.739
338.801
336.412
340.441
337.681
330.295
329.669
333.78
332.415
333.003
330.986
334.517
333.326
337.517
333.386
336.278
333.405
336.354
333.517
332.647
334.646
332.767
332.218
334.078
329.347
323.356
326.32
325.296
323.568
323.94
327.6
327.415
325.673
327.621
328.123
328.452
328.521
326.771
325.432
325.449
328.2
322.899
325.481
324.16
321.824
317.807
318.228
319.898
319.347
318.236
317.915
321.412
319.397
318.872
319.632
319.894
318.528
318.48
319.88
317.675
320.004
318.795
318.123
315.95
317.538
312.12
310.092
312.41
311.695
310.77
313.395
313.616
311.724
310.654
313.052
309.205
310.104
311.573
313.52
311.234
308.436
312.506
311.013
310.95
309.168
302.128
304.442
303.562
303.965
303.379
306.198
303.545
304.233
304.269
301.862
303.368
305.339
301.701
303.085
305.41
303.385
305.763
304.574
302.051
301.331
351.266
354.649
355.678
352.18
354.742
357.797
362.089
358.49
358.885
361.222
357.974
359.068
357.986
356.815
357.339
354.062
355.687
353.071
350.989
347.898
343.902
349.492
345.986
348.513
350.354
348.824
352.603
348.704
351.643
350.553
348.379
350.282
347.053
352.094
351.43
349.516
348.317
347.029
347.684
343.328
339.645
341.364
342.123
340.739
340.268
342.733
344.488
338.103
340.927
344.577
343.797
342.99
343.35
340.603
342.907
343.129
338.294
340.488
336.636
337.705
331.353
332.688
334.812
335.183
333.397
335.322
335.733
333.631
334.475
336.913
335.268
334.303
336.32
333.091
335.977
334.692
332.978
334.227
330.362
329.673
321.155
325.225
325.813
326.611
326.22
327.264
326.169
328.768
327.969
327.619
329.106
325.679
326.817
327.049
327.189
325.843
325.145
326.658
323
323.522
316.304
315.714
318.402
317.172
320.613
319.506
321.013
319.124
319.539
319.158
320.982
318.692
319.36
321.088
319.553
319.309
321.303
322.305
317.556
316.84
308.58
309.26
310.655
311.78
312.832
311.921
312.122
311.515
313.962
312.269
313.473
312.252
312.365
311.389
310.388
308.752
309.385
307.576
311.964
310.686
303.271
302.54
303.114
304.26
303.67
304.385
303.027
304.563
305.928
304.587
302.296
304.25
305.07
304.278
303.307
304.721
304.138
300.569
303.51
300.599
353.475
356.022
356.597
355.072
357.055
357.488
357.13
358.893
361.1
359.739
362.708
358.776
358.835
359.918
356.82
355.282
353.306
355.439
349.075
355.957
346.96
348.862
348.893
347.674
352.744
348
350.308
349.15
354.354
350.112
349.679
352.247
349.092
348.046
347.427
348.101
347.09
350.333
346.243
344.744
340.92
342.084
341.698
341.776
338.87
343.263
344.903
341.667
344.729
347.472
343.872
345.921
345.262
340.603
338.156
340.328
341.672
339.841
338.393
337.689
329.532
334.075
330.804
334.221
332.795
335.853
333.998
336.893
335.976
334.617
336.536
336.725
335.175
336.534
336.439
334.483
335.396
332.003
331.143
330.429
326.133
326.712
326.779
327.614
327.173
323.279
324.277
326.198
330.466
325.913
328.432
328.848
326.999
328.389
325.291
326.271
326.142
325.324
323.777
323.894
317.172
317.698
318.345
316.687
318.008
321.3
320.915
319.936
322.412
317.707
320.577
319.927
318.407
320.34
319.713
319.012
315.845
316.92
316.716
317.13
309.726
312.454
310.346
312.888
311.452
314.291
312.302
310.616
309.845
309.391
306.986
310.987
311.425
310.561
311.852
313.319
313.989
310.086
311.355
308.976
305.254
301.281
302.735
302.118
304.905
305.002
302.758
304.231
307.13
304.916
303.419
306.169
304.676
305.105
304.688
305.867
306.151
302.249
303.273
302.205
351.613
355.01
358.132
355.131
356.872
360.791
358.336
356.732
362.125
359.31
359.928
360.969
359.689
359.609
358.235
361.071
356.164
354.424
354.196
351.981
344.336
348.078
349.251
347.895
349.648
348.687
350.321
351.711
352.09
353.184
351.768
355.243
352.782
351.689
353.6
347.517
351.327
347.54
347.284
343.472
340.193
339.002
341.671
338.691
343.149
341.579
344.622
341.699
340.583
344.842
344.747
347.29
344.08
345.947
341.566
343.644
341.213
342.435
339.829
336.587
332.573
333.193
335.669
335.538
335.313
334.804
333.877
334.908
334.595
334.21
335.476
336.907
337.556
336.67
333.939
333.261
335.902
331.763
335.789
330.658
325.409
328.266
322.699
326.859
327.808
326.206
328.478
327.076
328.998
327.032
327.469
329.197
326.193
327.258
326.284
328.12
328.12
328.103
324.514
325.732
315.39
318.172
319.141
315.851
320.735
321.068
319.542
320.492
318.493
318.441
319.722
318.741
320.812
320.207
319.22
320.584
321.413
319.512
319.35
317.263
311.362
308.419
310.002
311.198
310.826
310.5
311.869
312.332
308.905
312.068
312.074
311.912
310.551
311.632
310.611
311.751
313.505
312.766
312.594
311.215
303.4
302.845
303.95
305.161
306.247
303.275
302.988
306.712
305.468
304.242
302.723
305.51
306.123
305.068
304.927
302.283
307.445
305.201
303.947
303.775
354.957
357.197
356.149
356.771
358.139
359.343
359.475
360.977
358.773
360.517
359.367
363.488
358.439
357.178
360.972
358.682
356.168
355.525
352.593
354.062
344.682
352.363
347.404
350.458
352.702
351.028
351.648
351.567
349.988
352.237
352.145
351.64
351.089
352.228
350.713
349.969
349.713
349.372
348.285
342.645
338.301
341.781
342.765
344.704
344.403
341.404
342.472
346.91
345.797
345.257
341.898
345.776
342.445
342.717
342.495
343.829
337.577
342.865
339.798
338.608
334.54
331.467
332.801
330.931
334.472
333.912
337.051
337.437
337.853
338.312
335.978
334.633
336.36
334.515
334.731
334.77
334.755
333.835
331.778
333.47
325.686
327.832
329.503
327.221
329.291
327.726
327.201
325.354
327.423
330.608
328.274
327.325
327.944
328.226
329.284
326.856
324.127
323.886
326.443
324.147
316.632
318.875
318.882
321.41
315.781
318.264
322.238
320.561
320.417
318.889
320.718
319.786
319.839
323.594
318.27
318.48
320.372
317.559
315.485
319.003
313.849
310.908
311.489
314.717
309.261
312.132
310.113
313.729
310.839
313.372
310.832
311.502
312.357
312.215
310.322
312.069
310.173
309.488
310.414
309.63
302.74
302.059
302.114
303.133
305.336
307.589
306.067
305.688
305.375
303.46
303.758
303.99
303.397
303.365
305.925
305.963
305.567
302.883
303.644
302.643
351.455
354.576
357.499
356.91
358.16
354.782
355.009
359.22
361.781
360.68
359.635
361.973
357.841
360.982
358.642
358.848
357.159
356.527
352.649
353.953
346.798
348.735
351.649
351.017
351.482
351.639
352.3
354.904
352.805
354.142
355.27
351.81
352.732
352.916
349.782
350.876
348.952
347.74
347.165
346.674
341.43
341.576
341.681
342.694
343.314
341.207
343.884
343.216
344.841
344.384
345.223
344.262
345.839
344.594
343.289
341.596
343.557
341.275
340.015
341.171
332.227
335.109
333.248
334.247
335.552
334.691
335.852
336.467
339.302
335.62
335.892
336.259
334.662
336.126
335.935
333.662
332.652
334.515
333.418
333.267
323.375
326.4
324.953
328.19
328.106
326.911
327.963
327.922
330.164
328.654
328.28
328.504
326.833
329.962
326.327
328.995
326.429
325.267
324.61
327.288
319.429
321.763
318.885
319.786
318.931
320.465
321.695
321.283
320.241
321.31
320.633
319.36
319.828
317.388
319.852
318.718
319.481
318.33
317.69
315.786
310.538
311.936
312.124
311.912
311.978
312.644
312.348
310.918
312.227
312.517
314.205
313.391
314.07
311.691
310.855
311.279
313.969
312.105
308.203
310.206
304.997
302.847
305.868
304.127
305.391
304.257
301.933
303.494
304.936
305.731
306.061
302.543
305.602
305.748
302.729
303.549
303.647
305.589
304.498
302.475
353.471
354.936
355.385
360.077
358.762
358.759
359.501
360.492
363.229
360.683
361.322
360.398
358.33
359.97
358.964
356.274
356.924
356.523
356.081
352.515
347.262
352.015
347.488
353.362
351.125
352.854
351.33
354.455
352.715
354.439
354.223
354.129
354.158
350.353
353.042
348.729
352.05
346.189
352.452
343.28
340.969
339.389
341.563
341.553
343.036
342.367
346.747
344.838
345.816
346.546
345.724
345.776
346.268
343.586
341.956
343.317
342.523
339.21
340.074
339.926
333.413
332.031
336.938
336.439
336.159
336.772
336.262
339.008
334.695
336.373
337.317
338.426
337.911
334.209
336.143
337.144
333.355
333.307
335.476
329.351
328.374
329.271
323.882
328.326
327.704
325.573
328.017
329.86
330.584
326.352
328.355
326.036
327.189
330.958
326.313
326.639
326.96
326.207
325.117
325.223
321.843
319.295
317.619
318.163
320.149
319.045
318.876
320.706
319.282
321.976
320.424
317.955
319.715
321.475
320.132
320.59
319.567
322.006
318.329
318.111
308.46
309.172
311.405
310.141
312.56
313.017
312.98
310.438
312.002
311.654
313.425
310.46
309.979
311.626
312.268
311.267
309.012
315.842
309.835
310.736
301.189
303.083
305.092
304.432
304.619
304.417
306.134
303.767
305.018
304.1
304.008
305.691
304.207
305.683
306.679
305.328
303.869
303.963
304.13
303.962
354.431
356.12
357.579
358.043
358.816
360.352
361.627
362.31
363.843
361.518
361.253
359.981
359.495
358.801
358.926
358.254
355.474
354.314
353.808
353.242
345.923
348.23
350.73
351.848
351.755
352.23
354.636
353.362
352.142
353.597
352.884
354.369
353.708
353.487
353.386
345.975
350.387
348.529
347.583
342.585
341.634
339.64
344.098
343.692
343.48
342.501
346.367
345.946
345.39
346.678
345.021
342.474
342.978
344.26
343.524
342.453
342.137
343.322
343.552
339.233
329.892
334.293
332.643
334.048
338.09
335.791
336.081
335.046
333.906
333.288
333.956
338.2
338.812
337.706
336.318
334.827
331.263
336.463
331.396
331.85
324.808
327.109
329.138
328.181
330.326
328.696
327.429
330.881
328.889
329.335
332.468
329.482
327.227
325.213
330.632
328.066
324.789
325.651
327.512
326.104
319.798
318.134
318.002
322.858
321.232
319.744
321.79
319.562
318.675
321.763
317.624
319.869
321.263
317.781
319.347
321.59
318.68
318.551
318.511
316.907
312.061
307.572
311.661
314.055
311.184
311.201
310.955
313.219
313.52
312.967
312.651
310.468
314.515
312.737
309.79
312.303
314.722
311.512
310.873
310.679
304.726
301.141
303.833
304.521
303.054
304.259
304.476
304.78
303.999
303.575
306.15
304.665
304.984
303.75
303.443
301.991
304.635
301.501
303.12
302.084
356.936
355.442
356.058
360.177
360.747
359
362.151
360.861
358.82
363.522
358.891
361.072
362.801
360.809
358.43
356.254
357.736
356.722
356.801
355.312
346.748
356.425
351.731
357.466
352.246
356.179
349.577
357.004
352.977
357.415
357.289
351.578
357.585
350.726
356.427
350.479
355.845
349.299
354.377
346.093
335.991
339.648
342.213
343.081
344.24
346.147
346.236
344.671
346.008
344.331
345.149
344.741
346.798
344.846
342.464
342.395
342.804
338.794
338.52
339.98
332.689
332.537
334.412
334.31
337.091
337.461
339.416
336.379
336.081
333.327
338.388
337.424
338.132
336.789
334.242
336.297
338.343
333.868
333.248
330.486
325.83
326.266
325.971
328.889
328.472
329.208
327.557
330.019
327.638
328.222
328.673
328.313
327.078
327.278
325.859
326.9
330.151
326.027
326.979
324.664
315.438
317.27
321.537
319.701
319.621
319.87
318.421
321.814
318.845
319.529
319.94
320.529
319.671
318.745
318.799
318.018
318.97
322.355
317.674
316.904
310.479
311.163
313.116
313.469
310.048
312.721
312.569
313.239
311.062
310.998
310.566
310.988
310.775
310.998
312.397
313.302
311.605
313.504
309.509
312.706
302.017
303.811
302.538
303.137
301.929
303.302
305.925
305.096
305.606
303.505
304.638
304.636
303.127
307.264
305.698
303.327
303.321
305.04
302.526
302.668
352.386
357.233
356.283
356.266
363.267
358.811
360.744
360.929
364.812
361.087
364.678
360.828
362.379
362.897
359.261
358.392
358.454
356.05
354.738
354.549
347.675
346.523
348.349
350.407
351.357
351.465
352.658
350.539
353.572
354.283
352.104
355.543
355.078
351.881
350.71
351.727
348.318
348.76
347.695
348.95
338.105
340.762
341.914
342.512
341.121
344.305
343.712
343.546
345.034
343.67
343.99
345.621
344.153
342.92
341.497
342.863
342.38
339.195
339.93
339.728
333.906
330.646
333.754
334.863
337.001
337.354
338.247
337.486
334.926
336.971
336.709
338.322
338.673
334.945
334.573
337.313
335.34
335.077
333.431
335.475
323.718
325.523
323.539
326.108
327.214
327.129
330.097
331.022
327.314
329.759
328.201
328.877
327.292
327.166
327.019
329.859
326.779
326.153
324.659
324.803
316.994
320.262
319.681
317.759
319.288
321.856
318.671
320.741
319.684
322.059
320.378
319.106
319.565
319.454
320.722
319.971
319.14
319.612
318.471
319.246
309.906
313.29
310.63
313.032
314.321
311.286
310.625
309.441
312.452
314.205
313.452
312.912
312.557
312.071
313.755
312.264
310.171
313.687
311.098
308.474
302.544
303.266
301.943
303.983
306.023
302.874
304.247
303.801
304.793
305.262
304.139
301.854
305.381
303.496
306.046
304.594
302.728
304.669
303.311
305.117
)
;

boundaryField
{
    hotSide
    {
        type            fixedGradient;
        gradient        nonuniform List<scalar> 
400
(
321.511
322.87
325.591
329.677
335.133
341.965
350.181
359.788
370.794
383.208
397.037
412.289
428.971
447.088
466.647
487.651
510.105
534.011
559.372
586.191
323.738
325.08
327.767
331.802
337.194
343.949
352.078
361.591
372.498
384.81
398.537
413.687
430.268
448.289
467.755
488.672
511.043
534.872
560.161
586.913
326.149
327.47
330.116
334.091
339.406
346.071
354.099
363.503
374.296
386.491
400.101
415.136
431.606
449.52
468.885
489.706
511.988
535.735
560.948
587.63
328.704
330
332.597
336.503
341.73
348.292
356.205
365.485
376.15
388.215
401.695
416.604
432.954
450.753
470.009
490.73
512.919
536.579
561.714
588.325
331.33
332.599
335.142
338.97
344.099
350.546
358.332
367.477
378.003
389.928
403.271
418.047
434.27
451.949
471.095
491.712
513.807
537.382
562.439
588.978
333.918
335.158
337.643
341.389
346.414
352.74
360.392
369.397
379.779
391.562
404.765
419.407
435.503
453.065
472.101
492.618
514.622
538.114
563.096
589.569
336.321
337.531
339.959
343.622
348.544
354.751
362.274
371.142
381.385
393.031
406.101
420.618
436.595
454.047
472.983
493.409
515.33
538.747
563.663
590.076
338.36
339.543
341.92
345.509
350.339
356.44
363.847
372.595
382.718
394.244
407.2
421.608
437.485
454.844
473.695
494.045
515.897
539.253
564.114
590.478
339.852
341.015
343.352
346.885
351.645
357.665
364.985
373.643
383.675
395.113
407.984
422.312
438.116
455.407
474.197
494.491
516.294
539.606
564.428
590.758
340.643
341.795
344.11
347.613
352.334
358.311
365.584
374.193
384.176
395.567
408.393
422.679
438.443
455.699
474.456
494.722
516.498
539.788
564.589
590.901
340.643
341.795
344.11
347.613
352.334
358.311
365.584
374.193
384.176
395.567
408.393
422.679
438.443
455.699
474.456
494.722
516.498
539.788
564.589
590.901
339.852
341.015
343.352
346.885
351.645
357.665
364.985
373.643
383.675
395.113
407.984
422.312
438.116
455.407
474.197
494.491
516.294
539.606
564.428
590.758
338.36
339.543
341.92
345.509
350.339
356.44
363.847
372.595
382.718
394.244
407.2
421.608
437.485
454.844
473.695
494.045
515.897
539.253
564.114
590.478
336.321
337.531
339.959
343.622
348.544
354.751
362.274
371.142
381.385
393.031
406.101
420.618
436.595
454.047
472.983
493.409
515.33
538.747
563.663
590.076
333.918
335.158
337.643
341.389
346.414
352.74
360.392
369.397
379.779
391.562
404.765
419.407
435.503
453.065
472.101
492.618
514.622
538.114
563.096
589.569
331.33
332.599
335.142
338.97
344.099
350.546
358.332
367.477
378.003
389.928
403.271
418.047
434.27
451.949
471.095
491.712
513.807
537.382
562.439
588.978
328.704
330
332.597
336.503
341.73
348.292
356.205
365.485
376.15
388.215
401.695
416.604
432.954
450.753
470.009
490.73
512.919
536.579
561.714
588.325
326.149
327.47
330.116
334.091
339.406
346.071
354.099
363.503
374.296
386.491
400.101
415.136
431.606
449.52
468.885
489.706
511.988
535.735
560.948
587.63
323.738
325.08
327.767
331.802
337.194
343.949
352.078
361.591
372.498
384.81
398.537
413.687
430.268
448.289
467.755
488.672
511.043
534.872
560.161
586.913
321.511
322.87
325.591
329.677
335.133
341.965
350.181
359.788
370.794
383.208
397.037
412.289
428.971
447.088
466.647
487.651
510.105
534.011
559.372
586.191
)
;
    }
    coldSide
    {
        type            mixed;
        refValue        uniform 300;
        refGradient     uniform 0;
        valueFraction   uniform 0.991591;
        source          uniform 0;
        value           nonuniform List<scalar> 
400
(
300.022
300.028
300.023
300.02
300.018
300.033
300.026
300.022
300.028
300.022
300.018
300.028
300.044
300.029
300.023
300.042
300.01
300.04
300.017
300.021
300.018
300.031
300.031
300.019
300.029
300.029
300.023
300.027
300.013
300.043
300.037
300.021
300.011
300.024
300.017
300.024
300.026
300.01
300.032