/*--------------------------------*- C++ -*----------------------------------*\
| =========                 |                                                 |
| \\      /  F ield         | OpenFOAM: The Open Source CFD Toolbox           |
|  \\    /   O peration     | Version:  2212                                  |
|   \\  /    A nd           | Website:  www.openfoam.com                      |
|    \\/     M anipulation  |                                                 |
\*---------------------------------------------------------------------------*/
FoamFile
{
    version     2.0;
    format      ascii;
    arch        "LSB;label=32;scalar=64";
    class       volScalarField;
    location    "0";
    object      relativeErrorField;
}
// * * * * * * * * * * * * * * * * * * * * * * * * * * * * * * * * * * * * * //

dimensions      [0 0 0 1 0 0 0];

internalField   nonuniform List<scalar> 
3200
(
0.00524412
0.00614325
0.00172967
0.00385972
0.00325086
0.0007262
0.00473107
0.0110273
0.00511178
0.00881955
0.00714933
0.00199921
0.0052869
0.00222007
0.00351333
0.00415667
0.00304125
0.00443053
0.00332093
0.00992565
0.00694685
0.00308569
0.00254925
0.000309155
0.00148944
0.000284717
0.0047983
0.00701397
0.00355488
0.00868209
0.00622426
0.00378297
0.0033452
0.00521702
0.00347505
0.00311239
0.00315562
0.00586234
0.00463939
0.00159243
0.00506723
0.00574863
0.00345764
0.00100776
0.00308049
0.0045858
0.00297848
0.00332864
0.0041057
0.00402689
0.00293719
0.00319972
0.00182697
0.00110994
0.00138947
0.00341475
0.00310368
0.000152629
0.00202962
0.00342671
0.00170883
0.00598655
0.00171236
0.000740703
0.00163509
0.000342665
0.00161056
0.0016346
0.00360747
0.000758425
0.00149267
0.000598681
0.00495359
0.00506372
0.00522451
0.000453806
0.00536305
0.00248181
0.00208378
0.00416624
0.00477022
0.00239274
0.00291653
0.00048438
0.00519959
0.00653352
0.00374179
0.00170971
0.00690665
0.0075147
0.0015233
0.00376153
0.00186275
0.0026985
0.00061076
0.0018027
0.00127264
0.00186045
0.00172061
0.00463436
0.00467652
0.0064751
0.00281215
0.00379623
0.000254457
0.00253463
0.00202377
0.00152448
0.00079656
0.00221227
0.00646522
0.00334599
0.00141779
0.00181624
0.00216939
0.00421525
0.00319757
0.00274732
0.00402854
0.00501838
0.000367482
0.000978185
0.0003005
2.19229e-05
0.00226416
0.00223857
0.00471844
0.00266952
0.00316523
0.00404826
0.00364939
0.00173639
0.00166927
0.00118474
0.000154779
0.00233537
0.00100748
0.00561172
0.00185963
0.00332837
0.000517505
0.000414157
0.000501713
0.00466275
0.00390746
0.00334224
0.000331243
0.00562288
0.000161905
0.000181151
0.00145909
5.30002e-06
0.0026473
0.000745287
0.000582836
0.00165201
0.000921788
0.00509652
0.00472617
0.00625929
0.010375
0.00301029
0.00534632
0.00255964
0.00819314
0.00331798
0.00533679
0.00041711
0.00521397
0.00540014
0.00593033
0.00532434
0.00147648
0.00613232
0.00548001
0.00561746
0.000391598
0.00287654
0.000264203
0.00676886
0.00880395
0.000304689
0.00343711
0.000500745
0.000991539
0.000321582
0.00740565
0.000220204
0.00640671
0.000553323
0.000970901
0.00296634
0.000810236
0.00602105
0.00190977
0.00705854
0.000555231
0.00348872
4.38002e-05
0.00532621
0.00360682
0.00700648
0.0046894
0.00351466
0.00211577
0.00640521
0.00712941
0.0033411
0.0063081
0.00617969
0.00356374
0.00688833
0.00200144
0.00471378
0.00554102
0.00270978
0.00325562
0.0019019
0.000188407
0.00522075
0.000723758
0.00165034
0.0028704
0.00104815
0.0013387
0.00247995
0.00236091
0.00614215
0.0080481
0.00227987
0.00236782
0.00366585
0.000546993
0.00630074
0.00274929
9.19549e-05
0.000272841
0.00128552
0.00234312
0.00286327
0.00817702
0.000832803
0.00378292
0.00156404
0.000884938
0.000576404
0.00487399
0.00102147
0.0018704
0.00720374
0.00192052
0.00222648
0.000292332
3.67618e-05
0.00296645
0.00071729
0.00259596
0.00138968
4.81244e-05
0.00286174
0.0016139
0.00418463
0.00466417
0.000898461
0.00285857
0.00372007
0.00453531
0.00163178
0.00373447
0.00161899
0.00775863
0.0003897
0.0033697
0.00254547
0.00253323
0.00289468
0.00208636
0.00209792
0.00546377
0.00218333
0.00551851
0.00324026
0.000768781
0.00195789
0.000463113
0.00223091
0.00122103
0.000818517
0.00339687
0.00347637
0.00484593
0.00269012
0.00488524
0.000848939
0.000987463
0.00230395
0.00111192
0.000448244
0.00324708
0.00176534
0.000450012
0.00662628
0.00019185
0.000996749
0.000827089
0.00235196
0.00389295
0.00205954
0.00318295
0.00204581
0.00495968
0.00534361
0.00297807
0.00488832
0.00102688
0.00318548
0.000427204
2.52387e-05
0.00356149
0.000749722
0.0124777
0.00720267
0.00189338
0.00190314
0.000781783
0.00205797
0.00644325
0.00477336
0.00526897
0.00569729
0.00602855
0.00118242
0.00362847
0.00526126
0.00327465
0.00443945
0.0019746
0.00556887
0.00458138
0.00447464
0.0040409
0.00416899
0.00255812
0.000888335
0.00142208
0.000351217
0.00230188
0.00193446
0.00389267
0.0049579
0.00686744
0.00346146
0.00282398
0.0026904
0.00422083
0.00200734
0.00037044
0.00200147
0.00415784
0.00668046
0.00662158
0.00405972
0.0011491
0.00211824
0.00315274
0.00360955
0.00185
0.00245237
0.00416344
0.000121985
0.00565008
0.00150009
0.00212616
0.00480872
0.00360925
0.0079407
0.00594089
0.000205946
0.00134466
0.000859111
0.00841887
0.00597486
0.00435809
0.000602114
0.00351635
0.0014415
0.00334836
0.000353477
0.00362752
0.00124155
0.00231569
0.00629396
0.00272509
0.00358946
0.00350503
0.00246943
0.00214205
0.00113086
0.00306352
0.000504744
0.00776908
0.000234273
0.000297454
0.00115535
0.000494544
0.00338512
0.000396391
0.00442625
0.00178444
0.000995561
0.00173357
0.00159933
0.00184966
0.00230924
0.00163121
0.00343489
0.00339829
0.00503698
0.00322715
0.00598543
0.00378122
0.0045317
0.00327268
0.00131093
0.00294572
0.00176242
0.00229724
0.00164729
0.00280563
0.00233851
0.00546586
0.00185777
0.00286305
0.00173908
0.00495442
0.00181746
0.00851986
0.00060566
0.00190873
0.00106809
0.00263109
0.000640055
0.00333631
0.003299
3.05704e-05
0.00411067
0.00325081
4.89161e-05
0.0023993
0.0055206
0.00101841
0.000218658
0.00511682
0.00258916
0.00352852
0.00233528
0.00370516
0.00315857
0.00394254
0.00135356
0.00237907
0.00257922
0.00276636
0.00218763
0.00104188
0.00284057
0.00198369
9.6085e-05
0.00025344
0.0026878
0.00123896
0.00306634
0.00228033
0.00212633
0.00441079
0.00199471
0.00296761
0.00476522
0.00674466
0.00386721
0.00922779
0.00417515
0.00509495
0.00270857
0.00430813
0.00147037
0.00592911
0.00400495
0.000876135
0.00260412
0.000840572
0.00177483
0.00117859
0.00296892
0.00217523
0.00296963
0.00246154
0.00509367
0.00292214
0.00236184
0.00210904
0.000744355
0.000790034
0.0012421
0.00467292
0.000720585
0.00374165
0.00155934
0.00362369
0.000241577
0.000738806
0.00192755
0.000227959
0.00290319
0.000345896
0.00182283
4.86957e-05
0.00429443
0.000504544
0.00973373
0.00323419
0.00582999
0.00452721
0.000993084
0.000671134
0.0025576
0.00114508
0.00039969
0.00236452
0.00428378
0.000739098
0.00137285
0.00402832
0.000161634
0.00141514
0.00184252
0.000189787
7.26129e-06
0.00138098
0.00324754
0.00602474
0.00055029
0.00141202
0.00172382
0.00146702
0.000705515
0.00107729
0.00120918
0.00194553
0.000696927
1.10865e-05
0.00199987
0.00305767
0.00255939
0.000596374
0.0020865
0.0021433
0.000669284
0.00260565
0.00318889
0.00237383
0.00449265
0.00230014
0.00108435
0.000321604
0.00247243
0.00255958
0.0033602
0.00200158
0.000475332
0.00176374
0.000633903
0.00102214
0.000735648
0.00104837
0.000470443
0.0015109
0.00511493
0.00251634
0.00529838
0.00109185
0.000464238
0.00234204
0.00277352
0.0027462
0.000805282
0.00315531
0.000181527
0.00206982
0.00270607
0.0023106
0.00156924
0.000851274
0.00147217
5.39765e-05
0.000805859
0.000225208
0.000532033
0.0030915
9.89871e-05
0.00349026
0.00438882
0.00325302
0.00183168
0.00250988
0.00258573
0.00529084
0.00306621
0.00177558
0.00616487
0.00340873
0.00339682
0.000114048
0.000907805
0.0012758
0.00147269
0.00625826
0.000974003
0.00396772
0.000551763
0.00539687
0.000108972
0.00206695
0.00156893
0.00122754
0.000359684
0.000790532
0.00424268
0.00297157
0.000798011
0.00307228
0.00049678
0.00199432
0.000252719
0.00127602
0.00269611
0.00216742
0.00124419
0.00732298
0.00222359
0.011187
0.00678025
0.0065864
0.000668708
0.00397591
0.000306999
0.000636565
0.00307035
0.000791831
0.00213454
0.000531345
0.00589774
0.000484175
0.0027169
0.0032492
0.00194481
0.00143271
0.00575144
0.00132463
0.00426379
0.00441705
0.00659921
0.000571362
0.00253517
0.00336403
0.00152671
0.00417645
0.00217272
0.00253495
0.00236592
0.000340239
0.00251657
0.00542038
0.00278934
0.00450595
0.00265862
0.00147842
0.00288891
0.00210256
0.00676696
0.0106635
0.000757594
0.00373989
0.00527417
0.0024748
0.000132345
0.000247659
0.00153362
0.0019397
0.00130203
0.00204104
0.00318811
0.00264252
0.00420852
0.00240819
0.00314393
0.000521482
0.00216041
0.00500237
0.00274298
0.00191279
0.00371943
0.000617646
0.000156653
0.000856416
0.000773334
0.00352208
0.002081
0.00446338
0.00154636
0.00594118
0.000194425
0.00143562
0.00148085
0.00423643
0.000226041
0.000610331
0.00180003
0.00516405
0.00212537
0.00472195
0.000203031
0.000972913
0.00091886
0.00453152
0.00194818
0.00313426
0.0032063
0.00194867
0.00133294
0.00167609
0.000186559
0.00161668
0.0039121
0.00329447
0.00130141
0.00105675
0.00154922
0.00197011
0.000480322
0.00202484
0.000128757
0.00148354
0.000502465
0.0040036
0.00116522
0.00157618
0.00322948
0.00152462
0.00144082
0.00119332
0.00368177
0.00102085
0.00073826
0.000554268
0.00125931
0.000163755
1.43075e-05
0.000371304
0.00351339
0.000259714
0.00501204
0.00279032
0.00436792
0.000809017
0.0036891
0.000651166
0.0011427
0.00201898
0.00716928
0.000419814
0.000811514
0.00084879
0.00144756
0.00279543
0.00109736
0.00339392
0.00412109
0.000152497
0.00464039
0.000376045
0.00196677
0.00254321
0.0021176
0.00507353
0.00227188
0.00137459
0.00111824
0.00568834
0.00248231
0.000184106
0.000519322
0.00382732
0.000340742
0.00498923
0.00187012
0.0013503
0.000245198
0.000872773
0.00263531
0.0105149
0.00537877
0.00189658
0.00219367
0.00271273
0.000973759
0.000913107
0.000329858
0.00116009
0.00781362
0.00180452
0.000487464
0.00329226
0.00118793
0.00179369
0.00201805
0.00439864
0.00172301
0.00291979
0.00858886
0.00885496
0.000460612
0.00860169
0.00023896
0.00160376
7.89103e-05
0.000175623
0.000822476
0.00288215
0.000586484
0.00199983
0.00132722
0.000459233
0.00526439
1.4808e-05
0.00142447
0.000482291
0.000917082
0.000292144
0.00581129
0.00400061
0.00819658
0.00529725
0.00100513
0.000464751
0.00155119
0.00325348
0.00414589
0.000871301
1.35448e-05
0.000591584
0.00417061
0.00136756
0.000281798
0.000452569
0.00548956
0.000159594
8.8586e-05
0.0046848
4.96705e-05
0.00514999
0.000287756
0.00482939
0.000894743
0.000835915
0.0025886
0.000366655
0.00151043
0.00256411
0.0029305
0.00113249
0.00248928
0.00185315
0.00293808
0.000839962
0.0041801
0.00258728
0.00252136
0.00283686
0.00323643
0.00520542
0.000812517
0.00137563
0.00190234
0.000763929
0.0027856
0.00474344
1.67503e-05
0.0020233
0.000491101
0.0020144
0.000808078
0.00148161
0.000113909
0.000600638
0.00342492
0.00325515
0.00169454
0.000274366
0.00189793
0.00676953
0.00155308
0.00313625
0.00154259
0.000937702
0.000546804
0.00197228
0.00327445
0.00592196
0.00121971
0.000376559
0.00311362
0.000565404
0.00471792
0.00499816
0.00374514
0.00189989
0.00016504
0.00213506
0.00164123
0.000549059
0.00417168
0.00260573
0.00484154
0.00193886
0.00276892
0.00529605
0.00377572
0.00102216
0.00150569
0.000173215
0.00493146
0.00257837
0.000372103
0.00147626
0.00790118
7.4074e-05
0.00179792
0.00214302
0.00575074
0.00248208
0.00581078
0.00124281
0.00665219
0.000626005
0.00119895
5.64397e-05
0.00147706
0.00406245
0.00424208
0.00268272
0.00325375
0.00414546
0.00205796
0.00139008
0.00423965
0.0013706
0.000209508
0.00515162
0.00221536
0.011484
0.00741454
0.00182811
0.00112362
0.0010176
0.00123468
0.00347006
4.72494e-06
0.000238213
0.00368282
0.00257806
0.000880112
0.00387201
0.000623641
0.00271404
0.000926793
0.000997446
0.00431145
0.00849617
0.00545469
0.00917516
0.00450009
0.00681877
0.00520074
0.0017816
0.000791238
0.00218054
0.00196383
0.0019573
0.00988976
0.00234819
0.001661
5.52841e-06
0.00372477
0.00404942
0.00220177
0.000839272
0.00291473
0.00602476
0.00528754
0.0144284
0.0078075
0.00185281
0.00354529
0.00151654
0.00258817
0.00148752
0.00199422
0.00301834
0.00170454
0.00290556
0.00128207
0.000917923
0.000823125
0.000470924
0.00106405
0.00240861
0.00030632
0.00218645
0.00311741
0.0077693
0.006203
0.00141254
0.00178941
0.00296966
0.00132884
0.00290355
0.00306456
0.000435129
0.00232906
0.00124514
0.00327737
0.00377088
0.00187108
0.0017481
0.00168898
0.00148195
0.000820222
0.00155712
0.00611026
0.00677998
0.00437436
0.00269083
0.00651415
0.000197734
0.00396461
0.00448024
0.00103376
0.00400519
0.000379838
0.00119084
0.00462021
0.000265607
0.000842077
0.00199358
0.00250314
0.00153583
0.00269646
0.000761667
0.00139862
0.00384631
8.26076e-05
0.00267362
0.00194543
0.00116528
0.000167502
0.00182825
0.00564862
0.00151244
0.00123493
0.00118255
0.000766974
0.003796
0.00158153
0.00118809
4.48083e-05
0.00112481
0.00140946
0.00264157
0.0066255
0.00698818
0.00175743
0.00524581
0.000241367
0.00262894
0.00553759
0.000829978
0.000338157
0.0039601
0.00715852
0.000319327
0.00293567
0.00147439
0.000598712
0.000276918
0.00276204
0.00150661
0.000582863
0.00569951
0.00458795
0.00328203
0.00181746
0.000208972
0.00625805
1.10047e-06
0.00520188
0.000978275
0.00253019
0.00380793
0.00036402
0.0019651
0.00266245
0.000959748
0.00457397
0.00204847
0.00210825
0.00159014
0.00129151
0.00238548
0.00130417
0.0125132
0.00629043
0.00411816
0.00426814
0.000334037
4.83886e-05
0.00335135
0.00235368
0.000647641
0.000717114
0.00416806
0.00157148
9.52312e-05
0.000716065
0.00370237
0.000839458
0.00378279
0.002613
0.00641075
0.00815997
0.00598748
4.04994e-05
0.000632306
2.00607e-06
0.00553496
0.000295096
0.000603181
0.000422399
0.00143743
1.51934e-05
0.000871271
0.00353539
0.00140631
0.00274731
0.000473422
0.000736845
0.000226084
0.0063395
0.000232247
0.00497893
0.00586466
0.00836656
0.00723672
0.00400913
0.00175995
0.00114556
0.00114172
0.00222108
0.00509445
0.000581611
0.00137165
0.00137155
0.00419514
0.00105803
0.00196772
0.00428672
0.00203726
0.00490335
0.00590157
0.00554095
0.00525151
0.0039546
0.00533478
0.00270208
0.00132552
0.000230433
0.000431967
0.00548596
0.00405066
0.00129931
0.00247502
0.00166313
0.00332662
0.00108401
0.00103785
0.000787183
0.00356292
0.00166106
0.0044346
0.005646
0.00655199
0.00649813
0.000464697
0.0053253
0.00138771
0.00172189
0.00250603
0.000202166
0.00124906
0.00333344
0.00389059
0.00244915
0.00263598
0.00126733
0.000320346
0.00103728
0.00433303
0.000299666
0.000728815
0.000771066
0.00168608
0.00774064
0.00319371
0.00256688
0.00257513
0.00289161
0.00193753
0.000866141
0.000805029
1.33753e-05
0.00154416
0.000279964
0.0014457
0.00138816
0.00276787
0.000675269
0.00320682
0.00601626
0.000443682
0.00116924
0.00231786
0.00213601
0.00293081
0.00194583
0.000159999
0.00372
0.00231576
0.00240679
0.00369803
0.00116688
0.00386545
0.000721059
0.000942271
0.00272487
0.000937631
0.0041935
0.000941806
0.00214522
0.000668751
0.000780268
0.000380343
0.00103534
0.00481816
0.000712568
0.000699781
0.00108549
0.00080481
0.00550927
0.0013028
0.00152576
0.00060922
0.000416216
0.000658863
0.00369002
0.00121715
0.00142562
0.00125368
0.00471814
0.000721913
1.39909e-05
0.00790322
0.00947698
0.00760216
0.0029858
0.000152195
0.00082552
0.00123906
0.0073073
0.000649871
0.00528358
0.00312661
0.00505807
0.00248265
0.000318077
0.000541248
0.00055477
0.00184636
0.0049106
0.00617758
0.00847482
0.00494699
0.00675269
0.00684296
0.00372066
0.00154059
0.00264494
0.00165695
0.00288002
0.00101344
0.000345422
0.00363792
0.00720903
0.000778194
0.000220459
0.000555063
0.00184885
0.00388705
0.00360513
0.00410407
0.00919192
0.00658467
0.00398194
0.00483277
0.00456353
0.000199311
0.00385738
0.00214303
0.00102399
0.000466009
0.000486357
0.00299429
0.00120629
0.00028425
0.00202948
0.000716503
0.00202312
0.00148593
0.000913884
0.00631782
0.00828049
0.00657363
0.00802406
0.00230135
0.00284895
0.0012656
0.0039184
0.000574831
0.00251098
0.000952821
0.00108137
0.00229057
0.00422994
0.000141031
0.00243534
0.00297044
0.00224893
0.00396092
0.00494598
0.00868939
0.00351877
0.00537417
0.00192851
0.00163335
0.0039477
0.000839626
0.0028199
0.00452134
0.00100942
0.00248233
0.000532633
0.00257819
0.00260738
0.0013162
0.00231284
0.00285528
0.00400204
0.00197328
0.00357254
0.000429993
0.00867472
0.00542416
0.00565803
0.00262163
0.000315751
0.00279514
0.0012625
0.0015605
0.000656224
0.00316411
0.00267146
0.000514774
0.00178262
0.00611016
0.0039416
0.00304738
0.000453274
0.000913672
0.00184403
0.00426156
0.00499058
0.00339916
0.00388678
0.000554947
0.000206622
0.00119918
0.00285034
0.00182294
0.00203308
0.000388374
0.00422861
0.00436709
0.00240624
0.00230199
0.00257938
0.00158178
0.00168983
0.00185802
0.00213844
0.00204435
0.000949215
0.000237497
0.00201883
3.83929e-05
0.00241782
0.00386985
0.00255035
0.00381693
0.00113137
8.32438e-05
0.000246248
0.00127752
0.00288435
0.00190827
0.00120966
0.00718533
0.00415137
0.00176586
0.00270266
0.00363459
4.08641e-05
0.00895407
0.0122972
0.00450848
0.0026011
0.00616529
0.00627326
0.000511299
0.00347793
0.00136756
5.72581e-05
3.4024e-05
0.00622714
0.00288072
0.000860136
0.00224473
0.0026016
0.00314593
0.00174649
0.00763628
0.0101652
0.00852027
9.93818e-05
0.00282835
0.00174867
0.00176795
0.000434475
0.00152529
0.000242318
0.000832457
0.000267336
0.000182062
0.000918406
0.00100285
0.000685471
6.56181e-05
0.000868818
0.00052532
0.0010665
0.00144007
0.00634422
0.00694478
0.00406527
0.00521529
0.00368226
5.30731e-06
0.00406938
0.00128269
0.000217238
0.0044516
0.000168458
0.00172601
0.00446366
0.00110522
0.00201434
0.000339042
0.000522934
0.00391916
0.00288266
0.00264329
0.00425486
0.00500677
0.0052515
0.00379529
0.00169661
0.00248676
0.000203422
0.0035192
0.00132056
0.00166858
0.00310423
0.00189006
0.000960282
0.000843207
1.92849e-05
0.00336151
0.000526867
0.000130661
0.0065503
0.00485133
0.00577436
0.00110853
0.00765675
0.00442563
0.00643727
0.00269416
0.0025638
0.0011378
0.000248121
0.00479808
0.00142126
0.00142264
0.000349635
0.00270632
0.00322544
0.00120146
0.00188754
0.000485202
0.00183088
0.00233703
0.00520444
0.00467837
0.00679899
0.0019835
0.00313214
0.00284135
0.00357031
0.00279439
0.00455813
0.00148863
0.000212441
0.00243921
8.13379e-05
0.000159917
0.00215392
0.000706859
0.00167423
0.0025516
0.000847345
0.000119547
0.0033523
1.42248e-05
0.00495241
0.00726493
0.00410691
0.00214374
0.00328921
0.0012992
0.00176947
0.00368025
0.000310351
0.00460879
0.00172915
0.000310178
0.0037033
6.62223e-05
0.00317956
0.00233178
0.00111062
7.0954e-05
0.00118252
0.000212364
0.000858348
0.00195463
0.0013862
0.00283171
0.00137542
0.00317915
0.00442757
0.00105194
0.00455976
0.000431883
0.0033502
0.00344004
0.00307605
0.00077373
0.00055004
0.00186067
0.00262631
0.0028532
0.00096288
0.0133124
0.0101847
0.00111209
0.00061605
0.00122167
0.00513025
0.000420397
0.00139796
0.00205086
0.00188587
0.00130437
0.00449153
0.00423568
0.000427143
0.00215136
0.000720931
0.00381039
0.00499674
0.00279129
0.00564311
0.00870258
9.60772e-05
0.0050882
0.00119706
0.00213713
0.000367215
0.00119107
0.000192243
0.00262361
0.000373654
0.000385866
0.00428667
0.00168284
0.00177549
0.000424024
0.000445387
0.000293931
0.00307899
0.000345482
0.0066314
0.0118518
0.00862239
0.00581289
0.00733441
0.00529052
0.00238688
6.15418e-05
0.00198419
0.00228546
0.000697361
0.0037174
0.00313329
0.00309677
0.00563708
0.00171551
0.00100652
0.0026921
0.00393772
0.00222176
0.00349216
0.00972175
0.00565142
0.00571075
0.00108811
0.00274823
0.000827826
0.00245277
0.00226608
0.00247216
0.00446004
0.00119749
0.000598051
0.00193713
0.00195096
0.00117266
0.000477228
0.00247595
0.00127699
0.00415655
0.00331999
0.00686448
0.00338578
0.00348114
0.00424179
0.00290286
0.00147214
0.00267232
0.00388957
0.000329793
0.00234775
0.0018148
0.00298888
0.000372603
0.00434162
0.00225072
5.83414e-05
0.000674821
0.00285589
0.00670252
0.0042207
0.00500009
9.03095e-05
0.00161835
0.00430778
0.00246322
0.00235597
0.00331203
0.000745932
0.00112166
0.00047198
0.00211579
0.000759583
0.00112268
0.0011138
0.00192546
0.00166865
6.24459e-05
0.00028733
0.00168083
0.0012629
0.00179979
0.00474381
0.00482861
0.00217477
0.00401439
0.00538955
0.00491573
0.0036987
0.000732187
0.00345156
0.00362414
0.00108429
0.00134519
0.00528388
0.000592768
0.00105023
0.00075228
0.0025498
0.000317828
0.00412314
0.00332132
0.00044853
0.00324198
0.000664394
0.00194713
0.00301262
0.000816555
0.001131
0.00203735
0.000469526
0.000426784
0.00170575
0.00541944
2.09947e-05
0.000235447
0.000932238
0.00571543
0.000718152
0.00367967
0.000862011
0.00844967
0.00752851
0.00501528
0.00468817
0.00174031
0.000525781
0.00516379
0.000132223
0.0014862
0.000497965
0.00296378
0.00387561
0.00268624
0.00229426
0.00012985
2.91574e-05
0.000893718
0.00240537
0.00509685
0.0131859
0.0116371
0.00534834
0.00275688
0.00412191
0.00278753
0.00161888
0.00379007
0.000783934
0.00237298
0.00443847
0.00167344
0.00161049
0.00490046
0.00116541
0.00418377
5.04966e-05
1.73753e-05
0.00648148
0.00470138
0.0103678
0.00571054
0.00717953
0.00551147
0.0036581
0.00112284
0.000826195
0.00296467
0.00188976
0.00359684
0.00128378
0.00342777
0.000682549
0.00211014
0.000780204
0.00129548
0.000618181
0.000656811
0.000629805
0.00580292
0.006365
0.0056702
0.00114083
0.000659798
0.00242551
0.00471923
0.000371955
4.81838e-05
0.00721869
0.00309562
0.00489623
0.000196508
0.00306531
0.000716104
0.00292227
0.00102472
0.00576213
0.00109704
0.0021735
0.000771261
0.00544586
0.00528467
0.00076543
0.000177983
0.000425055
0.0019498
0.00317263
0.00136338
0.00170532
0.00359295
0.000375338
0.000994316
0.00210941
0.00336533
0.000353068
0.00129846
0.00487964
0.00158641
0.00408138
0.000764511
0.00455274
0.00124412
0.00297462
0.00385184
0.000323475
0.000470019
0.00369645
0.00511912
0.00257245
0.00130617
0.00151196
0.000435499
0.00451672
0.000470247
0.000831121
0.00181126
0.00151252
0.00333853
8.68945e-05
0.00123558
0.000541396
0.00375067
0.0055021
0.00474072
0.00111915
0.00216165
0.00131972
0.000853483
0.000661345
0.00102824
0.00177421
0.00326315
0.00211365
0.000766756
0.0037081
0.00404709
0.00416169
0.00299031
0.00154947
0.00191521
0.00458104
0.00138535
0.00395704
0.00415274
0.00472562
0.00155633
0.000403807
0.00129048
0.00346558
0.00186287
0.00160065
0.00316326
0.00197694
0.0022788
0.00943517
0.00216487
0.00347429
0.00340478
0.000649764
0.00220286
0.00409169
0.00453963
1.62113e-06
0.0040017
0.00560589
0.000386512
0.000666125
0.00434642
0.00288505
0.00425214
0.0033618
0.00300079
0.00653919
0.0027363
0.000669186
0.00233667
0.00294771
0.0011484
0.0025141
0.00605036
0.00562108
0.00518312
0.0017705
0.00232962
0.000967855
0.00187608
0.000695694
0.000460101
0.00128655
0.00187135
0.00103117
0.000415142
0.00651962
0.000372022
0.00022584
0.000620837
0.00038721
0.000973823
0.000593045
4.78122e-05
0.00394087
0.00504825
0.00592478
0.00227885
0.00389898
0.000121314
0.00019682
0.000468608
0.00366238
0.000571344
0.00514823
0.0022474
0.00187415
0.00480682
0.000501976
0.00379072
0.00416434
0.00174475
0.00150329
0.00404306
0.00586098
0.00648976
0.00212657
0.00260038
0.00152506
0.00631398
0.0045368
0.00318668
0.000392125
0.0043599
0.000272466
0.000765536
0.000344825
0.000432605
0.00158832
0.000577742
0.00299988
0.00186741
0.00302214
0.00126016
0.00471604
0.00290714
0.000914707
0.00415672
0.00337136
0.00198248
0.00325662
0.00268174
0.00411486
0.00438188
0.00114709
0.00176153
0.00293366
0.00136139
0.00449264
0.00167483
0.000440806
0.0042144
0.00634168
0.00649034
0.00464409
0.00466665
0.0013994
0.00203256
0.00409068
0.00308213
0.00794991
0.00431655
0.00377636
0.00144748
0.00186679
0.00108771
0.00169525
0.00115379
0.00153466
0.00549104
0.00151417
0.000181529
0.00100371
0.00733008
0.00442807
0.00226035
0.00217632
0.000246105
0.00409466
0.0030181
0.00124013
0.000727131
0.000450003
0.00215318
0.000193657
0.0027586
0.00444798
0.000823509
2.21009e-05
0.00127204
0.00176885
0.00328556
0.00304428
0.000249838
0.00120209
0.0046554
0.000488898
0.00160584
0.000767124
0.000232303
0.00420794
0.000270229
0.000270145
0.000959987
0.000439093
0.00153661
0.00309341
0.000744304
0.00210327
0.00429615
0.00157918
0.00800912
0.00541851
0.00103846
0.00107069
0.0132795
0.0102643
0.00138121
0.00400624
0.000799655
0.0032591
0.000699028
0.00177146
0.000518855
0.000332024
2.09329e-05
0.00289226
0.00210024
0.00109495
0.0027194
0.00083193
0.00357267
0.00139059
0.00405315
0.0104782
0.0105238
0.00568318
0.005699
0.00100208
0.00274194
0.00141799
0.00207185
0.000886446
0.00342095
0.00432619
0.00116365
0.00287287
0.00393277
0.00112259
0.00954821
0.000425695
0.00274228
0.00103071
0.00200246
0.00813453
0.00301014
0.00468197
0.00161918
0.00321566
0.0030167
0.00195488
0.000705694
0.000400263
0.0014577
0.000748667
0.00297103
0.00129163
0.00216647
0.000881329
0.00113824
0.0053317
0.0060252
0.0023925
0.00310231
0.00570553
0.00950916
0.00265768
0.00432793
0.00149954
0.00266735
0.00282336
0.00258017
0.0002577
0.00107741
5.0677e-05
0.00249358
0.00143652
0.000793879
0.001489
0.00120547
0.00336877
0.00184499
0.0102252
0.000796139
0.00926082
0.00526154
0.00456522
0.00316061
0.00301639
0.00342175
0.000309892
0.000563013
0.00457883
0.00102442
0.001188
0.0013233
0.000480874
0.00332826
0.00257696
0.00315135
0.00140417
0.00218161
0.00274966
0.00189081
0.00476145
0.00217672
0.00173057
0.00203127
0.00115226
0.000935642
0.000498294
0.00106499
0.00376168
0.00107518
0.00283817
0.0020864
0.00349482
0.00187006
0.00271312
0.00118285
0.00264366
0.000956586
0.00291581
0.00196886
0.00136902
0.00269389
0.000975653
0.00633289
0.0018016
0.00130049
0.000424929
0.000662636
0.000972119
0.00352617
0.000298784
0.00165889
0.000718042
0.000297483
0.00135242
0.000944944
0.000289969
0.000734123
0.000760822
0.00632539
0.000374504
0.00186576
0.00307793
0.00144196
0.00233213
0.000372202
0.00537148
0.00737037
0.00348732
0.0012457
0.000125793
0.00346519
0.00173977
0.00107881
7.45821e-05
0.00412071
0.00199953
0.00150451
0.000853221
0.00350956
0.000837348
0.0121647
0.00131407
0.00614212
0.000175433
9.58064e-05
0.00212788
0.00067804
0.00137203
0.00276769
0.00193092
0.00349945
0.000383763
0.000137909
0.00375225
0.00241325
0.00328431
0.00426832
0.000277423
0.00479144
0.00460153
0.00999894
0.00110542
0.00134557
0.000750659
0.00166945
0.00172981
0.00164015
0.00087015
0.00114184
0.000877082
5.26929e-05
0.000202585
5.7078e-05
0.000956929
6.56765e-05
0.00205436
0.000142463
0.00363639
0.000255852
0.0059611
0.00640135
0.00729127
0.00380766
0.00215535
0.00446315
0.00188754
0.000661491
0.00375495
0.00268094
0.00108632
0.00366897
0.00123982
0.00337294
0.00233567
0.000969519
0.000509512
0.00120513
0.00309754
0.000665593
0.00531168
0.00266432
0.00277338
0.000475433
0.00155786
0.0015331
0.00287463
0.00434445
0.00348911
0.00217506
0.00217185
0.00357061
0.00198682
0.00168932
0.00220771
0.000184892
0.00112227
0.00124912
0.00052652
0.000272786
0.00762935
0.00667139
0.000719422
0.00310472
0.00220324
0.000629564
0.000138615
0.00109611
0.00234745
0.00328026
0.00235718
0.00109594
0.00241603
0.000645341
0.000159684
0.00236804
0.00332028
0.00196911
0.00268317
0.000509399
0.000161174
0.00251871
0.0024975
0.00284271
0.00330924
0.00212367
0.00253472
0.00165563
0.00134274
0.00168473
0.00155917
0.00203686
0.00113717
0.00260158
0.00130326
0.000259131
0.00161389
0.00171121
0.00176492
0.00247085
0.00444259
0.00426389
0.00188207
0.00116447
0.000387112
0.000819109
0.00144899
2.85307e-05
0.000487898
0.000378382
0.00407008
1.8839e-05
0.000500259
0.000237195
0.0033938
0.00462525
0.00294099
0.00504153
0.000558476
0.00148544
0.000587045
0.00376898
0.00110672
0.00171651
0.000545122
0.00498476
0.0054523
0.00168182
0.00449189
0.00259996
0.00263012
0.00123921
0.00368383
0.00203213
0.00206039
0.000568884
0.00218017
0.00037032
0.00101322
0.00286905
0.00434444
0.0108401
0.00073273
0.00381141
0.00141012
0.00042437
0.00841895
0.00374495
0.00179955
0.00100488
0.00118433
0.000662431
0.000802555
0.00526325
0.00158575
0.000343482
0.00275588
0.00249042
0.00222054
0.00149007
0.00472875
0.00553081
0.00662981
0.00232054
0.00274452
0.000106805
0.0020304
0.00351813
0.00385608
0.000469167
0.00256959
0.000980033
0.00269698
0.00467628
0.00160015
0.0024763
0.000114013
0.00277099
0.00117178
0.000948686
0.00192405
0.00566575
0.00168431
0.00466553
0.00264232
0.00496193
0.00114683
0.0023802
0.00485044
0.00494088
0.00550487
0.00657263
0.00427542
0.00381301
4.49314e-05
0.00108223
0.00833653
0.00387924
0.00386245
0.000583842
0.000725581
0.000300167
0.00258292
0.00133162
0.00193284
0.000904694
0.000649277
0.000601041
0.0019033
0.000111153
0.00264877
0.0023437
0.00610001
0.00299561
0.00252192
0.00158028
0.00194567
0.00399438
0.000480564
0.0014194
0.00391312
0.0071285
0.000406915
0.00193563
0.00661043
0.00127091
3.93463e-05
0.00292564
0.000103503
0.00464046
0.00523135
0.00245114
0.0014872
0.000571328
0.00300649
0.00426974
0.000594796
0.00151368
8.48344e-05
0.00183828
0.00196611
0.00465246
0.00319922
0.00131567
0.000522581
0.000862938
0.00154583
0.001818
0.00227283
0.000503421
0.00327666
0.000545795
0.00590698
0.000942673
0.00558122
0.000994964
0.00162025
0.00186885
0.00459423
0.00533182
0.00115172
0.00081115
0.00330358
0.000258412
0.00327794
0.00371787
0.00153974
0.00527923
0.00243335
0.00416598
0.00157275
0.00481631
0.00413781
0.00370468
0.0026959
0.000186891
0.00173522
0.00265638
0.00360805
8.28418e-05
0.00219241
0.00475836
0.00205997
0.000788811
0.000572252
0.00379705
0.000830671
0.000558019
0.00367097
0.00281462
0.00100141
0.000696471
0.00574107
0.00127613
0.00126126
0.00111195
0.0042592
0.00366103
0.000499555
0.000527305
0.00173876
0.00548664
0.00468583
0.000274765
0.00271051
0.00459574
0.00480343
0.00279185
0.00219506
0.00241181
0.00410257
0.00836575
0.00215399
0.00474514
0.0022928
0.00280863
0.00530782
0.00378734
0.000957657
0.00033054
0.00010425
0.00374691
0.000878806
0.00184184
0.000656057
0.0038903
0.000105734
0.00449356
0.00112149
0.00372881
0.000287607
0.000798918
0.00727995
0.00160312
0.000927323
0.00151202
0.00662005
0.000939792
0.000991754
0.000637119
2.85773e-06
0.00423232
0.000467208
0.000326786
0.00102143
0.00354634
0.00492296
0.00440014
0.00497444
0.000815422
0.00749531