/*--------------------------------*- C++ -*----------------------------------*\
| =========                 |                                                 |
| \\      /  F ield         | OpenFOAM: The Open Source CFD Toolbox           |
|  \\    /   O peration     | Version:  2212                                  |
|   \\  /    A nd           | Website:  www.openfoam.com                      |
|    \\/     M anipulation  |                                                 |
\*---------------------------------------------------------------------------*/
FoamFile
{
    version     2.0;
    format      ascii;
    arch        "LSB;label=32;scalar=64";
    class       volScalarField;
    location    "0";
    object      stateMean;
}
// * * * * * * * * * * * * * * * * * * * * * * * * * * * * * * * * * * * * * //

dimensions      [0 0 0 1 0 0 0];

internalField   nonuniform List<scalar> 
3200
(
328.438
329.049
328.008
326.614
327.264
329.013
327.625
325.893
328.092
327.001
327.552
329.119
327.785
328.451
327.619
326.966
326.883
325.991
328.126
329.968
325.32
324.341
324.514
323.968
323.975
324.749
323.635
323.21
324.552
322.995
323.796
324.478
324.404
323.498
323.712
323.448
323.045
321.791
324.843
323.59
321.084
321.524
318.872
320.621
319.64
319.479
322.207
320.431
320.363
320.485
320.836
320.655
320.914
320.893
320.505
319.533
321.292
320.027
320.335
320.56
316.425
317.955
316.843
316.329
316.315
317.206
316.83
317.027
316.549
317.533
317.3
317.885
315.973
315.734
315.44
316.689
318.261
315.516
316.722
317.201
313.822
313.216
313.565
312.704
311.438
311.224
312.288
313.084
311.569
311.439
313.319
312.556
313.036
312.615
313.08
312.502
312.458
313.235
313.006
310.885
310.242
310.895
309.896
307.998
309.4
308.684
310.23
310.189
310.047
309.159
307.841
310.837
310.156
310.165
308.797
308.017
308.183
308.178
307.651
310.348
305.167
305.636
305.324
305.496
306.285
306.365
304.319
306.646
304.912
307.144
307.022
305.349
305.319
305.4
305.728
306.307
305.195
303.702
304.769
304.263
301.613
301.663
301.965
300.437
300.694
300.894
302.03
300.255
301.921
302.034
302.42
301.968
301.154
302.155
302.079
301.375
301.566
303.352
300.362
299.88
330.211
326.147
329.281
327.125
325.72
327.757
327.495
329.73
328.121
328.19
328.015
328.085
329.106
327.233
327.046
326.566
327.836
326.588
327.046
329.032
326.002
323.521
324.878
323.979
324.205
324.802
322.846
325.477
323.677
326.057
325.561
324.798
325.285
323.297
324.286
322.236
323.961
322.635
323.408
324.878
320.685
321.992
321.543
319.233
320.008
318.95
319.01
320.475
319.7
319.836
320.678
319.514
322.193
319.786
319.227
319.817
319.316
319.433
319.812
321.201
315.712
316.639
317.262
316.945
316.456
316.355
316.633
315.634
315.175
317.085
317.057
316.567
317.411
315.382
316.269
316.851
316.699
316.761
316.858
316.846
314.929
312.25
311.51
312.406
312.825
313.125
311.965
313.33
313.178
311.564
313.222
313.066
313.742
313.481
312.377
313.327
312.083
312.258
312.525
313.269
309.327
310.218
310.496
308.921
310.231
308.342
308.222
310.244
308.663
310.365
307.459
309.699
308.695
308.838
308.709
308.452
308.554
308.407
307.237
309.503
306.983
306.344
305.198
306.117
305.466
305.014
305.403
305.593
304.853
304.855
307.4
306.715
304.349
306.036
305.998
304.904
305.179
305.296
306.347
304.759
301.911
299.794
301.878
301.548
302.129
302.618
300.76
301.336
301.013
302.601
300.485
303.588
301.059
303.411
301.598
300.917
301.978
301.828
300.719
301.549
331.089
329.674
328.328
328.758
328.828
328.323
327.272
328.152
328.229
328.215
328.106
329.578
328.53
327.661
327.923
327.112
327.486
325.883
328.816
328.472
324.627
324.929
324.747
324.575
324.203
325.15
324.628
326.294
324.604
324.367
323.744
324.745
324.744
324.502
323.664
324.013
324.167
323.27
324.925
325.48
321.787
321.185
319.803
321.161
319.791
322.274
320.808
320.857
320.482
321.876
320.096
322.305
320.962
319.857
319.956
318.255
318.578
320.105
320.316
319.395
318.714
318.115
317.837
316.522
315.859
316.773
316.403
317.552
316.654
318.278
318.619
315.807
316.798
316.326
316.118
317.757
316.035
316.816
317.195
316.213
314.889
312.522
312.682
313.334
313.021
312.314
313.433
312.322
313.263
314.194
313.338
313.321
314.291
314.281
312.864
314.252
311.908
311.2
313.604
314.331
310.059
310.385
310.125
308.849
308.489
308.996
310.383
310.292
308.993
309.179
311.598
309.286
308.895
309.133
308.008
308.838
306.619
309.3
309.575
308.561
306.138
305.586
306.487
304.545
305.649
304.468
306.797
305.884
306.651
304.253
306.254
305.984
304.304
305.011
304.646
306.354
304.421
304.503
306.595
304.922
302.505
302.584
300.997
301.2
301.574
301.06
302.543
301.995
302.059
301.179
301.617
302.908
301.277
302.586
300.586
302.491
300.964
300.394
299.77
302.954
330.314
328.962
329.647
329.279
327.397
328.745
327.656
328.609
329.874
329.426
330.564
330.749
329.541
328.631
328.513
327.838
327.582
329.647
328.551
328.067
324.247
324.06
323.893
324.104
323.357
324.999
324.345
326.348
324.86
326.068
325.906
326.669
325.766
324.618
325.345
324.283
324.523
325.541
323.656
326.714
320.911
321.953
318.914
320.349
320.763
320.459
321.192
321.922
321.202
320.672
322.29
321.521
320.497
321.612
320.826
320.387
320.606
320.366
320.529
320.915
318.125
316.564
316.169
317.41
316.653
317.141
317.935
318.168
317.303
317.773
317.991
317.286
318.756
316.78
317.554
316.456
316.185
316.828
315.566
317.228
313.333
314.127
313.617
312.75
313.186
312.704
312.853
312.75
314.54
313.82
313.415
314.111
313.483
313.425
313.808
313.434
312.616
311.297
313.509
314.247
308.646
309.218
309.925
308.48
308.629
309.367
310.72
309.792
309.284
309.127
310.682
309.439
310.112
309.287
309.633
309.728
309.408
309.366
310.031
309.014
306.456
306.786
306.514
306.163
304.92
306.561
304.228
304.971
305.412
304.093
304.936
304.916
305.944
306.124
305.38
305.237
307.516
305.222
306.657
305.221
300.177
301.791
302.473
301.403
301.534
302.042
301.719
300.699
302.892
301.762
302.931
301.845
301.378
302.034
302.318
302.719
301.223
301.473
299.614
301.135
331.341
330.19
330.498
328.954
327.833
329.641
329.694
329.196
330.169
329.841
330.371
328.482
330.05
329.008
328.469
328.502
328.263
330.223
327.532
329.072
325.324
326.279
324.643
323.981
324.063
325.004
324.455
326.788
327.098
325.6
326.483
325.45
324.313
324.907
324.034
324.293
324.324
325.395
324.822
326.085
323.566
320.599
321.824
322.61
320.421
321.549
321.852
321.501
321.532
321.822
321.584
323.184
321.144
320.418
320.732
322.226
320.75
321.318
321.959
321.03
317.05
317.787
316.632
317.017
317.583
317.795
316.647
317.286
316.66
318.642
316.26
318.142
317.492
318.237
316.204
317.239
316.873
316.258
318.244
317.118
314.242
312.956
312.756
312.959
314.857
313.01
314.773
312.925
313.422
314.507
314.614
313.975
313.424
312.562
312.588
313.029
312.916
313.546
312.276
312.615
309.733
309.157
309.777
309.605
310.825
309.357
309.35
308.938
309.539
309.604
310.421
308.871
310.255
310.067
309.89
309.976
309.399
309.314
309.312
310.193
305.543
307.049
306.443
304.335
305.504
304.702
305.704
305.613
305.389
308.224
306.158
305.759
306.223
306.346
306.685
305.415
304.633
304.331
305.471
304.047
301.945
302.443
302.641
301.26
303.459
301.267
302.393
302.336
303.731
301.27
302.076
301.856
300.842
302.081
300.446
302.492
301.491
301.799
301.586
302.626
331.603
330.2
329.412
329.892
330.453
329.615
329.979
330.46
331.161
328.302
331.484
330.938
329.481
329.889
329.344
328.894
327.722
328.221
329.392
330.971
327.177
324.393
327.642
325.257
324.993
325.816
326.197
326.657
325.628
326.856
327.317
327.002
326.539
324.423
325.847
325.051
325.336
324.55
324.447
326.19
321.781
323.324
322.653
321.555
321.666
321.294
320.997
320.919
322.688
322.491
322.296
323.752
321.814
321.954
321.939
319.752
321.283
320.981
322.197
320.515
318.358
316.976
318.626
317.608
317.821
318.605
318.105
318.641
317.468
319.282
318.71
317.492
318.75
318.922
317.515
316.229
318.145
317.895
317.784
317.752
314.613
313.36
312.837
314.042
313.867
314.676
312.473
314.091
313.556
314.397
314.876
313.938
313.631
313.926
313.99
314.701
312.426
313.799
313.192
313.578
311.357
309.829
310.436
310.07
310.011
310.015
309.35
311.071
308.288
309.783
310.044
311.091
310.231
311.423
311.395
308.561
309.004
309.516
308.689
309.771
305.726
306.884
304.882
307.235
306.425
305.061
304.356
304.879
305.762
306.558
306.044
307.584
305.245
305.862
305.456
303.416
305.732
306.229
306.264
307.315
302.611
303.633
301.527
303.936
301.765
301.617
301.985
301.575
300.808
303.323
301.232
303.018
300.769
302.624
301.559
300.674
301.514
301.839
300.324
302.531
332.506
331.438
329.938
329.329
330.402
330.014
329.597
331.016
331.129
332.53
332.164
331.5
332.296
330.539
329.525
330.372
330.028
330.756
331.794
330.524
327.782
326.492
327.538
327.328
326.533
326.002
327.251
327.414
327.58
330.262
327.796
327.483
326.774
325.323
324.939
325.234
325.361
326.268
326.987
326.519
325.547
323.612
321.945
322.755
322.373
321.311
322.861
323.221
323.693
323.344
323.732
323.133
322.874
322.116
322.297
321.542
320.84
321.252
321.807
321.917
319.531
319.187
316.971
318.204
318.8
317.645
317.338
317.446
318.399
319.341
318.202
319.582
319.623
317.667
318.624
318.393
318.107
317.679
317.713
319.005
315.372
314.735
314.363
315.731
313.921
315.269
312.766
313.974
313.13
314.317
314.81
312.936
314.216
314.439
313.398
313.073
313.206
314.364
313.125
313.686
310.641
309.559
310.472
309.161
309.525
310.057
309.545
311.953
310.734
310.682
310.666
310.027
311.379
310.602
309.637
309.9
309.416
309.208
310.351
311.501
307.806
306.257
307.39
305.784
306.736
304.307
305.813
306.224
307.371
308.371
306.277
305.26
306.571
305.884
305.917
305.087
306.319
305.964
303.978
307.072
302.891
302.465
301.875
303.853
301.987
300.44
301.737
301.286
300.913
302.18
301.476
302.867
302.34
300.651
301.392
302.624
301.483
302.328
302.636
301.506
333.531
331.737
331.342
331.734
330.559
331.017
332.411
332.331
331.945
331.586
333.207
331.209
331.583
331.538
332.226
330.391
331.574
330.845
331.776
332.097
327.334
325.614
326.083
326.172
328.278
326.854
327.215
327.372
327.86
327.466
327.186
328.546
326.774
326.12
326.913
326.712
326.247
327.943
325.677
327.006
323.293
324.277
324.148
323.36
322.888
322.194
322.415
323.683
321.451
323.354
322.723
323.54
324.321
323.126
321.929
323.703
321.413
323.397
323.484
323.189
319.134
318.867
319.495
318.864
318.633
318.483
318.452
316.99
320.138
318.488
319.691
318.316
317.679
318.935
318.08
317.961
319.138
318.328
319.019
319.259
315.612
315.706
313.961
315.646
314.57
314.83
313.64
314.48
315.021
313.622
315.895
315.399
315.373
314.03
314.188
313.808
315.334
313.909
313.897
313.8
309.15
312.148
310.845
310.764
310.882
311.09
309.692
310.645
310.185
310.462
309.987
310.522
309.927
309.862
309.334
309.874
310.962
307.991
309.613
310.034
306.512
305.196
306.809
306.575
306.098
304.976
306.884
305.488
305.128
306.636
305.095
306.04
305.936
307.009
306.402
304.766
306.268
306.568
305.644
305.564
301.829
301.647
303.436
301.788
302.238
302.377
301.826
303.749
301.703
301.643
301.92
302.223
301.886
303.184
302.417
302.458
301.624
300.556
302.178
301.94
332.798
333.559
333.243
332.037
331.42
331.952
332.366
334.611
332.565
334.191
333.474
334.03
333.009
331.849
331.498
331.554
330.438
332.353
332.469
332.986
327.67
328.463
328.754
328.013
327.579
328.207
328.124
328.724
327.59
328.109
329.189
330.286
328.035
327.653
327.523
326.47
328.067
327.697
327.599
329.054
324.092
323.424
323.918
324.066
322.765
324.3
323.95
323.756
323.696
323.765
324.577
323.935
323.333
322.601
323.285
323.482
323.073
322.655
324.176
324.638
320.017
320.615
318.973
317.525
318.222
320.058
319.158
319.913
319.515
319.607
319.993
320.561
319.157
318.198
319.756
317.908
319.693
319.815
320.827
319.046
315.601
314.624
313.643
315.546
314.719
313.711
316.15
314.516
314.128
315.118
315.762
315.731
315.248
313.999
313.7
313.197
314.925
315.278
314.153
316.637
311.607
311.753
310.911
310.106
311.178
310.806
310.991
310.378
311.619
311.495
310.505
311.19
312.48
311.73
311.36
310.17
309.921
310.67
311.32
311.473
306.995
307.188
306.228
306.059
305.819
307.121
305.745
305.726
306.262
307.695
307.737
307.118
307.054
305.513
306.732
305.669
305.553
306.712
306.625
306.245
302.067
301.4
302.017
301.321
303.241
302.863
303.265
301.785
302.163
302.07
301.758
301.267
302.704
302.477
299.922
303.326
301.518
301.213
303.108
302.007
334.035
335.371
333.073
332.739
334.221
334.543
332.881
334.078
333.525
333.167
333.137
335.144
333.879
332.997
331.711
331.309
330.832
332.157
333.827
334.436
329.602
327.04
328.177
326.936
328.345
328.155
328.733
328.333
328.27
328.522
328.67
328.241
328.084
328.457
327.99
327.481
327.681
326.902
327.479
328.89
324.852
324.082
324.659
324.383
323.409
324.935
323.39
323.888
325.51
324.18
324.684
325.514
324.316
323.153
323.728
323.242
321.926
323.906
323.623
323.985
320.042
320.248
319.952
319.461
318.305
319.204
318.297
319.968
319.103
320.675
320.287
319.329
319.815
319.415
320.342
318.931
318.962
320.83
320.121
320.287
314.665
316.822
315.937
316.709
313.974
315.761
315.431
315.248
316.753
315.724
314.827
315.13
316.023
316.089
315.332
314.228
314.53
313.969
315.15
315.953
311.664
312.392
310.991
311.446
311.455
309.558
311.62
312.238
311.334
310.963
311.655
310.846
310.771
311.421
310.447
311.093
311.266
310.638
310.319
311.253
306.123
307.685
308.449
305.026
305.686
305.392
306.053
305.95
305.394
306.633
307.951
307.052
306.587
305.316
306.42
305.369
305.57
305.884
306.147
305.765
302.117
302.326
301.495
302.524
302.981
301.728
303.122
300.837
301.867
303.568
302.059
301.173
303.214
301.232
302.378
302.291
302.667
301.292
302.929
302.344
336.478
335.654
332.901
333.012
333.488
335.051
333.713
334.23
334.584
334.599
334.405
335.399
335.177
333.431
334.058
332.841
334.075
334.193
333.197
333.932
330.519
327.877
329.741
328.704
329.25
328.652
328.582
329.076
330.12
329.44
329.444
327.845
329.693
328.39
328.912
328.694
328.214
329.082
327.959
329.84
327.159
326.264
325.547
326.243
325.783
325.033
324.409
323.924
325.409
324.945
325.926
325.684
325.573
326.258
324.815
323.743
324.74
324.941
324.194
324.456
322.132
320.954
321.128
319.818
320.513
320.055
319.144
320.768
320.915
321.595
320.55
320.315
319.423
320.553
320.165
319.788
320.261
318.897
317.823
320.089
316.93
315.927
316.077
316.446
316.152
315.822
316.31
316.782
315.514
316.392
316.224
316.561
315.437
316.837
316.068
315.255
315.322
314.081
316.971
316.098
312.088
310.628
311.189
312.116
311.635
311.688
310.002
310.864
310.792
311.017
310.506
310.905
310.747
311.378
310.356
311.388
310.758
310.775
311.122
310.927
306.871
304.906
307.89
307.132
307.75
308.224
305.112
307.791
306.909
307.757
307.81
307.017
306.244
304.999
306.754
306.842
306.235
305.629
306.456
307.583
303.12
302.266
301.168
301.965
302.772
303.112
301.97
302.572
301.623
302.102
302.115
302.755
303.868
302.223
302.273
301.902
300.439
302.365
301.018
302.377
335.967
335.858
335.264
335.41
334.678
334.51
336.272
334.672
335.336
334.735
335.895
336.136
333.817
335.312
334.377
334.107
334.143
334.393
335.047
337.545
332.432
330.533
329.891
330.562
328.504
329.094
331.06
330.218
329.282
331.585
329.568
329.533
328.342
329.426
331.007
329.405
329.211
331.116
330.321
332.015
325.97
326.585
326.222
325.807
325.169
325.246
324.168
325.873
326.518
325.812
326.509
325.57
325.944
325.386
325.399
325.005
324.833
324.638
326.139
326.182
321.489
320.152
320.142
319.307
321.745
320.495
320.517
322.919
321.671
319.146
320.779
321.661
320.835
321.439
320.704
322.079
320.434
320.626
320.034
321.417
316.935
315.113
315.41
315.45
316.318
314.81
315.48
316.53
314.912
315.958
315.763
315.381
317.054
315.799
316.222
317.243
316.085
316.754
315.595
316.704
311.278
311.877
312.229
311.217
311.346
310.128
312.943
310.605
311.04
311.939
311.604
312.854
311.26
311.09
311.843
311.671
310.077
311.058
311.336
311.059
307.684
308.257
308.072
306.325
307.382
306.361
307.07
306.64
306.551
306.336
305.879
306.218
307.078
307.946
308.008
305.443
307.585
307.093
307.157
307.938
301.77
303.397
303.472
303.662
301.781
302.389
302.671
301.244
301.738
302.789
303.261
301.703
301.603
299.429
301.613
303.301
301.205
302.413
302.867
300.953
335.87
334.533
336.098
336.87
335.352
335.214
337.086
334.813
337.32
337.077
336.956
338.088
334.863
335.852
336.221
336.21
335.377
335.6
336.558
336.231
331.351
330.38
330.759
329.872
331.011
330.808
330.59
331.303
331.591
331.362
331.158
333.13
330.754
330.667
330.783
330.519
330.514
330.186
329.78
330.941
326.63
327.043
326.021
326.72
325.659
325.713
325.764
327.224
326.297
327.831
325.419
326.722
324.463
325.753
327.012
326.975
326.019
325.769
326.431
326.894
322.463
321.169
321.454
321.249
322.924
319.571
320.118
321.36
322.701
321.246
321.088
321.411
321.373
320.631
321.212
319.935
320.161
321.589
320.083
321.895
316.736
315.608
317.314
317.175
316.843
317.347
315.557
317.78
315.142
316.192
315.997
315.6
316.909
317.827
315.787
316.355
317.441
318.004
317.947
317.285
312.735
310.902
312.045
310.216
312.526
314.115
313.047
312.93
312.241
312.391
312.148
312.319
311.393
311.224
313.349
312.038
311.547
311.725
313.62
309.904
307.461
307.47
306.77
305.636
307.865
306.601
306.797
307.189
307.734
307.143
307.931
305.707
306.798
307.013
306.592
306.396
307.901
307.78
306.879
307.137
300.86
302.131
302.778
302.077
302.254
303.611
302.27
302.28
302.659
302.506
301.908
301.434
302.137
302.988
301.04
302.801
304.73
303.931
302.593
301.943
340.116
339.274
336.498
337.595
336.188
337.749
336.588
336.365
337.235
336.999
337.104
336.085
336.254
337.192
337.567
336.177
337.449
336.501
337.188
339.176
334.248
332.791
332.975
331.605
332.363
331.154
332.459
332.187
330.842
333.458
332.408
332.932
333.198
331.4
328.458
331.313
332.181
331.429
331.573
333.458
326.917
327.581
326.732
327.41
327.499
326.018
326.552
326.754
327.434
327.239
326.022
327.379
326.177
327.071
327.029
324.773
324.395
326.984
327.066
327.796
324.209
322.104
322.764
321.983
320.768
320.835
321.017
321.847
321.642
322.035
321.216
322.452
321.674
321.368
321.355
322.709
320.908
324.659
320.994
324.129
318.081
317.934
317.585
315.728
315.697
316.97
316.774
315.565
316.738
317.464
316.667
317.215
318.072
317.769
315.873
316.336
315.992
315.714
317.087
317.923
312.387
312.3
312.461
312.258
311.677
312.189
311.759
313.312
312.506
313.073
311.536
313.261
311.554
312.938
311.665
311.144
312.197
310.919
311.146
312.135
307.851
306.755
309.04
307.691
307.579
307.35
307.457
307.58
306.217
307.403
307.821
307.522
307.19
307.669
306.929
307.269
307.363
307.329
308.997
307.139
302.917
303.294
302.813
301.686
302.518
304.042
304.659
303.494
302.823
302.411
303.497
302.972
302.765
302.453
303.664
301.8
302.846
302.119
301.302
302.606
341.171
337.67
339.488
337.671
337.834
337.259
338.361
337.793
339.28
339.043
337.206
338.214
338.21
339.401
338.794
338.911
339.053
337.51
338.843
338.622
335.302
331.748
331.831
332.697
333.167
332.189
333.445
332.717
332.703
333.414
333.104
333.15
332.988
332.58
332.787
333.295
332.4
333.486
332.03
333.962
329.052
329.453
328.451
328.055
326.026
326.999
327.514
326.591
327.007
327.564
326.717
327.479
326.716
328.496
327.299
327.321
326.955
328.219
327.286
328.696
322.846
322.969
322.341
321.803
321.925
321.598
321.216
321.567
322.043
323.474
323.925
322.104
322.148
323.33
322.465
322.781
321.902
322.018
321.988
324.445
319.176
317.356
318.201
316.608
317.195
317.434
317.202
316.862
316.607
316.921
317.322
316.882
317.813
317.601
316.726
316.341
316.682
318.067
316.966
317.112
312.954
312.996
313.166
313.377
313.07
311.673
312
312.139
312.061
312.116
311.966
312.233
311.746
312.924
312.546
312.911
311.809
311.727
312.987
313.555
308.609
307.906
307.723
307.523
307.694
307.032
307.518
307.384
307.435
306.308
307.554
307.397
307.607
306.465
308.9
306.538
308.954
307.537
307.785
307.119
301.305
302.12
301.948
302.315
300.985
304.154
302.006
301.165
301.743
303.329
302.908
301.416
301.909
301.892
302.677
303.152
302.592
302.773
303.323
301.131
342.254
338.975
340.193
338.601
339.395
336.553
338.277
339.049
339.397
339.377
340.004
339.465
337.872
339.011
339.293
338.316
338.235
339.654
339.232
340.185
335.127
335.615
332.781
334.626
333.895
333.319
332.942
332.925
334.125
335.176
333.989
333.38
332.651
333.582
333.17
333.897
332.785
333.946
333.721
333.925
329.912
328.706
329.811
327.542
326.906
328.276
329.538
330.432
327.269
327.113
326.762
327.488
327.583
328.77
328.297
325.797
329.684
329.547
328.345
328.291
322.975
323.793
322.632
322.544
323.564
323.158
323.645
322.902
323.601
322.733
322.832
321.591
322.549
322.635
322.857
323.901
324.46
323.217
323.417
324.141
320.016
317.684
317.278
315.874
318.46
318.118
319.127
318.215
316.807
316.638
317.523
318.757
318.066
317.239
316.773
317.867
317.495
317.866
318.397
318.376
314.114
313.703
313.171
312.657
312.607
312.446
312.408
312.303
313.198
314.08
313.225
311.191
313.309
311.23
313.241
312.37
313.405
314.197
314.37
313.019
307.344
308.636
307.574
308.699
306.58
308.23
306.159
307.058
306.54
308.314
306.347
306.548
306.667
306.954
307.698
308.258
306.873
306.544
307.595
308.268
301.104
303.176
302.325
302.749
303.737
302.347
302.439
301.504
301.768
302.926
302.834
300.883
302.229
302.226
302.934
303.877
303.684
302.413
302.393
302.018
342.048
341.909
340.379
339.712
339.225
339.297
340.107
340.41
340.406
339.865
338.41
340.494
339.54
340.277
339.977
338.982
339.345
340.147
340.426
340.217
335.911
334.474
334.288
334.826
333.877
335.341
333.907
335.124
334.31
335.495
335.86
333.118
334.962
335.103
335.813
332.962
334.731
334.573
334.555
334.658
330.598
329.451
329.521
329.869
328.477
328.129
328.392
328.276
329.699
327.521
328.893
328.524
328.493
328.369
328.236
328.306
329.596
329.091
329.482
331.94
325.155
324.608
323.255
324.838
324.549
321.791
322.075
323.83
324.279
323.891
325.199
324.894
323.723
323.296
323.126
322.944
322.956
323.952
324.603
324.844
319.523
318.993
318.109
317.717
317.74
317.77
317.578
317.944
317.766
318.091
317.106
317.865
317.946
317.634
317.309
318.184
318.11
319.276
319.059
320.537
313.485
313.291
311.991
313.197
313.183
313.455
313.792
312.516
311.78
314.356
313.543
312.653
314.465
313.03
312.75
313.085
311.779
312.442
311.574
313.917
307.402
306.88
308.518
308.909
307.345
308.738
307.529
308.236
307.711
308.072
306.883
308.577
308.352
304.891
308.749
307.019
307.778
307.514
306.627
309.955
303.333
302.213
302.321
303.561
302.152
301.984
302.69
302.477
301.441
303.41
302.822
303.551
303.032
302.053
302.439
302.417
303.148
302.076
302.398
302.703
342.256
342.288
342.69
340.667
340.678
342.396
339.823
340.889
342.032
341.686
339.913
342.975
339.962
341.163
341.601
340.903
340.018
341.194
341.969
342.944
335.983
335.691
337.02
335.882
335.51
335.591
334.621
335.517
334.922
335.343
334.645
334.735
334.644
333.924
334.981
335.332
333.722
335.716
336.269
336.475
332.963
330.657
330.226
328.49
329.128
329.35
330.258
330.758
330.313
328.884
329.917
329.324
329.451
329.537
329.896
329.389
328.889
331.115
330.422
329.273
325.352
324.266
324.549
323.907
323.346
324.879
325.953
322.637
323.595
324.306
324.823
323.93
324.232
324.45
324.53
325.459
323.236
323.777
324.638
324.046
318.554
319.304
318.774
317.037
319.636
317.23
319.016
319.189
318.571
318.363
319.064
317.386
319.532
317.938
317.855
317.36
319.387
318.203
318.686
318.529
314.687
315.138
312.772
313.453
311.45
312.285
312.187
312.457
314.056
312.742
313.48
314.607
311.7
314.134
311.968
313.858
313.967
313.891
313.482
312.563
309.21
306.861
309.072
309.413
306.855
307.099
307.557
308.324
307.838
308.141
307.639
307.064
307.031
308.392
308.163
308.716
307.255
307.765
308.049
307.316
303.36
303.991
302.836
302.909
302.497
302.029
304.082
303.606
303.241
302.265
303.02
302.236
302.299
302.998
302.538
301.317
303.142
303.987
303.247
302.469
344.526
342.317
343.463
342.28
341.87
340.74
340.755
342.626
339.762
342.9
341.513
341.564
342.649
341.156
340.413
341.244
341.769
342.866
340.899
342.441
336.897
337.573
337.248
337.47
335.366
337.481
335.487
338.292
334.328
337.968
338.312
335.093
337.606
336.596
337.968
336.475
337.385
335.764
337.66
336.249
331.084
331.775
331.154
331.503
330.386
329.698
329.92
330.509
330.729
329.748
330.028
329.261
330.397
329.3
330.451
329.551
329.654
331.181
329.585
331.611
325.616
326.294
325.919
325.943
324.242
323.088
323.022
324.975
323.329
324.405
323.797
324.101
322.869
324.204
323.2
325.332
325.021
324.73
325.928
324.941
319.236
319.445
319.133
319.632
320.146
318.954
318.545
318.499
318.032
319.446
319.643
319.628
319.889
320.298
319.577
318.946
318.801
320.017
319.531
319.357
315.192
314.129
313.52
313.112
313.836
313.375
311.934
313.471
313.827
312.716
314.43
313.438
313.889
314.453
315.229
314.23
313.167
314.023
313.019
313.629
307.729
307.126
307.921
307.854
308.184
307.912
307.851
307.551
307.724
307.46
308.795
308.119
308.046
309.106
308.452
306.726
308.547
308.537
308.683
309.406
304.421
302.68
303.742
303.921
302.23
303.278
302.099
302.54
301.362
303.327
302.942
303.863
302.331
303.384
304
303.338
302.355
302.458
303.422
301.902
345.597
343.035
343.456
344.429
344.064
342.757
342.505
343.446
341.115
342.585
340.81
342.736
342.707
341.162
342.088
342.118
342.99
342.734
343.266
343.424
339.232
337.437
336.607
336.272
336.543
336.336
337.375
335.376
335.653
337.279
334.533
334.992
336.619
335.166
335.36
334.752
336.591
335.962
337.658
336.8
330.969
333.311
331.805
328.239
331.704
331.381
329.219
331.66
330.007
330.523
332.236
331.51
329.748
329.735
328.462
329.73
331.195
331.309
329.762
332.833
326.787
326.066
326.875
325.015
325.727
324.578
324.083
323.137
325.581
324.785
324.373
324.767
325.602
322.885
325.953
325.495
325.162
325.117
326.137
326.04
320.823
320.896
318.352
319.207
319.626
318.425
319.558
318.986
318.466
318.421
319.476
319.112
319.249
318.845
320.085
320.455
318.751
319.862
319.484
321.006
314.163
314.012
314.753
314.514
313.06
315.57
312.688
314.429
313.353
314.669
314.176
313.793
314.313
314.283
313.558
313.858
313.348
313.294
314.567
314.645
309.363
309.198
309.252
307.274
306.99
309.357
305.947
308.993
309.089
310.613
308.107
309.05
308.717
308.745
307.547
307.909
308.673
308.949
307.778
309.377
302.238
303.124
302.473
302.818
300.993
303.379
302.42
303.25
301.882
302.479
301.217
303.601
302.606
301.933
302.795
303.495
303.158
303.707
302.035
303.796
)
;

boundaryField
{
    hotSide
    {
        type            fixedGradient;
        gradient        nonuniform List<scalar> 
400
(
321.511
322.87
325.591
329.677
335.133
341.965
350.181
359.788
370.794
383.208
397.037
412.289
428.971
447.088
466.647
487.651
510.105
534.011
559.372
586.191
323.738
325.08
327.767
331.802
337.194
343.949
352.078
361.591
372.498
384.81
398.537
413.687
430.268
448.289
467.755
488.672
511.043
534.872
560.161
586.913
326.149
327.47
330.116
334.091
339.406
346.071
354.099
363.503
374.296
386.491
400.101
415.136
431.606
449.52
468.885
489.706
511.988
535.735
560.948
587.63
328.704
330
332.597
336.503
341.73
348.292
356.205
365.485
376.15
388.215
401.695
416.604
432.954
450.753
470.009
490.73
512.919
536.579
561.714
588.325
331.33
332.599
335.142
338.97
344.099
350.546
358.332
367.477
378.003
389.928
403.271
418.047
434.27
451.949
471.095
491.712
513.807
537.382
562.439
588.978
333.918
335.158
337.643
341.389
346.414
352.74
360.392
369.397
379.779
391.562
404.765
419.407
435.503
453.065
472.101
492.618
514.622
538.114
563.096
589.569
336.321
337.531
339.959
343.622
348.544
354.751
362.274
371.142
381.385
393.031
406.101
420.618
436.595
454.047
472.983
493.409
515.33
538.747
563.663
590.076
338.36
339.543
341.92
345.509
350.339
356.44
363.847
372.595
382.718
394.244
407.2
421.608
437.485
454.844
473.695
494.045
515.897
539.253
564.114
590.478
339.852
341.015
343.352
346.885
351.645
357.665
364.985
373.643
383.675
395.113
407.984
422.312
438.116
455.407
474.197
494.491
516.294
539.606
564.428
590.758
340.643
341.795
344.11
347.613
352.334
358.311
365.584
374.193
384.176
395.567
408.393
422.679
438.443
455.699
474.456
494.722
516.498
539.788
564.589
590.901
340.643
341.795
344.11
347.613
352.334
358.311
365.584
374.193
384.176
395.567
408.393
422.679
438.443
455.699
474.456
494.722
516.498
539.788
564.589
590.901
339.852
341.015
343.352
346.885
351.645
357.665
364.985
373.643
383.675
395.113
407.984
422.312
438.116
455.407
474.197
494.491
516.294
539.606
564.428
590.758
338.36
339.543
341.92
345.509
350.339
356.44
363.847
372.595
382.718
394.244
407.2
421.608
437.485
454.844
473.695
494.045
515.897
539.253
564.114
590.478
336.321
337.531
339.959
343.622
348.544
354.751
362.274
371.142
381.385
393.031
406.101
420.618
436.595
454.047
472.983
493.409
515.33
538.747
563.663
590.076
333.918
335.158
337.643
341.389
346.414
352.74
360.392
369.397
379.779
391.562
404.765
419.407
435.503
453.065
472.101
492.618
514.622
538.114
563.096
589.569
331.33
332.599
335.142
338.97
344.099
350.546
358.332
367.477
378.003
389.928
403.271
418.047
434.27
451.949
471.095
491.712
513.807
537.382
562.439
588.978
328.704
330
332.597
336.503
341.73
348.292
356.205
365.485
376.15
388.215
401.695
416.604
432.954
450.753
470.009
490.73
512.919
536.579
561.714
588.325
326.149
327.47
330.116
334.091
339.406
346.071
354.099
363.503
374.296
386.491
400.101
415.136
431.606
449.52
468.885
489.706
511.988
535.735
560.948
587.63
323.738
325.08
327.767
331.802
337.194
343.949
352.078
361.591
372.498
384.81
398.537
413.687
430.268
448.289
467.755
488.672
511.043
534.872
560.161
586.913
321.511
322.87
325.591
329.677
335.133
341.965
350.181
359.788
370.794
383.208
397.037
412.289
428.971
447.088
466.647
487.651
510.105
534.011
559.372
586.191
)
;
    }
    coldSide
    {
        type            mixed;
        refValue        uniform 300;
        refGradient     uniform 0;
        valueFraction   uniform 0.991591;
        source          uniform 0;
        value           nonuniform List<scalar> 
400
(
300.014
300.016
300.021
300.001
300.016
300.022
300.024
300.015
300.017
300.018
300.026
300.015
300.007
300.025
300.011
300.009
300.028
300.028
300.037
300.019
300.014
299.998
300.022
300.015
300.021
300.031
300.021
300.014
300.012
300.02
300.019
300.029
300.018
300.028