/*--------------------------------*- C++ -*----------------------------------*\
| =========                 |                                                 |
| \\      /  F ield         | OpenFOAM: The Open Source CFD Toolbox           |
|  \\    /   O peration     | Version:  2212                                  |
|   \\  /    A nd           | Website:  www.openfoam.com                      |
|    \\/     M anipulation  |                                                 |
\*---------------------------------------------------------------------------*/
FoamFile
{
    version     2.0;
    format      ascii;
    arch        "LSB;label=32;scalar=64";
    class       volScalarField;
    location    "0";
    object      stateMean;
}
// * * * * * * * * * * * * * * * * * * * * * * * * * * * * * * * * * * * * * //

dimensions      [0 0 0 1 0 0 0];

internalField   nonuniform List<scalar> 
3200
(
341.72
342.164
341.802
339.852
343.633
347.226
344.067
339.672
343.448
344.183
345.144
343.767
348.277
341.987
340.512
340.515
342.589
339.635
339.406
339.067
337.325
334.157
335.713
336.322
340.771
338.623
335.74
341.113
338.892
338.515
337.232
338.393
337.601
337.215
336.997
336.839
335.687
337.162
332.596
339.439
326.93
333.668
327.518
334.744
334.493
334.8
333.875
337.567
332.149
330.825
334.366
331.466
330.095
331.982
330.301
330.347
328.96
329.256
331.685
330.691
322.73
325.823
329.326
326.776
322.475
329.851
325.362
325.514
324.199
326.956
327.291
328.237
326.775
326.174
328.324
326.469
319.031
322.596
321.201
322.04
320.496
315.919
323.587
320.96
317.246
323.747
323.061
324.266
318.16
322.424
320.615
319.958
317.476
316.166
321.622
318.234
318.488
316.991
319.611
319.994
310.627
313.548
314.564
313.444
311.946
316.402
314.066
316.013
316.411
313.196
316.449
310.595
314.109
314.34
312.844
311.291
313.093
314.29
314.077
311.804
306.162
308.764
304.716
304.557
309.615
308.886
308.379
307.935
308.725
309.465
310.448
312.241
307.076
309.44
311.141
309.003
306.141
307.329
310.822
310.344
301.239
301.765
303.074
301.939
299.265
303.39
301.328
304.29
301.791
305.675
302.701
303.649
302.145
302.573
306.847
302.238
302.864
305.862
303.782
298.85
338.137
343.612
349.196
343.851
345.613
342.459
347.901
348.26
346.617
343.287
344.801
344.668
349.421
343.222
345.109
341.464
342.972
341.442
343.557
337.159
331.522
335.434
340.289
341.49
335.595
339.567
341.498
339.212
339.657
339.037
339.687
338.317
338.747
338.471
338.569
334.536
338.463
336.564
337.312
334.762
334.722
331.869
331.344
333.68
335.046
338.049
330.417
331.06
331.959
332.408
329.016
332.86
332.249
330.494
331.746
329.801
330.742
332.959
327.005
331.48
326.584
328.533
325.757
326.055
326.436
332.117
323.46
331.946
327.463
326.458
329.016
325.247
328.717
326.75
329.215
329.905
326.142
323.954
325.173
325.096
324.4
324.363
317.322
316.965
326.551
320.55
322.234
324.694
320.77
323.479
321.256
322.606
326.559
319.041
318.865
321.288
319.178
318.116
318.525
320.087
313.471
313.403
312.882
315.122
313.7
313.692
317.221
314.672
316.041
315.396
315.402
318.174
311.769
314.354
313.393
313.269
310.956
309.185
313.353
313.41
312.167
311.98
310.727
306.144
309.234
305.407
312.295
308.785
310.841
308.316
308.642
307.645
310.647
312.825
310.938
306.999
309.803
309.21
307.792
308
299.67
301.924
304.886
303.321
303.545
299.47
300.096
305.363
300.865
310.873
302.294
305.37
304.291
302.885
305.32
302.157
303.09
304.818
297.671
300.85
345.515
343.51
347.587
345.093
349.157
349.078
346.668
350.205
351.042
352.368
347.457
345.357
348.638
347.862
345.077
347.116
344.036
340.931
339.189
339.255
334.634
338.4
338.107
336.082
340.45
340.847
341.655
342.273
346.49
341.025
340.971
337.895
341.246
339.29
334.619
336.032
339.876
335.706
336.661
337.827
330.948
337.805
335.039
332.619
333.89
333.353
332.641
334.651
336.794
335.884
337.834
337.424
337.393
332.358
333.417
330.197
334.265
331.942
330.258
328.864
329.3
327.798
325.267
325.446
328.16
326.073
328.121
328.868
329.017
331.427
330.335
325.49
328.432
327.101
325.832
323.137
324.511
325.178
318.83
325.382
318.934
319.756
318.922
322.742
322.866
322.225
318.415
320.729
321.185
322.713
324.619
323.29
315.648
323.788
316.518
321.688
317.786
321.323
321.477
317.257
311.439
314.403
319.389
319.302
317.587
319.921
315.285
315.289
316.162
320.711
318.84
318.481
312.893
315.893
320.668
314.188
315.745
316.374
315.264
313.294
304.577
309.285
310.596
308.543
308.298
309.856
312.351
307.704
308.448
309.451
310.235
310.322
310.299
310.93
309.135
311.268
312.05
310.627
308.775
310.05
304.124
303.24
303.792
302.507
302.776
306.552
304.065
303.917
303.272
304.312
300.366
303.307
302.691
301.78
298.756
303.305
308.25
299.488
303.956
303.656
344.946
346.437
347.708
348.412
350.438
353.655
347.708
351.301
354.881
345.344
346.585
353.194
349.312
348.665
347.957
349.041
342.1
349.081
343.94
341.467
340.124
340.675
338.854
345.508
343.238
341.921
342.806
340.386
349.469
342.16
341.477
344.735
345.801
345.29
340.811
347.939
339.316
337.503
342.17
341.454
335.397
338.523
338.984
338.108
335.816
338.454
335.008
337.812
337.254
334.926
338.112
337.14
339.873
333.266
337.457
336.887
336.369
331.936
333.342
330.748
330.1
329.531
329.429
327.569
330.475
330.927
332.788
329.476
329.337
336.419
344.148
333.078
332.165
329.096
323.244
325.99
328.639
328.071
325.769
325.917
320.549
320.777
320.245
321.869
320.42
322.347
320.854
323.194
320.578
326.922
320.882
324.698
325.646
323.461
320.496
322.064
319.87
317.703
316.778
322.621
315.683
316.334
319.173
313.094
315.691
314.152
318.337
317.469
316.238
315.215
315.79
316.285
312.986
314.758
316.611
314.699
315.023
314.291
315.7
314.65
311.822
309.489
307.867
312.348
308.823
312.1
310.4
307.51
314.056
310.178
312.836
311.484
308.043
308.559
311.169
309.789
312.699
307.077
306.626
307.457
301.03
304.158
306.34
301.014
301.981
302.297
303.651
302.999
302.008
304.489
300.894
306.709
303.333
303.639
305.454
306.454
309.886
302.416
304.44
304.989
346.621
350.033
347.546
349.319
347.834
347.636
348.642
356.473
351.648
352.531
348.858
350.476
348.473
349.784
347.9
342.485
344.376
346.768
343.69
342.638
343.89
340.652
342.7
342.346
344.154
341.23
344.293
343.465
342.395
341.22
342.827
338.385
341.055
345.087
344.811
339.955
338.566
335.827
340.556
337.115
332.52
335.327
330.592
336.106
334.965
336.734
334.544
335.771
338.608
337.47
337.79
336.376
339.967
339.137
343.123
333.636
328.164
332.754
333.469
333.654
329.528
326.908
330.08
328.255
332.244
328.887
330.387
332.098
331.048
330.502
328.904
332.68
328.409
326.6
329.167
327.775
326.33
328.75
322.318
330.114
323.723
322.011
325.842
323.311
320.078
321.335
322.975
325.033
325.017
324.018
323.962
321.61
324.555
325.038
324.864
320.745
320.114
322.493
323.4
323.67
315.235
319.94
313.531
316.943
312.407
317.392
320.414
318.611
315.674
322.283
317.81
317.223
320.503
313.608
318.43
316.505
315.14
316.169
317.891
307.935
309.728
312.248
310.631
310.164
310.448
309.47
308.515
311.552
310.454
311.644
311.265
309.346
305.955
310.553
309.687
306.369
307.764
311.041
310
310.705
304.937
303.151
307.673
306.008
300.821
306.756
303.691
304.7
300.995
303.612
303.477
301.956
300.366
301.532
302.783
302.885
304.937
304.586
303.017
307.538
346.403
351.143
349.943
348.761
348.066
353.51
348.555
353.291
352.275
351.366
348.501
347.515
349.515
353.025
347.103
350.935
348.112
347.479
346.313
341.468
342.122
340.001
338.955
343.242
344.025
341.543
341.871
341.057
347.911
342.475
342.235
346.744
341.588
342.108
340.398
345.42
339.644
340.922
339.096
342.744
333.709
331.433
335.538
342.152
339.95
339.078
336.531
340.022
341.38
339.246
337.147
336.235
339.696
337.386
335.571
337.955
333.46
328.235
336.788
331.931
330.239
330.478
328.128
329.786
331.998
332.562
332.093
332.486
331.512
329.336
331.136
333.816
324.526
329.155
329.578
332.947
326.444
330.614
326.941
326.436
323.426
320.632
323.51
323.544
327.729
325.202
326.583
324.102
324.166
323.862
323.966
327.503
325.865
322.621
323.475
323.762
326.097
320.779
320.482
323.658
318.286
315.354
316.111
315.278
321.336
318.921
319.194
316.282
319.985
317.71
313.279
316.439
313.553
317.898
318.008
319.262
315.482
313.217
317.854
314.172
306.798
309.737
316.001
311.266
312.42
310.234
310.922
311.494
310.728
310.825
307.014
310.373
308.219
309.528
310.133
311.292
312.33
311.167
308.434
308.811
302.191
306.179
308.22
304.055
302.243
302.223
301.72
300.662
305.738
301.633
303.219
304.287
306.093
303.093
307.315
304.812
299.645
301.826
301.446
303.769
347.281
347.003
350.14
349.679
354.693
352.641
352.911
356.558
356.031
354.174
354.958
350.161
354.087
350.966
351.033
349.035
347.488
348.388
348.302
352.083
339.205
342.038
345.718
342.374
345.757
346.12
345.879
345.999
344.863
343.661
346.065
344.815
346.632
346.332
348.576
344.242
340.878
343.646
342.18
342.788
338.665
342.061
338.097
342.937
340.101
340.981
337.456
339.178
341.896
340.408
339.018
337.154
339.855
341.546
341.266
338.396
338.089
337.558
337.519
338.029
328.151
325.969
330.325
328.606
333.945
330.242
332.55
330.029
334.097
329.273
334.219
331.107
330.09
334.754
332.673
329.65
331.927
329.386
327.708
327.692
323.928
327.676
322.86
323.327
325.911
322.631
327.644
325.98
326.197
323.272
324.852
322.143
324.783
323.612
324.252
326.124
321.121
324.45
324.015
323.747
317.692
317.394
320.309
317.467
314.205
315.795
319.433
317.934
318.468
318.809
317.287
317.321
317.37
321.595
317.99
316.915
316.476
316.895
316.682
315.199
311.298
312.44
310.215
311.899
313.101
307.384
308.014
309.899
310.639
314.813
310.535
311.461
312.911
311.14
312.019
314.155
311.351
308.262
312.866
307.608
305.736
305.382
306.613
306.244
303.89
307.29
303.646
304.638
303.332
304.015
298.773
303.313
302.752
301.041
302.774
302.215
305.323
304.157
306.715
300.55
350.616
353.224
354.14
350.777
355.746
355.847
355.925
360.435
354.243
352.828
356.102
351.09
353.363
356.822
350.86
353.249
352.058
346.59
351.61
348.468
343.927
341.613
349.167
345.144
349.115
342.537
349.068
342.906
353.757
343.527
344.49
342.09
344.253
349.048
343.656
346.37
342.578
343.156
341.332
341.606
334.014
335.54
338.629
342.178
339.267
337.357
336.572
345.233
336.314
339.655
345.371
340.472
345.106
339.9
341.627
338.573
338.35
339.828
338.799
337.151
332.262
330.251
331.472
334.349
333.577
333.593
334.468
334.218
333.073
331.467
331.964
336.633
329.591
335.07
332.71
330.943
331.032
333.156
330.474
328.821
327.964
322.233
325.687
327.737
327.793
324.169
327.362
323.703
324.342
323.426
326.623
326.055
324.192
322.013
322.738
324.094
322.657
324.715
326.12
324.809
315.682
316.522
315.455
314.853
317.214
319.232
313.836
318.484
319.257
315.26
323.405
323.497
319.175
312.764
313.792
317.198
318.226
316.721
315.406
314.542
308.621
310.076
311.359
310.959
309.2
310.141
314.039
312.213
311.799
309.168
313.26
314.517
308.513
310.862
308.991
308.221
311.414
307.462
310.083
308.077
301.227
300.583
302.774
301.868
298.237
302.817
304.333
302.37
308.666
305.138
302.092
302.974
307.969
308.025
304.102
304.155
302.269
303.688
308.046
302.833
353.736
351.931
355.7
352.912
356.726
352.822
355.739
358.964
356.363
355.594
354.32
357.481
355.648
354.238
355.097
356.607
354.998
356.842
351.048
348.926
344.222
342.611
346.424
348.741
348.341
347.533
349.271
347.307
347.474
348.977
350.985
348.932
352.282
349.255
350.594
353.02
350.351
345.973
345.002
345.801
338.074
340.707
338.247
343.036
338.991
341.353
341.715
343.074
340.441
343.459
342.623
340.851
336.502
341.439
344.173
341.306
342.24
338.767
339.914
339.608
330.906
335.236
335.318
330.233
333.926
333.676
336.847
334.227
333.812
335.428
334.246
331.741
331.548
328.641
333.837
333.703
332.962
332.677
331.221
329.331
324.914
324.415
322.831
324.537
323.182
324.906
326.446
332.357
332.437
325.313
327.788
328.062
325.502
322.511
327.889
323.202
324.538
322.141
325.857
325.027
315.85
317.074
319.007
317.906
315.079
318.27
317.179
320.197
318.365
319.29
320.947
321.192
316.433
318.244
315.399
319.448
316.384
318.127
315.067
316.373
312.5
314.177
310.471
308.877
307.829
312.766
308.859
312.905
308.402
311.377
311.585
310.594
308.344
312.288
307.622
311.523
313.573
311.431
310.328
311.054
304.978
304.851
306.057
303.458
305.164
302.555
304.645
304.464
304.244
304.613
303.94
306.497
301.818
303.788
304.257
299.616
305.363
303.399
304.023
306.603
354.264
353.525
356.586
359.544
355.173
361.746
360.189
361.401
358.1
358.497
355.784
360.476
356.983
355.417
357.527
356.349
355.694
356.901
355.046
350.482
343.165
347.551
347.696
346.791
352.281
345.243
347.18
345.882
348.227
346.231
346.484
352.063
346.008
349.782
345.595
350.18
345.766
345.63
342.75
342.697
342.573
339.075
340.993
343.108
345.561
342.921
342.185
348.498
342.834
343.73
342.54
348.718
343.047
339.281
340.997
344.757
341.391
340.744
342.96
335.995
331.402
333.53
336.151
340.8
330.573
336.104
337.094
334.785
336.284
332.087
333.747
336.947
332.552
334.653
334.047
333.097
334.023
330.916
330.253
328.786
326.587
323.568
325.591
324.8
329.968
324.692
327.744
331.078
324.61
332.267
329.065
328.275
329.277
327.791
326.606
327.373
324.922
321.86
323.147
326.849
318.085
321.205
318.503
317.71
321.257
319.091
320.913
321.819
319.635
317.122
315.215
319.68
320.391
322.353
321.119
323.686
319.631
316.454
319.449
319.432
312.542
311.55
311.436
312.883
312.493
314.494
315.311
313.72
306.023
311.74
309.535
315.53
314.298
311.175
310.69
311.356
311.391
306.868
311.04
309.406
300.271
304.043
302.813
305.951
304.914
309.049
307.023
300.113
301.786
304.164
304.712
304.821
304.01
304.882
303.314
303.569
301.583
307.274
302.085
306.252
358.004
358.292
359.24
358.327
353.16
362.132
360.6
357.87
359.867
361.971
358.02
358.354
357.339
358.276
358.743
356.079
358.392
354.189
353.37
355.762
347.315
347.489
350.198
348.465
350.072
346.919
347.905
347.405
355.444
347.131
347.231
352.097
346.841
353.635
346.722
348.984
346.611
347.323
345.459
349.257
339.51
341.076
342.276
345.612
342.352
344.938
346.535
342.338
341.681
346.444
344.575
341.349
340.82
347.145
344.926
344.929
339.563
342.859
338.523
336.381
334.291
335.488
338.193
333.138
334.216
335.923
333.169
336.039
336.328
335.748
335.613
334.018
334.532
332.69
335.173
331.651
335.097
334.194
336.176
328.922
328.116
326.786
327.545
329.665
328.055
327.663
327.118
326.183
325.376
329.001
331.726
327.452
330.293
327.827
326.386
327.717
325.609
326.098
323.769
325.607
317.344
318.907
318.203
318.644
322.376
320.177
322.203
321.165
315.552
321.909
318.82
320.51
321.458
319.789
318.68
323.355
317.436
324.728
321.938
313.925
308.606
313.766
311.825
310.084
311.55
308.903
311.043
313.343
310.47
310.72
311.427
310.649
310.919
313.476
312.284
311.168
312.897
310.989
310.984
310.907
303.505
303.178
305.401
305.38
303.85
305.534
309.411
302.466
304.766
306.091
308.709
305.48
304.403
308.497
303.742
300.589
308.906
302.287
301.882
300.258
354.162
357.284
358.496
356.526
361.052
360.658
360.899
363.625
363.523
362.234
364.321
361.192
359.058
361.846
359.163
360.642
354.535
355.393
357.414
352.465
349.712
348.234
349.653
350.756
352.093
356.026
351.721
355.52
355.559
347.854
350.879
351.918
352.008
354.395
350.429
350.644
349.66
348.459
349.719
348.825
343.075
341.963
339.982
342.787
337.919
349.699
344.813
344.35
346.091
341.304
347.452
347.261
346.019
344.382
340.565
337.917
344.436
341.557
340.427
339.368
334.14
331.976
337.966
333.721
340.443
337.891
337.749
336.433
337.138
336.355
338.517
337.909
337.274
338.252
335.984
335.557
336.295
333.264
338.219
331.939
327.232
324.27
329.162
333.664
327.253
333.018
333.593
329.239
326.702
332.368
329.853
330.03
327.054
330.02
327.626
325.622
321.274
322.153
326.136
329.685
318.137
317.38
318.613
318.318
322.322
321.507
325.104
319.899
322.861
320.078
321.789
320.01
319.436
325.939
323.571
318.844
320.054
319.673
316.416
319.31
311.51
311.798
310.157
316.865
310.854
311.205
305.637
313.442
309.394
314.646
312.778
313.366
315.674
311.02
312.112
316.746
310.575
309.893
315.295
310.22
303.627
306.194
304.815
308.142
300.325
306.97
304.91
303.639
304.373
307.311
298.537
303.716
307.059
300.51
305.489
303.93
304.46
301.247
301.721
298.955
359.168
357.694
358.484
360.282
356.875
362.029
362.38
363.794
366.064
360.957
363.616
360.263
359.785
361.622
358.571
358.317
364.272
361.253
353.482
356.036
349.678
351.102
351.667
349.923
356.499
350.535
352.38
350.069
359.492
350.382
351.392
354.379
350.34
355.539
350.809
352.71
350.128
350.61
350.094
346.281
341.945
343.708
343.575
350.035
345.761
344.048
344.918
347.297
343.628
348.946
344.746
346.003
348.547
343.452
344.957
344.618
342.692
344.409
340.793
341.694
332.686
334.766
334.866
335.282
332.034
337.029
340.097
338.142
338.178
339.143
339.879
334.954
338.98
340.227
339.066
339.241
335.255
335.557
332.052
332.313
326.527
329.76
325.192
328.2
331.408
329.47
329.154
332.011
334.055
327.684
331.603
328.68
329.679
329.505
329.224
326.229
324.26
327.564
325.309
327.482
320.318
319.144
322.924
321.5
322.236
322.358
322.119
325.327
321.986
320.521
318.016
319.061
321.543
321.152
321.814
319.285
319.639
319.793
319.871
322.263
310.066
308.79
312.663
305.635
314.971
313.804
309.408
315.11
313.684
313.321
315.127
311.768
311.732
315.034
314.415
311.746
310.188
310.371
313.573
315.316
303.77
300.598
306.269
306.84
306.419
303.302
308.013
301.058
303.87
302.357
305.285
300.456
306.235
304.972
306.544
304.486
305.114
305.209
302.765
302.413
356.657
361.935
359.559
363.106
363.031
362.757
362.703
363.924
361.337
366.067
364.277
361.695
364.943
365.978
362.375
362.061
362.672
358.23
354.797
362.198
351.913
347.536
352.386
353.933
353.067
362.083
357.405
356.323
353.654
355.45
355.83
358.32
354.47
355.926
350.469
354.804
351.635
351.717
350.924
350.624
345.276
345.672
344.479
340.837
342.339
345.141
347.609
343.304
345.242
347.815
348.174
347.969
350.991
346.146
346.901
344.168
344.383
345.004
341.469
342.536
330.222
339.411
338.506
339.768
339.816
337.701
340.134
338.654
338.143
338.2
339.044
338.053
341.828
339.45
340.201
337.248
336.105
334.791
337.632
335.092
323.538
324.087
328.84
324.894
331.952
333.461
330.263
329.944
331.982
328.578
329.917
329.13
330.684
328.138
331.934
323.827
328.192
331.572
324.661
326.636
319.537
321.342
319.76
321.22
320.887
320.147
322.82
318.009
323.69
320.999
320.504
321.937
321.332
322.474
318
323.463
320.359
319.81
318.817
315.446
314.179
314.466
315.898
309.928
308.623
314.298
315.404
310.027
315.572
312.477
314.761
311.197
312.42
313.262
312.62
318.295
311.055
314.848
311.437
310.577
303.592
301.688
304.904
301.811
309.055
303.622
301.361
303.327
304.3
300.94
300.465
306.743
301.031
305.091
304.606
304.481
306.332
302.715
303.955
308.862
354.476
359.4
361.379
361.377
364.364
366.565
365.598
364.02
366.916
364.289
364.197
363.098
364.346
363.624
365.807
360.403
360.536
361.304
357.4
355.969
352.104
353.757
350.456
354.015
354.2
354.795
355.137
355.227
353.769
354.701
355.114
357.882
355.923
357.362
354.817
355.938
353.992
352.444
354.182
351.488
341.72
345.156
345.646
349.648
347.806
348.461
350.121
344.352
349.946
349.794
345.554
348.049
347.631
346.217
346.108
346.057
348.296
342.661
339.966
345.864
332.893
339.91
338.592
339.963
338.957
334.278
340.567
333.937
337.254
338.974
338.45
343.759
338.363
337.411
337.877
336.387
337.384
333.875
336.517
334.444
326.051
329.989
327.566
323.369
329.284
330.736
329.902
335.71
330.585
330.197
327.622
328.069
324.671
331.868
326.731
327.491
329.601
331.293
326.179
328.264
319.111
317.399
318.721
319.075
320.531
323.771
325.989
322.897
325.326
318.566
320.279
320.246
326.759
321.357
323.25
320.749
319.488
320.143
320.849
317.145
311.063
311.397
313.354
313.355
312.084
313.197
313.803
310.415
311.855
313.351
311.576
315.885
315.197
315.843
311.965
312.674
312.825
313.13
316.369
310.425
303.768
304.587
305.843
303.988
302.027
302.49
300.211
303.478
303.409
302.205
307.446
304.602
303.427
304.126
304.339
304.652
300.661
304.011
306.129
304.338
355.736
363.4
360.821
363.336
366.94
365.244
364.217
362.577
368.701
366.421
363.524
366.532
364.904
363.527
361.865
360.825
365.062
357.845
357.822
356.368
352.309
357.373
354.741
354.169
354.73
352.928
354.452
358.488
355.892
360.641
357.658
353.538
353.637
354.159
358.334
355.616
353.394
351.175
358.458
348.457
344.585
343.104
347.353
344.649
346.814
347.958
349.749
347.215
344.242
350.178
347.646
347.921
348.372
347.845
346.585
348.76
343.601
345.674
340.712
343.717
336.955
336.374
339.263
338.06
336.222
341.713
336.977
338.377
339.851
340.389
341.525
340.158
335.944
340.799
336.788
340.254
337.746
335.507
336.294
338.791
328.57
325.76
326.83
332.955
328.43
330.608
331.848
336.477
327.16
332.03
329.223
326.464
329.174
331.775
328.99
331.17
326.001
327.753
327.041
326.011
319.433
318.559
319.174
322.658
320.305
320.697
321.434
321.291
321.129
322.484
318.821
327.011
324.018
323.353
321.232
325.418
322.885
322.162
319.111
315.992
307.814
316.549
311.574
311.545
313.15
314.568
315.735
310.052
314.47
313.884
316.151
312.194
315.247
314.692
315.225
312.075
311.631
316.167
310.787
316.945
304.745
306.908
302.25
306.065
306.437
300.716
305.684
300.208
302.832
309.228
304.981
305.905
304.718
307.189
306.614
304.224
305.305
305.306
301.428
302.393
359.783
362.418
357.495
366.382
366.855
363.598
364.537
367.707
366.617
365.531
365.734
368.478
364.283
366.124
366.329
364.204
361.655
364.6
360.679
358.912
355.366
361.062
352.654
358.725
353.568
358.754
357.149
360.542
357.435
359.508
359.153
363.058
359.111
355.928
358.699
354.009
358.687
352.149
359.586
351.499
346.407
344.235
347.761
344.692
347.888
347.801
351.119
351.762
349.98
348.12
351.544
348.846
349.649
347.503
345.59
349.109
347.483
346.915
343.77
343.278
332.478
335.913
334.28
338.751
341.567
336.989
341.528
337.038
336.507
338.83
343.637
338.571
336.973
338.482
335.47
340.462
333.3
340.268
338.929
339.522
327.954
327.723
331.194
331.397
328.628
332.515
331.66
332.052
330.847
335.307
331.454
333.141
327.887
329.924
329.551
331.487
329.877
330.771
325.283
331.421
316.906
321.118
319.777
322.398
320.682
327.419
322.215
320.639
324.042
319.581
315.988
323.414
326.7
323.032
321.346
320.788
319.708
321.87
319.499
319.114
313.022
315.528
307.806
313.652
312.305
316.466
317.004
314.809
314.658
312.979
312.44
316.53
313.777
311.445
309.125
310.934
312.141
313.586
311.857
308.923
306.19
303.012
302.198
303.273
307.079
303.359
305.576
305.628
306.031
306.37
304.07
305.185
306.217
304.235
301.844
304.405
300.02
306.545
305.922
308.432
360.78
360.869
361.455
364.584
363.541
366.685
366.822
366.13
369.338
367.96
366.84
367.825
368.058
367.385
365.093
364.908
364.535
364.107
360.492
362.374
355.383
352.556
356.51
353.473
361.051
356.89
358.353
357.402
354.719
359.785
363.723
355.456
358.797
355.374
358.768
359.515
351.993
352.718
351.982
353.234
346.897
341.254
344.575
348.303
347.982
347.669
346.853
349.02
351.223
349.529
351.779
351.314
350.04
351.544
350.942
346.265
347.131
350.034
346.48
342.737
335.262
339.979
337.608
343.027
338.757
340.717
340.104
340.041
343.863
340.289
340.078
343.279
337.394
343.282
339.344
336.911
338.597
339.123
342.763
335.824
324.15
325.712
333.696
330.41
331.508
328.108
331.412
331.142
331.694
331.926
333.533
331.835
328.435
330.974
333.183
330.168
328.487
326.33
329.721
328.753
323.751
320.854
321.264
320.554
318.824
322.1
321.221
326.365
322.094
324.302
323.449
325.312
322.142
324.881
324.377
319.821
321.087
318.655
318.891
323.325
317.583
313.598
311.49
312.839
314.229
310.271
308.475
316.353
312.835
310.482
312.306
315.146
316.268
313.458
313.634
314.373
312.315
315.977
309.101
308.405
306.199
304.041
304.353
305.493
303.569
303.128
302.229
305.048
303.259
303.726
307.202
304.244
307.947
307.17
304.074
308.09
305.703
300.801
307.272
310.19
359.505
363.347
363.932
368.265
370.989
365.528
365.237
366.163
368.026
365.679
367.525
365.272
365.368
362.795
364.185
365.139
365.021
361.773
365.023
361.828
354.348
365.745
353.474
363.576
355.892
364.625
358.878
363.513
360.125
364.055
363.794
353.397
363.226
359.726
363.978
361.309
363.607
350.221
363.727
352.816
345.342
345.95
347.844
346.247
348.298
350.004
350.281
350.248
351.292
353.049
351.089
352.91
348.262
347.819
347.867
347.929
346.344
344.482
344.194
343.444
336.651
340.466
341.593
340.003
338.865
338.835
340.326
341.889
339.953
342.606
340.045
339.905
341.975
346.598
340.507
336.502
339.799
337.183
343.055
336.002
324.06
329.075
328.255
331.929
333.425
327.574
333.566
333.534
335.392
334.78
329.066
328.734
333.117
330.132
325.313
329.524
330.943
330.637
331.788
325.731
320.837
321.137
323.493
322.12
319.939
321.185
321.27
323.906
324.103
321.087
318.44
322.032
325.209
324.132
318.078
319.427
319.12
318.816
322.163
319.627
310.852
312.989
312.172
313.831
317.577
314.333
313.48
314.094
312.306
310.901
312.106
312.492
313.583
313.481
313.459
310.075
312.333
314.795
310.772
314.28
304.347
305.632
303.639
303.053
299.76
301.998
304.634
301.996
301.651
304.062
304.505
303.649
301.613
301.926
303.933
300.949
307.802
306.463
308.071
303.578
364.022
360.407
364.872
365.393
364.902
365.794
369.784
365.173
367.053
369.818
369.342
366.771
370.792
363.978
367.998
365.741
358.808
362.51
364.468
362.216
352.156
358.204
359.006
359.238
357.714
359.999
362.753
361.785
356.991
358.71
355.077
360.028
359.856
360.236
360.166
353.929
359.106
355.214
351.401
352.266
342.942
343.569
346.891
344.487
346.007
346.071
350.013
351.199
352.596
352.49
350.445
348.453
348.73
350.036
345.36
344.949
346.691
346.438
347.064
345.547
339.631
339.388
340.908
342.327
339.545
341.835
340.057
341.516
340.963
342.37
338.508
341.638
341.444
340.548
340.867
341.631
337.4
334.482
335.121
337.66
328.009
334.313
330.764
330.164
330.5
332.376
331.368
335.668
333.472
331.622
331.635
335.163
331.503
330.547
328.811
328.05
333.095
328.573
328.877
325.567
322.143
321.02
323.293
320.561
323.447
322.143
324.994
321.826
322.056
321.493
319.996
320.1
325.807
321.108
320.742
322.808
320.37
319.444
320.906
319.332
312.881
315.74
310.687
313.303
317.213
310.517
317.159
311.415
315.391
315.411
312.597
313.537
316.004
313.789
314.524
310.551
311.229
315.858
312.808
309.044
302.428
304.34
306.023
304.628
307.952
308.575
301.978
311.851
303.175
306.531
306.868
303.261
307.041
302.394
303.152
304.438
302.366
305.212
302.939
305.994
)
;

boundaryField
{
    hotSide
    {
        type            fixedGradient;
        gradient        nonuniform List<scalar> 
400
(
321.511
322.87
325.591
329.677
335.133
341.965
350.181
359.788
370.794
383.208
397.037
412.289
428.971
447.088
466.647
487.651
510.105
534.011
559.372
586.191
323.738
325.08
327.767
331.802
337.194
343.949
352.078
361.591
372.498
384.81
398.537
413.687
430.268
448.289
467.755
488.672
511.043
534.872
560.161
586.913
326.149
327.47
330.116
334.091
339.406
346.071
354.099
363.503
374.296
386.491
400.101
415.136
431.606
449.52
468.885
489.706
511.988
535.735
560.948
587.63
328.704
330
332.597
336.503
341.73
348.292
356.205
365.485
376.15
388.215
401.695
416.604
432.954
450.753
470.009
490.73
512.919
536.579
561.714
588.325
331.33
332.599
335.142
338.97
344.099
350.546
358.332
367.477
378.003
389.928
403.271
418.047
434.27
451.949
471.095
491.712
513.807
537.382
562.439
588.978
333.918
335.158
337.643
341.389
346.414
352.74
360.392
369.397
379.779
391.562
404.765
419.407
435.503
453.065
472.101
492.618
514.622
538.114
563.096
589.569
336.321
337.531
339.959
343.622
348.544
354.751
362.274
371.142
381.385
393.031
406.101
420.618
436.595
454.047
472.983
493.409
515.33
538.747
563.663
590.076
338.36
339.543
341.92
345.509
350.339
356.44
363.847
372.595
382.718
394.244
407.2
421.608
437.485
454.844
473.695
494.045
515.897
539.253
564.114
590.478
339.852
341.015
343.352
346.885
351.645
357.665
364.985
373.643
383.675
395.113
407.984
422.312
438.116
455.407
474.197
494.491
516.294
539.606
564.428
590.758
340.643
341.795
344.11
347.613
352.334
358.311
365.584
374.193
384.176
395.567
408.393
422.679
438.443
455.699
474.456
494.722
516.498
539.788
564.589
590.901
340.643
341.795
344.11
347.613
352.334
358.311
365.584
374.193
384.176
395.567
408.393
422.679
438.443
455.699
474.456
494.722
516.498
539.788
564.589
590.901
339.852
341.015
343.352
346.885
351.645
357.665
364.985
373.643
383.675
395.113
407.984
422.312
438.116
455.407
474.197
494.491
516.294
539.606
564.428
590.758
338.36
339.543
341.92
345.509
350.339
356.44
363.847
372.595
382.718
394.244
407.2
421.608
437.485
454.844
473.695
494.045
515.897
539.253
564.114
590.478
336.321
337.531
339.959
343.622
348.544
354.751
362.274
371.142
381.385
393.031
406.101
420.618
436.595
454.047
472.983
493.409
515.33
538.747
563.663
590.076
333.918
335.158
337.643
341.389
346.414
352.74
360.392
369.397
379.779
391.562
404.765
419.407
435.503
453.065
472.101
492.618
514.622
538.114
563.096
589.569
331.33
332.599
335.142
338.97
344.099
350.546
358.332
367.477
378.003
389.928
403.271
418.047
434.27
451.949
471.095
491.712
513.807
537.382
562.439
588.978
328.704
330
332.597
336.503
341.73
348.292
356.205
365.485
376.15
388.215
401.695
416.604
432.954
450.753
470.009
490.73
512.919
536.579
561.714
588.325
326.149
327.47
330.116
334.091
339.406
346.071
354.099
363.503
374.296
386.491
400.101
415.136
431.606
449.52
468.885
489.706
511.988
535.735
560.948
587.63
323.738
325.08
327.767
331.802
337.194
343.949
352.078
361.591
372.498
384.81
398.537
413.687
430.268
448.289
467.755
488.672
511.043
534.872
560.161
586.913
321.511
322.87
325.591
329.677
335.133
341.965
350.181
359.788
370.794
383.208
397.037
412.289
428.971
447.088
466.647
487.651
510.105
534.011
559.372
586.191
)
;
    }
    coldSide
    {
        type            mixed;
        refValue        uniform 300;
        refGradient     uniform 0;
        valueFraction   uniform 0.991591;
        source          uniform 0;
        value           nonuniform List<scalar> 
400
(
300.01
299.997
300.035
300.009
300.042
300.018
300.048
300.01
300.042
300.002
300.029
300.03
300.032
300.03
300.032
300.04
300.052
300.052
300.037
300.02
300.015
300.016
300.027
300.035
300.026
300.052
300.045
300.005
300.041
300.034
300.027
300.052
300.005
300.014
300.039
300.058
300.025
300.034
300.047
300.036
300.026
300.041