/*--------------------------------*- C++ -*----------------------------------*\
| =========                 |                                                 |
| \\      /  F ield         | OpenFOAM: The Open Source CFD Toolbox           |
|  \\    /   O peration     | Version:  2212                                  |
|   \\  /    A nd           | Website:  www.openfoam.com                      |
|    \\/     M anipulation  |                                                 |
\*---------------------------------------------------------------------------*/
FoamFile
{
    version     2.0;
    format      ascii;
    arch        "LSB;label=32;scalar=64";
    class       volScalarField;
    location    "./ITHACAoutput/true/14.8";
    object      error;
}
// * * * * * * * * * * * * * * * * * * * * * * * * * * * * * * * * * * * * * //

dimensions      [0 0 0 1 0 0 0];

internalField   nonuniform List<scalar> 
3200
(
3.19138
2.88278
2.6954
2.46233
2.37785
2.39342
2.54204
2.56822
2.6603
2.80513
2.97595
3.0785
3.13127
3.22874
3.29552
3.46225
3.67602
3.93612
4.29633
4.80769
2.69472
2.37239
2.27557
2.09656
2.03336
2.0204
2.14702
2.20781
2.30847
2.42332
2.41199
2.60656
2.568
2.69981
2.76031
2.9181
3.11139
3.34983
3.70878
3.96964
2.22408
2.03591
1.81367
1.67831
1.62902
1.67741
1.70446
1.86015
1.87104
1.98643
2.10155
2.13762
2.15315
2.19194
2.20076
2.3129
2.58574
2.80036
3.10135
3.27817
1.8149
1.62789
1.47032
1.32025
1.30823
1.35658
1.47338
1.46117
1.53764
1.59525
1.65955
1.69974
1.7583
1.79127
1.78916
1.84435
1.99297
2.22109
2.45303
2.68314
1.39615
1.28297
1.15045
1.08015
1.0428
0.99705
1.05618
1.0946
1.24449
1.24907
1.27455
1.36117
1.31645
1.32706
1.40065
1.49222
1.57557
1.75319
1.89282
2.00382
0.957347
0.934832
0.780769
0.735428
0.690572
0.708705
0.758711
0.729917
0.906559
0.892208
0.916601
0.956307
0.877507
0.983683
1.07608
1.03891
1.14163
1.20438
1.40747
1.42055
0.584434
0.595345
0.454326
0.45964
0.400383
0.37794
0.431427
0.449069
0.470232
0.500209
0.504082
0.603006
0.555633
0.530402
0.539339
0.66168
0.653771
0.686222
0.710155
0.875372
0.183536
0.23619
0.177452
0.121912
0.144658
0.155173
0.0952734
0.19542
0.205735
0.171158
0.141696
0.137083
0.210329
0.23089
0.20092
0.224434
0.188496
0.296852
0.226618
0.265421
2.54804
2.09734
1.84731
1.69713
1.51194
1.56561
1.69494
1.81912
1.88926
1.96696
2.11621
2.22535
2.34921
2.2848
2.45881
2.59854
2.82704
3.19486
3.65815
3.96348
2.08311
1.82391
1.55765
1.46827
1.29736
1.32607
1.40954
1.54455
1.64755
1.66313
1.80359
1.91119
1.87208
1.98803
2.02879
2.20151
2.44885
2.74904
3.04352
3.38537
1.79858
1.56329
1.311
1.12214
1.10696
1.10467
1.08687
1.22856
1.33212
1.37976
1.5044
1.61813
1.60627
1.63323
1.72225
1.80955
2.01018
2.26484
2.56805
2.83279
1.44659
1.2212
1.00077
0.887096
0.871813
0.920228
0.93185
0.962214
1.18375
1.1441
1.24704
1.28832
1.27435
1.24852
1.40114
1.469
1.60798
1.82265
2.03233
2.30492
1.1623
1.06207
0.873472
0.728332
0.661091
0.660452
0.717903
0.731919
0.854338
0.775206
0.948059
1.04741
0.89288
0.939009
1.07584
1.11879
1.22623
1.4779
1.57944
1.71866
0.74846
0.711317
0.586472
0.54834
0.543084
0.4966
0.591248
0.531828
0.625984
0.562361
0.629151
0.673676
0.681635
0.720886
0.73552
0.816097
0.814568
0.962574
1.08443
1.25529
0.455053
0.449549
0.338862
0.379108
0.289315
0.306657
0.319433
0.306445
0.335849
0.325485
0.370153
0.362844
0.36712
0.356832
0.506673
0.501739
0.546457
0.527975
0.717965
0.755804
0.196869
0.0913732
0.101664
0.0420942
0.1532
0.174236
0.107142
0.125094
0.0673134
0.16537
0.123283
0.191492
0.116932
0.126876
0.186049
0.127242
0.148101
0.155963
0.236112
0.189962
1.68945
1.29288
0.92991
0.654634
0.575645
0.51462
0.561872
0.644101
0.756283
0.794421
0.997472
1.09816
1.19063
1.23429
1.40857
1.55279
1.83286
2.31966
2.7142
3.14346
1.40225
1.09229
0.734328
0.58929
0.525585
0.392484
0.43771
0.53749
0.688265
0.760836
0.821816
0.897824
1.05913
1.07579
1.22801
1.35036
1.57625
1.96302
2.26685
2.64811
1.15656
0.885518
0.681356
0.450872
0.421954
0.41281
0.388648
0.411386
0.546548
0.646692
0.724667
0.804044
0.868668
0.901996
1.0162
1.14921
1.41045
1.59852
1.85681
2.2861
0.979562
0.785216
0.581524
0.419278
0.305352
0.33952
0.334822
0.394512
0.428169
0.496027
0.571722
0.65173
0.739696
0.74453
0.856166
0.949519
1.11389
1.29957
1.51827
1.82138
0.700969
0.534996
0.412818
0.281661
0.196283
0.234939
0.283269
0.237515
0.33369
0.378342
0.43262
0.485534
0.559413
0.538287
0.565258
0.710382
0.804675
1.03463
1.25027
1.4165
0.517933
0.454588
0.315557
0.258686
0.190722
0.177289
0.193731
0.180301
0.232938
0.321857
0.339729
0.378359
0.348134
0.445895
0.455575
0.540868
0.619782
0.674685
0.83873
0.982378
0.322682
0.247027
0.133946
0.0949163
0.111072
0.160149
0.0924267
0.159954
0.116272
0.148854
0.191209
0.164075
0.176968
0.238243
0.250592
0.223361
0.338658
0.454536
0.526437
0.584019
0.121854
0.106134
0.0524329
0.123708
0.0477761
0.0340628
0.0230016
-0.000369501
0.0897813
-0.00749552
0.0730407
0.0581583
0.0149839
0.0909951
0.0625436
0.0791785
0.140323
0.191065
0.149532
0.207977
0.841048
0.47223
0.0867015
-0.195586
-0.384873
-0.44386
-0.459328
-0.305546
-0.289843
-0.127533
-0.0257418
0.0919001
0.171686
0.28213
0.434996
0.613748
0.977998
1.3244
1.84737
2.29945
0.672669
0.428586
0.0821377
-0.16981
-0.368958
-0.389913
-0.366856
-0.319708
-0.219243
-0.12112
-0.0861898
0.0366604
0.0756725
0.153065
0.317686
0.556038
0.793143
1.13786
1.57813
1.97167
0.577449
0.377489
0.0832166
-0.191493
-0.283869
-0.395734
-0.348169
-0.257153
-0.176379
-0.138086
-0.054835
-0.00944083
0.0578103
0.122498
0.245787
0.429971
0.669092
0.985761
1.26216
1.57918
0.474974
0.228914
0.02188
-0.0969012
-0.176852
-0.306731
-0.21556
-0.308568
-0.161193
-0.0974898
0.00188563
0.0521554
0.129882
0.167888
0.246625
0.342426
0.575251
0.790622
1.08783
1.36482
0.392668
0.19478
0.0700841
-0.0582917
-0.216058
-0.22469
-0.165824
-0.166535
-0.119185
-0.0790592
0.00735155
0.0263014
0.034383
0.123944
0.141624
0.329159
0.449504
0.602261
0.816738
1.00314
0.283825
0.133386
0.000635711
-0.0531506
-0.105833
-0.0999653
-0.140728
-0.053297
-0.035739
-0.00694298
-0.0211762
0.00312418
0.0665877
0.0319841
0.101895
0.150241
0.266434
0.420069
0.655024
0.725701
0.152378
0.0796661
0.0249811
-0.0504748
-0.0768776
-0.113409
-0.07792
-0.0113772
-0.0417497
-0.0198815
0.00185666
0.0116302
-0.0199847
0.0582253
0.0110319
0.151457
0.193406
0.277525
0.365796
0.45449
0.0661699
0.0328336
-0.0137659
0.0387483
-0.00507021
0.00617182
-0.0444657
0.0408949
-0.0216139
0.0193086
0.00131168
-0.00393636
-0.0271369
0.0150056
-0.00335115
0.0322043
0.05645
0.115136
0.08251
0.12758
0.155151
-0.280207
-0.608992
-0.889835
-1.12125
-1.27261
-1.28203
-1.33582
-1.25825
-1.0679
-1.02656
-0.86817
-0.76514
-0.667533
-0.469291
-0.0861034
0.177444
0.523366
1.13034
1.64156
0.0741672
-0.205579
-0.647098
-0.831583
-1.05469
-1.1387
-1.11249
-1.04928
-1.05547
-0.890783
-0.786688
-0.757226
-0.62858
-0.577173
-0.385682
-0.224382
0.164077
0.535231
0.900814
1.42787
0.108888
-0.231444
-0.458854
-0.680268
-0.846269
-0.93446
-0.958208
-0.998133
-0.849537
-0.844842
-0.70581
-0.683272
-0.609016
-0.442842
-0.296557
-0.117591
0.175324
0.445006
0.735772
1.20628
0.0206642
-0.142808
-0.402991
-0.5551
-0.740279
-0.77497
-0.777675
-0.727575
-0.7048
-0.632266
-0.59034
-0.54054
-0.470761
-0.330884
-0.312977
-0.152719
0.0580762
0.382633
0.674495
0.967561
0.0597292
-0.0211074
-0.264214
-0.462894
-0.598389
-0.557049
-0.601576
-0.643908
-0.513862
-0.514378
-0.454462
-0.398564
-0.429704
-0.279468
-0.18381
-0.086629
0.0208421
0.23825
0.543902
0.642563
0.0633164
-0.0303153
-0.222486
-0.368015
-0.422375
-0.458589
-0.372648
-0.378369
-0.41081
-0.351171
-0.317694
-0.280039
-0.275494
-0.28624
-0.138009
-0.0452864
0.0233516
0.200926
0.294154
0.540833
0.106146
-0.0470622
-0.133965
-0.20509
-0.233022
-0.207909
-0.232787
-0.234624
-0.201549
-0.204645
-0.192711
-0.0985457
-0.169863
-0.115674
-0.106605
-0.00458559
-0.0168568
0.127535
0.257318
0.355485
-0.00557133
0.0397551
-0.0585621
-0.0728739
-0.0660532
-0.120721
-0.0582408
-0.0217609
-0.0639503
-0.0782619
-0.0402154
0.0425319
-0.0144892
-0.0668038
-0.0750342
-0.0267451
0.0089238
0.10258
0.0701082
0.0966879
-0.36732
-0.781679
-1.21013
-1.6101
-1.82344
-1.9966
-1.99443
-2.02462
-2.07509
-1.93889
-1.73535
-1.73081
-1.58088
-1.41653
-1.14973
-0.82551
-0.460996
0.0465586
0.62631
1.14046
-0.272402
-0.708657
-1.0137
-1.30635
-1.57395
-1.6694
-1.78346
-1.7712
-1.80288
-1.6366
-1.60269
-1.48111
-1.37954
-1.22876
-0.963214
-0.743617
-0.41713
0.0134078
0.439435
0.952795
-0.304857
-0.458463
-0.964653
-1.12912
-1.29785
-1.43509
-1.47831
-1.51422
-1.45824
-1.40348
-1.35529
-1.305
-1.15082
-1.04559
-0.871848
-0.651153
-0.333773
-0.0364621
0.437724
0.798484
-0.227732
-0.444752
-0.746537
-0.942976
-1.02951
-1.1955
-1.19838
-1.1833
-1.20688
-1.14704
-1.06728
-0.98298
-0.945804
-0.897753
-0.716892
-0.530863
-0.269019
-0.0485517
0.367447
0.665393
-0.151652
-0.325322
-0.616321
-0.681527
-0.886582
-0.881194
-0.970351
-0.90975
-0.953206
-0.923048
-0.801042
-0.724644
-0.673585
-0.638232
-0.54613
-0.352244
-0.293242
-0.0441967
0.253616
0.451566
-0.12748
-0.220459
-0.436047
-0.545577
-0.634596
-0.698239
-0.705878
-0.728618
-0.649848
-0.651279
-0.556453
-0.551659
-0.550119
-0.41082
-0.46753
-0.332142
-0.108369
0.00970153
0.141286
0.334269
-0.053341
-0.181484
-0.233906
-0.310336
-0.428356
-0.319817
-0.420961
-0.451108
-0.36942
-0.376039
-0.32671
-0.379095
-0.407746
-0.296656
-0.229481
-0.191212
-0.117967
0.0333433
0.066941
0.164504
0.0388996
-0.0616677
-0.0466581
-0.121549
-0.122487
-0.148628
-0.137661
-0.134752
-0.114046
-0.135137
-0.104882
-0.117083
-0.0984182
-0.0961565
-0.0640062
-0.0653757
-0.0455368
0.0642111
-0.0263698
0.0686816
-0.57052
-1.07908
-1.62304
-2.05019
-2.33626
-2.47044
-2.60133
-2.64705
-2.49804
-2.48536
-2.44126
-2.37227
-2.19707
-1.94832
-1.67192
-1.36977
-0.836952
-0.329722
0.30532
0.794913
-0.459521
-0.981317
-1.38788
-1.78872
-2.02929
-2.14935
-2.32868
-2.20856
-2.30395
-2.17177
-2.11798
-1.98035
-1.91113
-1.73332
-1.47864
-1.17888
-0.820184
-0.364766
0.164998
0.765283
-0.495108
-0.823125
-1.14806
-1.42659
-1.66543
-1.8523
-1.85142
-1.90523
-1.95807
-1.8488
-1.76855
-1.66769
-1.58408
-1.46071
-1.19774
-0.963923
-0.696003
-0.315461
0.201789
0.610657
-0.358132
-0.694811
-0.990889
-1.18406
-1.35596
-1.52604
-1.56187
-1.54594
-1.53962
-1.55612
-1.50215
-1.39415
-1.34387
-1.15507
-1.00066
-0.793175
-0.534912
-0.231545
0.0769836
0.513276
-0.276539
-0.477469
-0.683513
-0.941377
-0.994224
-1.08294
-1.18744
-1.16977
-1.15793
-1.16045
-1.12529
-1.0436
-0.973084
-0.912766
-0.827451
-0.631929
-0.438631
-0.211626
0.040211
0.297786
-0.22783
-0.375525
-0.459203
-0.688102
-0.818226
-0.781161
-0.840893
-0.855176
-0.840475
-0.839408
-0.836067
-0.768034
-0.757644
-0.605411
-0.604765
-0.432571
-0.344936
-0.148065
0.00292426
0.276485
-0.0996088
-0.271559
-0.339816
-0.466676
-0.485159
-0.441592
-0.525953
-0.533653
-0.48236
-0.540477
-0.391382
-0.495964
-0.440962
-0.381513
-0.423138
-0.273695
-0.193844
-0.086773
0.073924
0.186928
-0.0786137
-0.0573285
-0.164395
-0.165107
-0.220462
-0.152336
-0.0578428
-0.198813
-0.209429
-0.10403
-0.125143
-0.214428
-0.188036
-0.101568
-0.20505
-0.0752275
-0.103841
-0.0157905
0.042543
-0.00703861
-0.60416
-1.24575
-1.78396
-2.32006
-2.58917
-2.78407
-2.91385
-2.95265
-2.99341
-2.91115
-2.85899
-2.70735
-2.56546
-2.32124
-1.99913
-1.66405
-1.12069
-0.593974
0.0723125
0.693122
-0.558598
-1.05484
-1.55386
-1.92794
-2.23958
-2.3558
-2.48836
-2.62438
-2.58789
-2.60635
-2.52627
-2.38784
-2.21514
-2.07299
-1.75919
-1.44568
-1.02046
-0.483013
0.028811
0.619984
-0.47078
-0.915199
-1.25924
-1.61211
-1.8888
-2.02099
-2.17003
-2.20324
-2.17084
-2.17334
-2.09765
-1.99037
-1.82218
-1.77476
-1.55106
-1.15973
-0.946303
-0.466665
0.00812672
0.421697
-0.389179
-0.673779
-1.03554
-1.35139
-1.55324
-1.68525
-1.79043
-1.79511
-1.76203
-1.7381
-1.71719
-1.56731
-1.47071
-1.35776
-1.26153
-0.974429
-0.695243
-0.425582
0.041074
0.333303
-0.293055
-0.58991
-0.824249
-1.05268
-1.18308
-1.30091
-1.37828
-1.34434
-1.38172
-1.33163
-1.34065
-1.23786
-1.1573
-1.06256
-0.916671
-0.784379
-0.445854
-0.344076
0.0374698
0.264334
-0.202076
-0.364448
-0.624902
-0.719104
-0.799393
-0.885132
-0.939069
-0.929435
-0.962338
-0.973822
-0.93522
-0.931567
-0.862901
-0.768309
-0.602671
-0.518079
-0.350674
-0.209768
0.0388899
0.140291
-0.145378
-0.204377
-0.366455
-0.406181
-0.477335
-0.554928
-0.567428
-0.657529
-0.633564
-0.58556
-0.546345
-0.511747
-0.511941
-0.459519
-0.416268
-0.307105
-0.239445
-0.0899752
-0.0178829
0.110972
-0.0420978
-0.11325
-0.118006
-0.106484
-0.170312
-0.160131
-0.191548
-0.175013
-0.188668
-0.132856
-0.154121
-0.142373
-0.241452
-0.137785
-0.162001
-0.0719899
-0.168673
-0.00168204
-0.0640221
0.0176532
-0.577846
-1.09522
-1.72449
-2.21072
-2.6533
-2.8593
-3.06834
-3.18062
-3.1984
-3.19001
-3.06144
-2.87324
-2.62833
-2.57907
-2.11813
-1.73668
-1.21109
-0.557385
0.151044
0.790581
-0.496795
-0.94663
-1.49954
-1.88717
-2.27412
-2.55077
-2.68816
-2.75326
-2.67539
-2.72014
-2.63211
-2.51579
-2.42022
-2.16711
-1.8595
-1.47114
-1.04948
-0.503498
0.127175
0.724538
-0.463085
-0.852607
-1.28222
-1.6435
-1.88306
-2.09914
-2.24794
-2.30505
-2.27909
-2.30825
-2.26531
-2.13058
-1.97546
-1.85762
-1.56089
-1.27701
-0.870028
-0.460339
0.0797824
0.61955
-0.284984
-0.653458
-1.05779
-1.27263
-1.58381
-1.77637
-1.85806
-1.86885
-1.90447
-1.90817
-1.84231
-1.74291
-1.61794
-1.46102
-1.23455
-1.05411
-0.718561
-0.367131
0.0563918
0.408798
-0.245686
-0.500032
-0.807818
-0.944502
-1.21461
-1.32502
-1.4738
-1.46067
-1.43484
-1.37834
-1.38593
-1.44615
-1.18705
-1.19467
-1.02695
-0.827609
-0.56426
-0.325173
0.0118862
0.338477
-0.232814
-0.389038
-0.480598
-0.734879
-0.845302
-0.987745
-0.99215
-1.07718
-1.04026
-0.988126
-1.04096
-0.953021
-0.826103
-0.787781
-0.748789
-0.548044
-0.32006
-0.211431
0.0484898
0.228087
-0.0380448
-0.185868
-0.316812
-0.448535
-0.547246
-0.568966
-0.590798
-0.643297
-0.603449
-0.617579
-0.568883
-0.650144
-0.541945
-0.515942
-0.432392
-0.385854
-0.227281
-0.0824818
0.0731844
0.123283
-0.102026
-0.0279873
-0.103978
-0.126902
-0.138904
-0.256625
-0.165621
-0.209425
-0.263424
-0.256316
-0.237601
-0.206517
-0.180196
-0.193538
-0.157952
-0.0185901
-0.115771
-0.0720418
-0.0199492
-0.0302194
-0.163575
-0.75964
-1.45812
-2.02453
-2.39066
-2.77065
-3.05784
-3.09901
-3.13057
-3.11256
-3.0311
-2.90541
-2.6778
-2.39781
-2.01585
-1.6085
-0.985133
-0.371292
0.396183
1.18983
-0.196445
-0.825047
-1.2402
-1.73321
-2.1588
-2.37014
-2.61267
-2.74156
-2.676
-2.61891
-2.54241
-2.48312
-2.28748
-2.05914
-1.80686
-1.41559
-0.84681
-0.290163
0.308089
0.956612
-0.21261
-0.605099
-1.05667
-1.45745
-1.79024
-1.98308
-2.14304
-2.26615
-2.32715
-2.26826
-2.25404
-2.06632
-1.95212
-1.68389
-1.52404
-1.16711
-0.762558
-0.25951
0.340313
0.798755
-0.13426
-0.510365
-0.865079
-1.12795
-1.4279
-1.62193
-1.81214
-1.86523
-1.90419
-1.87523
-1.81382
-1.68045
-1.60511
-1.43756
-1.22077
-0.9589
-0.699134
-0.243624
0.226831
0.607748
-0.10268
-0.417203
-0.710174
-0.888239
-1.09384
-1.31953
-1.38445
-1.42367
-1.46928
-1.41606
-1.35208
-1.42983
-1.20011
-1.14166
-0.96514
-0.803298
-0.518522
-0.166588
0.198902
0.458193
-0.0727841
-0.236041
-0.505671
-0.710397
-0.882131
-0.904933
-0.987615
-1.08139
-1.02731
-1.0805
-0.969387
-0.972316
-0.854307
-0.817078
-0.645822
-0.506446
-0.385832
-0.136854
0.0824404
0.310065
-0.0615425
-0.181894
-0.26199
-0.426062
-0.51255
-0.531745
-0.568816
-0.586729
-0.590045
-0.647477
-0.655275
-0.583207
-0.501421
-0.416865
-0.391405
-0.296568
-0.193214
-0.139031
0.0645564
0.186017
-0.0522501
-0.0927523
-0.0728107
-0.135222
-0.163535
-0.162089
-0.162784
-0.187439
-0.218774
-0.223149
-0.174423
-0.115728
-0.200075
-0.1227
-0.188554
-0.140473
-0.112058
-0.0775603
0.00869101
0.0695538
0.427101
-0.185869
-0.962925
-1.5936
-2.05326
-2.3869
-2.6783
-2.77511
-2.84883
-2.888
-2.81441
-2.70909
-2.41164
-2.06138
-1.69906
-1.15014
-0.527633
0.12039
0.948295
1.68704
0.353376
-0.271997
-0.783798
-1.37891
-1.79098
-2.12491
-2.3328
-2.46055
-2.44842
-2.47667
-2.40995
-2.24682
-2.11206
-1.79034
-1.53008
-1.04271
-0.514774
0.127324
0.78347
1.42377
0.261042
-0.219591
-0.737539
-1.09887
-1.50575
-1.75273
-1.95087
-2.06098
-2.16566
-2.1202
-2.08179
-1.95271
-1.79641
-1.57488
-1.27443
-0.934309
-0.404069
0.0937937
0.698249
1.1558
0.200324
-0.142156
-0.546153
-0.98901
-1.18823
-1.44573
-1.53559
-1.64666
-1.75097
-1.70053
-1.67229
-1.61022
-1.46663
-1.24752
-0.999403
-0.692766
-0.340546
0.104922
0.509728
0.928912
0.06874
-0.123346
-0.376261
-0.694836
-0.89129
-1.13004
-1.23268
-1.40209
-1.32828
-1.34299
-1.31402
-1.20691
-1.11118
-0.996939
-0.761748
-0.554719
-0.362089
-0.0170346
0.464324
0.70048
0.0808698
-0.0803878
-0.257481
-0.564913
-0.71893
-0.782753
-0.904389
-0.915084
-0.918622
-0.975599
-0.876877
-0.830538
-0.847509
-0.649511
-0.677954
-0.416938
-0.16833
-0.0128195
0.192281
0.467311
0.0488253
-0.0669208
-0.212876
-0.369335
-0.428722
-0.477658
-0.593217
-0.524384
-0.545393
-0.542363
-0.536421
-0.510526
-0.470108
-0.42988
-0.349428
-0.221776
-0.121926
0.0126375
0.208765
0.329726
0.0515759
0.00685408
-0.0150396
-0.0874803
-0.165957
-0.123468
-0.209456
-0.169922
-0.184872
-0.145346
-0.135753
-0.151574
-0.182638
-0.124215
-0.0926384
-0.0278791
-0.143662
0.0887365
0.0305728
0.210213
1.24421
0.491192
-0.202928
-0.89033
-1.42867
-1.78584
-2.10238
-2.21356
-2.36322
-2.34789
-2.27804
-2.11038
-1.86403
-1.44291
-1.03373
-0.511933
0.137644
0.876517
1.64419
2.50708
1.07022
0.525986
-0.256049
-0.782728
-1.20912
-1.57267
-1.84441
-1.96951
-2.03718
-2.02865
-2.00741
-1.88363
-1.60073
-1.36088
-0.977989
-0.530345
0.035752
0.658194
1.41706
2.04529
0.929357
0.347237
-0.212451
-0.617353
-1.0872
-1.35266
-1.51631
-1.58969
-1.78582
-1.80041
-1.64897
-1.55391
-1.36348
-1.12959
-0.84697
-0.440889
0.00417551
0.582713
1.23712
1.66932
0.683758
0.366998
-0.172017
-0.541814
-0.885988
-1.04726
-1.26524
-1.33258
-1.42647
-1.44176
-1.39673
-1.25528
-1.11403
-0.97228
-0.72089
-0.422075
-0.0505143
0.436422
1.00597
1.44841
0.546177
0.270344
-0.132863
-0.377118
-0.59527
-0.84027
-0.969446
-1.06501
-1.10325
-1.02298
-1.12048
-0.987681
-0.888628
-0.742618
-0.53536
-0.287124
0.0123932
0.406464
0.76042
1.094
0.433432
0.137866
-0.0552932
-0.288298
-0.524901
-0.637888
-0.659229
-0.713329
-0.758051
-0.78951
-0.701702
-0.69346
-0.651268
-0.555999
-0.434915
-0.197867
0.00791466
0.260385
0.521514
0.71496
0.225379
0.0808004
-0.0159267
-0.176153
-0.339961
-0.371306
-0.447276
-0.41048
-0.459116
-0.402327
-0.445944
-0.400208
-0.394863
-0.327732
-0.246871
-0.1202
-0.0324268
0.153587
0.311275
0.466754
0.154128
0.0248885
0.00661758
-0.0228878
-0.0150004
-0.145646
-0.142421
-0.100102
-0.155965
-0.153164
-0.121819
-0.17604
-0.117272
-0.15497
-0.131984
0.0416672
-0.0473177
0.123919
0.121948
0.102868
2.30506
1.54504
0.777921
0.0870109
-0.447192
-0.90874
-1.22094
-1.43724
-1.6288
-1.61614
-1.55321
-1.28642
-1.10408
-0.762582
-0.246084
0.289819
1.05735
1.74823
2.61391
3.51078
1.99689
1.41885
0.630511
0.090141
-0.507871
-0.833629
-1.12626
-1.30189
-1.31171
-1.39369
-1.25073
-1.14881
-0.879238
-0.655839
-0.218375
0.291472
0.792806
1.51098
2.26147
2.92553
1.55471
1.11347
0.579307
0.0858009
-0.327322
-0.693348
-0.942917
-1.1172
-1.16244
-1.27348
-1.04863
-1.01464
-0.808737
-0.59443
-0.211265
0.18085
0.685562
1.28109
1.92986
2.46382
1.25577
0.957465
0.481931
-0.00492372
-0.35321
-0.562014
-0.760672
-0.886136
-1.05575
-0.942669
-0.967947
-0.815612
-0.649537
-0.468363
-0.189364
0.134621
0.568133
1.02183
1.4663
1.94148
1.00624
0.710589
0.263276
-0.0789055
-0.258514
-0.450488
-0.619374
-0.698428
-0.72641
-0.75044
-0.718171
-0.632886
-0.519387
-0.422471
-0.155175
0.096042
0.350002
0.818385
1.19491
1.47411
0.711621
0.496123
0.296328
0.0385902
-0.169036
-0.317822
-0.459739
-0.440169
-0.5374
-0.578415
-0.520683
-0.451563
-0.430377
-0.317833
-0.124538
0.121955
0.386362
0.586766
0.906452
1.01879
0.449753
0.307004
0.154533
-0.000401301
-0.182713
-0.160811
-0.206801
-0.321572
-0.369612
-0.352543
-0.248394
-0.351854
-0.252109
-0.174731
-0.103629
0.0724022
0.226302
0.329758
0.547297
0.629569
0.135197
0.120355
0.0521312
0.00532892
-0.00866562
0.00794022
-0.150713
-0.0790341
-0.16768
-0.0947215
-0.0670646
-0.0764407
-0.0886719
-0.0306657
-0.0543874
-0.0471535
0.0387575
0.124614
0.233737
0.234096
3.55496
2.7691
1.97882
1.25701
0.663872
0.180548
-0.227339
-0.421061
-0.54136
-0.674625
-0.441075
-0.328428
-0.0724958
0.336934
0.883009
1.46462
2.14934
2.97079
3.8854
4.67418
3.04804
2.46494
1.73397
1.06261
0.534027
0.152068
-0.147788
-0.342848
-0.567143
-0.566707
-0.480351
-0.250401
-0.0237195
0.218143
0.639421
1.19095
1.79353
2.5195
3.34112
4.03295
2.51814
2.01111
1.42843
0.902003
0.431855
0.108812
-0.176334
-0.2968
-0.403376
-0.447401
-0.383698
-0.250236
-0.0625057
0.235955
0.576646
1.06028
1.51816
2.12438
2.75358
3.34392
2.09492
1.75199
1.19647
0.749192
0.306447
0.0580591
-0.138641
-0.33881
-0.419894
-0.369938
-0.342187
-0.220679
-0.0737271
0.14522
0.448306
0.711121
1.21045
1.76174
2.26398
2.71275
1.55426
1.29964
0.876875
0.481534
0.26305
0.0458393
-0.133491
-0.289572
-0.255456
-0.254588
-0.283145
-0.182045
-0.00517193
0.147338
0.376109
0.692034
0.921775
1.37829
1.74636
2.08508
1.08933
0.868478
0.652923
0.316533
0.207646
0.0787888
-0.105435
-0.124464
-0.214566
-0.180332
-0.21145
-0.204172
-0.0982756
0.0906532
0.223109
0.445086
0.676819
0.950013
1.22817
1.43867
0.659447
0.561643
0.431523
0.181626
0.174641
0.089692
-0.0569239
-0.0676466
-0.140046
-0.0620238
-0.127471
-0.0766296
-0.0320262
0.0092345
0.134315
0.196887
0.405882
0.571538
0.740734
0.865854
0.220102
0.166753
0.0932934
0.114948
0.0924572
0.0168134
-0.0479303
-0.0476844
-0.0660529
0.00285767
-0.0488958
0.0170707
-0.00942553
0.0187693
0.105269
0.10651
0.123048
0.200406
0.246754
0.319296
5.16412
4.32475
3.51048
2.68198
2.02684
1.61603
1.12743
0.849204
0.749581
0.678416
0.795999
0.885613
1.274
1.66141
2.19932
2.7966
3.57643
4.38172
5.34305
6.30375
4.39791
3.77271
2.98696
2.33822
1.71883
1.36586
0.940935
0.85296
0.627127
0.574176
0.661098
0.762436
1.07713
1.37118
1.78342
2.39461
3.00463
3.81037
4.60478
5.2817
3.67476
3.09834
2.42023
1.95438
1.48681
1.1046
0.908479
0.639365
0.564718
0.548607
0.470844
0.70167
0.861266
1.08955
1.54137
2.02379
2.5624
3.14073
3.76766
4.5018
2.98292
2.53116
2.05686
1.5492
1.19009
0.944642
0.68762
0.487425
0.407057
0.371046
0.450161
0.550681
0.720057
0.973304
1.1843
1.64185
2.0436
2.61951
3.16539
3.62757
2.24216
1.95291
1.55241
1.2113
0.948846
0.692485
0.550748
0.439381
0.335437
0.315833
0.318584
0.383099
0.586567
0.686032
0.914674
1.22364
1.62279
1.99088
2.40106
2.79898
1.67619
1.42493
1.09983
0.84614
0.621753
0.440895
0.356668
0.221312
0.231054
0.184468
0.229678
0.335853
0.416203
0.477876
0.656645
0.938609
1.14204
1.39544
1.66071
2.04317
1.04569
0.860706
0.643968
0.4835
0.444886
0.29257
0.212462
0.196216
0.202488
0.121643
0.11087
0.188382
0.189839
0.255527
0.471448
0.486138
0.663547
0.850395
0.97794
1.13567
0.335746
0.247909
0.218085
0.14359
0.132939
0.158419
0.129069
0.0268321
0.0751618
0.000452939
0.0148008
0.0881571
0.0577453
0.147951
0.173858
0.171623
0.227048
0.280646
0.337646
0.469934
6.90883
6.15526
5.21805
4.44412
3.69066
3.20614
2.73183
2.46909
2.27027
2.23113
2.29863
2.48888
2.82282
3.19604
3.82547
4.50066
5.1763
6.06468
7.08614
8.07545
5.93105
5.27662
4.47945
3.82702
3.19696
2.68529
2.37178
2.04864
1.92934
1.87439
1.96336
2.1369
2.39889
2.68094
3.20135
3.77768
4.49401
5.2504
6.08388
6.81909
4.97778
4.41541
3.8522
3.19184
2.60858
2.23808
1.98514
1.72065
1.62317
1.62106
1.62979
1.7698
2.03632
2.30252
2.72769
3.17091
3.77101
4.3948
5.12432
5.76203
3.98238
3.60063
3.07763
2.54268
2.14068
1.79555
1.56543
1.41507
1.34968
1.34444
1.37679
1.39927
1.55718
1.85121
2.17987
2.59952
3.08739
3.58152
4.15929
4.68605
3.08822
2.80938
2.36811
2.06663
1.69341
1.38609
1.23176
1.08332
1.05289
0.990458
1.07355
1.16715
1.34172
1.40382
1.58964
1.97038
2.34925
2.75051
3.18387
3.63236
2.20783
1.98945
1.7207
1.40991
1.15199
1.01454
0.90678
0.787078
0.71907
0.727137
0.713037
0.759856
0.891143
1.08234
1.1756
1.42812
1.7288
1.94053
2.30655
2.57784
1.3051
1.18411
1.04409
0.874754
0.718599
0.603987
0.522479
0.395504
0.465827
0.460023
0.376043
0.446131
0.552565
0.669347
0.69462
0.832777
0.978167
1.16636
1.37497
1.52853
0.435779
0.35045
0.384636
0.289627
0.241992
0.146334
0.106027
0.163307
0.119008
0.107321
0.203826
0.194477
0.195261
0.199007
0.15073
0.262871
0.330494
0.365828
0.456541
0.571975
8.91998
8.12306
7.14391
6.30351
5.56669
5.07248
4.54677
4.28938
4.00791
4.04386
4.1361
4.29317
4.59686
5.0345
5.5521
6.30223
7.10089
8.03612
9.00268
9.97693
7.66081
6.95067
6.15509
5.46907
4.86787
4.31035
3.95802
3.7025
3.49795
3.46293
3.54367
3.6821
3.89385
4.28551
4.80616
5.39248
6.04348
6.84718
7.66089
8.53716
6.40526
5.88647
5.20468
4.53275
4.02974
3.61558
3.28378
3.02744
2.85542
2.83629
2.95904
3.09186
3.30791
3.62432
3.99095
4.47388
5.04272
5.76277
6.47588
7.13116
5.15829
4.76305
4.13637
3.69843
3.35445
2.89463
2.72632
2.47717
2.38896
2.39816
2.44896
2.47839
2.65724
2.98496
3.29945
3.63864
4.09154
4.68562
5.30059
5.79935
4.02434
3.66781
3.25906
2.86831
2.54304
2.31095
2.07082
1.96066
1.79249
1.79027
1.89463
1.92885
2.00141
2.27045
2.54279
2.79404
3.23981
3.6446
4.10475
4.4641
2.87337
2.58582
2.31851
2.03265
1.84626
1.60691
1.46893
1.33941
1.29938
1.33287
1.30545
1.3463
1.49037
1.65906
1.78176
1.96475
2.29132
2.51152
2.91956
3.21807
1.72142
1.55339
1.36033
1.21746
1.10331
0.994707
0.888839
0.832891
0.88043
0.712328
0.845812
0.854643
0.928106
1.01433
1.07534
1.22141
1.35339
1.56312
1.7391
1.86501
0.540704
0.571786
0.447106
0.460718
0.44474
0.293869
0.273843
0.269541
0.244889
0.302374
0.314136
0.354376
0.256668
0.426501
0.350672
0.40615
0.471072
0.545701
0.578618
0.672438
11.0813
10.261
9.31094
8.4112
7.66353
7.0057
6.57739
6.18875
6.06814
6.02916
6.1319
6.28995
6.55476
7.04375
7.56028
8.29337
9.0719
10.1365
11.1947
12.0811
9.48642
8.75376
7.96787
7.24002
6.51788
6.01063
5.65546
5.33354
5.14513
5.20007
5.16288
5.35085
5.59038
6.02712
6.47942
7.12691
7.84252
8.63411
9.60112
10.3013
7.97007
7.34347
6.63372
6.12631
5.52192
5.07589
4.80991
4.4615
4.33162
4.23343
4.28467
4.49188
4.68774
5.02876
5.45448
5.93245
6.52165
7.26823
7.99441
8.67399
6.50858
6.00013
5.43094
4.93099
4.50927
4.11447
3.80371
3.63027
3.49944
3.5686
3.48459
3.61223
3.77337
4.06851
4.42829
4.83726
5.36478
5.80459
6.50556
6.92907
5.0134
4.5934
4.17345
3.86945
3.41496
3.15866
2.99337
2.76387
2.74563
2.69226
2.73328
2.84392
2.92823
3.11214
3.40512
3.70914
4.06462
4.4823
5.03283
5.45662
3.56958
3.27858
3.00118
2.73644
2.49456
2.21751
2.08138
1.96579
1.89725
1.84747
1.9624
1.98637
2.13313
2.28073
2.40971
2.66995
2.95795
3.18578
3.5942
3.82849
2.10361
1.95243
1.74553
1.59116
1.52006
1.35387
1.27292
1.2068
1.0873
1.17862
1.19926
1.13977
1.24812
1.31968
1.47852
1.59661
1.76216
1.93302
2.09718
2.35781
0.761192
0.67761
0.574078
0.465902
0.468885
0.473007
0.470211
0.421777
0.368381
0.386888
0.428992
0.427797
0.429715
0.469768
0.447147
0.502515
0.548811
0.585526
0.730003
0.773886
13.2921
12.3753
11.4395
10.4912
9.81744
9.16406
8.62327
8.30513
8.12503
8.06866
8.09138
8.32342
8.62228
9.08366
9.62915
10.4024
11.2268
12.1613
13.2638
14.2914
11.3128
10.5412
9.73009
9.01869
8.30889
7.86725
7.39897
7.12288
6.99813
6.9019
6.95908
7.0912
7.31888
7.73261
8.21218
8.79683
9.62403
10.3629
11.3113
12.1713
9.52489
8.92476
8.22724
7.5473
6.97603
6.50588
6.21577
5.86702
5.7629
5.73737
5.69267
5.86185
6.06238
6.50397
6.85503
7.36337
8.03117
8.65785
9.47444
10.1635
7.66443
7.1791
6.59329
6.12058
5.72565
5.28516
4.9782
4.8079
4.67632
4.5763
4.6689
4.6174
4.9007
5.18366
5.59735
5.9708
6.51613
7.03291
7.64662
8.17838
5.9472
5.52067
5.10747
4.7548
4.35163
4.15893
3.88407
3.59882
3.57754
3.54233
3.58042
3.72509
3.83192
3.99182
4.29786
4.64255
4.96047
5.45832
5.80313
6.34948
4.25636
3.92309
3.69713
3.37294
3.098
2.91108
2.74905
2.67677
2.51527
2.55617
2.57995
2.5738
2.67715
2.84897
3.04601
3.30717
3.56962
3.87839
4.19204
4.48113
2.47367
2.35034
2.21831
1.97681
1.8286
1.78948
1.65901
1.58619
1.49865
1.5553
1.41883
1.57796
1.60574
1.74366
1.85461
1.9849
2.08746
2.27887
2.51387
2.70186
0.834768
0.760544
0.779159
0.647069
0.632847
0.54481
0.51434
0.508257
0.50639
0.51515
0.48203
0.542237
0.51091
0.612281
0.614658
0.684666
0.744879
0.829422
0.779318
0.894488
15.1054
14.138
13.1697
12.3043
11.4981
10.8628
10.3667
10.0092
9.8549
9.72395
9.76388
9.96476
10.3338
10.7602
11.2889
12.1032
12.9049
13.853
14.9854
15.9416
12.8653
12.0572
11.1571
10.4199
9.74439
9.22091
8.75525
8.49385
8.19094
8.2092
8.21142
8.38081
8.73758
9.0649
9.58905
10.2087
10.9774
11.8494
12.6868
13.5239
10.666
10.0623
9.27866
8.66922
8.16707
7.62579
7.25945
6.98246
6.75213
6.78152
6.80447
6.99403
7.1843
7.59119
8.05288
8.5116
9.08768
9.80504
10.5712
11.211
8.61464
8.04049
7.5585
7.06176
6.54476
6.151
5.88692
5.61029
5.51573
5.50424
5.52569
5.52374
5.8213
6.15844
6.46503
6.85523
7.34737
7.93731
8.54394
9.11093
6.6446
6.24362
5.77497
5.36749
5.03179
4.70997
4.48969
4.31177
4.17746
4.19573
4.20535
4.35106
4.41395
4.64502
4.90285
5.23876
5.66199
6.06341
6.58167
6.97648
4.71349
4.44151
4.00159
3.83028
3.53778
3.27458
3.17014
3.05858
2.99522
3.00355
3.01464
3.07855
3.12284
3.31485
3.52099
3.75248
3.96158
4.26532
4.6663
4.92363
2.83764
2.67896
2.48637
2.3114
2.11137
2.00727
1.81677
1.79233
1.79161
1.78366
1.80238
1.78505
1.94975
1.95324
2.08147
2.17616
2.37599
2.61746
2.7919
2.91923
0.955361
0.881465
0.811297
0.782361
0.69687
0.724559
0.60082
0.587089
0.590982
0.62838
0.59894
0.614175
0.667018
0.651302
0.668428
0.747996
0.846561
0.808204
0.961628
1.0185
)
;

boundaryField
{
    hotSide
    {
        type            calculated;
        value           nonuniform List<scalar> 
400
(
3.81055
3.1694
2.3152
1.4734
0.796344
0.284979
0.0951749
0.0772548
0.121648
0.556401
1.16998
2.01246
3.10117
4.38145
6.02351
7.8037
9.8529
12.0549
14.3088
16.168
3.51144
2.72813
1.92791
1.11365
0.36977
-0.120924
-0.405302
-0.556642
-0.388455
-0.0328356
0.563408
1.2654
2.34668
3.60071
5.18887
7.05448
9.05998
11.2382
13.3954
15.2037
3.33434
2.48829
1.57494
0.73787
0.0504203
-0.540333
-0.940647
-1.0867
-1.01007