/*--------------------------------*- C++ -*----------------------------------*\
| =========                 |                                                 |
| \\      /  F ield         | OpenFOAM: The Open Source CFD Toolbox           |
|  \\    /   O peration     | Version:  2212                                  |
|   \\  /    A nd           | Website:  www.openfoam.com                      |
|    \\/     M anipulation  |                                                 |
\*---------------------------------------------------------------------------*/
FoamFile
{
    version     2.0;
    format      ascii;
    arch        "LSB;label=32;scalar=64";
    class       volScalarField;
    location    "0";
    object      relativeErrorField;
}
// * * * * * * * * * * * * * * * * * * * * * * * * * * * * * * * * * * * * * //

dimensions      [0 0 0 1 0 0 0];

internalField   nonuniform List<scalar> 
3200
(
0.00943179
0.00851258
0.00795075
0.00725475
0.00699743
0.00703497
0.00746369
0.00753366
0.00779857
0.00822023
0.0087208
0.00902448
0.00918533
0.00947991
0.00968653
0.0101886
0.0108307
0.0116106
0.0126867
0.0142086
0.00808852
0.00711587
0.00681903
0.00627615
0.00608053
0.00603552
0.00640767
0.00658377
0.00687992
0.00721997
0.00718622
0.00776832
0.00765789
0.00805744
0.00824587
0.00872626
0.00931408
0.0100382
0.0111243
0.0119153
0.00678103
0.00620352
0.00552191
0.00510529
0.00495086
0.00509339
0.00517128
0.00563974
0.00566992
0.006018
0.00636674
0.00647774
0.00652808
0.00665027
0.0066825
0.00702927
0.00786562
0.008526
0.00944998
0.00999486
0.00562146
0.00503969
0.00454886
0.00408157
0.00404135
0.00418763
0.00454509
0.00450485
0.00473862
0.00491508
0.0051132
0.00523818
0.00542092
0.00552571
0.00552297
0.00569752
0.00616128
0.00687157
0.0075942
0.00831072
0.00439388
0.00403612
0.00361731
0.00339432
0.00327498
0.00312948
0.00331331
0.00343228
0.00390097
0.00391465
0.0039945
0.00426673
0.00412789
0.00416307
0.00439627
0.00468644
0.00495113
0.0055125
0.00595463
0.00630631
0.00306186
0.00298902
0.00249548
0.00234957
0.00220531
0.00226225
0.00242093
0.00232829
0.00289105
0.00284493
0.00292271
0.0030497
0.00279907
0.00313878
0.00343493
0.0033177
0.0036473
0.0038494
0.00450022
0.00454331
0.00189996
0.00193511
0.0014764
0.00149328
0.00130042
0.00122721
0.00140056
0.00145754
0.001526
0.00162316
0.00163573
0.00195688
0.00180341
0.00172187
0.00175129
0.00214911
0.00212398
0.00222998
0.00230828
0.00284579
0.000606636
0.000780627
0.000586447
0.000402862
0.000477984
0.000512681
0.000314752
0.000645561
0.0006796
0.000565368
0.000468051
0.000452824
0.000694811
0.000762784
0.000663826
0.000741584
0.000622891
0.000981039
0.000748988
0.000877288
0.00752706
0.0061905
0.00544673
0.00499813
0.00444745
0.00459996
0.00497463
0.00533423
0.00553628
0.00576197
0.00619916
0.00652115
0.00688862
0.00670584
0.00722429
0.00764372
0.00832576
0.00941993
0.0107974
0.0117084
0.00625023
0.00546858
0.00466592
0.0043937
0.00387819
0.00395998
0.00420526
0.0046044
0.00490862
0.00495354
0.00537189
0.00569408
0.00558078
0.00593116
0.00605846
0.00658098
0.00732801
0.00823469
0.00912529
0.0101576
0.00548184
0.00476184
0.00399016
0.00341237
0.0033632
0.00335328
0.00329659
0.00372381
0.00403568
0.00417894
0.00455644
0.00490217
0.00486866
0.00495374
0.00522798
0.0054978
0.00611285
0.00689326
0.00782236
0.00863399
0.00447937
0.00377959
0.00309533
0.00274175
0.0026925
0.00283995
0.00287389
0.00296585
0.0036472
0.00352428
0.00384137
0.00396937
0.00392795
0.00385053
0.00432409
0.00453685
0.0049698
0.00563733
0.00629005
0.00713722
0.00365711
0.00334046
0.00274584
0.00228826
0.00207578
0.00207259
0.00225167
0.00229461
0.00267753
0.00242911
0.00297074
0.00328261
0.00279924
0.00294516
0.00337611
0.00351291
0.00385257
0.00464591
0.00496769
0.00540768
0.0023934
0.002274
0.00187417
0.00175159
0.00173406
0.00158497
0.00188633
0.0016962
0.00199603
0.00179294
0.00200588
0.0021481
0.00217399
0.00229993
0.00234752
0.00260578
0.00260201
0.00307607
0.00346681
0.00401412
0.00147921
0.00146107
0.00110108
0.00123154
0.000939598
0.000995663
0.0010369
0.000994545
0.00108981
0.00105611
0.00120104
0.00117741
0.00119146
0.0011583
0.00164508
0.00162948
0.00177517
0.00171557
0.00233344
0.00245684
0.000650683
0.000301985
0.000335969
0.000139097
0.000506192
0.000575649
0.000353951
0.000413229
0.000222349
0.000546234
0.000407217
0.000632535
0.000386266
0.000419144
0.000614675
0.000420424
0.000489389
0.00051541
0.000780343
0.000627855
0.00498622
0.00381266
0.00273941
0.00192629
0.00169189
0.00151081
0.00164781
0.00188729
0.00221459
0.00232547
0.00291985
0.00321568
0.00348868
0.00361982
0.00413524
0.00456382
0.00539326
0.00683346
0.00800409
0.00927757
0.00420401
0.00327244
0.00219798
0.0017621
0.00157
0.00117124
0.00130499
0.00160124
0.00204926
0.00226466
0.00244617
0.0026732
0.00315525
0.00320737
0.00366458
0.00403372
0.00471331
0.00587568
0.00679133
0.00793914
0.00352268
0.00269551
0.00207242
0.0013702
0.0012812
0.00125235
0.00117812
0.00124622
0.00165487
0.00195759
0.00219363
0.00243453
0.00263147
0.00273425
0.00308288
0.0034894
0.00428635
0.00486206
0.0056521
0.00696302
0.00303152
0.00242888
0.00179764
0.00129518
0.000942563
0.00104728
0.00103211
0.00121544
0.00131861
0.00152726
0.00176032
0.00200709
0.00227891
0.00229507
0.00264093
0.00293099
0.00344088
0.0040173
0.00469642
0.00563676
0.00220458
0.00168195
0.00129717
0.00088455
0.000616065
0.000736979
0.000888124
0.000744349
0.00104542
0.00118511
0.00135513
0.00152114
0.00175315
0.00168767
0.00177315
0.00222965
0.00252706
0.00325106
0.00393067
0.00445495
0.0016557
0.0014528
0.00100811
0.000826082
0.000608792
0.000565682
0.00061791
0.000574894
0.000742556
0.00102589
0.00108285
0.00120613
0.00111003
0.0014222
0.00145362
0.00172647
0.0019792
0.00215541
0.00268047
0.00314041
0.00104872
0.000802703
0.000435154
0.00030828
0.000360659
0.000519885
0.000299973
0.000519035
0.000377236
0.000482912
0.000620319
0.000532331
0.000574242
0.000773223
0.00081349
0.000725271
0.00109993
0.00147666
0.00171063
0.00189806
0.000402721
0.000350745
0.000173264
0.000408759
0.000157849
0.000112531
7.59831e-05
1.22052e-06
0.000296549
2.47571e-05
0.000241248
0.000192098
4.94943e-05
0.000300592
0.000206622
0.0002616
0.000463656
0.000631374
0.000494164
0.000687351
0.00247888
0.00139073
0.000255078
0.000574783
0.00112978
0.00130151
0.0013455
0.000894269
0.000847789
0.000372913
7.52702e-05
0.000268807
0.00050249
0.000826436
0.00127551
0.00180164
0.00287412
0.00389642
0.00544055
0.00677735
0.00201429
0.00128251
0.000245571
0.000507198
0.00110093
0.00116233
0.00109263
0.000951494
0.000652145
0.000360172
0.0002563
0.000109047
0.000225212
0.000455881
0.000947023
0.00165916
0.002369
0.00340193
0.00472243
0.00590411
0.00175701
0.00114792
0.000252863
0.000581388
0.000861119
0.00119946
0.00105449
0.000778332
0.000533604
0.000417653
0.000165853
2.85616e-05
0.000174976
0.000371006
0.000744977
0.00130432
0.00203142
0.00299535
0.00383814
0.00480497
0.00146869
0.000707504
6.75816e-05
0.000299095
0.000545483
0.000945431
0.000663997
0.000949986
0.000496071
0.000299964
5.80184e-06
0.000160508
0.000399867
0.00051715
0.000760169
0.00105618
0.00177557
0.00244202
0.00336215
0.00422024
0.00123414
0.000611957
0.00022008
0.000182949
0.000677718
0.00070441
0.000519603
0.000521611
0.000373191
0.00024751
2.30155e-05
8.23549e-05
0.000107692
0.000388375
0.000443996
0.00103249
0.00141077
0.00189123
0.00256602
0.00315283
0.000906876
0.00042608
2.02995e-06
0.000169653
0.000337675
0.000318826
0.000448668
0.00016987
0.000113883
2.21214e-05
6.74708e-05
9.95525e-06
0.00021223
0.000101972
0.000324981
0.000479363
0.000850439
0.00134136
0.00209237
0.00231876
0.00049508
0.000258796
8.11335e-05
0.000163892
0.00024956
0.00036806
0.000252826
3.69087e-05
0.000135421
6.44841e-05
6.02191e-06
3.77243e-05
6.4832e-05
0.000188923
3.58031e-05
0.000491658
0.00062799
0.000901346
0.00118829
0.00147665
0.000218665
0.000108496
4.54849e-05
0.000128021
1.67501e-05
2.03877e-05
0.000146875
0.000135071
7.13851e-05
6.37697e-05
4.33201e-06
1.30008e-05
8.96304e-05
4.95651e-05
1.107e-05
0.000106391
0.000186505
0.000380431
0.000272648
0.000421602
0.000456458
0.000823742
0.00178853
0.00261057
0.00328591
0.00372557
0.00374953
0.00390369
0.00367486
0.00311795
0.00299725
0.00253559
0.00223598
0.00195232
0.00137385
0.000252334
0.000520579
0.00153706
0.00332293
0.00482954
0.000221739
0.000614216
0.00193169
0.0024801
0.00314249
0.00338965
0.00330884
0.0031186
0.0031354
0.00264546
0.00233631
0.00224943
0.00186823
0.00171666
0.00114809
0.000668554
0.00048934
0.00159775
0.00269139
0.00426893
0.000330863
0.000702861
0.00139245
0.0020627
0.00256395
0.00282889
0.00289866
0.00301761
0.00256722
0.00255245
0.0021324
0.00206478
0.00184121
0.00133964
0.000897765
0.000356266
0.000531615
0.00135043
0.00223443
0.00366536
6.3825e-05
0.000440886
0.00124338
0.00171155
0.00228096
0.00238627
0.00239315
0.00223784
0.002167
0.0019436
0.00181472
0.00166196
0.00144794
0.00101823
0.000963713
0.000470561
0.000179067
0.00118056
0.00208234
0.00298848
0.000187559
6.62567e-05
0.000828978
0.00145158
0.00187546
0.00174498
0.00188356
0.00201529
0.00160781
0.00160918
0.00142174
0.00124705
0.00134488
0.000875025
0.000575792
0.00027151
6.53579e-05
0.000747515
0.00170732
0.00201774
0.000202178
9.6776e-05
0.000709996
0.00117396
0.00134684
0.00146176
0.00118741
0.00120529
0.00130835
0.00111829
0.00101168
0.000891871
0.000877581
0.000912077
0.000439905
0.000144406
7.44911e-05
0.000641194
0.000939033
0.00172695
0.000344736
0.000152823
0.000434923
0.000665681
0.000756163
0.000674513
0.000755061
0.000760887
0.000653538
0.000663533
0.000624838
0.000319543
0.000550867
0.000375197
0.000345856
1.48803e-05
5.47136e-05
0.000414049
0.000835577
0.00115453
1.84086e-05
0.00013135
0.000193474
0.000240738
0.000218187
0.000398734
0.000192352
7.18657e-05
0.000211188
0.000258443
0.000132803
0.000140456
4.78508e-05
0.000220633
0.000247834
8.83447e-05
2.94796e-05
0.000338899
0.000231636
0.000319472
0.00107822
0.00229281
0.00354621
0.0047135
0.00533256
0.00583316
0.0058215
0.00590513
0.00604901
0.00565036
0.0050572
0.00504541
0.00461088
0.00413468
0.00335898
0.00241417
0.00134955
0.000136437
0.00183709
0.00334767
0.000812787
0.00211312
0.00302023
0.00388869
0.00468104
0.00496055
0.00529523
0.00525531
0.00534672
0.00485238
0.00475182
0.00439247
0.00409322
0.00364828
0.00286214
0.00221157
0.0012417
3.99475e-05
0.00131034
0.00284293
0.000924751
0.00138995
0.00292253
0.00341817
0.00392591
0.00433778
0.00446535
0.00457118
0.00440037
0.00423419
0.00408882
0.00393796
0.00347415
0.00315829
0.00263529
0.0019697
0.00101043
0.000110466
0.00132707
0.00242212
0.000702398
0.00137115
0.00230019
0.0029036
0.00316798
0.00367648
0.00368321
0.00363512
0.0037063
0.00352189
0.00327698
0.0030187
0.00290554
0.00275924
0.00220463
0.00163356
0.00082836
0.000149595
0.00113282
0.00205228
0.000475681
0.00102007
0.00193163
0.00213492
0.00277584
0.0027576
0.00303523
0.0028446
0.00297966
0.00288498
0.00250365
0.00226519
0.00210617
0.00199637
0.00170906
0.00110286
0.000918598
0.000138518
0.000795233
0.00141641
0.000406732
0.000703213
0.00139042
0.00173904
0.00202204
0.00222403
0.00224762
0.00231939
0.00206823
0.00207257
0.00177081
0.00175573
0.00175118
0.00130811
0.00148917
0.00105832
0.000345431
3.09352e-05
0.000450671
0.0010665
0.000173153
0.000589037
0.000759025
0.00100682
0.00138939
0.00103711
0.00136483
0.00146232
0.00119738
0.00121875
0.00105888
0.00122873
0.00132176
0.00096181
0.000744165
0.000620204
0.000382718
0.000108199
0.000217268
0.000534006
0.000128509
0.000203715
0.000154122
0.000401471
0.000404536
0.000490837
0.000454587
0.000444956
0.000376569
0.000446199
0.000346301
0.000386597
0.00032498
0.000317531
0.000211377
0.000215916
0.000150406
0.000212103
8.71109e-05
0.000226897
0.00167014
0.00315666
0.00474368
0.00598636
0.00681505
0.0071997
0.0075747
0.00770238
0.00726507
0.00722626
0.00709803
0.00689929
0.00639301
0.00567323
0.00487255
0.00399571
0.00244382
0.00096368
0.000893158
0.00232702
0.00136784
0.00291927
0.00412551
0.00531252
0.00602188
0.00637288
0.00689942
0.00653945
0.00681883
0.00642611
0.00626695
0.00586108
0.00565877
0.00513548
0.00438421
0.00349829
0.00243596
0.00108427
0.000490843
0.00227799
0.00149879
0.00249048
0.00347128
0.00431033
0.00502825
0.00558847
0.00558223
0.00574139
0.00589833
0.00556806
0.00532636
0.00502363
0.0047736
0.00440418
0.00361363
0.00291026
0.00210291
0.00095383
0.000610539
0.00184858
0.00110272
0.00213848
0.00304804
0.00364006
0.00416598
0.00468575
0.00479319
0.00474217
0.00472129
0.00477107
0.00460559
0.00427518
0.00412233
0.00354477
0.00307255
0.0024369
0.00164444
0.00071225
0.000236939
0.00158042
0.000866247
0.00149516
0.00213943
0.00294515
0.00310898
0.00338481
0.00370988
0.00365338
0.00361549
0.00362286
0.00351311
0.00325849
0.00303909
0.00285172
0.00258627
0.00197607
0.00137228
0.000662403
0.000125918
0.000932803
0.000726199
0.00119669
0.00146288
0.00219132
0.00260479
0.00248595
0.00267522
0.00271996
0.00267271
0.00266905
0.00265843
0.00244234
0.00240975
0.00192605
0.00192459
0.00137708
0.00109848
0.000471689
9.31875e-06
0.000881287
0.000323154
0.000880871
0.00110207
0.00151317
0.00157276
0.00143123
0.00170433
0.00172901
0.00156265
0.00175082
0.00126784
0.00160672
0.00142869
0.00123628
0.00137142
0.00088725
0.000628528
0.000281416
0.000239792
0.000606439
0.000259656
0.000189343
0.000542924
0.000545234
0.000727983
0.00050299
0.000190975
0.000656371
0.000691391
0.00034343
0.00041313
0.000707894
0.000620792
0.000335339
0.000677043
0.000248407
0.000342915
5.21491e-05
0.00014051
2.32481e-05
0.001763
0.00363277
0.00519789
0.00675384
0.0075304
0.00809021
0.00846063
0.00856769
0.00868187
0.0084412
0.00828996
0.0078522
0.00744418
0.00673993
0.00580924
0.00483975
0.00326239
0.00173065
0.000210873
0.0020226
0.00165813
0.00312937
0.00460636
0.0057108
0.00662859
0.00696723
0.00735415
0.00775167
0.00764073
0.00769355
0.00745715
0.00705007
0.00654288
0.00612655
0.00520277
0.00427885
0.00302272
0.00143188
8.54726e-05
0.00184034
0.00142174
0.00276252
0.00379859
0.00485974
0.00568992
0.0060841
0.00652887
0.00662548
0.00652574
0.00653203
0.00630455
0.00598324
0.00547957
0.00533964
0.00466938
0.00349362
0.00285265
0.00140773
2.45305e-05
0.00127351
0.00119594
0.00206968
0.00317927
0.00414659
0.00476323
0.00516519
0.00548485
0.0054969
0.00539403
0.00531994
0.00525592
0.00479793
0.00450356
0.0041594
0.00386651
0.00298822
0.00213328
0.0013066
0.000126169
0.00102423
0.000916547
0.0018444
0.00257601
0.00328844
0.00369414
0.00406026
0.00430007
0.0041928
0.00430837
0.00415168
0.00417979
0.00385979
0.00360943
0.00331504
0.00286102
0.00244919
0.00139279
0.00107533
0.000117152
0.00082672
0.000643378
0.00116008
0.00198854
0.00228756
0.00254213
0.00281389
0.00298451
0.00295318
0.00305721
0.00309341
0.00297079
0.00295945
0.00274178
0.0024418
0.00191593
0.00164753
0.00111554
0.000667514
0.000123791
0.000446665
0.000471313
0.000662495
0.00118766
0.00131615
0.0015464
0.00179742
0.00183758
0.00212905
0.00205124
0.00189572
0.00176877
0.00165685
0.00165765
0.00148812
0.0013483
0.00099491
0.000775872
0.000291605
5.79681e-05
0.000359769
0.000139014
0.000373951
0.00038963
0.000351563
0.000562257
0.000528613
0.000632285
0.000577676
0.000622725
0.000438501
0.000508688
0.000469922
0.000796977
0.000454819
0.000534785
0.000237664
0.000556887
5.55374e-06
0.000211401
5.82936e-05
0.0016801
0.00318235
0.00500688
0.00641318
0.00769061
0.00828102
0.00887999
0.0091994
0.00924686
0.00922054
0.0088489
0.00830682
0.00760199
0.00746401
0.00613447
0.00503377
0.00351329
0.0016183
0.000438885
0.00229863
0.00146998
0.00279949
0.00443155
0.00557294
0.00671065
0.00752168
0.00792172
0.0081093
0.00787694
0.00800713
0.007748
0.00740706
0.00712837
0.00638626
0.00548325
0.00434114
0.0030992
0.00148797
0.000376097
0.00214386
0.00139468
0.00256663
0.00385762
0.00494138
0.00565804
0.00630343
0.00674653
0.00691477
0.00683467
0.00692095
0.00679218
0.00638931
0.00592607
0.00557512
0.00468714
0.00383704
0.00261585
0.00138495
0.000240172
0.00186591
0.000873767
0.00200276
0.0032404
0.00389643
0.00484661
0.00543309
0.00568031
0.00571113
0.00581841
0.00582888
0.00562771
0.00532482
0.00494438
0.00446652
0.00377591
0.00322565
0.00220003
0.00112465
0.000172833
0.00125338
0.000767022
0.00156062
0.00252025
0.00294544
0.00378619
0.00412868
0.00459059
0.00454833
0.00446695
0.00429056
0.0043142
0.00450214
0.00369631
0.00372117
0.00319992
0.00257982
0.00175965
0.00101448
3.70973e-05
0.00105671
0.00074028
0.00123676
0.0015274
0.00233482
0.00268483
0.00313633
0.00314948
0.00341865
0.00330097
0.00313527
0.00330291
0.00302414
0.00262181
0.00250073
0.00237758
0.00174069
0.00101688
0.000671953
0.00015415
0.000725248
0.000123242
0.000602023
0.00102597
0.00145228
0.00177155
0.00184153
0.00191188
0.0020815
0.00195237
0.00199799
0.00184045
0.00210345
0.00175356
0.00166964
0.00139949
0.00124909
0.000735893
0.000267111
0.000237043
0.000399363
0.000336815
9.23892e-05
0.000343222
0.000418868
0.000458453
0.000846939
0.000546569
0.000691095
0.000869258
0.00084579
0.000784036
0.000681477
0.00059464
0.000638698
0.000521288
6.13564e-05
0.000382127
0.000237804
6.58546e-05
9.97619e-05
0.000473658
0.00219836
0.00421662
0.00585003
0.00690263
0.00799385
0.00881658
0.00893042
0.00901783
0.00896415
0.00872956
0.00836926
0.00771662
0.00691354
0.00581609
0.00464426
0.00284661
0.00107371
0.00114654
0.00344535
0.000579184
0.00243127
0.0036523
0.00510065
0.00634877
0.00696573
0.00767404
0.00804875
0.00785357
0.00768465
0.00746015
0.00728748
0.00671564
0.00604818
0.00531027
0.0041631
0.00249208
0.000854508
0.000907885
0.00282041
0.000638351
0.001816
0.00316948
0.00436905
0.00536348
0.00593787
0.00641359
0.00677922
0.00695963
0.00678249
0.00673998
0.00617958
0.00583979
0.00503948
0.00456338
0.0034966
0.00228594
0.0007784
0.00102134
0.00239823
0.000410594
0.00156024
0.00264342
0.00344498
0.00435894
0.00494891
0.00552698
0.00568692
0.00580429
0.00571527
0.00552811
0.0051223
0.00489386
0.0043845
0.00372489
0.00292722
0.00213529
0.00074444
0.000693447
0.00185861
0.000319917
0.0012995
0.00221124
0.00276459
0.00340319
0.00410382
0.00430431
0.00442502
0.00456591
0.00440007
0.00420126
0.00444331
0.00373016
0.00354946
0.00300165
0.00249925
0.00161387
0.0005187
0.000619541
0.00142757
0.000231092
0.000749288
0.00160477
0.00225385
0.0027979
0.00286945
0.00313086
0.00342746
0.00325557
0.00342389
0.0030718
0.00308131
0.00270772
0.00259024
0.00204784
0.00160632
0.00122411
0.000434313
0.000261699
0.000984469
0.000199182
0.000588627
0.000847688
0.00137832
0.00165782
0.00171962
0.00183923
0.00189692
0.00190747
0.00209304
0.00211825
0.00188537
0.00162112
0.00134791
0.00126577
0.000959236
0.000625052
0.000449845
0.000208911
0.000602043
0.000172438
0.000306093
0.00024027
0.000446195
0.000539591
0.000534789
0.000537055
0.000618371
0.000721724
0.000736146
0.000575404
0.000381782
0.000660055
0.00040481
0.000622105
0.000463495
0.000369762
0.000255943
2.86813e-05
0.000229545
0.00123114
0.000535481
0.00277226
0.00458469
0.00590288
0.00685744
0.00768996
0.007964
0.0081727
0.00828356
0.00807248
0.00777181
0.00692092
0.00591867
0.0048813
0.00330651
0.00151797
0.000346601
0.00273201
0.00486297
0.00103772
0.000798368
0.00229922
0.00404238
0.0052471
0.00622173
0.00682678
0.00719751
0.00715981
0.00724124
0.00704616
0.00657026
0.00617811
0.00523931
0.00448005
0.00305485
0.0015091
0.000373498
0.00229964
0.00418103
0.000781089
0.000656795
0.00220484
0.00328322
0.00449646
0.0052313
0.00582002
0.00614619
0.00645667
0.00632023
0.00620575
0.00582176
0.00535722
0.00469834
0.00380373
0.00279003
0.00120729
0.000280392
0.00208846
0.00345838
0.000610888
0.000433362
0.00166423
0.00301233
0.00361747
0.00439952
0.0046712
0.00500749
0.00532351
0.00516956
0.0050837
0.00489558
0.00446003
0.0037949
0.00304131
0.00210907
0.00103723
0.000319717
0.0015539
0.00283271
0.000213689
0.000383342
0.00116897
0.00215794
0.00276707
0.00350709
0.00382447
0.004349
0.00411933
0.00416455
0.00407473
0.00374293
0.00344666
0.00309307
0.00236409
0.00172216
0.00112453
5.29231e-05
0.00144305
0.00217755
0.000256345
0.000254769
0.000815823
0.00178944
0.00227671
0.00247822
0.00286269
0.00289602
0.00290684
0.00308693
0.00277456
0.00262811
0.00268216
0.00205592
0.00214642
0.00132037
0.000533208
4.06182e-05
0.000609388
0.0014813
0.000157865
0.000216348
0.000688103
0.00119365
0.00138536
0.00154325
0.00191636
0.0016938
0.00176152
0.00175167
0.00173247
0.00164891
0.00151849
0.0013887
0.00112896
0.00071664
0.000394051
4.08495e-05
0.000674918
0.00106609
0.000170155
2.26116e-05
4.9613e-05
0.000288566
0.000547401
0.000407233
0.000690815
0.000560404
0.000609694
0.000479333
0.000447694
0.000499881
0.000602342
0.000409678
0.000305548
9.19579e-05
0.000473891
0.000292727
0.00010086
0.00069352
0.00356867
0.00140813
0.00058138
0.00254907
0.00408772
0.00510651
0.00600838
0.00632329
0.00674871
0.0067038
0.00650438
0.00602666
0.00532484
0.00412368
0.0029559
0.00146474
0.000394084
0.00251118
0.0047135
0.00719084
0.00312905
0.00153717
0.00074788
0.0022849
0.00352757
0.00458573
0.0053755
0.00573786
0.00593335
0.00590763
0.00584578
0.00548612
0.00466349
0.00396626
0.0028517
0.00154726
0.000104365
0.00192249
0.00414131
0.00597992
0.00277036
0.00103471
0.000632769
0.00183782
0.00323491
0.00402288
0.00450772
0.00472427
0.00530585
0.00534854
0.00489867
0.00461683
0.004052
0.00335809
0.00251894
0.00131184
1.24302e-05
0.00173557
0.00368642
0.00497616
0.0020786
0.00111532
0.000522559
0.00164525
0.00268925
0.00317751
0.00383755
0.00404066
0.0043245
0.00437038
0.00423389
0.00380552
0.00337797
0.00294899
0.00218726
0.00128113
0.00015339
0.00132578
0.00305719
0.00440313
0.00169367
0.000838126
0.000411774
0.0011684
0.00184367
0.00260168
0.00300082
0.00329589
0.00341368
0.00316503
0.00346669
0.00305609
0.00275004
0.00229869
0.0016576
0.00088928
3.83968e-05
0.00125973
0.00235747
0.00339244
0.00137144
0.000436152
0.000174885
0.00091163
0.00165939
0.00201613
0.00208316
0.00225375
0.00239477
0.002494
0.00221662
0.00219071
0.00205767
0.00175696
0.0013746
0.000625526
2.5027e-05
0.000823562
0.00164986
0.00226223
0.000727905
0.000260933
5.14259e-05
0.000568695
0.00109738
0.00119839
0.00144341
0.00132453
0.00148136
0.00129808
0.00143881
0.00129129
0.00127414
0.00105763
0.000796777
0.000387999
0.000104687
0.000495918
0.00100522
0.00150747
0.000508295
8.20763e-05
2.18221e-05
7.54711e-05
4.94605e-05
0.000480212
0.000469557
0.000330022
0.000514182
0.00050494
0.000401607
0.000580365
0.000386628
0.000510932
0.000435167
0.000137388
0.000156027
0.000408635
0.000402156
0.000339246
0.00657564
0.00440546
0.00221684
0.000247805
0.00127284
0.00258511
0.00347153
0.00408492
0.00462807
0.00459142
0.00441264
0.00365521
0.00313802
0.00216827
0.00070004
0.000824913
0.00301132
0.00498192
0.00745316
0.0100152
0.00581057
0.00412693
0.001833
0.000261914
0.0014749
0.00241975
0.00326775
0.003776
0.00380353
0.00404071
0.00362623
0.00333117
0.00255013
0.00190286
0.000633873
0.000846462
0.00230359
0.00439266
0.0065778
0.00851275
0.00461551
0.00330447
0.00171847
0.000254404
0.000970089
0.00205402
0.00279232
0.00330742
0.00344061
0.00376884
0.00310341
0.00300315
0.00239423
0.00176032
0.000625864
0.000535988
0.00203273
0.00380024
0.00572727
0.00731442
0.00380447
0.00289992
0.00145911
1.49015e-05
0.00106858
0.00169968
0.00229976
0.00267839
0.00319047
0.00284849
0.00292488
0.00246478
0.00196326
0.00141601
0.000572688
0.000407274
0.00171944
0.00309374
0.00444104
0.00588189
0.00311187
0.00219708
0.00081379
0.000243824
0.000798586
0.00139123
0.00191232
0.00215597
0.00224203
0.00231602
0.00221643
0.00195337
0.00160329
0.00130438
0.000479223
0.000296688
0.00108153
0.00252963
0.00369455
0.00455881
0.00224724
0.00156646
0.000935431
0.000121793
0.000533367
0.00100263
0.00145008
0.00138815
0.0016946
0.00182384
0.0016418
0.00142393
0.00135727
0.00100249
0.00039288
0.00038481
0.00121938
0.00185227
0.00286204
0.00321725
0.00145082
0.000990235
0.00049838
1.29405e-06
0.000589103
0.000518424
0.000666609
0.00103647
0.00119124
0.00113619
0.000800534
0.001134
0.000812585
0.000563234
0.000334078
0.00023344
0.000729741
0.00106349
0.0017653
0.00203087
0.000445677
0.000396737
0.000171838
1.75647e-05
2.85615e-05
2.61695e-05
0.000496701
0.000260464
0.000552591
0.000312153
0.00022101
0.000251911
0.000292226
0.000101064
0.000179251
0.000155416
0.000127749
0.000410762
0.000770492
0.000771699
0.0100819
0.00784982
0.00560655
0.00355951
0.0018789
0.000510736
0.000642815
0.00119015
0.0015298
0.00190614
0.00124625
0.000928087
0.000204914
0.000952703
0.00249786
0.00414518
0.00608634
0.0084171
0.0110143
0.013256
0.00882361
0.00713294
0.00501535
0.00307203
0.00154315
0.000439228
0.000426699
0.000989575
0.0016366
0.00163516
0.00138599
0.000722581
6.84624e-05
0.000629831
0.00184688
0.00344142
0.0051851
0.00728742
0.00966841
0.0116748
0.00744257
0.00594213
0.00421883
0.00266292
0.00127441
0.000320985
0.000519992
0.000874994
0.00118896
0.0013186
0.00113085
0.000737578
0.000184273
0.000695808
0.00170104
0.0031289
0.00448195
0.00627428
0.00813588
0.00988324
0.00632335
0.00528687
0.00360931
0.00225924
0.000923796
0.000174965
0.000417688
0.00102051
0.00126454
0.001114
0.00103043
0.000664587
0.00022207
0.00043751
0.001351
0.0021437
0.00365019
0.00531452
0.00683187
0.00818824
0.00479264
0.0040067
0.00270262
0.00148373
0.000810299
0.000141168
0.000411011
0.000891415
0.000786291
0.000783567
0.000871459
0.000560333
1.59212e-05
0.000453643
0.00115827
0.00213174
0.00284022
0.00424802
0.00538388
0.00642944
0.00343266
0.00273633
0.00205678
0.000996911
0.000653844
0.000248047
0.000331881
0.000391729
0.000675247
0.000567484
0.000665411
0.000642536
0.000309306
0.000285353
0.000702403
0.0014015
0.00213162
0.00299265
0.00386961
0.00453352
0.00212447
0.00180922
0.0013899
0.000584929
0.000562367
0.000288786
0.000183263
0.000217766
0.000450806
0.000199648
0.000410317
0.000246669
0.000103098
2.97298e-05
0.00043246
0.000634
0.00130715
0.00184087
0.00238612
0.00278943
0.000725247
0.000549442
0.000307384
0.000378716
0.000304602
5.539e-05
0.000157896
0.000157081
0.000217586
9.4134e-06
0.000161067
5.62329e-05
3.10495e-05
6.18316e-05
0.000346799
0.000350901
0.000405401
0.000660299
0.000813037
0.00105209
0.0145538
0.0121834
0.00988471
0.0075481
0.00570155
0.00454388
0.00316883
0.00238606
0.00210568
0.00190555
0.00223582
0.00248781
0.00357965
0.00466964
0.00618395
0.00786688
0.0100654
0.0123379
0.0150521
0.0177656
0.012661
0.0108574
0.00859247
0.00672332
0.00494021
0.00392416
0.00270238
0.00244904
0.00180026
0.00164809
0.00189759
0.00218869
0.00309267
0.00393805
0.00512382
0.0068825
0.0086395
0.0109612
0.0132521
0.0152054
0.0108095
0.00911125
0.00711456
0.00574294
0.00436737
0.00324355
0.00266685
0.00187641
0.00165706
0.00160964
0.00138148
0.00205892
0.00252765
0.00319838
0.00452607
0.00594471
0.00752961
0.00923254
0.0110795
0.0132423
0.00896807
0.00760804
0.00618053
0.00465362
0.00357378
0.0028359
0.00206377
0.00146263
0.00122129
0.00111317
0.00135052
0.0016522
0.00216069
0.0029212
0.00355536
0.0049304
0.00613871
0.0078712
0.00951438
0.0109062
0.00689209
0.00600188
0.00476984
0.00372082
0.00291391
0.00212614
0.00169062
0.00134855
0.00102941
0.000969189
0.00097763
0.00117567
0.00180029
0.0021059
0.00280833
0.00375781
0.00498484
0.00611707
0.00737917
0.00860368
0.0052699
0.00447935
0.00345675
0.00265892
0.00195345
0.00138499
0.00112024
0.000695027
0.000725562
0.000579243
0.000721209
0.00105465
0.00130708
0.00150094
0.00206273
0.00294896
0.00358874
0.00438585
0.00522052
0.00642367
0.00336404
0.00276872
0.00207129
0.00155497
0.00143063
0.000940728
0.000683088
0.000630808
0.000650938
0.000391036
0.000356405
0.000605593
0.000610305
0.000821545
0.00151589
0.00156328
0.00213402
0.00273525
0.00314584
0.00365353
0.00110576
0.000816453
0.000718203
0.000472855
0.000437766
0.000521651
0.000424995
8.83497e-05
0.00024748
1.49134e-06
4.87331e-05
0.000290268
0.000190137
0.000487167
0.000572492
0.000565153
0.000747693
0.000924232
0.00111199
0.0015477
0.0193415
0.0172256
0.0145964
0.0124258
0.0103147
0.00895695
0.00762918
0.00689348
0.00633718
0.00622727
0.00641566
0.00694739
0.00788109
0.0089256
0.0106872
0.0125785
0.014473
0.0169647
0.0198307
0.0226075
0.0169748
0.0150971
0.0128113
0.010941
0.00913618
0.00767122
0.00677347
0.00584919
0.00550757
0.00535024
0.00560419
0.00610009
0.0068492
0.00765639
0.00914545
0.0107957
0.0128478
0.0150162
0.0174067
0.0195164
0.0145686
0.0129192
0.0112676
0.0093328
0.00762482
0.00653984
0.00579917
0.00502541
0.00473999
0.00473349
0.00475896
0.0051682
0.0059474
0.00672631
0.0079705
0.00926851
0.0110263
0.0128546
0.0149935
0.0168639
0.0119226
0.0107774
0.00920937
0.0076064
0.00640201
0.00536848
0.0046794
0.00422915
0.00403323
0.0040173
0.00411398
0.0041814
0.0046539
0.00553365
0.00651754
0.00777423
0.00923589
0.0107172
0.0124495
0.0140293
0.00946113
0.00860542
0.00725214
0.00632741
0.00518358
0.00424197
0.003769
0.00331432
0.00322088
0.00302975
0.00328393
0.00357044
0.00410485
0.00429549
0.00486494
0.00603138
0.00719271
0.00842318
0.00975249
0.0111282
0.00692448
0.00623878
0.00539514
0.00441993
0.00361079
0.00317947
0.00284139
0.00246604
0.0022528
0.00227798
0.00223381
0.00238058
0.0027921
0.0033915
0.00368422
0.00447629
0.0054196
0.00608439
0.00723319
0.00808494
0.00419231
0.00380338
0.00335329
0.00280915
0.00230745
0.00193924
0.00167741
0.00126968
0.00149536
0.0014767
0.00120712
0.00143213
0.00177388
0.00214892
0.00223024
0.00267408
0.00314124
0.00374598
0.00441641
0.00491002
0.00143448
0.00115357
0.00126605
0.00095329
0.000796478
0.000481619
0.00034895
0.000537454
0.000391658
0.000353193
0.00067079
0.000640025
0.000642618
0.000654959
0.000496085
0.000865196
0.0010878
0.00120415
0.00150279
0.0018828
0.0247981
0.0225752
0.0198461
0.0175042
0.0154521
0.0140752
0.0126125
0.0118955
0.011113
0.0112117
0.0114674
0.011904
0.0127483
0.0139654
0.0154061
0.0174938
0.0197185
0.0223247
0.0250197
0.0277365
0.0217912
0.0197655
0.017497
0.0155412
0.013828
0.0122404
0.0112367
0.010509
0.00992683
0.00982667
0.0100558
0.0104494
0.0110521
0.0121664
0.0136484
0.0153183
0.0171735
0.0194644
0.0217852
0.024284
0.0186477
0.0171332
0.0151442
0.0131849
0.0117182
0.0105109
0.00954405
0.00879732
0.00829636
0.00824018
0.00859681
0.00898332