/*--------------------------------*- C++ -*----------------------------------*\
| =========                 |                                                 |
| \\      /  F ield         | OpenFOAM: The Open Source CFD Toolbox           |
|  \\    /   O peration     | Version:  2212                                  |
|   \\  /    A nd           | Website:  www.openfoam.com                      |
|    \\/     M anipulation  |                                                 |
\*---------------------------------------------------------------------------*/
FoamFile
{
    version     2.0;
    format      ascii;
    arch        "LSB;label=32;scalar=64";
    class       volScalarField;
    location    "0";
    object      relativeErrorField;
}
// * * * * * * * * * * * * * * * * * * * * * * * * * * * * * * * * * * * * * //

dimensions      [0 0 0 1 0 0 0];

internalField   nonuniform List<scalar> 
3200
(
0.0065189
0.00318921
0.00433675
0.0139892
0.00285262
0.00409766
0.00360033
0.000436891
0.0105605
0.0146188
0.000709576
0.00878508
0.00143085
0.00483811
0.000118201
0.00501422
0.00511497
0.00050678
0.00888334
0.00422604
0.0142844
0.0149797
0.0180743
0.0078188
0.00182215
0.00163821
0.0106328
0.0033479
0.00350044
0.0164431
0.0100192
0.00879374
0.00243243
0.00544596
0.00820956
0.000934803
0.0108903
0.00554704
0.0161013
0.0114886
0.00501203
0.0146796
0.00585222
0.00191761
0.00771463
0.0042041
0.00801576
0.00602522
0.00888193
0.00324014
0.0163673
0.00280725
0.0141951
0.00445371
0.00504619
0.0134954
0.00361122
0.00192665
0.000329458
0.00983837
0.00671303
0.0047736
0.0117584
0.0021072
0.00657925
0.00247786
0.000560013
0.00229343
0.00460911
0.0126435
0.0105287
0.00314285
0.00635232
0.00306144
0.00198731
0.00733045
0.0046154
0.00600268
0.00539326
0.0103283
0.00396196
0.00131806
0.0022467
0.00731916
0.0144345
0.00256367
0.00443709
0.00173983
0.0128922
0.00788048
0.00235494
0.000940019
0.000885709
0.00243024
0.000769531
0.0141952
0.000831507
0.00404105
0.00184687
0.00675385
0.00138634
0.0152481
0.00800422
0.00542147
0.00102654
0.00480454
0.00227127
0.00848249
0.00920617
0.00574467
0.00540761
0.000495218
0.00072047
0.0121849
0.00307387
0.00776142
0.00431284
0.0081804
0.00398125
0.00381802
0.00360396
0.00269815
0.0080144
0.00239951
0.00803868
0.0124897
0.0147052
0.0126721
0.0014872
0.00261004
0.00613066
0.012089
0.00132983
0.00816488
0.00289505
0.00401435
0.000625932
0.0045534
0.00444233
0.00375463
0.000680397
0.0016046
0.000573874
0.0125888
0.0132713
0.00611653
0.00105934
0.0070895
0.00373592
0.00451172
0.00381102
0.00798723
0.00107598
0.00346524
0.00233133
0.00625646
0.00417348
0.00524539
0.00159408
0.00557399
0.00823697
0.00152384
0.00920871
0.00715183
0.00112076
0.00955264
0.00570776
0.00304687
0.011167
0.00579952
0.00305277
0.00509442
0.00556363
0.0100929
0.000315505
0.00060024
0.00729687
0.00318882
0.00400723
0.00370543
0.00213787
0.00163557
0.000856109
0.00608299
0.00402316
0.00168073
0.0060731
0.000674636
0.00125913
0.00292584
0.00095316
0.00527865
0.00083295
0.00599329
0.00137193
0.00281177
0.000625868
0.000467333
0.00131376
0.00196683
0.00411071
0.00265247
0.00433236
0.0116861
0.00657507
0.00960002
0.00318804
0.00241623
0.00289131
0.00148637
0.0179166
0.000239128
0.00905305
0.00197282
0.00121001
0.00644074
0.000110845
0.0040252
0.00187455
0.00994792
0.00235289
0.0127297
0.00477325
0.0099246
0.00840945
0.00564867
0.00420478
0.00130039
0.0158568
0.000663198
0.00243312
0.00444824
0.000583509
0.0144328
0.0104581
0.000899527
0.00443015
0.0112212
0.00474245
0.00489544
0.00230786
0.0055217
0.00340378
0.00303088
0.00603232
0.00308801
0.00559418
0.00461907
0.000150235
0.00553426
0.00447391
0.00826581
0.00468171
0.0182525
0.00264728
0.0029089
0.00166887
0.00124585
0.00437975
0.0127741
0.00711103
0.00606609
0.00699001
0.00278748
0.000573794
0.00303842
0.0113604
0.00725581
0.00231721
0.00166452
0.00317419
0.00764441
0.0110088
0.00718458
0.000985145
0.00250402
0.00288958
0.00219774
0.00193413
0.000948382
0.00932158
0.00256616
0.00832844
6.11873e-05
0.0111761
0.00125745
0.000378183
0.002301
0.0129754
0.00133641
0.00742078
0.00781655
0.00917889
0.00119645
0.0090363
0.00434176
0.0029954
0.00561359
0.00765056
0.00535448
0.00683689
0.000367988
0.00100645
0.00656812
0.00229879
0.0112589
0.0215939
0.0035741
0.00828768
0.00606513
0.0055313
0.00460797
0.00116874
0.00121281
0.0173664
0.0099351
0.00927331
0.0125183
0.00130969
0.0051868
0.0121625
0.00700365
0.00189716
0.000169096
0.00344077
0.00730704
0.0060835
0.00544965
0.00552741
0.00232006
0.0142905
0.00565431
0.0037136
0.00939795
0.0067504
0.0124799
0.00181529
0.000132973
0.000890297
0.0121724
0.00245594
0.00169274
0.00203656
0.00298093
0.00462178
0.00589831
0.00246599
0.00333478
0.00255289
0.00225422
0.0108451
0.000577972
0.00897604
0.00577702
0.000992394
0.00423686
0.00627937
0.0034406
0.0101985
0.00442959
0.00306329
0.0053612
0.00283334
0.0058561
0.00605961
0.00450759
0.00793337
0.00739926
0.000139825
0.00125236
0.0079803
0.00202996
0.00394379
0.00240733
0.00185961
0.0103331
0.00455205
0.000563163
0.00833451
0.00461258
0.011722
0.00530758
0.00730552
0.00349716
0.00595026
0.00921255
0.0101128
0.00157035
0.0076355
0.0073918
0.0014803
0.00201617
0.00071416
0.00148746
0.00876687
0.00518544
0.00389809
0.00151123
0.000506684
0.00884505
0.00257729
0.00112999
0.00493585
0.00831063
9.544e-05
0.00485068
0.00411722
0.005979
0.00109941
0.0048078
0.00134901
0.0035387
0.00433055
0.0155627
0.00774268
0.00352645
0.00608755
0.00376972
0.00459251
0.00352284
0.00264651
0.00880331
0.000447658
0.0049267
0.00269033
0.0128404
0.00369982
0.000805644
0.0181664
0.00642204
0.0100577
0.0116083
0.0128502
0.0044107
0.00787964
0.000638838
0.00556965
0.00442366
0.00745553
0.00161676
0.00994748
0.00852035
0.00374557
0.000331206
0.00112567
0.00120679
0.00463401
0.000741142
0.00474854
0.00617482
0.0146761
0.00451559
0.0120152
0.000810129
0.00621068
0.00175729
0.0100318
0.00213849
0.000653256
0.000721712
0.00351846
0.00311644
0.0107577
0.000133846
0.0044569
0.00275959
0.00884657
0.00480234
0.00814591
0.00570432
0.000991573
0.00533345
0.00364888
0.00884096
0.00356339
0.00777212
0.00305445
0.00570287
0.00132904
0.00483236
0.00710063
0.00831931
0.00749478
0.000557934
0.00120951
0.00688401
0.00352684
0.00999419
0.00311081
0.00218448
0.00374277
0.00103846
0.0015215
0.013114
0.0140828
0.00880547
0.00848589
0.00935116
0.00247376
2.35307e-05
0.0120097
0.00466238
0.0112103
0.00552076
0.00429732
0.00203942
7.17648e-05
0.00189689
0.00741357
0.00045315
0.00078452
0.0183118
0.000430737
0.00629348
0.00141936
0.00594825
0.00267635
0.00675351
0.000554376
0.00171629
0.0167898
0.000857723
0.00403171
5.02687e-06
0.00303736
0.00226205
0.00416809
0.0011932
0.00375239
0.00797046
0.0115302
0.0073897
0.00632101
0.00516721
0.00275409
0.0103862
0.00524485
0.00877167
0.00306984
0.0107605
0.0107888
0.00216509
0.00870481
0.00403133
0.00856955
0.00141741
0.0115621
0.00253833
0.00485711
0.00535611
0.005363
0.000783748
0.002115
0.00197602
0.00466962
0.0108169
0.00835836
0.00636139
0.00557773
0.00764577
0.000770853
0.00440306
0.0113048
0.0088836
0.00342594
0.00298979
0.00275011
0.002231
0.00548788
0.00800169
0.00375172
0.0147405
0.000427864
0.000721926
0.00158101
0.00381944
0.00261529
0.0026259
0.00341853
0.00688697
0.00537138
0.00123406
0.0113067
0.00400601
0.0064488
0.00168472
0.00810261
0.00343222
0.00462081
0.000438797
0.00138974
0.0177902
0.00349869
0.000853221
0.0048334
0.00083098
0.00145329
0.00453683
0.00722409
0.00648655
0.00535381
0.00431168
0.0140783
0.0061675
0.00235829
0.0042847
0.0170963
0.00384058
0.00234408
0.00509949
0.0121019
0.00668495
0.00171516
0.0107214
0.00720935
0.00464221
0.00397234
0.005186
0.00593943
3.70324e-05
0.00696008
0.0134275
0.00593804
0.00154721
0.00794352
0.0112434
0.00256203
0.000221434
0.000853206
0.00129534
0.00148308
0.00634888
0.000590197
0.00817525
0.00522424
0.013858
0.00766199
0.00908242
0.00802221
0.000921051
0.00274856
0.00804213
0.000393531
0.00491052
0.00288218
0.011478
0.0162566
0.0152979
0.0113477
0.00899085
0.00991556
0.0149644
0.0108291
0.00177524
0.00220951
0.00331037
0.00258824
0.00631473
0.00673462
0.00694101
0.00158249
0.00235175
0.0118331
0.00247627
0.000531305
0.0044091
0.0109551
0.00106853
0.00209887
0.00922035
0.0108714
0.00260209
0.0124346
0.0106134
0.00303405
0.00195366
0.00777791
0.0042363
0.00493953
0.005348
0.00743535
0.00558437
0.00748733
0.000412654
0.00546684
0.00412474
0.0031286
0.00427797
0.00564597
0.00203875
0.0126587
0.0018314
0.019159
0.00841209
0.0265684
0.000735011
1.30572e-05
0.00566763
0.0074013
0.000705492
0.0107015
0.00131889
0.000663119
0.0161526
0.00689801
0.00382923
0.0108631
0.0094777
0.00609528
0.00865689
0.00142949
0.0032644
0.00263606
0.00129177
0.00181448
0.0093416
0.00832966
0.00417375
0.00466403
0.00145993
0.00705887
0.0116943
0.0116438
0.00965647
0.00102421
0.0151873
0.0140796
0.0005133
0.00611909
0.00585583
0.00687062
0.0180604
0.00281191
0.00281205
0.00523138
0.00523615
0.00270284
0.0128539
0.00500825
0.00387779
0.00156868
0.0128122
0.00277274
0.000729461
0.0046794
0.00248546
0.00624644
0.00334495
0.00793269
0.0173104
0.00265227
0.0144305
0.00243867
0.00906934
0.00301759
0.00542628
0.000521865
0.00691969
0.0033646
0.000862073
0.0015524
0.00555171
0.00128832
0.00387069
0.000471147
0.00789691
0.0104877
0.0062406
0.00961585
0.00445206
0.00166315
0.00169446
0.00537932
0.0101595
0.0100931
0.00625369
0.00741027
0.00102168
0.00248682
0.0031252
0.00777167
0.0052146
0.00412713
0.0107439
0.00104995
0.00165554
0.00160446
0.00562107
0.00491069
0.00229241
0.000335673
0.0131244
0.0104271
0.00133378
0.0107415
0.00981606
0.00988908
0.00747431
0.00361475
0.00118374
0.0130476
0.00373377
0.0117999
0.00839794
0.0241946
0.00356575
0.00490712
0.0171808
0.0150569
0.0115261
0.0114132
0.00380066
0.00812052
0.0160513
0.0056835
0.000913527
0.0175202
0.0063958
0.0059462
0.00481482
0.00435273
0.0117686
0.0136133
0.00379003
0.00116467
0.00200123
0.00507661
0.00114855
0.00939166
0.000380892
0.000537143
0.0068676
0.00184503
0.00590563
0.00191453
0.0163466
0.000547654
0.000515893
0.00371548
0.0112458
0.00665347
0.0142258
0.00956673
0.00219077
0.00130636
0.0105205
0.0128901
0.0029416
0.0169801
0.0160686
0.01358
0.00257148
0.00548766
0.0123972
0.00774763
0.0163578
0.00895256
0.00356872
0.00786687
0.00315005
0.00621802
0.00767057
0.00723433
0.0109731
0.00650114
0.00752316
0.00454019
0.0019709
0.0102411
0.00217687
0.00689884
0.000569309
0.00138774
0.00693518
0.000861836
0.00823866
0.00190465
0.00247412
0.00214154
0.000787523
0.00635054
0.0119461
0.00263251
0.0156169
0.00921786
0.0183304
0.0210261
0.0184243
0.00891214
0.0104414
0.0079994
0.00466062
0.0165418
0.00940918
0.00175695
0.00160279
0.00911882
0.00623895
0.000378351
0.00394685
0.00132873
0.000694635
0.00752748
0.0152878
0.000479632
0.0134619
0.00984592
0.00684268
0.00819703
0.0118261
0.0153492
0.00181482
0.00117141
0.00135232
0.00512345
0.0043494
0.0103822
0.00105846
0.00598565
0.00131461
0.00192754
0.0122234
0.000739678
0.00836321
0.00021677
0.000354398
0.0136497
0.00678182
0.000682195
7.81735e-05
0.00798021
0.005504
0.0125161
0.000522987
0.0118057
0.0104396
0.00623749
0.00931918
0.00280134
0.00722026
0.00198257
0.00534486
0.010355
0.00448217
0.00638661
0.00380518
0.000875849
0.00322667
0.00619515
0.00277321
0.0033083
0.00303064
0.00780001
0.0113308
0.00586596
0.00956924
0.00958793
0.0017571
0.00983371
0.00435593
0.0120403
0.0143268
0.000809151
0.00610437
0.015772
0.016572
0.00762121
0.022599
0.017956
0.0141205
0.00568199
0.00254852
0.0105905
0.0136746
0.0090069
0.00848827
0.0113623
0.0187581
0.00701531
0.00549555
0.0058194
0.0129816
0.00245994
0.0114229
0.0112948
0.0142006
0.00567573
0.0182558
0.0178461
0.00298122
0.0178705
0.00285071
0.0124111
0.00375324
0.014521
0.0127119
0.0166079
0.00568691
0.00961836
0.00911858
0.00675975
0.0161771
0.00631005
0.00771268
0.0238776
0.00512039
0.0187313
0.0121663
0.012793
0.0081373
0.000207594
0.012589
0.013311
0.00152768
0.0104393
0.000320677
0.00304455
0.000476555
0.0159446
0.00899988
0.00136492
0.00282699
0.00111697
0.00687102
0.0194124
0.00157237
0.0122825
0.00787116
0.00899205
0.0152994
0.00474735
0.000229636
0.00946249
0.0187268
0.0109483
0.0175979
0.000458187
0.00420085
0.00734384
0.00398629
0.00476202
0.00756168
0.0136291
6.27349e-05
0.00401359
0.00511738
0.00397414
0.0083059
0.00749045
0.00130173
0.00943146
0.00489211
0.00569653
0.00289688
0.00418411
0.00437942
0.00567979
0.0106317
0.0186644
0.00283507
0.014138
0.00440711
0.00426457
0.00995964
0.00213007
0.00785342
0.00252354
0.0108049
0.00519674
0.00779989
0.00593371
0.00790876
0.00315092
0.00284087
0.00114956
0.00363507
0.00488681
0.00803519
0.0116528
0.0113924
0.00459487
0.016718
0.00409443
0.00344324
0.00554754
0.00225787
0.00930532
0.00159486
0.00238577
0.00219751
0.015056
0.0126364
0.000518483
0.00586745
0.00268513
0.00561082
0.00521182
0.00451813
0.0019414
0.00569077
0.00271528
0.0176881
0.00528299
0.00469523
0.00233309
0.00355202
0.00774801
0.00173275
0.0076573
0.0135544
0.00197768
0.00454744
0.00488332
0.00906285
0.0057751
0.0039722
0.00079257
0.00421466
0.00359975
0.00803847
0.00381078
0.0178211
0.0169979
0.00826077
0.00931075
0.0147458
0.0160129
0.00956478
0.0238263
0.0125881
0.0025902
0.0229166
0.024433
0.00451456
0.0166942
0.00652452
0.00876181
0.0130353
0.00470823
0.00170672
0.00271263
0.00657353
0.0035092
0.00781657
0.0100128
0.0019958
0.0138191
0.000967134
0.0131699
0.000997946
0.000872056
0.0111661
0.00188597
0.00809086
0.00101683
0.00758812
0.00114754
0.00796234
0.00309305
0.013369
0.00183956
0.00665487
0.0124758
0.00594578
0.0161586
0.000524096
0.00446555
0.00943643
0.0112123
0.014397
0.00292182
0.000834118
0.0168678
0.0124646
0.00573686
0.00558392
9.20495e-05
0.00399416
0.00887048
0.00215066
0.00232964
0.0018385
0.00514429
0.00782215
0.0174838
0.0115018
0.0105792
0.0123654
0.00785625
0.0186523
0.0121215
0.022588
0.0141449
0.0113111
0.0119423
0.0139532
0.0137533
0.0119359
0.00289133
0.00559939
0.00607398
0.0102769
0.00942639
0.00575632
0.0121997
0.0135499
0.00555643
0.00716422
0.00133886
0.0153712
0.0109493
0.00710094
0.0108808
0.0226984
0.00466925
0.00604885
0.00583551
0.0103414
0.010199
0.00671885
0.000839174
0.00632557
0.00161173
0.0084918
0.00750415
0.00868352
0.00638387
0.00365208
0.000115266
0.00278623
0.000680034
0.000361544
0.00765569
0.0110992
0.00139803
0.00513008
0.00250606
0.00810967
0.00236455
0.00523656
0.0026485
0.00668974
0.00819937
0.00303123
0.00340377
0.00633483
0.0015264
0.000942866
0.0014307
0.00562422
0.00271092
0.0101922
0.00141604
0.00298949
0.00138869
0.0121349
0.000745709
0.0143994
0.00251938
0.000791067
0.00243369
0.000468935
0.00477205
0.009764
0.00840741
0.00323636
0.000362764
0.00588108
0.00344164
0.0208384
0.000937271
0.00966539
0.000250468
0.00432724
0.00857197
0.00347938
0.0054067
0.00378013
0.00114802
0.0124732
0.00653311
0.0044007
0.0167143
0.0144542
0.0172464
0.0270738
0.0129657
0.0095027
0.0158407
0.0204538
0.0188029
0.00906438
0.0161634
0.00503585
0.0211937
0.00396548
0.00728883
0.00342761
0.00869616
0.00215307
0.00111626
0.00766644
0.0117395
0.0110361
0.00974478
0.0123672
0.0177966
0.00868533
0.00950998
0.0150288
0.0270083
0.0211663
0.00660807
0.0208522
0.00707117
0.0119574
0.00395131
0.00964649
0.00259104
0.00558912
0.000669313
0.010041
0.0110583
0.010676
0.00966315
0.00379312
0.0132722
0.00351077
0.0163793
0.0125518
0.0106774
0.0168524
0.0184707
0.00297802
0.00384779
0.0059177
0.00570981
0.0106959
0.0156183
0.00359413
0.00761572
0.00565704
0.0083704
0.0148692
0.0240832
0.00990648
0.00969435
0.00919799
0.00437939
0.00252105
0.000237495
0.00576375
4.41562e-05
0.00945074
0.0164365
0.00980464
0.00050479
0.00769049
0.00952087
0.0023155
0.00409364
0.00819117
0.00181
0.00480178
0.00974878
0.00636898
0.00276089
0.0174701
0.0122183
0.00138246
0.0128843
0.0170726
0.0126578
0.00548808
0.00351687
0.00262912
0.000556901
0.0133931
0.000953204
0.0059578
0.00568102
0.01548
0.00321817
0.0058114
0.0218742
0.0113707
0.0114336
0.0012184
0.00250515
0.00546506
0.00361151
0.00345162
0.00563259
0.00433069
0.010151
0.00187348
0.00270535
0.00180669
0.00320052
0.00670982
0.0159305
0.00365997
0.000448636
0.0030568
0.000757527
0.00571522
0.000860976
0.000821261
0.00718598
0.0011615
0.000970081
0.000461999
0.00689647
0.00945843
0.00576786
0.0106807
0.00302889
0.00444495
0.00316536
0.00305467
0.00257935
0.000417759
0.00733798
0.00978712
0.00613192
0.00360056
0.00291119
0.00758192
0.00249243
0.00923877
0.00838438
0.00355814
0.00855764
0.00666229
0.00227862
0.0064625
0.00590303
0.00254748
0.00401784
0.00114166
0.00413434
0.00608173
0.00880481
0.0168803
0.00993284
0.00289468
0.0163156
0.0231909
0.0138418
0.0135888
0.0165224
0.0138444
0.00949835
0.00365884
0.0127267
0.0133014
0.0148266
0.00419603
0.0141542
0.0107534
0.00055805
0.000396338
0.0160814
0.0131852
0.00362077
0.00056129
0.0162598
0.000900744
0.00890118
0.000265254
0.000703899
0.0112905
0.000468548
0.0132902
0.00457139
0.00563658
0.00121299
0.0149036
0.000397833
0.00332356
0.0049425
0.00322226
0.00085172
0.00906958
0.00909062
0.0117998
0.0147771
0.012821
0.00539354
0.00935447
0.0124168
0.0130818
0.0136241
0.0153957
0.0163711
0.000872782
0.00692662
0.00493658
0.00826316
0.00593165
0.00563857
0.00334468
0.000595488
0.00517419
0.00470805
0.010442
0.0177536
0.000630852
0.00176786
0.00761841
0.00807126
0.0175705
0.00417197
0.00809981
0.00702649
0.0157813
0.0140418
0.00740473
0.0102979
0.00445177
0.00896324
0.00130174
0.00340168
0.0176932
0.0156909
0.00489755
0.00158342
0.00918059
0.00729366
0.0119503
0.012105
0.0135677
0.0157787
0.00670731
0.00970669
0.00641673
0.00308101
0.0139409
0.00903819
0.0107929
0.00614479
0.00183946
0.00141613
4.10629e-05
0.00103774
0.0107844
0.000857841
0.0150484
0.014569
0.0110057
0.0040997
0.00982802
0.000805473
0.0112477
0.0123525
0.00292917
0.013875
0.000357261
0.00734861
0.0195309
0.012525
0.00827875
0.00173148
0.00696794
0.000857017
0.00102302
0.00755547
0.00493674
0.0192108
0.00759241
0.00219619
0.00123763
0.000679938
0.00883785
0.000421773
0.00175689
0.00148635
0.00512732
0.00104484
0.0100447
0.00863157
0.00646349
0.0114769
1.41763e-05
0.00070038
0.00287458
0.00187827
0.00334575
0.000456751
0.00345963
0.00390546
0.00244022
0.000514489
0.00106131
0.00342929
0.00365316
0.000883605
0.0011894
0.00551723
0.00489064
0.00741213
0.0104802
0.0053384
0.0146789
0.0172402
0.00917513
0.0172218
0.0232863
0.00390603
0.017672
0.0159345
0.0123369
0.00724655
0.00872316
0.0162986
0.00665684
0.0085946
0.001878
0.00661083
0.00323766
0.00456702
0.00628275
0.00957857
0.0054928
0.00169106
0.00303639
0.0114772
0.000454341
0.00448891
0.000598924
0.00179285
0.0243252
0.00321497
0.0193376
0.000580227
0.00371305
0.000404516
0.00241117
9.78225e-05
0.00592818
0.00580479
0.00330509
0.0133668
0.0044381
0.0167916
0.00833097
0.00145886
0.0128703
0.00336133
0.0104677
0.00762463
0.0133148
0.0233292
0.00724041
0.0138032
0.00526254
0.00747744
0.00963345
0.00271906
0.00868281
0.00190561
0.00758575
0.00264099
0.0109706
0.0180454
0.00780941
0.0256268
0.00768223
0.0151277
0.0141082
0.0150024
0.00829749
0.00125463
0.00401437
0.00335914
0.00438154
0.0086146
0.00884535
0.00806507
0.000634732
0.00278236
0.00972166
0.0045061
0.0135028
0.0169696
0.00417449
0.0219186
0.00286872
0.0103751
0.000700286
0.00570785
0.0023338
0.0176991
0.000965285
0.00853704
0.0065637
0.000293977
0.0102917
0.010534
0.000630904
0.00503094
0.00437295
0.0145136
0.0036244
0.00413435
0.0114298
0.00786087
0.0108299
0.00240395
0.0219956
0.00464674
0.00621228
0.00973597
8.31618e-05
0.00145678
0.00778757
0.00182481
0.0110799
0.00411242
0.00942906
0.000602016
0.000754491
0.00320083
0.00723551
0.00507784
0.00804683
0.00186608
0.00199047
0.0063588
0.0110224
0.00815575
0.00994758
0.0092343
0.00116231
0.0110721
0.00724372
0.00764869
0.000362143
0.0118863
0.00351992
0.00574522
0.0061736
0.00110112
0.00321697
0.00152914
0.00151916
0.00133998
0.0120815
0.00248683
0.00442762
0.00933291
0.0106626
0.00263804
0.00264299
0.00928905
0.0078405
0.00707352
0.0061913
0.00423119
0.00234881
0.00517402
0.00109559
0.00554372
0.00586416
0.00533666
0.00704392
0.00338971
0.0134497
0.0179469
0.0143231
0.0239872
0.00793851
0.0118493
0.00675667
0.0132047
0.0133503
0.00152387
0.00444946
0.00232028
0.00733839
0.00210335
0.00267534
0.00232965
0.0190906
0.0115276
0.017087
0.009409
0.0182169
0.0186791
0.0160265
0.00753109
0.0186293
0.0156291
0.0150061
0.0152763
0.00219368
0.000913656
0.00774114
0.00228913
0.00567223
0.00438735
0.0041644
0.000816842
0.0104492
0.00768103
0.0126673
0.0111377
0.0109928
0.00530791
0.0138743
0.0079933
0.0117075
0.00995543
0.0143647
0.0036271
0.00439407
0.00888647
0.00227332
0.00776119
0.0105085
0.00171114
0.00337034
0.0029963
0.00544762
0.00192014
0.00505537
0.0119357
0.00147457
0.0157496
0.0120917
0.0124062
0.0104431
0.0146247
0.00838829
0.0010311
0.00592532
0.000199775
0.000596942
0.00346724
0.00640782
0.00332168
0.00106829
0.0129723
0.0166087
0.00387525
0.0126033
0.0051268
0.01468
0.00831898
0.0200569
0.0140137
0.00360646
0.00938504
0.00110165
0.00641445
0.0128052
0.0071
0.00567096
0.00391791
0.00970651
0.0051898
0.00516964
0.0138781
0.00354304
0.00996771
0.0100067
0.00161789
0.0146806
0.00408561
0.000827582
0.00108089
0.00764777
0.00437984
0.0132399
0.00476239
0.00618427
0.00847171
0.00800555
0.00546171
0.0002431
0.00629877
0.00162717
0.000699964
0.00706593
0.00599486
0.00561292
0.00193996
0.00390188
0.00317114
0.0103855
0.00251117
0.00811356
0.00796124
0.00489155
0.00282767
0.0119813
0.0150537
0.00115662
0.00814559
0.0138565
0.0062757
0.00531497
0.00310891
0.00426064
0.00578821
0.00411515
0.00409986
0.00573344
0.0020013
0.0109102
0.00453589
0.00768028
0.00235685
0.000684509
0.000353438
0.0160093
0.00348522
0.00348259
0.00216854
0.00237188
0.000763617
0.000455167
0.00679235
0.00718665
0.0128325
0.00470619
0.0124412
0.0179302
0.00251007
0.0114056
0.000469669
0.00966784
0.00563983
0.00105028
0.00531732
0.00322893
0.0143939
0.000925328
0.00503843
0.000606137
0.00242993
0.0058034
0.00679001
0.00770153
0.00690886
0.00223739
0.0114869
0.000762676
0.0152291
0.00119459
0.000705123
0.00750342
0.000439979
0.000823331
0.00126671
0.00880433
0.00341449
0.00636137
0.000909979
0.00337812
0.000695058
0.00854005
0.00707115
0.00136653
0.00975447
0.00179306
0.0100372
4.15337e-05
0.00036749
0.00222034
0.00655005
0.0100267
0.0109095
0.00920495
0.00328833
0.00913588
0.01317
0.00368934
0.00182341
0.0112654
0.00119794
0.00367885
0.00244386
0.00385994
0.02076
0.0151844
0.00681267
0.0154113
0.0122082
0.00592952
0.00335323
0.0046127
0.0111914
0.0070422
0.00168474
0.00386148
0.00237565
0.000983589
0.00910584
0.0108185
0.00372855
0.0040141
0.00693461
0.00678393
0.00485435
0.00203014
1.48767e-05
0.00773867
0.00651712
0.00719491
0.00467139
0.00475582
0.000842092
0.00170337
0.0016303
0.00194801
0.000905841
0.00530123
0.00204139
0.00357706
0.00456872
0.0117589
0.000427813
0.0039062
0.00742878
0.00507065
0.0084153
0.00211119
0.0110372
0.0100701
0.000606119
0.00373683
0.00654561
0.00736281
0.0119236
0.00291502
0.0122164
0.00974317
0.00399472
0.0188472
0.00503041
0.0168319
0.000137002
0.00398804
0.00610431
0.00302956
0.011447
0.00346092
0.00700263
0.00289558
0.00618915
0.0102424
0.0102014
0.010532
0.0152146
0.00693829
0.00627456
0.000292157
0.00645559
0.00606707
0.00779883
0.000472381
0.00268448
0.0025271
0.0114911
0.00221205
0.00227241
0.00180216
0.0102472
0.00134935
0.00588187
0.00636869
4.10919e-05
0.00351277
0.00267739
0.00236798
0.00161951
0.00954834
0.00499231
0.00774132
0.0139912
0.00342031
0.00590941
0.0120834
0.00288778
0.00289528
0.00782768
0.0038107
0.0164044
0.00261445
0.00676106
0.0124111
0.000948693
0.00515133
0.000526814
0.00746821
0.00901615
0.000918785
0.0126536
0.00134207
0.00618916
0.00514855
0.00287568
0.00299757
0.00554146
0.00501519
0.00849394
0.00762736
0.00770838
0.00134766
0.00373278
0.00209653
0.0073974
0.00615829
0.00230865
0.00381638
0.00427474
0.00407546
0.00369999
0.00796807
0.00807302
0.00606284
0.0069455
0.000861239
0.00042172
0.00564116
0.012366
0.00165599
0.00847554
0.000393941
0.00399178
0.00227617
0.00826979
0.00795596
0.00910193
0.0165351
0.00139974
0.00577882
0.000354666
0.0133956
0.00837966
0.0133431
0.00269778
0.00152206
0.00217449
0.0110033
0.00537287
0.00702236
0.00592514
0.0073658
0.00154877
0.006242
0.00464109
0.00347403
0.000915938
0.001438
0.00584911
0.00663808
0.00205394
0.0251898
0.00712153
0.0034917
0.00387691
0.00172134
0.00728514
2.50034e-05
0.00279723
0.00365266
0.00503785
0.00154606
0.011043
0.000153368
0.00644996
0.00561139
0.00582247
0.000265412
0.00519638
0.00636563
0.00730999
3.75776e-05
0.0150755
0.00619428
0.010488
0.00371033
0.00512147
0.00355343
0.00135476
0.00888726
0.0104726
0.0076821
0.0146001
0.00399353
0.0032183
0.000926954
0.00326889
0.0143137
0.014729
0.00380011
0.0024718
0.00850518
0.00134371
0.00692011
0.0036691
0.00153529
0.000503165
0.00143487
0.00162428
0.0037158
0.00282859
0.00684018
0.00259312
0.00600351
0.00431205
0.0026154
0.00951987
0.00323809
0.00709612
0.000665151
0.000510337
0.000809506
0.000487681
0.00468765
0.00296192
0.0140496
0.00379165
0.00530313
0.00431738
0.00555949
0.00531067
0.00178947
0.00515677
0.00116782
0.00731458
0.0121562
0.00557314
0.00236024
0.00280648
0.00125893
0.00795016
0.00224794
0.00500409
0.00660174
0.00414662
0.00886054
0.00496617
0.00697374
0.00460302
0.00722074
0.00444836
0.000990297
0.00131634
0.0058897
0.00098209
0.0100341
0.0042469
0.0118914
0.000697702
0.0152007
0.0057241
0.00731528
0.000311309
0.00131337
0.00987649
0.00045144
0.00864717
0.000954176
0.000508301
0.00210899
0.00314971
0.000651616
0.000718806
0.0058285
0.000792091
0.005873
0.000800763
0.00975046
0.00138372
0.011193
0.00073931
0.00790224
0.0154657
0.000564435
0.00208946
0.00166858
0.0123327
0.000664181
0.00972141
0.00824244
0.00764085
0.00742555
0.00762436
0.00599371
0.00228746
0.00288533
0.0035544
0.0115541
0.00210827
0.000486488
0.019789
0.00761385
0.000867925
0.00275255
0.0037711
0.0156132
0.00352682
0.00365707
0.00292546
0.00902157
0.00296887
0.00424935
0.00588315
0.00734077
0.00436003
0.00426044
0.00647853
0.000353123
0.0089571
0.00596349
0.00110671
0.00986027
0.00400879
0.00515162
0.00106178
0.0123017
0.00874992
0.00225885
0.00808323
0.00133634
0.00616466
0.00192601
0.000439323
0.00288898
0.0109119
0.00291731
0.0164212
0.0135867
0.0117526
0.00620234
0.0115099
0.00489371
0.0127631
0.00618292
0.00362149
0.00457854
0.00133129
0.00238171
0.00691289
0.00393253
0.0108103
8.1621e-05
0.000269296
0.00160379
0.00615253
0.0158598
0.00407231
0.00259677
0.00658633
0.0139486
0.00487685
0.0263116
0.0145653
0.00849532
0.00395151
0.0109201
8.48236e-05
0.0146035
0.00211083
0.0074157
0.0084902
0.00460137
0.000164803
0.00233182
0.00758841
0.011814
0.00321234
0.00784133
0.00685119
0.00489403
0.00191644
0.00503137
0.000926272
0.0120901
0.0076397
0.000756172
0.00101584
0.00294043
0.00730572
0.00486045
0.00714215
0.00625645
0.0109525
0.00999972
0.00818477
0.00854576
0.00422472
0.0130995
0.00422914
0.00146786
0.000806443
0.00685204
0.0165089
0.0189473
0.00915994
0.0122772
0.00742598
0.00866761
0.00270658
0.00333311
0.00344856
0.00799844
0.00200772
0.000540952
0.00969472
0.00253168
0.00345824
0.0172954
0.0102584
0.0221769
0.0132334
0.0182308
0.0243618
0.0115061
0.0057248
0.0118945
0.0068616
0.00586144
0.00244065
0.00208847
0.0041042
0.000407216
0.000872852
0.0112359
0.00153159
0.00495244
0.00233896
0.014976
0.00557756
0.0129244
0.0163309
0.0160272
0.0168279
0.0162153
0.0104638
0.000824192
0.00645603
0.00400594
0.00932149
0.00471215
0.00869765
0.00536222
0.00825553
0.0014295
0.00182029
0.00307707
0.00192202
0.00499457
0.000537381
0.0152975
0.0108165
0.0173412
0.00855035
0.0170953
0.0133336
0.00815881
0.00276047
0.000413691
0.000147629
0.00265034
0.00274046
0.00290756
0.00158025
0.000273974
0.00840666
0.00621837
0.00014703
0.00407374
0.0182558
0.00718985
0.00460865
0.0129036
0.00660472
0.00404327
0.00803762
0.0108854
0.0121104
0.00261896
0.00108997
0.00346735
0.0047316
0.00937364
0.00538371
0.00261415
0.000174578
0.00109101
0.00589998
0.0100644
0.00821483
0.00873657
0.00197886
0.0218411
0.00630627
0.0128426
0.00562168
0.00275155
0.00547415
0.00168029
0.00116867
0.000411023
0.00357358
0.00744725
0.00167451
0.000583424
0.00120071
0.0089848
0.00520609
0.000894241
0.00545774
0.00209457
0.0107924
0.0121782
0.0112456
0.00630444
0.00575376
0.0112138
0.00481778
0.013136
0.00917947
0.00249437
0.00312604
0.00128264
0.0117164
0.00780238
0.000110602
0.00695664
0.00118059
0.00559111
0.0149705
0.00649339
0.0114619
0.00250434
0.00237102
0.000856141
0.000625299
0.00604877
0.00572137
0.00639444
0.00819457
0.00107542
0.00338031
0.000865185
0.00937342
0.00841373
0.00311632
0.000920399
0.00626246
0.00780006
0.00692456
0.00411083
0.0112255
0.00240596
0.0270297
0.0156703
0.0108317
0.00390196
0.00830379
0.00978026
0.00789769
0.00824531
0.00163743
0.00153491
0.013618
0.00534088
0.00102394
0.00589258
0.0156381
0.00768244
0.0119574
0.0182154
0.0169304
0.0136667
0.0212225
0.00155436
0.0182526
0.00162095
0.012339
9.70986e-05
0.0194643
0.000180371
0.00821691
0.00227472
0.00148746
0.00672062
0.00120058
0.0104696
0.00260767
0.0116939
0.00107003
0.0190728
0.00140693
0.0149223
0.0189469
0.0292974
0.0156436
0.0134889
0.00323388
0.00695527
0.00742259
0.00845166
0.00346481
0.00100541
0.00202623
0.00322912
0.0088953
0.00544809
0.00326383
0.0172777
0.0160963
0.0208279
0.0278785
0.0136584
0.0096581
0.0122163
0.00626899
0.00594136
0.010279
0.0171622
0.00309065
0.000836243
0.0165621
0.00200568
0.00283473
0.0111871
0.00378834
0.00264147
1.5689e-05
0.00808515
0.00782357
0.0106909
0.0237762
0.0291569
0.00954482
0.0057189
0.0012383
0.00140822
0.0134506
0.00799109
0.00467857
0.00617382
0.00124051
0.00653234
0.00257001
0.0070137
9.37368e-05
0.00316634
0.00432478
0.0209799
0.00636607
0.000833726
0.00538152
0.0065772
0.00405832
0.00771209
0.00296643
0.00467947
0.00590549
0.00770976
0.0174915
0.00076266
0.0030469
0.00310732
0.0205316
0.00155915
0.0110635
0.00538584
0.0114648
0.00717203
0.00337354
0.00886227
0.00158838
0.00959704
0.00162451
0.00570978
0.00281027
0.00483801
0.00114758
0.011036
0.00428243
0.00898215
0.0107574
0.0118395
0.00665367
0.00417465
0.00509526
0.0163425
0.000623158
0.00191039
0.00792377
0.00891272
0.0133105
0.0012734
0.00880621