/*--------------------------------*- C++ -*----------------------------------*\
| =========                 |                                                 |
| \\      /  F ield         | OpenFOAM: The Open Source CFD Toolbox           |
|  \\    /   O peration     | Version:  2212                                  |
|   \\  /    A nd           | Website:  www.openfoam.com                      |
|    \\/     M anipulation  |                                                 |
\*---------------------------------------------------------------------------*/
FoamFile
{
    version     2.0;
    format      ascii;
    arch        "LSB;label=32;scalar=64";
    class       volScalarField;
    location    "./ITHACAoutput/true/0.8";
    object      error;
}
// * * * * * * * * * * * * * * * * * * * * * * * * * * * * * * * * * * * * * //

dimensions      [0 0 0 1 0 0 0];

internalField   nonuniform List<scalar> 
3200
(
0.951979
1.19861
1.7596
2.41598
3.38836
4.34186
5.33763
6.25738
6.96812
7.45483
7.50212
7.18862
6.64206
5.8385
5.01203
4.04154
3.26665
2.64841
2.12523
1.88452
0.789276
0.999849
1.48314
2.11039
2.90141
3.7243
4.5937
5.43055
5.95582
6.31111
6.3685
6.16323
5.6703
5.02277
4.1921
3.50275
2.82778
2.27345
1.82385
1.56356
0.639206
0.859693
1.25244
1.77384
2.38747
3.14251
3.82526
4.53264
4.98585
5.24699
5.42015
5.20965
4.71988
4.18083
3.54756
2.86654
2.35954
1.73859
1.52817
1.36706
0.444939
0.676753
1.01104
1.36148
2.00416
2.50916
3.1159
3.69052
4.15385
4.25818
4.37545
4.18143
3.87196
3.42454
2.82708
2.36868
1.8569
1.46366
1.20856
1.12878
0.372488
0.492751
0.776412
1.13322
1.51477
1.92217
2.43831
2.90328
3.24059
3.36438
3.36147
3.29922
3.00764
2.68163
2.20333
1.86796
1.40382
1.14787
0.913453
0.842622
0.342262
0.368091
0.480075
0.784204
1.06314
1.34733
1.7599
2.01042
2.28888
2.38996
2.45153
2.35014
2.17747
1.87544
1.56083
1.24948
1.0507
0.813596
0.662077
0.541143
0.155262
0.101694
0.317528
0.52562
0.595857
0.888098
1.06776
1.24276
1.36621
1.41508
1.48815
1.36435
1.24423
1.13185
0.946172
0.769441
0.66607
0.48246
0.414321
0.289343
0.09639
0.00917961
0.17198
0.145726
0.245865
0.297601
0.365928
0.407224
0.454918
0.524754
0.472578
0.528681
0.44016
0.317019
0.283996
0.287552
0.183052
0.190891
0.0784046
0.118774
0.281687
0.459604
1.0603
1.7532
2.62674
3.54375
4.53315
5.41606
6.11333
6.49474
6.64413
6.32566
5.79865
5.05851
4.21685
3.27744
2.53049
1.88397
1.44176
1.3074
0.241779
0.494851
0.874004
1.5312
2.26538
3.03232
3.90699
4.7179
5.28854
5.61177
5.78425
5.50446
5.01209
4.33793
3.55487
2.84401
2.2011
1.72123
1.19573
1.10671
0.244811
0.354728
0.744054
1.22182
1.92778
2.61826
3.30804
3.9363
4.43692
4.79512
4.84652
4.58909
4.25434
3.66867
3.01056
2.45884
1.88364
1.39448
1.08503
0.886416
0.111818
0.28158
0.635072
1.06469
1.61471
2.1367
2.72795
3.30833
3.64249
3.87325
3.93942
3.7126
3.45102
2.90368
2.4721
2.00935
1.57545
1.11575
0.82819
0.752195
0.0759537
0.262772
0.492523
0.766119
1.24519
1.71828
2.10032
2.51619
2.85628
3.00369
3.03495
2.88351
2.63451
2.30904
1.97032
1.56234
1.20923
0.917747
0.73133
0.527148
0.153736
0.18085
0.35484
0.568045
0.903836
1.23636
1.45712
1.77362
2.01428
2.2105
2.09566
2.09598
1.84937
1.69389
1.35233
1.17815
0.771952
0.707668
0.427695
0.373941
0.110123
0.0811712
0.185213
0.351843
0.48762
0.664415
0.904793
1.11302
1.17619
1.28758
1.32144
1.25425
1.12039
0.988075
0.834255
0.686395
0.494675
0.365859
0.258883
0.30356
0.0741324
0.0689707
0.0947961
0.066678
0.203174
0.207874
0.266195
0.290512
0.423064
0.44219
0.452252
0.436064
0.33923
0.331347
0.182525
0.214648
0.189927
0.118908
0.115612
0.115546
-0.515631
-0.265534
0.149695
0.849524
1.63144
2.56844
3.47275
4.29119
4.94074
5.31939
5.42817
5.16903
4.62894
3.92489
3.14751
2.31127
1.62342
0.958977
0.573394
0.5232
-0.414523
-0.3383
0.119964
0.725445
1.50771
2.18082
3.04731
3.72923
4.29299
4.7277
4.68571
4.5023
4.01171
3.41079
2.75514
2.05899
1.45541
0.982072
0.614145
0.480017
-0.350246
-0.262179
0.125818
0.683519
1.19762
1.88337
2.55733
3.20181
3.63313
3.94954
4.04886
3.82335
3.39849
2.94194
2.36241
1.69098
1.23349
0.824252
0.502949
0.389933
-0.327059
-0.224313
0.0897641
0.511517
1.0188
1.59208
2.10693
2.58296
2.98257
3.23956
3.26605
3.11501
2.85986
2.37735
1.86203
1.4543
1.03928
0.596211
0.397903
0.345991
-0.17739
-0.0605721
0.0649028
0.403788
0.714759
1.20986
1.64639
1.9787
2.31828
2.5256
2.53153
2.42619
2.18975
1.82063
1.50117
1.16586
0.814732
0.517001
0.26061
0.27145
-0.149256
-0.0861153
0.140881
0.28933
0.624917
0.855871
1.17343
1.35851
1.63599
1.85384
1.7791
1.74678
1.57627
1.31851
1.11591
0.861101
0.53824
0.39552
0.235727
0.183592
-0.11924
-0.0655901
0.0598351
0.188352
0.361211
0.489962
0.805094
0.857043
1.01296
1.11745
1.12082
1.08139
0.937244
0.767058
0.639448
0.464007
0.299854
0.246291
0.165978
0.0728907
-0.00747952
-0.0400372
0.0103363
0.0780521
0.125789
0.14275
0.212379
0.329554
0.395428
0.36664
0.353543
0.281218
0.296565
0.305464
0.196272
0.154822
0.105098
0.125193
0.112465
0.0696016
-1.22976
-1.19033
-0.729024
-0.134549
0.588516
1.43069
2.37576
3.12059
3.77364
4.13916
4.23867
3.91926
3.4616
2.78997
2.085
1.28231
0.752264
0.219721
-0.0938185
-0.229248
-1.12309
-0.875531
-0.595741
-0.145273
0.545683
1.35342
1.9409
2.69748
3.22696
3.62616
3.68496
3.37603
2.93604
2.4727
1.79789
1.15967
0.653888
0.203653
-0.085655
-0.198761
-0.919069
-0.781465
-0.498552
-0.089952
0.478901
1.22204
1.7956
2.31546
2.7554
3.03807
3.10057
2.89155
2.5464
2.06647
1.53898
1.01668
0.522601
0.167894
-0.0356484
-0.202331
-0.765058
-0.651013
-0.430401
-0.0269523
0.36024
0.939822
1.50041
1.89509
2.25101
2.53129
2.58675
2.34158
2.09332
1.67579
1.25899
0.796981
0.506691
0.141643
-0.0188655
-0.122515
-0.60073
-0.490465
-0.347972
-0.0101182
0.328043
0.701976
1.0992
1.51517
1.71579
1.98228
2.01194
1.85515
1.60463
1.32557
1.0674
0.656079
0.357614
0.131662
-0.113094
-0.0846215
-0.400885
-0.376386
-0.258029
0.0197786
0.126788
0.471722
0.852158
1.07506
1.23988
1.39819
1.37381
1.37762
1.21906
1.03702
0.721572
0.487827
0.254818
0.122221
0.0285351
-0.0857857
-0.233652
-0.210677
-0.161103
-0.0486523
0.124741
0.263909
0.503244
0.604642
0.80822
0.808133
0.843739
0.809909
0.750846
0.542697
0.462867
0.269796
0.156633
0.0419293
-0.00310835
-0.108981
-0.0811827
-0.0557017
-0.056184
0.0169188
0.0991911
0.0991427
0.207752
0.244464
0.259332
0.312998
0.242215
0.304835
0.267334
0.226054
0.160803
0.0963376
0.0169893
0.0444613
-0.0266996
0.0124645
-2.00539
-1.88065
-1.56379
-1.01774
-0.32188
0.389575
1.15389
1.92914
2.55952
2.95335
2.97593
2.74831
2.34823
1.7137
1.09862
0.376992
-0.149413
-0.624864
-0.865573
-0.854087
-1.60573
-1.52745
-1.30212
-0.828799
-0.249276
0.41396
1.09169
1.74151
2.22713
2.48216
2.572
2.34291
2.01841
1.52588
0.937416
0.346285
-0.0859956
-0.474369
-0.707482
-0.726122
-1.40384
-1.38553
-1.06438
-0.797584
-0.207375
0.281053
0.952013
1.48916
1.89336
2.15682
2.17625
2.0314
1.68481
1.245
0.819873
0.324059
-0.055053
-0.373742
-0.614733
-0.664232
-1.10699
-1.11611
-0.884796
-0.63408
-0.148568
0.346313
0.690483
1.20953
1.54846
1.71991
1.83882
1.62803
1.4577
1.04166
0.744528
0.155574
-0.0751559
-0.322551
-0.514725
-0.474701
-0.873888
-0.817265
-0.621422
-0.513652
-0.0789928
0.272669
0.631878
0.959309
1.22206
1.36959
1.37898
1.2486
1.11432
0.822961
0.511553
0.231541
-0.0579576
-0.21626
-0.334795
-0.383338
-0.626602
-0.569202
-0.47726
-0.312154
-0.0177066
0.156887
0.39136
0.702852
0.889332
0.970684
0.993059
0.95563
0.79554
0.703654
0.325391
0.132656
-0.060644
-0.129168
-0.21007
-0.328421
-0.353294
-0.40098
-0.278842
-0.202413
-0.0838096
0.121663
0.244346
0.469771
0.474953
0.595367
0.628027
0.549837
0.469334
0.327973
0.255466
0.0644858
0.0184841
-0.140907
-0.199469
-0.161684
-0.159884
-0.144205
-0.20055
-0.0857022
-0.0390317
0.0734468
0.0288608
0.178328
0.139472
0.207197
0.174812
0.198728
0.160896
0.132409
0.0634676
0.0144253
0.0390101
-0.0111811
-0.0147159
-0.0649298
-2.54485
-2.46729
-2.1996
-1.75792
-1.16534
-0.526379
0.172757
0.82696
1.42467
1.77314
1.8251
1.66957
1.19092
0.689139
0.169068
-0.406576
-0.898223
-1.23551
-1.42546
-1.40221
-2.18589
-2.12671
-1.86558
-1.54551
-1.02321
-0.449235
0.206802
0.737158
1.26917
1.42195
1.54134
1.43399
1.11121
0.67803
0.203676
-0.281317
-0.781542
-1.02474
-1.11862
-1.19965
-1.81815
-1.78435
-1.57821
-1.26134
-0.876413
-0.393353
0.197047
0.666435
1.05035
1.30499
1.33339
1.18448
0.959486
0.588645
0.120327
-0.268652
-0.67536
-0.892971
-1.04566
-0.982149
-1.46533
-1.45886
-1.29862
-0.974191
-0.656428
-0.238503
0.156909
0.559435
0.816603
1.04207
1.12353
0.970014
0.793091
0.49771
0.124449
-0.229357
-0.534892
-0.72372
-0.797422
-0.760432
-1.10323
-1.10681
-0.991313
-0.793732
-0.550447
-0.233863
0.17756
0.436449
0.654254
0.792765
0.911199
0.783542
0.579589
0.369341
0.105419
-0.119102
-0.312529
-0.602812
-0.553912
-0.557871
-0.782968
-0.804055
-0.625496
-0.567514
-0.402687
-0.129176
0.090061
0.332814
0.566815
0.582502
0.654436
0.495132
0.403567
0.311189
0.143386
-0.159096
-0.281613
-0.427537
-0.46178
-0.410523
-0.446601
-0.454398
-0.423464
-0.331864
-0.279281
-0.0799539
0.0727594
0.242141
0.252409
0.335485
0.403214
0.37979
0.294363
0.15331
0.0616548
-0.0716688
-0.20161
-0.223747
-0.234087
-0.253639
-0.101378
-0.116375
-0.0915481
-0.0600802
-0.0657089
-0.0560622
-0.0200134
0.0696282
0.124385
0.0977631
0.1577
0.126439
0.115444
0.0181126
-0.0237439
0.0309238
-0.00746829
-0.0364818
-0.121133
-0.07448
-2.99613
-2.93654
-2.73161
-2.41835
-1.93514
-1.30342
-0.630106
-0.125693
0.350145
0.680706
0.730652
0.5446
0.286328
-0.16272
-0.654926
-1.19446
-1.56627
-1.79108
-1.88202
-1.76256
-2.50583
-2.51527
-2.42997
-2.00545
-1.64338
-1.20245
-0.586844
-0.0687311
0.341789
0.593441
0.580705
0.570518
0.189229
-0.123875
-0.627034
-0.95784
-1.25076
-1.47472
-1.58608
-1.54993
-2.13274
-2.11698
-1.96699
-1.67897
-1.4467
-0.932709
-0.420482
-0.0142441
0.254591
0.504367
0.574601
0.465164
0.238478
-0.132754
-0.369601
-0.793731
-1.1128
-1.2914
-1.31512
-1.23251
-1.7245
-1.70826
-1.53788
-1.38682
-1.07669
-0.751762
-0.340216
-0.0701389
0.214228
0.495561
0.481463
0.414668
0.243428
-0.0290544
-0.410602
-0.604597
-0.857644
-0.993444
-1.06176
-1.02294
-1.26997
-1.32929
-1.23579
-1.03566
-0.851681
-0.606788
-0.330826
-0.020825
0.238544
0.36204
0.363608
0.21486
0.19446
-0.0217088
-0.280958
-0.527168
-0.693586
-0.762009
-0.831787
-0.805909
-0.904237
-0.917024
-0.930567
-0.739535
-0.594051
-0.416805
-0.248154
-0.00869247
0.156771
0.232913
0.33198
0.209873
0.19731
-0.0211952
-0.169124
-0.353568
-0.450624
-0.528063
-0.595627
-0.543044
-0.566769
-0.586201
-0.501761
-0.453813
-0.320153
-0.214896
-0.122798
0.0156451
0.0852678
0.167585
0.187097
0.141596
0.114329
-0.0358409
-0.0823828
-0.241533
-0.215633
-0.339928
-0.343145
-0.340264
-0.192254
-0.192146
-0.170462
-0.143976
-0.0895096
-0.0602711
-0.0264294
-0.0156378
-0.006524
0.0258872
0.0652419
0.116724
0.032874
0.0266669
-0.0470516
-0.0381616
-0.0539496
-0.136431
-0.128006
-0.121789
-3.15254
-3.25833
-3.13335
-2.88759
-2.54375
-1.98193
-1.55251
-1.00152
-0.555055
-0.335068
-0.220489
-0.299471
-0.609569
-0.931278
-1.29896
-1.75569
-1.94996
-2.09947
-2.14502
-1.91215
-2.69362
-2.7891
-2.6779
-2.55401
-2.08631
-1.7079
-1.25232
-0.77804
-0.509461
-0.261677
-0.217442
-0.245264
-0.437931
-0.818675
-1.121
-1.44958
-1.62188
-1.78068
-1.84009
-1.67314
-2.25908
-2.35315
-2.26954
-2.1061
-1.7796
-1.43715
-1.09161
-0.649898
-0.378283
-0.15793
-0.143007
-0.172048
-0.358582
-0.699675
-0.929411
-1.21835
-1.39265
-1.46704
-1.4664
-1.38169
-1.8712
-1.90402
-1.81263
-1.69447
-1.44629
-1.14617
-0.798213
-0.579339
-0.275942
-0.137809
-0.0453661
-0.169077
-0.261642
-0.423176
-0.777376
-0.959572
-1.06882
-1.21733
-1.20991
-1.13606
-1.50143
-1.45786
-1.37885
-1.2968
-1.07687
-0.904658
-0.647725
-0.404239
-0.197804
-0.171975
-0.0480869
-0.146725
-0.22203
-0.346384
-0.578429
-0.696692
-0.816556
-0.943177
-0.951546
-0.857531
-1.03182
-1.02275
-0.950619
-0.921331
-0.795653
-0.627759
-0.457724
-0.324989
-0.129806
-0.0501378
-0.0236163
-0.142241
-0.18919
-0.201435
-0.4465
-0.51336
-0.642534
-0.591429
-0.618312
-0.552051
-0.564624
-0.595218
-0.608467
-0.543712
-0.538114
-0.339646
-0.243352
-0.164716
-0.0655859
-0.0369622
-0.0716303
0.00932618
-0.0643689
-0.0867059
-0.246913
-0.32846
-0.405303
-0.430901
-0.424067
-0.423801
-0.18585
-0.209498
-0.19383
-0.207284
-0.125867
-0.107834
-0.109738
-0.0839043
-0.0168558
-0.00940433
0.0284284
-0.0360762
-0.126813
-0.0226242
-0.0600461
-0.131561
-0.146982
-0.148593
-0.212308
-0.153408
-3.195
-3.32666
-3.43338
-3.22815
-2.95291
-2.50929
-2.09812
-1.67916
-1.30036
-1.09331
-1.04486
-1.10203
-1.25467
-1.47724
-1.7889
-2.08788
-2.20662
-2.29685
-2.17588
-1.99894
-2.79754
-2.88257
-2.88157
-2.72371
-2.52969
-2.16166
-1.80685
-1.36686
-1.08119
-0.872777
-0.813859
-0.970285
-1.01152
-1.25893
-1.6056
-1.79691
-1.91752
-1.99015
-1.93539
-1.70576
-2.3119
-2.37209
-2.35918
-2.30172
-2.04138
-1.80093
-1.4745
-1.1804
-0.903668
-0.783316
-0.648618
-0.730121
-0.850826
-1.10628
-1.36102
-1.481
-1.61603
-1.63447
-1.57638
-1.48261
-1.81479
-1.93923
-1.97287
-1.86642
-1.70151
-1.46728
-1.15514
-0.960289
-0.756228
-0.673129
-0.630838
-0.584168
-0.726251
-0.803318
-1.0483
-1.1823
-1.31605
-1.32508
-1.2754
-1.13941
-1.47875
-1.51405
-1.46788
-1.41469
-1.33672
-1.13126
-0.904232
-0.739855
-0.534005
-0.440323
-0.387275
-0.48977
-0.571046
-0.665296
-0.74499
-0.975774
-1.03421
-0.999077
-1.05358
-0.91491
-0.971351
-1.02224
-1.02956
-1.05005
-0.869074
-0.793546
-0.588458
-0.462371
-0.378494
-0.306433
-0.228872
-0.343087
-0.397855
-0.45808
-0.572274
-0.703473
-0.70164
-0.703471
-0.684343
-0.631359
-0.55326
-0.650062
-0.643737
-0.575723
-0.518887
-0.526834
-0.368449
-0.280923
-0.234877
-0.155039
-0.169645
-0.15028
-0.26009
-0.243733
-0.313866
-0.473366
-0.467414
-0.52053
-0.416912
-0.323199
-0.17978
-0.183719
-0.196679
-0.193103
-0.15081
-0.140124
-0.102249
-0.111879
-0.0802149
-0.0815769
-0.0446333
-0.0956551
-0.104833
-0.112288
-0.13751
-0.103806
-0.14187
-0.220371
-0.109353
-0.165415
-3.09164
-3.30742
-3.42338
-3.33984
-3.12182
-2.86047
-2.51899
-2.16074
-1.9026
-1.68231
-1.56615
-1.5833
-1.75594
-1.941
-2.0825
-2.23136
-2.4284
-2.35607
-2.13635
-1.86065
-2.66568
-2.86572
-2.83801
-2.91822
-2.71317
-2.42386
-2.12968
-1.91037
-1.62463
-1.37089
-1.31654
-1.38299
-1.44513
-1.68184
-1.77074
-1.98741
-2.04593
-2.03909
-1.79918
-1.70138
-2.23867
-2.35963
-2.39823
-2.3813
-2.23621
-2.04489
-1.79209
-1.4469
-1.37988
-1.26652
-1.06573
-1.16317
-1.25697
-1.45824
-1.46567
-1.67177
-1.79498
-1.72814
-1.5304
-1.33546
-1.82916
-1.94717
-1.98589
-1.9733
-1.83141
-1.64503
-1.52727
-1.23025
-1.0852
-0.88903
-0.851247
-0.914521
-1.05485
-1.10104
-1.2621
-1.33816
-1.43723
-1.32785
-1.18007
-1.18369
-1.37502
-1.51218
-1.54076
-1.51657
-1.42445
-1.28541
-1.11846
-0.986605
-0.803931
-0.772967
-0.67846
-0.805587
-0.80865
-0.826799
-1.01567
-1.07999
-1.12545
-1.10176
-0.938276
-0.820284
-0.961841
-1.01209
-1.09056
-1.0929
-0.956012
-0.926985
-0.810328
-0.707977
-0.608836
-0.54732
-0.482967
-0.415314
-0.538831
-0.597274
-0.702313
-0.729948
-0.798624
-0.770834
-0.613063
-0.570629
-0.593416
-0.654594
-0.617011
-0.647938
-0.566598
-0.45685
-0.488561
-0.371843
-0.405169
-0.328523
-0.269655
-0.308938
-0.319432
-0.388693
-0.333049
-0.435577
-0.426227
-0.479795
-0.403967
-0.381841
-0.209573
-0.208853
-0.254748
-0.198525
-0.170857
-0.221588
-0.157792
-0.153104
-0.0652118
-0.12813
-0.11835
-0.143403
-0.0367956
-0.107693
-0.107894
-0.130837
-0.222157
-0.187771
-0.186608
-0.111053
-2.76823
-3.04568
-3.24231
-3.30832
-3.10193
-2.95848
-2.69787
-2.45467
-2.23238
-2.05271
-2.01609
-1.9823
-2.02294
-2.18271
-2.33769
-2.35141
-2.31325
-2.1526
-1.90024
-1.61164
-2.38866
-2.65442
-2.79555
-2.84465
-2.72775
-2.59187
-2.36509
-2.18313
-1.85756
-1.7464
-1.70508
-1.67138
-1.73007
-1.81874
-1.96026
-1.9715
-2.03376
-1.85245
-1.62527
-1.33785
-2.05685
-2.15394
-2.29587
-2.32463
-2.33426
-2.22291
-1.91981
-1.74768
-1.54432
-1.44629
-1.40252
-1.36781
-1.47393
-1.45826
-1.63201
-1.62394
-1.6365
-1.55234
-1.32886
-1.0775
-1.62023
-1.76103
-1.88126
-1.90428
-1.85413
-1.75146
-1.58541
-1.39302
-1.24489
-1.11628
-1.15061
-1.08002
-1.15048
-1.27309
-1.3082
-1.36347
-1.35062
-1.29391
-1.10922
-0.841012
-1.29942
-1.27742
-1.35347
-1.45172
-1.42891
-1.35101
-1.21727
-1.06084
-0.992908
-0.915737
-0.82049
-0.874748
-0.889983
-0.916402
-1.07042
-1.02005
-1.04659
-0.932921
-0.850823
-0.74336
-0.904263
-0.986836
-1.02279
-1.01291
-1.05542
-0.957824
-0.869019
-0.759882
-0.62777
-0.60855
-0.603961
-0.683298
-0.689679
-0.677907
-0.691531
-0.736331
-0.820913
-0.624218
-0.614182
-0.52337
-0.508465
-0.507259
-0.646701
-0.635926
-0.632095
-0.535756
-0.488889
-0.487785
-0.434995
-0.348917
-0.330079
-0.337084
-0.340607
-0.44728
-0.442832
-0.458303
-0.382969
-0.363848
-0.366066
-0.354945
-0.106806
-0.189297
-0.216029
-0.230543
-0.255297
-0.223162
-0.14591
-0.183652
-0.194305
-0.167958
-0.16481
-0.115783
-0.120919
-0.088945
-0.117307
-0.0758184
-0.0988439
-0.132464
-0.0862158
-0.105709
-2.23685
-2.61335
-2.87599
-3.05466
-2.96673
-2.83636
-2.71126
-2.54146
-2.31426
-2.20117
-2.04436
-2.14768
-2.10125
-2.12959
-2.16461
-2.17535
-2.05473
-1.74747
-1.40908
-1.0017
-1.8932
-2.19259
-2.4134
-2.53866
-2.54782
-2.52007
-2.38361
-2.0723
-1.97027
-1.88619
-1.83121
-1.82587
-1.81613
-1.87414
-1.91974
-1.79422
-1.72991
-1.52602
-1.15776
-0.900659
-1.5985
-1.91587
-2.04478
-2.12873
-2.12878
-2.05257
-1.96178
-1.74792
-1.69233
-1.58475
-1.51591
-1.44894
-1.43768
-1.4816
-1.53778
-1.51019
-1.47528
-1.27161
-0.953357
-0.760553
-1.25535
-1.45643
-1.62462
-1.73544
-1.76234
-1.67693
-1.54497
-1.42679
-1.39261
-1.2409
-1.17543
-1.15192
-1.21525
-1.20085
-1.24745
-1.20869
-1.17061
-1.02443
-0.798403
-0.597374
-1.05312
-1.12249
-1.35716
-1.33147
-1.33894
-1.29058
-1.22413
-1.16257
-1.05558
-0.949436
-0.942606
-0.91981
-0.956004
-1.00176
-1.02487
-0.937338
-0.945316
-0.816334
-0.646916
-0.426003
-0.760542
-0.807569
-0.910634
-0.976703
-0.926827
-0.946226
-0.829904
-0.814575
-0.745723
-0.685662
-0.623188
-0.690752
-0.687247
-0.704405
-0.704891
-0.688784
-0.618586
-0.636493
-0.397658
-0.331054
-0.433186
-0.511812
-0.618077
-0.516799
-0.584528
-0.514371
-0.543059
-0.495766
-0.394195
-0.41516
-0.396517
-0.34159
-0.292779
-0.399591
-0.410339
-0.431043
-0.369741
-0.318452
-0.283707
-0.242568
-0.183341
-0.197573
-0.17603
-0.150458
-0.208137
-0.13206
-0.24532
-0.138981
-0.133586
-0.165786
-0.105149
-0.112104
-0.107987
-0.115645
-0.134718
-0.102296
-0.113624
-0.0765161
-0.0721345
-0.122281
-1.54925
-1.90467
-2.30646
-2.50471
-2.62982
-2.5987
-2.51361
-2.32303
-2.27399
-2.11988
-2.02654
-1.95426
-1.96327
-1.90724
-1.90843
-1.68293
-1.62119
-1.20335
-0.720392
-0.242831
-1.35995
-1.72034
-1.95484
-2.1324
-2.17175
-2.21756
-2.12629
-2.02305
-1.8602
-1.81342
-1.67608
-1.64996
-1.68532
-1.58978
-1.6221
-1.53573
-1.25051
-0.972748
-0.58046
-0.200579
-1.11912
-1.37642
-1.6339
-1.85948
-1.84539
-1.77438
-1.7597
-1.68392
-1.61449
-1.41287
-1.41626
-1.41297
-1.37101
-1.40529
-1.28584
-1.20051
-1.03988
-0.866039
-0.482353
-0.170598
-0.92313
-1.10508
-1.34498
-1.44262
-1.42247
-1.48645
-1.45987
-1.45629
-1.30118
-1.2272
-1.12783
-1.22072
-1.11104
-1.03371
-1.08418
-0.953476
-0.905857
-0.686793
-0.419512
-0.140747
-0.715196
-0.880868
-0.992065
-1.10349
-1.14877
-1.12768
-1.16994
-1.00483
-0.967392
-0.876627
-0.944963
-0.838708
-0.88856
-0.83142
-0.833854
-0.778533
-0.61907
-0.519272
-0.362729
-0.0871535
-0.524236
-0.613246
-0.72269
-0.796485
-0.828554
-0.808093
-0.77846
-0.715652
-0.736755
-0.616726
-0.579702
-0.634941
-0.592327
-0.56319
-0.569063
-0.48055
-0.468921
-0.365467
-0.197299
-0.115857
-0.260514
-0.362924
-0.414056
-0.49464
-0.47514
-0.524362
-0.467591
-0.399662
-0.435584
-0.347675
-0.461879
-0.320314
-0.343015
-0.317559
-0.341613
-0.285564
-0.307062
-0.223435
-0.171182
0.00114443
-0.12745
-0.0665211
-0.148418
-0.164601
-0.144966
-0.198534
-0.201587
-0.0691213
-0.123755
-0.159994
-0.0916614
-0.0991566
-0.153936
-0.157011
-0.0271655
-0.149639
-0.0662995
-0.119731
-0.0513506
-0.0238118
-0.611418
-1.07172
-1.52675
-1.77688
-1.96454
-2.04832
-1.99048
-1.97014
-1.90587
-1.82304
-1.6774
-1.64181
-1.55138
-1.46227
-1.26816
-1.07215
-0.784372
-0.372059
0.192741
0.730064
-0.497723
-0.833486
-1.25062
-1.44729
-1.69195
-1.78549
-1.6563
-1.60123
-1.56603
-1.47096
-1.41935
-1.37552
-1.20963
-1.16643
-1.15677
-0.920597
-0.682326
-0.374845
0.210801
0.636322
-0.470075
-0.704488
-1.04884
-1.27199
-1.42749
-1.43653
-1.4395
-1.35016
-1.25574
-1.26369
-1.14522
-1.1313
-1.13826
-1.01743
-0.952959
-0.757934
-0.521123
-0.121845
0.129065
0.506895
-0.344011
-0.566597
-0.869819
-0.955695
-1.1362
-1.08883
-1.18622
-1.15562
-1.04543
-0.960946
-0.939771
-0.835064
-0.889255
-0.718933
-0.720688
-0.578998
-0.410451
-0.154279
0.166239
0.426872
-0.275202
-0.444716
-0.612236
-0.728814
-0.779203
-0.866537
-0.778849
-0.812645
-0.878527
-0.734494
-0.728759
-0.735851
-0.554329
-0.623142
-0.570986
-0.399314
-0.32385
-0.117097
0.160864
0.344279
-0.164329
-0.287751
-0.474757
-0.530188
-0.574011
-0.556925
-0.657197
-0.618702
-0.564978
-0.545637
-0.450305
-0.531855
-0.556974
-0.450582
-0.350765
-0.311893
-0.284759
-0.092095
0.0463847
0.190155
-0.0791798
-0.225178
-0.230641
-0.300314
-0.352868
-0.350923
-0.410376
-0.333069
-0.402015
-0.346867
-0.304069
-0.207863
-0.246977
-0.307329
-0.238948
-0.180331
-0.0762956
-0.0466156
0.102091
0.102898
7.5123e-05
-0.0551437
-0.0362739
-0.0694505
-0.0935173
-0.0837727
-0.125036
-0.122702
-0.0998684
-0.0808763
-0.200221
-0.128068
-0.11052
-0.121448
-0.051113
-0.111537
-0.0200558
-0.00744175
-0.0371136
0.0535031
0.575325
0.0396596
-0.443693
-0.844499
-1.1058
-1.20858
-1.23453
-1.28883
-1.19173
-1.08653
-1.02599
-0.98741
-0.781241
-0.632405
-0.504722
-0.240857
0.199885
0.698272
1.27329
1.8932
0.499498
0.0815917
-0.435476
-0.700361
-0.863336
-0.998513
-1.06979
-1.09906
-0.983025
-0.944204
-0.870975
-0.805428
-0.706322
-0.544648
-0.382944
-0.219131
0.198735
0.601653
1.12115
1.57494
0.433134
0.121395
-0.290455
-0.543918
-0.75027
-0.861594
-0.844336
-0.898257
-0.834431
-0.792325
-0.689195
-0.712636
-0.517342
-0.461786
-0.343008
-0.207766
0.190566
0.508875
0.94715
1.39572
0.320854
0.120583
-0.16492
-0.402624
-0.554508
-0.674182
-0.684628
-0.728765
-0.667628
-0.614344
-0.517109
-0.592148
-0.420365
-0.290452
-0.234457
-0.0571444
0.172631
0.416898
0.820484
1.05882
0.305118
0.0779701
-0.201688
-0.301994
-0.44972
-0.501864
-0.421941
-0.613758
-0.506378
-0.427776
-0.414842
-0.346068
-0.266718
-0.350363
-0.26684
-0.021775
0.121626
0.349798
0.609314
0.894397
0.192142
0.0233654
-0.0963038
-0.293567
-0.299797
-0.298258
-0.37184
-0.350678
-0.396439
-0.312941
-0.271163
-0.350955
-0.238818
-0.176629
-0.126078
-0.0374853
0.121084
0.214572
0.472829
0.621597
0.150347
0.0229865
-0.114926
-0.124174
-0.171348
-0.238671
-0.280977
-0.214849
-0.250478
-0.113075
-0.216272
-0.11955
-0.17093
-0.142721
-0.158695
-0.0558681
0.0857221
0.168548
0.233557
0.454329
0.0320201
-0.0571044
0.0328685
-0.00754961
-0.100488
-0.0311994
-0.0324316
-0.0841452
-0.0602941
-0.0968538
-0.0805171
-0.0599226
-0.0518683
0.0231485
0.000257891
0.0397528
-0.000104918
0.119592
0.12669
0.104978
1.94198
1.3807
0.743445
0.354299
0.0524954
-0.177026
-0.339682
-0.348918
-0.311427
-0.300218
-0.194618
-0.0717433
0.0818152
0.354726
0.625556
0.906649
1.40352
1.90381
2.64568
3.27748
1.70344
1.21653
0.678392
0.353534
0.0335505
-0.105489
-0.217211
-0.271238
-0.232529
-0.215046
-0.11927
-0.0468064
0.122662
0.232642
0.52831
0.828931
1.1615
1.75766
2.26644
2.79118
1.4758
0.967244
0.638963
0.330732
0.131862
-0.111317
-0.184795
-0.179626
-0.232742
-0.10475
-0.00290972
0.0252283
0.06289
0.278595
0.474496
0.682646
1.07575
1.36922
1.84012
2.32979
1.20582
0.882833
0.542338
0.228752
0.0190129
0.00511201
-0.194507
-0.112313
-0.21723
-0.0675174
-0.0649712
0.0259373
0.101893
0.20497
0.365146
0.629118
0.872549
1.21791
1.52389
1.93349
0.944184
0.711448
0.427816
0.263578
0.0834798
-0.0531903
-0.0727118
-0.109956
-0.0903453
-0.127285
0.0163435
-0.0277008
0.13168
0.154417
0.248772
0.494787
0.658677
0.979593
1.2171
1.53709
0.660454
0.444705
0.330162
0.158367
0.0945154
-0.00437404
-0.000356652
-0.124448
-0.115227
0.0367746
-0.0278776
0.0254853
0.126284
0.139249
0.176851
0.39559
0.538075
0.684411
0.885374
1.09241
0.373643
0.324227
0.265738
0.0197461
0.00553189
-0.00478309
-0.0307136
-0.0462943
-0.0756419
-0.0290536
-0.0105594
0.0103435
0.0414262
0.0884406
0.164409
0.198702
0.360661
0.408622
0.571374
0.679157
0.0515541
0.114541
0.0607275
0.0669349
-0.0215828
-0.0473518
-0.0280642
-0.00958506
0.00958127
-0.0365501
-0.0499367
0.053716
0.0178929
0.0579224
0.0310561
0.0425629
0.10864
0.0766508
0.155567
0.135194
3.50785
2.88872
2.28778
1.76147
1.34359
1.0824
0.942183
0.802891
0.807955
0.905193
0.90861
1.09708
1.31736
1.52719
1.8487
2.28671
2.80343
3.41233
4.06625
4.78615
3.07963
2.52253
1.99661
1.54782
1.22281
0.998208
0.805712
0.71169
0.699592
0.721847
0.888185
0.992792
1.1622
1.32496
1.5855
1.91521
2.44889
2.96977
3.64165
4.07137
2.49892
2.12158
1.69011
1.33555
1.05419
0.910959
0.724995
0.685036
0.622498
0.713282
0.724297
0.870574
0.963483
1.11845
1.35813
1.65285
2.04361
2.51955
3.0552
3.49278
2.12119
1.73494
1.37942
1.03463
0.89038
0.67963
0.623814
0.535083
0.552039
0.611218
0.640022
0.672946
0.859923
0.939931
1.14311
1.41123
1.63919
2.05732
2.51195
2.85169
1.61329
1.41816
1.13304
0.88684
0.752993
0.60658
0.485948
0.398506
0.469894
0.444317
0.494988
0.559873
0.654455
0.737749
0.90673
1.06856
1.27398
1.62407
1.9255
2.17257
1.18996
0.948009
0.797955
0.632469
0.530646
0.393475
0.430408
0.311853
0.293264
0.263427
0.288645
0.375066
0.47207
0.550491
0.669707
0.76481
0.93159
1.1543
1.4161
1.57646
0.667524
0.604027
0.456202
0.391828
0.269782
0.233699
0.176194
0.150676
0.220752
0.224337
0.221913
0.277396
0.310339
0.314162
0.432248
0.416168
0.56803
0.655209
0.834799
0.950994
0.228868
0.223881
0.122101
0.100464
0.180447
0.106841
0.0312646
0.075385
0.060193
0.0896893
0.114476
0.0390065
0.0899904
0.106218
0.142645
0.199303
0.237033
0.318802
0.261731
0.272971
5.16085
4.53786
3.92963
3.33806
2.81931
2.58348
2.32738
2.21419
2.20238
2.22492
2.20743
2.42263
2.61727
2.89194
3.27612
3.74701
4.36379
4.96132
5.81576
6.53244
4.51683
3.95175
3.38964
2.90591
2.50034
2.16536
2.0794
1.90802
1.898
1.9832
2.03904
2.13588
2.31978
2.59196
2.91973
3.2598
3.74741
4.42577
5.02134
5.65602
3.81401
3.39179
2.86998
2.48425
2.12647
1.91836
1.76025
1.61606
1.6501
1.68057
1.75401
1.73234
1.97547
2.16483
2.47175
2.7336
3.2341
3.67018
4.16083
4.76346
3.15747
2.75401
2.38888
1.9642
1.78063
1.51537
1.48107
1.40727
1.2803
1.28607
1.39607
1.43463
1.53677
1.77582
1.97856
2.27714
2.56823
3.02466
3.45224
3.88815
2.34103
2.13037
1.80467
1.58095
1.34062
1.15946
1.08482
1.1085
1.04297
1.15332
1.09855
1.05499
1.25569
1.411
1.55648
1.70655
2.02384
2.44269
2.69655
2.96762
1.71741
1.52541
1.29211
1.12104
0.953364
0.89405
0.795804
0.751104
0.707401
0.744297
0.730081
0.843688
0.954972
0.995161
1.08439
1.2472
1.50856
1.6584
1.95564
2.14064
1.00887
0.936345
0.823326
0.651809
0.620167
0.52825
0.49508
0.504867
0.482178
0.473025
0.445441
0.486414
0.503651
0.579655
0.677525
0.763167
0.907763
0.979984
1.1732
1.26894
0.306121
0.395884
0.28794
0.240196
0.209658
0.175421
0.0985862
0.140784
0.158044
0.198029
0.159618
0.169881
0.140019
0.246802
0.239489
0.282659
0.262426
0.340227
0.448557
0.460963
6.98063
6.28628
5.57726
5.00093
4.46616
4.13431
3.86229
3.70033
3.62604
3.69882
3.79316
3.87494
4.13963
4.47903
4.83622
5.38624
5.98771
6.70843
7.53541
8.27408
5.93692
5.38342
4.77745
4.37118
3.85844
3.44368
3.27379
3.17205
3.1317
3.14903
3.20736
3.38257
3.57644
3.76514
4.15878
4.61608
5.12394
5.70886
6.46995
7.09073
5.0058
4.57507
4.09379
3.64125
3.2801
2.87708
2.78194
2.69674
2.67166
2.6614
2.67681
2.79137
2.95584
3.25876
3.47394
3.92574
4.30095
4.81386
5.35484
6.06877
4.11836
3.70536
3.26975
2.93144
2.61695
2.39385
2.25485
2.23347
2.14934
2.18614
2.27347
2.29012
2.41381
2.64696
2.77132
3.11377
3.53493
3.93727
4.50977
4.84988
3.18834
2.91144
2.47563
2.20176
1.98169
1.88146
1.76027
1.66764
1.70582
1.67379
1.69007
1.72376
1.97007
2.06692
2.17493
2.47936
2.713
3.16282
3.43052
3.77542
2.24112
2.02666
1.7962
1.58388
1.495
1.28762
1.24191
1.22787
1.16606
1.14938
1.1622
1.26253
1.40171
1.43974
1.57229
1.76553
1.83455
2.23659
2.41854
2.67035
1.36886
1.25359
1.14971
0.964207
0.815689
0.726183
0.772623
0.702552
0.751077
0.745158
0.67141
0.775785
0.853031
0.860756
1.01426
1.05469
1.12607
1.27398
1.38218
1.53852
0.413094
0.432362
0.398269
0.320099
0.354266
0.249372
0.284191
0.239242
0.224087
0.242415
0.211601
0.346549
0.28277
0.294964
0.31763
0.355928
0.40492
0.421445
0.524491
0.498117
8.34314
7.63077
6.91059
6.29932
5.75698
5.41526
5.09806
4.96176
4.75958
4.88278
4.91337
5.06891
5.31637
5.67194
6.10885
6.66911
7.28721
8.08408
8.89498
9.66823
7.11688
6.54712
5.92846
5.35069
4.93535
4.62953
4.26416
4.1934
4.05838
4.15569
4.20104
4.35356
4.51499
4.80747
5.25052
5.63432
6.27384
6.9436
7.60241
8.25345
5.95409
5.42085
4.94361
4.51261
4.02553
3.78444
3.65794
3.47027
3.47577
3.4399
3.49708
3.58237
3.75288
4.05611
4.30085
4.72661
5.23349
5.72164
6.32043
6.89896
4.74856
4.4199
3.97727
3.61637
3.29792
3.03061
2.86257
2.87378
2.7854
2.75439
2.83939
2.88159
3.02942
3.22539
3.41235
3.80186
4.22692
4.64028
5.11899
5.54484
3.64741
3.31572
3.16915
2.75141
2.52311
2.39234
2.26614
2.10744
2.07476
2.13287
2.19175
2.23727
2.37404
2.51839
2.78565
2.93774
3.25801
3.60135
3.96826
4.28657
2.60233
2.40214
2.13181
1.94657
1.81947
1.69013
1.62272
1.53487
1.49799
1.4902
1.51067
1.57418
1.61679
1.70026
1.95633
2.0754
2.2835
2.53088
2.8153
2.96046
1.60511
1.4299
1.27861
1.18201
1.08799
1.03223
0.933389
0.960453
0.891384
0.927873
0.943745
0.887607
0.99285
1.02903
1.10239
1.19338
1.40579
1.49777
1.70206
1.78569
0.491946
0.485566
0.505743
0.42718
0.327373
0.366586
0.33368
0.289952
0.286701
0.293576
0.286838
0.367703
0.302808
0.313382
0.443572
0.424457
0.426448
0.496919
0.590939
0.639297
)
;

boundaryField
{
    hotSide
    {
        type            calculated;
        value           nonuniform List<scalar> 
400
(
1.74686
1.07374
0.270818
-0.451552
-1.23788
-1.79028
-2.25645
-2.42945
-2.48987
-2.40556