/*--------------------------------*- C++ -*----------------------------------*\
| =========                 |                                                 |
| \\      /  F ield         | OpenFOAM: The Open Source CFD Toolbox           |
|  \\    /   O peration     | Version:  2212                                  |
|   \\  /    A nd           | Website:  www.openfoam.com                      |
|    \\/     M anipulation  |                                                 |
\*---------------------------------------------------------------------------*/
FoamFile
{
    version     2.0;
    format      ascii;
    arch        "LSB;label=32;scalar=64";
    class       volScalarField;
    location    "0";
    object      Ttrue;
}
// * * * * * * * * * * * * * * * * * * * * * * * * * * * * * * * * * * * * * //

dimensions      [0 0 0 1 0 0 0];

internalField   nonuniform List<scalar> 
3200
(
344.67
344.918
345.234
345.579
345.933
346.282
346.603
346.875
347.072
347.177
347.177
347.072
346.875
346.603
346.282
345.933
345.579
345.234
344.918
344.67
338.767
338.977
339.25
339.548
339.855
340.156
340.434
340.668
340.839
340.929
340.929
340.839
340.668
340.434
340.156
339.855
339.548
339.25
338.977
338.767
332.842
333.016
333.246
333.498
333.757
334.012
334.246
334.444
334.588
334.664
334.664
334.588
334.444
334.246
334.012
333.757
333.498
333.246
333.016
332.842
326.899
327.039
327.226
327.432
327.644
327.852
328.044
328.205
328.323
328.385
328.385
328.323
328.205
328.044
327.852
327.644
327.432
327.226
327.039
326.899
320.942
321.049
321.194
321.354
321.519
321.681
321.83
321.955
322.046
322.094
322.094
322.046
321.955
321.83
321.681
321.519
321.354
321.194
321.049
320.942
314.973
315.049
315.153
315.267
315.385
315.5
315.606
315.696
315.761
315.795
315.795
315.761
315.696
315.606
315.5
315.385
315.267
315.153
315.049
314.973
308.997
309.042
309.105
309.173
309.244
309.313
309.377
309.431
309.47
309.49
309.49
309.47
309.431
309.377
309.313
309.244
309.173
309.105
309.042
308.997
303.016
303.032
303.052
303.075
303.099
303.122
303.144
303.162
303.175
303.182
303.182
303.175
303.162
303.144
303.122
303.099
303.075
303.052
303.032
303.016
344.858
345.103
345.417
345.758
346.109
346.454
346.771
347.039
347.234
347.337
347.337
347.234
347.039
346.771
346.454
346.109
345.758
345.417
345.103
344.858
338.93
339.138
339.408
339.703
340.007
340.305
340.58
340.811
340.98
341.069
341.069
340.98
340.811
340.58
340.305
340.007
339.703
339.408
339.138
338.93
332.98
333.152
333.38
333.629
333.886
334.138
334.37
334.565
334.707
334.782
334.782
334.707
334.565
334.37
334.138
333.886
333.629
333.38
333.152
332.98
327.011
327.15
327.336
327.54
327.75
327.956
328.145
328.305
328.421
328.482
328.482
328.421
328.305
328.145
327.956
327.75
327.54
327.336
327.15
327.011
321.029
321.136
321.28
321.438
321.601
321.761
321.908
322.032
322.122
322.17
322.17
322.122
322.032
321.908
321.761
321.601
321.438
321.28
321.136
321.029
315.036
315.111
315.214
315.327
315.443
315.558
315.663
315.751
315.815
315.849
315.849
315.815
315.751
315.663
315.558
315.443
315.327
315.214
315.111
315.036
309.035
309.08
309.141
309.209
309.279
309.348
309.411
309.464
309.502
309.523
309.523
309.502
309.464
309.411
309.348
309.279
309.209
309.141
309.08
309.035
303.029
303.044
303.065
303.087
303.111
303.134
303.155
303.173
303.186
303.193
303.193
303.186
303.173
303.155
303.134
303.111
303.087
303.065
303.044
303.029
345.232
345.474
345.782
346.117
346.461
346.798
347.109
347.37
347.56
347.66
347.66
347.56
347.37
347.109
346.798
346.461
346.117
345.782
345.474
345.232
339.254
339.459
339.725
340.015
340.312
340.604
340.872
341.098
341.263
341.349
341.349
341.263
341.098
340.872
340.604
340.312
340.015
339.725
339.459
339.254
333.255
333.424
333.648
333.893
334.145
334.391
334.618
334.808
334.947
335.02
335.02
334.947
334.808
334.618
334.391
334.145
333.893
333.648
333.424
333.255
327.237
327.373
327.556
327.756
327.962
328.163
328.348
328.504
328.617
328.677
328.677
328.617
328.504
328.348
328.163
327.962
327.756
327.556
327.373
327.237
321.204
321.309
321.451
321.606
321.766
321.923
322.066
322.187
322.275
322.322
322.322
322.275
322.187
322.066
321.923
321.766
321.606
321.451
321.309
321.204
315.161
315.235
315.336
315.447
315.561
315.673
315.776
315.862
315.925
315.958
315.958
315.925
315.862
315.776
315.673
315.561
315.447
315.336
315.235
315.161
309.11
309.154
309.215
309.281
309.35
309.417
309.479
309.53
309.568
309.588
309.588
309.568
309.53
309.479
309.417
309.35
309.281
309.215
309.154
309.11
303.054
303.069
303.089
303.112
303.135
303.157
303.178
303.195
303.208
303.214
303.214
303.208
303.195
303.178
303.157
303.135
303.112
303.089
303.069
303.054
345.795
346.031
346.331
346.657
346.991
347.317
347.617
347.869
348.052
348.149
348.149
348.052
347.869
347.617
347.317
346.991
346.657
346.331
346.031
345.795
339.742
339.942
340.201
340.483
340.772
341.054
341.314
341.531
341.69
341.773
341.773
341.69
341.531
341.314
341.054
340.772
340.483
340.201
339.942
339.742
333.667
333.833
334.052
334.29
334.534
334.773
334.992
335.175
335.309
335.379
335.379
335.309
335.175
334.992
334.773
334.534
334.29
334.052
333.833
333.667
327.575
327.708
327.886
328.081
328.28
328.475
328.654
328.804
328.913
328.971
328.971
328.913
328.804
328.654
328.475
328.28
328.081
327.886
327.708
327.575
321.467
321.57
321.708
321.859
322.014
322.166
322.305
322.421
322.506
322.551
322.551
322.506
322.421
322.305
322.166
322.014
321.859
321.708
321.57
321.467
315.349
315.421
315.52
315.628
315.739
315.847
315.946
316.029
316.09
316.122
316.122
316.09
316.029
315.946
315.847
315.739
315.628
315.52
315.421
315.349
309.223
309.266
309.325
309.39
309.456
309.521
309.581
309.631
309.667
309.686
309.686
309.667
309.631
309.581
309.521
309.456
309.39
309.325
309.266
309.223
303.092
303.107
303.126
303.148
303.17
303.192
303.212
303.229
303.241
303.247
303.247
303.241
303.229
303.212
303.192
303.17
303.148
303.126
303.107
303.092
346.546
346.775
347.065
347.38
347.701
348.013
348.3
348.54
348.714
348.806
348.806
348.714
348.54
348.3
348.013
347.701
347.38
347.065
346.775
346.546
340.394
340.587
340.838
341.11
341.388
341.658
341.906
342.114
342.264
342.344
342.344
342.264
342.114
341.906
341.658
341.388
341.11
340.838
340.587
340.394
334.219
334.38
334.591
334.82
335.055
335.284
335.493
335.669
335.796
335.863
335.863
335.796
335.669
335.493
335.284
335.055
334.82
334.591
334.38
334.219
328.026
328.155
328.327
328.515
328.707
328.894
329.065
329.208
329.312
329.367
329.367
329.312
329.208
329.065
328.894
328.707
328.515
328.327
328.155
328.026
321.818
321.918
322.051
322.197
322.346
322.492
322.625
322.736
322.817
322.859
322.859
322.817
322.736
322.625
322.492
322.346
322.197
322.051
321.918
321.818
315.6
315.67
315.765
315.87
315.976
316.08
316.175
316.254
316.312
316.342
316.342
316.312
316.254
316.175
316.08
315.976
315.87
315.765
315.67
315.6
309.374
309.415
309.473
309.535
309.599
309.661
309.718
309.766
309.801
309.819
309.819
309.801
309.766
309.718
309.661
309.599
309.535
309.473
309.415
309.374
303.143
303.157
303.176
303.197
303.218
303.239
303.258
303.274
303.286
303.292
303.292
303.286
303.274
303.258
303.239
303.218
303.197
303.176
303.157
303.143
347.487
347.707
347.986
348.287
348.593
348.889
349.16
349.387
349.551
349.637
349.637
349.551
349.387
349.16
348.889
348.593
348.287
347.986
347.707
347.487
341.21
341.396
341.636
341.896
342.161
342.418
342.653
342.849
342.99
343.065
343.065
342.99
342.849
342.653
342.418
342.161
341.896
341.636
341.396
341.21
334.91
335.064
335.267
335.487
335.711
335.928
336.126
336.291
336.411
336.474
336.474
336.411
336.291
336.126
335.928
335.711
335.487
335.267
335.064
334.91
328.591
328.716
328.881
329.06
329.244
329.421
329.583
329.718
329.816
329.867
329.867
329.816
329.718
329.583
329.421
329.244
329.06
328.881
328.716
328.591
322.258
322.354
322.482
322.622
322.764
322.902
323.028
323.133
323.209
323.249
323.249
323.209
323.133
323.028
322.902
322.764
322.622
322.482
322.354
322.258
315.914
315.982
316.073
316.173
316.275
316.373
316.463
316.538
316.592
316.621
316.621
316.592
316.538
316.463
316.373
316.275
316.173
316.073
315.982
315.914
309.562
309.603
309.658
309.717
309.778
309.838
309.892
309.937
309.969
309.986
309.986
309.969
309.937
309.892
309.838
309.778
309.717
309.658
309.603
309.562
303.206
303.219
303.238
303.258
303.278
303.298
303.316
303.331
303.342
303.348
303.348
303.342
303.331
303.316
303.298
303.278
303.258
303.238
303.219
303.206
348.619
348.829
349.095
349.38
349.669
349.949
350.203
350.414
350.567
350.647
350.647
350.567
350.414
350.203
349.949
349.669
349.38
349.095
348.829
348.619
342.191
342.369
342.598
342.845
343.095
343.337
343.557
343.74
343.872
343.942
343.942
343.872
343.74
343.557
343.337
343.095
342.845
342.598
342.369
342.191
335.74
335.888
336.081
336.29
336.501
336.706
336.892
337.046
337.158
337.217
337.217
337.158
337.046
336.892
336.706
336.501
336.29
336.081
335.888
335.74
329.271
329.39
329.547
329.718
329.891
330.058
330.21
330.337
330.428
330.476
330.476
330.428
330.337
330.21
330.058
329.891
329.718
329.547
329.39
329.271
322.787
322.879
323.001
323.133
323.268
323.398
323.516
323.614
323.685
323.722
323.722
323.685
323.614
323.516
323.398
323.268
323.133
323.001
322.879
322.787
316.292
316.357
316.444
316.539
316.635
316.728
316.812
316.882
316.933
316.959
316.959
316.933
316.882
316.812
316.728
316.635
316.539
316.444
316.357
316.292
309.79
309.828
309.88
309.937
309.995
310.051
310.101
310.143
310.174
310.19
310.19
310.174
310.143
310.101
310.051
309.995
309.937
309.88
309.828
309.79
303.282
303.295
303.312
303.332
303.351
303.37
303.387
303.401
303.411
303.416
303.416
303.411
303.401
303.387
303.37
303.351
303.332
303.312
303.295
303.282
349.942
350.142
350.393
350.662
350.933
351.194
351.431
351.627
351.768
351.842
351.842
351.768
351.627
351.431
351.194
350.933
350.662
350.393
350.142
349.942
343.338
343.507
343.724
343.957
344.192
344.418
344.622
344.792
344.914
344.978
344.978
344.914
344.792
344.622
344.418
344.192
343.957
343.724
343.507
343.338
336.711
336.852
337.035
337.231
337.43
337.621
337.794
337.937
338.04
338.094
338.094
338.04
337.937
337.794
337.621
337.43
337.231
337.035
336.852
336.711
330.066
330.179
330.328
330.489
330.651
330.808
330.949
331.066
331.15
331.195
331.195
331.15
331.066
330.949
330.808
330.651
330.489
330.328
330.179
330.066
323.406
323.493
323.608
323.733
323.86
323.981
324.091
324.182
324.248
324.282
324.282
324.248
324.182
324.091
323.981
323.86
323.733
323.608
323.493
323.406
316.734
316.796
316.878
316.968
317.058
317.145
317.223
317.288
317.335
317.359
317.359
317.335
317.288
317.223
317.145
317.058
316.968
316.878
316.796
316.734
310.055
310.092
310.141
310.195
310.249
310.301
310.348
310.387
310.415
310.43
310.43
310.415
310.387
310.348
310.301
310.249
310.195
310.141
310.092
310.055
303.371
303.383
303.4
303.418
303.436
303.454
303.469
303.482
303.492
303.497
303.497
303.492
303.482
303.469
303.454
303.436
303.418
303.4
303.383
303.371
351.458
351.647
351.884
352.135
352.388
352.63
352.848
353.028
353.158
353.225
353.225
353.158
353.028
352.848
352.63
352.388
352.135
351.884
351.647
351.458
344.653
344.813
345.017
345.235
345.454
345.663
345.852
346.008
346.12
346.178
346.178
346.12
346.008
345.852
345.663
345.454
345.235
345.017
344.813
344.653
337.824
337.957
338.129
338.313
338.498
338.676
338.835
338.967
339.062
339.111
339.111
339.062
338.967
338.835
338.676
338.498
338.313
338.129
337.957
337.824
330.977
331.084
331.224
331.375
331.526
331.671
331.802
331.909
331.987
332.027
332.027
331.987
331.909
331.802
331.671
331.526
331.375
331.224
331.084
330.977
324.115
324.197
324.306
324.423
324.54
324.653
324.755
324.838
324.899
324.93
324.93
324.899
324.838
324.755
324.653
324.54
324.423
324.306
324.197
324.115
317.241
317.299
317.377
317.46
317.544
317.625
317.697
317.757
317.8
317.823
317.823
317.8
317.757
317.697
317.625
317.544
317.46
317.377
317.299
317.241
310.36
310.394
310.441
310.491
310.541
310.59
310.633
310.669
310.695
310.708
310.708
310.695
310.669
310.633
310.59
310.541
310.491
310.441
310.394
310.36
303.473
303.485
303.5
303.517
303.534
303.55
303.565
303.577
303.586
303.59
303.59
303.586
303.577
303.565
303.55
303.534
303.517
303.5
303.485
303.473
353.168
353.346
353.567
353.802
354.036
354.259
354.458
354.623
354.741
354.802
354.802
354.741
354.623
354.458
354.259
354.036
353.802
353.567
353.346
353.168
346.136
346.286
346.477
346.68
346.883
347.076
347.249
347.392
347.493
347.547
347.547
347.493
347.392
347.249
347.076
346.883
346.68
346.477
346.286
346.136
339.08
339.204
339.365
339.537
339.708
339.872
340.018
340.139
340.225
340.27
340.27
340.225
340.139
340.018
339.872
339.708
339.537
339.365
339.204
339.08
332.005
332.105
332.236
332.376
332.517
332.65
332.77
332.869
332.939
332.976
332.976
332.939
332.869
332.77
332.65
332.517
332.376
332.236
332.105
332.005
324.914
324.991
325.093
325.202
325.311
325.415
325.508
325.585
325.64
325.668
325.668
325.64
325.585
325.508
325.415
325.311
325.202
325.093
324.991
324.914
317.813
317.867
317.94
318.018
318.096
318.17
318.236
318.291
318.33
318.351
318.351
318.33
318.291
318.236
318.17
318.096
318.018
317.94
317.867
317.813
310.703
310.735
310.779
310.826
310.872
310.917
310.957
310.99
311.013
311.026
311.026
311.013
310.99
310.957
310.917
310.872
310.826
310.779
310.735
310.703
303.588
303.599
303.614
303.629
303.645
303.66
303.673
303.684
303.692
303.696
303.696
303.692
303.684
303.673
303.66
303.645
303.629
303.614
303.599
303.588
355.074
355.24
355.446
355.663
355.878
356.083
356.265
356.415
356.521
356.577
356.577
356.521
356.415
356.265
356.083
355.878
355.663
355.446
355.24
355.074
347.788
347.928
348.106
348.294
348.481
348.658
348.816
348.945
349.038
349.086
349.086
349.038
348.945
348.816
348.658
348.481
348.294
348.106
347.928
347.788
340.478
340.595
340.745
340.904
341.062
341.211
341.345
341.455
341.533
341.573
341.573
341.533
341.455
341.345
341.211
341.062
340.904
340.745
340.595
340.478
333.149
333.243
333.365
333.495
333.625
333.747
333.856
333.946
334.01
334.043
334.043
334.01
333.946
333.856
333.747
333.625
333.495
333.365
333.243
333.149
325.805
325.877
325.972
326.073
326.174
326.269
326.354
326.424
326.473
326.499
326.499
326.473
326.424
326.354
326.269
326.174
326.073
325.972
325.877
325.805
318.449
318.5
318.568
318.64
318.712
318.78
318.841
318.891
318.926
318.944
318.944
318.926
318.891
318.841
318.78
318.712
318.64
318.568
318.5
318.449
311.085
311.116
311.156
311.2
311.243
311.284
311.32
311.35
311.371
311.382
311.382
311.371
311.35
311.32
311.284
311.243
311.2
311.156
311.116
311.085
303.716
303.727
303.74
303.755
303.769
303.783
303.795
303.805
303.812
303.816
303.816
303.812
303.805
303.795
303.783
303.769
303.755
303.74
303.727
303.716
357.175
357.329
357.52
357.72
357.918
358.105
358.27
358.405
358.501
358.551
358.551
358.501
358.405
358.27
358.105
357.918
357.72
357.52
357.329
357.175
349.61
349.741
349.905
350.079
350.25
350.411
350.555
350.672
350.755
350.798
350.798
350.755
350.672
350.555
350.411
350.25
350.079
349.905
349.741
349.61
342.021
342.129
342.268
342.414
342.56
342.696
342.818
342.917
342.987
343.024
343.024
342.987
342.917
342.818
342.696
342.56
342.414
342.268
342.129
342.021
334.412
334.499
334.612
334.732
334.851
334.963
335.062
335.143
335.201
335.23
335.23
335.201
335.143
335.062
334.963
334.851
334.732
334.612
334.499
334.412
326.787
326.855
326.942
327.036
327.128
327.215
327.292
327.355
327.4
327.423
327.423
327.4
327.355
327.292
327.215
327.128
327.036
326.942
326.855
326.787
319.151
319.199
319.261
319.328
319.394
319.456
319.511
319.556
319.588
319.605
319.605
319.588
319.556
319.511
319.456
319.394
319.328
319.261
319.199
319.151
311.507
311.535
311.573
311.613
311.653
311.69
311.723
311.75
311.769
311.779
311.779
311.769
311.75
311.723
311.69
311.653
311.613
311.573
311.535
311.507
303.858
303.867
303.88
303.893
303.907
303.919
303.93
303.939
303.946
303.949
303.949
303.946
303.939
303.93
303.919
303.907
303.893
303.88
303.867
303.858
359.472
359.615
359.792
359.975
360.156
360.325
360.475
360.597
360.683
360.728
360.728
360.683
360.597
360.475
360.325
360.156
359.975
359.792
359.615
359.472
351.601
351.723
351.875
352.034
352.191
352.337
352.467
352.573
352.647
352.686
352.686
352.647
352.573
352.467
352.337
352.191
352.034
351.875
351.723
351.601
343.707
343.807
343.935
344.07
344.203
344.327
344.437
344.526
344.589
344.622
344.622
344.589
344.526
344.437
344.327
344.203
344.07
343.935
343.807
343.707
335.792
335.873
335.977
336.087
336.196
336.298
336.387
336.46
336.512
336.539
336.539
336.512
336.46
336.387
336.298
336.196
336.087
335.977
335.873
335.792
327.861
327.923
328.005
328.09
328.175
328.254
328.324
328.38
328.421
328.441
328.441
328.421
328.38
328.324
328.254
328.175
328.09
328.005
327.923
327.861
319.919
319.963
320.021
320.082
320.142
320.199
320.249
320.289
320.318
320.333
320.333
320.318
320.289
320.249
320.199
320.142
320.082
320.021
319.963
319.919
311.968
311.994
312.029
312.066
312.102
312.136
312.166
312.19
312.208
312.217
312.217
312.208
312.19
312.166
312.136
312.102
312.066
312.029
311.994
311.968
304.012
304.021
304.033
304.045
304.057
304.069
304.079
304.087
304.093
304.096
304.096
304.093
304.087
304.079
304.069
304.057
304.045
304.033
304.021
304.012
361.964
362.096
362.259
362.427
362.591
362.745
362.88
362.989
363.066
363.106
363.106
363.066
362.989
362.88
362.745
362.591
362.427
362.259
362.096
361.964
353.762
353.874
354.014
354.16
354.302
354.435
354.552
354.647
354.714
354.749
354.749
354.714
354.647
354.552
354.435
354.302
354.16
354.014
353.874
353.762
345.535
345.628
345.746
345.869
345.99
346.103
346.202
346.282
346.338
346.368
346.368
346.338
346.282
346.202
346.103
345.99
345.869
345.746
345.628
345.535
337.288
337.363
337.459
337.56
337.659
337.751
337.832
337.898
337.944
337.968
337.968
337.944
337.898
337.832
337.751
337.659
337.56
337.459
337.363
337.288
329.026
329.083
329.158
329.236
329.313
329.385
329.448
329.499
329.535
329.553
329.553
329.535
329.499
329.448
329.385
329.313
329.236
329.158
329.083
329.026
320.751
320.792
320.845
320.901
320.956
321.007
321.052
321.089
321.114
321.128
321.128
321.114
321.089
321.052
321.007
320.956
320.901
320.845
320.792
320.751
312.468
312.492
312.524
312.558
312.591
312.622
312.649
312.671
312.686
312.694
312.694
312.686
312.671
312.649
312.622
312.591
312.558
312.524
312.492
312.468
304.18
304.188
304.199
304.21
304.221
304.231
304.24
304.248
304.253
304.256
304.256
304.253
304.248
304.24
304.231
304.221
304.21
304.199
304.188
304.18
364.646
364.768
364.917
365.071
365.22
365.359
365.48
365.578
365.647
365.683
365.683
365.647
365.578
365.48
365.359
365.22
365.071
364.917
364.768
364.646
356.086
356.19
356.318
356.452
356.581
356.701
356.807
356.892
356.951
356.982
356.982
356.951
356.892
356.807
356.701
356.581
356.452
356.318
356.19
356.086
347.502
347.588
347.696
347.809
347.918
348.02
348.109
348.181
348.232
348.258
348.258
348.232
348.181
348.109
348.02
347.918
347.809
347.696
347.588
347.502
338.898
338.967
339.055
339.147
339.237
339.32
339.393
339.452
339.493
339.515
339.515
339.493
339.452
339.393
339.32
339.237
339.147
339.055
338.967
338.898
330.277
330.33
330.399
330.471
330.541
330.605
330.662
330.708
330.74
330.757
330.757
330.74
330.708
330.662
330.605
330.541
330.471
330.399
330.33
330.277
321.645
321.683
321.732
321.783
321.833
321.879
321.92
321.953
321.976
321.987
321.987
321.976
321.953
321.92
321.879
321.833
321.783
321.732
321.683
321.645
313.005
313.028
313.057
313.088
313.118
313.145
313.17
313.19
313.203
313.21
313.21
313.203
313.19
313.17
313.145
313.118
313.088
313.057
313.028
313.005
304.36
304.368
304.377
304.388
304.398
304.407
304.415
304.422
304.426
304.429
304.429
304.426
304.422
304.415
304.407
304.398
304.388
304.377
304.368
304.36
367.507
367.619
367.756
367.896
368.031
368.156
368.266
368.353
368.415
368.446
368.446
368.415
368.353
368.266
368.156
368.031
367.896
367.756
367.619
367.507
358.564
358.659
358.777
358.898
359.016
359.124
359.219
359.295
359.348
359.376
359.376
359.348
359.295
359.219
359.124
359.016
358.898
358.777
358.659
358.564
349.597
349.676
349.775
349.878
349.977
350.069
350.149
350.214
350.259
350.282
350.282
350.259
350.214
350.149
350.069
349.977
349.878
349.775
349.676
349.597
340.611
340.674
340.755
340.839
340.921
340.996
341.061
341.114
341.151
341.17
341.17
341.151
341.114
341.061
340.996
340.921
340.839
340.755
340.674
340.611
331.609
331.658
331.721
331.786
331.85
331.908
331.959
332
332.029
332.044
332.044
332.029
332
331.959
331.908
331.85
331.786
331.721
331.658
331.609
322.597
322.631
322.676
322.723
322.768
322.81
322.846
322.876
322.896
322.907
322.907
322.896
322.876
322.846
322.81
322.768
322.723
322.676
322.631
322.597
313.576
313.597
313.624
313.652
313.679
313.704
313.726
313.744
313.756
313.763
313.763
313.756
313.744
313.726
313.704
313.679
313.652
313.624
313.597
313.576
304.551
304.558
304.567
304.577
304.586
304.594
304.602
304.608
304.612
304.614
304.614
304.612
304.608
304.602
304.594
304.586
304.577
304.567
304.558
304.551
370.515
370.618
370.743
370.871
370.994
371.106
371.204
371.283
371.338
371.366
371.366
371.338
371.283
371.204
371.106
370.994
370.871
370.743
370.618
370.515
361.164
361.251
361.359
361.47
361.576
361.674
361.759
361.827
361.875
361.899
361.899
361.875
361.827
361.759
361.674
361.576
361.47
361.359
361.251
361.164
351.792
351.864
351.955
352.049
352.139
352.222
352.294
352.352
352.392
352.413
352.413
352.392
352.352
352.294
352.222
352.139
352.049
351.955
351.864
351.792
342.403
342.461
342.535
342.612
342.686
342.754
342.813
342.86
342.893
342.91
342.91
342.893
342.86
342.813
342.754
342.686
342.612
342.535
342.461
342.403
333.001
333.046
333.103
333.163
333.221
333.273
333.319
333.356
333.382
333.395
333.395
333.382
333.356
333.319
333.273
333.221
333.163
333.103
333.046
333.001
323.59
323.622
323.663
323.705
323.746
323.784
323.817
323.843
323.862
323.871
323.871
323.862
323.843
323.817
323.784
323.746
323.705
323.663
323.622
323.59
314.172
314.191
314.216
314.242
314.266
314.289
314.309
314.324
314.335
314.341
314.341
314.335
314.324
314.309
314.289
314.266
314.242
314.216
314.191
314.172
304.751
304.758
304.766
304.774
304.783
304.79
304.797
304.802
304.806
304.808
304.808
304.806
304.802
304.797
304.79
304.783
304.774
304.766
304.758
304.751
373.592
373.687
373.801
373.918
374.029
374.131
374.219
374.29
374.339
374.364
374.364
374.339
374.29
374.219
374.131
374.029
373.918
373.801
373.687
373.592
363.811
363.892
363.991
364.092
364.189
364.277
364.354
364.415
364.458
364.48
364.48
364.458
364.415
364.354
364.277
364.189
364.092
363.991
363.892
363.811
354.018
354.084
354.168
354.253
354.335
354.41
354.475
354.527
354.563
354.582
354.582
354.563
354.527
354.475
354.41
354.335
354.253
354.168
354.084
354.018
344.214
344.268
344.336
344.406
344.473
344.534
344.587
344.63
344.659
344.675
344.675
344.659
344.63
344.587
344.534
344.473
344.406
344.336
344.268
344.214
334.403
334.445
334.497
334.552
334.604
334.652
334.693
334.726
334.75
334.761
334.761
334.75
334.726
334.693
334.652
334.604
334.552
334.497
334.445
334.403
324.588
324.618
324.655
324.694
324.732
324.766
324.795
324.819
324.836
324.844
324.844
324.836
324.819
324.795
324.766
324.732
324.694
324.655
324.618
324.588
314.771
314.788
314.811
314.834
314.857
314.877
314.895
314.909
314.919
314.924
314.924
314.919
314.909
314.895
314.877
314.857
314.834
314.811
314.788
314.771
304.951
304.957
304.965
304.973
304.98
304.987
304.993
304.998
305.001
305.003
305.003
305.001
304.998
304.993
304.987
304.98
304.973
304.965
304.957
304.951
376.54
376.628
376.734
376.841
376.943
377.036
377.116
377.179
377.224
377.247
377.247
377.224
377.179
377.116
377.036
376.943
376.841
376.734
376.628
376.54
366.318
366.392
366.484
366.577
366.665
366.746
366.816
366.871
366.91
366.93
366.93
366.91
366.871
366.816
366.746
366.665
366.577
366.484
366.392
366.318
356.102
356.164
356.241
356.32
356.395
356.464
356.523
356.57
356.602
356.619
356.619
356.602
356.57
356.523
356.464
356.395
356.32
356.241
356.164
356.102
345.894
345.944
346.007
346.072
346.133
346.19
346.238
346.277
346.304
346.317
346.317
346.304
346.277
346.238
346.19
346.133
346.072
346.007
345.944
345.894
335.695
335.733
335.782
335.832
335.88
335.924
335.962
335.992
336.013
336.024
336.024
336.013
335.992
335.962
335.924
335.88
335.832
335.782
335.733
335.695
325.503
325.53
325.565
325.601
325.635
325.667
325.694
325.715
325.73
325.738
325.738
325.73
325.715
325.694
325.667
325.635
325.601
325.565
325.53
325.503
315.317
315.333
315.354
315.375
315.396
315.415
315.431
315.444
315.453
315.458
315.458
315.453
315.444
315.431
315.415
315.396
315.375
315.354
315.333
315.317
305.134
305.139
305.146
305.154
305.16
305.167
305.172
305.177
305.18
305.181
305.181
305.18
305.177
305.172
305.167
305.16
305.154
305.146
305.139
305.134
378.843
378.925
379.025
379.125
379.221
379.307
379.382
379.441
379.482
379.503
379.503
379.482
379.441
379.382
379.307
379.221
379.125
379.025
378.925
378.843
368.201
368.272
368.358
368.445
368.529
368.604
368.669
368.721
368.757
368.775
368.775
368.757
368.721
368.669
368.604
368.529
368.445
368.358
368.272
368.201
357.621
357.679
357.752
357.826
357.897
357.962
358.017
358.061
358.091
358.107
358.107
358.091
358.061
358.017
357.962
357.897
357.826
357.752
357.679
357.621
347.089
347.136
347.196
347.257
347.315
347.368
347.413
347.449
347.475
347.487
347.487
347.475
347.449
347.413
347.368
347.315
347.257
347.196
347.136
347.089
336.596
336.632
336.679
336.726
336.772
336.813
336.848
336.877
336.896
336.906
336.906
336.896
336.877
336.848
336.813
336.772
336.726
336.679
336.632
336.596
326.132
326.158
326.191
326.225
326.258
326.287
326.313
326.333
326.347
326.354
326.354
326.347
326.333
326.313
326.287
326.258
326.225
326.191
326.158
326.132
315.689
315.704
315.724
315.745
315.764
315.782
315.797
315.809
315.818
315.822
315.822
315.818
315.809
315.797
315.782
315.764
315.745
315.724
315.704
315.689
305.258
305.263
305.27
305.276
305.283
305.289
305.294
305.298
305.301
305.302
305.302
305.301
305.298
305.294
305.289
305.283
305.276
305.27
305.263
305.258
)
;

boundaryField
{
    hotSide
    {
        type            fixedGradient;
        gradient        nonuniform List<scalar> 
400
(
470.144
472.133
476.112
482.086
490.065
500.055
512.069
526.117
542.212
560.364
580.587
602.89
627.284
653.777
682.377
713.092
745.926
780.884
817.97
857.186
473.402
475.365
479.293
485.194
493.078
502.956
514.844
528.754
544.704
562.708
582.78
604.933
629.181
655.533
683.998
714.584
747.297
782.143
819.124
858.243
476.928
478.859
482.727
488.541
496.313
506.06
517.799
531.55
547.333
565.166
585.067
607.053
631.137
657.333
685.65
716.097
748.68
783.404
820.274
859.291
480.663
482.559
486.356
492.068
499.712
509.307
520.878
534.448
550.043
567.686
587.399
609.2
633.108
659.135
687.294
717.594
750.04
784.64
821.395
860.307
484.503
486.358
490.077
495.676
503.176
512.603
523.988
537.361
552.753
570.191
589.703
611.31
635.032
660.885
688.881
719.031
751.339
785.813
822.453
861.262
488.288
490.1
493.735
499.213
506.56
515.811
527.001
540.169
555.351
572.58
591.887
613.299
636.836
662.516
690.353
720.356
752.531
786.884
823.416
862.127
491.801
493.57
497.121
502.479
509.675
518.752
529.752
542.72
557.699
574.728
593.842
615.069
638.433
663.953
691.642
721.511
753.566
787.81
824.244
862.868
494.783
496.513
499.989
505.238
512.3
521.221
532.053
544.846
559.647
576.502
595.448
616.517
639.734
665.118
692.684
722.441
754.396
788.549
824.903
863.456
496.965
498.666
502.083
507.25
514.209
523.013
533.718
546.378
561.047
577.772
596.594
617.547
640.656
665.941
693.418
723.094
754.976
789.066
825.362
863.865
498.122
499.806
503.192
508.314
515.217
523.958
534.593
547.182
561.78
578.436
597.192
618.083
641.134
666.368
693.797
723.431
755.275
789.331
825.598
864.074
498.122
499.806
503.192
508.314
515.217
523.958
534.593
547.182
561.78
578.436
597.192
618.083
641.134
666.368
693.797
723.431
755.275
789.331
825.598
864.074
496.965
498.666
502.083
507.25
514.209
523.013
533.718
546.378
561.047
577.772
596.594
617.547
640.656
665.941
693.418
723.094
754.976
789.066
825.362
863.865
494.783
496.513
499.989
505.238
512.3
521.221
532.053
544.846
559.647
576.502
595.448
616.517
639.734
665.118
692.684
722.441
754.396
788.549
824.903
863.456
491.801
493.57
497.121
502.479
509.675
518.752
529.752
542.72
557.699
574.728
593.842
615.069
638.433
663.953
691.642
721.511
753.566
787.81
824.244
862.868
488.288
490.1
493.735
499.213
506.56
515.811
527.001
540.169
555.351
572.58
591.887
613.299
636.836
662.516
690.353
720.356
752.531
786.884
823.416
862.127
484.503
486.358
490.077
495.676
503.176
512.603
523.988
537.361
552.753
570.191
589.703
611.31
635.032
660.885
688.881
719.031
751.339
785.813
822.453
861.262
480.663
482.559
486.356
492.068
499.712
509.307
520.878
534.448
550.043
567.686
587.399
609.2
633.108
659.135
687.294
717.594
750.04
784.64
821.395
860.307
476.928
478.859
482.727
488.541
496.313
506.06
517.799
531.55
547.333
565.166
585.067
607.053
631.137
657.333
685.65
716.097
748.68
783.404
820.274
859.291
473.402
475.365
479.293
485.194
493.078
502.956
514.844
528.754
544.704
562.708
582.78
604.933
629.181
655.533
683.998
714.584
747.297
782.143
819.124
858.243
470.144
472.133
476.112
482.086
490.065
500.055
512.069
526.117
542.212
560.364
580.587
602.89
627.284
653.777
682.377
713.092
745.926
780.884
817.97
857.186
)
;
    }
    coldSide
    {
        type            mixed;
        refValue        uniform 300;
        refGradient     uniform 0;
        valueFraction   uniform 0.991591;
        source          uniform 0;
        value           nonuniform List<scalar> 
400
(
300.025
300.025
300.026
300.026
300.026
300.027
300.028
300.028
300.029
300.03
300.031
300.032
300.034
300.035
300.037
300.038
300.04
300.042
300.043
300.044
300.025
300.026
300.026
300.026
300.027
300.027
300.028
300.028
300.029
300.03
300.031
300.033
300.034
300.035
300.037
300.038