/*--------------------------------*- C++ -*----------------------------------*\
| =========                 |                                                 |
| \\      /  F ield         | OpenFOAM: The Open Source CFD Toolbox           |
|  \\    /   O peration     | Version:  2212                                  |
|   \\  /    A nd           | Website:  www.openfoam.com                      |
|    \\/     M anipulation  |                                                 |
\*---------------------------------------------------------------------------*/
FoamFile
{
    version     2.0;
    format      ascii;
    arch        "LSB;label=32;scalar=64";
    class       volScalarField;
    location    "0";
    object      relativeErrorField;
}
// * * * * * * * * * * * * * * * * * * * * * * * * * * * * * * * * * * * * * //

dimensions      [0 0 0 1 0 0 0];

internalField   nonuniform List<scalar> 
3200
(
0.0195955
0.0195252
0.0200766
0.0207211
0.0214044
0.0220089
0.022573
0.023208
0.0236528
0.0236645
0.0234633
0.0231685
0.0222711
0.021222
0.0203383
0.0193217
0.0183391
0.017559
0.0170521
0.0166457
0.0168637
0.0169458
0.0173366
0.0178074
0.0184331
0.0189209
0.0196142
0.0198904
0.0205327
0.0207563
0.0202299
0.0199881
0.0191276
0.0183972
0.0175032
0.0166269
0.0158772
0.0148273
0.0145739
0.0142154
0.0140186
0.0142762
0.0146789
0.0148931
0.0154764
0.0159043
0.0164085
0.0169723
0.0171445
0.017482
0.0172049
0.0167869
0.0163474
0.0151702
0.0147886
0.0138254
0.0131989
0.0125855
0.0122036
0.0120553
0.0117841
0.0115504
0.0116271
0.0120668
0.0125044
0.0132061
0.013568
0.0137152
0.0137966
0.0141217
0.0140219
0.0137087
0.0132003
0.0126344
0.0120984
0.011395
0.0107765
0.0103517
0.010043
0.00977365
0.00921335
0.00906229
0.00938235
0.00952935
0.0100455
0.0100506
0.0104649
0.0107717
0.0111905
0.0110326
0.0108674
0.0106423
0.0103904
0.00990699
0.00941799
0.00882634
0.00831955
0.0080322
0.00750126
0.0076254
0.00667949
0.00643242
0.00678596
0.00695881
0.00710457
0.00712521
0.007419
0.00783202
0.0076995
0.00799995
0.00783046
0.00767471
0.00755575
0.00706025
0.00689337
0.00633717
0.00593677
0.00568566
0.00564568
0.00544931
0.00393616
0.00397636
0.00401163
0.00415818
0.00393999
0.00447207
0.00462362
0.00474229
0.0046473
0.00473086
0.00478964
0.00450327
0.00441917
0.00416482
0.0039697
0.00373438
0.00347827
0.00337465
0.00331423
0.00328523
0.00151566
0.00134029
0.00136852
0.00122524
0.00122999
0.00150696
0.00170077
0.00168171
0.00149261
0.00155992
0.00171909
0.00157083
0.00144987
0.00147704
0.00158124
0.00137094
0.00107762
0.0011629
0.00124572
0.00102389
0.0179647
0.0181862
0.0184345
0.0187342
0.0195724
0.0199081
0.0206206
0.0210675
0.0219115
0.0217491
0.0216766
0.0210892
0.0204344
0.0195913
0.0183188
0.0175252
0.0166447
0.0160191
0.0153759
0.0149839
0.0155033
0.015468
0.0159888
0.0161872
0.0167439
0.0174621
0.0179916
0.018489
0.018791
0.0186054
0.0186285
0.0183419
0.0175487
0.0167786
0.0158781
0.0151126
0.0140964
0.0135666
0.0132182
0.0128618
0.0131697
0.0132191
0.013538
0.0139021
0.014234
0.0144643
0.0151611
0.0155023
0.0159609
0.0157611
0.0159354
0.0155073
0.0150203
0.0143063
0.0133645
0.0127694
0.0118191
0.0115879
0.0108721
0.0108571
0.0107742
0.0108539
0.0111572
0.0115306
0.0115747
0.0119027
0.0122514
0.0128501
0.013218
0.0132624
0.0126925
0.0127062
0.012348
0.011493
0.0110137
0.0104424
0.00999258
0.00931231
0.00876721
0.00873923
0.00854797
0.0087399
0.00863661
0.00886092
0.00891768
0.00965917
0.00980596
0.00997867
0.0101878
0.010289
0.0102172
0.00981962
0.00939635
0.00921736
0.00855702
0.00811715
0.00760336
0.00709337
0.00696217
0.00681444
0.00620382
0.00581017
0.00623937
0.00628727
0.00633493
0.0067873
0.00709803
0.00695768
0.00733279
0.00729558
0.00732437
0.00688711
0.00692299
0.00642782
0.00623299
0.00572739
0.00541242
0.00508916
0.00520181
0.00488605
0.00332726
0.00381417
0.00377146
0.00400897
0.00398855
0.00424984
0.00423677
0.00421496
0.00461045
0.00454452
0.00447508
0.0043545
0.00418311
0.00380525
0.00386024
0.00352932
0.00321068
0.00322683
0.00315688
0.00295456
0.00110828
0.00124206
0.00134848
0.00134756
0.00119364
0.00141037
0.00138162
0.00158133
0.00150437
0.00148896
0.00131465
0.00128394
0.00138554
0.00134944
0.00100494
0.00113967
0.00104414
0.000925478
0.00101315
0.000979843
0.0161053
0.0160872
0.0161368
0.0165412
0.0170042
0.0175806
0.0181235
0.0188501
0.019023
0.0191221
0.0190286
0.0184276
0.0177611
0.0169711
0.0160619
0.0149131
0.0143411
0.0135215
0.0132181
0.0128041
0.0140125
0.0139541
0.0140821
0.0143314
0.0147982
0.0152394
0.0158517
0.015987
0.0165652
0.0164973
0.016611
0.0160088
0.0153971
0.014601
0.0136964
0.0127671
0.0121862
0.0116134
0.0114015
0.0112261
0.0118705
0.0117466
0.0118334
0.0122289
0.0125688
0.0130749
0.0134186
0.0138965
0.014088
0.0142227
0.0139813
0.0135975
0.0130121
0.0120595
0.0116567
0.0106283
0.0102245
0.00983093
0.00965158
0.00943466
0.00953782
0.00951486
0.00976816
0.00997366
0.0103373
0.0106105
0.0110698
0.0111796
0.0117167
0.011599
0.011428
0.0111799
0.0106088
0.0102149
0.0094064
0.00918406
0.00833553
0.00785539
0.00787635
0.00745597
0.00759774
0.00768962
0.00771664
0.00797406
0.00820078
0.00841137
0.0086118
0.00887898
0.00902379
0.00915837
0.00890202
0.0085508
0.00841526
0.00769332
0.00736302
0.00713516
0.00653373
0.00616579
0.00590075
0.00582549
0.00527962
0.00543202
0.00572518
0.00535216
0.00567896
0.00586942
0.00643434
0.00622153
0.00633613
0.0064737
0.00642836
0.00638685
0.00614474
0.00575995
0.00526746
0.00508999
0.00438099
0.00424377
0.00433267
0.00410029
0.00343402
0.00295687
0.00314942
0.00330818
0.00344021
0.00374411
0.00400567
0.0039063
0.00404513
0.00395199
0.00383242
0.00365501
0.00356367
0.00334338
0.00330103
0.00305888
0.00296374
0.00271679
0.00270345
0.00246825
0.00110433
0.00104614
0.00103714
0.00102298
0.00125892
0.000964086
0.00112673
0.00130399
0.00113108
0.00130137
0.00129036
0.00124819
0.00129441
0.00112758
0.00102398
0.00105607
0.000829826
0.00109912
0.000904608
0.000695785
0.0144762
0.0141277
0.0142427
0.0146529
0.0149042
0.0155892
0.0156255
0.0164604
0.0164605
0.0164585
0.0162803
0.0160421
0.0153243
0.0143381
0.0132795
0.0128161
0.0117623
0.0112986
0.0109842
0.0106965
0.012195
0.0121927
0.0122866
0.012519
0.0128244
0.0132204
0.0136652
0.0139371
0.0142145
0.0141836
0.014277
0.0135966
0.0130069
0.0123354
0.0117251
0.0109593
0.0099429
0.00962951
0.00935791
0.00894308
0.0103417
0.0104114
0.010276
0.0105299
0.0106565
0.0113072
0.0116672
0.0118162
0.0122209
0.0123717
0.0118578
0.0116506
0.0111579
0.0104027
0.00987213
0.00882801
0.00854524
0.00805398
0.00786533
0.00782053
0.00859038
0.00831306
0.00851521
0.00864235
0.00910942
0.00925446
0.00950741
0.00993033
0.010183
0.00994121
0.00985425
0.00943289
0.00891923
0.00849604
0.00790871
0.00736055
0.00699896
0.0066171
0.00637504
0.00634401
0.006627
0.00686228
0.00669668
0.00667561
0.00690133
0.00722777
0.00749533
0.00741949
0.00791129
0.00784634
0.00819598
0.00706292
0.00698735
0.00681345
0.0062474
0.00564633
0.00546576
0.00513929
0.0050344
0.00477501
0.00476994
0.00468698
0.00492921
0.0046883
0.0049528
0.005163
0.00534168
0.00552468
0.00564456
0.00556945
0.00551174
0.00552124
0.00495552
0.00483432
0.00447561
0.00402298
0.00375098
0.00374282
0.00370804
0.00371505
0.00284002
0.00265235
0.00292703
0.00304347
0.0028007
0.00340814
0.00310994
0.00346275
0.00350487
0.00336306
0.00336975
0.00311332
0.00300826
0.00274432
0.0026323
0.00248834
0.00246399
0.00230146
0.00216395
0.00210546
0.0011087
0.0008632
0.000917955
0.00108932
0.00106255
0.0011398
0.00103392
0.00116058
0.00113719
0.00115169
0.000842324
0.00116738
0.000969821
0.000989826
0.000944133
0.000906676
0.000927372
0.000777208
0.000669536
0.000670545
0.0126019
0.0124578
0.0122041
0.0123691
0.0125867
0.0132282
0.0134232
0.0137528
0.0140283
0.0141791
0.0137859
0.0131772
0.0126995
0.011846
0.0110147
0.0104218
0.00965348
0.00915968
0.00878277
0.0085507
0.0110436
0.0106404
0.0106138
0.0109256
0.0108329
0.0113067
0.0117891
0.012002
0.0121701
0.0121149
0.0118829
0.0114475
0.0108579
0.0102788
0.00963598
0.00900168
0.00853231
0.00776126
0.00768311
0.00755432
0.00914101
0.00897968
0.00913583
0.00895022
0.00901967
0.0097573
0.00979424
0.0100374
0.0102532
0.0104183
0.0101906
0.00984116
0.00911374
0.00852797
0.00803853
0.00746175
0.00687236
0.00655777
0.00631908
0.00625296
0.00747391
0.00737682
0.00743101
0.00731874
0.00781935
0.0077223
0.00803372
0.00849345
0.00845632
0.00849289
0.00815525
0.00786498
0.00767798
0.00713686
0.00656615
0.00610341
0.00591704
0.00495578
0.00498348
0.00519492
0.00586813
0.00579352
0.00580553
0.00606222
0.00608807
0.00601671
0.0063614
0.00649478
0.00655177
0.00651343
0.00650235
0.00631191
0.00589194
0.0057049
0.00516855
0.00468222
0.00442101
0.00417326
0.00387016
0.00381557
0.00414435
0.00432817
0.00412729
0.00417036
0.00426642
0.00470796
0.00435641
0.00457795
0.00480884
0.00462974
0.00458279
0.00450284
0.00439674
0.00417995
0.00374914
0.00354149
0.00312895
0.00317988
0.00274413
0.00304627
0.00263327
0.00247317
0.00262238
0.00256997
0.00233254
0.00278701
0.00266904
0.00276686
0.00290477
0.0029777
0.00267406
0.00260238
0.00266782
0.00234002
0.00229104
0.00196493
0.00189278
0.00161364
0.00171352
0.00158671
0.000944543
0.000731967
0.000811816
0.000832046
0.000995528
0.000996004
0.000991821
0.000998529
0.000998787
0.00108164
0.00099528
0.00101343
0.00108513
0.000988841
0.000828648
0.000657141
0.000718126
0.000424546
0.000489003
0.000529475
0.0107547
0.0108611
0.0107831
0.0106749
0.0109804
0.011224
0.0114473
0.0113241
0.0117736
0.0117393
0.0116432
0.0111468
0.0103018
0.00975998
0.00893522
0.00832211
0.00776148
0.00739704
0.00707754
0.00716586
0.00951965
0.00931913
0.00917068
0.0092993
0.00922615
0.00972406
0.00993369
0.00993269
0.0100555
0.0101881
0.0097607
0.00944445
0.00891699
0.0085188
0.00786576
0.00713534
0.00656644
0.00613746
0.00619799
0.00595088
0.00793306
0.00794167
0.00769597
0.00791106
0.0078816
0.0081303
0.00828575
0.00845359
0.00858938
0.00853829
0.00823417
0.00792364
0.00769745
0.00694126
0.00657263
0.00592315
0.00539407
0.00506799
0.00520625
0.00515866
0.00640322
0.00642571
0.00620057
0.00636325
0.00643287
0.00644396
0.00670855
0.00697251
0.00696509
0.00715256
0.00699949
0.00668525
0.00627483
0.0056901
0.00527223
0.00468167
0.00453985
0.00406619
0.00421406
0.00423278
0.00508518
0.00496918
0.00491179
0.00499054
0.00504877
0.00494901
0.00529774
0.00542299
0.00537542
0.00527237
0.00525449
0.00532974
0.00483937
0.00443849
0.00391829
0.00391841
0.00349189
0.00319221
0.00295296
0.0031105
0.00361896
0.00375046
0.00373764
0.003607
0.00362551
0.00376877
0.00387075
0.0039519
0.00376449
0.00391062
0.00372596
0.00376947
0.0036548
0.00342665
0.0028927
0.00256098
0.00257837
0.00232854
0.0023778
0.00230099
0.00216765
0.00233585
0.00224956
0.00233884
0.00219629
0.00221287
0.0023348
0.00248888
0.00218332
0.00225457
0.00239394
0.0021332
0.0017488
0.00204286
0.00174385
0.00156595
0.00151004
0.00151088
0.00134152
0.00154541
0.000869932
0.000537092
0.000687951
0.00047552
0.000780365
0.00063056
0.000751037
0.000665537
0.000633539
0.000914916
0.000774756
0.000945539
0.000617012
0.000557621
0.000635775
0.000405141
0.00039659
0.000399989
0.000468722
0.000488116
0.010121
0.00961573
0.00941247
0.00940531
0.00932204
0.00930279
0.00935699
0.00984827
0.00972012
0.00972213
0.00922973
0.0090157
0.00859096
0.00778833
0.00726259
0.00644652
0.00607587
0.00578018
0.00563188
0.00592311
0.00856215
0.00822134
0.00823854
0.00790874
0.0079115
0.00791448
0.00814852
0.00823015
0.00839211
0.00814924
0.00812469
0.00758654
0.0071678
0.00672319
0.00605046
0.00555244
0.00522809
0.0048271
0.00469053
0.00495967
0.00710806
0.00678019
0.00662297
0.00647763
0.00666718
0.0067983
0.0068971
0.0068557
0.00698544
0.00703567
0.00699252
0.00630293
0.00608298
0.00559819
0.00512853
0.00451858
0.00425422
0.00407051
0.00406501
0.00413603
0.00584201
0.005587
0.00564555
0.0053459
0.00555287
0.00543975
0.00582618
0.0056973
0.00563076
0.00582653
0.00535985
0.00555072
0.00496512
0.00468559
0.00389353
0.00381014
0.0032187
0.00339238
0.00304685
0.00329431
0.00476252
0.00438501
0.00438931
0.00400855
0.00411814
0.00425464
0.00431731
0.00435739
0.00449379
0.00469201
0.00432098
0.00387614
0.0035507
0.00362717
0.00323299
0.00298235
0.00262027
0.00234891
0.00242794
0.00241928
0.00340863
0.00303306
0.00308758
0.00308069
0.00313939
0.00292918
0.0031893
0.00319009
0.00335338
0.00333272
0.00311539
0.00288487
0.00285483
0.00237275
0.00251977
0.00214224
0.00212949
0.00168652
0.00173762
0.00180147
0.00189309
0.00202544
0.00175695
0.00161773
0.00162
0.00196618
0.00181545
0.00201284
0.00196261
0.00190118
0.00174513
0.00177307
0.0016901
0.00142484
0.00136482
0.00119644
0.000971883
0.00121308
0.000937445
0.00130832
0.000662003
0.000901921
0.00076314
0.000764862
0.000541414
0.000760611
0.000650822
0.000403494
0.000479637
0.000682647
0.000738559
0.000689607
0.000572672
0.00047266
0.000463571
0.000507845
0.000514335
8.61702e-05
0.000239243
0.000234936
0.0091282
0.00885386
0.00828068
0.00803958
0.00807587
0.00780511
0.00802169
0.00829957
0.00802706
0.00798218
0.00757019
0.0071694
0.00664002
0.00628197
0.00554816
0.00507368
0.00479389
0.00474137
0.00476558
0.0049302
0.00785645
0.00759959
0.00743363
0.00687108
0.00685818
0.00658782
0.00689184
0.00698462
0.00676795
0.00673108
0.00647564
0.00611859
0.00585407
0.00522569
0.00492103
0.0043952
0.00410582
0.00372068
0.00385058
0.00400102
0.00653198
0.00598209
0.00584714
0.00575763
0.00581268
0.00576665
0.00559329
0.00570218
0.00588546
0.00579791
0.00538544
0.00507329
0.00490661
0.00430962
0.0039504
0.00362699
0.00302218
0.00305995
0.00337597
0.00351322
0.00540581
0.00518677
0.00483622
0.00499652
0.00453395
0.0045655
0.00467212
0.00478394
0.00456593
0.00458141
0.00428359
0.00416207
0.00384206
0.00342566
0.00295132
0.00295678
0.00267828
0.00251669
0.00257227
0.0026703
0.00427019
0.00393124
0.00374883
0.00355163
0.00363955
0.00343441
0.00361139
0.00365218
0.00363219
0.00341652
0.00329735
0.00320548
0.00285578
0.00274629
0.00225215
0.00221992
0.00201197
0.00189754
0.00196385
0.00205001
0.0030324
0.00299699
0.00281899
0.00273385
0.00252264
0.00253818
0.00244994
0.00244309
0.00257503
0.00281167
0.00231995
0.00238138
0.00193435
0.00191978
0.00179074
0.00148512
0.00151001
0.00137707
0.001437
0.00135048
0.00187197
0.00201595
0.00167267
0.00136327
0.00145017
0.00164599
0.00169839
0.00172087
0.00154532
0.00130466
0.00162146
0.00137708
0.00116683
0.00111079
0.000822881
0.000884524
0.000724501
0.00107472
0.000923258
0.000700773
0.000708545
0.000417179
0.000792191
0.00056961
0.000494818
0.000520953
0.000483189
0.000585385
0.000548666
0.000417035
0.000405012
0.000369314
0.00036589
0.000186938
0.000322446
4.24415e-05
0.000439545
0.000188016
0.000316101
0.000401741
0.00887734
0.00822813
0.00788469
0.00734585
0.00710414
0.00689052
0.00711594
0.00652634
0.00680407
0.0066094
0.00619644
0.00579989
0.00527268
0.00470356
0.00425742
0.00412957
0.00391514
0.00353784
0.00407874
0.00438063
0.00763649
0.00700644
0.00656923
0.00628248
0.00593638
0.00610051
0.00575461
0.0056647
0.0057355
0.00549895
0.00527731
0.00493394
0.00449604
0.00409535
0.00367574
0.00333459
0.0032226
0.00294507
0.00312689
0.00374664
0.00632027
0.00596467
0.0055491
0.00516322
0.00508036
0.00475468
0.00486204
0.00498265
0.00467611
0.00465378
0.00448284
0.00407133
0.00373726
0.00342345
0.00296007
0.00269437
0.00272462
0.0025697
0.00238397
0.00295425
0.00521223
0.00483031
0.00446276
0.00417209
0.00392369
0.00430533
0.00394795
0.00390707
0.00384742
0.00382469
0.0037361
0.00337724
0.00277624
0.00249046
0.00247647
0.00223956
0.00224809
0.00178185
0.00219794
0.00238544
0.00426388
0.00364465
0.0032589
0.00335597
0.00313999
0.00339597
0.00318128
0.00300136
0.00291401
0.00280236
0.00264287
0.00243669
0.00234153
0.0022115
0.00201385
0.0015376
0.00172211
0.00140063
0.00163376
0.00160212
0.00285493
0.00260838
0.00240593
0.00227356
0.00216492
0.00236458
0.00214512
0.00212621
0.00212261
0.00202374
0.00210888
0.00185176
0.00166396
0.00137066
0.00122262
0.00133106
0.000888557
0.000910054
0.00104503
0.00132506
0.00181094
0.00163227
0.00156649
0.0013055
0.00122283
0.00146693
0.00142575
0.00117851
0.00116553
0.00135318
0.00134514
0.00110505
0.000859459
0.000607213
0.000659912
0.000840498
0.0006881
0.000698511
0.000724168
0.000703572
0.000462431
0.000464102
0.000394109
0.000657176
7.5446e-05
0.000541316
0.000421803
0.000236381
0.00066808
0.000360894
0.000474592
0.000347998
0.000201384
0.000406174
0.000242073
0.000310239
0.000128126
0.000150296
0.000231473
0.000343804
0.00870306
0.00809384
0.00732275
0.00718758
0.00661505
0.00629687
0.00610032
0.00588494
0.00561183
0.0052961
0.00520664
0.00468436
0.00450101
0.00384743
0.0036025
0.00338884
0.00319406
0.00323625
0.00360792
0.00416335
0.00717879
0.00697821
0.00607539
0.00584276
0.00556725
0.00544929
0.00488035
0.00482088
0.00483342
0.00466681
0.00434446
0.00391038
0.00347079
0.00328429
0.00274153
0.00279805
0.00279766
0.00251661
0.002722
0.003199
0.00628905
0.00587769
0.00543136
0.00505453
0.00475366
0.00434017
0.00419273
0.00404928
0.00403853
0.00391746
0.00359138
0.00323899
0.00290572
0.00260533
0.0024978
0.00210946
0.00208553
0.0021648
0.0022975
0.00266633
0.00505712
0.00469764
0.00422229
0.00408395
0.00369726
0.00365095
0.00344818
0.00328302
0.00325946
0.0030924
0.00291686
0.00271502
0.00249276
0.00187531
0.00182112
0.00161841
0.00165741
0.00186017
0.0018901
0.00209333
0.00395946
0.00374194
0.00331753
0.00309968
0.00280184
0.00292266
0.00278704
0.00245
0.00246978
0.00242376
0.00213483
0.00196392
0.0018126
0.00155739
0.00147135
0.00143035
0.0012838
0.00128158
0.00131821
0.0017395
0.00288485
0.00248053
0.00246839
0.00234148
0.00205709
0.00196929
0.00179168
0.00166915
0.00221218
0.0017756
0.00160312
0.00141319
0.00112807
0.00112298
0.00104354
0.000692185
0.000808203
0.000976448
0.000986694
0.00104681
0.00169813
0.00165194
0.00147934
0.00143563
0.00128678
0.00138645
0.00120243
0.00114209
0.000925012
0.000989203
0.000812879
0.00106711
0.000573278
0.00070661
0.00059674
0.000397688
0.000424156
0.000552058
0.00080837
0.000869038
0.000462724
0.000662117
0.000350814
0.000509299
0.000306894
0.000347135
0.000185423
0.000331804
0.000222367
0.000341533
0.000229317
0.000130242
0.000245764
0.000331029
0.000289901
0.00029343
0.0002128
3.20662e-05
3.49122e-05
0.000274002
0.00911136
0.00836141
0.00779979
0.00690908
0.00628991
0.0058627
0.00571532
0.00534932
0.00514862
0.00472156
0.00446766
0.00407638
0.00391798
0.00354429
0.00322175
0.00288691
0.00319467
0.00320544
0.00383479
0.00433191
0.00785276
0.00714952
0.00637934
0.00590143
0.00540425
0.00497883
0.00487687
0.00443443
0.00435365
0.00427375
0.00391221
0.0036558
0.00318938
0.00288342
0.00272051
0.00230964
0.00259786
0.00254034
0.00284994
0.00330658
0.00666944
0.00603195
0.00547589
0.00492852
0.00438003
0.00411322
0.00401081
0.00361748
0.00331742
0.00350081
0.00325656
0.00294497
0.00282902
0.00213683
0.00205452
0.0019609
0.00194259
0.00214428
0.00230758
0.00276419
0.00517914
0.00481511
0.00438836
0.00401084
0.00369899
0.00334693
0.00309578
0.00302654
0.00288851
0.00264906
0.0024979
0.00221891
0.00205727
0.00172471
0.00165124
0.00139203
0.00162038
0.00178795
0.00180805
0.00222637
0.0041584
0.00388017
0.003339
0.00300088
0.00288999
0.00283674
0.00252837
0.00236669
0.00218066
0.00192006
0.00195835
0.00169476
0.00159951
0.00119819
0.00114723
0.00124252
0.00113158
0.00139768
0.00113265
0.00156899
0.00311889
0.00271485
0.00254512
0.002141
0.00193907
0.00185934
0.0019067
0.00143704
0.00155157
0.00140138
0.0011077
0.00117847
0.00103546
0.000969278
0.000741576
0.00086184
0.000839959
0.000696047
0.000944637
0.00126259
0.00180558
0.00151719
0.0013503
0.0013308
0.00110866
0.00115033
0.000990157
0.000813668
0.00106764
0.000598909
0.000672339
0.000834021
0.000535304
0.000614603
0.000658855
0.000529655
0.000435266
0.000684953
0.000450097
0.000550211
0.000557098
0.000515654
0.000383539
0.0004863
0.000358555
0.000440133
0.000161293
0.000437506
0.000248556
0.000201941
0.000162062
1.85781e-05
0.000183668
0.00039559
9.79581e-05
0.000277589
0.000221924
3.33561e-05
0.000348402
0.000149195
0.0100989
0.00916262
0.00826053
0.00731862
0.00672477
0.00614115
0.00576725
0.00545964
0.0049039
0.00441849
0.00448889
0.00416099
0.00371632
0.00335053
0.00325936
0.0034137
0.0033464
0.00369447
0.00420219
0.00476026
0.0084812
0.00776794
0.00691576
0.00607631
0.00538728
0.00519587
0.00471306
0.00419007
0.00426857
0.00387681
0.00357229
0.00349878
0.0030484
0.00283335
0.00273428
0.00256507
0.00278711
0.0028032
0.00331383
0.0041363
0.00704938
0.00638763
0.00591447
0.00518154
0.00469219
0.00444578
0.00392592
0.00342464
0.00350581
0.00327039
0.00300723
0.00275312
0.00237612
0.00219449
0.00204077
0.00205378
0.00199996
0.00221311
0.00282617
0.00330983
0.00592955
0.00532596
0.00469862
0.0042076
0.00374589
0.00346278
0.00296181
0.00288302
0.00254839
0.00280413
0.00254921
0.00215027
0.00190677
0.00185053
0.00178493
0.00175802
0.00195217
0.00198867
0.00202513
0.0023555
0.0043086
0.00391641
0.00352569
0.00313776
0.00310394
0.00285779
0.00250906
0.00210571
0.00195079
0.00192122
0.00187979
0.00172517
0.00154168
0.00128815
0.0010969
0.00113218
0.00122603
0.00146359
0.00153189
0.00176272
0.0031096
0.00297142
0.00270018
0.00229268
0.00212132
0.00201581
0.00170941
0.00155987
0.00149097
0.00159746
0.00106601
0.00109182
0.000899762
0.000909353
0.0010163
0.00079544
0.000811142
0.000740994
0.0011279
0.00135828
0.00192349
0.00177903
0.00153963
0.00146468
0.00114809
0.0012158
0.00101514
0.000963296
0.000880092
0.000715734
0.000750544
0.000727815
0.000693978
0.000464942
0.000441386
0.000420114
0.000614003
0.000521928
0.000756181
0.000966134
0.000489259
0.000585938
0.000563025
0.000496452
0.000483861
0.000343052
0.000447046
0.000140009
0.000512629
0.000348383
0.000292533
0.000125174
7.38469e-05
0.000302908
0.000240061
0.00017992
0.000237184
6.8774e-05
9.43263e-05
0.000432964
0.0110087
0.0102639
0.00926309
0.00816508
0.00712543
0.00661338
0.00599927
0.00568257
0.00513173
0.00512138
0.0045532
0.00420421
0.00402235
0.00402242
0.00374142
0.00383836
0.00402571
0.00460357
0.00499815
0.00573775
0.00944374
0.00863207
0.00777269
0.0067174
0.0065579
0.00580052
0.00521755
0.0048738
0.00451953
0.00424283
0.00380245
0.00343663
0.00322595
0.00314182
0.00312639
0.00312145
0.00331274
0.00384158
0.00407765
0.00483456
0.00791686
0.00721103
0.00653152
0.00588238
0.00530744
0.00459448
0.00441912
0.00400404
0.0036065
0.00334543
0.00311789
0.00283753
0.00270421
0.0024889
0.0024616
0.00248139
0.00265007
0.00303758
0.00328838
0.00394128
0.00648259
0.00585365
0.00550739
0.0046923
0.00418281
0.00388068
0.0034589
0.00315596
0.00292558
0.0026779
0.00246754
0.00244769
0.00198845
0.00210155
0.00186741
0.00207926
0.00188853
0.00234573
0.00276645
0.00300494
0.00493103
0.00440271
0.00402834
0.0036984
0.00315128
0.00279645
0.00274084
0.00209376
0.00227889
0.00225469
0.00201669
0.00172381
0.00144386
0.00142146
0.00139488
0.00148005
0.00152091
0.00178503
0.00202033
0.00223101
0.00366216
0.00339411
0.00282476
0.00262105
0.0023957
0.00220372
0.00215088
0.00155358
0.00177583
0.00151087
0.00139991
0.00120568
0.0011224
0.000926491
0.000998101
0.00108741
0.000948
0.00141124
0.00131389
0.00174198
0.00226514
0.00197741
0.00169748
0.001476
0.00133143
0.00126692
0.000900853
0.000974131
0.00107143
0.000931371
0.000832976
0.000793755
0.000883974
0.000677591
0.00069472
0.000706694
0.000522244
0.000715877
0.000867855
0.00105928
0.000985104
0.000701317
0.000642191
0.000565374
0.000677676
0.000440263
0.000342784
7.49925e-05
0.000367805
0.000307313
0.000287796
0.000427274
0.000228805
3.12239e-05
5.21709e-05
0.000263548
0.000254131
0.000427104
0.000165861
0.000286236
0.012852
0.0116556
0.0102512
0.00940743
0.00851655
0.00759617
0.0069837
0.00665581
0.00601426
0.00563118
0.00526601
0.00525961
0.00490121
0.00465286
0.00468451
0.00463735
0.00517437
0.00558648
0.00646304
0.00701519
0.0110362
0.00993835
0.00891238
0.00796135
0.00747972
0.0065441
0.00611034
0.00549709
0.00525167
0.00474978
0.00448592
0.00410929
0.00403422
0.00372919
0.00389764
0.00398595
0.00411782
0.00454397
0.00543181
0.00602643
0.00927174
0.00826377
0.00744128
0.00677683
0.00604752
0.00552483
0.0048662
0.00456629
0.004324
0.0039224
0.00364947
0.00344025
0.00320198
0.0031425
0.00313329
0.00319467
0.00361159
0.00386406
0.00426238
0.0049727
0.00755649
0.00693424
0.00612832
0.00573844
0.00492726
0.00446469
0.00422359
0.00362464
0.00367633
0.00319637
0.00301743
0.00232687
0.00249676
0.00245732
0.00259263
0.0025569
0.00267948
0.00315592
0.00376386
0.0037647
0.00592468
0.0053697
0.00476395
0.00426184
0.00364821
0.00340189
0.00324858
0.00275453
0.00262719
0.00242839
0.00205748
0.00223193
0.00179333
0.00192202
0.0021438
0.00200223
0.00230829
0.00227271
0.00268076
0.00290586
0.00424435
0.00371751
0.00346395
0.00303995
0.00260945
0.00228271
0.00230464
0.00211545
0.00178897
0.00183875
0.00146226
0.00144314
0.00149806
0.00133521
0.00154491
0.00125977
0.00141328
0.0016648
0.00185178
0.00189098
0.00266772
0.00229096
0.00195227
0.00203863
0.00179121
0.0014332
0.00116285
0.00104557
0.00135491
0.00098797
0.000962372
0.00103206
0.000838291
0.000670157
0.00064134
0.000726216
0.000827231
0.00101014
0.00122169
0.00116177
0.000840543
0.00076512
0.000749776
0.000515051
0.000358825
0.000523108
0.000598573
0.000450909
0.00034421
0.000258257
0.000479602
0.00034445
3.26652e-05
0.000343642
0.000315935
0.000465353
0.0003408
0.000443575
0.000554219
0.000263491
0.0148072
0.0136064
0.0123041
0.0112193
0.0102385
0.00916242
0.00853408
0.00773314
0.00739119
0.00690504
0.00623101
0.00621666
0.00596713
0.00605737
0.00615496
0.00642897
0.00671803
0.00742133
0.00810088
0.00883283
0.012656
0.0114712
0.0105987
0.00958364
0.00881968
0.00791651
0.00712649
0.00670917
0.00633199
0.00591543
0.00540675
0.00516572
0.00513357
0.00511553
0.00511777
0.00511759
0.00579442
0.00605937
0.00676423
0.00737878
0.0107431
0.00990918
0.00864109
0.0078707
0.00726217
0.00658606
0.00604711
0.00551873
0.00524376
0.00475892
0.00455886
0.00433167
0.00404688
0.00408119
0.00431137
0.00432315
0.00467852
0.00497335
0.00567503
0.00641494
0.00867
0.00795486
0.00737222
0.00662297
0.00576611
0.00524001
0.00486529
0.00460708
0.00434332
0.00401031
0.00365802
0.0035625
0.00306706
0.00320795
0.00324036
0.00345595
0.00384761
0.00397109
0.0045306
0.00494512
0.00670939
0.00604269
0.00556257
0.00523049
0.00461964
0.00399643
0.00384787
0.00358252
0.00309542
0.00288461
0.00259876
0.00269031
0.00259752
0.00261313
0.00256213
0.00269111
0.00273011
0.00291338
0.00351088
0.00382444
0.00464947
0.00445627
0.00400732
0.00354676
0.00316359
0.00302805
0.00248525
0.00236442
0.0024065
0.00202966
0.00179697
0.00182856
0.00186169
0.00157177
0.00180895
0.00184909
0.00204111
0.00221379
0.00247589
0.00269067
0.00288608
0.00256797
0.00230689
0.00215323
0.00205822
0.00185262
0.00184428
0.00132727
0.00118993
0.00102235
0.00118517
0.00134224
0.00110073
0.00108902
0.00109349
0.00124949
0.00125001
0.00138248
0.0013116
0.0017655
0.000928954
0.000954941
0.000801676
0.000856658
0.000849223
0.000542947
0.000278937
0.000449914
0.000631206
0.000320517
0.000542381
0.000359048
0.000319173
0.000264104
0.000364564
0.000531983
0.000395922
0.00021589
0.000426298
0.000530517
0.0172254
0.0158111
0.0146809
0.0129978
0.0121933
0.0112921
0.0103753
0.00971483
0.0092603
0.00864768
0.00832082
0.00801482
0.00789332
0.0075935
0.00797508
0.00824685
0.0087587
0.00946535
0.0101867
0.0111464
0.0146231
0.0135521
0.0125535
0.0112984
0.01032
0.00965479
0.00875868
0.00836769
0.00790329
0.00745428
0.00685353
0.00674806
0.00647123
0.00641807
0.00680293
0.00705002
0.00734374
0.00791864
0.00868439
0.00948815
0.012365
0.0115779
0.0105359
0.0093053
0.00847646
0.00793207
0.00740049
0.00682275
0.00637969
0.00586903
0.00586707
0.00582131
0.00527426
0.00527803
0.00555192
0.00569603
0.00608024
0.00669387
0.00731076
0.00810497
0.0102387
0.00958104
0.00864009
0.00797957
0.00685478
0.00659583
0.00579177
0.00571858
0.00514056
0.00502415
0.00460257
0.00447086
0.0041998
0.0045032
0.00445872
0.00460376
0.00470349
0.00548503
0.00575925
0.00641246
0.00772036
0.0074511
0.00655718
0.0061116
0.00549624
0.00505201
0.00465697
0.004228
0.00403418
0.00382421
0.00353717
0.0035264
0.0035238
0.00341705
0.00325334
0.0034781
0.00390771
0.00415487
0.00460299
0.00509449
0.00567125
0.00524547
0.00462429
0.00422507
0.00397409
0.00382816
0.00328894
0.00318693
0.00269976
0.0027571
0.0026652
0.00256743
0.0023199
0.00250238
0.00234398
0.00242701
0.00262956
0.00300267
0.00312715
0.00353479
0.00347019
0.00322681
0.00288882
0.00270448
0.00228416
0.00221414
0.00214645
0.00193801
0.00164914
0.00191797
0.00159147
0.00151525
0.00137248
0.00119352
0.00135583
0.00155214
0.00176877
0.00183256
0.00209678
0.00192283
0.00111345
0.00091084
0.000941228
0.000843285
0.000746966
0.00065457
0.000603681
0.0007065
0.000589406
0.000271327
0.000467727
0.00058815
0.000509312
0.000731935
0.000543321
0.000356428
0.000465505
0.00061579
0.000590058
0.000596146
0.0199769
0.0186546
0.0171249
0.0157779
0.0146887
0.0136877
0.0125307
0.0120635
0.0112629
0.0107882
0.0105436
0.0102043
0.00992429
0.00991766
0.0103593
0.0106291
0.0110686
0.0119035
0.0129707
0.0141069
0.0173073
0.0158493
0.0147703
0.0134984
0.0126088
0.0115049
0.0106976
0.0101036
0.00956331
0.00922145
0.0089013
0.00832061
0.0085422
0.00876875
0.00858536
0.00902722
0.00944357
0.0103104
0.0111404
0.0120025
0.0145407
0.0135115
0.012328
0.0114268
0.0105245
0.0095725
0.00897759
0.0085267
0.0082089
0.00766674
0.00743122
0.00712638
0.00681568
0.0070517
0.00705267
0.00756959
0.00804298
0.00842765
0.00921861
0.0101278
0.0120307
0.011198
0.0100619
0.00918526
0.00858449
0.00793615
0.00749356
0.00708481
0.00654349
0.00632579
0.00610748
0.00571143
0.00573507
0.00581868
0.00574166
0.00599837
0.00613875
0.0069633
0.00772157
0.00820543
0.00931527
0.00859202
0.00798574
0.00724132
0.00664476
0.00625363
0.00577667
0.00516871
0.00510363
0.00463343
0.00461452
0.0045557
0.00444701
0.00448884
0.00455916
0.00461311
0.00523606
0.00526177
0.00594111
0.00617212
0.0066259
0.0062413
0.00572096
0.00527835
0.00477201
0.0044434
0.00417417
0.00381865
0.00361855
0.00362915
0.00320885
0.0031735
0.00324624
0.00318774
0.00329681
0.00344659