/*--------------------------------*- C++ -*----------------------------------*\
| =========                 |                                                 |
| \\      /  F ield         | OpenFOAM: The Open Source CFD Toolbox           |
|  \\    /   O peration     | Version:  2212                                  |
|   \\  /    A nd           | Website:  www.openfoam.com                      |
|    \\/     M anipulation  |                                                 |
\*---------------------------------------------------------------------------*/
FoamFile
{
    version     2.0;
    format      ascii;
    arch        "LSB;label=32;scalar=64";
    class       volScalarField;
    location    "0";
    object      stateMean;
}
// * * * * * * * * * * * * * * * * * * * * * * * * * * * * * * * * * * * * * //

dimensions      [0 0 0 1 0 0 0];

internalField   nonuniform List<scalar> 
3200
(
318.291
318.629
318.851
319.079
319.307
319.552
319.775
319.911
320.015
320.144
320.21
320.174
320.218
320.217
320.098
319.987
319.856
319.671
319.432
319.249
315.871
316.112
316.333
316.562
316.751
316.977
317.106
317.314
317.324
317.366
317.537
317.5
317.561
317.499
317.435
317.334
317.184
317.141
316.875
316.722
313.502
313.642
313.807
314.061
314.206
314.394
314.533
314.604
314.733
314.722
314.811
314.847
314.804
314.929
314.75
314.733
314.601
314.474
314.301
314.126
310.949
311.202
311.418
311.543
311.676
311.721
311.853
312.012
312.137
312.113
312.145
312.165
312.175
312.148
312.071
312.026
311.95
311.819
311.677
311.582
308.51
308.695
308.782
308.942
308.993
309.198
309.26
309.325
309.311
309.422
309.474
309.483
309.444
309.435
309.395
309.373
309.319
309.203
309.181
309.005
306.061
306.234
306.26
306.353
306.46
306.602
306.648
306.635
306.761
306.712
306.764
306.768
306.721
306.759
306.673
306.697
306.669
306.599
306.477
306.44
303.672
303.718
303.787
303.831
303.99
303.916
303.952
303.986
304.065
304.066
304.048
304.109
304.084
304.092
304.069
304.052
304.039
303.982
303.92
303.87
301.175
301.248
301.266
301.339
301.368
301.314
301.284
301.313
301.386
301.375
301.327
301.363
301.383
301.351
301.292
301.325
301.384
301.328
301.276
301.323
318.903
319.144
319.462
319.799
319.972
320.301
320.472
320.666
320.637
320.82
320.844
320.907
320.873
320.808
320.82
320.64
320.48
320.248
320.058
319.871
316.379
316.656
316.833
317.146
317.354
317.502
317.681
317.814
317.931
318.104
318.097
318.077
318.119
318.073
318.014
317.88
317.82
317.613
317.38
317.228
313.831
314.036
314.226
314.429
314.652
314.9
314.973
315.114
315.148
315.309
315.253
315.294
315.268
315.247
315.252
315.119
315.093
314.847
314.783
314.566
311.316
311.469
311.611
311.755
312.01
312.171
312.303
312.317
312.35
312.414
312.594
312.512
312.476
312.543
312.451
312.368
312.24
312.192
312.126
311.957
308.755
308.832
309.05
309.184
309.375
309.35
309.493
309.597
309.648
309.678
309.7
309.763
309.78
309.677
309.694
309.625
309.576
309.531
309.386
309.295
306.234
306.453
306.453
306.584
306.72
306.727
306.766
306.924
306.89
306.945
306.936
307.028
306.934
306.973
306.898
306.907
306.854
306.808
306.641
306.64
303.874
303.783
303.876
303.891
303.988
303.997
304.082
304.158
304.087
304.133
304.154
304.165
304.167
304.214
304.115
304.128
304.134
304.042
303.983
303.987
301.304
301.282
301.277
301.306
301.384
301.348
301.384
301.347
301.387
301.401
301.453
301.453
301.406
301.394
301.471
301.4
301.398
301.405
301.351
301.342
319.672
319.987
320.364
320.66
320.947
321.188
321.406
321.501
321.686
321.782
321.813
321.881
321.858
321.784
321.685
321.63
321.377
321.215
320.92
320.745
317.001
317.281
317.58
317.87
318.1
318.33
318.474
318.719
318.741
318.873
318.836
318.921
318.91
318.879
318.829
318.756
318.562
318.375
318.102
317.897
314.365
314.621
314.881
315.068
315.283
315.436
315.616
315.707
315.823
315.874
315.951
315.98
315.99
316.051
315.889
315.902
315.708
315.519
315.288
315.139
311.803
311.986
312.14
312.333
312.482
312.654
312.746
312.911
312.887
313
313.054
313.056
313.092
313.017
313.035
312.846
312.849
312.743
312.502
312.459
309.127
309.234
309.408
309.527
309.663
309.798
309.92
309.992
310.06
310.077
310.157
310.208
310.137
310.207
310.126
309.995
309.976
309.891
309.791
309.679
306.574
306.622
306.662
306.92
306.967
307.052
307.01
307.187
307.232
307.232
307.246
307.216
307.211
307.218
307.238
307.149
307.22
307.119
306.961
306.937
303.874
304.076
304.096
304.134
304.182
304.176
304.176
304.273
304.279
304.334
304.37
304.398
304.377
304.378
304.311
304.298
304.239
304.228
304.154
304.168
301.316
301.352
301.381
301.414
301.373
301.491
301.469
301.437
301.507
301.463
301.466
301.471
301.44
301.469
301.473
301.434
301.473
301.362
301.395
301.439
320.452
320.867
321.213
321.496
321.841
322.033
322.404
322.452
322.686
322.809
322.868
322.823
322.825
322.826
322.789
322.523
322.439
322.172
321.89
321.681
317.801
318.057
318.359
318.644
318.916
319.149
319.337
319.528
319.64
319.756
319.726
319.84
319.829
319.767
319.633
319.518
319.476
319.215
318.97
318.847
315.032
315.223
315.546
315.771
316.044
316.141
316.307
316.496
316.537
316.578
316.743
316.72
316.706
316.712
316.6
316.628
316.404
316.254
316.034
315.835
312.249
312.508
312.673
312.883
312.993
313.197
313.347
313.407
313.466
313.616
313.644
313.704
313.727
313.667
313.623
313.545
313.402
313.271
313.119
312.957
309.544
309.603
309.832
310.033
310.164
310.256
310.352
310.526
310.481
310.558
310.449
310.747
310.661
310.565
310.563
310.556
310.411
310.318
310.173
310.121
306.813
306.932
306.984
307.198
307.26
307.334
307.407
307.458
307.498
307.562
307.58
307.537
307.634
307.564
307.546
307.547
307.487
307.35
307.234
307.138
304.104
304.217
304.21
304.258
304.418
304.316
304.485
304.441
304.475
304.543
304.541
304.595
304.58
304.597
304.553
304.513
304.435
304.401
304.366
304.328
301.331
301.424
301.432
301.409
301.446
301.451
301.509
301.492
301.515
301.519
301.613
301.506
301.549
301.522
301.51
301.493
301.458
301.475
301.482
301.463
321.395
321.735
322.19
322.539
322.879
323.069
323.372
323.571
323.703
323.771
323.9
323.983
323.917
323.889
323.794
323.587
323.425
323.183
322.933
322.714
318.459
318.837
319.167
319.416
319.802
319.996
320.158
320.354
320.493
320.612
320.687
320.727
320.725
320.647
320.536
320.394
320.189
320.087
319.79
319.582
315.657
315.915
316.136
316.491
316.771
316.829
317.086
317.234
317.327
317.36
317.433
317.459
317.53
317.491
317.379
317.269
317.154
316.959
316.764
316.577
312.799
312.996
313.2
313.478
313.567
313.838
313.959
313.998
314.143
314.202
314.309
314.33
314.256
314.243
314.203
314.109
313.92
313.981
313.751
313.517
309.935
310.086
310.254
310.362
310.547
310.756
310.82
310.921
311.007
311.074
311.077
311.082
311.11
311.025
311.021
310.986
310.875
310.764
310.686
310.574
307.115
307.149
307.334
307.455
307.563
307.561
307.792
307.826
307.829
307.924
307.938
307.923
307.882
307.847
307.857
307.787
307.777
307.627
307.637
307.454
304.233
304.335
304.364
304.462
304.617
304.558
304.668
304.7
304.702
304.703
304.796
304.795
304.73
304.768
304.709
304.729
304.668
304.672
304.567
304.552
301.402
301.484
301.485
301.506
301.485
301.511
301.538
301.557
301.571
301.554
301.581
301.567
301.53
301.539
301.562
301.587
301.54
301.602
301.557
301.527
322.418
322.666
323.05
323.47
323.762
324.063
324.338
324.668
324.731
324.853
324.885
324.937
325.004
324.892
324.814
324.633
324.422
324.155
323.9
323.587
319.313
319.616
319.973
320.267
320.63
320.799
321.032
321.285
321.426
321.479
321.618
321.624
321.614
321.491
321.401
321.307
321.15
320.953
320.623
320.464
316.348
316.544
316.883
317.097
317.395
317.595
317.8
317.959
318.069
318.166
318.264
318.283
318.202
318.231
318.093
318.021
317.902
317.723
317.417
317.233
313.385
313.539
313.823
314.003
314.217
314.442
314.566
314.658
314.786
314.792
314.841
314.875
314.879
314.889
314.812
314.77
314.579
314.497
314.237
314.07
310.372
310.531
310.714
310.871
311.036
311.245
311.298
311.395
311.507
311.591
311.597
311.522
311.578
311.567
311.567
311.389
311.339
311.251
311.16
310.988
307.415
307.462
307.584
307.753
307.879
307.962
308.046
308.119
308.246
308.238
308.295
308.245
308.21
308.183
308.233
308.208
308.071
308.019
307.885
307.822
304.458
304.458
304.555
304.606
304.728
304.8
304.833
304.843
304.98
304.98
304.937
304.995
305.07
304.922
304.943
304.921
304.859
304.781
304.762
304.647
301.453
301.571
301.548
301.638
301.573
301.645
301.631
301.677
301.701
301.623
301.665
301.607
301.692
301.69
301.643
301.687
301.662
301.635
301.592
301.568
323.134
323.569
323.977
324.345
324.744
325.109
325.418
325.529
325.767
325.87
326.032
325.999
325.943
325.934
325.779
325.687
325.436
325.165
324.871
324.504
320.06
320.399
320.689
321.113
321.434
321.744
321.951
322.161
322.278
322.446
322.454
322.539
322.506
322.414
322.349
322.198
321.981
321.792
321.54
321.223
316.981
317.276
317.575
317.889
318.102
318.323
318.531
318.744
318.846
318.905
318.919
319.065
318.992
318.947
318.858
318.79
318.601
318.391
318.143
317.93
313.864
314.097
314.283
314.597
314.754
315.006
315.08
315.283
315.422
315.421
315.569
315.447
315.516
315.441
315.496
315.306
315.27
314.995
314.9
314.668
310.706
310.943
311.098
311.389
311.529
311.653
311.786
311.901
311.949
311.935
312.052
312.142
312.154
312.002
311.973
311.884
311.823
311.736
311.554
311.438
307.647
307.846
307.942
308.066
308.172
308.358
308.386
308.477
308.491
308.532
308.6
308.636
308.581
308.639
308.485
308.481
308.36
308.375
308.246
308.143
304.641
304.651
304.801
304.917
304.991
304.957
305.069
305.063
305.118
305.157
305.204
305.176
305.161
305.189
305.141
305.121
305.114
304.967
304.983
304.82
301.549
301.493
301.558
301.582
301.675
301.632
301.688
301.78
301.771
301.716
301.699
301.708
301.729
301.741
301.722
301.685
301.658
301.762
301.693
301.678
324.057
324.403
324.914
325.339
325.676
326.101
326.334
326.495
326.766
326.876
327.012
327.048
327.041
326.906
326.843
326.662
326.404
326.074
325.741
325.43
320.804
321.105
321.438
321.92
322.226
322.605
322.77
322.958
323.186
323.28
323.363
323.397
323.326
323.312
323.146
323.025
322.816
322.64
322.318
322.05
317.599
317.956
318.234
318.516
318.755
319.017
319.295
319.445
319.519
319.617
319.75
319.78
319.701
319.707
319.599
319.456
319.393
319.126
318.789
318.564
314.355
314.571
314.874
315.031
315.387
315.579
315.727
315.843
316.02
316.073
316.168
316.149
316.142
316.122
316.09
315.886
315.765
315.608
315.398
315.22
311.135
311.353
311.559
311.783
311.918
312.139
312.225
312.331
312.422
312.534
312.571
312.556
312.581
312.496
312.51
312.362
312.264
312.138
311.968
311.828
307.958
308.049
308.211
308.353
308.535
308.642
308.771
308.857
308.877
308.835
308.987
308.937
309.014
308.935
308.873
308.856
308.731
308.656
308.531
308.478
304.765
304.769
304.938
305.101
305.146
305.153
305.198
305.242
305.331
305.424
305.327
305.383
305.411
305.377
305.404
305.319
305.297
305.121
305.103
305.123
301.574
301.678
301.586
301.677
301.723
301.738
301.769
301.755
301.779
301.825
301.829
301.833
301.822
301.859
301.798
301.859
301.716
301.768
301.709
301.667
324.828
325.284
325.701
326.202
326.606
326.988
327.195
327.622
327.696
327.848
327.984
328.027
328.035
327.99
327.855
327.585
327.329
327.128
326.645
326.301
321.469
321.879
322.284
322.657
323.052
323.269
323.625
323.855
323.976
324.129
324.201
324.237
324.236
324.165
324.057
323.897
323.651
323.46
323.136
322.729
318.167
318.452
318.807
319.169
319.434
319.766
319.938
320.07
320.29
320.361
320.416
320.485
320.471
320.4
320.343
320.2
319.951
319.762
319.599
319.245
314.824
315.084
315.38
315.667
315.941
316.008
316.289
316.442
316.56
316.62
316.649
316.71
316.801
316.752
316.588
316.476
316.277
316.23
315.917
315.719
311.453
311.753
312.014
312.135
312.355
312.42
312.618
312.783
312.889
312.964
313.015
313.038
312.99
312.922
312.854
312.857
312.647
312.596
312.382
312.286
308.239
308.39
308.554
308.703
308.845
308.888
309.05
309.132
309.189
309.249
309.223
309.273
309.276
309.289
309.241
309.103
309.131
309.017
308.874
308.712
304.92
305.019
305.099
305.244
305.335
305.322
305.392
305.514
305.551
305.511
305.513
305.57
305.611
305.642
305.569
305.452
305.433
305.365
305.297
305.258
301.693
301.708
301.75
301.693
301.889
301.77
301.825
301.897
301.777
301.876
301.842
301.874
301.907
301.829
301.86
301.818
301.852
301.824
301.778
301.729
325.667
326.095
326.633
326.98
327.469
327.862
328.185
328.469
328.71
328.894
328.923
329.017
328.926
328.929
328.751
328.533
328.295
327.978
327.57
327.158
322.291
322.549
323.089
323.426
323.777
324.064
324.474
324.677
324.804
324.928
325.033
325.106
325.118
324.994
324.947
324.679
324.417
324.246
323.932
323.583
318.744
319.037
319.388
319.73
320.048
320.391
320.628
320.831
320.945
321.042
321.147
321.202
321.199
321.139
320.984
320.899
320.684
320.437
320.186
319.906
315.336
315.58
315.9
316.125
316.429
316.616
316.836
317.016
317.114
317.214
317.27
317.287
317.267
317.336
317.197
317.089
316.895
316.649
316.47
316.276
311.907
312.075
312.339
312.548
312.783
312.879
313.042
313.248
313.312
313.364
313.454
313.471
313.448
313.428
313.334
313.213
313.118
312.977
312.834
312.602
308.485
308.681
308.779
308.919
309.108
309.232
309.373
309.482
309.364
309.525
309.579
309.612
309.649
309.58
309.519
309.531
309.394
309.241
309.144
309.054
305.108
305.164
305.273
305.347
305.453
305.48
305.588
305.65
305.746
305.742
305.796
305.702
305.824
305.74
305.721
305.725
305.656
305.556
305.422
305.361
301.745
301.699
301.812
301.784
301.866
301.873
301.939
301.91
301.953
301.922
301.956
301.981
301.936
301.895
301.89
301.87
301.874
301.928
301.888
301.802
326.408
326.868
327.318
327.891
328.373
328.778
329.062
329.377
329.58
329.793
329.878
329.936
329.851
329.781
329.652
329.498
329.117
328.834
328.36
327.982
322.826
323.235
323.716
324.114
324.517
324.884
325.121
325.432
325.578
325.666
325.784
325.807
325.839
325.772
325.622
325.526
325.191
324.966
324.635
324.305
319.257
319.612
319.984
320.365
320.746
321.025
321.231
321.5
321.697
321.691
321.77
321.817
321.754
321.836
321.689
321.525
321.327
321.056
320.81
320.513
315.815
316.052
316.346
316.633
316.899
317.17
317.39
317.529
317.655
317.774
317.822
317.868
317.838
317.827
317.71
317.633
317.393
317.172
317.007
316.752
312.246
312.427
312.719
312.956
313.12
313.261
313.467
313.608
313.731
313.846
313.834
313.884
313.849
313.885
313.792
313.638
313.543
313.328
313.289
313.058
308.7
308.891
309.03
309.249
309.405
309.518
309.582
309.792
309.803
309.873
309.964
309.918
309.917
309.872
309.865
309.739
309.653
309.603
309.439
309.275
305.247
305.374
305.478
305.54
305.664
305.704
305.8
305.893
305.843
306.001
305.978
305.915
305.978
305.915
305.854
305.841
305.814
305.681
305.7
305.631
301.775
301.8
301.857
301.845
301.903
301.896
301.996
301.926
301.992
302.011
302.023
302.061
302.003
301.926
301.999
301.927
301.925
301.963
301.851
301.898
327.05
327.558
328.102
328.671
329.123
329.557
329.893
330.17
330.478
330.704
330.681
330.725
330.749
330.695
330.512
330.22
329.986
329.613
329.198
328.814
323.456
323.858
324.348
324.845
325.292
325.563
325.906
326.228
326.31
326.494
326.594
326.562
326.602
326.521
326.368
326.215
325.92
325.691
325.311
324.874
319.838
320.192
320.523
320.948
321.293
321.549
321.874
322.164
322.228
322.352
322.437
322.472
322.503
322.434
322.326
322.145
321.975
321.716
321.339
321.043
316.15
316.456
316.801
317.112
317.413
317.647
317.936
318.065
318.246
318.203
318.285
318.373
318.377
318.29
318.182
318.046
317.83
317.664
317.506
317.287
312.644
312.854
313.09
313.333
313.463
313.653
313.863
314.07
314.178
314.217
314.23
314.249
314.248
314.247
314.207
314.083
313.934
313.738
313.603
313.444
309.02
309.125
309.29
309.502
309.641
309.754
309.92
310.026
310.088
310.077
310.242
310.212
310.231
310.169
310.065
310.052
309.961
309.897
309.696
309.563
305.401
305.483
305.604
305.679
305.827
305.855
305.959
306.01
306.06
306.124
306.113
306.107
306.092
306.128
306.092
306.05
305.939
305.915
305.796
305.694
301.859
301.842
301.865
301.903
301.924
301.982
301.965
302.07
301.966
302.02
302.037
302.083
302.09
302.008
302.013
302.016
301.981
302.014
301.991
301.876
327.813
328.244
328.802
329.403
329.981
330.369
330.767
331.029
331.323
331.384
331.573
331.632
331.582
331.424
331.324
331.073
330.778
330.348
329.99
329.56
324.059
324.481
324.957
325.509
325.763
326.2
326.558
326.807
327.02
327.161
327.306
327.376
327.349
327.24
327.077
326.889
326.624
326.245
325.971
325.567
320.332
320.689
321.074
321.457
321.814
322.205
322.403
322.653
322.863
322.991
323.065
323.113
323.074
323.028
322.895
322.728
322.502
322.203
321.956
321.615
316.604
316.909
317.155
317.557
317.859
318.087
318.338
318.53
318.67
318.783
318.85
318.823
318.903
318.772
318.73
318.53
318.451
318.163
317.893
317.712
312.938
313.184
313.406
313.622
313.903
314.116
314.224
314.502
314.496
314.53
314.605
314.671
314.707
314.64
314.558
314.429
314.307
314.112
313.933
313.787
309.198
309.337
309.59
309.732
309.88
310.012
310.094
310.332
310.3
310.401
310.436
310.477
310.466
310.474
310.387
310.286
310.252
310.029
309.983
309.793
305.506
305.628
305.759
305.874
305.965
306.029
306.18
306.189
306.182
306.237
306.267
306.267
306.217
306.248
306.204
306.156
306.166
306.06
305.968
305.876
301.779
301.876
301.909
301.948
301.93
302.017
302.059
302.15
302.07
302.092
302.098
302.052
302.104
302.154
302.134
302.055
302.042
301.974
302.038
301.991
328.358
328.926
329.602
330.099
330.607
331.112
331.49
331.74
332.054
332.234
332.356
332.306
332.326
332.268
332.083
331.901
331.51
331.156
330.654
330.3
324.535
325.04
325.556
326.056
326.398
326.878
327.172
327.495
327.662
327.872
327.959
328.038
327.977
327.955
327.749
327.547
327.32
326.991
326.52
326.179
320.734
321.181
321.599
321.973
322.365
322.679
323.021
323.222
323.374
323.542
323.631
323.661
323.665
323.581
323.455
323.29
322.999
322.758
322.477
322.126
316.948
317.243
317.624
317.879
318.266
318.533
318.715
318.992
319.035
319.219
319.277
319.467
319.353
319.28
319.132
319.024
318.857
318.574
318.256
318.159
313.158
313.407
313.693
313.953
314.246
314.417
314.547
314.769
314.856
314.942
315.059
314.98
315.072
314.965
314.814
314.766
314.569
314.479
314.254
314.109
309.397
309.614
309.761
309.965
310.171
310.338
310.39
310.496
310.63
310.633
310.75
310.738
310.688
310.692
310.567
310.59
310.471
310.321
310.194
310.128
305.612
305.758
305.903
305.92
306.039
306.189
306.306
306.37
306.295
306.419
306.427
306.394
306.434
306.457
306.431
306.365
306.291
306.191
306.086
306.073
301.9
301.933
301.951
302.037
302.099
302.062
302.051
302.106
302.144
302.174
302.107
302.144
302.232
302.128
302.125
302.066
302.09
302.044
301.997
302.074
328.956
329.514
330.139
330.7
331.219
331.757
332.124
332.519
332.721
332.93
333.156
333.115
333.11
332.954
332.764
332.494
332.205
331.771
331.353
330.951
325.081
325.604
326.056
326.561
326.98
327.432
327.829
328.076
328.278
328.455
328.624
328.663
328.596
328.493
328.356
328.202
327.81
327.552
327.154
326.819
321.166
321.547
322.097
322.493
322.832
323.183
323.473
323.737
323.893
324.084
324.149
324.19
324.217
324.113
323.923
323.788
323.53
323.289
322.922
322.571
317.333
317.651
317.951
318.31
318.7
318.976
319.19
319.349
319.487
319.622
319.735
319.738
319.843
319.722
319.617
319.44
319.199
319.04
318.747
318.525
313.485
313.764
314.004
314.201
314.484
314.765
314.886
315.028
315.224
315.312
315.402
315.352
315.34
315.276
315.218
315.094
314.991
314.84
314.564
314.396
309.681
309.79
309.993
310.203
310.386
310.488
310.71
310.79
310.806
310.94
311.012
310.986
310.947
310.994
310.868
310.795
310.672
310.551
310.407
310.291
305.791
305.917
306.035
306.122
306.189
306.29
306.323
306.508
306.568
306.628
306.578
306.521
306.577
306.555
306.522
306.438
306.4
306.319
306.303
306.135
301.955
301.957
302.017
302.013
302.028
302.133
302.224
302.18
302.131
302.228
302.161
302.213
302.22
302.228
302.187
302.124
302.152
302.194
302.117
302.076
329.484
330.102
330.655
331.399
331.843
332.306
332.754
333.088
333.321
333.567
333.677
333.74
333.701
333.69
333.421
333.169
332.822
332.406
331.988
331.522
325.584
326.06
326.541
327.112
327.586
327.946
328.365
328.591
328.814
328.998
329.197
329.196
329.22
329.14
328.89
328.668
328.42
328.073
327.669
327.281
321.61
321.967
322.434
322.966
323.365
323.66
323.937
324.208
324.411
324.608
324.608
324.593
324.713
324.63
324.437
324.271
324.018
323.686
323.357
322.997
317.621
317.915
318.321
318.641
319.106
319.287
319.63
319.721
319.955
320.017
320.153
320.17
320.21
320.044
319.974
319.83
319.693
319.334
319.141
318.849
313.781
313.928
314.292
314.517
314.793
315.009
315.2
315.39
315.488
315.574
315.664
315.649
315.613
315.593
315.579
315.432
315.214
315.052
314.829
314.611
309.802
309.979
310.231
310.415
310.552
310.651
310.867
310.937
311.115
311.111
311.14
311.156
311.207
311.113
311.114
311.034
310.912
310.736
310.64
310.468
305.875
305.976
306.114
306.208
306.372
306.426
306.475
306.562
306.666
306.592
306.692
306.708
306.735
306.767
306.69
306.596
306.495
306.438
306.323
306.35
301.988
302.059
302.06
302.103
302.143
302.182
302.207
302.183
302.225
302.324
302.265
302.225
302.243
302.169
302.216
302.261
302.217
302.159
302.156
302.145
329.969
330.546
331.22
331.836
332.361
332.843
333.359
333.617
333.958
334.155
334.237
334.315
334.34
334.241
333.966
333.731
333.424
332.98
332.46
331.945
325.909
326.505
327
327.564
327.996
328.488
328.865
329.15
329.391
329.536
329.642
329.804
329.67
329.506
329.458
329.185
328.91
328.48
328.067
327.668
321.92
322.35
322.852
323.267
323.678
324.096
324.383
324.605
324.761
324.965
325.042
325.115
325.166
325.014
324.92
324.645
324.374
324.127
323.753
323.362
317.877
318.22
318.681
319.062
319.35
319.646
319.865
320.057
320.274
320.367
320.437
320.543
320.492
320.405
320.353
320.183
320.043
319.678
319.339
319.108
313.92
314.207
314.473
314.786
315.05
315.241
315.452
315.693
315.746
315.912
315.918
315.92
315.922
315.861
315.779
315.694
315.422
315.337
315.047
314.916
309.965
310.125
310.34
310.533
310.745
310.896
311.022
311.167
311.254
311.262
311.394
311.393
311.346
311.33
311.254
311.159
311.063
310.919
310.776
310.655
306.016
306.082
306.189
306.3
306.425
306.573
306.635
306.708
306.799
306.749
306.789
306.895
306.829
306.81
306.743
306.705
306.64
306.601
306.44
306.4
301.958
302.034
302.108
302.104
302.153
302.198
302.226
302.216
302.256
302.252
302.267
302.343
302.354
302.292
302.258
302.263
302.23
302.158
302.182
302.148
330.397
331.006
331.621
332.256
332.873
333.41
333.84
334.117
334.443
334.661
334.846
334.784
334.785
334.752
334.497
334.212
333.829
333.412
332.855
332.439
326.237
326.786
327.424
327.929
328.407
328.917
329.285
329.583
329.79
330.039
330.135
330.128
330.146
330.021
329.839
329.602
329.324
328.919
328.495
328.031
322.167
322.639
323.047
323.657
323.985
324.373
324.663
324.991
325.167
325.31
325.458
325.475
325.47
325.366
325.216
325.014
324.694
324.453
324.015
323.748
318.156
318.547
318.905
319.303
319.636
319.915
320.139
320.395
320.584
320.767
320.849
320.88
320.815
320.789
320.602
320.411
320.191
320.033
319.692
319.486
314.073
314.379
314.651
314.942
315.278
315.465
315.712
315.828
315.989
316.155
316.187
316.171
316.108
316.07
315.975
315.889
315.698
315.509
315.273
315.123
310.009
310.242
310.563
310.637
310.88
311.045
311.237
311.295
311.375
311.515
311.476
311.57
311.443
311.544
311.487
311.403
311.23
311.12
310.937
310.776
306.08
306.173
306.273
306.434
306.541
306.599
306.76
306.784
306.883
306.9
306.918
306.974
306.878
306.905
306.824
306.836
306.757
306.622
306.53
306.503
302.065
302.045
302.084
302.241
302.178
302.243
302.299
302.306
302.24
302.339
302.252
302.334
302.337
302.346
302.296
302.292
302.205
302.259
302.116
302.177
330.7
331.293
331.98
332.662
333.22
333.77
334.126
334.529
334.828
335.023
335.252
335.248
335.236
335.104
334.896
334.604
334.265
333.801
333.237
332.736
326.533
327.09
327.661
328.254
328.738
329.222
329.554
329.884
330.131
330.349
330.465
330.527
330.407
330.382
330.229
330.017
329.687
329.286
328.766
328.369
322.492
322.876
323.395
323.885
324.227
324.703
324.998
325.245
325.536
325.625
325.75
325.748
325.718
325.618
325.471
325.325
325.048
324.669
324.354
323.996
318.309
318.632
319.057
319.507
319.848
320.167
320.355
320.669
320.794
320.961
321.038
321.088
321.029
320.969
320.878
320.665
320.495
320.156
319.903
319.644
314.224
314.55
314.907
315.065
315.356
315.717
315.833
316.066
316.213
316.282
316.293
316.299
316.345
316.327
316.199
316.039
315.923
315.688
315.497
315.262
310.171
310.397
310.648
310.791
310.947
311.187
311.277
311.428
311.449
311.698
311.631
311.689
311.665
311.676
311.49
311.532
311.311
311.248
311.014
310.863
306.164
306.242
306.367
306.547
306.621
306.712
306.779
306.824
306.934
306.956
306.969
306.988
307.003
306.93
306.935
306.861
306.796
306.711
306.673
306.467
302.074
302.044
302.115
302.184
302.174
302.331
302.308
302.263
302.232
302.35
302.369
302.338
302.364
302.386
302.246
302.296
302.288
302.277
302.207
302.174
330.906
331.524
332.126
332.818
333.548
333.992
334.472
334.936
335.142
335.36
335.483
335.468
335.551
335.418
335.178
334.922
334.576
334.105
333.493
332.99
326.776
327.279
327.875
328.438
328.934
329.392
329.813
330.115
330.381
330.597
330.675
330.765
330.762
330.581
330.425
330.157
329.881
329.484
328.976
328.625
322.634
323.066
323.475
324.069
324.435
324.864
325.155
325.481
325.666
325.824
325.851
325.958
325.896
325.837
325.72
325.473
325.209
324.845
324.486
324.105
318.487
318.75
319.298
319.585
319.937
320.305
320.553
320.809
320.918
321.07
321.172
321.2
321.198
321.102
321.017
320.854
320.58
320.334
319.997
319.722
314.359
314.615
314.904
315.273
315.527
315.708
315.986
316.043
316.24
316.403
316.441
316.502
316.494
316.423
316.309
316.197
316.072
315.785
315.569
315.271
310.24
310.452
310.626
310.887
311.045
311.185
311.377
311.562
311.632
311.628
311.767
311.717
311.771
311.755
311.637
311.587
311.42
311.264
311.076
310.926
306.175
306.263
306.47
306.518
306.593
306.78
306.827
306.902
306.953
306.969
307.054
307.058
307.035
307.068
307.031
306.967
306.945
306.779
306.599
306.542
302.073
302.113
302.086
302.163
302.258
302.274
302.266
302.273
302.376
302.334
302.323
302.361
302.348
302.38
302.325
302.387
302.355
302.25
302.219
302.252
)
;

boundaryField
{
    hotSide
    {
        type            fixedGradient;
        gradient        nonuniform List<scalar> 
400
(
321.511
322.87
325.591
329.677
335.133
341.965
350.181
359.788
370.794
383.208
397.037
412.289
428.971
447.088
466.647
487.651
510.105
534.011
559.372
586.191
323.738
325.08
327.767
331.802
337.194
343.949
352.078
361.591
372.498
384.81
398.537
413.687
430.268
448.289
467.755
488.672
511.043
534.872
560.161
586.913
326.149
327.47
330.116
334.091
339.406
346.071
354.099
363.503
374.296
386.491
400.101
415.136
431.606
449.52
468.885
489.706
511.988
535.735
560.948
587.63
328.704
330
332.597
336.503
341.73
348.292
356.205
365.485
376.15
388.215
401.695
416.604
432.954
450.753
470.009
490.73
512.919
536.579
561.714
588.325
331.33
332.599
335.142
338.97
344.099
350.546
358.332
367.477
378.003
389.928
403.271
418.047
434.27
451.949
471.095
491.712
513.807
537.382
562.439
588.978
333.918
335.158
337.643
341.389
346.414
352.74
360.392
369.397
379.779
391.562
404.765
419.407
435.503
453.065
472.101
492.618
514.622
538.114
563.096
589.569
336.321
337.531
339.959
343.622
348.544
354.751
362.274
371.142
381.385
393.031
406.101
420.618
436.595
454.047
472.983
493.409
515.33
538.747
563.663
590.076
338.36
339.543
341.92
345.509
350.339
356.44
363.847
372.595
382.718
394.244
407.2
421.608
437.485
454.844
473.695
494.045
515.897
539.253
564.114
590.478
339.852
341.015
343.352
346.885
351.645
357.665
364.985
373.643
383.675
395.113
407.984
422.312
438.116
455.407
474.197
494.491
516.294
539.606
564.428
590.758
340.643
341.795
344.11
347.613
352.334
358.311
365.584
374.193
384.176
395.567
408.393
422.679
438.443
455.699
474.456
494.722
516.498
539.788
564.589
590.901
340.643
341.795
344.11
347.613
352.334
358.311
365.584
374.193
384.176
395.567
408.393
422.679
438.443
455.699
474.456
494.722
516.498
539.788
564.589
590.901
339.852
341.015
343.352
346.885
351.645
357.665
364.985
373.643
383.675
395.113
407.984
422.312
438.116
455.407
474.197
494.491
516.294
539.606
564.428
590.758
338.36
339.543
341.92
345.509
350.339
356.44
363.847
372.595
382.718
394.244
407.2
421.608
437.485
454.844
473.695
494.045
515.897
539.253
564.114
590.478
336.321
337.531
339.959
343.622
348.544
354.751
362.274
371.142
381.385
393.031
406.101
420.618
436.595
454.047
472.983
493.409
515.33
538.747
563.663
590.076
333.918
335.158
337.643
341.389
346.414
352.74
360.392
369.397
379.779
391.562
404.765
419.407
435.503
453.065
472.101
492.618
514.622
538.114
563.096
589.569
331.33
332.599
335.142
338.97
344.099
350.546
358.332
367.477
378.003
389.928
403.271
418.047
434.27
451.949
471.095
491.712
513.807
537.382
562.439
588.978
328.704
330
332.597
336.503
341.73
348.292
356.205
365.485
376.15
388.215
401.695
416.604
432.954
450.753
470.009
490.73
512.919
536.579
561.714
588.325
326.149
327.47
330.116
334.091
339.406
346.071
354.099
363.503
374.296
386.491
400.101
415.136
431.606
449.52
468.885
489.706
511.988
535.735
560.948
587.63
323.738
325.08
327.767
331.802
337.194
343.949
352.078
361.591
372.498
384.81
398.537
413.687
430.268
448.289
467.755
488.672
511.043
534.872
560.161
586.913
321.511
322.87
325.591
329.677
335.133
341.965
350.181
359.788
370.794
383.208
397.037
412.289
428.971
447.088
466.647
487.651
510.105
534.011
559.372
586.191
)
;
    }
    coldSide
    {
        type            mixed;
        refValue        uniform 300;
        refGradient     uniform 0;
        valueFraction   uniform 0.991591;
        source          uniform 0;
        value           nonuniform List<scalar> 
400
(
300.01
300.011
300.011
300.011
300.012
300.012
300.013
300.013
300.014
300.015
300.015
300.016
300.015
300.016
300.016
300.017
300.016
300.017
300.017
300.017
300.01
300.011
300.011
300.012
300.012
300.013
300.013
300.014
300.014
300.014
300.015
300.015
300.016
300.016
300.016
300.017
300.017
300.017
300.017
300.018