/*--------------------------------*- C++ -*----------------------------------*\
| =========                 |                                                 |
| \\      /  F ield         | OpenFOAM: The Open Source CFD Toolbox           |
|  \\    /   O peration     | Version:  2212                                  |
|   \\  /    A nd           | Website:  www.openfoam.com                      |
|    \\/     M anipulation  |                                                 |
\*---------------------------------------------------------------------------*/
FoamFile
{
    version     2.0;
    format      ascii;
    arch        "LSB;label=32;scalar=64";
    class       volScalarField;
    location    "0";
    object      Ttrue;
}
// * * * * * * * * * * * * * * * * * * * * * * * * * * * * * * * * * * * * * //

dimensions      [0 0 0 1 0 0 0];

internalField   nonuniform List<scalar> 
3200
(
340.996
341.49
342.12
342.807
343.514
344.209
344.849
345.39
345.785
345.993
345.993
345.785
345.39
344.849
344.209
343.514
342.807
342.12
341.49
340.996
335.64
336.058
336.602
337.196
337.808
338.409
338.963
339.43
339.771
339.95
339.95
339.771
339.43
338.963
338.409
337.808
337.196
336.602
336.058
335.64
330.238
330.585
331.043
331.545
332.062
332.57
333.038
333.432
333.719
333.871
333.871
333.719
333.432
333.038
332.57
332.062
331.545
331.043
330.585
330.238
324.797
325.076
325.45
325.86
326.283
326.698
327.08
327.402
327.636
327.76
327.76
327.636
327.402
327.08
326.698
326.283
325.86
325.45
325.076
324.797
319.325
319.539
319.829
320.147
320.476
320.798
321.095
321.345
321.527
321.623
321.623
321.527
321.345
321.095
320.798
320.476
320.147
319.829
319.539
319.325
313.828
313.979
314.186
314.413
314.648
314.878
315.09
315.269
315.398
315.467
315.467
315.398
315.269
315.09
314.878
314.648
314.413
314.186
313.979
313.828
308.313
308.403
308.527
308.664
308.805
308.943
309.07
309.177
309.255
309.296
309.296
309.255
309.177
309.07
308.943
308.805
308.664
308.527
308.403
308.313
302.788
302.818
302.859
302.905
302.953
302.999
303.041
303.077
303.103
303.117
303.117
303.103
303.077
303.041
302.999
302.953
302.905
302.859
302.818
302.788
341.14
341.63
342.254
342.935
343.635
344.322
344.955
345.489
345.878
346.084
346.084
345.878
345.489
344.955
344.322
343.635
342.935
342.254
341.63
341.14
335.765
336.18
336.719
337.307
337.913
338.507
339.055
339.516
339.852
340.03
340.03
339.852
339.516
339.055
338.507
337.913
337.307
336.719
336.18
335.765
330.344
330.688
331.142
331.639
332.151
332.653
333.116
333.505
333.789
333.938
333.938
333.789
333.505
333.116
332.653
332.151
331.639
331.142
330.688
330.344
324.884
325.161
325.531
325.938
326.356
326.766
327.144
327.462
327.693
327.816
327.816
327.693
327.462
327.144
326.766
326.356
325.938
325.531
325.161
324.884
319.392
319.605
319.892
320.208
320.533
320.852
321.145
321.392
321.572
321.667
321.667
321.572
321.392
321.145
320.852
320.533
320.208
319.892
319.605
319.392
313.876
314.026
314.231
314.457
314.689
314.916
315.126
315.302
315.43
315.498
315.498
315.43
315.302
315.126
314.916
314.689
314.457
314.231
314.026
313.876
308.342
308.432
308.555
308.69
308.829
308.966
309.092
309.198
309.275
309.315
309.315
309.275
309.198
309.092
308.966
308.829
308.69
308.555
308.432
308.342
302.798
302.828
302.869
302.914
302.961
303.007
303.049
303.084
303.11
303.123
303.123
303.11
303.084
303.049
303.007
302.961
302.914
302.869
302.828
302.798
341.428
341.91
342.524
343.192
343.878
344.55
345.168
345.69
346.069
346.269
346.269
346.069
345.69
345.168
344.55
343.878
343.192
342.524
341.91
341.428
336.015
336.423
336.953
337.531
338.125
338.706
339.241
339.691
340.019
340.191
340.191
340.019
339.691
339.241
338.706
338.125
337.531
336.953
336.423
336.015
330.556
330.895
331.341
331.829
332.331
332.822
333.274
333.654
333.93
334.076
334.076
333.93
333.654
333.274
332.822
332.331
331.829
331.341
330.895
330.556
325.058
325.33
325.694
326.093
326.503
326.905
327.274
327.584
327.81
327.929
327.929
327.81
327.584
327.274
326.905
326.503
326.093
325.694
325.33
325.058
319.528
319.737
320.019
320.329
320.648
320.96
321.247
321.488
321.663
321.755
321.755
321.663
321.488
321.247
320.96
320.648
320.329
320.019
319.737
319.528
313.973
314.121
314.322
314.543
314.771
314.994
315.199
315.371
315.496
315.561
315.561
315.496
315.371
315.199
314.994
314.771
314.543
314.322
314.121
313.973
308.4
308.489
308.609
308.742
308.879
309.013
309.135
309.239
309.314
309.353
309.353
309.314
309.239
309.135
309.013
308.879
308.742
308.609
308.489
308.4
302.817
302.847
302.887
302.932
302.977
303.022
303.063
303.098
303.123
303.136
303.136
303.123
303.098
303.063
303.022
302.977
302.932
302.887
302.847
302.817
341.861
342.332
342.93
343.58
344.246
344.896
345.494
345.996
346.361
346.554
346.554
346.361
345.996
345.494
344.896
344.246
343.58
342.93
342.332
341.861
336.392
336.79
337.306
337.868
338.445
339.007
339.524
339.959
340.274
340.44
340.44
340.274
339.959
339.524
339.007
338.445
337.868
337.306
336.79
336.392
330.875
331.206
331.641
332.116
332.603
333.078
333.515
333.881
334.147
334.288
334.288
334.147
333.881
333.515
333.078
332.603
332.116
331.641
331.206
330.875
325.319
325.585
325.94
326.328
326.726
327.115
327.472
327.771
327.988
328.103
328.103
327.988
327.771
327.472
327.115
326.726
326.328
325.94
325.585
325.319
319.731
319.936
320.211
320.512
320.822
321.124
321.401
321.634
321.802
321.891
321.891
321.802
321.634
321.401
321.124
320.822
320.512
320.211
319.936
319.731
314.118
314.263
314.459
314.674
314.896
315.111
315.309
315.475
315.595
315.659
315.659
315.595
315.475
315.309
315.111
314.896
314.674
314.459
314.263
314.118
308.488
308.574
308.692
308.821
308.954
309.083
309.202
309.302
309.374
309.412
309.412
309.374
309.302
309.202
309.083
308.954
308.821
308.692
308.574
308.488
302.846
302.875
302.915
302.958
303.002
303.046
303.086
303.119
303.143
303.156
303.156
303.143
303.119
303.086
303.046
303.002
302.958
302.915
302.875
302.846
342.441
342.897
343.476
344.103
344.743
345.366
345.937
346.416
346.763
346.946
346.946
346.763
346.416
345.937
345.366
344.743
344.103
343.476
342.897
342.441
336.895
337.281
337.781
338.323
338.877
339.416
339.91
340.324
340.624
340.782
340.782
340.624
340.324
339.91
339.416
338.877
338.323
337.781
337.281
336.895
331.302
331.622
332.043
332.501
332.97
333.426
333.843
334.193
334.446
334.579
334.579
334.446
334.193
333.843
333.426
332.97
332.501
332.043
331.622
331.302
325.669
325.927
326.27
326.644
327.027
327.4
327.741
328.027
328.233
328.342
328.342
328.233
328.027
327.741
327.4
327.027
326.644
326.27
325.927
325.669
320.004
320.202
320.468
320.759
321.057
321.346
321.611
321.833
321.994
322.078
322.078
321.994
321.833
321.611
321.346
321.057
320.759
320.468
320.202
320.004
314.313
314.453
314.643
314.851
315.064
315.27
315.46
315.618
315.733
315.793
315.793
315.733
315.618
315.46
315.27
315.064
314.851
314.643
314.453
314.313
308.605
308.688
308.802
308.927
309.055
309.179
309.292
309.388
309.456
309.493
309.493
309.456
309.388
309.292
309.179
309.055
308.927
308.802
308.688
308.605
302.886
302.914
302.952
302.994
303.036
303.078
303.116
303.148
303.171
303.183
303.183
303.171
303.148
303.116
303.078
303.036
302.994
302.952
302.914
302.886
343.169
343.609
344.164
344.763
345.373
345.965
346.505
346.957
347.284
347.456
347.456
347.284
346.957
346.505
345.965
345.373
344.763
344.164
343.609
343.169
337.528
337.9
338.379
338.897
339.425
339.938
340.405
340.796
341.078
341.227
341.227
341.078
340.796
340.405
339.938
339.425
338.897
338.379
337.9
337.528
331.838
332.147
332.551
332.989
333.435
333.868
334.263
334.593
334.832
334.957
334.957
334.832
334.593
334.263
333.868
333.435
332.989
332.551
332.147
331.838
326.109
326.357
326.686
327.044
327.409
327.763
328.086
328.356
328.551
328.653
328.653
328.551
328.356
328.086
327.763
327.409
327.044
326.686
326.357
326.109
320.346
320.537
320.792
321.07
321.354
321.629
321.88
322.09
322.241
322.321
322.321
322.241
322.09
321.88
321.629
321.354
321.07
320.792
320.537
320.346
314.558
314.693
314.875
315.074
315.277
315.473
315.652
315.802
315.91
315.967
315.967
315.91
315.802
315.652
315.473
315.277
315.074
314.875
314.693
314.558
308.752
308.833
308.942
309.061
309.183
309.301
309.408
309.498
309.563
309.597
309.597
309.563
309.498
309.408
309.301
309.183
309.061
308.942
308.833
308.752
302.935
302.962
302.998
303.038
303.079
303.119
303.155
303.185
303.207
303.218
303.218
303.207
303.185
303.155
303.119
303.079
303.038
302.998
302.962
302.935
344.048
344.468
344.998
345.566
346.143
346.7
347.206
347.629
347.933
348.093
348.093
347.933
347.629
347.206
346.7
346.143
345.566
344.998
344.468
344.048
338.291
338.647
339.103
339.595
340.095
340.577
341.015
341.381
341.644
341.782
341.782
341.644
341.381
341.015
340.577
340.095
339.595
339.103
338.647
338.291
332.486
332.78
333.165
333.581
334.003
334.411
334.781
335.09
335.312
335.429
335.429
335.312
335.09
334.781
334.411
334.003
333.581
333.165
332.78
332.486
326.639
326.876
327.19
327.53
327.875
328.209
328.512
328.764
328.945
329.041
329.041
328.945
328.764
328.512
328.209
327.875
327.53
327.19
326.876
326.639
320.759
320.941
321.185
321.449
321.718
321.977
322.212
322.408
322.549
322.623
322.623
322.549
322.408
322.212
321.977
321.718
321.449
321.185
320.941
320.759
314.854
314.983
315.156
315.345
315.537
315.722
315.89
316.03
316.13
316.183
316.183
316.13
316.03
315.89
315.722
315.537
315.345
315.156
314.983
314.854
308.93
309.007
309.111
309.224
309.339
309.45
309.551
309.635
309.696
309.727
309.727
309.696
309.635
309.551
309.45
309.339
309.224
309.111
309.007
308.93
302.995
303.02
303.055
303.093
303.132
303.169
303.203
303.231
303.251
303.262
303.262
303.251
303.231
303.203
303.169
303.132
303.093
303.055
303.02
302.995
345.08
345.479
345.98
346.516
347.057
347.577
348.048
348.439
348.72
348.868
348.868
348.72
348.439
348.048
347.577
347.057
346.516
345.98
345.479
345.08
339.187
339.525
339.957
340.421
340.89
341.34
341.748
342.086
342.329
342.457
342.457
342.329
342.086
341.748
341.34
340.89
340.421
339.957
339.525
339.187
333.245
333.525
333.89
334.282
334.678
335.059
335.403
335.689
335.895
336.003
336.003
335.895
335.689
335.403
335.059
334.678
334.282
333.89
333.525
333.245
327.262
327.487
327.784
328.105
328.429
328.74
329.022
329.256
329.424
329.511
329.511
329.424
329.256
329.022
328.74
328.429
328.105
327.784
327.487
327.262
321.244
321.417
321.648
321.897
322.149
322.391
322.61
322.792
322.922
322.991
322.991
322.922
322.792
322.61
322.391
322.149
321.897
321.648
321.417
321.244
315.201
315.323
315.487
315.665
315.845
316.018
316.175
316.304
316.398
316.446
316.446
316.398
316.304
316.175
316.018
315.845
315.665
315.487
315.323
315.201
309.138
309.211
309.31
309.417
309.525
309.629
309.722
309.8
309.856
309.886
309.886
309.856
309.8
309.722
309.629
309.525
309.417
309.31
309.211
309.138
303.064
303.089
303.122
303.158
303.194
303.229
303.26
303.286
303.305
303.315
303.315
303.305
303.286
303.26
303.229
303.194
303.158
303.122
303.089
303.064
346.267
346.644
347.115
347.617
348.121
348.603
349.038
349.398
349.655
349.79
349.79
349.655
349.398
349.038
348.603
348.121
347.617
347.115
346.644
346.267
340.218
340.537
340.944
341.378
341.815
342.233
342.609
342.92
343.143
343.26
343.26
343.143
342.92
342.609
342.233
341.815
341.378
340.944
340.537
340.218
334.119
334.384
334.727
335.094
335.463
335.816
336.135
336.398
336.586
336.685
336.685
336.586
336.398
336.135
335.816
335.463
335.094
334.727
334.384
334.119
327.978
328.191
328.47
328.771
329.073
329.362
329.622
329.837
329.991
330.071
330.071
329.991
329.837
329.622
329.362
329.073
328.771
328.47
328.191
327.978
321.802
321.966
322.182
322.416
322.651
322.875
323.078
323.245
323.365
323.427
323.427
323.365
323.245
323.078
322.875
322.651
322.416
322.182
321.966
321.802
315.6
315.715
315.87
316.037
316.204
316.365
316.509
316.629
316.714
316.759
316.759
316.714
316.629
316.509
316.365
316.204
316.037
315.87
315.715
315.6
309.378
309.447
309.54
309.64
309.741
309.837
309.924
309.995
310.047
310.074
310.074
310.047
309.995
309.924
309.837
309.741
309.64
309.54
309.447
309.378
303.145
303.168
303.199
303.233
303.266
303.299
303.328
303.352
303.369
303.378
303.378
303.369
303.352
303.328
303.299
303.266
303.233
303.199
303.168
303.145
347.612
347.966
348.407
348.874
349.34
349.785
350.184
350.512
350.747
350.869
350.869
350.747
350.512
350.184
349.785
349.34
348.874
348.407
347.966
347.612
341.386
341.686
342.066
342.471
342.875
343.26
343.605
343.89
344.093
344.199
344.199
344.093
343.89
343.605
343.26
342.875
342.471
342.066
341.686
341.386
335.109
335.358
335.679
336.021
336.363
336.688
336.98
337.221
337.392
337.482
337.482
337.392
337.221
336.98
336.688
336.363
336.021
335.679
335.358
335.109
328.789
328.989
329.251
329.531
329.81
330.077
330.315
330.512
330.652
330.726
330.726
330.652
330.512
330.315
330.077
329.81
329.531
329.251
328.989
328.789
322.434
322.588
322.791
323.008
323.226
323.433
323.618
323.771
323.88
323.937
323.937
323.88
323.771
323.618
323.433
323.226
323.008
322.791
322.588
322.434
316.052
316.16
316.305
316.46
316.616
316.764
316.896
317.006
317.084
317.124
317.124
317.084
317.006
316.896
316.764
316.616
316.46
316.305
316.16
316.052
309.65
309.715
309.801
309.895
309.988
310.077
310.156
310.222
310.269
310.293
310.293
310.269
310.222
310.156
310.077
309.988
309.895
309.801
309.715
309.65
303.236
303.258
303.287
303.318
303.349
303.379
303.406
303.428
303.443
303.452
303.452
303.443
303.428
303.406
303.379
303.349
303.318
303.287
303.258
303.236
349.116
349.447
349.857
350.29
350.72
351.127
351.491
351.789
352.001
352.112
352.112
352.001
351.789
351.491
351.127
350.72
350.29
349.857
349.447
349.116
342.693
342.973
343.327
343.702
344.074
344.427
344.742
345
345.184
345.28
345.28
345.184
345
344.742
344.427
344.074
343.702
343.327
342.973
342.693
336.217
336.449
336.748
337.065
337.38
337.678
337.945
338.163
338.319
338.4
338.4
338.319
338.163
337.945
337.678
337.38
337.065
336.748
336.449
336.217
329.697
329.884
330.128
330.387
330.645
330.889
331.107
331.285
331.413
331.479
331.479
331.413
331.285
331.107
330.889
330.645
330.387
330.128
329.884
329.697
323.141
323.285
323.474
323.675
323.876
324.066
324.235
324.374
324.473
324.524
324.524
324.473
324.374
324.235
324.066
323.876
323.675
323.474
323.285
323.141
316.557
316.659
316.794
316.938
317.081
317.217
317.338
317.437
317.508
317.544
317.544
317.508
317.437
317.338
317.217
317.081
316.938
316.794
316.659
316.557
309.954
310.014
310.095
310.181
310.268
310.349
310.422
310.481
310.524
310.546
310.546
310.524
310.481
310.422
310.349
310.268
310.181
310.095
310.014
309.954
303.338
303.358
303.385
303.414
303.443
303.47
303.495
303.515
303.529
303.536
303.536
303.529
303.515
303.495
303.47
303.443
303.414
303.385
303.358
303.338
350.781
351.089
351.47
351.869
352.263
352.635
352.965
353.234
353.426
353.525
353.525
353.426
353.234
352.965
352.635
352.263
351.869
351.47
351.089
350.781
344.139
344.4
344.729
345.074
345.416
345.738
346.024
346.257
346.423
346.509
346.509
346.423
346.257
346.024
345.738
345.416
345.074
344.729
344.4
344.139
337.443
337.66
337.937
338.229
338.518
338.79
339.032
339.23
339.37
339.443
339.443
339.37
339.23
339.032
338.79
338.518
338.229
337.937
337.66
337.443
330.702
330.876
331.102
331.341
331.578
331.8
331.998
332.16
332.275
332.334
332.334
332.275
332.16
331.998
331.8
331.578
331.341
331.102
330.876
330.702
323.924
324.058
324.233
324.419
324.603
324.776
324.93
325.056
325.145
325.191
325.191
325.145
325.056
324.93
324.776
324.603
324.419
324.233
324.058
323.924
317.117
317.212
317.337
317.47
317.601
317.725
317.835
317.925
317.989
318.022
318.022
317.989
317.925
317.835
317.725
317.601
317.47
317.337
317.212
317.117
310.29
310.347
310.422
310.501
310.58
310.655
310.721
310.775
310.813
310.833
310.833
310.813
310.775
310.721
310.655
310.58
310.501
310.422
310.347
310.29
303.451
303.47
303.495
303.521
303.548
303.573
303.595
303.613
303.626
303.633
303.633
303.626
303.613
303.595
303.573
303.548
303.521
303.495
303.47
303.451
352.609
352.895
353.247
353.613
353.973
354.311
354.609
354.852
355.024
355.113
355.113
355.024
354.852
354.609
354.311
353.973
353.613
353.247
352.895
352.609
345.727
345.969
346.272
346.59
346.902
347.194
347.453
347.664
347.812
347.89
347.89
347.812
347.664
347.453
347.194
346.902
346.59
346.272
345.969
345.727
338.79
338.99
339.246
339.514
339.778
340.026
340.245
340.423
340.549
340.614
340.614
340.549
340.423
340.245
340.026
339.778
339.514
339.246
338.99
338.79
331.805
331.967
332.175
332.395
332.611
332.814
332.993
333.138
333.242
333.295
333.295
333.242
333.138
332.993
332.814
332.611
332.395
332.175
331.967
331.805
324.783
324.907
325.069
325.24
325.408
325.566
325.705
325.818
325.898
325.94
325.94
325.898
325.818
325.705
325.566
325.408
325.24
325.069
324.907
324.783
317.732
317.82
317.935
318.057
318.177
318.29
318.389
318.47
318.528
318.557
318.557
318.528
318.47
318.389
318.29
318.177
318.057
317.935
317.82
317.732
310.66
310.712
310.781
310.854
310.927
310.994
311.054
311.103
311.137
311.155
311.155
311.137
311.103
311.054
310.994
310.927
310.854
310.781
310.712
310.66
303.575
303.592
303.615
303.64
303.664
303.687
303.707
303.723
303.735
303.741
303.741
303.735
303.723
303.707
303.687
303.664
303.64
303.615
303.592
303.575
354.6
354.865
355.188
355.524
355.852
356.157
356.427
356.645
356.798
356.878
356.878
356.798
356.645
356.427
356.157
355.852
355.524
355.188
354.865
354.6
347.456
347.68
347.959
348.25
348.534
348.799
349.032
349.221
349.354
349.423
349.423
349.354
349.221
349.032
348.799
348.534
348.25
347.959
347.68
347.456
340.255
340.441
340.676
340.922
341.162
341.387
341.584
341.744
341.857
341.915
341.915
341.857
341.744
341.584
341.387
341.162
340.922
340.676
340.441
340.255
333.006
333.156
333.348
333.549
333.746
333.929
334.091
334.222
334.314
334.362
334.362
334.314
334.222
334.091
333.929
333.746
333.549
333.348
333.156
333.006
325.719
325.833
325.982
326.139
326.292
326.435
326.56
326.662
326.734
326.771
326.771
326.734
326.662
326.56
326.435
326.292
326.139
325.982
325.833
325.719
318.401
318.482
318.588
318.7
318.809
318.912
319.001
319.074
319.125
319.152
319.152
319.125
319.074
319.001
318.912
318.809
318.7
318.588
318.482
318.401
311.062
311.11
311.174
311.241
311.307
311.368
311.422
311.466
311.496
311.512
311.512
311.496
311.466
311.422
311.368
311.307
311.241
311.174
311.11
311.062
303.709
303.726
303.747
303.769
303.791
303.812
303.83
303.845
303.855
303.86
303.86
303.855
303.845
303.83
303.812
303.791
303.769
303.747
303.726
303.709
356.751
356.995
357.292
357.598
357.896
358.172
358.415
358.61
358.747
358.818
358.818
358.747
358.61
358.415
358.172
357.896
357.598
357.292
356.995
356.751
349.323
349.529
349.786
350.051
350.31
350.549
350.759
350.928
351.047
351.109
351.109
351.047
350.928
350.759
350.549
350.31
350.051
349.786
349.529
349.323
341.837
342.008
342.224
342.449
342.668
342.87
343.048
343.191
343.292
343.344
343.344
343.292
343.191
343.048
342.87
342.668
342.449
342.224
342.008
341.837
334.303
334.44
334.616
334.8
334.979
335.145
335.29
335.408
335.49
335.533
335.533
335.49
335.408
335.29
335.145
334.979
334.8
334.616
334.44
334.303
326.728
326.834
326.97
327.113
327.252
327.382
327.495
327.586
327.65
327.683
327.683
327.65
327.586
327.495
327.382
327.252
327.113
326.97
326.834
326.728
319.123
319.197
319.295
319.397
319.496
319.589
319.67
319.735
319.781
319.805
319.805
319.781
319.735
319.67
319.589
319.496
319.397
319.295
319.197
319.123
311.495
311.54
311.598
311.66
311.72
311.775
311.824
311.863
311.89
311.905
311.905
311.89
311.863
311.824
311.775
311.72
311.66
311.598
311.54
311.495
303.855
303.87
303.889
303.91
303.93
303.949
303.965
303.978
303.987
303.992
303.992
303.987
303.978
303.965
303.949
303.93
303.91
303.889
303.87
303.855
359.052
359.276
359.549
359.828
360.098
360.347
360.565
360.74
360.862
360.925
360.925
360.862
360.74
360.565
360.347
360.098
359.828
359.549
359.276
359.052
351.319
351.509
351.744
351.986
352.22
352.437
352.625
352.777
352.883
352.938
352.938
352.883
352.777
352.625
352.437
352.22
351.986
351.744
351.509
351.319
343.527
343.685
343.883
344.088
344.286
344.469
344.629
344.757
344.847
344.894
344.894
344.847
344.757
344.629
344.469
344.286
344.088
343.883
343.685
343.527
335.686
335.813
335.975
336.142
336.304
336.454
336.585
336.69
336.764
336.802
336.802
336.764
336.69
336.585
336.454
336.304
336.142
335.975
335.813
335.686
327.805
327.902
328.028
328.158
328.284
328.401
328.503
328.584
328.642
328.671
328.671
328.642
328.584
328.503
328.401
328.284
328.158
328.028
327.902
327.805
319.892
319.961
320.051
320.144
320.234
320.317
320.39
320.449
320.49
320.511
320.511
320.49
320.449
320.39
320.317
320.234
320.144
320.051
319.961
319.892
311.958
311.999
312.052
312.108
312.163
312.213
312.256
312.292
312.316
312.329
312.329
312.316
312.292
312.256
312.213
312.163
312.108
312.052
311.999
311.958
304.01
304.024
304.042
304.06
304.079
304.095
304.11
304.122
304.13
304.134
304.134
304.13
304.122
304.11
304.095
304.079
304.06
304.042
304.024
304.01
361.478
361.684
361.933
362.188
362.433
362.658
362.853
363.009
363.119
363.175
363.175
363.119
363.009
362.853
362.658
362.433
362.188
361.933
361.684
361.478
353.42
353.594
353.809
354.03
354.242
354.437
354.607
354.742
354.837
354.886
354.886
354.837
354.742
354.607
354.437
354.242
354.03
353.809
353.594
353.42
345.303
345.448
345.629
345.816
345.996
346.161
346.304
346.419
346.5
346.541
346.541
346.5
346.419
346.304
346.161
345.996
345.816
345.629
345.448
345.303
337.138
337.254
337.402
337.555
337.702
337.838
337.955
338.049
338.115
338.149
338.149
338.115
338.049
337.955
337.838
337.702
337.555
337.402
337.254
337.138
328.933
329.023
329.137
329.256
329.371
329.476
329.568
329.641
329.692
329.719
329.719
329.692
329.641
329.568
329.476
329.371
329.256
329.137
329.023
328.933
320.698
320.762
320.843
320.928
321.01
321.085
321.151
321.203
321.24
321.259
321.259
321.24
321.203
321.151
321.085
321.01
320.928
320.843
320.762
320.698
312.442
312.479
312.528
312.579
312.629
312.674
312.713
312.745
312.767
312.778
312.778
312.767
312.745
312.713
312.674
312.629
312.579
312.528
312.479
312.442
304.172
304.185
304.201
304.218
304.235
304.25
304.263
304.274
304.281
304.285
304.285
304.281
304.274
304.263
304.25
304.235
304.218
304.201
304.185
304.172
363.964
364.154
364.382
364.614
364.837
365.04
365.216
365.356
365.454
365.504
365.504
365.454
365.356
365.216
365.04
364.837
364.614
364.382
364.154
363.964
355.562
355.723
355.92
356.121
356.314
356.491
356.644
356.765
356.85
356.894
356.894
356.85
356.765
356.644
356.491
356.314
356.121
355.92
355.723
355.562
347.107
347.24
347.406
347.577
347.74
347.89
348.019
348.123
348.195
348.232
348.232
348.195
348.123
348.019
347.89
347.74
347.577
347.406
347.24
347.107
338.607
338.714
338.85
338.99
339.124
339.246
339.352
339.437
339.496
339.526
339.526
339.496
339.437
339.352
339.246
339.124
338.99
338.85
338.714
338.607
330.072
330.154
330.26
330.368
330.473
330.568
330.65
330.716
330.762
330.786
330.786
330.762
330.716
330.65
330.568
330.473
330.368
330.26
330.154
330.072
321.51
321.568
321.643
321.721
321.795
321.863
321.922
321.97
322.002
322.019
322.019
322.002
321.97
321.922
321.863
321.795
321.721
321.643
321.568
321.51
312.928
312.963
313.008
313.054
313.099
313.14
313.176
313.204
313.224
313.234
313.234
313.224
313.204
313.176
313.14
313.099
313.054
313.008
312.963
312.928
304.335
304.347
304.362
304.377
304.392
304.406
304.418
304.427
304.434
304.437
304.437
304.434
304.427
304.418
304.406
304.392
304.377
304.362
304.347
304.335
366.348
366.524
366.734
366.948
367.151
367.336
367.496
367.623
367.711
367.757
367.757
367.711
367.623
367.496
367.336
367.151
366.948
366.734
366.524
366.348
357.592
357.741
357.923
358.108
358.285
358.446
358.585
358.695
358.772
358.812
358.812
358.772
358.695
358.585
358.446
358.285
358.108
357.923
357.741
357.592
348.797
348.921
349.074
349.231
349.381
349.518
349.636
349.73
349.795
349.828
349.828
349.795
349.73
349.636
349.518
349.381
349.231
349.074
348.921
348.797
339.972
340.071
340.196
340.325
340.448
340.56
340.657
340.734
340.787
340.815
340.815
340.787
340.734
340.657
340.56
340.448
340.325
340.196
340.071
339.972
331.122
331.198
331.295
331.396
331.491
331.579
331.654
331.714
331.756
331.777
331.777
331.756
331.714
331.654
331.579
331.491
331.396
331.295
331.198
331.122
322.253
322.307
322.377
322.448
322.517
322.58
322.634
322.676
322.706
322.722
322.722
322.706
322.676
322.634
322.58
322.517
322.448
322.377
322.307
322.253
313.372
313.404
313.446
313.489
313.53
313.568
313.6
313.626
313.644
313.653
313.653
313.644
313.626
313.6
313.568
313.53
313.489
313.446
313.404
313.372
304.483
304.494
304.508
304.523
304.536
304.549
304.56
304.568
304.575
304.578
304.578
304.575
304.568
304.56
304.549
304.536
304.523
304.508
304.494
304.483
368.209
368.375
368.572
368.773
368.963
369.136
369.284
369.402
369.484
369.526
369.526
369.484
369.402
369.284
369.136
368.963
368.773
368.572
368.375
368.209
359.117
359.257
359.429
359.603
359.769
359.92
360.049
360.152
360.224
360.26
360.26
360.224
360.152
360.049
359.92
359.769
359.603
359.429
359.257
359.117
350.028
350.145
350.29
350.438
350.579
350.708
350.818
350.906
350.966
350.998
350.998
350.966
350.906
350.818
350.708
350.579
350.438
350.29
350.145
350.028
340.941
341.035
341.154
341.276
341.392
341.497
341.588
341.66
341.71
341.735
341.735
341.71
341.66
341.588
341.497
341.392
341.276
341.154
341.035
340.941
331.853
331.926
332.018
332.113
332.204
332.286
332.357
332.413
332.452
332.472
332.472
332.452
332.413
332.357
332.286
332.204
332.113
332.018
331.926
331.853
322.765
322.816
322.882
322.95
323.015
323.074
323.124
323.165
323.193
323.207
323.207
323.193
323.165
323.124
323.074
323.015
322.95
322.882
322.816
322.765
313.675
313.705
313.745
313.786
313.825
313.86
313.891
313.915
313.932
313.941
313.941
313.932
313.915
313.891
313.86
313.825
313.786
313.745
313.705
313.675
304.584
304.594
304.608
304.621
304.634
304.646
304.657
304.665
304.67
304.673
304.673
304.67
304.665
304.657
304.646
304.634
304.621
304.608
304.594
304.584
)
;

boundaryField
{
    hotSide
    {
        type            fixedGradient;
        gradient        nonuniform List<scalar> 
400
(
424.174
425.676
428.686
433.213
439.272
446.882
456.064
466.84
479.234
493.27
508.971
526.359
545.453
566.27
588.828
613.138
639.213
667.061
696.689
728.104
430.669
432.12
435.028
439.408
445.28
452.666
461.596
472.098
484.204
497.942
513.343
530.433
549.235
569.771
592.059
616.114
641.948
669.571
698.99
730.21
437.698
439.087
441.876
446.081
451.73
458.853
467.488
477.672
489.445
502.843
517.904
534.658
553.136
573.36
595.352
619.129
644.704
672.086
701.283
732.3
445.144
446.462
449.111
453.114
458.506
465.327
473.626
483.45
494.848
507.868
522.552
538.94
557.064
576.953
598.631
622.114
647.417
674.549
703.517
734.325
452.801
454.038
456.53
460.306
465.412
471.899
479.827
489.258
500.25
512.863
527.146
543.146
560.901
580.442
601.795
624.979
650.007
676.888
705.628
736.23
460.347
461.498
463.822
467.357
472.159
478.294
485.834
494.855
505.43
517.625
531.501
547.111
564.497
583.694
604.729
627.62
652.382
679.023
707.546
737.953
467.351
468.417
470.573
473.869
478.37
484.158
491.319
499.942
510.112
521.908
535.398
550.64
567.681
586.559
607.3
629.925
654.446
680.869
709.198
739.431
473.296
474.284
476.29
479.37
483.603
489.081
495.906
504.179
513.996
525.445
538.6
553.527
570.275
588.882
609.377
631.779
656.099
682.344
710.513
740.604
477.647
478.575
480.466
483.381
487.41
492.654
499.225
507.234
516.787
527.977
540.886
555.58
572.113
590.523
610.84
633.081
657.257
683.373
711.428
741.418
479.952
480.848
482.676
485.502
489.419
494.536
500.971
508.838
518.249
529.301
542.078
556.649
573.067
591.373
611.596
633.752
657.853
683.902
711.898
741.836
479.952
480.848
482.676
485.502
489.419
494.536
500.971
508.838
518.249
529.301
542.078
556.649
573.067
591.373
611.596
633.752
657.853
683.902
711.898
741.836
477.647
478.575
480.466
483.381
487.41
492.654
499.225
507.234
516.787
527.977
540.886
555.58
572.113
590.523
610.84
633.081
657.257
683.373
711.428
741.418
473.296
474.284
476.29
479.37
483.603
489.081
495.906
504.179
513.996
525.445
538.6
553.527
570.275
588.882
609.377
631.779
656.099
682.344
710.513
740.604
467.351
468.417
470.573
473.869
478.37
484.158
491.319
499.942
510.112
521.908
535.398
550.64
567.681
586.559
607.3
629.925
654.446
680.869
709.198
739.431
460.347
461.498
463.822
467.357
472.159
478.294
485.834
494.855
505.43
517.625
531.501
547.111
564.497
583.694
604.729
627.62
652.382
679.023
707.546
737.953
452.801
454.038
456.53
460.306
465.412
471.899
479.827
489.258
500.25
512.863
527.146
543.146
560.901
580.442
601.795
624.979
650.007
676.888
705.628
736.23
445.144
446.462
449.111
453.114
458.506
465.327
473.626
483.45
494.848
507.868
522.552
538.94
557.064
576.953
598.631
622.114
647.417
674.549
703.517
734.325
437.698
439.087
441.876
446.081
451.73
458.853
467.488
477.672
489.445
502.843
517.904
534.658
553.136
573.36
595.352
619.129
644.704
672.086
701.283
732.3
430.669
432.12
435.028
439.408
445.28
452.666
461.596
472.098
484.204
497.942
513.343
530.433
549.235
569.771
592.059
616.114
641.948
669.571
698.99
730.21
424.174
425.676
428.686
433.213
439.272
446.882
456.064
466.84
479.234
493.27
508.971
526.359
545.453
566.27
588.828
613.138
639.213
667.061
696.689
728.104
)
;
    }
    coldSide
    {
        type            mixed;
        refValue        uniform 300;
        refGradient     uniform 0;
        valueFraction   uniform 0.991591;
        source          uniform 0;
        value           nonuniform List<scalar> 
400
(
300.023
300.024
300.024
300.024
300.024
300.025
300.025
300.026
300.026
300.027
300.028
300.029
300.03
300.031
300.032
300.034
300.035
300.036
300.038
300.039
300.024
300.024
300.024
300.024
300.025
300.025
300.025
300.026
300.027
300.027
300.028
300.029
300.03
300.031
300.033
300.034
300.035
300.037
300.038
300.039
300.024
300.024
300.024
300.025
300.025