/*--------------------------------*- C++ -*----------------------------------*\
| =========                 |                                                 |
| \\      /  F ield         | OpenFOAM: The Open Source CFD Toolbox           |
|  \\    /   O peration     | Version:  2212                                  |
|   \\  /    A nd           | Website:  www.openfoam.com                      |
|    \\/     M anipulation  |                                                 |
\*---------------------------------------------------------------------------*/
FoamFile
{
    version     2.0;
    format      ascii;
    arch        "LSB;label=32;scalar=64";
    class       volScalarField;
    location    "./ITHACAoutput/true/1.6";
    object      error;
}
// * * * * * * * * * * * * * * * * * * * * * * * * * * * * * * * * * * * * * //

dimensions      [0 0 0 1 0 0 0];

internalField   nonuniform List<scalar> 
3200
(
-4.52544
-2.65102
-0.537467
0.95763
2.2118
3.16254
3.84546
4.3335
4.61923
4.73111
4.64109
4.59174
4.31134
3.98649
3.51306
2.91413
2.16708
0.953617
-0.739322
-2.54185
-3.77182
-2.14949
-0.475502
0.843261
1.89536
2.70099
3.27442
3.67689
3.94782
3.98902
4.02771
3.80606
3.71484
3.38509
2.94345
2.48243
1.72119
0.689697
-0.675913
-2.30845
-3.16077
-1.83187
-0.354519
0.70864
1.64636
2.23888
2.77037
3.11921
3.27483
3.27365
3.30684
3.19535
3.01551
2.68481
2.40645
1.99225
1.37044
0.438292
-0.717672
-1.93043
-2.53828
-1.49879
-0.250578
0.588052
1.28455
1.79289
2.2807
2.46926
2.58932
2.68251
2.64162
2.57718
2.41261
2.18413
1.95155
1.56251
1.12403
0.313059
-0.658783
-1.6014
-1.94185
-1.13693
-0.148189
0.402336
1.11104
1.44647
1.7165
1.87712
2.01964
2.07974
2.05626
1.92138
1.90095
1.66058
1.50714
1.23454
0.761621
0.202026
-0.573018
-1.34638
-1.32995
-0.719637
-0.174442
0.371564
0.720787
1.0748
1.3026
1.43885
1.44299
1.4493
1.46697
1.38594
1.30981
1.21348
1.05222
0.791463
0.595757
0.162244
-0.308067
-0.868764
-0.863776
-0.449244
-0.154045
0.249267
0.444673
0.669312
0.701045
0.799414
0.868691
0.875228
0.796697
0.830939
0.782986
0.732095
0.659363
0.494457
0.380865
0.0595793
-0.163185
-0.511931
-0.29957
-0.145199
-0.0377891
0.0391559
0.191407
0.230009
0.26521
0.240548
0.288316
0.215056
0.199238
0.270897
0.243764
0.321834
0.148698
0.111665
0.136434
0.0127592
-0.12431
-0.142164
-4.42455
-2.46234
-0.446385
1.1383
2.23604
3.03834
3.59735
3.98255
4.28326
4.43027
4.33241
4.17752
3.9292
3.66999
3.3274
2.78739
2.12009
0.935181
-0.660443
-2.38532
-3.74535
-1.98348
-0.488082
0.834107
1.74901
2.58824
3.07724
3.41711
3.6158
3.66512
3.71168
3.50771
3.364
3.09727
2.79053
2.35903
1.71494
0.61616
-0.610194
-2.17293
-3.03798
-1.76008
-0.32663
0.795081
1.59764
2.18285
2.63901
2.90265
3.10438
3.13125
3.00685
2.83883
2.79323
2.54282
2.27096
1.91624
1.40263
0.456831
-0.672848
-1.82215
-2.49066
-1.43597
-0.277076
0.583846
1.20508
1.82109
2.15453
2.35101
2.44806
2.4984
2.3739
2.33355
2.25419
1.98855
1.84086
1.46131
0.997952
0.301909
-0.626029
-1.53394
-1.91913
-1.13714
-0.172166
0.494025
0.996214
1.33773
1.64915
1.85183
1.92392
1.89363
1.86212
1.81009
1.6757
1.45855
1.41905
1.13309
0.770612
0.222598
-0.573662
-1.19701
-1.40241
-0.789234
-0.163191
0.333213
0.744771
1.00992
1.18091
1.23512
1.41613
1.42781
1.33542
1.29248
1.23835
1.10099
0.899297
0.728862
0.54372
0.144556
-0.356431
-0.923156
-0.818405
-0.466409
-0.102515
0.161086
0.443856
0.527015
0.672246
0.722987
0.686837
0.732295
0.796531
0.765195
0.692357
0.687577
0.643686
0.382374
0.269702
0.136655
-0.159053
-0.507712
-0.377877
-0.222995
-0.0312895
0.0916216
0.120946
0.165159
0.234902
0.218246
0.267751
0.266074
0.254762
0.276696
0.28352
0.227558
0.250468
0.159916
0.105619
0.00453309
-0.0558285
-0.172602
-4.32336
-2.37263
-0.451595
0.997648
2.00189
2.78857
3.25215
3.51192
3.73564
3.84197
3.63212
3.50736
3.40693
3.26765
2.90144
2.58944
1.8973
0.81806
-0.653542
-2.30481
-3.60901
-2.06021
-0.371503
0.869569
1.66582
2.32526
2.80883
3.13611
3.21741
3.17775
3.09899
2.9748
2.86535
2.72506
2.51994
2.05962
1.57848
0.678514
-0.661343
-2.10171
-2.94643
-1.60946
-0.299907
0.706513
1.42954
2.03279
2.36496
2.5475
2.71719
2.62994
2.54143
2.48742
2.41114
2.21052
2.02199
1.72299
1.25317
0.423344
-0.601815
-1.7442
-2.46292
-1.36115
-0.249048
0.55503
1.14123
1.57951
1.92943
2.01494
2.14817
2.11084
2.05104
2.039
1.84625
1.83039
1.65821
1.35444
0.937916
0.368639
-0.492308
-1.47013
-1.90102
-1.05045
-0.148639
0.407582
0.91008
1.37503
1.45892
1.64999
1.71146
1.70467
1.53754
1.58325
1.4308
1.25955
1.21855
0.986063
0.675268
0.190732
-0.470408
-1.18174
-1.34913
-0.804239
-0.133966
0.355616
0.695181
0.879294
1.01037
1.06359
1.19086
1.18934
1.13871
1.12367
1.0081
0.961429
0.778302
0.721409
0.418495
0.124405
-0.397664
-0.867028
-0.801418
-0.433056
-0.0509002
0.161368
0.399129
0.499173
0.677534
0.657108
0.704298
0.647602
0.719724
0.612786
0.601944
0.514157
0.519952
0.414966
0.317794
0.097093
-0.241935
-0.485072
-0.260713
-0.190375
-0.0533989
0.0605926
0.160294
0.213512
0.24999
0.191267
0.228535
0.175914
0.185435
0.182521
0.177954
0.161725
0.165929
0.0645465
0.203612
0.0272572
-0.0725893
-0.062835
-4.26244
-2.35579
-0.606511
0.827738
1.76305
2.42269
2.86379
3.01904
3.06074
2.95539
2.83343
2.79024
2.70245
2.6195
2.55509
2.23004
1.67528
0.642188
-0.774247
-2.39013
-3.61081
-2.017
-0.597171
0.654102
1.58585
2.08077
2.39203
2.52152
2.62315
2.46333
2.39967
2.26062
2.27605
2.17076
2.09308
1.77921
1.32702
0.442889
-0.815182
-2.19198
-2.96854
-1.68135
-0.45407
0.557212
1.31687
1.75408
2.01041
2.17152
2.20776
2.12393
1.99383
1.95761
1.85234
1.70634
1.68929
1.43444
1.02944
0.336513
-0.749207
-1.80978
-2.36303
-1.38644
-0.36123
0.509723
1.0767
1.35398
1.67373
1.72594
1.74653
1.64606
1.56482
1.46756
1.46791
1.37972
1.27443
1.21173
0.776424
0.153079
-0.613139
-1.54779
-1.82927
-1.1078
-0.297363
0.359479
0.757553
1.1149
1.28087
1.31885
1.37392
1.18788
1.28025
1.0792
1.06098
1.05688
1.04243
0.8888
0.536434
0.0828951
-0.479789
-1.26381
-1.21562
-0.788998
-0.211233
0.247826
0.62066
0.841662
0.89783
0.927835
0.919449
0.923358
0.842495
0.84222
0.806599
0.730393
0.701764
0.58577
0.293755
0.0489555
-0.330304
-0.873436
-0.759282
-0.477557
-0.0990963
0.166545
0.350524
0.483331
0.466348
0.571172
0.525598
0.472856
0.530193
0.419132
0.447999
0.485222
0.436061
0.289234
0.248255
0.0874872
-0.252904
-0.542298
-0.292161
-0.200599
-0.0438076
0.0914945
0.146935
0.200861
0.122294
0.135165
0.163022
0.175074
0.198378
0.14675
0.114029
0.0698194
0.163571
0.111383
0.0998285
-0.0175292
-0.126544
-0.113176
-4.22693
-2.47375
-0.683015
0.539507
1.38666
1.91017
2.28407
2.40232
2.20141
2.15167
1.96052
1.82823
1.82935
1.86117
1.88416
1.7643
1.29719
0.426345
-0.962983
-2.4467
-3.65335
-2.14965
-0.688048
0.507852
1.24763
1.67902
1.9447
1.98041
1.98272
1.76043
1.6238
1.4739
1.54537
1.61476
1.56215
1.4182
0.968899
0.248549
-0.945382
-2.15323
-2.9571
-1.82413
-0.523727
0.41063
0.98169
1.34743
1.57335
1.66737
1.57625
1.40477
1.30534
1.1334
1.26712
1.27993
1.34106
1.11644
0.749887
0.165702
-0.852818
-1.91671
-2.41203
-1.43003
-0.4815
0.337449
0.83599
1.17528
1.32634
1.34487
1.2614
1.20704
0.989174
1.04763
0.947499
1.0176
0.962051
0.873054
0.58745
0.0448999
-0.811938
-1.62008
-1.85986
-1.10214
-0.397624
0.233621
0.594589
0.871669
1.00744
1.05749
0.946281
0.843991
0.78767
0.661063
0.769282
0.703839
0.703038
0.627166
0.413808
0.0114164
-0.64969
-1.27336
-1.31103
-0.860688
-0.220774
0.163151
0.504343
0.614589
0.742214
0.732607
0.708886
0.630514
0.626933
0.548859
0.475283
0.501016
0.529391
0.42174
0.22468
-0.0286957
-0.475536
-0.900005
-0.798121
-0.439624
-0.121742
0.0867099
0.267867
0.346625
0.414625
0.414988
0.410543
0.375794
0.347766
0.31101
0.367201
0.24486
0.206612
0.203031
0.138445
-0.040516
-0.263233
-0.609441
-0.259214
-0.158259
-0.0602779
0.0681813
0.0825672
0.113035
0.148388
0.135515
0.124736
0.0643575
0.122909
0.122447
0.121993
0.155137
0.134407
0.0643307
0.0834607
0.0313379
-0.124802
-0.223983
-4.34249
-2.60137
-0.897709
0.168241
1.04252
1.5063
1.69525
1.7451
1.43109
1.28348
1.03635
0.901217
1.09231
1.15942
1.31711
1.21103
0.899445
0.0447847
-1.16703
-2.55864
-3.66957
-2.23669
-0.876097
0.226553
0.926824
1.30249
1.44661
1.37954
1.19973
1.00025
0.791325
0.725639
0.784677
0.904626
1.03936
0.929792
0.634403
-0.13976
-1.14407
-2.33003
-3.03966
-1.91267
-0.838499
0.173598
0.751662
1.00444
1.18791
1.09401
0.963995
0.806192
0.635069
0.529037
0.63892
0.751157
0.798447
0.731855
0.37016
-0.136334
-1.0187
-1.99659
-2.49797
-1.55569
-0.613402
0.115311
0.608133
0.86045
0.963824
0.88224
0.77487
0.630891
0.558162
0.436474
0.506748
0.550722
0.691722
0.542901
0.36078
-0.112011
-0.913764
-1.72042
-1.88948
-1.25113
-0.414239
0.116455
0.492762
0.633358
0.674244
0.77121
0.619443
0.422738
0.377227
0.249956
0.312654
0.46199
0.47475
0.421175
0.166952
-0.182653
-0.68581
-1.33593
-1.31459
-0.869623
-0.33178
0.0403864
0.337264
0.483784
0.598408
0.444577
0.463589
0.26291
0.201514
0.22996
0.184925
0.286151
0.366471
0.214415
0.110879
-0.185559
-0.565444
-0.917782
-0.909037
-0.472582
-0.161179
0.00282728
0.216655
0.260182
0.352418
0.302412
0.235425
0.172564
0.132651
0.0999032
0.158212
0.136207
0.167651
0.0928838
0.0424151
-0.107251
-0.353975
-0.591442
-0.263831
-0.179716
-0.0190846
-0.0507658
0.123844
0.0554067
0.14991
0.0599491
0.12605
0.108484
-0.0306428
0.110517
0.0182153
0.0303751
0.0641661
0.0673324
0.0605672
-0.078353
-0.143495
-0.147522
-4.41339
-2.78735
-1.22862
-0.0924635
0.737912
1.13943
1.09487
1.00487
0.687258
0.342929
0.0802007
0.112237
0.172721
0.444802
0.771972
0.7261
0.462381
-0.266138
-1.44448
-2.85503
-3.69771
-2.43263
-1.06941
-0.0398643
0.59245
0.910377
0.917958
0.775217
0.555323
0.222146
0.0731763
-0.091545
0.0981669
0.313081
0.449126
0.439768
0.227641
-0.28233
-1.37247
-2.45796
-3.08724
-1.99327
-0.928945
-0.0803608
0.473163
0.725995
0.740639
0.666765
0.415851
0.17503
-0.0353693
0.00685271
0.0800848
0.141115
0.331621
0.369879
0.0641869
-0.371941
-1.22258
-2.13732
-2.5169
-1.62904
-0.812815
-0.0780936
0.42607
0.645168
0.590492
0.57337
0.247745
0.136927
-0.0253238
-0.0881275
-0.0409483
0.12713
0.217637
0.227196
0.0518395
-0.359163
-1.05793
-1.76084
-1.94429
-1.26546
-0.624957
-0.0304833
0.310676
0.430926
0.523702
0.370245
0.257051
0.016791
-0.105965
-0.164086
-0.0709543
0.0463645
0.136058
0.116214
-0.0342229
-0.269073
-0.780035
-1.40655
-1.39473
-0.934694
-0.420697
-0.0282126
0.197672
0.27403
0.316599
0.281252
0.148166
0.00720003
-0.0527635
-0.0717874
-0.00558465
0.096277
0.0749267
0.0711023
0.114337
-0.231689
-0.622624
-1.0125
-0.749432
-0.5683
-0.267028
0.0121067
0.13971
0.148594
0.212274
0.155652
0.16834
-0.0273224
-0.00288531
-0.0433542
-0.0345369
0.00917764
0.0920097
0.0552962
0.0248112
-0.199617
-0.386232
-0.616132
-0.302796
-0.157742
-0.0378735
-0.0200707
-0.00814993
0.0551831
0.114624
0.0549825
-0.0179754
0.0382332
0.0102302
0.0645212
-0.0838059
-0.0210349
-0.0378988
-0.0133739
0.047317
-0.0677728
-0.111387
-0.212911
-4.42576
-2.9001
-1.40284
-0.319468
0.343894
0.602371
0.620508
0.386588
-0.127897
-0.35777
-0.663331
-0.766167
-0.601796
-0.223882
0.162663
0.277337
0.0448872
-0.529368
-1.63931
-2.83267
-3.86134
-2.48808
-1.26377
-0.28715
0.357678
0.463954
0.468221
0.253335
-0.104051
-0.371017
-0.637585
-0.65134
-0.513779
-0.232479
-0.00456605
0.129644
-0.109101
-0.631847
-1.45404
-2.55162
-3.20982
-2.12599
-1.09987
-0.254217
0.205684
0.476561
0.412425
0.173108
-0.0535119
-0.411941
-0.540339
-0.607123
-0.529435
-0.339384
-0.00133335
0.0451718
-0.141944
-0.601608
-1.38756
-2.22387
-2.54461
-1.66302
-0.977801
-0.245551
0.133782
0.308378
0.317055
0.147504
-0.0765503
-0.378452
-0.488012
-0.596543
-0.455504
-0.224641
-0.140638
-0.0534191
-0.155207
-0.556026
-1.05696
-1.81942
-1.9633
-1.28419
-0.664381
-0.132342
0.0995733
0.207316
0.286039
0.154941
-0.045194
-0.295893
-0.429598
-0.471461
-0.386284
-0.322439
-0.136264
-0.0377433
-0.159726
-0.464811
-0.947117
-1.47862
-1.43527
-0.968398
-0.486874
-0.142407
0.128368
0.154032
0.16756
0.0618213
-0.0412387
-0.33245
-0.341627
-0.355591
-0.291935
-0.201348
-0.0166393
-0.179719
-0.0757526
-0.313496
-0.680308
-1.01574
-0.862129
-0.531479
-0.345154
-0.142209
0.179306
0.0906772
0.132156
-0.0187971
-0.0036128
-0.153179
-0.126938
-0.194524
-0.165558
-0.131743
-0.103966
-0.0355547
-0.062212
-0.233539
-0.440296
-0.570097
-0.370041
-0.162939
-0.0672995
-0.0522121
-0.0612511
0.0231019
0.0339155
0.012301
-0.0836331
-0.0360007
0.00421795
-0.0390077
-0.0847156
-0.0510862
-0.00969214
-0.00698833
0.0422438
-0.0955921
-0.15074
-0.218617
-4.48348
-3.01975
-1.52033
-0.584078
0.0231297
0.274128
0.137064
-0.0703201
-0.479964
-0.959679
-1.32778
-1.34781
-1.08874
-0.694531
-0.245443
-0.0781332
-0.280215
-0.769062
-1.82727
-2.9728
-3.78205
-2.52402
-1.33755
-0.568039
0.0292902
0.199851
0.137428
-0.152701
-0.518925
-0.997523
-1.23986
-1.29023
-1.04221
-0.688886
-0.410143
-0.233905
-0.34437
-0.852315
-1.70865
-2.61605
-3.1502
-2.2279
-1.24144
-0.499308
-0.0430872
0.140888
0.0633966
-0.129393
-0.563301
-0.819288
-1.08276
-1.07027
-0.926739
-0.687419
-0.347277
-0.297268
-0.331188
-0.792806
-1.41163
-2.296
-2.62091
-1.70198
-0.921287
-0.464327
-0.0405587
0.0948545
0.0315004
-0.173137
-0.417218
-0.653218
-0.858933
-0.849068
-0.807954
-0.63039
-0.374238
-0.294236
-0.411198
-0.694956
-1.28918
-1.86957
-2.03412
-1.35589
-0.714039
-0.306727
-0.000669973
0.0238783
-0.021361
-0.108119
-0.380685
-0.519173
-0.75307
-0.801532
-0.680196
-0.409742
-0.354645
-0.253575
-0.300041
-0.574608
-1.05161
-1.48844
-1.35101
-0.922246
-0.603447
-0.237504
-0.0644124
2.6401e-05
0.025252
-0.139411
-0.280628
-0.40559
-0.583031
-0.559769
-0.42606
-0.347505
-0.180037
-0.189257
-0.238101
-0.412667
-0.683469
-1.12375
-0.795964
-0.59099
-0.302745
-0.134108
0.0409229
0.0249657
-0.057255
-0.0669747
-0.120381
-0.299213
-0.334677
-0.245441
-0.292212
-0.227813
-0.159509
-0.0955418
-0.0629494
-0.28704
-0.379953
-0.57926
-0.223845
-0.226893
-0.0330468
-0.0748414
-0.0182531
0.0679309
-0.00925844
0.0328637
-0.0436703
-0.149924
-0.142726
-0.163508
-0.0815119
-0.131148
-0.0606027
-0.00828115
0.00106701
-0.0670558
-0.113629
-0.229258
-4.4545
-3.07192
-1.69489
-0.728154
-0.199179
-0.0203332
-0.190039
-0.471793
-0.949438
-1.49146
-1.68923
-1.75104
-1.4927
-1.03163
-0.595438
-0.270169
-0.432196
-0.958935
-1.87358
-2.94138
-3.75025
-2.59554
-1.45484
-0.574465
-0.181531
-0.0970415
-0.183889
-0.476523
-0.961099
-1.36873
-1.64649
-1.54795
-1.38561
-1.02891
-0.49775
-0.390085
-0.511935
-0.881452
-1.78589
-2.57034
-3.23009
-2.21914
-1.28163
-0.549504
-0.197792
-0.0382743
-0.135168
-0.326845
-0.892933
-1.12637
-1.40547
-1.41345
-1.29339
-0.922374
-0.563249
-0.503431
-0.503631
-0.869873
-1.58106
-2.34114
-2.47681
-1.80396
-1.023
-0.457753
-0.127499
-0.047759
-0.223489
-0.434281
-0.634885
-1.01549
-1.1952
-1.20322
-1.07026
-0.811303
-0.446725
-0.406906
-0.428625
-0.783971
-1.28053
-1.88354
-1.93242
-1.41711
-0.808974
-0.31523
-0.087072
-0.0475097
-0.135919
-0.33482
-0.571905
-0.764231
-0.97544
-0.898766
-0.898608
-0.637331
-0.471145
-0.288618
-0.35583
-0.672105
-1.07646
-1.4638
-1.40107
-0.980191
-0.525087
-0.205666
-0.0843236
-0.0447458
-0.0820377
-0.246178
-0.407565
-0.528434
-0.657292
-0.692554
-0.614369
-0.483331
-0.382506
-0.294519
-0.276058
-0.513172
-0.656781
-1.07329
-0.912383
-0.603702
-0.278983
-0.149688
-0.0490404
-0.0310021
-0.0483896
-0.157151
-0.30828
-0.310058
-0.431656
-0.468254
-0.408586
-0.291051
-0.214106
-0.149612
-0.0987119
-0.349642
-0.384887
-0.638476
-0.280296
-0.159171
-0.133153
-0.111006
-0.0298994
0.0234343
-0.0339897
-0.0971523
-0.0333558
-0.133132
-0.145445
-0.0684137
-0.115346
-0.00916819
-0.0800404
-0.016918
-0.0382832
-0.114053
-0.167391
-0.231495
-4.25836
-2.90617
-1.59397
-0.697049
-0.257898
-0.0891147
-0.296811
-0.721096
-1.14221
-1.62128
-1.85449
-1.93557
-1.62893
-1.14725
-0.671885
-0.529771
-0.521193
-0.968323
-1.76267
-2.74335
-3.70323
-2.52272
-1.41774
-0.708624
-0.275088
-0.154148
-0.234619
-0.583825
-1.05549
-1.48257
-1.65358
-1.71246
-1.494
-1.11636
-0.67024
-0.531986
-0.520266
-0.953528
-1.58129
-2.40465
-3.05973
-2.10475
-1.21531
-0.638487
-0.230578
-0.169552
-0.271352
-0.607644
-0.920952
-1.30836
-1.49504
-1.51619
-1.36217
-1.06678
-0.576806
-0.479283
-0.447775
-0.870715
-1.53341
-2.17529
-2.47698
-1.78083
-0.994928
-0.496501
-0.26412
-0.121061
-0.255117
-0.475165
-0.817067
-1.08535
-1.26138
-1.28827
-1.14054
-0.766294
-0.567754
-0.446582
-0.519122
-0.730906
-1.1692
-1.78928
-1.90233
-1.30956
-0.814775
-0.39446
-0.287538
-0.0747769
-0.168966
-0.407686
-0.729845
-0.924292
-0.993864
-1.06378
-0.849528
-0.661143
-0.502248
-0.438144
-0.358935
-0.645134
-1.03853
-1.49865
-1.36746
-0.990017
-0.536737
-0.279984
-0.101536
-0.0712651
-0.123626
-0.329025
-0.456667
-0.668848
-0.68172
-0.766925
-0.664781
-0.506213
-0.427306
-0.301974
-0.383596
-0.491841
-0.715555
-1.0441
-0.825087
-0.602703
-0.302262
-0.162379
-0.0859357
-0.0629773
-0.0644713
-0.202301
-0.283143
-0.377055
-0.447404
-0.39475
-0.424177
-0.340493
-0.226443
-0.128049
-0.167375
-0.323226
-0.517802
-0.65036
-0.199554
-0.184314
-0.0813908
-0.0676626
-0.0985854
-0.0233669
-0.0497336
-0.0781271
-0.086494
-0.073719
-0.154029
-0.158911
-0.144185
-0.199655
-0.113264
-0.0507036
-0.0788536
-0.134101
-0.143492
-0.243276
-3.93368
-2.66523
-1.40092
-0.569192
-0.206508
-0.0999956
-0.213454
-0.599945
-1.1628
-1.54745
-1.82373
-1.8142
-1.57224
-1.08506
-0.601228
-0.339086
-0.378872
-0.754427
-1.57629
-2.57176
-3.42284
-2.36379
-1.28886
-0.623519
-0.190849
-0.0985136
-0.177277
-0.663283
-1.04213
-1.44433
-1.64379
-1.65351
-1.41109
-0.957801
-0.595245
-0.426009
-0.444705
-0.781972
-1.41243
-2.22698
-2.85631
-2.00511
-1.18396
-0.517597
-0.185923
-0.0724377
-0.266959
-0.487551
-0.923463
-1.23951
-1.50452
-1.45843
-1.26158
-0.915705
-0.676036
-0.425842
-0.438772
-0.715101
-1.39704
-2.00025
-2.28991
-1.59958
-0.946381
-0.390834
-0.172575
-0.170875
-0.244731
-0.518037
-0.805506
-1.07177
-1.25012
-1.22986
-1.07063
-0.740283
-0.587263
-0.381816
-0.436776
-0.634163
-1.09155
-1.67453
-1.7609
-1.29434
-0.739709
-0.410009
-0.142806
-0.11207
-0.167001
-0.438613
-0.582185
-0.874284
-0.949084
-1.04303
-0.879595
-0.627148
-0.475574
-0.310979
-0.236096
-0.5217
-0.926424
-1.33087
-1.2405
-0.901161
-0.593665
-0.236015
-0.158475
-0.0431537
-0.151391
-0.218994
-0.462626
-0.654337
-0.762425
-0.753176
-0.589151
-0.542089
-0.324981
-0.200716
-0.244606
-0.456049
-0.625604
-0.990299
-0.780693
-0.557617
-0.292566
-0.117421
-0.0113445
-0.0364257
-0.0463806
-0.132913
-0.28971
-0.393184
-0.46575
-0.462678
-0.431125
-0.388812
-0.295491
-0.118355
-0.122136
-0.206358
-0.409926
-0.592012
-0.235258
-0.150145
-0.0760905
-0.0375069
-0.0563704
-0.0453055
-0.00350501
-0.0105861
-0.0897981
-0.128921
-0.106528
-0.155194
-0.151532
-0.0927581
-0.0680927
-0.0160657
-0.0460342
-0.105856
-0.202432
-0.243821
-3.60117
-2.37971
-1.27964
-0.385296
-0.0187948
0.0928965
-0.113467
-0.456302
-0.805746
-1.35457
-1.50652
-1.55533
-1.25811
-0.731924
-0.387637
-0.00123955
-0.067801
-0.507496
-1.21802
-2.20047
-3.12141
-2.06206
-1.07366
-0.356769
-0.0751484
0.00444326
-0.147388
-0.361362
-0.814061
-1.188
-1.42937
-1.39584
-1.15628
-0.788987
-0.472424
-0.148822
-0.191181
-0.576588
-1.24605
-2.03042
-2.65261
-1.71847
-0.931405
-0.319371
-0.0760545
0.0339569
-0.137218
-0.480538
-0.684115
-1.09548
-1.26022
-1.22999
-1.01823
-0.70338
-0.443742
-0.199872
-0.246585
-0.527384
-1.05972
-1.72556
-2.04242
-1.42676
-0.784079
-0.353309
-0.0636775
0.00699953
-0.159828
-0.488551
-0.602847
-0.864673
-1.13072
-1.02122
-0.966079
-0.643663
-0.377162
-0.172532
-0.218429
-0.491105
-0.993938
-1.46679
-1.64073
-1.11235
-0.572619
-0.223288
-0.0313866
-0.0367819
-0.0952214
-0.40179
-0.507366
-0.753081
-0.882184
-0.886297
-0.763266
-0.558474
-0.403865
-0.15431
-0.328974
-0.372908
-0.780689
-1.18343
-1.15464
-0.794336
-0.459462
-0.162731
-0.039578
-0.0337072
-0.0741726
-0.322511
-0.473401
-0.525857
-0.606084
-0.578677
-0.553265
-0.388023
-0.19433
-0.144066
-0.18274
-0.268892
-0.598277
-0.858508
-0.734178
-0.539215
-0.23957
-0.126554
-0.0496181
-0.0138939
-0.110762
-0.153004
-0.242896
-0.38131
-0.43989
-0.413373
-0.320723
-0.174719
-0.123075
-0.0497136
-0.0845303
-0.173949
-0.313678
-0.540712
-0.230237
-0.120752
-0.109401
0.00223304
0.0311602
0.0311415
-0.0846717
-0.0495615
-0.0643121
-0.0918591
-0.167331
-0.205071
-0.0857751
-0.121334
-0.088493
-0.0127725
-0.0213167
-0.0298726
-0.109092
-0.169351
-3.11361
-1.96112
-0.84632
-0.0668452
0.344342
0.462398
0.268912
-0.0957104
-0.483206
-0.876511
-1.06722
-0.990359
-0.618965
-0.299671
0.137852
0.301537
0.402331
0.0103127
-0.830595
-1.71178
-2.73621
-1.70247
-0.764882
-0.103792
0.299535
0.379264
0.20686
-0.166435
-0.528613
-0.84119
-0.965931
-0.991836
-0.639642
-0.319532
-0.0425061
0.128421
0.11758
-0.0760672
-0.824653
-1.58504
-2.19749
-1.4346
-0.624477
-0.149518
0.23951
0.189477
0.0738817
-0.135917
-0.452154
-0.672368
-0.913086
-0.889035
-0.570286
-0.385989
-0.131444
0.0103052
0.08056
-0.185455
-0.831026
-1.32404
-1.79573
-1.24927
-0.543284
-0.16855
0.133244
0.191701
0.115921
-0.17409
-0.417131
-0.610354
-0.804864
-0.757802
-0.591803
-0.375184
-0.0999317
0.105487
0.0534584
-0.238085
-0.659243
-1.062
-1.3978
-0.915943
-0.455535
-0.14943
0.0915032
0.124931
-0.0147612
-0.113201
-0.316695
-0.548026
-0.691663
-0.666789
-0.5242
-0.261349
-0.176942
0.0174624
-0.0430338
-0.264848
-0.464886
-0.94793
-0.976735
-0.633181
-0.336313
0.0118237
0.0586361
0.13016
-0.000796408
-0.119052
-0.207646
-0.386703
-0.420655
-0.473454
-0.454555
-0.209218
-0.0623196
-0.0489826
-0.0805586
-0.196316
-0.312118
-0.64431
-0.588438
-0.367861
-0.177546
-0.0657662
0.00632246
0.063097
-0.0102933
-0.0981865
-0.139708
-0.205106
-0.302082
-0.339207
-0.245583
-0.174977
-0.111804
-0.0958085
0.0256029
-0.0883902
-0.235113
-0.494202
-0.22583
-0.121071
-0.0677743
0.0107534
-0.0901272
-0.01511
-0.028758
-0.0263762
-0.0403882
-0.116073
-0.0930148
0.0643379
-0.0749359
0.0123222
-0.0644261
-0.0657756
-0.0119405
-0.055125
-0.0168708
-0.151969
-2.51715
-1.33075
-0.237396
0.440106
0.869278
0.911367
0.782232
0.43338
0.173961
-0.220945
-0.392199
-0.300373
0.0224078
0.322342
0.724744
0.876912
0.958261
0.483647
-0.141967
-1.09346
-2.21846
-1.26261
-0.280443
0.337122
0.706855
0.722227
0.594709
0.331863
0.0696857
-0.260392
-0.35011
-0.339141
-0.176374
0.0965815
0.5482
0.693879
0.66842
0.344733
-0.290596
-0.936484
-1.82658
-1.04212
-0.282862
0.234352
0.506908
0.572751
0.445798
0.220787
-0.0598495
-0.234799
-0.40216
-0.347118
-0.202157
0.126055
0.311227
0.546994
0.461536
0.31113
-0.287978
-0.904748
-1.47853
-0.88671
-0.19926
0.151095
0.500964
0.420577
0.347001
0.0927265
0.00534451
-0.272802
-0.392389
-0.376485
-0.170265
-0.0024815
0.254542
0.293466
0.285637
0.100462
-0.308231
-0.802787
-1.12129
-0.687074
-0.223026
0.0514475
0.330403
0.316555
0.184456
0.0821611
-0.127541
-0.207903
-0.333477
-0.289856
-0.215351
-0.0558491
0.15024
0.217331
0.287819
0.0707457
-0.332756
-0.664342
-0.797598
-0.496457
-0.176131
0.126601
0.20244
0.171682
0.178243
0.0739654
-0.0314438
-0.169479
-0.18493
-0.18811
-0.184447
-0.0279116
0.0622311
0.147213
0.158939
0.0529189
-0.219617
-0.474902
-0.529916
-0.31254
-0.131515
0.0242659
0.185863
0.145592
0.0320982
0.073546
-0.0101002
-0.0930416
-0.164256
-0.184814
-0.112045
-0.0318337
0.0362508
0.0931346
0.0540955
-0.0194264
-0.165066
-0.263149
-0.146661
-0.141451
0.0213053
0.0219181
-0.0785195
0.0170894
0.0388087
-0.0190613
0.0332116
-0.0311904
-0.0225285
-0.0388408
-0.0175897
-0.015819
0.00109545
0.0360741
0.00425333
-0.0707534
-0.0221995
-0.0934556
-1.87881
-0.77894
0.397113
1.07485
1.43987
1.57604
1.39292
1.21117
0.870028
0.623105
0.532305
0.543953
0.810648
1.14132
1.43713
1.71158
1.72776
1.20479
0.562506
-0.32193
-1.60772
-0.694058
0.311185
0.834537
1.2837
1.2871
1.16819
0.915506
0.638409
0.448293
0.377408
0.358442
0.582203
0.845844
1.12786
1.37357
1.23107
0.921499
0.375495
-0.396018
-1.26694
-0.499586
0.238604
0.727089
0.976051
0.98843
0.993789
0.760775
0.448544
0.347557
0.347922
0.317751
0.387518
0.672386
0.868845
1.09155
0.993846
0.73296
0.166969
-0.37036
-1.07506
-0.423189
0.0869946
0.481369
0.784152
0.818586
0.707552
0.548964
0.403979
0.231912
0.153737
0.142342
0.323843
0.477254
0.703836
0.719134
0.767832
0.48721
0.176809
-0.345886
-0.849492
-0.382153
0.0634648
0.360236
0.50533
0.674425
0.525769
0.500016
0.401723
0.175317
0.117985
0.125228
0.287769
0.357883
0.512056
0.577034
0.583717
0.365505
0.014193
-0.320953
-0.593045
-0.243801
-0.0187766
0.356882
0.40185
0.467111
0.463375
0.238406
0.158297
0.0980376
0.103577
0.0226437
0.0893558
0.239462
0.369716
0.389001
0.392235
0.218403
0.00150093
-0.286703
-0.354153
-0.102777
0.0152726
0.222598
0.210194
0.262012
0.234037
0.138492
0.100798
0.0445012
0.0805819
0.0571158
0.108164
0.106731
0.185283
0.206957
0.271471
0.0889204
-0.0367839
-0.119927
-0.0379869
-0.0595072
0.0211667
0.105672
0.0144842
0.0838141
0.113616
0.0756871
0.0202738
-0.0410068
0.0299392
0.00607618
0.0308391
0.0494243
0.0448442
0.0117255
0.182599
0.101028
-0.0171187
-0.0555525
-1.11176
-0.0117874
1.07735
1.69308
2.13912
2.29893
2.15591
1.97337
1.79852
1.5222
1.50546
1.55356
1.73503
2.01037
2.34474
2.52543
2.41612
2.13137
1.329
0.459997
-0.916843
0.0333706
0.912379
1.45828
1.7701
1.84849
1.80989
1.57351
1.48195
1.23741
1.10328
1.30147
1.39902
1.67463
1.84146
2.0797
1.93498
1.62376
1.08923
0.304929
-0.808562
-0.00452152
0.666398
1.2509
1.45435
1.60887
1.54974
1.36739
1.07523
0.953264
0.946527
0.983136
1.06826
1.28822
1.52717
1.61074
1.63033
1.317
0.796557
0.184723
-0.678504
-0.0815713
0.631096
1.00717
1.15577
1.28747
1.09298
1.15065
0.841734
0.819077
0.700248
0.716456
0.846838
0.975615
1.25188
1.2481
1.29093
0.966207
0.615288
0.0661832
-0.474459
-0.0360724
0.483812
0.671776
0.873277
0.950518
0.836449
0.805801
0.653123
0.607125
0.46722
0.570002
0.648336
0.830242
0.913775
1.04724
0.944717
0.756334
0.422739
0.0535819
-0.367834
-0.0364381
0.255281
0.536207
0.610499
0.671716
0.672827
0.516141
0.412831
0.406481
0.398892
0.463245
0.403418
0.523183
0.665198
0.694305
0.634996
0.526636
0.26451
0.0861196
-0.238012
-0.0229839
0.119328
0.28646
0.405979
0.391452
0.403914
0.305134
0.330878
0.224901
0.193057
0.243293
0.242292
0.250611
0.403236
0.368885
0.383801
0.285476
0.0820428
-0.0165224
-0.0494639
-0.00855438
0.0973063
0.125062
0.0567521
0.130294
0.140369
0.135773
0.0987866
0.158078
0.114257
0.0267227
0.113941
0.155341
0.167482
0.151691
0.106785
0.144183
-0.00775607
-0.0341122
-0.177187
0.896035
1.89945
2.60481
2.94155
3.10651
3.02805
2.9761
2.78859
2.63935
2.5583
2.58579
2.78818
2.96095
3.24414
3.4027
3.26884
2.92513
2.32284
1.42838
-0.212764
0.68713
1.57671
2.16721
2.43767
2.58981
2.59446
2.37357
2.28781
2.13073
2.05799
2.19609
2.29576
2.46382
2.69433
2.88757
2.80477
2.43554
1.7561
1.06377
-0.206935
0.554662
1.30235
1.85561
2.03908
2.16746
2.11792
1.99007
1.84899
1.75359
1.62287
1.75905
1.85444
1.98474
2.19167
2.29923
2.30246
1.86813
1.42764
0.788677
-0.159135
0.497057
0.991511
1.36781
1.63105
1.7548
1.74293
1.55886
1.41529
1.37004
1.31336
1.37296
1.39532
1.53027
1.78861
1.81245
1.736
1.46847
1.06847
0.672832
-0.101401
0.296622
0.729737
1.08743
1.23511
1.42179
1.29949
1.15042
1.0907
1.00087
1.10488
1.10492
1.11952
1.15107
1.27214
1.3828
1.34254
1.17656
0.884561
0.46146
-0.10241
0.203476
0.452049
0.781447
0.898411
0.816453
0.890902
0.944779
0.741588
0.804605
0.691321
0.695372
0.741108
0.850728
0.915803
0.967797
0.888612
0.80367
0.625483
0.312316
-0.0631005
0.127249
0.303615
0.486737
0.443451
0.582894
0.486732
0.477469
0.5247
0.445382
0.398392
0.430945
0.444378
0.533625
0.633221
0.564434
0.540638
0.466259
0.291075
0.223487
-0.0480998
0.0577244
0.105186
0.14448
0.185507
0.182492
0.176855
0.101322
0.220677
0.200175
0.212721
0.0680013
0.157883
0.123387
0.277677
0.20786
0.178006
0.147908
0.172773
0.0881408
0.600744
1.70599
2.67942
3.41478
3.7817
3.96182
3.83209
3.88953
3.75688
3.58921
3.50299
3.62408
3.80866
3.94495
4.21193
4.24929
4.16767
3.77542
2.97141
2.25394
0.512571
1.38437
2.17569
2.79493
3.19088
3.28027
3.26277
3.19197
3.09436
2.97877
2.99923
3.02674
3.15858
3.31729
3.4281
3.57117
3.51545
3.04321
2.57287
1.75039
0.37708
1.15214
1.92085
2.30004
2.67571
2.72717
2.67512
2.67943
2.5235
2.45826
2.44785
2.39774
2.56068
2.70251
2.78487
2.94046
2.88405
2.56775
2.00692
1.45803
0.3357
0.911688
1.50265
1.86834
2.17013
2.23547
2.15461
2.12465
2.00405
1.89811
1.91461
2.01435
2.0666
2.14331
2.40612
2.30591
2.28312
1.87357
1.62343
1.08583
0.192487
0.65295
1.18425
1.39179
1.56428
1.67188
1.70491
1.51795
1.49165
1.44901
1.39229
1.48027
1.53003
1.59398
1.7094
1.70159
1.65158
1.54348
1.12674
0.750625
0.158135
0.414462
0.763629
0.987223
1.13472
1.22571
1.17923
1.09437
1.11277
1.04691
1.02523
1.00945
1.10109
1.11361
1.19788
1.27183
1.15535
1.09085
0.771783
0.531184
0.143503
0.247676
0.491717
0.673359
0.627785
0.71967
0.747757
0.6199
0.579772
0.678938
0.632923
0.573767
0.638643
0.714878
0.699046
0.693539
0.652139
0.601231
0.446764
0.424002
0.0610302
0.0864401
0.147052
0.17127
0.203553
0.205622
0.320635
0.212916
0.161681
0.272557
0.221915
0.213269
0.166006
0.1808
0.217335
0.112656
0.258922
0.243682
0.13505
0.148426
1.38762
2.32977
3.31164
4.11104
4.42291
4.6004
4.60849
4.57512
4.39553
4.4212
4.41319
4.46118
4.60627
4.74534
4.95589
5.02416
4.90538
4.48502
3.77149
2.93183
1.03036
1.9443
2.74124
3.31373
3.76312
3.84201
3.93108
3.8127
3.77703
3.59118
3.64187
3.71845
3.8217
3.98364
4.00331
4.09128
4.05694
3.66923
3.09661
2.3037
0.804508
1.54578
2.21348
2.82242
3.06244
3.17647
3.18072
3.13633
3.049
2.9757
2.96393
2.96485
3.08818
3.3046
3.42911
3.41596
3.27935
3.02634
2.49194
1.92803
0.590756
1.24144
1.84683
2.1936
2.51075
2.6059
2.50019
2.54285
2.46902
2.3153
2.36239
2.36006
2.49872
2.4932
2.68817
2.7137
2.56408
2.36635
1.94321
1.45986
0.431385
0.938027
1.36644
1.66345
1.95701
1.96257
1.89336
1.78324
1.86484
1.82452
1.81037
1.82591
1.79446
1.94175
1.93967
1.95937
1.97679
1.8037
1.49617
1.12131
0.336954
0.608699
0.995289
1.15631
1.23598
1.31581
1.37895
1.28563
1.28394
1.23212
1.20604
1.17281
1.32708
1.39916
1.38533
1.45143
1.35441
1.29701
0.927813
0.774742
0.164781
0.34524
0.555243
0.721582
0.805349
0.809072
0.74617
0.767108
0.713028
0.767493
0.678781