/*--------------------------------*- C++ -*----------------------------------*\
| =========                 |                                                 |
| \\      /  F ield         | OpenFOAM: The Open Source CFD Toolbox           |
|  \\    /   O peration     | Version:  2212                                  |
|   \\  /    A nd           | Website:  www.openfoam.com                      |
|    \\/     M anipulation  |                                                 |
\*---------------------------------------------------------------------------*/
FoamFile
{
    version     2.0;
    format      ascii;
    arch        "LSB;label=32;scalar=64";
    class       volScalarField;
    location    "0";
    object      relativeErrorField;
}
// * * * * * * * * * * * * * * * * * * * * * * * * * * * * * * * * * * * * * //

dimensions      [0 0 0 1 0 0 0];

internalField   nonuniform List<scalar> 
3200
(
0.0132161
0.00771804
0.00155858
0.0027651
0.00635841
0.00905257
0.010964
0.0123144
0.0130947
0.0133948
0.01314
0.0130168
0.0122515
0.0113661
0.0100559
0.00837745
0.00625733
0.00276535
0.00215242
0.00742325
0.0111985
0.00636481
0.00140312
0.00247893
0.00555022
0.00787945
0.00951907
0.0106578
0.0114189
0.0115251
0.0116369
0.0110088
0.0107678
0.00984081
0.00858677
0.00726935
0.00505978
0.00203517
0.00200143
0.0068538
0.00954372
0.00551874
0.00106486
0.00212163
0.00491268
0.00665897
0.00821507
0.00922622
0.0096688
0.00965599
0.00975387
0.00943413
0.00891949
0.00796136
0.00715735
0.0059448
0.004103
0.00131649
0.00216208
0.00582881
0.00779703
0.00459544
0.000766404
0.00179372
0.00390736
0.00543884
0.00690137
0.00745625
0.00780688
0.00808132
0.00795814
0.00777026
0.00728521
0.00660916
0.00592015
0.00475287
0.00342861
0.000957506
0.00201989
0.00491913
0.0060704
0.00354902
0.000461681
0.00125079
0.00344644
0.00447729
0.0053026
0.00578915
0.00622114
0.00640217
0.0063299
0.00591845
0.00586263
0.00512986
0.00466509
0.00382953
0.00236775
0.000629411
0.00178872
0.00420893
0.00423253
0.00228785
0.000553797
0.00117776
0.00228104
0.00339602
0.00410986
0.00453423
0.00454327
0.00456102
0.00461661
0.00436366
0.00412761
0.00382868
0.00332469
0.0025047
0.00188839
0.00051507
0.000979397
0.00276483
0.00279951
0.00145509
0.000498513
0.000805899
0.00143625
0.00215973
0.00226013
0.00257535
0.002797
0.00281725
0.00256447
0.00267545
0.00252243
0.00236023
0.00212763
0.00159705
0.00123137
0.000192808
0.000528552
0.00165918
0.000989121
0.000479314
0.000124708
0.000129177
0.000631248
0.000758306
0.000874091
0.000792607
0.000949828
0.000708409
0.000656304
0.000892442
0.000803204
0.00106072
0.000490235
0.000368264
0.000450101
4.21067e-05
0.000410357
0.000469396
0.0129181
0.00716703
0.00129419
0.00328626
0.00642737
0.00869646
0.0102563
0.0113174
0.0121429
0.0125439
0.0122669
0.0118431
0.0111658
0.0104634
0.00952381
0.00801219
0.00612066
0.00271135
0.00192232
0.00696428
0.0111174
0.00587199
0.00143999
0.00245167
0.00512114
0.00755007
0.00894567
0.009905
0.010459
0.0105899
0.0107244
0.0101463
0.00975106
0.0090039
0.00814016
0.00690727
0.00504067
0.00181785
0.00180645
0.00644994
0.00917117
0.00530152
0.000980945
0.00238013
0.00476689
0.00649199
0.00782542
0.0085858
0.00916591
0.00923642
0.00886948
0.00838185
0.00826213
0.0075402
0.00675403
0.00571749
0.00419888
0.00137197
0.00202668
0.00550079
0.00764949
0.00440218
0.000847339
0.00178071
0.00366537
0.00552412
0.00651948
0.00709929
0.00738118
0.00752701
0.00715193
0.00703591
0.0068069
0.00601723
0.00558411
0.0044447
0.00304372
0.000923282
0.00191918
0.00471116
0.00599861
0.00354927
0.000536328
0.00153572
0.00309007
0.00414055
0.00509447
0.0057112
0.00592642
0.00582945
0.00573244
0.0055758
0.00516798
0.00450567
0.00439227
0.00351464
0.00239551
0.000693435
0.00179052
0.00374146
0.00446273
0.00250889
0.000518037
0.00105613
0.00235683
0.00319094
0.00372587
0.00389224
0.00445878
0.0044935
0.00420273
0.00406945
0.00390244
0.00347372
0.00284142
0.00230649
0.00172334
0.000458885
0.00113306
0.00293765
0.00265231
0.0015106
0.000331742
0.000520785
0.00143357
0.00170054
0.00216727
0.00232914
0.0022115
0.0023572
0.00256397
0.0024638
0.00223047
0.0022167
0.00207701
0.001235
0.000871936
0.000442218
0.000515141
0.00164541
0.00124765
0.000736112
0.000103257
0.00030226
0.00039887
0.000544501
0.000774199
0.000719124
0.00088208
0.000876471
0.000839209
0.000911549
0.000934202
0.000749995
0.000825749
0.000527387
0.000348438
1.49595e-05
0.000184291
0.000569886
0.012616
0.0069026
0.00130876
0.00287924
0.00575293
0.00798039
0.0092716
0.00998019
0.0105913
0.0108795
0.0102852
0.00994411
0.00968184
0.00931581
0.0083034
0.0074414
0.00547566
0.0023708
0.00190132
0.00672567
0.0107077
0.00609658
0.00109565
0.00255517
0.00487653
0.00678204
0.00816498
0.00909066
0.00930728
0.00918264
0.00895504
0.00860545
0.00830579
0.00792147
0.00734988
0.00602933
0.00463826
0.0020011
0.00195705
0.00623566
0.00889126
0.00484609
0.000900407
0.00211447
0.00426453
0.006045
0.00701247
0.00753539
0.00802318
0.00775836
0.00749724
0.00734472
0.00713205
0.00655453
0.00601289
0.00513995
0.0037505
0.001271
0.00181207
0.00526337
0.00756178
0.00417156
0.00076143
0.00169247
0.00347062
0.00479087
0.00583811
0.0060845
0.00647732
0.00635984
0.00617965
0.00614814
0.00557513
0.00553843
0.00502957
0.00411901
0.00286002
0.00112706
0.00150879
0.00451368
0.00594044
0.0032779
0.000462944
0.00126679
0.00282256
0.00425568
0.00450669
0.00508872
0.00527215
0.00524803
0.0047335
0.00487721
0.00441274
0.00389081
0.0037714
0.00305821
0.00209878
0.000594042
0.00146789
0.00369279
0.00429236
0.00255615
0.000425202
0.001127
0.00219971
0.00277807
0.00318774
0.00335171
0.00374959
0.00374314
0.00358379
0.00353805
0.00317684
0.00303333
0.00245899
0.0022827
0.00132628
0.000394856
0.00126392
0.00275851
0.00259696
0.00140243
0.000164699
0.000521657
0.00128904
0.00161065
0.00218429
0.00211692
0.00226776
0.00208463
0.00231679
0.0019731
0.0019392
0.00165758
0.0016777
0.00134019
0.00102734
0.000314166
0.000783497
0.00157185
0.000860771
0.000628411
0.000176214
0.00019989
0.000528623
0.000703903
0.000823925
0.000630228
0.000752892
0.000579479
0.000610843
0.000601302
0.000586362
0.000533018
0.000547032
0.000212864
0.0006717
8.99477e-05
0.000239611
0.000207456
0.0124283
0.00684864
0.00175662
0.00238766
0.00506461
0.00693159
0.00816349
0.00857949
0.0086786
0.00837001
0.0080246
0.0079116
0.00767982
0.00746712
0.00731039
0.00640612
0.00483245
0.00185995
0.00225085
0.00696907
0.0107056
0.00596493
0.00176022
0.00192116
0.00464085
0.00606761
0.00695264
0.00730912
0.00758874
0.00711899
0.00693502
0.00653992
0.00659757
0.00630949
0.00610353
0.00520669
0.00389758
0.00130546
0.00241075
0.00649891
0.00895257
0.00505977
0.0013626
0.00166699
0.00392726
0.00521521
0.00596062
0.00642321
0.00651934
0.00626621
0.00588238
0.00578067
0.00547909
0.00505909
0.00502256
0.00427791
0.00307974
0.00100983
0.00225462
0.00545797
0.00725147
0.0042471
0.00110397
0.00155381
0.00327358
0.00410614
0.00506401
0.0052118
0.0052665
0.00495986
0.00471505
0.00442528
0.00443262
0.00417444
0.00386489
0.00368412
0.00236681
0.000467834
0.00187824
0.00474972
0.00571396
0.00345561
0.000925859
0.001117
0.00234904
0.00345014
0.00395642
0.00406742
0.00423252
0.00365725
0.00394166
0.00332462
0.00327213
0.00326456
0.00322588
0.00275602
0.00166684
0.0002581
0.00149662
0.00394768
0.00386646
0.00250705
0.00067029
0.000785253
0.00196363
0.00265892
0.00283254
0.0029239
0.0028951
0.00290615
0.00265165
0.00265193
0.00254185
0.0023043
0.00221696
0.00185325
0.000930782
0.000155347
0.00104954
0.0027781
0.00245999
0.0015463
0.000320604
0.000538334
0.00113197
0.00155944
0.00150341
0.00184006
0.00169239
0.00152216
0.00170674
0.00134958
0.00144325
0.00156425
0.00140693
0.000934041
0.000802447
0.000283045
0.000818885
0.00175698
0.000964543
0.000662122
0.000144557
0.000301821
0.000484553
0.000662182
0.000403055
0.00044537
0.000537064
0.000576717
0.000653486
0.000483458
0.000375728
0.00023011
0.000539247
0.000367311
0.000329313
5.78429e-05
0.000417688
0.000373639
0.0123114
0.00718446
0.00197649
0.00155513
0.0039812
0.00546314
0.00650952
0.00682642
0.00624224
0.00609438
0.00555296
0.00518406
0.00519828
0.00530429
0.00538873
0.00506542
0.00373916
0.00123375
0.00279678
0.00712629
0.0108214
0.00635167
0.00202656
0.00149068
0.0036493
0.00489444
0.00565137
0.00574023
0.00573617
0.00508802
0.00469315
0.00426409
0.00447926
0.00469254
0.00455375
0.00414821
0.00284396
0.000732067
0.00279337
0.00637796
0.00891083
0.00548536
0.00157061
0.0012278
0.00292645
0.004005
0.00466399
0.00493167
0.00465463
0.00414475
0.00385138
0.00334692
0.00374785
0.00379419
0.00398607
0.00332816
0.0022422
0.000496924
0.00256451
0.00577575
0.00739685
0.00437792
0.00147074
0.0010282
0.00254084
0.00356333
0.00401239
0.00406088
0.00380369
0.00363722
0.00298071
0.0031591
0.002861
0.0030784
0.00291685
0.00265349
0.00178994
0.000137146
0.00248568
0.00496821
0.00580641
0.00343625
0.0012375
0.000725664
0.00184321
0.00269693
0.0031115
0.00326125
0.00291517
0.00259859
0.00242518
0.00203651
0.00237243
0.00217382
0.00217519
0.0019442
0.00128535
3.55303e-05
0.00202561
0.00397538
0.00416833
0.00273386
0.00070035
0.000516818
0.00159531
0.00194129
0.0023414
0.0023086
0.00223212
0.00198452
0.00197325
0.00172823
0.00149772
0.00158051
0.00167218
0.00133402
0.000711728
9.10298e-05
0.00151048
0.0028615
0.00258521
0.00142316
0.000393795
0.000280233
0.000864932
0.00111827
0.00133659
0.00133688
0.00132193
0.00120973
0.00111951
0.00100144
0.00118294
0.000789335
0.000666565
0.000655578
0.000447432
0.000131055
0.000852143
0.00197405
0.000855701
0.000522331
0.000198892
0.000224903
0.000272274
0.000372633
0.000489047
0.000446521
0.000410936
0.000212004
0.000404883
0.000403396
0.000401965
0.000511289
0.00044309
0.000212137
0.000275304
0.000103402
0.000411906
0.0007394
0.0126307
0.00754561
0.0025949
0.000484502
0.00299091
0.0043057
0.00482969
0.00495794
0.00405768
0.00363534
0.00293535
0.0025553
0.00310332
0.00330314
0.0037649
0.00347436
0.00259023
0.000129453
0.00338513
0.00744215
0.0108564
0.00660155
0.00257792
0.000664442
0.00270917
0.00379499
0.00420257
0.00399792
0.0034707
0.00289094
0.0022871
0.0020992
0.002274
0.00262804
0.00302834
0.00271785
0.0018606
0.000411243
0.0033767
0.00689338
0.00915015
0.00574611
0.00251247
0.000518698
0.00223946
0.00298427
0.00352043
0.00323535
0.00284651
0.00237864
0.00187375
0.00156215
0.00188949
0.0022261
0.00237224
0.00218044
0.00110601
0.00040851
0.00306043
0.00601025
0.0076538
0.00475883
0.00187232
0.000351141
0.00184743
0.00260789
0.00291504
0.00266361
0.00233648
0.00190107
0.00168192
0.00131611
0.00152994
0.00166563
0.0020965
0.00164927
0.00109864
0.000341898
0.0027952
0.00527137
0.00589489
0.00389834
0.00128849
0.000361557
0.00152697
0.00195905
0.00208203
0.00237813
0.00190822
0.00130157
0.00116145
0.00077
0.000964114
0.0014266
0.00146846
0.00130514
0.000518336
0.000568144
0.00213688
0.00416789
0.00417757
0.00276098
0.00105206
0.00012789
0.00106652
0.00152781
0.00188749
0.00140085
0.00145969
0.000827496
0.000634256
0.000724067
0.000582693
0.000902573
0.00115733
0.000678039
0.000351115
0.000588401
0.00179524
0.00291658
0.00294359
0.00152943
0.000521228
9.13541e-06
0.000699453
0.000839287
0.00113597
0.00097417
0.000758045
0.000555505
0.00042702
0.000321678
0.000509653
0.000439043
0.000540801
0.000299868
0.00013705
0.000346834
0.00114558
0.00191517
0.000870852
0.000593092
6.29661e-05
0.000167444
0.000408365
0.000182647
0.000494051
0.000197528
0.000415264
0.000357364
0.000100942
0.000364089
6.00182e-05
0.000100106
0.000211522
0.000222023
0.000199773
0.000258511
0.000473558
0.000486941
0.0128155
0.0080726
0.00354653
0.000265963
0.00211496
0.00325455
0.00311753
0.00285386
0.0019482
0.000971167
0.000227127
0.000318162
0.000490533
0.00126653
0.00220498
0.00208111
0.00133
0.000768233
0.00418343
0.00829038
0.0109236
0.00717008
0.0031429
0.000116794
0.00173029
0.00265075
0.00266548
0.00224586
0.00160617
0.000641961
0.000211466
0.000264777
0.000284397
0.000909095
0.00130772
0.00128437
0.000666938
0.000829745
0.00404529
0.00726118
0.00928166
0.00598124
0.00278056
0.000239896
0.00140867
0.00215574
0.00219401
0.00197128
0.00122772
0.000516357
0.000104343
2.02313e-05
0.00023677
0.000418029
0.000984701
0.00110118
0.000191613
0.00111331
0.00366863
0.00642575
0.00770371
0.00497835
0.00247883
0.000237629
0.00129355
0.00195446
0.00178529
0.00173068
0.000746917
0.00041256
7.63008e-05
0.000265692
0.0001236
0.000384365
0.000659305
0.000689768
0.000157741
0.00109534
0.00323304
0.00538958
0.00606085
0.00393994
0.00194259
9.45853e-05
0.000962255
0.00133239
0.00161671
0.00114149
0.000791759
5.16937e-05
0.00032623
0.000505413
0.000218756
0.000143131
0.000420682
0.00035995
0.000106189
0.000836376
0.00242859
0.00438458
0.00442958
0.00296591
0.00133335
8.93007e-05
0.000624868
0.000865155
0.000998407
0.000886094
0.000466485
2.26604e-05
0.00016606
0.000226015
1.75947e-05
0.000303613
0.000236555
0.000224765
0.000361907
0.000734307
0.00197567
0.00321564
0.00242587
0.00183857
0.000863263
3.91083e-05
0.000450945
0.000479248
0.000684148
0.000501364
0.000542007
8.79509e-05
9.28784e-06
0.000139588
0.000111246
2.9579e-05
0.000296751
0.00017848
8.01477e-05
0.000645333
0.00124954
0.00199439
0.000999342
0.000520514
0.000124943
6.61945e-05
2.68717e-05
0.0001819
0.000377743
0.000181158
5.92174e-05
0.000125944
3.36995e-05
0.000212556
0.000276127
6.93207e-05
0.000124926
4.4096e-05
0.000156055
0.00022358
0.000367554
0.000702687
0.0128259
0.00838361
0.00404269
0.000917579
0.000984436
0.00171883
0.00176546
0.00109728
0.000362395
0.00101282
0.00187785
0.00217092
0.00170812
0.000636985
0.000464148
0.000793908
0.000128925
0.00152553
0.00473891
0.00820911
0.0113871
0.00732158
0.00370868
0.000840203
0.00104348
0.0013497
0.00135864
0.000733548
0.00030083
0.00107182
0.0018419
0.00188313
0.00148768
0.000674582
1.32832e-05
0.00037822
0.000319229
0.00185422
0.00427876
0.0075247
0.0096357
0.00637055
0.00328802
0.000758055
0.000611774
0.001414
0.001221
0.000511561
0.000157929
0.00121492
0.0015936
0.00179179
0.00156456
0.00100476
3.95615e-06
0.000134356
0.000423265
0.00179849
0.00415783
0.00667594
0.00777884
0.00507626
0.00297885
0.00074649
0.000405844
0.0009336
0.000958103
0.000445062
0.000230722
0.00114
0.00147002
0.00179798
0.00137438
0.000678841
0.000425774
0.000162053
0.00047184
0.00169392
0.00322631
0.00556192
0.00611406
0.00399457
0.00206341
0.000410337
0.000308216
0.000640681
0.000882676
0.000477548
0.000139173
0.000910778
0.00132233
0.00145184
0.00119058
0.000995
0.000421105
0.000116829
0.000495242
0.00144359
0.00294607
0.00460468
0.00455505
0.00307079
0.00154214
0.000450516
0.000405607
0.000486124
0.000528253
0.000194728
0.000129813
0.00104616
0.00107504
0.00111935
0.000919551
0.000634774
5.25136e-05
0.000567861
0.00023965
0.000992977
0.00215726
0.00322362
0.00278944
0.00171873
0.00111541
0.000459229
0.000578587
0.000292387
0.000425856
6.05387e-05
1.1631e-05
0.00049304
0.000408578
0.000626246
0.000533201
0.000424527
0.000335235
0.000114728
0.000200898
0.000754716
0.00142386
0.00184456
0.00122109
0.000537588
0.00022199
0.00017218
0.000201936
7.61445e-05
0.000111761
4.05279e-05
0.000275508
0.000118587
1.3894e-05
0.000128501
0.000279111
0.000168344
3.19456e-05
2.30394e-05
0.000139307
0.000315315
0.000497338
0.000721411
0.0129631
0.00871056
0.00437258
0.00167464
6.61103e-05
0.000781198
0.000389559
0.000199421
0.00135899
0.00271503
0.00375644
0.00381625
0.00308757
0.00197397
0.000699454
0.000223323
0.000803419
0.00221189
0.00527082
0.00859527
0.0111306
0.00741313
0.00391832
0.00165951
8.53355e-05
0.00058073
0.0003984
0.000441815
0.00149933
0.00288006
0.00357973
0.00372786
0.00301545
0.00199705
0.0011918
0.000681469
0.00100607
0.00249684
0.00501837
0.00769902
0.00944022
0.00666493
0.00370568
0.0014869
0.000128007
0.000417616
0.000187536
0.00038212
0.00166153
0.00241509
0.00319176
0.0031569
0.00273683
0.00203348
0.00102939
0.000883145
0.000986253
0.00236651
0.00422299
0.00688043
0.00800042
0.00518807
0.00280316
0.00141001
0.000122921
0.000286931
9.51257e-05
0.000522111
0.0012569
0.00196684
0.00258625
0.00255789
0.00243647
0.00190367
0.00113205
0.000891734
0.00124867
0.00211451
0.00392977
0.00570691
0.00632732
0.00421301
0.00221543
0.000950189
2.07221e-06
7.37443e-05
6.58812e-05
0.000333087
0.00117186
0.00159751
0.00231722
0.00246736
0.00209552
0.00126372
0.00109527
0.000784303
0.000929477
0.00178282
0.00326755
0.00462994
0.00428405
0.00292213
0.00191
0.000750879
0.00020341
8.32814e-08
7.95786e-05
0.000438982
0.000883132
0.001276
0.00183424
0.00176159
0.00134159
0.00109512
0.000567924
0.000597662
0.000752766
0.00130615
0.00216556
0.00356341
0.00257404
0.00191026
0.000977931
0.000432896
0.000132005
8.04781e-05
0.000184452
0.000215658
0.000387486
0.00096294
0.00107707
0.000790035
0.000940918
0.00073392
0.000514184
0.000308189
0.000203198
0.0009272
0.00122812
0.00187324
0.000738534
0.00074847
0.00010899
0.000246771
6.01707e-05
0.00022388
3.05068e-05
0.000108268
0.000143853
0.000493825
0.000470116
0.000538606
0.000268538
0.000432136
0.000199729
2.72985e-05
3.51819e-06
0.000221153
0.000374837
0.000756391
0.0128452
0.00883887
0.00486337
0.00208337
0.000568246
5.78511e-05
0.000539371
0.00133636
0.00268544
0.00421538
0.00477434
0.00495274
0.00422808
0.00292798
0.00169412
0.000770776
0.00123658
0.00275161
0.00539087
0.00848191
0.0110112
0.00760639
0.00425326
0.00167519
0.000528016
0.000281582
0.000532432
0.00137728
0.00277432
0.00394839
0.00474964
0.00446834
0.00400479
0.00297911
0.0014443
0.00113463
0.00149284
0.00257694
0.00523366
0.00754684
0.00966019
0.00662611
0.00381893
0.00163379
0.000586788
0.000113312
0.000399421
0.00096435
0.0026317
0.00331781
0.00413991
0.00416578
0.00381611
0.00272562
0.00166751
0.00149353
0.00149739
0.00259199
0.00472087
0.00700162
0.00754791
0.00549023
0.0031081
0.0013882
0.000385952
0.000144321
0.0006743
0.00130861
0.00191135
0.00305572
0.00359648
0.00362236
0.003225
0.00244782
0.00134994
0.00123175
0.00129987
0.00238187
0.00389721
0.00573995
0.00600301
0.00439769
0.00250707
0.000975504
0.00026906
0.000146606
0.000418904
0.00103087
0.00175955
0.00235038
0.00299995
0.00276519
0.00276671
0.00196426
0.00145387
0.000891852
0.00110114
0.0020829
0.00334055
0.00454727
0.00443851
0.00310289
0.00166057
0.000649724
0.000266107
0.000141065
0.000258399
0.000774824
0.0012821
0.00166186
0.0020671
0.0021786
0.00193367
0.00152237
0.00120589
0.000929435
0.000872099
0.00162289
0.00207911
0.00340013
0.00294878
0.00195026
0.000900708
0.00048296
0.000158123
9.98998e-05
0.000155842
0.000505885
0.000992063
0.000997614
0.00138886
0.00150687
0.00131528
0.000937349
0.000689925
0.0004824
0.000318488
0.00112884
0.00124337
0.00206353
0.000924597
0.000524968
0.000439067
0.000365954
9.85483e-05
7.72225e-05
0.000111985
0.000320034
0.000109867
0.000438483
0.000479036
0.00022534
0.000379968
3.02061e-05
0.000263756
5.57614e-05
0.000126209
0.000376086
0.000552079
0.000763621
0.0122428
0.00833811
0.00456164
0.00198951
0.000734146
0.000253045
0.000840937
0.00203932
0.00322608
0.00457608
0.00523431
0.00546685
0.00460675
0.00325043
0.00190785
0.00150807
0.00148759
0.00277117
0.00505728
0.00788714
0.0108444
0.00737438
0.00413509
0.00206196
0.000798584
0.000446507
0.000678263
0.00168507
0.00304294
0.00427166
0.00476437
0.00493694
0.00431206
0.00322731
0.00194142
0.00154436
0.00151387
0.00278112
0.0046224
0.00704171
0.00912988
0.00627094
0.00361397
0.00189482
0.000682903
0.000501205
0.000800773
0.0017907
0.00271131
0.00384988
0.00439919
0.00446371
0.00401424
0.00314813
0.00170507
0.00141949
0.00132885
0.00258926
0.00456868
0.00649079
0.00753413
0.00541005
0.00301771
0.00150338
0.0007984
0.00036537
0.000768863
0.00143038
0.00245757
0.00326311
0.00379234
0.00387484
0.00343336
0.00230943
0.00171351
0.00134996
0.00157188
0.0022169
0.00355194
0.00544236
0.0059007
0.00405811
0.00252167
0.00121918
0.000887527
0.000230518
0.000520293
0.00125422
0.00224384
0.00284068
0.0030545
0.0032705
0.00261351
0.00203584
0.0015483
0.00135239
0.00110938
0.00199665
0.00321825
0.00464853
0.00432731
0.00313072
0.00169576
0.000883711
0.000320163
0.000224507
0.000389138
0.00103498
0.0014358
0.00210239
0.00214285
0.00241127
0.00209113
0.00159341
0.00134614
0.000952188
0.00121074
0.00155392
0.00226279
0.00330403
0.00266485
0.00194578
0.00097528
0.00052362
0.000276948
0.000202844
0.000207552
0.000650995
0.000910872
0.0012128
0.00143908
0.00126991
0.00136498
0.00109614
0.000729353
0.00041267
0.000539728
0.00104292
0.00167169
0.00210052
0.000658107
0.000607758
0.000268328
0.000223023
0.000324881
7.69888e-05
0.000163833
0.000257331
0.00028486
0.000242774
0.000507252
0.000523359
0.000474909
0.000657706
0.00037318
0.00016709
0.000259909
0.000442103
0.000473153
0.000802297
0.0112713
0.00762223
0.00399709
0.00162003
0.000586341
0.000283274
0.000603467
0.00169335
0.00327819
0.00435996
0.00513838
0.00511462
0.00443767
0.00306764
0.0017032
0.00096277
0.00107834
0.00215252
0.00450801
0.00736896
0.00999368
0.00689023
0.00374914
0.00180983
0.000552774
0.000284762
0.00051152
0.00191108
0.00299954
0.00415494
0.00472874
0.00475924
0.00406568
0.00276367
0.0017206
0.00123389
0.0012908
0.00227467
0.0041171
0.00650211
0.00850119
0.0059595
0.00351267
0.00153278
0.000549566
0.000213746
0.000786516
0.00143462
0.00271489
0.00364234
0.00442109
0.00428764
0.00371221
0.00269786
0.00199481
0.00125874
0.00129935
0.00212161
0.0041522
0.0059533
0.00695034
0.00484951
0.00286496
0.00118132
0.000520813
0.000514935
0.000736554
0.00155747
0.00241995
0.00321862
0.00375424
0.00369482
0.00321883
0.00222799
0.00176973
0.00115228
0.00132018
0.00191979
0.0033093
0.00508255
0.00545281
0.00400448
0.00228586
0.00126545
0.000440216
0.00034507
0.000513681
0.00134801
0.0017882
0.00268457
0.00291425
0.0032037
0.00270331
0.00192906
0.00146432
0.000958627
0.000728685
0.00161216
0.0028662
0.00412118
0.00392073
0.00284637
0.00187354
0.00074416
0.000499228
0.000135829
0.000476157
0.000688361
0.00145354
0.00205542
0.00239495
0.00236643
0.00185187
0.00170498
0.0010229
0.000632298
0.000771249
0.00143923
0.00197601
0.00312995
0.00251958
0.00179893
0.000943353
0.000378405
3.6539e-05
0.000117261
0.000149239
0.000427516
0.000931606
0.00126417
0.00149749
0.00148781
0.00138672
0.00125108
0.000951241
0.000381205
0.000393598
0.000665385
0.00132246
0.00191063
0.000775655
0.000494968
0.000250795
0.000123599
0.000185727
0.000149244
1.15443e-05
3.48625e-05
0.0002957
0.000424508
0.000350775
0.000511044
0.000499029
0.000305513
0.000224309
5.29328e-05
0.0001517
0.000348903
0.000667336
0.000803889
0.0102801
0.00678132
0.00363865
0.00109313
5.32056e-05
0.000262436
0.000319966
0.00128483
0.00226641
0.00380808
0.00423526
0.00437483
0.00354252
0.00206395
0.00109509
3.509e-06
0.000192359
0.00144306
0.0034709
0.00628161
0.00908364
0.00599169
0.00311381
0.00103264
0.000217088
1.28122e-05
0.000424313
0.00103896
0.00233837
0.00341088
0.00410386
0.00400952
0.00332445
0.00227141
0.00136224
0.000429915
0.000553359
0.00167221
0.00362063
0.00590874
0.00787258
0.00509361
0.00275622
0.000943466
0.000224298
9.99874e-05
0.000403483
0.0014114
0.00200773
0.00321366
0.00369694
0.00360976
0.00299065
0.00206825
0.00130661
0.000589459
0.000728447
0.00156064
0.00314105
0.00512122
0.00618453
0.00431572
0.0023685
0.00106573
0.000191808
2.10561e-05
0.000480241
0.00146658
0.00180847
0.00259303
0.00339087
0.00306355
0.00290007
0.00193403
0.00113458
0.000519698
0.000658872
0.0014835
0.00300651
0.00444152
0.00507117
0.00343522
0.00176649
0.000688045
9.66074e-05
0.000113095
0.000292513
0.00123334
0.00155659
0.00230981
0.00270579
0.00271914
0.00234293
0.00171559
0.00124179
0.000474963
0.00101371
0.00115039
0.00241096
0.00365775
0.00364437
0.00250566
0.00144819
0.000512491
0.000124542
0.000105987
0.000233067
0.00101284
0.00148613
0.00165048
0.00190228
0.00181663
0.00173753
0.00121925
0.000611038
0.000453341
0.000575507
0.000847528
0.00188721
0.0027097
0.00236748
0.00173815
0.000771879
0.000407541
0.000159705
4.46992e-05
0.000356192
0.00049187
0.000780666
0.00122537
0.00141362
0.00132857
0.00103105
0.000561869
0.000395953
0.000160012
0.000272213
0.000560453
0.00101114
0.00174361
0.000758884
0.000397961
0.000360493
7.35691e-06
0.000102642
0.000102564
0.000278824
0.000163187
0.000211738
0.00030242
0.000550891
0.000675165
0.000282424
0.000399552
0.000291449
4.20727e-05
7.02293e-05
9.84345e-05
0.000359534
0.000558198
0.00885193
0.00556639
0.00239741
0.000188968
0.000971492
0.00130214
0.000756037
0.000268731
0.00135546
0.00245755
0.00299225
0.00277809
0.0017379
0.000842513
0.0003882
0.000850727
0.00113737
2.92132e-05
0.00235753
0.00486656
0.00793389
0.00492956
0.00221089
0.000299466
0.000862709
0.00109055
0.000593952
0.00047732
0.00151476
0.00240944
0.00276674
0.00284215
0.00183444
0.000917463
0.000122223
0.000369872
0.000339249
0.000219872
0.00238781
0.00459598
0.00650153
0.00423942
0.00184264
0.000440489
0.000704535
0.000556569
0.000216748
0.000398337
0.0013242
0.00196841
0.00267313
0.00260368
0.00167136
0.00113238
0.000386101
3.03136e-05
0.000237336
0.000547221
0.00245578
0.00391734
0.00542344
0.00376937
0.00163717
0.000507258
0.000400489
0.000575508
0.000347645
0.00052165
0.00124916
0.00182724
0.00240955
0.00226936
0.0017733
0.00112517
0.000300007
0.000317061
0.000160885
0.000717462
0.0019891
0.00320744
0.00431141
0.00282301
0.00140261
0.000459621
0.000281163
0.000383512
4.52764e-05
0.000346983
0.000970268
0.00167859
0.00211855
0.00204286
0.00160677
0.000801622
0.000543178
5.36571e-05
0.000132365
0.000815476
0.00143282
0.00292383
0.00307822
0.0019944
0.00105856
3.71872e-05
0.000184282
0.000408785
2.49971e-06
0.000373488
0.000651197
0.00121252
0.00131898
0.0014848
0.00142602
0.000656679
0.000195723
0.000153943
0.000253369
0.000617912
0.000983112
0.00203057
0.00189577
0.00118473
0.000571552
0.000211614
2.03343e-05
0.000202847
3.3079e-05
0.00031544
0.000448739
0.000658724
0.000970175
0.00108953
0.000788975
0.000562312
0.000359432
0.00030814
8.23818e-05
0.000284544
0.000757204
0.00159217
0.000744123
0.000398889
0.00022326
3.5418e-05
0.000296801
4.97518e-05
9.46779e-05
8.68276e-05
0.000132943
0.000382056
0.00030616
0.000211777
0.000246681
4.05674e-05
0.000212133
0.000216608
3.93276e-05
0.000181591
5.55839e-05
0.000500747
0.00712427
0.0037608
0.000669687
0.00123922
0.00244321
0.00255723
0.00219167
0.00121282
0.000486429
0.000617538
0.00109619
0.0008399
6.27084e-05
0.000903144
0.00203358
0.00246467
0.00269819
0.00136435
0.000401211
0.00309481
0.00640733
0.00364196
0.000807641
0.00096927
0.00202905
0.0020701
0.00170239
0.000948984
0.000199125
0.000743779
0.00100005
0.000969084
0.000504352
0.00027647
0.00157129
0.0019918
0.0019218
0.000992788
0.000838216
0.00270474
0.00538583
0.00306943
0.000831991
0.000688324
0.0014868
0.00167777
0.00130442
0.000645446
0.000174852
0.000685746
0.00117454
0.00101411
0.000590984
0.000368841
0.000911683
0.00160438
0.0013556
0.000915135
0.000848202
0.00266772
0.0044528
0.00266806
0.000598873
0.000453575
0.00150211
0.00125973
0.00103837
0.000277267
1.59724e-05
0.000815063
0.00117236
0.00112515
0.00050912
7.42569e-06
0.000762412
0.000879943
0.00085746
0.000301937
0.000927449
0.0024177
0.00345078
0.00211299
0.00068526
0.000157926
0.00101328
0.000969988
0.000564787
0.000251418
0.000390118
0.000635786
0.0010198
0.000886603
0.000658988
0.000171005
0.000460366
0.000666515
0.000883504
0.00021737
0.00102334
0.00204451
0.00250954
0.00156125
0.000553528
0.000397594
0.00063534
0.00053847
0.000558744
0.00023176
9.8494e-05
0.000530788
0.000579179
0.000589232
0.000577937
8.74955e-05
0.000195185
0.000462015
0.000499151
0.000166308
0.000690646
0.00149422
0.00170551
0.00100558
0.000422969
7.80092e-05
0.000597261
0.000467672
0.000103071
0.000236101
3.24179e-05
0.000298601
0.00052715
0.000593184
0.000359693
0.000102222
0.000116445
0.000299282
0.000173905
6.24781e-05
0.000531093
0.000846931
0.00048309
0.000465879
7.01607e-05
7.2168e-05
0.000258499
5.62537e-05
0.000127733
6.27313e-05
0.000109293
0.000102639
7.41348e-05
0.000127818
5.78882e-05
5.20658e-05
3.60592e-06
0.000118762
1.40046e-05
0.000232998
7.31156e-05
0.000307835
0.00529205
0.00219104
0.00111518
0.00301332
0.00403003
0.00440453
0.00388766
0.00337683
0.00242392
0.00173533
0.00148245
0.00151547
0.00226016
0.00318545
0.00401632
0.00479051
0.00484373
0.0033833
0.00158225
0.00090678
0.00462371
0.00199372
0.000892593
0.00239018
0.0036713
0.00367612
0.00333263
0.00260934
0.00181837
0.00127644
0.00107461
0.00102095
0.00165937
0.00241304
0.00322133
0.00392831
0.00352589
0.0026432
0.00107863
0.00113893
0.00372204
0.00146622
0.000699394
0.00212848
0.00285372
0.00288658
0.00289931
0.00221772
0.0013068
0.00101228
0.00101335
0.000925743
0.00112965
0.00196163
0.00253735
0.00319141
0.00290938
0.00214845
0.000490034
0.00108805
0.0032278
0.00126956
0.000260709
0.00144103
0.00234498
0.00244559
0.00211209
0.00163759
0.00120452
0.000691308
0.000458275
0.000424412
0.000966038
0.00142464
0.00210277
0.00215055
0.00229859
0.00146009
0.000530424
0.0010385
0.00260799
0.00117247
0.000194553
0.00110336
0.00154648
0.00206238
0.00160671
0.00152719
0.00122651
0.00053516
0.000360152
0.000382338
0.000878927
0.00109367
0.00156586
0.00176592
0.00178786
0.00112047
4.35453e-05
0.000985342
0.00186264
0.000765379
5.89105e-05
0.00111899
0.00125922
0.00146289
0.00145048
0.000745978
0.000495177
0.000306633
0.00032396
7.0833e-05
0.000279596
0.000749576
0.00115787
0.00121896
0.00122984
0.000685228
4.71194e-06
0.000900479
0.00113858
0.00033033
4.90686e-05
0.000714894
0.000674803
0.000840868
0.000750862
0.000444216
0.000323256
0.000142702
0.000258401
0.000183169
0.000346937
0.000342426
0.000594625
0.000664411
0.000871855
0.000285687
0.000118225
0.000385559
0.000125079
0.000195919
6.96796e-05
0.000347821
4.76686e-05
0.000275806
0.000373835
0.000249016
6.66984e-05
0.000134903
9.84933e-05
1.99899e-05
0.000101463
0.000162623
0.000147568
3.85895e-05
0.000601025
0.000332578
5.63609e-05
0.000182917
0.00311553
3.2991e-05
0.00301079
0.0047243
0.00596011
0.00639671
0.00599173
0.00547929
0.00499053
0.00422236
0.00417592
0.00431081
0.00481751
0.00558724
0.00652418
0.00703645
0.00674183
0.00595641
0.00371965
0.00128907
0.00262494
9.54379e-05
0.00260588
0.00415939
0.00504221
0.00525918
0.00514401
0.00446846