/*--------------------------------*- C++ -*----------------------------------*\
| =========                 |                                                 |
| \\      /  F ield         | OpenFOAM: The Open Source CFD Toolbox           |
|  \\    /   O peration     | Version:  2212                                  |
|   \\  /    A nd           | Website:  www.openfoam.com                      |
|    \\/     M anipulation  |                                                 |
\*---------------------------------------------------------------------------*/
FoamFile
{
    version     2.0;
    format      ascii;
    arch        "LSB;label=32;scalar=64";
    class       volScalarField;
    location    "0";
    object      Ttrue;
}
// * * * * * * * * * * * * * * * * * * * * * * * * * * * * * * * * * * * * * //

dimensions      [0 0 0 1 0 0 0];

internalField   nonuniform List<scalar> 
3200
(
340.456
340.735
341.092
341.48
341.88
342.273
342.635
342.941
343.164
343.282
343.282
343.164
342.941
342.635
342.273
341.88
341.48
341.092
340.735
340.456
334.979
335.215
335.523
335.859
336.205
336.545
336.858
337.122
337.315
337.416
337.416
337.315
337.122
336.858
336.545
336.205
335.859
335.523
335.215
334.979
329.538
329.734
329.993
330.277
330.57
330.857
331.121
331.345
331.507
331.593
331.593
331.507
331.345
331.121
330.857
330.57
330.277
329.993
329.734
329.538
324.129
324.287
324.498
324.73
324.969
325.203
325.42
325.602
325.734
325.804
325.804
325.734
325.602
325.42
325.203
324.969
324.73
324.498
324.287
324.129
318.745
318.866
319.03
319.21
319.396
319.578
319.746
319.888
319.991
320.045
320.045
319.991
319.888
319.746
319.578
319.396
319.21
319.03
318.866
318.745
313.381
313.467
313.584
313.713
313.845
313.975
314.095
314.196
314.27
314.308
314.308
314.27
314.196
314.095
313.975
313.845
313.713
313.584
313.467
313.381
308.032
308.083
308.153
308.231
308.31
308.388
308.46
308.521
308.565
308.588
308.588
308.565
308.521
308.46
308.388
308.31
308.231
308.153
308.083
308.032
302.691
302.709
302.732
302.758
302.785
302.811
302.835
302.855
302.87
302.878
302.878
302.87
302.855
302.835
302.811
302.785
302.758
302.732
302.709
302.691
340.62
340.897
341.25
341.635
342.031
342.419
342.777
343.079
343.299
343.416
343.416
343.299
343.079
342.777
342.419
342.031
341.635
341.25
340.897
340.62
335.12
335.355
335.66
335.992
336.335
336.671
336.981
337.242
337.432
337.532
337.532
337.432
337.242
336.981
336.671
336.335
335.992
335.66
335.355
335.12
329.658
329.852
330.109
330.39
330.68
330.964
331.225
331.445
331.606
331.69
331.69
331.606
331.445
331.225
330.964
330.68
330.39
330.109
329.852
329.658
324.226
324.383
324.592
324.822
325.059
325.291
325.504
325.684
325.815
325.884
325.884
325.815
325.684
325.504
325.291
325.059
324.822
324.592
324.383
324.226
318.821
318.941
319.103
319.282
319.466
319.646
319.812
319.952
320.053
320.107
320.107
320.053
319.952
319.812
319.646
319.466
319.282
319.103
318.941
318.821
313.435
313.52
313.636
313.764
313.895
314.024
314.142
314.242
314.314
314.353
314.353
314.314
314.242
314.142
314.024
313.895
313.764
313.636
313.52
313.435
308.064
308.115
308.185
308.261
308.34
308.417
308.488
308.548
308.592
308.615
308.615
308.592
308.548
308.488
308.417
308.34
308.261
308.185
308.115
308.064
302.702
302.719
302.743
302.768
302.795
302.82
302.844
302.864
302.879
302.887
302.887
302.879
302.864
302.844
302.82
302.795
302.768
302.743
302.719
302.702
340.948
341.22
341.568
341.945
342.333
342.713
343.063
343.358
343.572
343.685
343.685
343.572
343.358
343.063
342.713
342.333
341.945
341.568
341.22
340.948
335.403
335.634
335.934
336.26
336.596
336.925
337.227
337.482
337.667
337.765
337.765
337.667
337.482
337.227
336.925
336.596
336.26
335.934
335.634
335.403
329.896
330.088
330.34
330.616
330.9
331.178
331.433
331.648
331.804
331.887
331.887
331.804
331.648
331.433
331.178
330.9
330.616
330.34
330.088
329.896
324.421
324.575
324.781
325.006
325.238
325.465
325.674
325.85
325.977
326.044
326.044
325.977
325.85
325.674
325.465
325.238
325.006
324.781
324.575
324.421
318.972
319.09
319.25
319.425
319.605
319.782
319.944
320.08
320.179
320.231
320.231
320.179
320.08
319.944
319.782
319.605
319.425
319.25
319.09
318.972
313.543
313.627
313.74
313.866
313.994
314.12
314.236
314.334
314.404
314.441
314.441
314.404
314.334
314.236
314.12
313.994
313.866
313.74
313.627
313.543
308.129
308.179
308.247
308.322
308.4
308.475
308.545
308.603
308.646
308.668
308.668
308.646
308.603
308.545
308.475
308.4
308.322
308.247
308.179
308.129
302.724
302.741
302.764
302.789
302.815
302.84
302.863
302.883
302.897
302.905
302.905
302.897
302.883
302.863
302.84
302.815
302.789
302.764
302.741
302.724
341.44
341.706
342.045
342.412
342.789
343.157
343.495
343.779
343.985
344.094
344.094
343.985
343.779
343.495
343.157
342.789
342.412
342.045
341.706
341.44
335.829
336.054
336.346
336.664
336.99
337.308
337.6
337.846
338.024
338.118
338.118
338.024
337.846
337.6
337.308
336.99
336.664
336.346
336.054
335.829
330.255
330.442
330.688
330.956
331.232
331.501
331.748
331.955
332.105
332.185
332.185
332.105
331.955
331.748
331.501
331.232
330.956
330.688
330.442
330.255
324.713
324.864
325.064
325.284
325.509
325.729
325.931
326.1
326.223
326.287
326.287
326.223
326.1
325.931
325.729
325.509
325.284
325.064
324.864
324.713
319.199
319.314
319.47
319.64
319.815
319.986
320.143
320.274
320.37
320.42
320.42
320.37
320.274
320.143
319.986
319.815
319.64
319.47
319.314
319.199
313.705
313.787
313.898
314.019
314.144
314.266
314.378
314.472
314.54
314.576
314.576
314.54
314.472
314.378
314.266
314.144
314.019
313.898
313.787
313.705
308.226
308.275
308.341
308.415
308.49
308.563
308.63
308.686
308.727
308.749
308.749
308.727
308.686
308.63
308.563
308.49
308.415
308.341
308.275
308.226
302.757
302.773
302.795
302.82
302.845
302.869
302.892
302.911
302.924
302.932
302.932
302.924
302.911
302.892
302.869
302.845
302.82
302.795
302.773
302.757
342.098
342.356
342.684
343.038
343.4
343.752
344.075
344.346
344.543
344.646
344.646
344.543
344.346
344.075
343.752
343.4
343.038
342.684
342.356
342.098
336.397
336.615
336.897
337.204
337.517
337.822
338.102
338.336
338.505
338.595
338.595
338.505
338.336
338.102
337.822
337.517
337.204
336.897
336.615
336.397
330.734
330.915
331.153
331.412
331.677
331.935
332.171
332.368
332.512
332.587
332.587
332.512
332.368
332.171
331.935
331.677
331.412
331.153
330.915
330.734
325.104
325.25
325.444
325.656
325.872
326.083
326.276
326.437
326.554
326.616
326.616
326.554
326.437
326.276
326.083
325.872
325.656
325.444
325.25
325.104
319.502
319.614
319.764
319.929
320.097
320.261
320.411
320.536
320.627
320.675
320.675
320.627
320.536
320.411
320.261
320.097
319.929
319.764
319.614
319.502
313.921
314.001
314.108
314.225
314.346
314.463
314.57
314.659
314.724
314.758
314.758
314.724
314.659
314.57
314.463
314.346
314.225
314.108
314.001
313.921
308.356
308.403
308.468
308.538
308.61
308.681
308.745
308.799
308.837
308.858
308.858
308.837
308.799
308.745
308.681
308.61
308.538
308.468
308.403
308.356
302.8
302.816
302.837
302.861
302.885
302.909
302.93
302.948
302.961
302.968
302.968
302.961
302.948
302.93
302.909
302.885
302.861
302.837
302.816
302.8
342.923
343.171
343.485
343.824
344.169
344.504
344.809
345.065
345.25
345.347
345.347
345.25
345.065
344.809
344.504
344.169
343.824
343.485
343.171
342.923
337.108
337.318
337.589
337.883
338.181
338.471
338.735
338.956
339.116
339.2
339.2
339.116
338.956
338.735
338.471
338.181
337.883
337.589
337.318
337.108
331.334
331.508
331.737
331.984
332.237
332.482
332.705
332.892
333.027
333.097
333.097
333.027
332.892
332.705
332.482
332.237
331.984
331.737
331.508
331.334
325.594
325.734
325.92
326.123
326.329
326.529
326.712
326.865
326.975
327.033
327.033
326.975
326.865
326.712
326.529
326.329
326.123
325.92
325.734
325.594
319.882
319.99
320.134
320.292
320.452
320.608
320.75
320.868
320.954
320.999
320.999
320.954
320.868
320.75
320.608
320.452
320.292
320.134
319.99
319.882
314.192
314.269
314.372
314.484
314.599
314.71
314.811
314.896
314.957
314.989
314.989
314.957
314.896
314.811
314.71
314.599
314.484
314.372
314.269
314.192
308.519
308.564
308.626
308.693
308.762
308.829
308.89
308.941
308.977
308.996
308.996
308.977
308.941
308.89
308.829
308.762
308.693
308.626
308.564
308.519
302.854
302.87
302.89
302.913
302.936
302.958
302.979
302.996
303.008
303.015
303.015
303.008
302.996
302.979
302.958
302.936
302.913
302.89
302.87
302.854
343.915
344.152
344.452
344.773
345.099
345.414
345.701
345.94
346.112
346.202
346.202
346.112
345.94
345.701
345.414
345.099
344.773
344.452
344.152
343.915
337.965
338.166
338.424
338.702
338.985
339.257
339.505
339.712
339.861
339.939
339.939
339.861
339.712
339.505
339.257
338.985
338.702
338.424
338.166
337.965
332.056
332.223
332.44
332.676
332.914
333.145
333.354
333.529
333.655
333.721
333.721
333.655
333.529
333.354
333.145
332.914
332.676
332.44
332.223
332.056
326.183
326.317
326.495
326.687
326.882
327.071
327.242
327.385
327.487
327.541
327.541
327.487
327.385
327.242
327.071
326.882
326.687
326.495
326.317
326.183
320.339
320.442
320.58
320.729
320.881
321.028
321.161
321.272
321.352
321.393
321.393
321.352
321.272
321.161
321.028
320.881
320.729
320.58
320.442
320.339
314.519
314.592
314.69
314.796
314.905
315.01
315.105
315.184
315.241
315.271
315.271
315.241
315.184
315.105
315.01
314.905
314.796
314.69
314.592
314.519
308.714
308.758
308.817
308.881
308.946
309.009
309.066
309.113
309.148
309.166
309.166
309.148
309.113
309.066
309.009
308.946
308.881
308.817
308.758
308.714
302.92
302.935
302.954
302.976
302.998
303.019
303.038
303.054
303.065
303.071
303.071
303.065
303.054
303.038
303.019
302.998
302.976
302.954
302.935
302.92
345.076
345.302
345.585
345.888
346.194
346.488
346.754
346.976
347.135
347.218
347.218
347.135
346.976
346.754
346.488
346.194
345.888
345.585
345.302
345.076
338.967
339.158
339.402
339.665
339.93
340.184
340.415
340.606
340.744
340.816
340.816
340.744
340.606
340.415
340.184
339.93
339.665
339.402
339.158
338.967
332.901
333.06
333.266
333.487
333.711
333.927
334.122
334.283
334.4
334.461
334.461
334.4
334.283
334.122
333.927
333.711
333.487
333.266
333.06
332.901
326.873
327
327.168
327.349
327.533
327.709
327.868
328
328.095
328.145
328.145
328.095
328
327.868
327.709
327.533
327.349
327.168
327
326.873
320.875
320.973
321.103
321.244
321.386
321.523
321.647
321.75
321.824
321.862
321.862
321.824
321.75
321.647
321.523
321.386
321.244
321.103
320.973
320.875
314.9
314.97
315.063
315.163
315.265
315.363
315.451
315.525
315.577
315.605
315.605
315.577
315.525
315.451
315.363
315.265
315.163
315.063
314.97
314.9
308.943
308.985
309.041
309.101
309.162
309.221
309.274
309.318
309.35
309.366
309.366
309.35
309.318
309.274
309.221
309.162
309.101
309.041
308.985
308.943
302.997
303.011
303.029
303.05
303.07
303.09
303.108
303.122
303.133
303.138
303.138
303.133
303.122
303.108
303.09
303.07
303.05
303.029
303.011
302.997
346.407
346.62
346.887
347.171
347.456
347.729
347.974
348.178
348.323
348.4
348.4
348.323
348.178
347.974
347.729
347.456
347.171
346.887
346.62
346.407
340.116
340.297
340.527
340.772
341.019
341.255
341.468
341.644
341.77
341.836
341.836
341.77
341.644
341.468
341.255
341.019
340.772
340.527
340.297
340.116
333.871
334.02
334.214
334.422
334.63
334.83
335.01
335.159
335.266
335.321
335.321
335.266
335.159
335.01
334.83
334.63
334.422
334.214
334.02
333.871
327.664
327.784
327.942
328.112
328.283
328.446
328.593
328.715
328.802
328.847
328.847
328.802
328.715
328.593
328.446
328.283
328.112
327.942
327.784
327.664
321.488
321.581
321.704
321.836
321.968
322.095
322.21
322.304
322.372
322.407
322.407
322.372
322.304
322.21
322.095
321.968
321.836
321.704
321.581
321.488
315.338
315.404
315.491
315.585
315.68
315.771
315.853
315.92
315.969
315.994
315.994
315.969
315.92
315.853
315.771
315.68
315.585
315.491
315.404
315.338
309.206
309.245
309.298
309.354
309.411
309.466
309.515
309.555
309.584
309.6
309.6
309.584
309.555
309.515
309.466
309.411
309.354
309.298
309.245
309.206
303.085
303.098
303.115
303.134
303.153
303.172
303.188
303.202
303.212
303.217
303.217
303.212
303.202
303.188
303.172
303.153
303.134
303.115
303.098
303.085
347.91
348.111
348.36
348.624
348.888
349.139
349.365
349.55
349.683
349.752
349.752
349.683
349.55
349.365
349.139
348.888
348.624
348.36
348.111
347.91
341.414
341.583
341.798
342.027
342.256
342.473
342.669
342.83
342.944
343.004
343.004
342.944
342.83
342.669
342.473
342.256
342.027
341.798
341.583
341.414
334.965
335.105
335.287
335.48
335.673
335.858
336.023
336.159
336.256
336.306
336.306
336.256
336.159
336.023
335.858
335.673
335.48
335.287
335.105
334.965
328.556
328.669
328.817
328.975
329.134
329.284
329.419
329.531
329.61
329.651
329.651
329.61
329.531
329.419
329.284
329.134
328.975
328.817
328.669
328.556
322.181
322.268
322.383
322.506
322.629
322.746
322.851
322.938
322.999
323.032
323.032
322.999
322.938
322.851
322.746
322.629
322.506
322.383
322.268
322.181
315.833
315.894
315.976
316.064
316.152
316.235
316.31
316.372
316.416
316.439
316.439
316.416
316.372
316.31
316.235
316.152
316.064
315.976
315.894
315.833
309.503
309.539
309.589
309.641
309.694
309.744
309.789
309.826
309.853
309.867
309.867
309.853
309.826
309.789
309.744
309.694
309.641
309.589
309.539
309.503
303.184
303.196
303.213
303.231
303.248
303.265
303.28
303.293
303.301
303.306
303.306
303.301
303.293
303.28
303.265
303.248
303.231
303.213
303.196
303.184
349.586
349.773
350.005
350.25
350.493
350.723
350.929
351.098
351.218
351.28
351.28
351.218
351.098
350.929
350.723
350.493
350.25
350.005
349.773
349.586
342.86
343.019
343.219
343.431
343.642
343.841
344.019
344.165
344.269
344.324
344.324
344.269
344.165
344.019
343.841
343.642
343.431
343.219
343.019
342.86
336.185
336.316
336.485
336.664
336.842
337.011
337.162
337.285
337.373
337.419
337.419
337.373
337.285
337.162
337.011
336.842
336.664
336.485
336.316
336.185
329.552
329.658
329.795
329.942
330.088
330.226
330.349
330.45
330.522
330.559
330.559
330.522
330.45
330.349
330.226
330.088
329.942
329.795
329.658
329.552
322.954
323.035
323.142
323.256
323.369
323.477
323.573
323.651
323.707
323.736
323.736
323.707
323.651
323.573
323.477
323.369
323.256
323.142
323.035
322.954
316.384
316.441
316.518
316.599
316.68
316.757
316.825
316.881
316.921
316.942
316.942
316.921
316.881
316.825
316.757
316.68
316.599
316.518
316.441
316.384
309.834
309.868
309.913
309.962
310.011
310.057
310.098
310.132
310.156
310.168
310.168
310.156
310.132
310.098
310.057
310.011
309.962
309.913
309.868
309.834
303.295
303.306
303.322
303.338
303.354
303.37
303.384
303.395
303.403
303.407
303.407
303.403
303.395
303.384
303.37
303.354
303.338
303.322
303.306
303.295
351.435
351.61
351.825
352.05
352.273
352.483
352.67
352.823
352.931
352.987
352.987
352.931
352.823
352.67
352.483
352.273
352.05
351.825
351.61
351.435
344.457
344.604
344.79
344.986
345.179
345.361
345.523
345.655
345.748
345.797
345.797
345.748
345.655
345.523
345.361
345.179
344.986
344.79
344.604
344.457
337.531
337.654
337.81
337.975
338.139
338.293
338.43
338.541
338.621
338.662
338.662
338.621
338.541
338.43
338.293
338.139
337.975
337.81
337.654
337.531
330.651
330.749
330.877
331.012
331.146
331.272
331.384
331.475
331.54
331.573
331.573
331.54
331.475
331.384
331.272
331.146
331.012
330.877
330.749
330.651
323.807
323.883
323.982
324.087
324.191
324.289
324.376
324.447
324.497
324.524
324.524
324.497
324.447
324.376
324.289
324.191
324.087
323.982
323.883
323.807
316.992
317.046
317.116
317.191
317.266
317.336
317.398
317.449
317.485
317.504
317.504
317.485
317.449
317.398
317.336
317.266
317.191
317.116
317.046
316.992
310.199
310.23
310.273
310.318
310.363
310.405
310.442
310.472
310.494
310.505
310.505
310.494
310.472
310.442
310.405
310.363
310.318
310.273
310.23
310.199
303.417
303.428
303.442
303.457
303.472
303.486
303.499
303.509
303.516
303.52
303.52
303.516
303.509
303.499
303.486
303.472
303.457
303.442
303.428
303.417
353.459
353.621
353.819
354.027
354.23
354.421
354.59
354.727
354.824
354.875
354.875
354.824
354.727
354.59
354.421
354.23
354.027
353.819
353.621
353.459
346.204
346.341
346.512
346.692
346.868
347.034
347.18
347.299
347.383
347.427
347.427
347.383
347.299
347.18
347.034
346.868
346.692
346.512
346.341
346.204
339.004
339.118
339.262
339.414
339.564
339.704
339.827
339.928
339.999
340.036
340.036
339.999
339.928
339.827
339.704
339.564
339.414
339.262
339.118
339.004
331.853
331.944
332.062
332.186
332.308
332.423
332.524
332.606
332.665
332.695
332.695
332.665
332.606
332.524
332.423
332.308
332.186
332.062
331.944
331.853
324.74
324.81
324.902
324.998
325.093
325.182
325.261
325.325
325.371
325.394
325.394
325.371
325.325
325.261
325.182
325.093
324.998
324.902
324.81
324.74
317.658
317.708
317.773
317.842
317.91
317.973
318.03
318.075
318.108
318.125
318.125
318.108
318.075
318.03
317.973
317.91
317.842
317.773
317.708
317.658
310.598
310.627
310.667
310.708
310.749
310.787
310.821
310.848
310.868
310.878
310.878
310.868
310.848
310.821
310.787
310.749
310.708
310.667
310.627
310.598
303.551
303.561
303.574
303.588
303.602
303.614
303.626
303.635
303.642
303.645
303.645
303.642
303.635
303.626
303.614
303.602
303.588
303.574
303.561
303.551
355.656
355.805
355.988
356.178
356.364
356.536
356.689
356.812
356.899
356.944
356.944
356.899
356.812
356.689
356.536
356.364
356.178
355.988
355.805
355.656
348.1
348.227
348.385
348.549
348.71
348.86
348.992
349.098
349.174
349.213
349.213
349.174
349.098
348.992
348.86
348.71
348.549
348.385
348.227
348.1
340.604
340.709
340.842
340.981
341.117
341.244
341.355
341.446
341.509
341.542
341.542
341.509
341.446
341.355
341.244
341.117
340.981
340.842
340.709
340.604
333.157
333.242
333.35
333.464
333.575
333.679
333.771
333.845
333.897
333.924
333.924
333.897
333.845
333.771
333.679
333.575
333.464
333.35
333.242
333.157
325.753
325.817
325.902
325.99
326.077
326.158
326.229
326.286
326.327
326.348
326.348
326.327
326.286
326.229
326.158
326.077
325.99
325.902
325.817
325.753
318.38
318.426
318.486
318.549
318.611
318.669
318.72
318.761
318.79
318.805
318.805
318.79
318.761
318.72
318.669
318.611
318.549
318.486
318.426
318.38
311.031
311.059
311.095
311.133
311.17
311.204
311.235
311.26
311.277
311.286
311.286
311.277
311.26
311.235
311.204
311.17
311.133
311.095
311.059
311.031
303.696
303.705
303.717
303.73
303.743
303.754
303.764
303.773
303.779
303.782
303.782
303.779
303.773
303.764
303.754
303.743
303.73
303.717
303.705
303.696
358.023
358.161
358.329
358.502
358.671
358.827
358.964
359.074
359.152
359.192
359.192
359.152
359.074
358.964
358.827
358.671
358.502
358.329
358.161
358.023
350.143
350.26
350.405
350.555
350.701
350.836
350.955
351.051
351.118
351.153
351.153
351.118
351.051
350.955
350.836
350.701
350.555
350.405
350.26
350.143
342.326
342.423
342.545
342.672
342.795
342.91
343.011
343.092
343.149
343.178
343.178
343.149
343.092
343.011
342.91
342.795
342.672
342.545
342.423
342.326
334.562
334.64
334.74
334.844
334.945
335.039
335.121
335.187
335.234
335.258
335.258
335.234
335.187
335.121
335.039
334.945
334.844
334.74
334.64
334.562
326.843
326.903
326.98
327.061
327.139
327.212
327.276
327.328
327.364
327.383
327.383
327.364
327.328
327.276
327.212
327.139
327.061
326.98
326.903
326.843
319.158
319.2
319.255
319.313
319.369
319.421
319.467
319.504
319.53
319.543
319.543
319.53
319.504
319.467
319.421
319.369
319.313
319.255
319.2
319.158
311.498
311.523
311.556
311.591
311.624
311.656
311.683
311.705
311.721
311.729
311.729
311.721
311.705
311.683
311.656
311.624
311.591
311.556
311.523
311.498
303.852
303.861
303.872
303.884
303.895
303.905
303.915
303.922
303.927
303.93
303.93
303.927
303.922
303.915
303.905
303.895
303.884
303.872
303.861
303.852
360.551
360.678
360.832
360.99
361.143
361.284
361.407
361.505
361.575
361.611
361.611
361.575
361.505
361.407
361.284
361.143
360.99
360.832
360.678
360.551
352.323
352.43
352.563
352.7
352.833
352.955
353.062
353.147
353.207
353.238
353.238
353.207
353.147
353.062
352.955
352.833
352.7
352.563
352.43
352.323
344.162
344.252
344.363
344.479
344.591
344.695
344.785
344.858
344.909
344.935
344.935
344.909
344.858
344.785
344.695
344.591
344.479
344.363
344.252
344.162
336.06
336.131
336.222
336.317
336.409
336.494
336.568
336.627
336.669
336.69
336.69
336.669
336.627
336.568
336.494
336.409
336.317
336.222
336.131
336.06
328.004
328.059
328.13
328.204
328.275
328.341
328.399
328.445
328.477
328.494
328.494
328.477
328.445
328.399
328.341
328.275
328.204
328.13
328.059
328.004
319.986
320.025
320.075
320.128
320.179
320.226
320.267
320.3
320.323
320.335
320.335
320.323
320.3
320.267
320.226
320.179
320.128
320.075
320.025
319.986
311.994
312.017
312.048
312.079
312.11
312.138
312.163
312.183
312.197
312.204
312.204
312.197
312.183
312.163
312.138
312.11
312.079
312.048
312.017
311.994
304.019
304.027
304.037
304.047
304.058
304.067
304.075
304.082
304.087
304.089
304.089
304.087
304.082
304.075
304.067
304.058
304.047
304.037
304.027
304.019
363.214
363.33
363.471
363.615
363.754
363.881
363.991
364.08
364.142
364.174
364.174
364.142
364.08
363.991
363.881
363.754
363.615
363.471
363.33
363.214
354.615
354.714
354.836
354.96
355.08
355.191
355.287
355.363
355.417
355.445
355.445
355.417
355.363
355.287
355.191
355.08
354.96
354.836
354.714
354.615
346.09
346.172
346.275
346.38
346.482
346.576
346.657
346.722
346.767
346.791
346.791
346.767
346.722
346.657
346.576
346.482
346.38
346.275
346.172
346.09
337.629
337.695
337.779
337.865
337.948
338.025
338.091
338.144
338.182
338.201
338.201
338.182
338.144
338.091
338.025
337.948
337.865
337.779
337.695
337.629
329.22
329.271
329.336
329.403
329.468
329.527
329.579
329.62
329.649
329.664
329.664
329.649
329.62
329.579
329.527
329.468
329.403
329.336
329.271
329.22
320.852
320.888
320.934
320.982
321.028
321.071
321.108
321.138
321.158
321.169
321.169
321.158
321.138
321.108
321.071
321.028
320.982
320.934
320.888
320.852
312.513
312.535
312.563
312.591
312.619
312.645
312.667
312.685
312.697
312.704
312.704
312.697
312.685
312.667
312.645
312.619
312.591
312.563
312.535
312.513
304.193
304.2
304.209
304.219
304.228
304.237
304.244
304.25
304.254
304.256
304.256
304.254
304.25
304.244
304.237
304.228
304.219
304.209
304.2
304.193
365.945
366.052
366.181
366.312
366.438
366.553
366.653
366.732
366.787
366.816
366.816
366.787
366.732
366.653
366.553
366.438
366.312
366.181
366.052
365.945
356.956
357.046
357.158
357.272
357.381
357.481
357.567
357.636
357.684
357.709
357.709
357.684
357.636
357.567
357.481
357.381
357.272
357.158
357.046
356.956
348.051
348.126
348.221
348.317
348.409
348.494
348.567
348.626
348.666
348.687
348.687
348.666
348.626
348.567
348.494
348.409
348.317
348.221
348.126
348.051
339.22
339.28
339.357
339.436
339.512
339.581
339.641
339.689
339.722
339.739
339.739
339.722
339.689
339.641
339.581
339.512
339.436
339.357
339.28
339.22
330.449
330.495
330.555
330.616
330.675
330.729
330.776
330.813
330.839
330.852
330.852
330.839
330.813
330.776
330.729
330.675
330.616
330.555
330.495
330.449
321.725
321.758
321.801
321.844
321.887
321.925
321.959
321.985
322.004
322.013
322.013
322.004
321.985
321.959
321.925
321.887
321.844
321.801
321.758
321.725
313.036
313.056
313.081
313.107
313.133
313.156
313.176
313.192
313.203
313.209
313.209
313.203
313.192
313.176
313.156
313.133
313.107
313.081
313.056
313.036
304.367
304.374
304.383
304.391
304.4
304.408
304.414
304.42
304.424
304.425
304.425
304.424
304.42
304.414
304.408
304.4
304.391
304.383
304.374
304.367
368.573
368.672
368.791
368.911
369.027
369.131
369.222
369.293
369.343
369.369
369.369
369.343
369.293
369.222
369.131
369.027
368.911
368.791
368.672
368.573
359.18
359.264
359.367
359.472
359.572
359.663
359.742
359.804
359.848
359.87
359.87
359.848
359.804
359.742
359.663
359.572
359.472
359.367
359.264
359.18
349.895
349.965
350.052
350.14
350.225
350.302
350.369
350.422
350.459
350.478
350.478
350.459
350.422
350.369
350.302
350.225
350.14
350.052
349.965
349.895
340.702
340.758
340.829
340.902
340.971
341.034
341.089
341.133
341.163
341.178
341.178
341.163
341.133
341.089
341.034
340.971
340.902
340.829
340.758
340.702
331.585
331.628
331.683
331.74
331.794
331.843
331.886
331.92
331.943
331.956
331.956
331.943
331.92
331.886
331.843
331.794
331.74
331.683
331.628
331.585
322.528
322.559
322.598
322.639
322.677
322.713
322.743
322.767
322.784
322.793
322.793
322.784
322.767
322.743
322.713
322.677
322.639
322.598
322.559
322.528
313.515
313.533
313.557
313.581
313.604
313.625
313.644
313.658
313.669
313.674
313.674
313.669
313.658
313.644
313.625
313.604
313.581
313.557
313.533
313.515
304.527
304.533
304.541
304.55
304.557
304.564
304.571
304.576
304.579
304.581
304.581
304.579
304.576
304.571
304.564
304.557
304.55
304.541
304.533
304.527
370.638
370.732
370.844
370.957
371.064
371.162
371.246
371.313
371.359
371.383
371.383
371.359
371.313
371.246
371.162
371.064
370.957
370.844
370.732
370.638
360.863
360.942
361.039
361.138
361.232
361.317
361.39
361.448
361.489
361.51
361.51
361.489
361.448
361.39
361.317
361.232
361.138
361.039
360.942
360.863
351.246
351.312
351.394
351.478
351.558
351.63
351.693
351.742
351.777
351.794
351.794
351.777
351.742
351.693
351.63
351.558
351.478
351.394
351.312
351.246
341.761
341.814
341.881
341.95
342.016
342.075
342.127
342.167
342.196
342.21
342.21
342.196
342.167
342.127
342.075
342.016
341.95
341.881
341.814
341.761
332.382
332.423
332.475
332.528
332.58
332.626
332.666
332.698
332.72
332.731
332.731
332.72
332.698
332.666
332.626
332.58
332.528
332.475
332.423
332.382
323.083
323.112
323.15
323.188
323.225
323.258
323.287
323.31
323.326
323.334
323.334
323.326
323.31
323.287
323.258
323.225
323.188
323.15
323.112
323.083
313.843
313.86
313.883
313.906
313.928
313.948
313.965
313.979
313.988
313.993
313.993
313.988
313.979
313.965
313.948
313.928
313.906
313.883
313.86
313.843
304.636
304.642
304.65
304.657
304.665
304.672
304.677
304.682
304.685
304.687
304.687
304.685
304.682
304.677
304.672
304.665
304.657
304.65
304.642
304.636
)
;

boundaryField
{
    hotSide
    {
        type            fixedGradient;
        gradient        nonuniform List<scalar> 
400
(
441.478
443.294
446.931
452.392
459.687
468.826
479.821
492.685
507.431
524.072
542.623
563.094
585.497
609.842
636.138
664.392
694.611
726.8
760.964
797.104
445.151
446.938
450.517
455.896
463.084
472.097
482.95
495.658
510.241
526.715
545.095
565.398
587.636
611.821
637.965
666.075
696.158
728.22
762.265
798.295
449.126
450.879
454.39
459.669
466.732
475.596
486.282
498.811
513.205
529.486
547.674
567.787
589.842
613.851
639.827
667.78
697.717
729.642
763.562
799.477
453.337
455.05
458.482
463.647
470.564
479.257
489.753
502.078
516.261
532.328
550.303
570.208
592.063
615.883
641.681
669.468
699.251
731.035
764.825
800.622
457.667
459.334
462.677
467.714
474.47
482.974
493.26
505.363
519.316
535.152
552.901
572.587
594.233
617.856
643.471
671.088
700.715
732.358
766.019
801.7
461.935
463.553
466.801
471.702
478.286
486.59
496.657
508.528
522.245
537.845
555.364
574.829
596.267
619.695
645.13
672.582
702.059
733.565
767.104
802.674
465.896
467.465
470.619
475.384
481.798
489.907
499.759
511.405
524.893
540.268
557.567
576.825
598.067
621.315
646.584
673.885
703.226
734.61
768.038
803.51
469.258
470.784
473.852
478.495
484.757
492.691
502.353
513.801
527.09
542.268
559.379
578.458
599.534
622.629
647.759
674.934
704.161
735.443
768.781
804.173
471.718
473.21
476.214
480.764
486.91
494.711
504.23
515.529
528.668
543.7
560.671
579.619
600.574
623.557
648.586
675.67
704.816
736.025
769.299
804.633
473.022
474.496
477.463
481.963
488.047
495.776
505.217
516.436
529.495
544.449
561.345
580.223
601.113
624.038
649.013
676.05
705.153
736.325
769.564
804.87
473.022
474.496
477.463
481.963
488.047
495.776
505.217
516.436
529.495
544.449
561.345
580.223
601.113
624.038
649.013
676.05
705.153
736.325
769.564
804.87
471.718
473.21
476.214
480.764
486.91
494.711
504.23
515.529
528.668
543.7
560.671
579.619
600.574
623.557
648.586
675.67
704.816
736.025
769.299
804.633
469.258
470.784
473.852
478.495
484.757
492.691
502.353
513.801
527.09
542.268
559.379
578.458
599.534
622.629
647.759
674.934
704.161
735.443
768.781
804.173
465.896
467.465
470.619
475.384
481.798
489.907
499.759
511.405
524.893
540.268
557.567
576.825
598.067
621.315
646.584
673.885
703.226
734.61
768.038
803.51
461.935
463.553
466.801
471.702
478.286
486.59
496.657
508.528
522.245
537.845
555.364
574.829
596.267
619.695
645.13
672.582
702.059
733.565
767.104
802.674
457.667
459.334
462.677
467.714
474.47
482.974
493.26
505.363
519.316
535.152
552.901
572.587
594.233
617.856
643.471
671.088
700.715
732.358
766.019
801.7
453.337
455.05
458.482
463.647
470.564
479.257
489.753
502.078
516.261
532.328
550.303
570.208
592.063
615.883
641.681
669.468
699.251
731.035
764.825
800.622
449.126
450.879
454.39
459.669
466.732
475.596
486.282
498.811
513.205
529.486
547.674
567.787
589.842
613.851
639.827
667.78
697.717
729.642
763.562
799.477
445.151
446.938
450.517
455.896
463.084
472.097
482.95
495.658
510.241
526.715
545.095
565.398
587.636
611.821
637.965
666.075
696.158
728.22
762.265
798.295
441.478
443.294
446.931
452.392
459.687
468.826
479.821
492.685
507.431
524.072
542.623
563.094
585.497
609.842
636.138
664.392
694.611
726.8
760.964
797.104
)
;
    }
    coldSide
    {
        type            mixed;
        refValue        uniform 300;
        refGradient     uniform 0;
        valueFraction   uniform 0.991591;
        source          uniform 0;
        value           nonuniform List<scalar> 
400
(
300.023
300.023
300.023
300.023
300.024
300.024
300.025
300.025
300.026
300.027
300.028
300.029
300.03
300.031
300.032
300.034
300.035
300.037
300.038
300.039
300.023
300.023
300.023
300.023
300.024
300.024
300.025
300.025
300.026
300.027
300.028
300.029
300.03
300.031
300.032
300.034
300.035
300.037
300.038
300.039
300.023
300.023
300.023
300.024