/*--------------------------------*- C++ -*----------------------------------*\
| =========                 |                                                 |
| \\      /  F ield         | OpenFOAM: The Open Source CFD Toolbox           |
|  \\    /   O peration     | Version:  2212                                  |
|   \\  /    A nd           | Website:  www.openfoam.com                      |
|    \\/     M anipulation  |                                                 |
\*---------------------------------------------------------------------------*/
FoamFile
{
    version     2.0;
    format      ascii;
    arch        "LSB;label=32;scalar=64";
    class       volScalarField;
    location    "./ITHACAoutput/true/4";
    object      error;
}
// * * * * * * * * * * * * * * * * * * * * * * * * * * * * * * * * * * * * * //

dimensions      [0 0 0 1 0 0 0];

internalField   nonuniform List<scalar> 
3200
(
-2.24824
-0.311676
1.52029
2.86646
3.93283
4.55873
5.05606
5.33871
5.44665
5.57239
5.58412
5.51155
5.36128
5.14441
4.95631
4.63327
3.94987
2.85521
1.22549
-0.58532
-1.9862
-0.353553
1.23664
2.35897
3.27501
3.95866
4.23103
4.51178
4.72506
4.72852
4.73872
4.62138
4.52488
4.47279
4.2176
3.95495
3.32292
2.49139
0.950788
-0.465567
-1.66818
-0.39466
1.02152
2.04883
2.73915
3.21906
3.54644
3.7375
3.87469
3.98645
3.94606
3.81738
3.82944
3.6959
3.53821
3.29339
2.72984
1.94802
0.836638
-0.38143
-1.40948
-0.33338
0.818851
1.5959
2.25197
2.63834
2.82473
3.0067
3.14366
3.19875
3.14249
3.15611
3.03161
2.9776
2.90575
2.65047
2.22553
1.59687
0.603136
-0.388551
-1.02934
-0.247138
0.458954
1.231
1.70415
2.00691
2.25328
2.29111
2.42008
2.41377
2.38819
2.41254
2.37366
2.23256
2.17358
1.98497
1.7062
1.22572
0.466192
-0.270346
-0.789566
-0.240668
0.413919
0.760297
1.21727
1.34411
1.65562
1.63544
1.78153
1.7009
1.78834
1.71318
1.64193
1.6279
1.59618
1.42485
1.24447
0.852205
0.390439
-0.165744
-0.510888
-0.133578
0.222405
0.514887
0.761783
0.828209
0.891545
1.04391
1.08468
1.05357
1.07965
0.986245
0.904399
1.0144
0.93982
0.797988
0.710946
0.55209
0.254063
-0.104868
-0.0711154
0.00461561
0.0169684
0.0498148
0.237629
0.237512
0.356693
0.318017
0.331582
0.330866
0.300842
0.253552
0.325176
0.382465
0.342357
0.381205
0.179918
0.159127
0.0943343
7.05793e-05
-2.14134
-0.275955
1.60874
2.90388
3.90628
4.43311
4.75289
5.05628
5.06338
5.17581
5.09543
5.00687
4.94113
4.88266
4.682
4.44222
3.86454
2.82617
1.25836
-0.575697
-1.77604
-0.212019
1.17338
2.50404
3.20443
3.75029
4.17629
4.31688
4.39857
4.48304
4.44013
4.21983
4.13357
4.18976
4.02649
3.75105
3.24424
2.36924
1.0093
-0.522082
-1.65962
-0.264348
1.02831
1.97918
2.62489
3.19518
3.42196
3.52747
3.6729
3.66688
3.62421
3.49817
3.51058
3.43653
3.32442
3.1143
2.71713
1.98056
0.787016
-0.446772
-1.29397
-0.233162
0.740907
1.63541
2.17488
2.54625
2.73764
2.85088
2.92213
2.99041
2.93109
2.90485
2.83773
2.83315
2.69067
2.52849
2.17367
1.5822
0.666885
-0.343696
-0.990894
-0.32102
0.585543
1.18729
1.58132
1.96204
2.05265
2.31791
2.33103
2.32272
2.253
2.22046
2.16715
2.12475
2.09937
1.96048
1.69293
1.1501
0.407612
-0.230173
-0.704003
-0.15818
0.398408
0.809989
1.13335
1.44302
1.46722
1.52007
1.5985
1.75064
1.60995
1.6472
1.6045
1.56823
1.45614
1.38431
1.26637
0.871394
0.32232
-0.212122
-0.51186
-0.15906
0.177659
0.489128
0.672653
0.844111
0.847474
0.917589
0.979442
0.983073
0.971966
0.91209
0.867445
0.868649
0.897991
0.809488
0.675397
0.46012
0.164822
-0.0816735
-0.247967
-0.027755
0.0727672
0.159275
0.226542
0.270477
0.320755
0.331421
0.282563
0.299925
0.337368
0.274511
0.318441
0.325923
0.306323
0.224474
0.271971
0.199622
0.0511098
-0.0470012
-2.05763
-0.160933
1.61666
2.88204
3.6992
4.19973
4.40339
4.63329
4.60348
4.5471
4.50777
4.34909
4.38672
4.37981
4.35793
4.07444
3.60688
2.60958
1.13005
-0.59401
-1.80806
-0.236455
1.26043
2.39003
3.05132
3.53132
3.77988
3.93172
3.94708
3.80161
3.81425
3.71851
3.70134
3.6459
3.63292
3.45968
3.04102
2.21574
0.849824
-0.487254
-1.57108
-0.272831
1.00135
1.92857
2.63054
2.94966
3.05274
3.37292
3.23824
3.17799
3.11813
3.09698
3.08243
3.08928
3.08252
2.85994
2.54218
1.80839
0.704255
-0.486066
-1.31102
-0.236954
0.816586
1.57064
2.05554
2.3455
2.57127
2.69537
2.57677
2.61031
2.46865
2.46916
2.51465
2.43061
2.5137
2.31431
2.0148
1.45515
0.534435
-0.385769
-0.990972
-0.309685
0.519419
1.18587
1.54746
1.78711
1.9439
1.99333
1.9957
2.01611
2.01302
1.95354
1.9121
1.89089
1.94054
1.78098
1.49187
1.09337
0.514818
-0.382167
-0.704217
-0.195439
0.42891
0.890191
1.15032
1.33795
1.3997
1.46267
1.45163
1.43931
1.42262
1.29812
1.35774
1.40609
1.37906
1.24888
1.068
0.774691
0.230585
-0.219513
-0.447568
-0.0675112
0.221776
0.479103
0.672673
0.777532
0.822932
0.850335
0.820796
0.899852
0.801597
0.75995
0.782216
0.796238
0.819938
0.769442
0.684005
0.444825
0.155467
-0.187075
-0.112337
0.0321898
0.11354
0.212783
0.285291
0.193509
0.228131
0.304567
0.226918
0.256139
0.299071
0.262199
0.333597
0.259909
0.29881
0.249267
0.207762
0.137715
0.0547651
-0.0617
-2.08718
-0.183781
1.45741
2.63634
3.49925
3.85712
4.03042
4.04503
3.94479
3.79131
3.62283
3.57557
3.63422
3.68275
3.68699
3.61491
3.24364
2.36018
0.907271
-0.714965
-1.81597
-0.329008
1.20618
2.27579
2.92734
3.26365
3.42159
3.38815
3.38293
3.28458
3.04816
3.08053
3.07363
3.22718
3.19523
3.06519
2.7501
1.96902
0.751873
-0.629999
-1.55885
-0.27905
0.933077
1.75267
2.43496
2.64283
2.85414
2.8792
2.73141
2.69782
2.62049
2.5345
2.53946
2.67555
2.6628
2.60538
2.19813
1.57244
0.622961
-0.518286
-1.26784
-0.19171
0.642852
1.42278
1.93221
2.19448
2.31674
2.3306
2.19384
2.10047
2.10703
2.09596
2.11636
2.08223
2.11503
2.05635
1.80949
1.26199
0.406836
-0.4491
-0.991076
-0.191194
0.599243
1.05654
1.40679
1.69572
1.77428
1.8295
1.78901
1.61416
1.67062
1.61427
1.63292
1.632
1.68074
1.61071
1.34767
1.03832
0.300613
-0.308536
-0.757731
-0.134396
0.376005
0.775934
1.06623
1.14671
1.24953
1.24671
1.24561
1.22078
1.09953
1.1532
1.13778
1.14417
1.15697
1.11113
0.948543
0.637026
0.194043
-0.219137
-0.430782
-0.112357
0.182201
0.478641
0.573892
0.779304
0.710737
0.819835
0.790032
0.700472
0.653214
0.648074
0.677703
0.768677
0.679541
0.704775
0.599708
0.407035
0.154466
-0.0964744
-0.170145
0.0173794
0.0785175
0.183747
0.161782
0.231297
0.266418
0.332773
0.318376
0.241317
0.200855
0.152126
0.237089
0.289168
0.284354
0.277822
0.156077
0.161185
0.0878992
0.00529302
-2.04815
-0.31473
1.28596
2.39942
3.15177
3.51137
3.57749
3.45421
3.1944
3.00473
2.81848
2.80165
2.901
3.00277
3.15598
3.12957
2.77815
1.87052
0.587325
-0.940636
-1.86363
-0.405041
1.00817
1.98755
2.63701
2.92015
3.07384
2.95642
2.6721
2.58595
2.40504
2.36343
2.38036
2.50452
2.64497
2.72155
2.35564
1.66509
0.495834
-0.859439
-1.58553
-0.346021
0.762789
1.63879
2.20945
2.46061
2.44019
2.41447
2.31375
2.11571
2.00648
1.9506
2.04267
2.11885
2.23082
2.13026
1.88653
1.38967
0.330042
-0.729339
-1.27982
-0.378406
0.552353
1.23149
1.7356
1.90506
1.97574
1.98751
1.77835
1.61357
1.60084
1.56321
1.63904
1.76259
1.81072
1.76879
1.45341
0.998798
0.210749
-0.571348
-1.09664
-0.357835
0.465402
0.987321
1.24127
1.454
1.53746
1.40355
1.42774
1.31316
1.20263
1.27048
1.29258
1.29501
1.39928
1.36674
1.2227
0.865029
0.152241
-0.401608
-0.732182
-0.250679
0.29148
0.676491
0.937284
1.1578
1.09781
1.02787
0.997974
0.971573
0.873405
0.876882
0.802408
0.92622
0.97508
0.896574
0.831637
0.530361
0.162849
-0.342517
-0.486828
-0.160558
0.187079
0.31379
0.579651
0.554638
0.666302
0.645863
0.59837
0.629681
0.512192
0.546031
0.454091
0.550645
0.556673
0.587643
0.441842
0.265175
0.114528
-0.202398
-0.213587
-0.067657
0.0684611
0.125926
0.229448
0.124672
0.223716
0.295385
0.270375
0.196918
0.157899
0.189399
0.241428
0.262305
0.240491
0.172442
0.149035
0.0947963
0.0116242
-0.0597974
-2.14886
-0.485102
1.04599
2.15965
2.78812
3.06486
2.94301
2.82317
2.48812
2.17542
1.95972
1.9547
2.01095
2.25936
2.44447
2.51848
2.24985
1.48992
0.260432
-1.23737
-1.92652
-0.54125
0.80092
1.80956
2.34446
2.64451
2.46743
2.45179
2.12445
1.85074
1.63163
1.60932
1.72952
1.94816
2.1112
2.13334
1.9117
1.19546
0.173362
-1.01615
-1.65316
-0.497039
0.63223
1.38327
1.9094
2.13206
2.18901
1.99965
1.71709
1.48522
1.34686
1.2909
1.43764
1.66079
1.76171
1.74108
1.54049
0.986522
0.0366236
-0.953974
-1.39244
-0.540089
0.453367
1.16841
1.54857
1.73035
1.65871
1.57263
1.40523
1.25055
1.09365
1.04597
1.17977
1.29563
1.45281
1.39574
1.21849
0.777247
-0.0322716
-0.706476
-1.11777
-0.396243
0.276327
0.918452
1.12212
1.28156
1.35987
1.22927
1.09945
0.98897
0.83574
0.765095
0.856702
1.02736
1.07515
1.03572
1.00222
0.669033
-0.0166173
-0.617726
-0.798911
-0.222206
0.22984
0.531633
0.822329
0.953161
0.987557
0.845851
0.767992
0.667125
0.530739
0.556422
0.58492
0.745227
0.754142
0.731968
0.717792
0.368458
0.0199617
-0.36869
-0.512061
-0.183434
0.106072
0.328511
0.487688
0.532193
0.572097
0.504264
0.460417
0.357867
0.285107
0.354794
0.272534
0.41809
0.474193
0.549151
0.284896
0.284357
0.0447942
-0.176684
-0.169805
-0.0328503
0.0858011
0.127841
0.164322
0.139708
0.0842513
0.165462
0.203413
0.0519705
0.101385
0.0953298
0.18627
0.0690359
0.214402
0.167557
0.0484912
0.0649225
-0.00747405
-0.0793584
-2.11959
-0.566281
0.866284
1.85316
2.46345
2.73733
2.54639
2.28094
1.82257
1.42325
1.17219
1.05324
1.25893
1.52469
1.90803
1.91972
1.70744
1.06007
-0.157651
-1.54394
-1.99469
-0.714187
0.67193
1.53432
2.07096
2.19954
2.08203
1.97797
1.58802
1.17048
0.993503
0.93025
1.09847
1.26552
1.57753
1.65022
1.41792
0.812183
-0.196959
-1.33898
-1.72711
-0.52985
0.410334
1.18001
1.66116
1.8388
1.8063
1.53478
1.28395
1.05203
0.813982
0.8316
0.857992
1.06691
1.34123
1.32509
1.09288
0.724955
-0.216871
-1.09541
-1.4553
-0.56177
0.324642
0.905283
1.33322
1.43065
1.3776
1.16175
0.991253
0.770675
0.613708
0.516447
0.66438
0.871245
1.00738
1.04025
0.947044
0.4904
-0.121866
-0.945306
-1.0443
-0.460113
0.232145
0.750365
1.02168
1.14372
1.04273
0.983144
0.756112
0.54174
0.45475
0.40516
0.493397
0.659349
0.765372
0.82119
0.768902
0.434044
-0.101624
-0.771485
-0.77794
-0.366668
0.143771
0.492997
0.676433
0.825168
0.809112
0.715488
0.581285
0.439976
0.271968
0.30829
0.304624
0.435684
0.527028
0.580178
0.56156
0.286623
-0.0938117
-0.428491
-0.448149
-0.172281
0.147933
0.259466
0.394481
0.47581
0.381491
0.426342
0.3559
0.274281
0.189764
0.157373
0.204436
0.295283
0.328781
0.31746
0.236022
0.100514
-0.0830005
-0.304193
-0.0316952
-0.0729533
0.0822573
0.122554
0.116247
0.0890605
0.167762
0.0774664
0.0499346
0.0652798
0.0399096
-0.000646032
0.0614806
0.0713677
0.0863698
0.111815
0.0719949
0.0786253
0.00283551
-0.0123141
-2.29921
-0.779216
0.653339
1.67278
2.19746
2.25301
2.13217
1.74013
1.28234
0.74235
0.472914
0.405883
0.614404
0.948967
1.3338
1.46996
1.25969
0.599588
-0.554193
-1.82758
-1.95616
-0.770606
0.413742
1.31845
1.81685
1.93909
1.78429
1.44002
0.94191
0.653542
0.37888
0.377729
0.491447
0.814631
1.10139
1.21601
1.00895
0.486167
-0.50864
-1.58761
-1.71091
-0.663432
0.307847
1.00774
1.39231
1.57673
1.49189
1.2065
0.873316
0.527304
0.301284
0.294211
0.398964
0.647804
0.887196
0.96382
0.839199
0.283415
-0.496607
-1.28882
-1.46452
-0.646209
0.226047
0.777165
1.11225
1.22759
1.1336
0.921706
0.594893
0.382271
0.168617
0.225204
0.289222
0.500943
0.774793
0.793917
0.632561
0.246141
-0.375216
-1.1184
-1.14517
-0.539113
0.166052
0.598195
0.90644
0.947946
0.935889
0.724937
0.474167
0.21967
0.157607
0.169409
0.286796
0.440547
0.524342
0.61587
0.503994
0.242121
-0.306206
-0.880763
-0.818463
-0.343385
0.0847327
0.363157
0.641032
0.720374
0.588868
0.464499
0.362968
0.145089
0.0904636
0.137789
0.14614
0.290425
0.430812
0.395692
0.353567
0.199575
-0.185022
-0.576559
-0.459318
-0.197279
0.0158511
0.233985
0.280555
0.426169
0.367191
0.21861
0.264948
0.127486
0.126984
0.0440854
0.172301
0.147089
0.199744
0.195985
0.20646
0.0707368
-0.119218
-0.348599
-0.227274
-0.149845
0.0108875
0.109631
0.148897
0.178174
0.170029
0.0533016
0.0275272
0.0271045
-0.00625592
-0.0483793
0.0403589
0.123763
0.0718532
0.10476
0.0561278
0.0154659
0.00342888
-0.120529
-2.23193
-0.733942
0.581906
1.44946
1.97552
1.9958
1.78655
1.36466
0.87606
0.283013
0.0440979
-0.117654
0.116378
0.484157
0.879112
1.08428
0.869594
0.3086
-0.778032
-1.87838
-1.94417
-0.733353
0.301823
1.17367
1.60991
1.65686
1.44812
1.1373
0.6227
0.265886
-0.0486241
-0.159469
0.0701245
0.374953
0.801705
0.84859
0.69732
0.208401
-0.676606
-1.68236
-1.69372
-0.731103
0.200581
0.889055
1.27292
1.33583
1.21915
0.98578
0.558539
0.120268
-0.0915974
-0.0968966
0.0473333
0.367411
0.651858
0.699446
0.560866
0.079724
-0.558418
-1.39565
-1.41772
-0.716534
0.16055
0.653421
0.962138
0.97949
0.984996
0.74533
0.427647
0.173638
-0.121674
-0.0696546
0.00428842
0.303839
0.352472
0.615149
0.38191
0.0908207
-0.526998
-1.13697
-1.11297
-0.468477
0.107839
0.50403
0.752772
0.867152
0.690749
0.51699
0.35427
0.114762
-0.102423
-0.117142
0.0431614
0.193819
0.394859
0.356754
0.29959
0.110557
-0.432481
-0.858976
-0.730913
-0.448247
0.0587724
0.354345
0.570115
0.63061
0.541178
0.302775
0.14944
0.0875244
0.0149644
-0.0213406
0.0324907
0.12812
0.207717
0.339667
0.288043
0.0310472
-0.359209
-0.691337
-0.501263
-0.259409
0.0926486
0.156861
0.330867
0.317809
0.26539
0.220635
0.123585
0.0453188
0.0175883
-0.0328091
0.01153
0.0516868
0.137771
0.144187
0.101073
0.044026
-0.148745
-0.444876
-0.139386
-0.0694125
0.0409304
0.0589957
0.176002
0.144341
0.120188
0.0355884
0.0119403
0.0563553
0.0122567
0.00646528
-0.0221543
0.0337017
0.0302436
0.0573745
0.0255758
0.02671
-0.0759284
-0.156565
-2.09192
-0.676789
0.530976
1.44277
1.83321
1.94094
1.66857
1.25565
0.635728
0.111371
-0.301353
-0.397233
-0.25313
0.273401
0.659519
0.774284
0.648457
0.0500575
-0.907415
-2.07748
-1.91346
-0.703669
0.380528
1.17225
1.51675
1.56897
1.4181
0.931747
0.406416
-0.006832
-0.361761
-0.352571
-0.266175
0.229695
0.419106
0.642545
0.525583
0.0684104
-0.810694
-1.85633
-1.68467
-0.643902
0.21974
0.861364
1.19897
1.23297
1.1147
0.691489
0.326332
-0.040114
-0.27129
-0.301253
-0.172354
0.0964978
0.374995
0.46659
0.407043
0.000886287
-0.744687
-1.55463
-1.32927
-0.603268
0.118949
0.697651
0.955824
0.948322
0.78118
0.541946
0.325219
-0.089999
-0.245663
-0.298507
-0.210281
0.0463678
0.266248
0.377859
0.274036
-0.0143986
-0.537346
-1.22163
-1.08945
-0.415025
0.0239893
0.45822
0.646289
0.750531
0.703716
0.445178
0.165699
0.0179696
-0.260631
-0.3426
-0.160734
0.044279
0.228968
0.324421
0.254181
-0.0924346
-0.438782
-1.00359
-0.73274
-0.40558
0.0560352
0.370917
0.500727
0.50372
0.46721
0.330453
0.15589
-0.0316664
-0.197396
-0.148525
-0.0532636
0.0276263
0.0978251
0.216757
0.221147
-0.0167805
-0.248658
-0.715169
-0.450317
-0.269867
0.0489047
0.150029
0.203787
0.299402
0.294733
0.143664
0.0584498
-0.110406
-0.0614605
-0.0867511
-0.0309043
0.114699
0.0577697
0.163269
0.104935
-0.00781917
-0.275017
-0.407199
-0.151833
-0.0613464
0.136183
0.0476841
0.0253587
0.119386
0.11076
0.0804927
0.0126872
0.00244038
-0.00967961
-0.0775836
0.0367739
-0.0281384
0.0129336
0.0405589
0.0461856
-0.0535981
-0.0850526
-0.140206
-1.80178
-0.523401
0.626495
1.49316
1.92743
1.92768
1.56373
1.16212
0.507321
-0.0446463
-0.351997
-0.373039
-0.325798
0.271959
0.52553
0.780051
0.548513
-0.0201304
-0.878669
-2.03422
-1.753
-0.560213
0.410631
1.15246
1.48294
1.61144
1.31025
0.889596
0.46527
0.000204239
-0.336056
-0.34404
-0.204519
0.0554986
0.40704
0.569654
0.450944
-0.0388563
-0.800166
-1.72429
-1.3921
-0.508293
0.33871
0.93672
1.25786
1.30405
1.12804
0.742923
0.362823
-0.0563361
-0.354973
-0.374657
-0.142779
0.0361429
0.284062
0.422872
0.393542
-0.0509024
-0.703731
-1.42357
-1.23396
-0.455424
0.18268
0.687795
1.03226
1.0799
0.903147
0.58283
0.288251
-0.195411
-0.243172
-0.322791
-0.159513
0.0801084
0.173164
0.306415
0.260222
-0.0296443
-0.623921
-1.16206
-0.933011
-0.388684
0.149606
0.588692
0.80047
0.737331
0.551402
0.387549
0.131031
-0.0760796
-0.264558
-0.284194
-0.160885
-0.0146393
0.174418
0.29807
0.217634
-0.0797488
-0.572728
-0.89356
-0.716135
-0.341896
-0.0188031
0.353391
0.459543
0.518688
0.521121
0.188126
0.164384
-0.0268267
-0.147718
-0.215719
-0.0985304
0.0328767
0.105497
0.22809
0.160752
-0.0402239
-0.307146
-0.682812
-0.439669
-0.261563
0.117398
0.127101
0.301481
0.283282
0.258408
0.191409
0.0751466
-0.0288425
-0.0284239
-0.209977
-0.0654456
0.0566608
0.0046695
0.0827932
0.0566209
-0.0290437
-0.178577
-0.412735
-0.149182
-0.137295
0.0293418
0.0272048
0.107668
0.103268
0.0583452
0.0623518
0.0541331
-0.0732556
-0.149037
-0.0349465
-0.0429637
0.0193674
0.101331
0.0738419
0.0959214
0.0433579
-0.0595557
-0.0849802
-1.51669
-0.244205
0.904844
1.69121
2.08292
2.07531
1.84106
1.32329
0.709562
0.169563
-0.184882
-0.263542
0.00123698
0.254845
0.617165
0.724432
0.626137
0.206223
-0.777526
-1.83105
-1.41571
-0.314978
0.659334
1.37815
1.72044
1.72242
1.47486
1.07589
0.617011
0.139992
-0.191628
-0.303279
-0.0817135
0.253852
0.524618
0.618528
0.51052
0.147799
-0.674982
-1.59275
-1.2286
-0.394843
0.566996
1.06772
1.32163
1.47277
1.23357
0.873043
0.438514
0.0334331
-0.130398
-0.213241
-0.10881
0.159743
0.450061
0.545798
0.428539
0.0693897
-0.594245
-1.37209
-1.0036
-0.298748
0.364387
0.814716
1.03429
1.03041
0.959212
0.613623
0.403322
-0.0312706
-0.194893
-0.209267
-0.0749659
0.106796
0.301263
0.468565
0.322091
-0.0622557
-0.457627
-1.10843
-0.731982
-0.232636
0.247572
0.636417
0.816321
0.849719
0.699733
0.465638
0.248091
-0.0199627
-0.174919
-0.13885
-0.0544998
0.0794407
0.228905
0.374059
0.221413
-0.0558139
-0.33625
-0.860223
-0.54706
-0.145715
0.22746
0.439576
0.571022
0.586381
0.519922
0.34985
0.134807
0.00442971
-0.059818
-0.0968557
-0.0862379
-0.00529399
0.154167
0.24707
0.189755
-0.01255
-0.25933
-0.623623
-0.351233
-0.180059
0.0514675
0.292982
0.368853
0.322437
0.269805
0.144564
0.130277
0.0273894
-0.0279692
-0.111456
0.00650949
0.0482176
0.0624345
0.090651
0.0944749
-0.016214
-0.183335
-0.374033
-0.119917
-0.0102884
0.0856616
0.110402
0.104872
0.055241
0.065467
0.0923545
0.0356441
0.021315
-0.105883
-0.0289078
-0.0293081
-0.0367884
0.0248236
-0.0104374
0.0825369
0.0641613
-0.0926929
-0.185864
-1.019
0.242229
1.37649
2.02808
2.35555
2.52251
2.1442
1.71092
1.13516
0.641376
0.287881
0.16526
0.444723
0.649105
1.03687
1.06263
0.943472
0.424617
-0.509185
-1.44088
-1.00437
0.119062
1.06102
1.62678
2.00838
1.97394
1.66914
1.38058
0.964372
0.512993
0.257782
0.144985
0.290162
0.597367
0.735611
0.898198
0.765441
0.332667
-0.421682
-1.30602
-0.85726
-0.0435006
0.794828
1.2908
1.57833
1.67209
1.33832
1.02094
0.73987
0.351924
0.176196
0.0505791
0.227405
0.514101
0.580353
0.715255
0.546008
0.248971
-0.403814
-1.06629
-0.779371
-0.0945653
0.597662
0.995791
1.26149
1.23998
1.15564
0.874084
0.612908
0.317323
0.11439
0.0305052
0.0527074
0.278708
0.505037
0.481909
0.483786
0.183484
-0.360654
-0.938662
-0.615293
-0.036188
0.429731
0.792124
0.952447
0.964974
0.865016
0.70214
0.441454
0.201273
-0.000415665
0.0609017
0.198457
0.282544
0.385022
0.424093
0.418718
0.104039
-0.232912
-0.69047
-0.438459
-0.0445289
0.214687
0.555834
0.593374
0.693565
0.617334
0.421887
0.245905
0.0995174
-0.021163
0.0327202
0.132202
0.13807
0.202099
0.35376
0.232782
0.102951
-0.118238
-0.563212
-0.242704
0.083879
0.16657
0.316408
0.40699
0.375332
0.296856
0.259889
0.190194
0.142563
0.0657792
0.0666875
-0.0294789
0.105659
0.159997
0.185645
0.168443
0.0136627
-0.0394112
-0.227539
-0.119189
-0.0677781
0.0539418
0.107131
0.138119
0.155457
0.089253
0.0907113
0.0589365
-0.0329471
0.0316452
0.0929655
-0.00266175
0.0617164
0.0207899
0.127319
0.0987251
-0.0256665
-0.0510047
-0.131895
-0.378554
0.704869
1.86805
2.50049
2.87876
2.88795
2.6033
2.24434
1.75277
1.3202
0.929123
0.877266
0.956423
1.23261
1.49479
1.59566
1.36564
0.83328
0.012887
-0.956439
-0.386947
0.542393
1.48409
2.10791
2.44419
2.41269
2.27513
1.82308
1.49908
0.982575
0.778144
0.752704
0.798516
1.06368
1.29338
1.30925
1.13078
0.74751
-0.0701756
-0.834169
-0.333395
0.405701
1.14964
1.68851
1.99331
2.00087
1.85519
1.51033
1.13536
0.811341
0.638481
0.553056
0.683177
0.74852
1.03663
1.06198
0.938428
0.587245
-0.0148675
-0.791596
-0.373142
0.310194
0.930276
1.39435
1.57042
1.61515
1.45724
1.22797
0.951407
0.65681
0.507649
0.440163
0.483141
0.7046
0.778781
0.879399
0.680939
0.45016
-0.00488713
-0.612915
-0.297973
0.224351
0.700978
1.04327
1.17868
1.23917
1.06816
0.943186
0.689267
0.508237
0.361781
0.320952
0.352415
0.516731
0.561441
0.690354
0.538951
0.356549
-0.0498658
-0.393225
-0.226339
0.163295
0.472973
0.732273
0.797216
0.84354
0.823747
0.673806
0.492438
0.390998
0.226181
0.172297
0.335334
0.341233
0.417853
0.513133
0.381705
0.24093
-0.101989
-0.292386
-0.0789417
0.0251388
0.255212
0.445453
0.539206
0.502527
0.497864
0.36948
0.316279
0.177435
0.161691
0.11726
0.132957
0.188938
0.267288
0.258538
0.218253
0.165452
-0.0402862
-0.269884
-0.125873
0.133325
0.129436
0.104126
0.14334
0.127402
0.162679
0.144505
0.11664
0.0609794
0.0793821
0.0419254
0.0596865
0.120817
0.0304969
0.152341
0.0627881
0.022263
-0.126137
-0.159174
0.383702
1.5165
2.61263
3.24435
3.62394
3.51669
3.38028
2.9894
2.527
2.12496
1.78922
1.76152
1.83787
2.03744
2.13476
2.12634
2.00392
1.45733
0.693942
-0.309058
0.267467
1.22442
2.04094
2.73719
2.99946
3.02883
2.78716
2.47291
2.05421
1.79347
1.58048
1.49763
1.55589
1.6897
1.73306
1.89064
1.6263
1.19504
0.454584
-0.326295
0.163729
0.912041
1.70672
2.20502
2.46908
2.49312
2.30373
2.02452
1.63115
1.50372
1.19597
1.23564
1.23621
1.33889
1.44519
1.48212
1.39586
1.01416
0.470643
-0.282062
0.064212
0.663549
1.35564
1.7547
1.97413
1.98918
1.85257
1.62359
1.42842
1.13911
0.959379
0.931787
0.98053
1.11563
1.26713
1.2733
1.07876
0.791935
0.381418
-0.264507
-0.0383022
0.520778
0.950776
1.32133
1.53928
1.59936
1.41986
1.24151
1.05495
0.953832
0.788553
0.708862
0.82413
0.878653
0.96161
0.932267
0.870339
0.568829
0.253076
-0.203349
0.0374213
0.361486
0.716935
0.954059
1.0152
1.00109
0.964857
0.876086
0.772804
0.587214
0.58113
0.555441
0.561509
0.525876
0.678293
0.722762
0.559843
0.426322
0.154027
-0.160051
0.00846088
0.309984
0.410045
0.54371
0.612672
0.577506
0.569342
0.573988
0.439588
0.361566
0.38321
0.302009
0.329849
0.423851
0.399477
0.318031
0.403984
0.341922
0.0624839
-0.0864767
-0.0526658
0.101318
0.168206
0.20237
0.216404
0.261557
0.205742
0.133063
0.1301
0.0872724
0.183263
0.143928
0.111581
0.156166
0.170532
0.139977
0.0892076
0.10419
0.00398248
-0.0530283
1.16568
2.28949
3.39528
3.97125
4.43426
4.4378
4.23213
3.92592
3.5624
3.0916
2.85795
2.70588
2.78804
2.95047
3.02434
3.06734
2.81164
2.25483
1.45001
0.483528
1.02712
1.92477
2.8394
3.44193
3.65721
3.72423
3.55738
3.31593
2.96113
2.63671
2.44998
2.3345
2.35939
2.32266
2.55504
2.56347
2.34047
1.88053
1.08735
0.477595
0.781597
1.54207
2.3494
2.75662
3.06109
3.07967
2.90133
2.69306
2.40311
2.15068
2.04154
1.95806
2.02255
2.07257
2.15684
2.08189
1.93771
1.50213
0.93695
0.29028
0.611826
1.22046
1.8634
2.19729
2.44813
2.4351
2.32235
2.16667
2.01676
1.64901
1.48556
1.5877
1.61599
1.63301
1.73604
1.78401
1.6361
1.3173
0.764583
0.230908
0.457816
0.923864
1.33422
1.66332
1.8672
1.86777
1.82323
1.64148
1.522
1.39689
1.20709
1.2134
1.19745
1.22506
1.32376
1.30227
1.29862
1.01139
0.542782
0.156668
0.301257
0.553036
0.932585
1.20651
1.27282
1.36878
1.30931
1.26164
1.00976
0.958887
0.873956
0.836322
0.845981
0.95666
0.979098
0.92834
0.928584
0.666091
0.389492
0.153073
0.218751
0.34212
0.56568
0.793848
0.745275
0.777004
0.821294
0.663317
0.62594
0.578998
0.555264
0.479775
0.527341
0.481068
0.525083
0.563211
0.5515
0.347231
0.221427
0.0963069
0.0784822
0.140341
0.21175
0.24788
0.205703
0.22121
0.271607
0.266603
0.299861
0.171503
0.167106
0.228694
0.233894
0.262122
0.171209
0.224344
0.120825
0.093996
0.0828627
0.0536578
2.25356
3.33486
4.3806
4.9361
5.36302
5.39494
5.29615
4.87396
4.59818
4.32847
4.01944
3.88116
3.97846
4.09162
4.04144
3.98204
3.75435
3.21128
2.35306
1.37332
1.8794
2.85142
3.63583
4.14039
4.56152
4.57384
4.39035
4.21971
3.88951
3.60675
3.46797
3.42725
3.41246
3.37376
3.40191
3.28881
3.1812
2.7027
1.9244
1.12556
1.51064
2.22662
2.94268
3.42548
3.70821
3.74871
3.64077
3.45753
3.22198
3.05982
2.95522
2.81543
2.78986
2.84172
2.8325
2.91724
2.66364
2.24663
1.60643
0.92814
1.20088
1.7803
2.39902
2.78003
2.92819
2.99853
2.97366
2.75987
2.57172
2.41207
2.30259
2.31219
2.2446
2.2837
2.33174
2.24093
2.10473
1.87907
1.27034
0.78984
0.908199
1.38453
1.73362
2.09422
2.32426
2.28576
2.25846
2.10092
2.02108
1.85209
1.77055
1.62214
1.75377
1.8193
1.80933
1.72085
1.65862
1.36208
1.00119
0.611309
0.638336
0.950848
1.27085
1.47095
1.65007
1.63459
1.55582
1.49853
1.41322
1.26964
1.26408
1.19686
1.20945
1.26921
1.30373
1.1512
1.24457
1.04945
0.648286
0.364219
0.295741
0.562119
0.760212
0.900568
0.994098
0.938696
1.01244
0.864561
0.828895
0.79586
0.737342
0.679182
0.793225
0.775122
0.721737
0.766215
0.671174
0.582545
0.36793
0.285676
0.101732
0.203653
0.209628
0.398319
0.354231
0.30164
0.320566
0.321795
0.292399
0.279632
0.22057
0.265231
0.256092
0.223129
0.255298
0.214872
0.220663
0.185417
0.104955
0.0989242
3.32875
4.39113
5.37188
5.98321
6.39645
6.40863
6.28909
6.05928
5.66485
5.5581
5.28386
5.14421
5.18276
5.18348
5.22562
5.12575
4.75102
4.23916
3.43397
2.35418
2.78392
3.67871
4.51261
5.15041
5.44393
5.48178
5.39322
5.1905
4.90676
4.70886
4.48897
4.39524
4.42251
4.4072
4.36234
4.29152
4.03249
3.56583
2.87242
1.94934
2.29762
2.98399
3.75561
4.19166
4.41064
4.4921
4.46143
4.25787
4.13126
3.87864
3.7328
3.72076
3.58388
3.70794
3.63824
3.61029
3.32092
2.88495
2.28545
1.70536
1.71375
2.37542
3.00345
3.41986
3.58689
3.65783
3.63118
3.44114
3.25296
3.10806
3.09365
2.93011
2.95372
2.93471
2.94522
2.9387
2.68076
2.39374
1.78637
1.3782
1.37184
1.86325
2.24005
2.58905
2.78247
2.76411
2.79879
2.65165
2.54177
2.40549
2.25486
2.24736
2.31491
2.2654
2.2901
2.24524
2.04897
1.83833
1.43329
1.12655
0.927125
1.38157
1.64835
1.78981
1.97341
2.04331
1.96829
1.91232
1.83559
1.70632
1.64023
1.63959
1.65042
1.55256
1.57659
1.59812
1.42811
1.31853
1.08206
0.761651
0.536114
0.716933
0.903952
1.11201
1.20671
1.21827
1.21789
1.15642
1.04566
1.03526
1.01444
0.907259
1.01348
0.954924
0.942141
0.935215
0.870513
0.824779
0.5815
0.441
0.263144
0.265127
0.32765
0.427803
0.437221
0.392638
0.414155
0.425446
0.290066
0.341702
0.280572
0.194484
0.412153
0.372626
0.32647
0.223454
0.217423
0.21581
0.281561
0.234265
4.40273
5.41245
6.39915
7.01489
7.42504
7.50546
7.40887
7.20962
6.96675
6.80581
6.56708
6.42988
6.39199
6.31911
6.2768
6.18686
5.81802
5.18019
4.28036
3.39023
3.68422
4.50582
5.34656
5.88913
6.24928
6.38522
6.37509
6.15755
5.98679
5.7199
5.6021
5.49604
5.41336
5.44871
5.34787
5.30937
4.99956
4.3912
3.6542
2.90426
2.91405
3.72257
4.34239
4.94265
5.23779
5.26727
5.23809
5.1732
4.98753
4.74056
4.61116
4.56967
4.50886
4.48665
4.4841
4.40583
4.05815
3.59016
3.09833
2.3521
2.34024
2.94334
3.42214
3.9763
4.16152
4.29302
4.24357
4.05157
4.05328
3.89678
3.65452
3.63385
3.61668
3.63295
3.62254
3.5571
3.23933
2.92004
2.43417
1.90725
1.81069
2.30737
2.76209
3.06058
3.1411
3.25961
3.3044
3.17438
3.02415
2.89588
2.88175
2.82077
2.7641
2.83354
2.75865
2.71404
2.54988
2.34157
1.91265
1.52001
1.33402
1.61698
1.93041
2.1389
2.23842
2.29201
2.22979
2.31183
2.16726
2.12553
2.02019
1.90734
1.95646
1.97396
1.94251
1.93224
1.71982
1.62954
1.30153
1.06419
0.678857
0.920049
1.10236
1.28869
1.35085
1.43874
1.39986
1.40592
1.25227
1.24619
1.17821
1.16627
1.17797
1.22877
1.15862
1.16297
1.10894
0.912
0.790877
0.645943
0.360621
0.276498
0.387268
0.454816
0.433127
0.4997
0.443625
0.49252
0.432245
0.410915
0.35951
0.364282
0.407225
0.383517
0.402711
0.317955
0.373143
0.361926
0.313343
0.264659
5.24413
6.32228
7.27948
7.89499
8.29068
8.44798
8.31815
8.19474
7.97843
7.74936
7.55567
7.46687
7.38818
7.3414
7.17092
6.99221
6.69601
6.08412
5.22864
4.23096
4.37988
5.27328
6.00851
6.5692
6.88885
7.11279
7.03376
6.91956
6.76684
6.5892
6.34925
6.21985
6.28599
6.15717
6.10402
5.97141
5.63231
5.09883
4.37157
3.63283
3.56948
4.30694
5.00278
5.45606
5.72381
5.8551
5.81945
5.72951
5.55097
5.47132
5.25724
5.19209
5.13715
5.14541
5.10424
4.99987
4.64186
4.16371
3.59818
2.90159
2.89212
3.392
4.05124
4.3712
4.59659
4.69284
4.71937
4.56197
4.50983
4.26169
4.22908
4.19155
4.08664
4.143
4.03621
4.01614
3.74274
3.32923
2.87287
2.31815
2.22221
2.55589
2.96352
3.34081
3.54317
3.64519
3.57463
3.52437
3.53217
3.27984
3.13659
3.17752
3.15718
3.20004
3.05554
3.01616
2.87636
2.55501
2.18188
1.80956
1.57709
1.83379
2.05873
2.35469
2.44245
2.61411
2.56121
2.4357
2.41252
2.27881
2.28009
2.28394
2.21381
2.21758
2.16909
2.16366
2.07161
1.86071
1.48161
1.24422
0.893321
0.986486
1.33907
1.42403
1.44099
1.49074
1.53444
1.46145
1.36472
1.38914
1.35169
1.35585
1.32651
1.28464
1.34671
1.24458
1.16406
1.13139
0.914188
0.792835
0.270147
0.312555
0.44409
0.434126
0.508861
0.537857
0.455743
0.488661
0.549004
0.454874
0.461422
0.462499
0.449851
0.375848
0.463012
0.431887
0.418895
0.382482
0.340537
0.312269
)
;

boundaryField
{
    hotSide
    {
        type            calculated;
        value           nonuniform List<scalar> 
400
(
-1.26933
-1.16224
-1.07812
-1.10695
-1.06676
-1.16572
-1.13393
-1.31006
-1.23813
-1.0921
-0.79439
-0.49998
0.00894326
0.662688
1.44043
2.24021
3.3483
4.44617
5.54536
6.41456
0.722284
0.757748
0.872324
0.848955
0.717565
0.547053
0.466261
0.254489
0.301968
0.362615
0.521039
0.807035
1.30223
1.77578
2.60062
3.38924
4.45277
5.52981
6.57458
7.51057
2.61382
2.70149
2.70794
2.54669
2.37292
2.13057
1.94876
1.73428
1.66223
1.61192
1.70958
1.99189
2.46954
2.96938
3.72466
4.52058
5.52186
6.53188
7.58072
8.48549
4.0231
4.05914
4.03464
3.78522
3.5438
3.2991
2.98765
2.80268
2.57558
2.56629
2.61565
2.81454
3.15443
3.63226
4.38415
5.12184
6.10035
7.16408
8.21539
9.11815
5.15434
5.12573
4.91467
4.70909
4.35468
3.98326
3.6505
3.37658
3.14742
2.99906
3.08884
3.2419
3.51441
4.0401
4.79057
5.60913
6.54922
7.59714
8.64342
9.52999
5.84419
5.71579
5.477
5.12671
4.77146
4.3142
3.97528
3.47957
3.21159
3.14714
3.126
3.26788
3.71185
4.07684
4.70817
5.63506
6.60127
7.62742
8.7401
9.7019
6.40089
6.0942
5.73787
5.35518
4.89021
4.24204
3.83081
3.40184
3.04202
2.91108
2.79507
3.06354
3.36053
3.81648
4.59356
5.44892
6.51997
7.52353
8.65751
9.58459
6.73392
6.44731