/*--------------------------------*- C++ -*----------------------------------*\
| =========                 |                                                 |
| \\      /  F ield         | OpenFOAM: The Open Source CFD Toolbox           |
|  \\    /   O peration     | Version:  2212                                  |
|   \\  /    A nd           | Website:  www.openfoam.com                      |
|    \\/     M anipulation  |                                                 |
\*---------------------------------------------------------------------------*/
FoamFile
{
    version     2.0;
    format      ascii;
    arch        "LSB;label=32;scalar=64";
    class       volScalarField;
    location    "0";
    object      stateMean;
}
// * * * * * * * * * * * * * * * * * * * * * * * * * * * * * * * * * * * * * //

dimensions      [0 0 0 1 0 0 0];

internalField   nonuniform List<scalar> 
3200
(
347.279
346.181
345.42
345.241
345.376
345.93
346.522
347.158
347.719
347.948
347.936
347.654
347.136
346.434
345.533
344.676
344.157
344.085
344.644
345.616
341.032
340.11
339.442
339.33
339.454
339.79
340.46
340.973
341.338
341.64
341.63
341.442
340.96
340.218
339.531
338.774
338.366
338.188
338.805
339.512
334.722
334.038
333.399
333.225
333.414
333.796
334.264
334.743
335.093
335.239
335.279
335.151
334.651
334.114
333.477
332.86
332.544
332.473
332.806
333.435
328.465
327.863
327.346
327.266
327.328
327.647
328.109
328.474
328.735
328.89
328.947
328.723
328.449
327.956
327.379
326.93
326.636
326.568
326.927
327.445
322.083
321.665
321.451
321.221
321.306
321.551
321.809
322.196
322.376
322.545
322.571
322.383
322.113
321.829
321.384
321.025
320.746
320.684
320.952
321.324
315.838
315.547
315.243
315.283
315.225
315.489
315.537
315.861
315.935
316.132
316.045
316.004
315.854
315.565
315.237
315.017
314.799
314.805
314.916
315.214
309.551
309.328
309.182
309.121
309.114
309.283
309.435
309.465
309.556
309.657
309.631
309.655
309.605
309.313
309.171
309.078
308.925
308.852
308.94
309.145
303.102
303.077
303.135
303.18
303.072
303.151
303.104
303.204
303.235
303.259
303.289
303.313
303.197
303.079
303.047
302.929
303.05
302.993
302.988
303.031
347.299
346.265
345.442
345.303
345.491
346.13
346.886
347.491
348.145
348.381
348.462
348.201
347.606
346.756
345.881
344.955
344.342
344.225
344.731
345.734
340.931
340.072
339.602
339.271
339.601
340.064
340.568
341.212
341.701
341.918
341.961
341.88
341.395
340.554
339.788
339.054
338.531
338.406
338.851
339.677
334.806
333.995
333.474
333.368
333.592
333.875
334.433
334.99
335.326
335.586
335.629
335.501
335.006
334.418
333.746
333.103
332.63
332.521
332.944
333.593
328.426
327.835
327.49
327.286
327.458
327.783
328.233
328.661
328.983
329.122
329.181
329
328.674
328.138
327.638
327.105
326.747
326.649
326.935
327.476
322.104
321.795
321.375
321.311
321.47
321.63
322.038
322.193
322.485
322.654
322.724
322.596
322.344
321.966
321.493
321.091
320.805
320.811
321.066
321.343
315.794
315.504
315.295
315.267
315.338
315.415
315.747
315.994
316.133
316.095
316.236
316.084
315.91
315.646
315.402
315.087
314.811
314.822
315.024
315.302
309.577
309.377
309.248
309.167
309.22
309.282
309.492
309.601
309.671
309.736
309.747
309.738
309.652
309.47
309.228
309.084
308.981
308.966
309.053
309.147
303.287
303.118
303.087
303.078
303.089
303.124
303.145
303.195
303.287
303.293
303.256
303.295
303.208
303.14
303.088
303.092
302.965
302.96
303.039
303.086
347.47
346.391
345.657
345.527
345.875
346.516
347.364
348.02
348.694
349.089
349.128
348.948
348.266
347.387
346.358
345.5
344.802
344.664
345.1
346.006
341.183
340.304
339.708
339.56
339.908
340.415
341.075
341.688
342.23
342.668
342.656
342.458
341.919
341.209
340.313
339.499
338.909
338.752
339.218
339.862
334.903
334.18
333.664
333.566
333.716
334.232
334.896
335.222
335.827
336.134
336.194
335.968
335.513
334.86
334.099
333.487
332.953
332.857
333.203
333.818
328.594
327.983
327.547
327.471
327.683
328.075
328.477
328.881
329.382
329.551
329.692
329.49
329.061
328.617
327.907
327.425
327.027
326.909
327.212
327.669
322.221
321.896
321.546
321.406
321.587
321.877
322.207
322.568
322.862
322.999
323.002
322.904
322.649
322.26
321.723
321.353
321.1
320.972
321.071
321.612
315.878
315.621
315.338
315.254
315.381
315.571
315.857
316.086
316.31
316.434
316.45
316.464
316.191
315.851
315.53
315.282
315.076
314.992
315.195
315.394
309.564
309.334
309.249
309.218
309.256
309.378
309.542
309.69
309.847
309.835
309.933
309.908
309.758
309.569
309.336
309.16
309.013
309.026
309.111
309.303
303.168
303.074
303.061
303.037
303.043
303.21
303.246
303.228
303.349
303.342
303.299
303.314
303.199
303.214
303.105
303.079
303.042
303.037
303.051
303.118
347.882
346.779
346.155
346.08
346.348
347.095
347.937
348.776
349.496
349.977
350.145
349.865
349.187
348.284
347.265
346.232
345.472
345.252
345.688
346.51
341.522
340.712
340.055
339.94
340.268
340.887
341.607
342.379
342.92
343.3
343.537
343.222
342.693
341.802
340.956
340.13
339.466
339.292
339.631
340.336
335.171
334.452
333.979
333.966
334.112
334.712
335.242
335.84
336.44
336.712
336.79
336.636
336.18
335.42
334.692
333.942
333.521
333.34
333.55
334.13
328.78
328.156
327.923
327.803
327.97
328.369
328.852
329.346
329.853
330.141
330.134
329.951
329.561
329.087
328.448
327.846
327.417
327.304
327.557
327.961
322.399
321.946
321.623
321.678
321.854
322.078
322.471
322.81
323.138
323.464
323.407
323.313
323.007
322.613
322.093
321.65
321.387
321.184
321.454
321.717
316.059
315.68
315.504
315.47
315.555
315.841
316.074
316.359
316.565
316.697
316.818
316.658
316.468
316.18
315.831
315.51
315.297
315.243
315.352
315.52
309.623
309.45
309.356
309.279
309.409
309.424
309.694
309.755
309.907
310.062
310.109
310.049
309.897
309.636
309.523
309.278
309.158
309.131
309.184
309.288
303.251
303.113
303.118
303.087
303.184
303.189
303.222
303.212
303.268
303.366
303.406
303.434
303.308
303.199
303.136
303.068
303.115
303.036
303.042
303.076
348.358
347.401
346.783
346.734
347.069
347.769
348.673
349.61
350.46
350.96
351.147
350.852
350.163
349.247
348.124
347.091
346.355
346.198
346.499
347.251
342.016
341.213
340.649
340.589
340.882
341.515
342.201
343.022
343.816
344.17
344.351
344.125
343.598
342.77
341.79
340.797
340.221
339.992
340.312
341.011
335.574
334.878
334.484
334.386
334.612
335.134
335.864
336.485
337.015
337.439
337.549
337.378
336.856
336.185
335.364
334.691
334.138
333.857
334.202
334.717
329.099
328.635
328.288
328.245
328.39
328.855
329.363
329.836
330.398
330.746
330.759
330.613
330.185
329.576
328.949
328.357
328.023
327.841
328.046
328.39
322.743
322.341
321.97
321.942
322.194
322.473
322.84
323.35
323.599
323.858
323.968
323.757
323.461
323.082
322.528
322.068
321.706
321.57
321.831
322.048
316.203
315.96
315.74
315.709
315.809
315.939
316.321
316.66
316.885
317.013
317.112
317.006
316.886
316.493
316.122
315.849
315.553
315.501
315.546
315.814
309.781
309.597
309.442
309.527
309.478
309.714
309.796
309.978
310.143
310.172
310.29
310.195
310.17
309.911
309.712
309.47
309.399
309.364
309.321
309.496
303.33
303.231
303.16
303.173
303.143
303.317
303.283
303.266
303.33
303.424
303.463
303.411
303.32
303.245
303.202
303.2
303.15
303.133
303.151
303.176
349.109
348.192
347.605
347.508
347.917
348.645
349.685
350.573
351.463
352.068
352.283
351.996
351.385
350.369
349.266
348.187
347.418
347.161
347.447
348.197
342.641
341.886
341.359
341.23
341.594
342.163
343.135
343.814
344.622
345.147
345.366
345.137
344.536
343.654
342.697
341.805
341.128
340.965
341.172
341.73
336.115
335.483
335.04
335.033
335.266
335.779
336.393
337.143
337.831
338.276
338.414
338.257
337.705
336.921
336.149
335.434
334.876
334.685
334.949
335.416
329.598
329.168
328.734
328.628
328.867
329.287
329.907
330.451
330.95
331.278
331.435
331.309
330.844
330.27
329.564
329.02
328.578
328.41
328.66
328.912
323.065
322.667
322.429
322.26
322.538
322.846
323.194
323.681
324.068
324.313
324.466
324.402
324.053
323.527
323.053
322.624
322.176
322.036
322.288
322.565
316.485
316.137
315.994
316.03
316.085
316.288
316.557
316.953
317.215
317.412
317.548
317.427
317.214
316.8
316.487
316.175
315.844
315.856
315.895
316.055
309.935
309.743
309.639
309.619
309.667
309.823
309.966
310.187
310.341
310.501
310.574
310.446
310.418
310.12
309.881
309.606
309.663
309.461
309.515
309.6
303.329
303.237
303.181
303.207
303.24
303.331
303.448
303.418
303.417
303.588
303.539
303.525
303.397
303.463
303.257
303.236
303.287
303.202
303.211
303.238
349.869
349.028
348.496
348.475
348.844
349.516
350.568
351.551
352.526
353.197
353.448
353.296
352.573
351.589
350.345
349.387
348.621
348.302
348.62
349.293
343.39
342.713
342.103
342.077
342.388
343.079
343.941
344.666
345.503
346.156
346.332
346.161
345.546
344.757
343.701
342.809
342.193
341.963
342.196
342.734
336.764
336.068
335.782
335.719
335.955
336.47
337.132
337.927
338.556
338.986
339.224
339.008
338.604
337.871
336.968
336.291
335.806
335.467
335.755
336.132
330.131
329.641
329.288
329.285
329.444
329.912
330.48
331.124
331.604
331.985
332.142
332.079
331.622
330.987
330.336
329.737
329.243
329.123
329.201
329.621
323.356
323.082
322.803
322.735
322.919
323.237
323.738
324.131
324.597
324.937
325.024
324.948
324.621
324.122
323.616
323.12
322.716
322.601
322.724
323.083
316.725
316.533
316.316
316.288
316.431
316.596
316.898
317.23
317.535
317.766
317.934
317.808
317.64
317.271
316.894
316.527
316.219
316.173
316.26
316.375
310.027
309.882
309.739
309.82
309.881
309.988
310.254
310.352
310.525
310.661
310.745
310.724
310.574
310.34
310.135
309.958
309.843
309.786
309.793
309.883
303.243
303.328
303.232
303.256
303.328
303.418
303.397
303.536
303.597
303.6
303.625
303.648
303.552
303.494
303.421
303.332
303.307
303.235
303.252
303.223
350.978
350.136
349.555
349.446
349.841
350.668
351.59
352.646
353.582
354.372
354.641
354.458
353.772
352.773
351.587
350.568
349.859
349.608
349.911
350.507
344.156
343.544
343.094
342.978
343.275
343.918
344.766
345.685
346.596
347.1
347.375
347.16
346.634
345.735
344.756
343.876
343.287
343.022
343.282
343.788
337.428
336.855
336.503
336.47
336.759
337.221
337.891
338.663
339.345
339.874
340.1
339.924
339.47
338.735
337.911
337.187
336.639
336.528
336.689
337.006
330.696
330.26
329.893
329.886
330.102
330.515
331.088
331.697
332.309
332.672
332.885
332.679
332.33
331.721
330.968
330.42
330.03
329.873
329.989
330.349
323.889
323.577
323.263
323.254
323.374
323.744
324.128
324.648
325.12
325.491
325.553
325.425
325.086
324.623
324.168
323.664
323.348
323.187
323.344
323.625
317.072
316.805
316.657
316.681
316.709
316.923
317.32
317.666
317.925
318.226
318.281
318.15
317.984
317.619
317.212
316.954
316.69
316.542
316.647
316.831
310.223
310.085
310.04
310.003
310.14
310.171
310.39
310.67
310.719
310.907
310.907
310.94
310.717
310.61
310.397
310.225
310.031
309.985
310.007
310.113
303.5
303.465
303.36
303.322
303.344
303.374
303.436
303.597
303.654
303.672
303.705
303.73
303.61
303.482
303.48
303.388
303.376
303.356
303.312
303.394
351.988
351.13
350.615
350.6
350.93
351.729
352.677
353.71
354.636
355.458
355.697
355.63
354.959
353.98
352.846
351.822
351.179
350.888
351.174
351.634
345.074
344.405
344.061
343.927
344.233
344.896
345.744
346.584
347.477
348.032
348.347
348.259
347.651
346.817
345.751
344.994
344.404
344.155
344.349
344.812
338.197
337.683
337.334
337.269
337.513
338.05
338.708
339.388
340.135
340.741
340.953
340.791
340.327
339.56
338.734
338.087
337.597
337.455
337.51
337.899
331.291
330.952
330.549
330.567
330.771
331.245
331.681
332.286
332.865
333.256
333.552
333.363
333.027
332.362
331.872
331.118
330.838
330.619
330.762
331.01
324.355
323.988
323.781
323.781
323.931
324.199
324.719
325.177
325.543
325.888
326.105
326.014
325.651
325.216
324.671
324.327
323.985
323.778
323.952
324.101
317.342
317.255
317.011
316.999
317.068
317.28
317.615
318.056
318.355
318.492
318.565
318.525
318.327
318.028
317.703
317.298
317.065
317.039
317.166
317.302
310.479
310.354
310.16
310.266
310.263
310.44
310.64
310.806
310.99
311.115
311.142
311.147
311.015
310.853
310.62
310.45
310.322
310.209
310.244
310.423
303.484
303.453
303.396
303.435
303.375
303.462
303.535
303.66
303.713
303.685
303.729
303.719
303.718
303.621
303.576
303.494
303.468
303.41
303.46
303.502
353.075
352.261
351.803
351.684
352.087
352.734
353.683
354.654
355.673
356.406
356.818
356.706
356.163
355.079
354.015
353.146
352.479
352.284
352.491
353.06
346.104
345.404
344.966
344.862
345.204
345.806
346.544
347.513
348.384
348.977
349.332
349.143
348.711
347.732
346.956
346.078
345.508
345.279
345.511
346.047
339.084
338.465
338.146
338.086
338.329
338.848
339.462
340.295
340.951
341.47
341.701
341.578
341.158
340.481
339.706
339.061
338.54
338.365
338.566
338.954
331.934
331.548
331.27
331.166
331.384
331.844
332.417
332.99
333.446
333.985
334.141
334.07
333.742
333.152
332.526
331.962
331.59
331.403
331.482
331.827
324.9
324.487
324.393
324.328
324.51
324.757
325.119
325.638
326.102
326.347
326.626
326.611
326.244
325.779
325.279
324.832
324.532
324.509
324.511
324.815
317.749
317.607
317.391
317.34
317.474
317.722
317.985
318.307
318.614
318.871
319.036
318.919
318.69
318.424
318.128
317.758
317.49
317.464
317.45
317.731
310.672
310.602
310.43
310.488
310.592
310.648
310.788
311.05
311.215
311.425
311.376
311.36
311.225
310.968
310.889
310.633
310.533
310.487
310.607
310.629
303.578
303.524
303.377
303.518
303.594
303.55
303.604
303.672
303.766
303.791
303.803
303.857
303.715
303.743
303.656
303.578
303.52
303.567
303.548
303.566
354.165
353.449
352.997
352.865
353.162
353.853
354.834
355.743
356.759
357.499
357.806
357.639
357.231
356.126
355.255
354.309
353.809
353.643
353.805
354.397
347.138
346.421
346.052
345.948
346.25
346.721
347.557
348.416
349.154
349.781
350.117
349.963
349.511
348.812
347.925
347.163
346.649
346.502
346.661
347.109
339.799
339.31
338.97
338.91
339.125
339.586
340.215
340.971
341.615
342.172
342.471
342.353
341.857
341.307
340.606
339.96
339.453
339.36
339.506
339.831
332.663
332.202
331.978
331.913
332.007
332.374
332.921
333.544
334.056
334.651
334.699
334.667
334.287
333.744
333.281
332.733
332.341
332.191
332.371
332.591
325.384
325.084
324.866
324.769
324.899
325.285
325.759
326.158
326.583
326.877
327.066
326.998
326.707
326.325
325.848
325.401
325.14
325.096
325.268
325.345
318.189
317.988
317.894
317.766
317.903
318.074
318.278
318.78
318.924
319.177
319.298
319.304
319.067
318.766
318.488
318.135
317.958
317.915
317.953
318.156
310.936
310.861
310.619
310.756
310.728
310.885
311.033
311.202
311.39
311.531
311.53
311.675
311.458
311.234
311.163
310.946
310.826
310.765
310.778
310.909
303.667
303.69
303.57
303.621
303.589
303.64
303.727
303.757
303.789
303.928
304.004
303.878
303.862
303.766
303.642
303.623
303.552
303.556
303.613
303.603
355.418
354.669
354.166
354.058
354.336
354.975
355.77
356.746
357.684
358.393
358.748
358.658
358.068
357.356
356.433
355.695
355.123
354.865
355.203
355.732
348.131
347.473
347.057
346.925
347.164
347.709
348.442
349.237
349.978
350.602
350.934
350.898
350.395
349.663
348.906
348.265
347.792
347.568
347.833
348.308
340.759
340.293
339.801
339.797
340.034
340.346
340.996
341.692
342.365
342.895
343.058
343.017
342.674
342.07
341.369
340.81
340.436
340.299
340.492
340.902
333.351
332.942
332.662
332.617
332.8
333.183
333.59
334.21
334.616
335.151
335.315
335.228
334.899
334.442
333.912
333.365
333.11
333.088
333.101
333.455
325.896
325.624
325.441
325.369
325.501
325.762
326.174
326.621
326.991
327.337
327.492
327.378
327.141
326.795
326.383
325.943
325.784
325.745
325.727
326.024
318.53
318.289
318.129
318.141
318.233
318.429
318.682
319.004
319.328
319.515
319.579
319.56
319.44
319.207
318.861
318.557
318.391
318.369
318.402
318.607
311.153
311.077
310.974
310.867
310.925
311.099
311.263
311.48
311.56
311.696
311.751
311.801
311.618
311.485
311.359
311.203
311.066
311.041
311.08
311.176
303.741
303.663
303.609
303.631
303.681
303.773
303.801
303.805
303.882
303.909
304.036
303.947
303.926
303.903
303.803
303.796
303.658
303.631
303.746
303.807
356.618
355.843
355.306
355.276
355.56
355.967
356.853
357.698
358.566
359.212
359.565
359.536
358.964
358.348
357.453
356.853
356.361
356.257
356.594
357.04
349.187
348.476
348.049
348.022
348.171
348.703
349.447
350.092
350.762
351.345
351.6
351.581
351.183
350.519
349.941
349.281
348.884
348.777
349.017
349.489
341.628
341.156
340.751
340.711
340.873
341.2
341.905
342.525
343.02
343.519
343.695
343.709
343.319
342.729
342.292
341.736
341.456
341.297
341.516
341.837
334.139
333.73
333.391
333.366
333.468
333.833
334.222
334.751
335.187
335.574
335.777
335.769
335.572
335.099
334.568
334.247
333.878
333.806
333.996
334.299
326.567
326.198
326.007
325.935
326.061
326.316
326.653
327.008
327.405
327.716
327.917
327.785
327.512
327.235
326.896
326.589
326.308
326.333
326.395
326.642
318.983
318.739
318.675
318.541
318.708
318.799
319.045
319.377
319.651
319.847
319.968
319.864
319.667
319.524
319.291
318.947
318.864
318.787
318.812
319.108
311.382
311.144
311.178
311.154
311.186
311.333
311.512
311.632
311.76
311.838
311.915
311.883
311.921
311.703
311.548
311.407
311.302
311.331
311.267
311.367
303.853
303.832
303.749
303.738
303.748
303.769
303.869
303.895
303.947
304.049
303.984
303.913
303.989
303.896
303.903
303.759
303.746
303.829
303.815
303.866
357.837
357.202
356.589
356.527
356.705
357.216
357.958
358.687
359.439
360.008
360.399
360.315
359.975
359.328
358.609
357.988
357.661
357.624
357.894
358.414
350.178
349.629
349.162
349.031
349.179
349.66
350.194
350.967
351.518
352.151
352.356
352.264
351.991
351.405
350.78
350.314
350.008
349.898
350.241
350.625
342.462
342.038
341.694
341.572
341.677
342.05
342.532
343.149
343.715
344.138
344.311
344.297
343.976
343.638
343.014
342.608
342.323
342.257
342.459
342.921
334.843
334.413
334.12
333.997
334.156
334.423
334.855
335.307
335.74
336.116
336.265
336.251
336.052
335.607
335.259
334.847
334.71
334.6
334.728
335.083
327.112
326.785
326.561
326.484
326.609
326.791
327.176
327.474
327.85
328.094
328.24
328.218
328.065
327.727
327.469
327.098
326.988
326.905
327.059
327.207
319.386
319.135
319.005
318.936
319.057
319.184
319.356
319.63
319.899
320.045
320.21
320.219
319.969
319.839
319.61
319.341
319.286
319.237
319.4
319.452
311.587
311.566
311.444
311.368
311.386
311.526
311.623
311.826
311.931
312.097
312.112
312.13
312.062
311.932
311.762
311.666
311.595
311.534
311.631
311.778
303.984
303.752
303.792
303.856
303.854
303.905
303.9
303.943
303.988
304.053
304.035
304.063
304.028
303.942
304.002
303.845
303.897
303.899
304.011
304.017
359.093
358.374
357.783
357.673
357.799
358.375
358.924
359.646
360.342
360.864
361.2
361.107
360.797
360.267
359.757
359.297
358.913
358.939
359.197
359.786
351.27
350.664
350.282
350.037
350.214
350.591
351.19
351.791
352.413
352.778
352.991
352.969
352.708
352.287
351.887
351.322
351.148
351.128
351.433
351.863
343.439
342.982
342.554
342.437
342.545
342.865
343.356
343.879
344.444
344.659
344.967
344.839
344.668
344.321
343.913
343.532
343.246
343.247
343.423
343.885
335.61
335.244
334.851
334.764
334.849
335.117
335.5
335.928
336.264
336.626
336.806
336.76
336.571
336.237
335.839
335.55
335.44
335.415
335.527
335.939
327.787
327.408
327.21
327.083
327.102
327.261
327.632
327.965
328.261
328.419
328.584
328.607
328.383
328.173
327.898
327.709
327.534
327.592
327.676
327.952
319.791
319.594
319.404
319.34
319.448
319.619
319.793
319.992
320.173
320.4
320.406
320.391
320.306
320.232
319.942
319.74
319.734
319.695
319.801
319.988
311.901
311.675
311.674
311.645
311.677
311.806
311.898
311.96
312.14
312.243
312.222
312.278
312.204
312.043
311.985
311.972
311.785
311.742
311.923
311.995
304.045
303.916
303.883
303.883
303.904
303.889
303.973
304.068
304.087
304.138
304.042
304.073
304.089
304.023
303.98
303.98
303.996
303.947
304.013
304.045
360.483
359.741
359.098
358.996
358.992
359.412
359.987
360.59
361.163
361.74
361.974
362.019
361.728
361.269
360.826
360.359
360.155
360.238
360.58
361.165
352.386
351.811
351.296
351.104
351.287
351.588
352.075
352.574
353.109
353.527
353.714
353.736
353.531
353.309
352.757
352.381
352.206
352.254
352.649
352.935
344.404
343.912
343.441
343.381
343.414
343.706
344.157
344.583
345.026
345.356
345.465
345.471
345.253
344.985
344.629
344.393
344.2
344.288
344.517
344.896
336.355
335.962
335.593
335.544
335.569
335.837
336.172
336.505
336.78
337.213
337.376
337.209
337.056
336.861
336.536
336.233
336.105
336.139
336.417
336.736
328.295
327.994
327.797
327.69
327.7
327.898
328.115
328.436
328.653
328.828
329.018
328.962
328.88
328.713
328.442
328.265
328.054
328.12
328.375
328.596
320.243
320.108
319.88
319.764
319.852
319.897
320.081
320.227
320.549
320.636
320.721
320.723
320.643
320.433
320.287
320.197
320.042
320.147
320.272
320.391
312.12
312.067
311.934
311.801
311.942
311.995
312.026
312.243
312.322
312.391
312.415
312.468
312.379
312.366
312.247
312.124
312.043
312.153
312.188
312.243
304.058
304.019
303.978
303.974
304.047
304.06
304.034
304.059
304.04
304.175
304.18
304.111
304.092
304.044
304.11
304.029
304.101
304.096
304.076
304.082
361.697
360.967
360.344
360.221
360.21
360.56
360.991
361.679
362.141
362.507
362.816
362.858
362.575
362.195
361.914
361.591
361.403
361.514
361.949
362.578
353.52
352.845
352.425
352.296
352.235
352.554
353.026
353.426
353.918
354.284
354.423
354.381
354.234
354.042
353.726
353.508
353.255
353.358
353.772
354.273
345.348
344.878
344.47
344.305
344.328
344.568
344.92
345.298
345.67
345.903
346.008
346.077
345.966
345.719
345.484
345.119
345.066
345.166
345.499
345.931
337.129
336.748
336.381
336.259
336.361
336.52
336.745
337.119
337.419
337.636
337.745
337.679
337.634
337.435
337.187
337.048
336.934
336.901
337.258
337.54
328.903
328.578
328.424
328.266
328.23
328.447
328.631
328.912
329.079
329.293
329.374
329.478
329.259
329.07
328.924
328.833
328.701
328.796
328.962
329.2
320.66
320.455
320.274
320.218
320.178
320.321
320.512
320.657
320.806
320.981
320.987
321.022
320.947
320.799
320.652
320.677
320.444
320.496
320.758
320.934
312.495
312.293
312.179
312.125
312.115
312.247
312.241
312.441
312.515
312.567
312.626
312.665
312.513
312.478
312.464
312.343
312.355
312.356
312.487
312.505
304.185
304.105
304.127
303.968
304.04
304.118
304.121
304.138
304.181
304.199
304.258
304.208
304.204
304.219
304.165
304.179
304.145
304.152
304.204
304.188
362.995
362.256
361.662
361.446
361.411
361.743
362.162
362.63
363.191
363.383
363.657
363.712
363.506
363.268
362.926
362.681
362.678
362.795
363.213
363.97
354.652
354.03
353.531
353.236
353.27
353.532
353.88
354.289
354.718
354.99
355.21
355.23
355.057
354.866
354.652
354.422
354.354
354.478
354.837
355.487
346.271
345.811
345.322
345.175
345.234
345.407
345.658
346.036
346.286
346.601
346.747
346.696
346.71
346.411
346.261
346.035
346.046
346.193
346.51
346.864
338.005
337.526
337.129
336.949
337.009
337.147
337.354
337.687
337.976
338.172
338.186
338.299
338.174
338.05
337.86
337.657
337.688
337.738
338.115
338.341
329.513
329.161
328.963
328.799
328.783
328.963
329.068
329.327
329.515
329.693
329.843
329.81
329.664
329.602
329.437
329.32
329.339
329.365
329.591
329.758
321.135
320.779
320.641
320.631
320.574
320.62
320.796
320.932
321.064
321.222
321.288
321.26
321.194
321.211
321.086
320.949
320.993
320.97
321.079
321.3
312.713
312.591
312.48
312.352
312.333
312.391
312.452
312.562
312.705
312.734
312.755
312.844
312.705
312.715
312.667
312.605
312.593
312.559
312.727
312.808
304.178
304.195
304.158
304.084
304.101
304.168
304.168
304.173
304.319
304.273
304.334
304.415
304.186
304.209
304.235
304.315
304.295
304.27
304.178
304.207
364.212
363.501
362.872
362.619
362.554
362.789
363.156
363.571
363.964
364.203
364.442
364.501
364.389
364.246
364.017
363.792
363.816
364.091
364.633
365.225
355.695
355.126
354.594
354.367
354.307
354.445
354.691
355.096
355.397
355.731
355.849
355.888
355.841
355.617
355.482
355.247
355.256
355.55
355.978
356.475
347.267
346.668
346.31
345.976
345.936
346.139
346.368
346.592
346.888
347.192
347.322
347.306
347.256
347.119
346.922
346.768
346.861
347.062
347.293
347.829
338.677
338.243
337.977
337.642
337.665
337.724
337.937
338.26
338.35
338.553
338.795
338.769
338.695
338.548
338.394
338.27
338.379
338.479
338.752
339.11
330.07
329.703
329.414
329.285
329.368
329.398
329.481
329.713
329.934
330.099
330.113
330.137
330.123
329.951
329.899
329.795
329.796
329.834
330.097
330.361
321.433
321.242
321.047
320.959
320.977
321.029
321.183
321.174
321.369
321.436
321.542
321.629
321.53
321.439
321.378
321.283
321.378
321.347
321.557
321.703
312.99
312.804
312.693
312.579
312.587
312.563
312.657
312.695
312.879
312.901
312.969
312.965
312.923
312.828
312.843
312.775
312.759
312.883
312.933
313.023
304.22
304.323
304.236
304.193
304.238
304.192
304.267
304.233
304.304
304.33
304.381
304.372
304.319
304.327
304.289
304.353
304.275
304.261
304.286
304.316
365.175
364.378
363.757
363.481
363.408
363.545
363.927
364.251
364.607
364.907
365.1
365.118
365.058
364.904
364.822
364.707
364.68
364.952
365.471
366.188
356.471
355.816
355.372
355.108
355.07
355.102
355.401
355.69
355.965
356.205
356.445
356.512
356.324
356.278
356.111
355.988
356.045
356.282
356.717
357.218
347.796
347.256
346.807
346.605
346.577
346.664
346.888
347.125
347.408
347.541
347.755
347.767
347.718
347.562
347.415
347.301
347.419
347.646
347.965
348.463
339.054
338.714
338.257
338.143
338.114
338.198
338.326
338.605
338.742
339.034
339.067
339.06
339.08
338.902
338.855
338.695
338.771
338.979
339.233
339.628
330.358
330.147
329.896
329.68
329.632
329.67
329.86
330.007
330.065
330.351
330.494
330.419
330.374
330.235
330.259
330.159
330.145
330.305
330.521
330.77
321.677
321.508
321.395
321.214
321.237
321.166
321.305
321.498
321.569
321.727
321.726
321.698
321.72
321.648
321.611
321.515
321.497
321.593
321.86
322.01
313.064
313.023
312.738
312.722
312.771
312.782
312.791
312.905
313.029
313.02
313.057
313.038
313.039
313.04
312.926
312.967
312.982
312.946
313.095
313.164
304.407
304.381
304.273
304.306
304.253
304.245
304.344
304.325
304.274
304.373
304.367
304.361
304.364
304.424
304.32
304.33
304.321
304.335
304.353
304.365
)
;

boundaryField
{
    hotSide
    {
        type            fixedGradient;
        gradient        nonuniform List<scalar> 
400
(
321.511
322.87
325.591
329.677
335.133
341.965
350.181
359.788
370.794
383.208
397.037
412.289
428.971
447.088
466.647
487.651
510.105
534.011
559.372
586.191
323.738
325.08
327.767
331.802
337.194
343.949
352.078
361.591
372.498
384.81
398.537
413.687
430.268
448.289
467.755
488.672
511.043
534.872
560.161
586.913
326.149
327.47
330.116
334.091
339.406
346.071
354.099
363.503
374.296
386.491
400.101
415.136
431.606
449.52
468.885
489.706
511.988
535.735
560.948
587.63
328.704
330
332.597
336.503
341.73
348.292
356.205
365.485
376.15
388.215
401.695
416.604
432.954
450.753
470.009
490.73
512.919
536.579
561.714
588.325
331.33
332.599
335.142
338.97
344.099
350.546
358.332
367.477
378.003
389.928
403.271
418.047
434.27
451.949
471.095
491.712
513.807
537.382
562.439
588.978
333.918
335.158
337.643
341.389
346.414
352.74
360.392
369.397
379.779
391.562
404.765
419.407
435.503
453.065
472.101
492.618
514.622
538.114
563.096
589.569
336.321
337.531
339.959
343.622
348.544
354.751
362.274
371.142
381.385
393.031
406.101
420.618
436.595
454.047
472.983
493.409
515.33
538.747
563.663
590.076
338.36
339.543
341.92
345.509
350.339
356.44
363.847
372.595
382.718
394.244
407.2
421.608
437.485
454.844
473.695
494.045
515.897
539.253
564.114
590.478
339.852
341.015
343.352
346.885
351.645
357.665
364.985
373.643
383.675
395.113
407.984
422.312
438.116
455.407
474.197
494.491
516.294
539.606
564.428
590.758
340.643
341.795
344.11
347.613
352.334
358.311
365.584
374.193
384.176
395.567
408.393
422.679
438.443
455.699
474.456
494.722
516.498
539.788
564.589
590.901
340.643
341.795
344.11
347.613
352.334
358.311
365.584
374.193
384.176
395.567
408.393
422.679
438.443
455.699
474.456
494.722
516.498
539.788
564.589
590.901
339.852
341.015
343.352
346.885
351.645
357.665
364.985
373.643
383.675
395.113
407.984
422.312
438.116
455.407
474.197
494.491
516.294
539.606
564.428
590.758
338.36
339.543
341.92
345.509
350.339
356.44
363.847
372.595
382.718
394.244
407.2
421.608
437.485
454.844
473.695
494.045
515.897
539.253
564.114
590.478
336.321
337.531
339.959
343.622
348.544
354.751
362.274
371.142
381.385
393.031
406.101
420.618
436.595
454.047
472.983
493.409
515.33
538.747
563.663
590.076
333.918
335.158
337.643
341.389
346.414
352.74
360.392
369.397
379.779
391.562
404.765
419.407
435.503
453.065
472.101
492.618
514.622
538.114
563.096
589.569
331.33
332.599
335.142
338.97
344.099
350.546
358.332
367.477
378.003
389.928
403.271
418.047
434.27
451.949
471.095
491.712
513.807
537.382
562.439
588.978
328.704
330
332.597
336.503
341.73
348.292
356.205
365.485
376.15
388.215
401.695
416.604
432.954
450.753
470.009
490.73
512.919
536.579
561.714
588.325
326.149
327.47
330.116
334.091
339.406
346.071
354.099
363.503
374.296
386.491
400.101
415.136
431.606
449.52
468.885
489.706
511.988
535.735
560.948
587.63
323.738
325.08
327.767
331.802
337.194
343.949
352.078
361.591
372.498
384.81
398.537
413.687
430.268
448.289
467.755
488.672
511.043
534.872
560.161
586.913
321.511
322.87
325.591
329.677
335.133
341.965
350.181
359.788
370.794
383.208
397.037
412.289
428.971
447.088
466.647
487.651
510.105
534.011
559.372
586.191
)
;
    }
    coldSide
    {
        type            mixed;
        refValue        uniform 300;
        refGradient     uniform 0;
        valueFraction   uniform 0.991591;
        source          uniform 0;
        value           nonuniform List<scalar> 
400
(
300.026
300.028
300.027
300.027
300.028
300.028
300.027
300.029
300.029
300.03
300.031
300.031
300.032
300.034
300.034
300.034
300.035
300.035
300.035
300.037
300.026
300.026
300.026
300.026
300.027
300.027
300.028
300.029
300.029
300.03
300.031
300.031
300.032
300.032
300.033
300.034
300.035