/*--------------------------------*- C++ -*----------------------------------*\
| =========                 |                                                 |
| \\      /  F ield         | OpenFOAM: The Open Source CFD Toolbox           |
|  \\    /   O peration     | Version:  2212                                  |
|   \\  /    A nd           | Website:  www.openfoam.com                      |
|    \\/     M anipulation  |                                                 |
\*---------------------------------------------------------------------------*/
FoamFile
{
    version     2.0;
    format      ascii;
    arch        "LSB;label=32;scalar=64";
    class       volScalarField;
    location    "./ITHACAoutput/true/4";
    object      trueState;
}
// * * * * * * * * * * * * * * * * * * * * * * * * * * * * * * * * * * * * * //

dimensions      [0 0 0 1 0 0 0];

internalField   nonuniform List<scalar> 
3200
(
345.031
345.869
346.94
348.107
349.309
350.489
351.578
352.497
353.166
353.52
353.52
353.166
352.497
351.578
350.489
349.309
348.107
346.94
345.869
345.031
339.046
339.756
340.679
341.689
342.729
343.749
344.691
345.485
346.063
346.369
346.369
346.063
345.485
344.691
343.749
342.729
341.689
340.679
339.756
339.046
333.054
333.643
334.421
335.274
336.153
337.015
337.81
338.48
338.968
339.225
339.225
338.968
338.48
337.81
337.015
336.153
335.274
334.421
333.643
333.054
327.056
327.53
328.165
328.862
329.58
330.285
330.934
331.481
331.879
332.089
332.089
331.879
331.481
330.934
330.285
329.58
328.862
328.165
327.53
327.056
321.054
321.418
321.91
322.452
323.01
323.558
324.062
324.487
324.796
324.959
324.959
324.796
324.487
324.062
323.558
323.01
322.452
321.91
321.418
321.054
315.048
315.306
315.657
316.043
316.442
316.833
317.193
317.496
317.717
317.833
317.833
317.717
317.496
317.193
316.833
316.442
316.043
315.657
315.306
315.048
309.04
309.194
309.404
309.636
309.876
310.111
310.327
310.509
310.641
310.711
310.711
310.641
310.509
310.327
310.111
309.876
309.636
309.404
309.194
309.04
303.031
303.082
303.152
303.23
303.31
303.389
303.461
303.522
303.567
303.59
303.59
303.567
303.522
303.461
303.389
303.31
303.23
303.152
303.082
303.031
345.158
345.989
347.051
348.207
349.397
350.563
351.639
352.547
353.208
353.557
353.557
353.208
352.547
351.639
350.563
349.397
348.207
347.051
345.989
345.158
339.155
339.86
340.775
341.775
342.805
343.814
344.744
345.529
346.1
346.401
346.401
346.1
345.529
344.744
343.814
342.805
341.775
340.775
339.86
339.155
333.146
333.731
334.502
335.347
336.217
337.07
337.855
338.517
338.999
339.253
339.253
338.999
338.517
337.855
337.07
336.217
335.347
334.502
333.731
333.146
327.132
327.602
328.231
328.921
329.633
330.329
330.971
331.512
331.905
332.112
332.112
331.905
331.512
330.971
330.329
329.633
328.921
328.231
327.602
327.132
321.113
321.474
321.961
322.498
323.051
323.592
324.091
324.511
324.816
324.977
324.977
324.816
324.511
324.091
323.592
323.051
322.498
321.961
321.474
321.113
315.09
315.346
315.693
316.077
316.471
316.858
317.214
317.514
317.731
317.846
317.846
317.731
317.514
317.214
316.858
316.471
316.077
315.693
315.346
315.09
309.065
309.218
309.426
309.656
309.893
310.126
310.339
310.519
310.65
310.719
310.719
310.65
310.519
310.339
310.126
309.893
309.656
309.426
309.218
309.065
303.039
303.09
303.16
303.237
303.316
303.394
303.466
303.526
303.57
303.593
303.593
303.57
303.526
303.466
303.394
303.316
303.237
303.16
303.09
303.039
345.412
346.23
347.274
348.409
349.574
350.716
351.767
352.653
353.297
353.636
353.636
353.297
352.653
351.767
350.716
349.574
348.409
347.274
346.23
345.412
339.375
340.068
340.968
341.95
342.959
343.946
344.855
345.62
346.177
346.47
346.47
346.177
345.62
344.855
343.946
342.959
341.95
340.968
340.068
339.375
333.332
333.907
334.665
335.495
336.347
337.182
337.949
338.595
339.065
339.312
339.312
339.065
338.595
337.949
337.182
336.347
335.495
334.665
333.907
333.332
327.283
327.746
328.364
329.042
329.739
330.421
331.048
331.576
331.959
332.161
332.161
331.959
331.576
331.048
330.421
329.739
329.042
328.364
327.746
327.283
321.23
321.586
322.065
322.592
323.134
323.664
324.151
324.561
324.858
325.015
325.015
324.858
324.561
324.151
323.664
323.134
322.592
322.065
321.586
321.23
315.174
315.426
315.767
316.144
316.531
316.909
317.257
317.549
317.762
317.873
317.873
317.762
317.549
317.257
316.909
316.531
316.144
315.767
315.426
315.174
309.116
309.266
309.471
309.697
309.929
310.156
310.365
310.54
310.668
310.735
310.735
310.668
310.54
310.365
310.156
309.929
309.697
309.471
309.266
309.116
303.056
303.106
303.175
303.25
303.328
303.404
303.474
303.533
303.576
303.598
303.598
303.576
303.533
303.474
303.404
303.328
303.25
303.175
303.106
303.056
345.795
346.595
347.612
348.716
349.847
350.952
351.967
352.821
353.441
353.768
353.768
353.441
352.821
351.967
350.952
349.847
348.716
347.612
346.595
345.795
339.706
340.383
341.261
342.216
343.195
344.151
345.029
345.767
346.303
346.585
346.585
346.303
345.767
345.029
344.151
343.195
342.216
341.261
340.383
339.706
333.612
334.173
334.912
335.719
336.547
337.355
338.096
338.719
339.171
339.41
339.41
339.171
338.719
338.096
337.355
336.547
335.719
334.912
334.173
333.612
327.512
327.964
328.566
329.226
329.902
330.563
331.169
331.677
332.047
332.241
332.241
332.047
331.677
331.169
330.563
329.902
329.226
328.566
327.964
327.512
321.408
321.755
322.222
322.735
323.261
323.774
324.245
324.64
324.927
325.078
325.078
324.927
324.64
324.245
323.774
323.261
322.735
322.222
321.755
321.408
315.301
315.546
315.88
316.246
316.621
316.988
317.324
317.606
317.811
317.918
317.918
317.811
317.606
317.324
316.988
316.621
316.246
315.88
315.546
315.301
309.192
309.338
309.538
309.758
309.983
310.203
310.405
310.575
310.697
310.762
310.762
310.697
310.575
310.405
310.203
309.983
309.758
309.538
309.338
309.192
303.081
303.13
303.197
303.271
303.346
303.42
303.488
303.545
303.586
303.607
303.607
303.586
303.545
303.488
303.42
303.346
303.271
303.197
303.13
303.081
346.31
347.086
348.069
349.133
350.221
351.28
352.25
353.064
353.654
353.965
353.965
353.654
353.064
352.25
351.28
350.221
349.133
348.069
347.086
346.31
340.152
340.808
341.657
342.577
343.519
344.435
345.275
345.978
346.488
346.756
346.756
346.488
345.978
345.275
344.435
343.519
342.577
341.657
340.808
340.152
333.988
334.532
335.247
336.025
336.821
337.595
338.304
338.899
339.329
339.555
339.555
339.329
338.899
338.304
337.595
336.821
336.025
335.247
334.532
333.988
327.819
328.257
328.84
329.476
330.126
330.76
331.339
331.824
332.176
332.36
332.36
332.176
331.824
331.339
330.76
330.126
329.476
328.84
328.257
327.819
321.646
321.983
322.435
322.929
323.435
323.927
324.377
324.754
325.027
325.171
325.171
325.027
324.754
324.377
323.927
323.435
322.929
322.435
321.983
321.646
315.471
315.709
316.031
316.385
316.746
317.097
317.419
317.688
317.883
317.985
317.985
317.883
317.688
317.419
317.097
316.746
316.385
316.031
315.709
315.471
309.294
309.436
309.629
309.841
310.058
310.269
310.462
310.624
310.741
310.802
310.802
310.741
310.624
310.462
310.269
310.058
309.841
309.629
309.436
309.294
303.116
303.163
303.228
303.299
303.372
303.442
303.507
303.561
303.6
303.621
303.621
303.6
303.561
303.507
303.442
303.372
303.299
303.228
303.163
303.116
346.96
347.707
348.651
349.668
350.705
351.71
352.628
353.396
353.951
354.243
354.243
353.951
353.396
352.628
351.71
350.705
349.668
348.651
347.707
346.96
340.714
341.345
342.16
343.04
343.938
344.808
345.602
346.266
346.746
346.998
346.998
346.746
346.266
345.602
344.808
343.938
343.04
342.16
341.345
340.714
334.462
334.986
335.672
336.416
337.175
337.911
338.582
339.143
339.548
339.761
339.761
339.548
339.143
338.582
337.911
337.175
336.416
335.672
334.986
334.462
328.206
328.628
329.187
329.796
330.416
331.017
331.566
332.024
332.355
332.529
332.529
332.355
332.024
331.566
331.017
330.416
329.796
329.187
328.628
328.206
321.947
322.271
322.705
323.178
323.66
324.128
324.554
324.91
325.167
325.302
325.302
325.167
324.91
324.554
324.128
323.66
323.178
322.705
322.271
321.947
315.686
315.915
316.224
316.562
316.907
317.241
317.545
317.799
317.983
318.079
318.079
317.983
317.799
317.545
317.241
316.907
316.562
316.224
315.915
315.686
309.423
309.56
309.745
309.948
310.155
310.355
310.538
310.691
310.801
310.859
310.859
310.801
310.691
310.538
310.355
310.155
309.948
309.745
309.56
309.423
303.159
303.204
303.267
303.335
303.404
303.471
303.532
303.583
303.62
303.64
303.64
303.62
303.583
303.532
303.471
303.404
303.335
303.267
303.204
303.159
347.749
348.462
349.362
350.328
351.307
352.253
353.114
353.832
354.349
354.62
354.62
354.349
353.832
353.114
352.253
351.307
350.328
349.362
348.462
347.749
341.395
341.999
342.775
343.611
344.459
345.279
346.023
346.644
347.091
347.326
347.326
347.091
346.644
346.023
345.279
344.459
343.611
342.775
341.999
341.395
335.037
335.538
336.192
336.899
337.616
338.309
338.938
339.462
339.84
340.038
340.038
339.84
339.462
338.938
338.309
337.616
336.899
336.192
335.538
335.037
328.676
329.079
329.613
330.19
330.777
331.343
331.858
332.286
332.595
332.756
332.756
332.595
332.286
331.858
331.343
330.777
330.19
329.613
329.079
328.676
322.312
322.622
323.035
323.485
323.941
324.381
324.781
325.114
325.353
325.479
325.479
325.353
325.114
324.781
324.381
323.941
323.485
323.035
322.622
322.312
315.947
316.166
316.46
316.781
317.107
317.421
317.707
317.945
318.116
318.206
318.206
318.116
317.945
317.707
317.421
317.107
316.781
316.46
316.166
315.947
309.579
309.71
309.887
310.079
310.275
310.464
310.635
310.778
310.881
310.935
310.935
310.881
310.778
310.635
310.464
310.275
310.079
309.887
309.71
309.579
303.211
303.255
303.314
303.379
303.444
303.507
303.565
303.613
303.647
303.665
303.665
303.647
303.613
303.565
303.507
303.444
303.379
303.314
303.255
303.211
348.679
349.357
350.208
351.119
352.038
352.921
353.722
354.386
354.864
355.114
355.114
354.864
354.386
353.722
352.921
352.038
351.119
350.208
349.357
348.679
342.2
342.773
343.508
344.296
345.092
345.857
346.55
347.125
347.538
347.754
347.754
347.538
347.125
346.55
345.857
345.092
344.296
343.508
342.773
342.2
335.717
336.192
336.811
337.478
338.151
338.798
339.383
339.869
340.218
340.401
340.401
340.218
339.869
339.383
338.798
338.151
337.478
336.811
336.192
335.717
329.231
329.614
330.119
330.663
331.214
331.743
332.222
332.619
332.904
333.054
333.054
332.904
332.619
332.222
331.743
331.214
330.663
330.119
329.614
329.231
322.744
323.038
323.429
323.852
324.28
324.692
325.064
325.373
325.594
325.711
325.711
325.594
325.373
325.064
324.692
324.28
323.852
323.429
323.038
322.744
316.254
316.462
316.742
317.044
317.35
317.643
317.909
318.13
318.288
318.371
318.371
318.288
318.13
317.909
317.643
317.35
317.044
316.742
316.462
316.254
309.764
309.888
310.056
310.237
310.421
310.597
310.757
310.889
310.984
311.034
311.034
310.984
310.889
310.757
310.597
310.421
310.237
310.056
309.888
309.764
303.273
303.315
303.371
303.432
303.493
303.552
303.606
303.65
303.682
303.699
303.699
303.682
303.65
303.606
303.552
303.493
303.432
303.371
303.315
303.273
349.756
350.396
351.197
352.049
352.906
353.725
354.464
355.075
355.512
355.741
355.741
355.512
355.075
354.464
353.725
352.906
352.049
351.197
350.396
349.756
343.13
343.672
344.363
345.101
345.843
346.553
347.192
347.721
348.1
348.298
348.298
348.1
347.721
347.192
346.553
345.843
345.101
344.363
343.672
343.13
336.503
336.952
337.535
338.158
338.786
339.386
339.927
340.374
340.694
340.861
340.861
340.694
340.374
339.927
339.386
338.786
338.158
337.535
336.952
336.503
329.873
330.235
330.71
331.22
331.733
332.224
332.666
333.031
333.293
333.43
333.43
333.293
333.031
332.666
332.224
331.733
331.22
330.71
330.235
329.873
323.242
323.52
323.889
324.285
324.684
325.066
325.41
325.694
325.897
326.003
326.003
325.897
325.694
325.41
325.066
324.684
324.285
323.889
323.52
323.242
316.611
316.807
317.07
317.353
317.638
317.911
318.156
318.359
318.504
318.58
318.58
318.504
318.359
318.156
317.911
317.638
317.353
317.07
316.807
316.611
309.978
310.095
310.253
310.423
310.594
310.758
310.905
311.027
311.114
311.16
311.16
311.114
311.027
310.905
310.758
310.594
310.423
310.253
310.095
309.978
303.345
303.384
303.437
303.494
303.551
303.606
303.655
303.696
303.725
303.741
303.741
303.725
303.696
303.655
303.606
303.551
303.494
303.437
303.384
303.345
350.983
351.584
352.334
353.127
353.92
354.675
355.352
355.91
356.309
356.517
356.517
356.309
355.91
355.352
354.675
353.92
353.127
352.334
351.584
350.983
344.191
344.7
345.347
346.034
346.721
347.375
347.962
348.445
348.79
348.97
348.97
348.79
348.445
347.962
347.375
346.721
346.034
345.347
344.7
344.191
337.399
337.821
338.366
338.947
339.528
340.081
340.577
340.986
341.277
341.43
341.43
341.277
340.986
340.577
340.081
339.528
338.947
338.366
337.821
337.399
330.605
330.945
331.389
331.864
332.34
332.792
333.198
333.532
333.771
333.895
333.895
333.771
333.532
333.198
332.792
332.34
331.864
331.389
330.945
330.605
323.811
324.072
324.417
324.786
325.156
325.508
325.823
326.083
326.268
326.365
326.365
326.268
326.083
325.823
325.508
325.156
324.786
324.417
324.072
323.811
317.016
317.201
317.447
317.711
317.975
318.226
318.452
318.637
318.77
318.839
318.839
318.77
318.637
318.452
318.226
317.975
317.711
317.447
317.201
317.016
310.222
310.332
310.479
310.638
310.796
310.947
311.083
311.194
311.273
311.315
311.315
311.273
311.194
311.083
310.947
310.796
310.638
310.479
310.332
310.222
303.426
303.463
303.513
303.566
303.619
303.669
303.715
303.752
303.779
303.793
303.793
303.779
303.752
303.715
303.669
303.619
303.566
303.513
303.463
303.426
352.363
352.926
353.623
354.358
355.089
355.781
356.398
356.905
357.266
357.454
357.454
357.266
356.905
356.398
355.781
355.089
354.358
353.623
352.926
352.363
345.385
345.861
346.463
347.1
347.733
348.332
348.867
349.306
349.619
349.781
349.781
349.619
349.306
348.867
348.332
347.733
347.1
346.463
345.861
345.385
338.407
338.802
339.309
339.847
340.383
340.89
341.343
341.714
341.978
342.116
342.116
341.978
341.714
341.343
340.89
340.383
339.847
339.309
338.802
338.407
331.429
331.747
332.161
332.601
333.039
333.454
333.824
334.127
334.344
334.456
334.456
334.344
334.127
333.824
333.454
333.039
332.601
332.161
331.747
331.429
324.451
324.695
325.016
325.358
325.699
326.022
326.31
326.546
326.714
326.801
326.801
326.714
326.546
326.31
326.022
325.699
325.358
325.016
324.695
324.451
317.473
317.646
317.875
318.119
318.363
318.593
318.799
318.968
319.088
319.15
319.15
319.088
318.968
318.799
318.593
318.363
318.119
317.875
317.646
317.473
310.496
310.599
310.736
310.883
311.029
311.168
311.291
311.393
311.465
311.502
311.502
311.465
311.393
311.291
311.168
311.029
310.883
310.736
310.599
310.496
303.518
303.553
303.599
303.648
303.697
303.743
303.785
303.819
303.843
303.855
303.855
303.843
303.819
303.785
303.743
303.697
303.648
303.599
303.553
303.518
353.901
354.425
355.071
355.749
356.419
357.05
357.611
358.069
358.394
358.563
358.563
358.394
358.069
357.611
357.05
356.419
355.749
355.071
354.425
353.901
346.715
347.158
347.716
348.303
348.884
349.431
349.917
350.313
350.595
350.742
350.742
350.595
350.313
349.917
349.431
348.884
348.303
347.716
347.158
346.715
339.53
339.898
340.368
340.865
341.356
341.819
342.23
342.565
342.804
342.928
342.928
342.804
342.565
342.23
341.819
341.356
340.865
340.368
339.898
339.53
332.347
332.643
333.026
333.432
333.834
334.213
334.549
334.824
335.019
335.12
335.12
335.019
334.824
334.549
334.213
333.834
333.432
333.026
332.643
332.347
325.164
325.391
325.689
326.005
326.317
326.612
326.874
327.087
327.239
327.317
327.317
327.239
327.087
326.874
326.612
326.317
326.005
325.689
325.391
325.164
317.983
318.143
318.356
318.581
318.804
319.015
319.202
319.354
319.463
319.519
319.519
319.463
319.354
319.202
319.015
318.804
318.581
318.356
318.143
317.983
310.802
310.897
311.025
311.16
311.294
311.421
311.533
311.625
311.69
311.723
311.723
311.69
311.625
311.533
311.421
311.294
311.16
311.025
310.897
310.802
303.621
303.653
303.695
303.741
303.786
303.828
303.866
303.897
303.918
303.93
303.93
303.918
303.897
303.866
303.828
303.786
303.741
303.695
303.653
303.621
355.599
356.085
356.682
357.304
357.916
358.49
358.997
359.409
359.701
359.853
359.853
359.701
359.409
358.997
358.49
357.916
357.304
356.682
356.085
355.599
348.183
348.595
349.11
349.649
350.179
350.677
351.116
351.473
351.726
351.858
351.858
351.726
351.473
351.116
350.677
350.179
349.649
349.11
348.595
348.183
340.771
341.112
341.546
342.002
342.451
342.872
343.243
343.546
343.76
343.871
343.871
343.76
343.546
343.243
342.872
342.451
342.002
341.546
341.112
340.771
333.36
333.635
333.989
334.362
334.729
335.073
335.378
335.625
335.8
335.891
335.891
335.8
335.625
335.378
335.073
334.729
334.362
333.989
333.635
333.36
325.952
326.162
326.437
326.727
327.013
327.281
327.518
327.71
327.846
327.917
327.917
327.846
327.71
327.518
327.281
327.013
326.727
326.437
326.162
325.952
318.545
318.694
318.89
319.097
319.301
319.493
319.662
319.799
319.897
319.947
319.947
319.897
319.799
319.662
319.493
319.301
319.097
318.89
318.694
318.545
311.139
311.228
311.345
311.47
311.593
311.708
311.809
311.892
311.95
311.981
311.981
311.95
311.892
311.809
311.708
311.593
311.47
311.345
311.228
311.139
303.734
303.764
303.803
303.845
303.886
303.924
303.958
303.986
304.006
304.016
304.016
304.006
303.986
303.958
303.924
303.886
303.845
303.803
303.764
303.734
357.458
357.907
358.457
359.027
359.584
360.104
360.561
360.931
361.192
361.328
361.328
361.192
360.931
360.561
360.104
359.584
359.027
358.457
357.907
357.458
349.791
350.171
350.646
351.139
351.623
352.073
352.469
352.79
353.017
353.134
353.134
353.017
352.79
352.469
352.073
351.623
351.139
350.646
350.171
349.791
342.129
342.444
342.844
343.261
343.67
344.051
344.387
344.659
344.85
344.949
344.949
344.85
344.659
344.387
344.051
343.67
343.261
342.844
342.444
342.129
334.47
334.723
335.05
335.391
335.726
336.038
336.312
336.535
336.691
336.773
336.773
336.691
336.535
336.312
336.038
335.726
335.391
335.05
334.723
334.47
326.814
327.009
327.262
327.527
327.788
328.03
328.244
328.417
328.539
328.602
328.602
328.539
328.417
328.244
328.03
327.788
327.527
327.262
327.009
326.814
319.16
319.298
319.478
319.668
319.854
320.028
320.18
320.304
320.391
320.436
320.436
320.391
320.304
320.18
320.028
319.854
319.668
319.478
319.298
319.16
311.508
311.591
311.699
311.813
311.925
312.029
312.121
312.195
312.247
312.274
312.274
312.247
312.195
312.121
312.029
311.925
311.813
311.699
311.591
311.508
303.858
303.885
303.921
303.96
303.997
304.032
304.063
304.088
304.105
304.114
304.114
304.105
304.088
304.063
304.032
303.997
303.96
303.921
303.885
303.858
359.477
359.891
360.396
360.917
361.423
361.892
362.304
362.635
362.869
362.989
362.989
362.869
362.635
362.304
361.892
361.423
360.917
360.396
359.891
359.477
351.537
351.888
352.323
352.774
353.213
353.62
353.977
354.264
354.467
354.571
354.571
354.467
354.264
353.977
353.62
353.213
352.774
352.323
351.888
351.537
343.603
343.894
344.261
344.642
345.014
345.358
345.66
345.904
346.075
346.163
346.163
346.075
345.904
345.66
345.358
345.014
344.642
344.261
343.894
343.603
335.674
335.908
336.207
336.519
336.823
337.106
337.353
337.552
337.692
337.765
337.765
337.692
337.552
337.353
337.106
336.823
336.519
336.207
335.908
335.674
327.749
327.929
328.161
328.404
328.641
328.86
329.052
329.207
329.316
329.373
329.373
329.316
329.207
329.052
328.86
328.641
328.404
328.161
327.929
327.749
319.828
319.955
320.121
320.294
320.463
320.62
320.758
320.868
320.946
320.987
320.987
320.946
320.868
320.758
320.62
320.463
320.294
320.121
319.955
319.828
311.909
311.985
312.084
312.189
312.29
312.384
312.467
312.534
312.58
312.605
312.605
312.58
312.534
312.467
312.384
312.29
312.189
312.084
311.985
311.909
303.992
304.017
304.051
304.085
304.12
304.151
304.179
304.201
304.217
304.225
304.225
304.217
304.201
304.179
304.151
304.12
304.085
304.051
304.017
303.992
361.649
362.03
362.493
362.967
363.426
363.85
364.219
364.516
364.725
364.832
364.832
364.725
364.516
364.219
363.85
363.426
362.967
362.493
362.03
361.649
353.413
353.736
354.135
354.546
354.944
355.312
355.632
355.89
356.07
356.164
356.164
356.07
355.89
355.632
355.312
354.944
354.546
354.135
353.736
353.413
345.186
345.454
345.79
346.138
346.475
346.786
347.058
347.276
347.429
347.507
347.507
347.429
347.276
347.058
346.786
346.475
346.138
345.79
345.454
345.186
336.967
337.182
337.456
337.741
338.017
338.272
338.494
338.672
338.797
338.862
338.862
338.797
338.672
338.494
338.272
338.017
337.741
337.456
337.182
336.967
328.753
328.918
329.131
329.353
329.567
329.766
329.938
330.077
330.175
330.225
330.225
330.175
330.077
329.938
329.766
329.567
329.353
329.131
328.918
328.753
320.544
320.661
320.813
320.971
321.125
321.266
321.39
321.489
321.559
321.595
321.595
321.559
321.489
321.39
321.266
321.125
320.971
320.813
320.661
320.544
312.339
312.409
312.5
312.595
312.687
312.772
312.847
312.906
312.948
312.97
312.97
312.948
312.906
312.847
312.772
312.687
312.595
312.5
312.409
312.339
304.136
304.159
304.19
304.222
304.253
304.281
304.306
304.326
304.34
304.347
304.347
304.34
304.326
304.306
304.281
304.253
304.222
304.19
304.159
304.136
363.951
364.302
364.725
365.157
365.573
365.955
366.287
366.553
366.739
366.835
366.835
366.739
366.553
366.287
365.955
365.573
365.157
364.725
364.302
363.951
355.399
355.696
356.061
356.436
356.797
357.128
357.416
357.646
357.808
357.891
357.891
357.808
357.646
357.416
357.128
356.797
356.436
356.061
355.696
355.399
346.859
347.105
347.413
347.73
348.036
348.317
348.561
348.756
348.892
348.963
348.963
348.892
348.756
348.561
348.317
348.036
347.73
347.413
347.105
346.859
338.33
338.528
338.78
339.039
339.289
339.519
339.719
339.879
339.991
340.048
340.048
339.991
339.879
339.719
339.519
339.289
339.039
338.78
338.528
338.33
329.811
329.963
330.158
330.36
330.554
330.733
330.889
331.013
331.1
331.145
331.145
331.1
331.013
330.889
330.733
330.554
330.36
330.158
329.963
329.811
321.298
321.406
321.545
321.689
321.828
321.956
322.068
322.156
322.219
322.251
322.251
322.219
322.156
322.068
321.956
321.828
321.689
321.545
321.406
321.298
312.791
312.855
312.939
313.026
313.109
313.186
313.253
313.306
313.344
313.363
313.363
313.344
313.306
313.253
313.186
313.109
313.026
312.939
312.855
312.791
304.287
304.309
304.337
304.366
304.394
304.42
304.442
304.46
304.473
304.479
304.479
304.473
304.46
304.442
304.42
304.394
304.366
304.337
304.309
304.287
366.324
366.647
367.034
367.429
367.807
368.152
368.451
368.689
368.856
368.941
368.941
368.856
368.689
368.451
368.152
367.807
367.429
367.034
366.647
366.324
357.436
357.709
358.044
358.386
358.714
359.014
359.273
359.48
359.625
359.699
359.699
359.625
359.48
359.273
359.014
358.714
358.386
358.044
357.709
357.436
348.569
348.795
349.078
349.367
349.645
349.899
350.119
350.294
350.417
350.48
350.48
350.417
350.294
350.119
349.899
349.645
349.367
349.078
348.795
348.569
339.719
339.901
340.132
340.369
340.596
340.805
340.985
341.128
341.229
341.28
341.28
341.229
341.128
340.985
340.805
340.596
340.369
340.132
339.901
339.719
330.885
331.024
331.203
331.388
331.565
331.727
331.867
331.979
332.057
332.098
332.098
332.057
331.979
331.867
331.727
331.565
331.388
331.203
331.024
330.885
322.062
322.161
322.289
322.421
322.547
322.663
322.764
322.844
322.9
322.928
322.928
322.9
322.844
322.764
322.663
322.547
322.421
322.289
322.161
322.062
313.249
313.308
313.384
313.464
313.54
313.609
313.67
313.718
313.751
313.769
313.769
313.751
313.718
313.67
313.609
313.54
313.464
313.384
313.308
313.249
304.441
304.46
304.486
304.512
304.538
304.561
304.582
304.598
304.609
304.615
304.615
304.609
304.598
304.582
304.561
304.538
304.512
304.486
304.46
304.441
368.615
368.913
369.271
369.634
369.979
370.294
370.565
370.781
370.931
371.009
371.009
370.931
370.781
370.565
370.294
369.979
369.634
369.271
368.913
368.615
359.379
359.632
359.941
360.256
360.556
360.83
361.066
361.254
361.384
361.451
361.451
361.384
361.254
361.066
360.83
360.556
360.256
359.941
359.632
359.379
350.181
350.391
350.652
350.919
351.174
351.406
351.606
351.765
351.876
351.933
351.933
351.876
351.765
351.606
351.406
351.174
350.919
350.652
350.391
350.181
341.017
341.186
341.399
341.618
341.827
342.017
342.181
342.312
342.403
342.45
342.45
342.403
342.312
342.181
342.017
341.827
341.618
341.399
341.186
341.017
331.881
332.01
332.176
332.346
332.509
332.658
332.785
332.887
332.958
332.995
332.995
332.958
332.887
332.785
332.658
332.509
332.346
332.176
332.01
331.881
322.767
322.859
322.977
323.098
323.215
323.321
323.413
323.486
323.536
323.562
323.562
323.536
323.486
323.413
323.321
323.215
323.098
322.977
322.859
322.767
313.669
313.724
313.795
313.868
313.938
314.002
314.057
314.101
314.131
314.147
314.147
314.131
314.101
314.057
314.002
313.938
313.868
313.795
313.724
313.669
304.581
304.599
304.623
304.648
304.671
304.692
304.711
304.726
304.736
304.741
304.741
304.736
304.726
304.711
304.692
304.671
304.648
304.623
304.599
304.581
370.419
370.7
371.036
371.376
371.699
371.993
372.245
372.446
372.585
372.656
372.656
372.585
372.446
372.245
371.993
371.699
371.376
371.036
370.7
370.419
360.851
361.089
361.381
361.677
361.959
362.215
362.435
362.61
362.732
362.794
362.794
362.732
362.61
362.435
362.215
361.959
361.677
361.381
361.089
360.851
351.365
351.563
351.81
352.061
352.301
352.519
352.707
352.855
352.959
353.012
353.012
352.959
352.855
352.707
352.519
352.301
352.061
351.81
351.563
351.365
341.946
342.106
342.308
342.514
342.711
342.891
343.045
343.167
343.252
343.296
343.296
343.252
343.167
343.045
342.891
342.711
342.514
342.308
342.106
341.946
332.58
332.703
332.86
333.021
333.175
333.315
333.435
333.531
333.597
333.631
333.631
333.597
333.531
333.435
333.315
333.175
333.021
332.86
332.703
332.58
323.254
323.342
323.454
323.569
323.679
323.78
323.866
323.934
323.982
324.006
324.006
323.982
323.934
323.866
323.78
323.679
323.569
323.454
323.342
323.254
313.957
314.009
314.077
314.146
314.212
314.273
314.325
314.366
314.394
314.409
314.409
314.394
314.366
314.325
314.273
314.212
314.146
314.077
314.009
313.957
304.677
304.694
304.717
304.74
304.762
304.783
304.8
304.814
304.823
304.828
304.828
304.823
304.814
304.8
304.783
304.762
304.74
304.717
304.694
304.677
)
;

boundaryField
{
    hotSide
    {
        type            fixedGradient;
        gradient        nonuniform List<scalar> 
400
(
478.137
479.526
482.312
486.514
492.155
499.267
507.887
518.051
529.802
543.178
558.22
574.963
593.442
613.687
635.724
659.576
685.262
712.797
742.194
773.461
489.172
490.473
493.088
497.04
502.361
509.094
517.285
526.984
538.244
551.115
565.647
581.885
599.869
619.635
641.214
664.631
689.908
717.061
746.102
777.04
501.114
502.311
504.721
508.376
513.319
519.605
527.295
536.454
547.148
559.442
573.395
589.064
606.495
625.732
646.809
669.754
694.59
721.335
749.999
780.591
513.765
514.841
517.014
520.325
524.831
530.604
537.723
546.27
556.329
567.978
581.293
596.337
613.17
631.837
652.378
674.825
699.199
725.518
753.794
784.032
526.772
527.711
529.618
532.544
536.564
541.769
548.259
556.137
565.507
576.464
589.097
603.484
619.688
637.764
657.755
679.692
703.599
729.492
757.38
787.268
539.593
540.386
542.007
544.523
548.028
552.634
558.465
565.647
574.306
584.554
596.496
610.219
625.797
643.288
662.738
684.18
707.636
733.12
760.639
790.195
551.493
552.14
553.477
555.585
558.58
562.596
567.782
574.289
582.261
591.831
603.116
616.214
631.207
648.155
667.107
688.095
711.141
736.257
763.446
792.706
561.593
562.108
563.189
564.932
567.47
570.961
575.576
581.488
588.859
597.84
608.557
621.12
635.613
652.102
670.636
691.245
713.951
738.761
765.679
794.698
568.984
569.398
570.283
571.747
573.937
577.03
581.214
586.679
593.601
602.143
612.441
624.609
638.736
654.891
673.12
693.457
715.917
740.51
767.234
796.082
572.901
573.26
574.038
575.35
577.352
580.229
584.18
589.403
596.085
604.391
614.465
626.424
640.358
656.335
674.405
694.598
716.93
741.409
768.032
796.791
572.901
573.26
574.038
575.35
577.352
580.229
584.18
589.403
596.085
604.391
614.465
626.424
640.358
656.335
674.405
694.598
716.93
741.409
768.032
796.791
568.984
569.398
570.283
571.747
573.937
577.03
581.214
586.679
593.601
602.143
612.441
624.609
638.736
654.891
673.12
693.457
715.917
740.51
767.234
796.082
561.593
562.108
563.189
564.932
567.47
570.961
575.576
581.488
588.859
597.84
608.557
621.12
635.613
652.102
670.636
691.245
713.951
738.761
765.679
794.698
551.493
552.14
553.477
555.585
558.58
562.596
567.782
574.289
582.261
591.831
603.116
616.214
631.207
648.155
667.107
688.095
711.141
736.257
763.446
792.706
539.593
540.386
542.007
544.523
548.028
552.634
558.465
565.647
574.306
584.554
596.496
610.219
625.797
643.288
662.738
684.18
707.636
733.12
760.639
790.195
526.772
527.711
529.618
532.544
536.564
541.769
548.259
556.137
565.507
576.464
589.097
603.484
619.688
637.764
657.755
679.692
703.599
729.492
757.38
787.268
513.765
514.841
517.014
520.325
524.831
530.604
537.723
546.27
556.329
567.978
581.293
596.337
613.17
631.837
652.378
674.825
699.199
725.518
753.794
784.032
501.114
502.311
504.721
508.376
513.319
519.605
527.295
536.454
547.148
559.442
573.395
589.064
606.495
625.732
646.809
669.754
694.59
721.335
749.999
780.591
489.172
490.473
493.088
497.04
502.361
509.094
517.285
526.984
538.244
551.115
565.647
581.885
599.869
619.635
641.214
664.631
689.908
717.061
746.102
777.04
478.137
479.526
482.312
486.514
492.155
499.267
507.887
518.051
529.802
543.178
558.22
574.963
593.442
613.687
635.724
659.576
685.262
712.797
742.194
773.461
)
;
    }
    coldSide
    {
        type            mixed;
        refValue        uniform 300;
        refGradient     uniform 0;
        valueFraction   uniform 0.991591;
        source          uniform 0;
        value           nonuniform List<scalar> 
400
(
300.025
300.026
300.026
300.026
300.026
300.027
300.027
300.028
300.028
300.029
300.03
300.03
300.031
300.032
300.034
300.035
300.036
300.037
300.039
300.039
300.026
300.026
300.026
300.026
300.027
300.027
300.027
300.028
300.028
300.029