/*--------------------------------*- C++ -*----------------------------------*\
| =========                 |                                                 |
| \\      /  F ield         | OpenFOAM: The Open Source CFD Toolbox           |
|  \\    /   O peration     | Version:  2212                                  |
|   \\  /    A nd           | Website:  www.openfoam.com                      |
|    \\/     M anipulation  |                                                 |
\*---------------------------------------------------------------------------*/
FoamFile
{
    version     2.0;
    format      ascii;
    arch        "LSB;label=32;scalar=64";
    class       volScalarField;
    location    "./ITHACAoutput/true/5.8";
    object      error;
}
// * * * * * * * * * * * * * * * * * * * * * * * * * * * * * * * * * * * * * //

dimensions      [0 0 0 1 0 0 0];

internalField   nonuniform List<scalar> 
3200
(
-3.57033
1.48795
0.655714
1.52853
3.30947
1.29811
1.19126
3.15952
5.67205
4.80431
2.09839
2.91632
3.91014
6.15325
4.32523
3.19518
4.56673
-0.0809514
2.30653
-0.272448
-3.72724
-0.829867
1.86893
-0.950516
-2.03902
0.879225
0.577329
3.32396
3.9199
1.42081
3.89935
3.74201
3.964
3.18776
5.2651
-0.004771
3.64431
2.90382
0.315102
0.405252
0.338397
-2.13246
0.340507
-0.571233
0.888119
1.10552
2.05599
1.20659
-0.0801301
2.76886
3.23485
2.08031
5.67404
2.61379
2.18913
2.29498
3.76356
1.3103
-0.403728
1.2571
-5.71645
-2.6727
-2.82557
3.11565
-0.296709
4.26936
3.3158
1.48764
1.78247
1.73451
2.82531
4.33928
1.10406
3.0741
1.34664
1.86001
-0.448793
2.81403
2.7872
0.192019
-2.53028
1.54811
-1.70716
1.86471
1.77164
-0.0971014
0.685577
-0.226332
1.29811
1.46226
4.4261
-1.7332
1.14272
-0.972674
1.45835
-0.314192
3.02299
1.34972
-0.196886
0.254035
-1.58134
-0.725399
0.708913
0.533682
-0.249959
-1.73613
0.787917
2.77825
0.628869
2.62639
1.19187
0.126411
-0.755779
1.55871
3.41412
0.678883
0.670852
1.39126
-0.993648
0.269603
-1.03704
0.871047
2.50492
1.1349
0.471325
-1.35301
0.801862
1.89926
1.41225
2.17209
0.431259
2.70985
1.42551
0.194355
0.155184
0.21257
2.31483
1.05506
-3.87975
1.78862
-2.22485
-8.37196e-05
-1.97985
0.432021
0.63937
1.0829
0.0716319
-2.45308
0.618818
0.369951
-0.434311
-0.651653
0.393222
0.918491
-0.137564
1.24052
-1.12467
-1.52091
-1.49476
-0.552242
-2.67387
-1.45695
-0.574753
1.79523
0.653665
1.08516
1.30849
2.28835
3.51975
4.0966
2.46032
4.06093
2.59963
5.10712
2.95503
4.15481
4.57872
1.9714
1.38728
0.0921659
-0.306772
-0.0193088
-1.78761
0.608157
0.401821
0.827642
2.66558
0.487531
3.5309
-0.243072
-0.0226652
0.996679
0.00115934
2.03338
0.515751
2.01933
0.0282669
4.20175
0.693703
-2.79587
-2.91212
0.256067
-0.970967
2.07828
3.82443
1.98875
2.57113
0.834999
0.22269
2.3197
0.880925
0.311242
-0.647311
1.58128
0.129439
2.03422
3.27909
3.51404
-1.62838
-1.86968
-4.75487
0.804182
-0.436404
1.10127
2.0025
1.49096
2.53888
3.67267
1.71072
0.914794
1.48211
2.89423
2.93339
2.3477
2.23961
0.0760996
2.22762
2.70955
-1.71648
0.719356
-0.197888
0.772818
-0.902316
-0.112398
1.4019
3.28818
-0.311221
-0.205904
0.0452888
2.43713
1.9105
-0.895431
1.48967
-0.43385
-0.307186
-0.70846
-0.630464
-0.879536
0.0261871
-0.722787
0.537409
-2.00005
0.69308
-0.993792
0.86853
1.00803
3.18551
0.901131
2.25131
1.43323
1.7195
4.10134
1.81991
0.0459931
-0.168891
-1.62634
-0.91579
1.06259
0.979282
-0.329435
-2.34238
2.1268
1.99946
0.572455
-0.64746
0.882056
1.83952
-0.155115
-0.878231
-0.88205
0.501494
0.350602
-0.489433
1.71163
1.07916
-0.580285
1.04561
-0.446259
1.36867
2.40243
0.911819
1.54104
-1.82817
-0.566521
0.766745
-0.39525
0.700699
0.55861
0.523729
1.37927
-0.245521
-1.163
-0.1872
0.212596
0.755837
1.97422
-0.337981
-0.951644
-1.41032
-1.13776
-2.77487
-1.19111
1.12709
3.0902
2.73033
1.89263
0.682448
4.39745
2.4448
5.60709
2.26055
0.655051
4.35151
0.378232
3.4519
2.05936
4.42672
5.13601
0.999496
-2.01161
-4.37987
-0.73637
2.19114
2.73298
3.17923
2.77549
1.0635
1.55397
2.10499
2.59906
3.58319
3.23617
1.02
0.331282
2.09346
3.59231
2.26072
0.293018
1.41831
-4.76391
-1.66766
-0.435727
-0.752302
-1.24666
0.229487
0.523554
2.67339
3.22199
1.53303
0.541445
3.21768
0.287501
2.68248
6.32854
2.10579
2.43571
3.58344
1.6609
-1.0018
-0.4901
-2.49145
-1.11941
1.9461
0.760155
0.939321
2.43695
3.09851
1.5152
3.14289
3.42047
2.09439
0.016149
2.25164
4.18954
1.15003
0.6836
0.630169
1.24737
-1.33068
-0.640527
-1.91134
-0.149575
0.488524
1.46259
0.237576
0.694973
1.94069
0.993486
1.0511
0.121267
-1.16853
2.65544
0.672406
0.798023
2.50606
3.45557
1.41151
0.341477
-0.101575
-0.617801
-0.39372
-1.48121
-1.03509
-1.4443
1.96691
0.129483
-0.447508
2.31743
0.203087
0.997972
-0.0634696
2.40704
1.55648
0.397039
2.52582
2.78012
-1.80121
-0.505671
-0.00144955
-1.26654
-0.838056
-0.0900654
-0.555614
1.88184
-0.0221126
-0.469914
-0.657347
0.97758
0.194276
-0.202849
1.14939
1.46036
0.160006
-0.628414
-0.831176
1.24578
-0.628621
-1.43796
0.636717
-1.19111
-0.400298
-0.135005
1.19585
1.08132
-0.963907
1.83531
1.79875
-0.439109
-0.42554
-0.788951
0.303908
2.50579
2.54917
0.462288
0.781029
0.482743
-0.0686341
-3.31378
0.58358
-0.903841
-4.24061
-3.53385
0.355152
-0.911102
-0.718997
0.304667
0.31105
3.29901
5.28462
0.978985
1.9745
3.26307
1.56057
2.80313
3.56532
1.01649
1.47888
1.1398
1.65777
-4.74217
-4.27565
0.232798
-3.30906
-0.104088
3.68874
0.10772
0.187515
-0.0637031
1.15854
-0.213748
-0.764867
0.0551155
0.132464
1.32528
-0.316387
3.54437
0.201335
2.13381
-0.510737
-3.88088
-3.37527
-2.524
0.18134
0.905718
2.45892
-2.144
1.55558
3.89373
-0.590188
3.26503
3.15457
1.95095
1.2212
0.106363
3.86621
2.74032
4.66064
1.13833
3.13232
-0.710954
-2.94039
-2.29428
0.23126
1.11393
2.34838
0.511672
2.37491
-0.67102
1.63358
4.28625
2.06549
0.367795
3.51899
1.11617
-0.246766
-1.23141
1.91764
-1.47749
-0.426892
-2.1256
-0.173571
2.1219
-0.142127
-0.656671
1.05557
0.324757
-1.30645
0.708368
-0.0879514
1.52511
0.902009
0.782732
-1.08705
0.245506
2.17559
-0.518419
2.35244
-1.00285
-0.173258
0.0149356
-1.98939
-0.0405162
-2.30353
0.878066
1.67001
1.86316
1.94929
0.0499459
-1.95576
0.817803
-0.85348
0.469708
1.04195
-1.83923
1.86312
1.03971
0.304718
0.430933
-2.20871
2.4673
-1.37876
-2.92689
-0.131644
-2.46453
-0.767173
0.449877
0.261714
-2.58208
0.0989207
2.72038
-0.0156875
-2.27259
1.96428
2.13378
-0.0241939
2.27436
1.10016
-1.01333
-0.531949
1.35827
1.26724
-1.89952
-1.27059
2.03549
1.21198
0.744776
-2.80633
1.50848
-0.335239
0.506828
1.86049
-1.14157
0.426466
-0.69249
1.89064
-0.893782
2.21014
-1.47409
0.502049
-2.66715
-3.48412
0.124644
-3.1841
1.46067
-0.41642
0.921681
1.42337
1.85744
0.87949
1.46218
0.858672
2.38723
0.0867586
2.15153
3.63655
2.03701
3.96488
0.75043
-0.682039
-4.72635
-1.19086
-2.01846
-0.452913
2.66717
0.426431
2.79831
2.24736
-1.21607
-1.86032
2.44386
2.34461
-0.290067
1.56016
-0.417494
0.758786
5.08843
-0.734967
-0.41325
-1.07699
-1.78915
-1.01359
-1.43807
-2.22856
0.871727
1.74181
3.04412
-0.534596
0.837085
1.28182
-0.370475
1.28726
-0.0147033
1.96142
-0.543285
1.07421
0.407131
1.6252
1.40701
-1.69719
-2.62239
-1.84045
1.93561
2.48949
0.449097
0.443653
0.525442
0.278359
0.958415
1.16035
0.733273
0.468082
-1.36578
1.57288
1.74601
3.66915
0.0319511
0.581478
-0.236621
0.172341
-0.68568
-2.32267
-0.240983
2.73324
-2.13832
0.781646
-0.572993
0.839851
2.77832
-0.32467
0.00634875
-0.138894
0.724854
1.47347
-0.207454
1.09238
3.22055
1.36678
2.06296
-3.12754
-2.68715
-2.10919
-2.67333
0.594137
1.25747
0.981779
-0.380184
1.53908
1.06346
-1.81365
1.66677
0.466709
-0.238043
-1.26331
0.0529855
1.21535
1.27271
-0.586678
-1.05353
0.17241
-0.923679
-0.856962
-0.995101
-0.161994
2.89158
1.8331
-1.23373
0.454161
-1.2031
1.5522
1.24403
0.0401861
1.52972
0.809889
0.270316
-1.27731
1.25829
1.76259
-0.0239048
-1.62483
0.565515
0.701677
-0.944423
0.642159
-0.88164
-0.290641
1.405
0.463397
1.59497
-0.481915
0.913068
-0.930015
-0.711098
0.0737299
-1.22694
-1.29611
0.755641
0.27585
1.38983
2.89405
-0.443493
-2.97069
-1.93327
-1.81332
-0.261766
-0.787666
-0.0658044
3.02902
1.04533
-0.230895
-0.420237
1.61853
-1.93599
-2.41939
-1.12905
0.523712
0.81259
2.00273
0.552274
-2.41798
-2.30006
-2.33667
-0.361657
1.4769
-0.0794501
2.22959
-0.0162354
2.25801
-0.943273
-0.236318
0.811449
-0.295268
-0.516894
0.0489613
-2.45282
0.486749
1.66093
0.586621
-3.41057
-0.222086
-0.944517
-1.43895
-4.47913
-0.604409
-0.727771
0.618084
1.68307
2.5334
0.194583
-1.21195
0.00408964
-2.63684
-0.865086
1.18945
-0.738661
0.79489
0.517004
-0.154884
1.91402
-2.71699
-2.64322
-4.18936
1.47006
0.212574
0.682458
1.67676
2.37912
-0.559556
-0.935402
-1.71992
1.18802
-2.43487
-0.0829429
0.412578
1.20582
-1.59675
3.7472
-0.947977
-1.49191
-0.814548
-2.79769
-1.02214
-1.91243
-1.39463
0.0805827
1.69931
0.379764
2.5836
-0.445006
-1.84017
0.673637
-0.133858
0.958037
0.564709
-0.794514
0.852968
0.734106
0.374334
0.92115
0.678803
0.0652628
-1.41844
0.449601
-1.59763
0.71348
2.41533
-1.56421
-1.61754
1.75696
2.54049
0.158762
-0.849844
3.98366
1.33011
1.99068
0.779861
-0.573236
0.878394
1.18645
0.338595
-0.376962
1.81398
0.890276
0.84295
-0.374913
0.7703
0.382559
1.3047
1.30397
-0.294235
-1.65795
0.569567
-0.735991
-0.640006
0.0408022
1.5335
0.188715
0.818275
-1.55054
0.567018
-0.130836
-0.910979
-1.27898
2.20257
0.806478
1.79814
0.650918
0.707087
1.90385
0.429245
0.842657
-0.197899
-0.337476
-0.34162
-1.1225
-1.80164
0.536196
0.235563
-1.27988
-1.4183
-1.54802
-4.14241
-4.2682
-0.300468
0.547699
-0.314726
0.188107
1.08534
-0.446203
-0.890503
-1.42872
-3.02843
-1.2617
-1.18238
0.0390037
-0.129068
-0.122537
0.979407
-3.15826
-2.39871
-3.75168
-4.29589
-1.72155
-0.439857
-1.2288
-3.28633
-0.304824
0.0478397
-0.59531
-0.578244
-1.077
-2.16298
-1.36191
0.735071
-2.26531
-1.28259
1.55507
0.123422
-0.987413
-2.44349
-4.54067
-2.83742
-1.2803
0.159062
0.635916
-0.768865
0.220367
0.646951
1.00989
-0.499827
0.838841
1.26535
-3.31757
-1.0532
1.09892
-0.305827
0.904285
0.871843
-3.44016
-1.64638
-1.5551
-6.06504
-1.26163
0.507633
0.718981
-0.340551
1.05549
-2.17533
-0.927272
2.49622
-0.575059
-0.991931
-0.545568
-1.65996
-0.224174
-1.08121
0.460101
0.0110154
-0.349173
0.238069
-1.27031
-4.26428
-2.04925
-0.336062
-0.638566
-0.386987
-0.209641
-0.635089
-0.338537
-1.10233
0.372199
1.0112
1.24962
0.872606
-1.43432
-2.51288
0.22146
0.776684
-0.0169857
-4.49195
-0.834406
-3.94627
-2.56493
-0.00470138
1.23979
0.745591
0.807343
1.09512
-0.359348
-0.402741
0.235788
-1.49887
0.115767
-1.5051
-3.83269
2.28357
-0.226289
-2.15742
-0.853605
-3.43801
1.16065
-1.23412
-0.00822361
-0.364932
1.88071
0.619398
0.975963
-3.37617
-2.21633
2.25775
-0.780962
2.15087
-0.48862
-0.601338
-0.533917
-0.869764
0.552581
0.978968
1.65068
1.25802
-1.51942
0.54565
0.401276
1.0827
-2.41638
1.00369
-1.18499
1.3384
-1.89404
-2.90063
-0.732221
-0.107951
-0.333784
0.794116
-1.49206
-1.07857
1.36173
-0.931929
-0.688074
1.70273
2.88757
-3.06253
-3.34173
-0.161056
0.958211
-1.12388
0.41985
-2.18115
-1.09432
-1.18355
-0.72368
-2.13312
-1.6013
-4.28509
-2.59071
1.54077
1.85039
-1.11189
-2.68764
-0.9402
-4.78106
-6.27031
-0.0953235
-0.95692
-0.28056
-2.2509
0.137061
0.500852
-0.949171
-2.66537
-0.744989
-0.0789129
-2.18127
-0.518559
-1.16084
0.211583
-1.05787
-0.195308
-2.81628
0.0411597
-3.31617
-3.2586
-4.808
0.539092
1.96887
-0.125282
-2.43223
0.0845821
0.694099
-1.20127
-1.7027
-2.14682
-0.436686
-1.244
0.233141
-1.26383
1.15268
1.08159
-0.4613
-1.69175
-2.73314
-3.35584
-0.109268
0.39501
-0.524609
-0.481363
0.263579
0.559692
1.27398
-0.525621
-0.806511
-0.847029
-1.61343
-2.14663
-0.903891
-0.824492
0.289972
-0.61086
0.0058205
0.220294
-2.79813
-2.25189
-2.24949
0.602172
0.800924
0.247481
0.891846
0.583593
-1.07104
-0.887666
-0.452264
-0.0870759
1.24749
-2.82988
-1.36375
-0.0743852
-1.17973
-1.75333
-0.227821
0.680811
-0.758547
-0.920471
-0.613175
2.16389
1.48776
-0.196094
1.0159
-0.991806
-1.68303
-1.09189
-0.370983
-1.30516
0.405143
-2.82131
-1.02162
1.63408
0.361563
-2.92514
-1.08472
0.78758
-2.53626
-0.890257
-0.925454
0.774125
-1.76139
-2.10949
0.756713
2.61393
-1.65554
0.430916
-1.36183
-1.54712
0.458867
-3.61668
-1.26946
0.0798929
-1.13277
-0.894368
0.493902
-1.54761
-2.94741
-1.20256
0.470649
1.73047
0.0588776
-1.08843
0.385286
0.549643
-0.0458502
1.1123
0.450816
-2.429
0.85636
0.71983
-0.173785
-0.680687
-0.0794272
1.05369
-1.11396
-0.532839
2.30747
-5.08862
-3.45932
-2.54992
-0.600882
-0.0719729
-2.26494
0.162843
0.677628
-1.78255
-2.25309
-2.68363
-1.35556
-3.42622
-2.08164
-1.10049
-0.164161
-1.24844
-2.80952
-2.71023
-4.13081
-6.35909
0.0317726
-2.66559
-1.12228
2.58192
0.522705
-0.613712
0.0856405
-3.46368
-0.871797
-2.85936
-1.38435
-3.24495
-3.33937
-3.81155
-3.13213
-1.14095
-0.732502
-3.35815
-1.17483
-3.5708
-3.17414
1.26083
-1.34475
-0.241796
0.455495
0.10124
-2.07128
0.061585
-2.75972
-4.29172
-5.02152
-2.13061
-1.64667
0.405534
-1.27479
-1.41862
-1.5828
-1.61796
-3.47034
-3.02871
-3.12365
-3.14685
0.0618277
2.34514
-0.304834
0.72913
1.74945
-2.65601
-2.6577
-0.3706
-1.64063
-0.660486
0.586504
1.63395
0.0854098
-1.80846
-2.36863
-0.608768
-3.8711
-0.162325
-2.52006
-3.05021
1.14676
-0.0702344
1.07363
-0.11653
-0.585388
-0.287357
-1.32537
-3.22138
-3.07335
-1.02525
-2.50366
-0.568669
-1.81137
0.259815
-1.32568
-3.92916
-1.33335
-0.90104
-2.95079
1.71393
-0.48216
-3.94322
-1.99794
-1.33675
0.000566134
-1.47148
-1.14576
-0.678697
-2.23267
-1.95471
-0.575377
-1.01099
-3.02788
-0.109898
-2.13278
0.0747519
-1.56183
-0.00100998
-1.47296
0.0880534
1.27769
0.190661
0.855547
-1.09275
0.0155352
-0.904232
-0.567978
1.28875
-1.18373
-0.254292
0.896917
0.0094811
0.208701
1.55347
-2.59542
-2.61229
-1.19423
0.437973
0.453731
0.772839
0.287364
-1.63581
1.20715
-1.59601
0.341059
1.50877
1.04531
-1.51488
1.24896
-1.62665
-2.14395
-2.25373
-2.39795
-2.12124
-0.0207168
-0.703848
-0.376286
-4.94726
-1.95638
-1.15427
-0.297077
-2.06275
-0.911172
0.274208
-2.94806
-1.26681
-2.83672
-3.47034
-2.7574
-2.62236
0.0706926
-1.31968
-2.60495
-0.827858
-0.587917
-4.12611
-4.92706
-4.24283
-0.185157
-1.9826
0.242836
0.47323
-0.113462
-2.36818
0.36556
-1.94704
-0.297219
-0.477596
-1.71689
-0.514362
-0.440544
0.577954
-1.67711
0.368526
-0.718829
0.14251
-4.59747
-1.64331
-3.05432
0.0281139
0.954404
-2.09918
-1.0496
0.676695
-0.540749
0.60116
-2.68527
-2.06005
-3.00776
-0.184421
-2.81406
-1.3004
1.62937
-0.475501
-2.40263
-2.08824
-1.49105
-4.51477
0.941651
-0.232903
-0.888312
-0.844792
-1.04054
0.00185219
-3.8592
-0.350602
-0.373698
-3.17578
-2.85003
-1.00833
-0.74997
1.20444
-2.29792
0.217522
-4.15178
-3.00242
-3.98088
-2.34796
-2.17668
-0.6376
0.0946738
-2.26951
-1.46423
-2.19627
-2.01682
-2.33758
0.00508135
-2.15849
-3.66134
-0.667627
-0.953741
-1.55103
-1.67397
-0.298138
-1.81929
-0.0343351
-1.66818
-3.81732
-3.80174
-2.14381
0.698903
3.0043
0.0479097
-0.54104
-4.29768
0.741559
0.865678
-3.03987
-0.571407
-0.393943
-0.0414905
0.326335
-1.35683
-0.212977
-0.611109
-1.41792
0.277635
0.794396
-1.55714
-1.62728
-2.56659
-0.109415
-1.23228
0.0700204
-2.27301
0.0362447
0.364589
-0.871073
-2.71909
-0.194708
-1.82522
1.39757
-0.94783
-0.144469
-0.923546
0.181627
-0.922889
-4.21432
-2.05758
-1.19561
0.401175
-2.58296
0.56221
-0.0346549
-1.3917
-0.607391
0.78793
-0.928327
0.220609
0.90554
0.510815
0.273456
0.774679
0.118154
-2.55849
0.261535
-1.58474
-3.81425
-2.23401
0.79463
-2.06513
0.0106099
-0.0753269
1.82263
2.14597
-1.69854
-2.51534
-6.13034
-2.91199
-2.92899
-0.426691
-1.98845
-1.6594
-1.3366
-1.04134
-2.92144
-3.94619
-4.65458
-0.635313
-1.96232
-0.492523
0.525074
0.134698
-1.39872
-0.325954
-0.864941
0.120946
-0.219829
-1.09303
-0.199616
-1.05554
-0.128741
0.928254
-0.323261
-1.43052
0.0784456
-2.77206
-2.63674
-4.97788
-1.87268
-1.65417
-0.985511
-1.3333
1.5821
0.143287
-0.0324033
-1.92329
0.442606
-2.80027
-2.65285
-2.48159
-0.270832
-2.65022
-0.572211
0.116549
-2.08987
-1.8297
-2.33509
-1.01033
-1.0826
-0.821369
-1.4655
-2.17693
-2.57284
0.145997
-0.294047
-1.68432
-2.25795
-2.06627
-4.84419
-2.08014
-0.177824
-1.2252
-3.878
-1.71338
-1.71167
-0.441592
-1.82571
-1.77016
-0.368362
-1.15368
2.17144
0.0180612
0.969467
0.734404
-1.3867
0.0294115
-0.985713
-0.718131
-0.0636298
-1.50603
-1.24115
0.549234
0.233104
-1.70573
-1.75494
-3.06495
-1.08619
-2.45443
-1.62904
0.151199
2.25684
-0.436173
-3.85093
-0.476443
-1.76441
-2.12835
0.975682
-1.38883
-0.080247
-0.918592
-2.37951
-1.44557
-1.63875
1.38742
-0.662457
-1.22118
-1.58979
-1.16523
-0.3009
1.21151
-0.0679663
0.342634
-0.929848
0.805967
0.910722
1.29509
-2.31371
0.182253
0.155025
0.163845
2.54412
-0.593717
-2.72807
3.69771
-0.349575
-0.180487
-0.61283
2.73748
-1.86358
0.435672
0.86775
1.53595
-1.23315
-2.11524
-2.06098
-1.05212
1.31246
2.08356
0.565582
-1.61961
-0.958039
0.744856
-0.424503
-0.715456
1.02702
-0.790118
-2.93135
-3.05285
-4.45792
-1.17779
1.63071
1.78979
-0.801104
0.0372893
-0.837253
-0.940852
-4.25553
0.256966
-2.02135
-0.0693086
-2.66099
-1.74499
-2.08211
-1.62185
-4.03094
-4.38185
-6.39305
-1.612
-1.19614
-1.85015
-0.214059
-0.151895
-0.625715
1.1951
-1.00921
-3.0587
-1.77828
-2.92659
0.339915
-1.56573
0.0342368
-1.5149
-2.30428
-2.75001
-2.0541
-3.89696
-3.34534
-2.94125
-3.07851
-0.410141
-0.484782
2.48255
-1.88235
-1.22633
-1.64888
-3.56618
-1.56092
-3.93751
-1.41965
-0.547573
-1.49372
-0.376013
-1.74318
-0.453065
-2.24961
-2.60502
-4.62628
-3.19147
0.48138
-0.926637
1.29709
0.00414799
-0.416586
2.50238
0.747883
-0.636047
-3.01541
0.0835179
-2.94696
-1.58403
-1.57312
-1.70118
-3.68301
-2.19828
-2.63779
-3.79395
-0.5597
1.98754
-1.1177
-0.460991
-0.704655
-1.59982
0.350167
0.332751
-1.25998
-2.77627
0.0271449
-3.08108
1.28048
-0.57413
-0.702306
-0.0889956
-0.984092
-2.25081
-0.0607922
-3.55786
0.50583
-0.804327
-1.2069
-0.827635
-0.163284
1.22265
0.497499
1.18189
0.28189
-0.579703
0.437506
-1.03672
0.797014
-3.03913
-2.95424
-1.74782
-1.03351
-0.375348
-2.10994
-3.27742
-0.236992
-1.23312
-1.29951
-3.17705
1.89362
-2.22481
-1.79571
-1.03808
-2.53797
-3.06595
-1.99122
-1.53577
-1.94209
-0.174611
0.255669
0.0544929
0.1633
-1.49089
0.891896
1.05176
-1.32849
0.727389
-0.642137
0.609862
0.0512571
0.114393
1.30997
0.63428
-1.3041
2.33617
-1.09217
1.41773
0.926196
-3.32693
1.06383
1.24282
1.75
-1.03058
0.813883
0.191341
-3.0844
-2.60658
-2.00606
-0.354812
-0.556603
-0.22842
-0.0650041
-0.482747
-0.503756
-3.26401
-2.32342
-3.66584
-4.39562
-3.04796
-0.348896
-3.91399
-3.72273
-1.63687
-1.40259
-3.61536
-2.03635
0.222043
-2.06591
-1.00256
0.442567
0.375068
-1.40018
-0.140529
-1.83333
-0.294964
0.14237
-3.83508
-0.529415
1.23587
-0.281118
-2.13233
0.240887
-1.09106
-0.633251
-3.18456
-3.78204
-1.919
-0.789093
0.125232
-1.62619
-2.12176
-0.689096
-0.86166
-0.665266
-0.228157
-1.01568
-2.40576
-2.14689
-1.44858
-0.769952
1.79316
-1.69121
0.220449
-0.987493
-0.360565
-2.31191
0.815845
0.396867
0.89252
-0.793397
0.271601
-0.93314
-1.99273
2.15506
-0.763576
-1.58421
-2.61681
-0.826937
-3.4705
-0.863013
-0.966172
-0.28662
-3.80108
0.889032
-2.50064
0.305223
-3.94054
-2.51498
-1.18832
-0.125737
0.480109
-0.573723
-2.59057
-0.783093
-1.42368
0.462458
-1.65244
-1.75179
0.788927
-0.846822
-1.27345
-2.08628
-1.65845
-0.0428988
-2.58881
-2.65547
-0.327992
-3.17188
-3.54084
2.20304
-0.940064
-0.0215699
-1.05922
1.47083
0.242062
-1.52164
-0.759829
-0.524076
1.77945
-0.0362689
-1.38903
0.209515
0.60551
1.06573
-2.58176
-3.12601
-1.50059
-3.64168
0.310938
0.0114903
0.016592
-1.79914
-1.20881
0.535019
-1.22694
-0.798558
-3.67882
-0.366262
-1.65109
-1.29686
1.08446
2.5862
-0.947879
-1.02382
-0.66232
1.48778
0.551916
-0.803782
2.43793
2.7804
2.84225
-0.376916
0.937942
0.189167
1.81071
0.789623
0.881463
1.67528
2.73345
0.639961
0.57905
-1.4065
0.0173083
-0.0834097
1.24255
-3.59877
-0.320496
-0.995787
-2.66822
-0.366332
1.25363
0.865214
-0.407508
-2.285
-1.64147
-4.03972
0.19765
-4.46175
-1.73429
-0.919163
-1.43614
-0.514116
-1.35835
-2.20339
-4.46561
-4.72852
-1.33297
0.147949
1.63993
2.30594
0.202345
-1.48492
-0.95726
-0.817807
-0.312846
-3.39224
-2.09785
-0.697504
0.552086
-3.36478
0.587578
-0.683859
-1.29286
-0.352203
-6.06129
-1.05093
-1.46907
-2.2735
1.67343
0.88188
-0.141583
0.0933515
0.856924
-0.53119
-1.86315
0.811301
-1.73033
-1.33695
-0.56035
-1.54416
1.82489
-1.03238
-0.517584
-2.12767
-0.987494
-3.5892
-2.57213
0.597221
-0.118096
0.806442
3.15176
-2.36126
-0.845954
-1.41774
1.47944
-0.825597
-1.9653
-2.70945
-0.761287
-0.357684
-2.66288
-0.253802
-1.09959
-1.561
-5.04533
-1.50147
0.583711
1.91698
1.27339
0.837422
2.0758
-1.87077
-2.07649
1.08329
-1.49332
0.0429139
-2.73386
-0.0359383
-0.721666
-0.273573
-0.830139
1.50271
-1.0923
-1.18139
-2.85098
-0.545458
-0.407263
-0.656706
-0.205825
1.52533
3.44888
2.0799
1.14918
-0.856854
0.672743
0.191601
0.660673
1.09421
0.262651
-3.74975
1.1358
-0.216062
-2.84819
-1.83619
-0.667729
1.47306
-0.291232
-0.46917
0.00161854
-1.13134
1.22317
1.07866
-1.36811
-0.477103
-2.3961
0.243688
-1.06507
-0.146132
-0.311685
-1.40005
1.24935
-1.76613
0.302213
-1.49473
2.1122
0.213815
-0.371955
0.549485
0.41427
-0.0958086
2.56122
-0.243573
0.640599
0.336505
-1.07834
0.13472
0.153989
-0.300977
-1.91075
-0.515766
-1.62666
0.746835
-0.897261
-1.68476
0.514032
-3.65373
-1.78133
0.163329
-0.794283
-1.584
-1.40208
0.54193
0.742654
-0.979532
-0.456393
-1.77444
-0.526237
-0.961476
-1.80703
-0.0649938
-0.706834
-1.83266
1.2153
-3.12764
-5.22571
-1.38488
0.405924
-1.64004
-0.150806
3.29186
-0.20616
-0.0544197
-0.148254
-2.02517
-0.212628
0.265021
-1.51341
0.141096
0.467194
-0.241097
0.0021878
-0.560557
-0.101283
0.417106
-2.98547
-0.322368
-1.0542
-0.990252
-2.30553
0.604419
1.60408
0.962154
2.31765
0.730575
-0.520218
-2.02272
0.187435
-0.00842681
-1.86276
-0.754074
-1.4078
-1.50635
0.390423
-1.335
2.19201
-2.63626
-1.90417
-0.399593
-1.61071
2.71382
3.9391
-0.666895
0.0662918
1.76748
-0.12548
-0.946477
-1.01922
-0.296775
-0.522122
-2.99959
-1.24417
-0.508988
-0.355513
-2.58316
-0.930989
-0.929256
-0.580153
0.343373
0.387992
-0.853045
-0.32812
2.5724
-0.910179
-0.13316
2.03935
-2.36561
1.16548
2.08489
0.604281
0.142029
-1.40063
-1.98141
-1.97243
-1.86686
0.311006
0.624983
-1.02829
-2.15897
0.0471543
0.541248
-0.402158
-0.742505
-0.369032
0.437827
0.368285
-0.877146
1.49749
-0.294951
-1.14188
-0.530251
-2.4364
-0.227086
-0.481549
1.26766
-0.219866
1.19065
-1.29658
0.513103
-2.48482
1.20129
0.0323516
-0.409371
0.342892
-1.72235
-0.789382
-1.53425
-0.268739
0.523768
-0.138866
1.49392
-1.36096
1.0296
0.552591
-1.81742
-5.58743
-0.600039
2.58244
0.325235
1.95529
-0.720108
-0.722349
-1.1433
-0.148777
1.23534
0.0422588
0.444473
-0.75308
0.486859
-0.694734
1.0504
-0.431465
-0.533489
-1.5339
0.760024
-2.01527
-3.29313
-0.782976
0.760062
2.3107
2.69954
0.671429
2.15942
2.14844
0.668541
0.471026
-0.331595
1.02853
1.15212
-0.579335
-0.87679
3.42725
-0.120095
0.256008
-2.62046
-1.23878
-1.58493
-1.35923
1.49146
3.78559
-1.9364
4.01663
4.54027
-0.553116
0.214227
0.740303
2.53102
-1.07476
0.498254
-0.945205
-1.19034
-1.68721
1.97461
-1.09559
-2.9754
-2.09817
-0.51304
0.162751
1.64413
0.193888
1.53288
-1.47239
-0.258175
-0.565516
0.369167
0.00737289
-0.278562
1.81963
0.766655
-2.4096
0.446634
-1.2587
-2.57551
-0.324891
-1.66978
-1.47966
-3.19168
0.675087
0.176822
0.59759
2.95269
0.883291
0.679296
-0.518506
1.45833
1.10072
-1.9109
-0.376656
1.39952
-0.845789
-1.9535
-0.78028
-1.69366
-1.57098
-2.84443
-0.664992
-0.695053
0.0410773
-1.26607
2.79403
2.39699
0.147774
-0.0407499
-0.771763
1.43364
-0.930718
-1.12901
0.606362
-1.47432
0.604137
-2.21441
-0.0653906
-0.557667
1.40344
-1.04404
-3.54097
-0.691906
0.153092
0.13937
2.14446
1.09281
-0.564336
-0.647453
0.493527
-0.978404
1.74661
-0.735757
-0.187223
-2.50297
-0.343869
-2.39077
-0.187735
0.63924
0.233987
-0.350359
-1.96952
-1.63402
-0.454585
-1.2953
-1.0005
-1.30223
2.19911
1.61948
-1.79036
-0.674809
0.435365
0.432209
-0.302701
0.561813
-1.92022
-0.283887
1.09002
-0.514304
0.0748101
0.874746
0.237413
1.51079
-0.126231
-1.58975
-0.242166
1.16886
-0.0516295
-2.53263
2.05695
-2.00284
1.16147
-0.748325
-1.51957
1.58601
2.49522
1.85331
1.61811
0.0998586
-0.632959
0.311782
0.256001
-1.19193
-0.57222
-1.5011
4.32484
2.48607
4.16478
3.00171
0.899442
2.77763
1.42078
2.85156
2.22423
2.6172
2.27071
2.53266
1.56645
0.853611
0.0156915
-0.753218
-2.79948
-1.14968
0.0235095
2.05875
0.070577
1.19173
0.208175
-0.046307
-0.295936
2.65921
0.137937
-0.439738
4.65395
1.0908
1.79162
-0.223356
0.526208
0.0836226
0.272425
0.134148
-1.02569
1.29821
0.238187
0.554029
2.19196
1.32749
1.48624
3.65828
2.79499
-1.80404
2.4751
1.96913
-0.101488
-1.252
-0.340163
-0.401004
0.996266
1.97255
0.969634
-0.446638
-0.29231
0.156861
2.03897
-1.496
1.05028
0.397017
0.364171
2.12283
-0.733175
0.576475
0.537076
2.14868
0.564312
-0.771674
1.99401
-0.17008
-0.239813
1.78024
1.66327
-1.90727
-1.36378
0.654822
1.99631
0.864569
-0.579442
-0.293575
1.34072
2.91693
-0.206838
3.35381
2.40046
-1.18712
1.41955
-0.860409
2.09615
1.77221
3.53614
-1.03509
-1.93375
-1.30342
-1.51844
-1.43241
-1.19155
3.35472
2.11795
-0.348166
-0.667098
2.71352
1.35013
0.76026
0.757618
2.54469
-0.215765
1.344
-0.610167
-4.44455
0.308866
-1.27402
-0.994219
-1.87898
-0.193651
0.405326
0.472223
0.798498
0.918261
3.01541
1.82475
1.21957
-1.15556
-0.88568
-0.769582
1.84188
4.04355
-1.25217
1.69175
1.04854
-1.12039
1.50203
2.14814
-0.961634
0.414458
-2.09122
-1.14015
0.239217
-0.693961
0.150311
-3.05161
-0.959328
0.314814
0.0295501
1.66535
-1.18859
0.0420347
0.158742
-0.812031
1.24951
-0.228181
1.88572
2.17374
3.04164
1.88471
-0.997279
3.86491
2.59427
4.23223
3.94401
4.14776
1.68677
4.46895
5.04215
2.02564
1.71859
3.13488
3.41343
1.44341
2.91847
1.93793
1.29654
0.703525
-0.180214
1.24201
-2.09977
2.80784
2.46722
4.16104
4.26559
1.78772
1.24757
3.49684
0.991375
3.82716
2.02179
3.44382
0.443548
2.943
4.69361
0.670329
-0.104601
1.60234
0.301461
-0.505586
1.43526
1.32041
2.05799
5.98908
4.76729
2.19233
1.95997
1.97301
-1.76174
3.6051
2.47534
-0.386679
0.80365
2.40089
2.04616
1.04393
1.54857
0.688818
0.338388
-0.39256
-2.2077
0.141406
0.526179
1.31853
4.80274
0.673039
0.956803
0.678098
3.43018
2.01521
3.3238
1.86916
1.08826
-0.30673
2.06119
-0.229272
-0.52909
0.350632
0.202292
-0.496426
2.44312
0.275886
-0.768137
1.38342
4.27297
-0.590786
2.72017
1.40316
0.842657
2.16899
1.53944
0.228794
-0.51528
0.927727
3.5818
1.70453
-0.83424
1.02398
-0.745755
-1.48103
0.100895
-1.08086
0.894243
1.48471
1.6821
0.290084
-1.20776
2.04637
0.416186
-1.2968
-0.874571
0.270709
-0.536923
3.46711
-0.601141
0.615919
-0.40745
1.22503
1.4242
-3.54448
-0.910479
-0.296351
-0.174674
-0.504642
1.22127
0.824178
0.873375
-0.949687
0.128367
1.90829
0.860344
3.24404
-0.179356
2.7624
1.48964
0.088271
-0.230352
2.44773
0.0255764
-3.38905
1.37059
1.92129
-0.655971
0.946846
-0.0414764
1.13374
-0.177195
-0.145118
2.70223
0.915142
-1.16154
0.700759
-0.920229
-0.448721
-1.6944
0.482793
-0.00567491
-1.88058
-0.209501
-0.455181
-0.580504
1.74213
3.09171
3.7705
4.29652
6.42151
6.21865
5.67033
6.63105
4.32924
2.75145
3.8583
4.27745
0.506237
3.87873
6.1997
3.87359
2.25556
3.64781
0.490159
0.827294
0.58522
1.8032
1.20265
3.10098
0.396526
4.15573
0.349045
6.01486
-0.426229
0.0671211
5.37987
1.15233
2.98063
-0.096733
1.67726
-0.209744
1.43981
-0.20562
0.690342
3.73204
0.626173
2.07143
3.91569
4.63359
3.08526
3.11606
2.36001
3.48036
2.88267
2.57847
3.57093
2.63148
1.80169
-1.16484
4.58504
2.07384
-0.277737
1.2735
0.146548
0.764363
3.07271
3.14421
3.04725
4.13476
1.87411
3.68549
1.45082
2.99458
1.9434
1.16603
2.35017
2.56907
1.747
2.52406
3.4013
0.914582
1.92772
-0.227294
-1.70766
0.427564
2.09296
1.82394
0.779908
1.50398
3.53146
1.26182
4.78521
1.56442
0.436916
2.90411
2.24114
3.79103
1.97595
2.27877
1.80225
-3.23029
1.73029
0.539681
-2.65433
0.416089
-1.56818
1.57676
2.32895
-0.135574
-1.03826
-1.14228
0.546123
1.63119
1.25355
3.26995
3.59385
0.726341
3.29169
0.29954
4.01456
0.873713
1.6131
1.00462
-2.60076
0.897739
0.519289
-0.810174
2.08654
-0.595165
-2.29746
-1.06533
0.525419
0.757707
0.899268
0.952264
0.480875
0.107053
1.14588
1.80467
3.25795
-2.15601
2.00539
-1.63029
0.0912758
0.3266
-0.694892
0.718485
0.559067
-0.292559
-0.689619
0.227197
0.365199
-1.78703
0.33477
0.864176
3.31742
0.0689704
-1.7686
-1.50316
-1.8137
-2.3233
0.164546
-1.02419
-0.837979
2.77793
4.14125
4.03637
6.88006
5.43586
4.88212
7.52674
4.7506
6.00931
5.57156
5.65159
5.4273
4.85895
5.78145
4.60324
5.21594
2.42946
3.6545
0.553366
2.41085
2.84535
1.26408
3.08438
4.14698
6.72951
5.0566
5.7629
4.91715
7.16604
3.76685
3.7148
7.00143
4.95511
3.78976
5.30421
4.40934
2.32135
1.59519
5.15051
-0.0580084
0.835009
0.889254
4.82032
2.10384
3.27446
4.32125
4.58573
4.2325
4.26921
5.40027
4.44311
4.3941
4.11258
4.50296
2.32691
0.531347
1.21138
1.49234
0.305543
0.362503
1.64716
3.86708
1.60871
2.29513
4.44747
2.62176
3.44262
5.20265
3.88904
3.91092
0.316864
4.37174
2.69117
2.37079
2.93147
4.46059
4.84278
4.61897
0.964316
5.1712
-0.177583
0.210149
2.98586
3.35588
2.5956
-0.520642
0.735592
5.60181
2.96576
2.55863
2.07806
-0.213568
-0.17332
1.38421
2.51111
2.60677
3.34346
0.842101
-1.1878
0.940634
2.1853
2.64272
2.2876
2.35762
1.98636
3.28353
1.31661
0.0904428
3.43742
3.68912
2.57647
1.51072
0.61502
-2.22578
1.16217
2.48961
2.77208
1.13509
0.378711
-1.26535
-0.379143
1.04318
2.28911
0.929692
2.44873
0.643648
2.95431
-1.30731
2.031
1.27625
2.76626
-0.801378
1.03129
1.63364
0.0804385
3.37344
1.55212
1.33695
0.338882
0.527559
2.08188
1.13467
-0.512649
-0.116079
0.194706
-0.212079
2.23982
1.71525
-2.20124
1.03944
0.530564
0.182723
-0.643407
0.192533
-0.0112827
2.3572
-1.35713
0.627677
1.30476
-0.543393
)
;

boundaryField
{
    hotSide
    {
        type            calculated;
        value           nonuniform List<scalar> 
400
(
-2.33523
-1.43644
-1.53271
-2.99128
-2.22508
-1.69927
-2.85581
-1.75777
-3.76259
-3.59667
-2.43566
-1.52118
-1.63893
-2.11418
-2.12608
-1.71837
0.434032
0.684046
1.16041
4.58267
2.76672
-0.176175
0.0937053
-2.24286
1.42408
-0.622956
-2.94439
-2.00161
-2.09986
-0.574359
-0.82601
-1.61528
-1.13567
1.18764
-0.231942
0.811789
1.07213
5.56311
3.49851
5.96016
1.98176
0.752882
2.45796
1.69102
-1.84128
-0.461392
1.06297
1.21656
-1.15522
0.260709
2.23329
-2.99193
-0.50893
0.536481
1.73487
2.37511
0.161788
4.30939
4.86351
5.86933
2.90466
3.17247
4.46973