/*--------------------------------*- C++ -*----------------------------------*\
| =========                 |                                                 |
| \\      /  F ield         | OpenFOAM: The Open Source CFD Toolbox           |
|  \\    /   O peration     | Version:  2212                                  |
|   \\  /    A nd           | Website:  www.openfoam.com                      |
|    \\/     M anipulation  |                                                 |
\*---------------------------------------------------------------------------*/
FoamFile
{
    version     2.0;
    format      ascii;
    arch        "LSB;label=32;scalar=64";
    class       volScalarField;
    location    "./ITHACAoutput/true/5.8";
    object      trueState;
}
// * * * * * * * * * * * * * * * * * * * * * * * * * * * * * * * * * * * * * //

dimensions      [0 0 0 1 0 0 0];

internalField   nonuniform List<scalar> 
3200
(
348.87
349.571
350.465
351.44
352.444
353.429
354.338
355.106
355.665
355.961
355.961
355.665
355.106
354.338
353.429
352.444
351.44
350.465
349.571
348.87
342.373
342.966
343.737
344.581
345.449
346.302
347.088
347.751
348.234
348.489
348.489
348.234
347.751
347.088
346.302
345.449
344.581
343.737
342.966
342.373
335.869
336.361
337.011
337.723
338.458
339.178
339.842
340.401
340.809
341.024
341.024
340.809
340.401
339.842
339.178
338.458
337.723
337.011
336.361
335.869
329.36
329.756
330.285
330.868
331.468
332.056
332.598
333.056
333.388
333.564
333.564
333.388
333.056
332.598
332.056
331.468
330.868
330.285
329.756
329.36
322.846
323.15
323.561
324.013
324.48
324.937
325.358
325.713
325.971
326.108
326.108
325.971
325.713
325.358
324.937
324.48
324.013
323.561
323.15
322.846
316.329
316.544
316.837
317.16
317.493
317.819
318.12
318.374
318.558
318.655
318.655
318.558
318.374
318.12
317.819
317.493
317.16
316.837
316.544
316.329
309.809
309.938
310.113
310.307
310.507
310.703
310.884
311.036
311.146
311.205
311.205
311.146
311.036
310.884
310.703
310.507
310.307
310.113
309.938
309.809
303.288
303.331
303.39
303.455
303.522
303.588
303.648
303.699
303.736
303.756
303.756
303.736
303.699
303.648
303.588
303.522
303.455
303.39
303.331
303.288
349.03
349.725
350.611
351.577
352.57
353.545
354.444
355.202
355.754
356.046
356.046
355.754
355.202
354.444
353.545
352.57
351.577
350.611
349.725
349.03
342.511
343.099
343.864
344.699
345.559
346.402
347.179
347.835
348.311
348.563
348.563
348.311
347.835
347.179
346.402
345.559
344.699
343.864
343.099
342.511
335.986
336.474
337.118
337.824
338.551
339.263
339.919
340.472
340.874
341.087
341.087
340.874
340.472
339.919
339.263
338.551
337.824
337.118
336.474
335.986
329.455
329.848
330.373
330.95
331.544
332.126
332.662
333.113
333.442
333.615
333.615
333.442
333.113
332.662
332.126
331.544
330.95
330.373
329.848
329.455
322.92
323.222
323.629
324.077
324.539
324.991
325.408
325.758
326.013
326.148
326.148
326.013
325.758
325.408
324.991
324.539
324.077
323.629
323.222
322.92
316.382
316.595
316.885
317.206
317.535
317.858
318.156
318.406
318.588
318.684
318.684
318.588
318.406
318.156
317.858
317.535
317.206
316.885
316.595
316.382
309.841
309.968
310.143
310.335
310.533
310.727
310.905
311.055
311.164
311.222
311.222
311.164
311.055
310.905
310.727
310.533
310.335
310.143
309.968
309.841
303.299
303.342
303.4
303.464
303.531
303.596
303.655
303.706
303.742
303.762
303.762
303.742
303.706
303.655
303.596
303.531
303.464
303.4
303.342
303.299
349.35
350.033
350.905
351.853
352.826
353.78
354.658
355.398
355.935
356.219
356.219
355.935
355.398
354.658
353.78
352.826
351.853
350.905
350.033
349.35
342.788
343.367
344.118
344.938
345.781
346.606
347.365
348.004
348.469
348.714
348.714
348.469
348.004
347.365
346.606
345.781
344.938
344.118
343.367
342.788
336.219
336.7
337.333
338.026
338.738
339.435
340.076
340.616
341.008
341.215
341.215
341.008
340.616
340.076
339.435
338.738
338.026
337.333
336.7
336.219
329.646
330.033
330.549
331.115
331.697
332.267
332.791
333.231
333.551
333.72
333.72
333.551
333.231
332.791
332.267
331.697
331.115
330.549
330.033
329.646
323.068
323.365
323.766
324.206
324.658
325.101
325.508
325.85
326.099
326.23
326.23
326.099
325.85
325.508
325.101
324.658
324.206
323.766
323.365
323.068
316.488
316.698
316.983
317.297
317.621
317.937
318.227
318.471
318.649
318.742
318.742
318.649
318.471
318.227
317.937
317.621
317.297
316.983
316.698
316.488
309.905
310.03
310.201
310.39
310.584
310.774
310.948
311.095
311.201
311.257
311.257
311.201
311.095
310.948
310.774
310.584
310.39
310.201
310.03
309.905
303.32
303.362
303.42
303.483
303.548
303.611
303.67
303.719
303.755
303.773
303.773
303.755
303.719
303.67
303.611
303.548
303.483
303.42
303.362
303.32
349.831
350.499
351.349
352.27
353.215
354.138
354.986
355.699
356.217
356.49
356.49
356.217
355.699
354.986
354.138
353.215
352.27
351.349
350.499
349.831
343.204
343.77
344.502
345.3
346.118
346.917
347.65
348.266
348.714
348.95
348.95
348.714
348.266
347.65
346.917
346.118
345.3
344.502
343.77
343.204
336.571
337.04
337.658
338.332
339.023
339.698
340.317
340.838
341.215
341.414
341.414
341.215
340.838
340.317
339.698
339.023
338.332
337.658
337.04
336.571
329.934
330.311
330.814
331.365
331.93
332.482
332.988
333.413
333.721
333.884
333.884
333.721
333.413
332.988
332.482
331.93
331.365
330.814
330.311
329.934
323.292
323.582
323.972
324.4
324.84
325.268
325.661
325.992
326.231
326.357
326.357
326.231
325.992
325.661
325.268
324.84
324.4
323.972
323.582
323.292
316.647
316.852
317.131
317.436
317.75
318.056
318.337
318.573
318.743
318.833
318.833
318.743
318.573
318.337
318.056
317.75
317.436
317.131
316.852
316.647
310
310.123
310.29
310.473
310.662
310.845
311.014
311.155
311.258
311.312
311.312
311.258
311.155
311.014
310.845
310.662
310.473
310.29
310.123
310
303.352
303.393
303.449
303.511
303.574
303.635
303.692
303.739
303.774
303.792
303.792
303.774
303.739
303.692
303.635
303.574
303.511
303.449
303.393
303.352
350.476
351.124
351.946
352.834
353.743
354.627
355.438
356.118
356.61
356.87
356.87
356.61
356.118
355.438
354.627
353.743
352.834
351.946
351.124
350.476
343.762
344.311
345.019
345.789
346.575
347.34
348.041
348.629
349.055
349.279
349.279
349.055
348.629
348.041
347.34
346.575
345.789
345.019
344.311
343.762
337.043
337.498
338.095
338.745
339.41
340.057
340.649
341.145
341.504
341.693
341.693
341.504
341.145
340.649
340.057
339.41
338.745
338.095
337.498
337.043
330.319
330.685
331.172
331.703
332.247
332.775
333.259
333.665
333.958
334.113
334.113
333.958
333.665
333.259
332.775
332.247
331.703
331.172
330.685
330.319
323.591
323.872
324.25
324.663
325.085
325.496
325.872
326.187
326.415
326.535
326.535
326.415
326.187
325.872
325.496
325.085
324.663
324.25
323.872
323.591
316.861
317.06
317.329
317.624
317.926
318.219
318.488
318.713
318.875
318.961
318.961
318.875
318.713
318.488
318.219
317.926
317.624
317.329
317.06
316.861
310.129
310.247
310.409
310.586
310.767
310.943
311.105
311.24
311.337
311.389
311.389
311.337
311.24
311.105
310.943
310.767
310.586
310.409
310.247
310.129
303.395
303.435
303.489
303.548
303.609
303.668
303.722
303.768
303.8
303.817
303.817
303.8
303.768
303.722
303.668
303.609
303.548
303.489
303.435
303.395
351.288
351.911
352.7
353.55
354.416
355.255
356.022
356.664
357.127
357.371
357.371
357.127
356.664
356.022
355.255
354.416
353.55
352.7
351.911
351.288
344.465
344.992
345.672
346.408
347.158
347.885
348.548
349.103
349.503
349.714
349.714
349.503
349.103
348.548
347.885
347.158
346.408
345.672
344.992
344.465
337.636
338.074
338.647
339.269
339.902
340.517
341.077
341.546
341.884
342.062
342.062
341.884
341.546
341.077
340.517
339.902
339.269
338.647
338.074
337.636
330.804
331.156
331.623
332.132
332.65
333.152
333.61
333.993
334.269
334.414
334.414
334.269
333.993
333.61
333.152
332.65
332.132
331.623
331.156
330.804
323.968
324.239
324.601
324.996
325.399
325.789
326.145
326.443
326.657
326.77
326.77
326.657
326.443
326.145
325.789
325.399
324.996
324.601
324.239
323.968
317.13
317.321
317.58
317.862
318.15
318.429
318.683
318.895
319.048
319.129
319.129
319.048
318.895
318.683
318.429
318.15
317.862
317.58
317.321
317.13
310.29
310.405
310.56
310.729
310.902
311.069
311.222
311.349
311.441
311.489
311.489
311.441
311.349
311.222
311.069
310.902
310.729
310.56
310.405
310.29
303.45
303.488
303.54
303.596
303.654
303.71
303.762
303.804
303.835
303.851
303.851
303.835
303.804
303.762
303.71
303.654
303.596
303.54
303.488
303.45
352.269
352.865
353.616
354.423
355.241
356.032
356.751
357.35
357.782
358.009
358.009
357.782
357.35
356.751
356.032
355.241
354.423
353.616
352.865
352.269
345.313
345.818
346.466
347.164
347.873
348.557
349.179
349.697
350.071
350.267
350.267
350.071
349.697
349.179
348.557
347.873
347.164
346.466
345.818
345.313
338.353
338.772
339.318
339.908
340.507
341.086
341.611
342.049
342.365
342.53
342.53
342.365
342.049
341.611
341.086
340.507
339.908
339.318
338.772
338.353
331.39
331.727
332.172
332.654
333.144
333.617
334.047
334.405
334.663
334.798
334.798
334.663
334.405
334.047
333.617
333.144
332.654
332.172
331.727
331.39
324.424
324.682
325.028
325.403
325.783
326.151
326.485
326.763
326.964
327.069
327.069
326.964
326.763
326.485
326.151
325.783
325.403
325.028
324.682
324.424
317.455
317.638
317.885
318.152
318.424
318.687
318.926
319.124
319.267
319.342
319.342
319.267
319.124
318.926
318.687
318.424
318.152
317.885
317.638
317.455
310.486
310.595
310.742
310.903
311.067
311.224
311.368
311.487
311.573
311.618
311.618
311.573
311.487
311.368
311.224
311.067
310.903
310.742
310.595
310.486
303.515
303.551
303.601
303.655
303.71
303.762
303.81
303.85
303.879
303.894
303.894
303.879
303.85
303.81
303.762
303.71
303.655
303.601
303.551
303.515
353.423
353.989
354.7
355.46
356.228
356.966
357.634
358.189
358.588
358.797
358.797
358.588
358.189
357.634
356.966
356.228
355.46
354.7
353.989
353.423
346.311
346.79
347.404
348.062
348.727
349.366
349.945
350.425
350.77
350.951
350.951
350.77
350.425
349.945
349.366
348.727
348.062
347.404
346.79
346.311
339.197
339.594
340.111
340.667
341.229
341.77
342.259
342.665
342.957
343.109
343.109
342.957
342.665
342.259
341.77
341.229
340.667
340.111
339.594
339.197
332.079
332.399
332.82
333.275
333.735
334.177
334.577
334.909
335.147
335.272
335.272
335.147
334.909
334.577
334.177
333.735
333.275
332.82
332.399
332.079
324.959
325.205
325.532
325.885
326.243
326.586
326.897
327.155
327.34
327.437
327.437
327.34
327.155
326.897
326.586
326.243
325.885
325.532
325.205
324.959
317.838
318.012
318.245
318.497
318.753
318.998
319.22
319.404
319.536
319.606
319.606
319.536
319.404
319.22
318.998
318.753
318.497
318.245
318.012
317.838
310.715
310.819
310.959
311.11
311.264
311.411
311.544
311.655
311.734
311.776
311.776
311.734
311.655
311.544
311.411
311.264
311.11
310.959
310.819
310.715
303.592
303.627
303.673
303.724
303.776
303.825
303.87
303.907
303.933
303.947
303.947
303.933
303.907
303.87
303.825
303.776
303.724
303.673
303.627
303.592
354.752
355.286
355.956
356.668
357.383
358.067
358.684
359.194
359.56
359.751
359.751
359.56
359.194
358.684
358.067
357.383
356.668
355.956
355.286
354.752
347.461
347.914
348.491
349.108
349.727
350.32
350.854
351.296
351.612
351.778
351.778
351.612
351.296
350.854
350.32
349.727
349.108
348.491
347.914
347.461
340.168
340.544
341.03
341.551
342.075
342.576
343.028
343.402
343.669
343.809
343.809
343.669
343.402
343.028
342.576
342.075
341.551
341.03
340.544
340.168
332.873
333.175
333.572
333.998
334.427
334.837
335.206
335.511
335.73
335.844
335.844
335.73
335.511
335.206
334.837
334.427
333.998
333.572
333.175
332.873
325.577
325.808
326.116
326.447
326.781
327.099
327.387
327.624
327.794
327.883
327.883
327.794
327.624
327.387
327.099
326.781
326.447
326.116
325.808
325.577
318.279
318.443
318.662
318.899
319.137
319.365
319.57
319.739
319.861
319.924
319.924
319.861
319.739
319.57
319.365
319.137
318.899
318.662
318.443
318.279
310.98
311.078
311.209
311.351
311.494
311.631
311.754
311.856
311.929
311.967
311.967
311.929
311.856
311.754
311.631
311.494
311.351
311.209
311.078
310.98
303.681
303.713
303.757
303.805
303.853
303.899
303.94
303.974
303.999
304.011
304.011
303.999
303.974
303.94
303.899
303.853
303.805
303.757
303.713
303.681
356.26
356.762
357.388
358.051
358.714
359.344
359.91
360.376
360.709
360.883
360.883
360.709
360.376
359.91
359.344
358.714
358.051
357.388
356.762
356.26
348.767
349.192
349.732
350.306
350.879
351.426
351.916
352.319
352.608
352.758
352.758
352.608
352.319
351.916
351.426
350.879
350.306
349.732
349.192
348.767
341.271
341.624
342.079
342.564
343.05
343.512
343.926
344.267
344.511
344.638
344.638
344.511
344.267
343.926
343.512
343.05
342.564
342.079
341.624
341.271
333.775
334.059
334.43
334.826
335.223
335.601
335.94
336.219
336.419
336.523
336.523
336.419
336.219
335.94
335.601
335.223
334.826
334.43
334.059
333.775
326.277
326.495
326.783
327.091
327.4
327.694
327.958
328.175
328.33
328.41
328.41
328.33
328.175
327.958
327.694
327.4
327.091
326.783
326.495
326.277
318.779
318.933
319.138
319.359
319.579
319.789
319.978
320.133
320.243
320.301
320.301
320.243
320.133
319.978
319.789
319.579
319.359
319.138
318.933
318.779
311.28
311.372
311.495
311.628
311.76
311.886
311.999
312.092
312.159
312.194
312.194
312.159
312.092
311.999
311.886
311.76
311.628
311.495
311.372
311.28
303.781
303.812
303.853
303.898
303.942
303.984
304.022
304.053
304.076
304.087
304.087
304.076
304.053
304.022
303.984
303.942
303.898
303.853
303.812
303.781
357.951
358.42
359.003
359.617
360.227
360.805
361.321
361.744
362.046
362.203
362.203
362.046
361.744
361.321
360.805
360.227
359.617
359.003
358.42
357.951
350.229
350.627
351.13
351.661
352.19
352.691
353.138
353.504
353.765
353.901
353.901
353.765
353.504
353.138
352.691
352.19
351.661
351.13
350.627
350.229
342.507
342.837
343.261
343.711
344.158
344.581
344.96
345.27
345.49
345.605
345.605
345.49
345.27
344.96
344.581
344.158
343.711
343.261
342.837
342.507
334.785
335.05
335.396
335.764
336.13
336.476
336.786
337.039
337.22
337.314
337.314
337.22
337.039
336.786
336.476
336.13
335.764
335.396
335.05
334.785
327.063
327.266
327.534
327.82
328.105
328.374
328.615
328.812
328.952
329.026
329.026
328.952
328.812
328.615
328.374
328.105
327.82
327.534
327.266
327.063
319.34
319.484
319.675
319.879
320.083
320.275
320.447
320.588
320.688
320.74
320.74
320.688
320.588
320.447
320.275
320.083
319.879
319.675
319.484
319.34
311.617
311.703
311.818
311.94
312.062
312.178
312.281
312.366
312.426
312.457
312.457
312.426
312.366
312.281
312.178
312.062
311.94
311.818
311.703
311.617
303.894
303.923
303.961
304.002
304.043
304.082
304.117
304.145
304.165
304.176
304.176
304.165
304.145
304.117
304.082
304.043
304.002
303.961
303.923
303.894
359.826
360.264
360.804
361.37
361.929
362.456
362.925
363.307
363.579
363.72
363.72
363.579
363.307
362.925
362.456
361.929
361.37
360.804
360.264
359.826
351.852
352.223
352.689
353.179
353.664
354.121
354.527
354.858
355.093
355.216
355.216
355.093
354.858
354.527
354.121
353.664
353.179
352.689
352.223
351.852
343.879
344.186
344.579
344.993
345.404
345.79
346.134
346.414
346.613
346.717
346.717
346.613
346.414
346.134
345.79
345.404
344.993
344.579
344.186
343.879
335.906
336.153
336.474
336.813
337.148
337.465
337.746
337.975
338.138
338.222
338.222
338.138
337.975
337.746
337.465
337.148
336.813
336.474
336.153
335.906
327.934
328.124
328.372
328.636
328.897
329.143
329.362
329.54
329.666
329.732
329.732
329.666
329.54
329.362
329.143
328.897
328.636
328.372
328.124
327.934
319.962
320.096
320.274
320.462
320.648
320.824
320.98
321.108
321.198
321.245
321.245
321.198
321.108
320.98
320.824
320.648
320.462
320.274
320.096
319.962
311.991
312.071
312.177
312.29
312.402
312.508
312.602
312.678
312.732
312.761
312.761
312.732
312.678
312.602
312.508
312.402
312.29
312.177
312.071
311.991
304.019
304.046
304.082
304.12
304.157
304.193
304.224
304.25
304.268
304.277
304.277
304.268
304.25
304.224
304.193
304.157
304.12
304.082
304.046
304.019
361.888
362.294
362.793
363.313
363.824
364.303
364.727
365.071
365.315
365.442
365.442
365.315
365.071
364.727
364.303
363.824
363.313
362.793
362.294
361.888
353.637
353.98
354.411
354.861
355.304
355.72
356.087
356.385
356.596
356.706
356.706
356.596
356.385
356.087
355.72
355.304
354.861
354.411
353.98
353.637
345.387
345.672
346.035
346.416
346.791
347.142
347.453
347.705
347.884
347.977
347.977
347.884
347.705
347.453
347.142
346.791
346.416
346.035
345.672
345.387
337.139
337.368
337.664
337.976
338.282
338.57
338.824
339.031
339.177
339.253
339.253
339.177
339.031
338.824
338.57
338.282
337.976
337.664
337.368
337.139
328.892
329.068
329.298
329.54
329.779
330.002
330.2
330.361
330.475
330.534
330.534
330.475
330.361
330.2
330.002
329.779
329.54
329.298
329.068
328.892
320.646
320.771
320.935
321.108
321.278
321.438
321.579
321.694
321.776
321.818
321.818
321.776
321.694
321.579
321.438
321.278
321.108
320.935
320.771
320.646
312.401
312.476
312.574
312.678
312.78
312.876
312.961
313.03
313.079
313.104
313.104
313.079
313.03
312.961
312.876
312.78
312.678
312.574
312.476
312.401
304.157
304.182
304.215
304.25
304.284
304.316
304.345
304.368
304.384
304.393
304.393
304.384
304.368
304.345
304.316
304.284
304.25
304.215
304.182
304.157
364.138
364.514
364.973
365.449
365.915
366.348
366.73
367.04
367.258
367.371
367.371
367.258
367.04
366.73
366.348
365.915
365.449
364.973
364.514
364.138
355.584
355.901
356.298
356.71
357.114
357.49
357.821
358.089
358.278
358.376
358.376
358.278
358.089
357.821
357.49
357.114
356.71
356.298
355.901
355.584
347.032
347.296
347.63
347.979
348.32
348.638
348.919
349.146
349.306
349.389
349.389
349.306
349.146
348.919
348.638
348.32
347.979
347.63
347.296
347.032
338.484
338.696
338.968
339.253
339.533
339.793
340.023
340.208
340.339
340.407
340.407
340.339
340.208
340.023
339.793
339.533
339.253
338.968
338.696
338.484
329.937
330.1
330.311
330.533
330.751
330.953
331.132
331.276
331.378
331.431
331.431
331.378
331.276
331.132
330.953
330.751
330.533
330.311
330.1
329.937
321.393
321.508
321.658
321.817
321.972
322.117
322.245
322.348
322.421
322.459
322.459
322.421
322.348
322.245
322.117
321.972
321.817
321.658
321.508
321.393
312.85
312.918
313.009
313.104
313.197
313.284
313.361
313.423
313.467
313.489
313.489
313.467
313.423
313.361
313.284
313.197
313.104
313.009
312.918
312.85
304.307
304.33
304.36
304.392
304.424
304.453
304.479
304.499
304.514
304.522
304.522
304.514
304.499
304.479
304.453
304.424
304.392
304.36
304.33
304.307
366.574
366.92
367.341
367.776
368.199
368.591
368.935
369.212
369.407
369.508
369.508
369.407
369.212
368.935
368.591
368.199
367.776
367.341
366.92
366.574
357.69
357.983
358.347
358.724
359.09
359.43
359.728
359.969
360.138
360.225
360.225
360.138
359.969
359.728
359.43
359.09
358.724
358.347
357.983
357.69
348.812
349.055
349.361
349.68
349.99
350.278
350.53
350.734
350.877
350.951
350.951
350.877
350.734
350.53
350.278
349.99
349.68
349.361
349.055
348.812
339.938
340.133
340.383
340.644
340.898
341.134
341.34
341.506
341.623
341.684
341.684
341.623
341.506
341.34
341.134
340.898
340.644
340.383
340.133
339.938
331.067
331.217
331.411
331.614
331.812
331.995
332.156
332.285
332.376
332.423
332.423
332.376
332.285
332.156
331.995
331.812
331.614
331.411
331.217
331.067
322.2
322.306
322.444
322.589
322.73
322.861
322.976
323.068
323.134
323.167
323.167
323.134
323.068
322.976
322.861
322.73
322.589
322.444
322.306
322.2
313.334
313.397
313.48
313.567
313.652
313.731
313.8
313.855
313.894
313.915
313.915
313.894
313.855
313.8
313.731
313.652
313.567
313.48
313.397
313.334
304.47
304.491
304.518
304.548
304.576
304.602
304.626
304.644
304.657
304.664
304.664
304.657
304.644
304.626
304.602
304.576
304.548
304.518
304.491
304.47
369.184
369.503
369.889
370.286
370.669
371.023
371.331
371.579
371.753
371.843
371.843
371.753
371.579
371.331
371.023
370.669
370.286
369.889
369.503
369.184
359.947
360.217
360.55
360.893
361.226
361.533
361.8
362.016
362.166
362.244
362.244
362.166
362.016
361.8
361.533
361.226
360.893
360.55
360.217
359.947
350.717
350.941
351.222
351.512
351.794
352.054
352.28
352.462
352.59
352.656
352.656
352.59
352.462
352.28
352.054
351.794
351.512
351.222
350.941
350.717
341.494
341.673
341.903
342.14
342.371
342.584
342.769
342.918
343.023
343.077
343.077
343.023
342.918
342.769
342.584
342.371
342.14
341.903
341.673
341.494
332.276
332.414
332.591
332.776
332.956
333.121
333.266
333.382
333.463
333.505
333.505
333.463
333.382
333.266
333.121
332.956
332.776
332.591
332.414
332.276
323.062
323.16
323.286
323.419
323.547
323.665
323.768
323.851
323.909
323.939
323.939
323.909
323.851
323.768
323.665
323.547
323.419
323.286
323.16
323.062
313.852
313.91
313.986
314.065
314.142
314.213
314.275
314.325
314.36
314.378
314.378
314.36
314.325
314.275
314.213
314.142
314.065
313.986
313.91
313.852
304.643
304.662
304.688
304.715
304.74
304.764
304.785
304.802
304.813
304.819
304.819
304.813
304.802
304.785
304.764
304.74
304.715
304.688
304.662
304.643
371.943
372.236
372.59
372.951
373.298
373.617
373.895
374.117
374.272
374.352
374.352
374.272
374.117
373.895
373.617
373.298
372.951
372.59
372.236
371.943
362.327
362.575
362.88
363.193
363.495
363.772
364.012
364.205
364.34
364.409
364.409
364.34
364.205
364.012
363.772
363.495
363.193
362.88
362.575
362.327
352.723
352.929
353.186
353.451
353.706
353.941
354.145
354.308
354.422
354.48
354.48
354.422
354.308
354.145
353.941
353.706
353.451
353.186
352.929
352.723
343.13
343.295
343.505
343.722
343.931
344.123
344.29
344.423
344.516
344.565
344.565
344.516
344.423
344.29
344.123
343.931
343.722
343.505
343.295
343.13
333.545
333.672
333.835
334.003
334.166
334.315
334.445
334.549
334.622
334.659
334.659
334.622
334.549
334.445
334.315
334.166
334.003
333.835
333.672
333.545
323.967
324.057
324.173
324.293
324.41
324.517
324.609
324.684
324.736
324.762
324.762
324.736
324.684
324.609
324.517
324.41
324.293
324.173
324.057
323.967
314.394
314.448
314.518
314.59
314.66
314.724
314.78
314.824
314.856
314.872
314.872
314.856
314.824
314.78
314.724
314.66
314.59
314.518
314.448
314.394
304.825
304.843
304.866
304.89
304.914
304.935
304.954
304.969
304.979
304.985
304.985
304.979
304.969
304.954
304.935
304.914
304.89
304.866
304.843
304.825
374.779
375.048
375.372
375.702
376.017
376.306
376.555
376.755
376.894
376.965
376.965
376.894
376.755
376.555
376.306
376.017
375.702
375.372
375.048
374.779
364.763
364.991
365.271
365.557
365.831
366.081
366.298
366.471
366.591
366.653
366.653
366.591
366.471
366.298
366.081
365.831
365.557
365.271
364.991
364.763
354.768
354.957
355.193
355.435
355.667
355.879
356.063
356.209
356.312
356.364
356.364
356.312
356.209
356.063
355.879
355.667
355.435
355.193
354.957
354.768
344.791
344.943
345.136
345.334
345.524
345.698
345.848
345.968
346.052
346.095
346.095
346.052
345.968
345.848
345.698
345.524
345.334
345.136
344.943
344.791
334.83
334.947
335.096
335.25
335.398
335.534
335.651
335.744
335.81
335.843
335.843
335.81
335.744
335.651
335.534
335.398
335.25
335.096
334.947
334.83
324.881
324.964
325.071
325.181
325.286
325.383
325.467
325.534
325.581
325.605
325.605
325.581
325.534
325.467
325.383
325.286
325.181
325.071
324.964
324.881
314.942
314.991
315.055
315.121
315.185
315.243
315.293
315.334
315.362
315.376
315.376
315.362
315.334
315.293
315.243
315.185
315.121
315.055
314.991
314.942
305.008
305.025
305.046
305.068
305.089
305.109
305.126
305.139
305.149
305.154
305.154
305.149
305.139
305.126
305.109
305.089
305.068
305.046
305.025
305.008
377.51
377.759
378.058
378.36
378.649
378.912
379.139
379.319
379.444
379.509
379.509
379.444
379.319
379.139
378.912
378.649
378.36
378.058
377.759
377.51
367.08
367.291
367.549
367.812
368.063
368.292
368.489
368.646
368.755
368.811
368.811
368.755
368.646
368.489
368.292
368.063
367.812
367.549
367.291
367.08
356.692
356.867
357.085
357.308
357.521
357.715
357.882
358.015
358.108
358.155
358.155
358.108
358.015
357.882
357.715
357.521
357.308
357.085
356.867
356.692
346.34
346.481
346.659
346.842
347.016
347.175
347.313
347.422
347.498
347.537
347.537
347.498
347.422
347.313
347.175
347.016
346.842
346.659
346.481
346.34
336.019
336.127
336.266
336.408
336.544
336.668
336.775
336.86
336.919
336.949
336.949
336.919
336.86
336.775
336.668
336.544
336.408
336.266
336.127
336.019
325.722
325.799
325.898
326
326.097
326.186
326.262
326.323
326.365
326.387
326.387
326.365
326.323
326.262
326.186
326.097
326
325.898
325.799
325.722
315.444
315.489
315.549
315.61
315.668
315.722
315.768
315.804
315.83
315.843
315.843
315.83
315.804
315.768
315.722
315.668
315.61
315.549
315.489
315.444
305.176
305.191
305.211
305.231
305.251
305.269
305.284
305.297
305.305
305.309
305.309
305.305
305.297
305.284
305.269
305.251
305.231
305.211
305.191
305.176
379.654
379.889
380.17
380.453
380.724
380.969
381.18
381.347
381.463
381.523
381.523
381.463
381.347
381.18
380.969
380.724
380.453
380.17
379.889
379.654
368.831
369.03
369.273
369.521
369.756
369.97
370.154
370.3
370.402
370.454
370.454
370.402
370.3
370.154
369.97
369.756
369.521
369.273
369.03
368.831
358.1
358.266
358.472
358.682
358.883
359.065
359.221
359.346
359.432
359.476
359.476
359.432
359.346
359.221
359.065
358.883
358.682
358.472
358.266
358.1
347.446
347.58
347.749
347.921
348.086
348.235
348.364
348.466
348.537
348.574
348.574
348.537
348.466
348.364
348.235
348.086
347.921
347.749
347.58
347.446
336.852
336.955
337.086
337.221
337.349
337.466
337.566
337.646
337.702
337.73
337.73
337.702
337.646
337.566
337.466
337.349
337.221
337.086
336.955
336.852
326.304
326.377
326.47
326.567
326.659
326.742
326.814
326.872
326.911
326.932
326.932
326.911
326.872
326.814
326.742
326.659
326.567
326.47
326.377
326.304
315.787
315.831
315.887
315.945
316
316.051
316.094
316.129
316.152
316.165
316.165
316.152
316.129
316.094
316.051
316
315.945
315.887
315.831
315.787
305.29
305.305
305.323
305.343
305.361
305.378
305.393
305.404
305.412
305.417
305.417
305.412
305.404
305.393
305.378
305.361
305.343
305.323
305.305
305.29
)
;

boundaryField
{
    hotSide
    {
        type            fixedGradient;
        gradient        nonuniform List<scalar> 
400
(
519.126
520.86
524.337
529.569
536.579
545.392
556.038
568.55
582.96
599.303
617.612
637.916
660.245
684.623
711.072
739.612
770.258
803.023
837.918
874.949
528.343
530.004
533.337
538.361
545.104
553.6
563.888
576.011
590.012
605.933
623.816
643.698
665.613
689.591
715.657
743.834
774.139
806.585
841.182
877.939
538.317
539.892
543.054
547.83
554.257
562.38
572.249
583.921
597.449
612.888
630.287
649.694
671.147
694.683
720.331
748.113
778.05
810.154
844.437
880.905
548.885
550.358
553.322
557.81
563.873
571.567
580.96
592.12
605.117
620.018
636.884
655.769
676.722
699.783
724.983
752.349
781.899
813.649
847.607
883.778
559.749
561.108
563.849
568.017
573.673
580.893
589.76
600.362
612.784
627.106
643.403
661.738
682.167
704.734
729.474
756.414
785.575
816.968
850.603
886.481
570.458
571.695
574.198
578.023
583.248
589.967
598.285
608.305
620.133
633.864
649.583
667.364
687.27
709.348
733.636
760.163
788.946
819.998
853.325
888.927
580.398
581.512
583.778
587.263
592.062
598.289
606.067
615.524
626.778
639.942
655.112
672.372
691.788
713.413
737.285
763.433
791.874
822.618
855.669
891.024
588.834
589.839
591.89
595.069
599.487
605.275
612.577
621.536
632.289
644.961
659.657
676.47
695.469
716.71
740.233
766.064
794.221
824.71
857.534
892.688
595.008
595.928
597.816
600.762
604.889
610.345
617.287
625.872
636.25
648.555
662.901
679.384
698.077
719.039
742.308
767.911
795.863
826.171
858.833
893.843
598.279
599.153
600.952
603.771
607.741
613.017
619.764
628.148
638.325
650.433
664.592
680.9
699.432
720.246
743.381
768.864
796.71
826.922
859.499
894.436
598.279
599.153
600.952
603.771
607.741
613.017
619.764
628.148
638.325
650.433
664.592
680.9
699.432
720.246
743.381
768.864
796.71
826.922
859.499
894.436
595.008
595.928
597.816
600.762
604.889
610.345
617.287
625.872
636.25
648.555
662.901
679.384
698.077
719.039
742.308
767.911
795.863
826.171
858.833
893.843
588.834
589.839
591.89
595.069
599.487
605.275
612.577
621.536
632.289
644.961
659.657
676.47
695.469
716.71
740.233
766.064
794.221
824.71
857.534
892.688
580.398
581.512
583.778
587.263
592.062
598.289
606.067
615.524
626.778
639.942
655.112
672.372
691.788
713.413
737.285
763.433
791.874
822.618
855.669
891.024
570.458
571.695
574.198
578.023
583.248
589.967
598.285
608.305
620.133
633.864
649.583
667.364
687.27
709.348
733.636
760.163
788.946
819.998
853.325
888.927
559.749
561.108
563.849
568.017
573.673
580.893
589.76
600.362
612.784
627.106
643.403
661.738
682.167
704.734
729.474
756.414
785.575
816.968
850.603
886.481
548.885
550.358
553.322
557.81
563.873
571.567
580.96
592.12
605.117
620.018
636.884
655.769
676.722
699.783
724.983
752.349
781.899
813.649
847.607
883.778
538.317
539.892
543.054
547.83
554.257
562.38
572.249
583.921
597.449
612.888
630.287
649.694
671.147
694.683
720.331
748.113
778.05
810.154
844.437
880.905
528.343
530.004
533.337
538.361
545.104
553.6
563.888
576.011
590.012
605.933
623.816
643.698
665.613
689.591
715.657
743.834
774.139
806.585
841.182
877.939
519.126
520.86
524.337
529.569
536.579
545.392
556.038
568.55
582.96
599.303
617.612
637.916
660.245
684.623
711.072
739.612
770.258
803.023
837.918
874.949
)
;
    }
    coldSide
    {
        type            mixed;
        refValue        uniform 300;
        refGradient     uniform 0;
        valueFraction   uniform 0.991591;
        source          uniform 0;
        value           nonuniform List<scalar> 
400
(
300.028
300.028
300.028
300.028
300.029
300.029
300.03
300.03
300.031
300.032
300.033
300.034
300.035
300.036
300.038
300.039
300.041
300.042
300.044
300.044
300.028
300.028
300.028
300.029
300.029
300.029
300.03
300.03
300.031
300.032
300.033
300.034
300.035
300.036
300.038
300.039
300.041
300.042
300.044
300.045
300.029
300.029