/*--------------------------------*- C++ -*----------------------------------*\
| =========                 |                                                 |
| \\      /  F ield         | OpenFOAM: The Open Source CFD Toolbox           |
|  \\    /   O peration     | Version:  2212                                  |
|   \\  /    A nd           | Website:  www.openfoam.com                      |
|    \\/     M anipulation  |                                                 |
\*---------------------------------------------------------------------------*/
FoamFile
{
    version     2.0;
    format      ascii;
    arch        "LSB;label=32;scalar=64";
    class       volScalarField;
    location    "0";
    object      T;
}
// * * * * * * * * * * * * * * * * * * * * * * * * * * * * * * * * * * * * * //

dimensions      [0 0 0 1 0 0 0];

internalField   nonuniform List<scalar> 
3200
(
324.608
324.035
323.509
323.215
323.425
323.682
323.715
324.21
324.453
324.72
324.64
324.434
324.175
323.861
323.304
322.89
322.691
322.698
323.326
323.957
321.592
321.148
320.693
320.413
320.613
320.814
320.85
321.295
321.484
321.719
321.664
321.48
321.286
321.011
320.5
320.125
320.003
320.003
320.58
321.116
318.488
318.136
317.741
317.494
317.66
317.824
317.87
318.234
318.381
318.582
318.56
318.41
318.233
318.013
317.568
317.227
317.182
317.165
317.676
318.124
315.277
315.01
314.689
314.458
314.584
314.716
314.757
315.041
315.158
315.364
315.35
315.217
315.081
314.899
314.503
314.253
314.246
314.208
314.64
314.992
311.984
311.768
311.527
311.327
311.44
311.526
311.561
311.773
311.848
312.062
312.042
311.946
311.835
311.669
311.368
311.156
311.208
311.165
311.496
311.768
308.606
308.451
308.284
308.128
308.256
308.277
308.3
308.453
308.482
308.669
308.655
308.581
308.497
308.381
308.168
308.009
308.056
308.043
308.285
308.473
305.194
305.08
304.999
304.884
304.992
304.997
304.999
305.083
305.099
305.244
305.221
305.17
305.127
305.055
304.932
304.833
304.852
304.851
304.997
305.12
301.746
301.706
301.67
301.629
301.682
301.681
301.676
301.706
301.7
301.764
301.762
301.74
301.718
301.704
301.659
301.62
301.632
301.628
301.673
301.72
325.065
324.334
323.811
323.465
323.611
323.878
324.168
324.573
324.905
325.031
325.089
324.891
324.54
324.225
323.675
323.123
322.866
322.842
323.485
323.974
322.007
321.415
320.971
320.647
320.782
320.98
321.248
321.584
321.897
321.964
322.043
321.883
321.564
321.312
320.843
320.329
320.126
320.13
320.685
321.114
318.806
318.339
317.962
317.699
317.815
317.971
318.192
318.473
318.73
318.782
318.87
318.742
318.469
318.241
317.842
317.391
317.268
317.264
317.748
318.105
315.509
315.161
314.863
314.636
314.734
314.843
315.034
315.25
315.48
315.517
315.606
315.478
315.256
315.074
314.746
314.357
314.277
314.316
314.686
314.974
312.129
311.879
311.668
311.512
311.553
311.638
311.77
311.941
312.152
312.17
312.268
312.121
311.982
311.824
311.57
311.248
311.208
311.249
311.539
311.752
308.696
308.518
308.377
308.284
308.275
308.355
308.435
308.576
308.729
308.749
308.823
308.72
308.633
308.507
308.324
308.066
308.056
308.08
308.301
308.461
305.234
305.126
305.05
305.016
304.986
305.038
305.084
305.179
305.274
305.276
305.311
305.239
305.21
305.13
304.998
304.86
304.853
304.872
305.009
305.112
301.75
301.726
301.708
301.68
301.667
301.692
301.701
301.743
301.774
301.767
301.78
301.761
301.753
301.73
301.667
301.637
301.634
301.639
301.69
301.713
325.508
324.628
324.303
323.979
324.061
324.314
324.777
325.038
325.592
325.615
325.694
325.51
325.169
324.757
324.146
323.703
323.23
323.196
323.688
324.279
322.419
321.68
321.401
321.095
321.13
321.376
321.771
321.999
322.472
322.489
322.553
322.395
322.097
321.75
321.235
320.858
320.437
320.439
320.885
321.37
319.182
318.587
318.356
318.076
318.088
318.311
318.648
318.836
319.235
319.248
319.311
319.154
318.914
318.645
318.171
317.864
317.512
317.551
317.92
318.295
315.847
315.369
315.173
314.927
314.94
315.118
315.423
315.576
315.887
315.888
315.943
315.806
315.623
315.435
315.021
314.752
314.478
314.535
314.836
315.118
312.405
312.059
311.908
311.691
311.694
311.86
312.109
312.233
312.447
312.432
312.486
312.405
312.256
312.081
311.78
311.559
311.367
311.394
311.653
311.862
308.901
308.661
308.573
308.386
308.398
308.521
308.699
308.793
308.945
308.905
308.972
308.932
308.808
308.674
308.464
308.291
308.184
308.18
308.401
308.531
305.355
305.22
305.171
305.057
305.054
305.14
305.252
305.297
305.39
305.362
305.418
305.399
305.303
305.223
305.098
304.993
304.923
304.934
305.066
305.164
301.796
301.751
301.735
301.688
301.679
301.732
301.774
301.78
301.82
301.799
301.82
301.821
301.783
301.751
301.705
301.671
301.645
301.658
301.696
301.745
326.116
325.42
324.833
324.684
324.645
324.998
325.507
325.779
326.315
326.412
326.433
326.304
325.952
325.44
324.794
324.27
323.809
323.77
324.223
324.621
322.94
322.351
321.834
321.702
321.659
321.969
322.397
322.657
323.128
323.174
323.196
323.084
322.79
322.344
321.809
321.356
320.957
320.934
321.311
321.651
319.624
319.129
318.724
318.586
318.551
318.826
319.16
319.429
319.792
319.815
319.833
319.744
319.509
319.146
318.675
318.343
317.979
317.949
318.266
318.547
316.195
315.806
315.457
315.34
315.336
315.571
315.843
316.065
316.356
316.342
316.369
316.294
316.098
315.84
315.427
315.197
314.875
314.871
315.081
315.35
312.659
312.376
312.118
312.037
312.034
312.212
312.43
312.606
312.835
312.778
312.839
312.75
312.598
312.405
312.1
311.931
311.663
311.678
311.841
312.028
309.086
308.891
308.696
308.632
308.663
308.76
308.923
309.063
309.235
309.182
309.24
309.152
309.044
308.897
308.698
308.583
308.394
308.396
308.547
308.636
305.468
305.358
305.245
305.205
305.242
305.267
305.373
305.454
305.571
305.547
305.561
305.523
305.455
305.368
305.246
305.181
305.062
305.041
305.171
305.195
301.841
301.795
301.763
301.742
301.756
301.767
301.802
301.841
301.861
301.859
301.867
301.853
301.824
301.806
301.765
301.745
301.706
301.69
301.737
301.751
326.87
326.111
325.583
325.442
325.528
325.821
326.229
326.773
327.206
327.433
327.41
327.09
326.752
326.21
325.524
325.085
324.618
324.522
324.906
325.351
323.617
322.942
322.513
322.361
322.437
322.681
323.022
323.504
323.872
324.09
324.077
323.763
323.511
323.021
322.416
322.072
321.672
321.568
321.939
322.313
320.204
319.644
319.306
319.132
319.223
319.408
319.698
320.111
320.4
320.604
320.594
320.324
320.144
319.689
319.18
318.899
318.573
318.479
318.815
319.111
316.694
316.239
315.945
315.796
315.881
316.021
316.275
316.627
316.835
317.007
317.016
316.776
316.635
316.258
315.829
315.612
315.353
315.28
315.574
315.788
313.066
312.742
312.496
312.388
312.451
312.55
312.745
313.02
313.183
313.32
313.357
313.154
313.025
312.711
312.398
312.256
312.033
311.982
312.21
312.375
309.37
309.177
308.978
308.905
308.949
309.015
309.153
309.348
309.465
309.553
309.618
309.446
309.361
309.119
308.92
308.823
308.644
308.621
308.784
308.903
305.657
305.525
305.421
305.373
305.387
305.432
305.505
305.626
305.709
305.763
305.813
305.7
305.642
305.497
305.37
305.329
305.211
305.197
305.319
305.382
301.902
301.858
301.812
301.806
301.802
301.818
301.84
301.881
301.924
301.936
301.957
301.924
301.899
301.847
301.803
301.781
301.747
301.739
301.786
301.817
327.675
327.044
326.644
326.418
326.346
326.751
327.053
327.557
328.002
328.343
328.358
327.961
327.614
327.106
326.451
325.971
325.465
325.449
325.756
326.077
324.286
323.756
323.422
323.198
323.139
323.493
323.753
324.206
324.576
324.898
324.896
324.527
324.246
323.841
323.243
322.813
322.418
322.403
322.667
322.934
320.775
320.325
320.063
319.856
319.809
320.105
320.332
320.729
321.017
321.298
321.284
320.963
320.728
320.42
319.885
319.525
319.208
319.2
319.427
319.641
317.149
316.778
316.573
316.385
316.346
316.594
316.796
317.11
317.357
317.595
317.564
317.298
317.101
316.859
316.43
316.14
315.873
315.858
316.057
316.238
313.43
313.135
312.98
312.808
312.804
312.999
313.133
313.409
313.605
313.796
313.747
313.534
313.393
313.202
312.872
312.652
312.441
312.441
312.591
312.724
309.635
309.423
309.316
309.174
309.201
309.359
309.437
309.645
309.773
309.918
309.874
309.697
309.6
309.47
309.244
309.109
308.953
308.976
309.042
309.143
305.789
305.656
305.612
305.529
305.549
305.637
305.682
305.812
305.893
305.995
305.958
305.83
305.775
305.707
305.573
305.499
305.396
305.421
305.446
305.504
301.935
301.9
301.881
301.859
301.856
301.883
301.91
301.957
301.976
302.023
301.998
301.958
301.942
301.914
301.869
301.847
301.815
301.822
301.832
301.86
328.568
327.989
327.628
327.309
327.34
327.727
328.036
328.521
328.868
329.258
329.192
328.971
328.561
328.004
327.466
326.832
326.402
326.294
326.636
327.037
325.076
324.57
324.279
323.984
324.005
324.344
324.622
325.048
325.334
325.691
325.633
325.418
325.089
324.583
324.123
323.598
323.227
323.147
323.435
323.764
321.444
321.022
320.77
320.515
320.524
320.83
321.066
321.455
321.667
321.982
321.946
321.724
321.464
321.037
320.649
320.206
319.907
319.839
320.061
320.354
317.72
317.37
317.146
316.93
316.93
317.212
317.392
317.716
317.891
318.143
318.105
317.911
317.727
317.385
317.07
316.682
316.467
316.399
316.58
316.82
313.902
313.608
313.448
313.249
313.285
313.491
313.619
313.867
314.025
314.208
314.183
314.01
313.875
313.634
313.368
313.071
312.937
312.853
313.031
313.191
310.015
309.785
309.669
309.52
309.554
309.672
309.767
309.955
310.089
310.2
310.186
310.039
309.955
309.808
309.603
309.396
309.308
309.248
309.382
309.487
306.034
305.889
305.823
305.752
305.738
305.819
305.877
306.017
306.067
306.144
306.139
306.049
306.003
305.907
305.783
305.675
305.602
305.575
305.662
305.719
302.03
301.977
301.962
301.932
301.921
301.954
301.973
302.017
302.029
302.056
302.056
302.026
302.023
301.979
301.95
301.916
301.872
301.865
301.902
301.921
329.926
329.088
328.651
328.335
328.402
328.769
329.158
329.499
329.867
330.217
330.168
329.966
329.558
328.975
328.377
327.751
327.38
327.244
327.559
327.909
326.267
325.553
325.175
324.9
324.948
325.248
325.613
325.896
326.221
326.524
326.475
326.28
325.944
325.444
324.911
324.396
324.081
323.974
324.262
324.549
322.447
321.862
321.547
321.321
321.351
321.592
321.911
322.176
322.441
322.666
322.645
322.46
322.187
321.757
321.314
320.869
320.622
320.553
320.766
321.045
318.5
318.05
317.795
317.61
317.624
317.837
318.1
318.31
318.522
318.695
318.687
318.525
318.306
317.926
317.614
317.227
317.033
317.003
317.178
317.392
314.478
314.14
313.934
313.8
313.801
313.987
314.183
314.347
314.495
314.619
314.631
314.494
314.328
314.04
313.79
313.508
313.365
313.357
313.479
313.653
310.402
310.171
310.003
309.926
309.912
310.064
310.189
310.312
310.405
310.48
310.521
310.397
310.294
310.071
309.904
309.717
309.63
309.619
309.672
309.813
306.273
306.142
306.026
305.981
305.968
306.073
306.133
306.237
306.273
306.329
306.343
306.256
306.212
306.067
305.97
305.871
305.813
305.8
305.83
305.911
302.1
302.063
302.018
302.008
301.991
302.046
302.047
302.099
302.109
302.132
302.135
302.1
302.081
302.031
302.007
301.965
301.956
301.952
301.965
301.986
331.035
330.184
329.84
329.612
329.636
329.817
330.269
330.625
331.024
331.195
331.25
330.995
330.678
330.083
329.27
328.637
328.398
328.299
328.529
328.924
327.248
326.501
326.191
325.997
326.014
326.166
326.565
326.88
327.233
327.378
327.408
327.185
326.934
326.401
325.721
325.169
324.964
324.903
325.124
325.435
323.292
322.671
322.397
322.215
322.245
322.374
322.722
322.971
323.279
323.411
323.44
323.252
323.022
322.541
322.046
321.541
321.36
321.346
321.548
321.775
319.214
318.727
318.482
318.326
318.363
318.472
318.76
318.958
319.211
319.319
319.337
319.22
318.984
318.586
318.226
317.782
317.642
317.639
317.821
317.978
315.044
314.688
314.476
314.337
314.373
314.472
314.696
314.872
315.052
315.126
315.132
315.055
314.869
314.547
314.284
313.951
313.812
313.826
313.987
314.071
310.811
310.563
310.401
310.271
310.325
310.413
310.556
310.68
310.807
310.865
310.863
310.811
310.661
310.459
310.254
310.03
309.904
309.928
310.06
310.087
306.525
306.372
306.272
306.192
306.217
306.28
306.377
306.428
306.503
306.55
306.541
306.529
306.434
306.316
306.191
306.057
305.962
305.983
306.074
306.085
302.191
302.139
302.1
302.076
302.099
302.111
302.151
302.154
302.185
302.197
302.196
302.192
302.166
302.12
302.081
302.027
302.003
302.001
302.043
302.04
332.163
331.443
331.039
330.844
330.739
330.995
331.312
331.65
331.987
332.294
332.244
332.019
331.753
330.936
330.314
329.728
329.584
329.382
329.604
330.053
328.229
327.614
327.245
327.058
326.99
327.189
327.477
327.786
328.033
328.349
328.292
328.095
327.891
327.157
326.636
326.128
326.007
325.857
326.034
326.426
324.145
323.598
323.308
323.145
323.096
323.25
323.512
323.755
323.932
324.244
324.197
324.03
323.877
323.229
322.774
322.374
322.248
322.156
322.307
322.637
319.925
319.467
319.244
319.096
319.054
319.18
319.416
319.582
319.726
320
319.972
319.813
319.733
319.168
318.806
318.489
318.389
318.321
318.421
318.716
315.613
315.253
315.07
314.948
314.899
315.024
315.207
315.314
315.468
315.656
315.63
315.492
315.453
315.011
314.743
314.495
314.398
314.356
314.436
314.675
311.24
310.944
310.82
310.721
310.673
310.783
310.923
310.972
311.114
311.236
311.203
311.127
311.107
310.783
310.614
310.414
310.321
310.31
310.356
310.549
306.78
306.599
306.52
306.46
306.418
306.491
306.568
306.601
306.692
306.766
306.747
306.709
306.691
306.5
306.417
306.287
306.211
306.207
306.232
306.366
302.277
302.229
302.186
302.163
302.159
302.176
302.205
302.213
302.246
302.272
302.255
302.256
302.244
302.183
302.149
302.114
302.091
302.079
302.085
302.127
333.377
332.769
332.323
332.104
331.902
332.036
332.38
332.607
332.862
333.197
333.165
332.97
332.674
331.864
331.353
330.801
330.712
330.418
330.695
331.056
329.267
328.755
328.376
328.196
328.006
328.095
328.408
328.616
328.81
329.111
329.093
328.922
328.666
327.971
327.552
327.064
327.013
326.78
327.009
327.326
325.026
324.6
324.276
324.106
323.951
324.015
324.299
324.464
324.604
324.876
324.864
324.712
324.512
323.931
323.57
323.175
323.121
322.965
323.111
323.411
320.652
320.299
320.032
319.872
319.769
319.791
320.047
320.166
320.275
320.525
320.519
320.391
320.224
319.755
319.459
319.151
319.083
319.008
319.112
319.349
316.152
315.868
315.7
315.553
315.467
315.485
315.701
315.776
315.862
316.075
316.063
315.955
315.832
315.492
315.259
315.008
314.955
314.903
314.975
315.179
311.6
311.375
311.265
311.162
311.105
311.114
311.264
311.335
311.384
311.54
311.542
311.444
311.37
311.144
310.991
310.778
310.757
310.704
310.758
310.932
306.987
306.839
306.796
306.724
306.688
306.699
306.782
306.85
306.845
306.955
306.951
306.891
306.856
306.745
306.643
306.506
306.496
306.447
306.484
306.595
302.341
302.296
302.278
302.255
302.24
302.249
302.273
302.3
302.298
302.337
302.339
302.316
302.307
302.268
302.238
302.187
302.187
302.161
302.188
302.211
334.731
334.129
333.611
333.27
333.16
333.194
333.422
333.77
333.762
334.099
334.009
333.87
333.595
332.936
332.354
331.956
331.706
331.531
331.743
332.213
330.481
329.981
329.527
329.21
329.12
329.143
329.337
329.638
329.616
329.923
329.859
329.718
329.479
328.921
328.409
328.078
327.9
327.74
327.938
328.35
326.065
325.638
325.267
324.982
324.919
324.907
325.106
325.336
325.336
325.601
325.537
325.411
325.196
324.723
324.321
324.028
323.919
323.759
323.93
324.31
321.514
321.155
320.874
320.606
320.544
320.531
320.729
320.887
320.925
321.14
321.088
320.973
320.774
320.406
320.103
319.842
319.757
319.634
319.768
320.109
316.842
316.57
316.349
316.123
316.058
316.06
316.237
316.362
316.39
316.558
316.493
316.41
316.26
315.994
315.764
315.563
315.476
315.393
315.494
315.776
312.069
311.893
311.718
311.559
311.493
311.502
311.664
311.755
311.766
311.909
311.827
311.761
311.663
311.488
311.316
311.189
311.117
311.063
311.116
311.352
307.279
307.165
307.075
306.975
306.927
306.91
307.042
307.092
307.093
307.186
307.138
307.077
307.03
306.913
306.797
306.763
306.693
306.665
306.678
306.84
302.448
302.403
302.381
302.338
302.327
302.315
302.378
302.383
302.387
302.421
302.41
302.377
302.36
302.313
302.263
302.278
302.258
302.238
302.243
302.296
336.095
335.461
334.942
334.54
334.259
334.382
334.549
334.852
334.874
334.959
334.926
334.777
334.401
333.864
333.329
332.989
332.856
332.683
332.714
333.08
331.672
331.142
330.675
330.33
330.059
330.16
330.295
330.572
330.601
330.647
330.651
330.52
330.185
329.727
329.273
328.993
328.885
328.734
328.769
329.099
327.059
326.663
326.212
325.939
325.697
325.808
325.911
326.126
326.152
326.171
326.209
326.099
325.848
325.45
325.064
324.829
324.752
324.6
324.636
324.961
322.34
322.034
321.657
321.441
321.206
321.316
321.386
321.533
321.582
321.588
321.628
321.536
321.342
321.02
320.699
320.497
320.437
320.317
320.345
320.632
317.496
317.293
316.981
316.817
316.611
316.699
316.749
316.863
316.886
316.889
316.934
316.866
316.731
316.466
316.232
316.053
316.012
315.92
315.929
316.165
312.556
312.442
312.202
312.075
311.939
311.995
312.036
312.104
312.118
312.113
312.158
312.1
312.028
311.814
311.666
311.538
311.502
311.44
311.453
311.621
307.555
307.511
307.351
307.259
307.191
307.236
307.257
307.295
307.301
307.304
307.34
307.286
307.248
307.116
307.034
306.962
306.939
306.9
306.907
307.004
302.537
302.52
302.469
302.441
302.41
302.423
302.435
302.448
302.449
302.452
302.452
302.446
302.433
302.391
302.369
302.341
302.332
302.326
302.326
302.359
337.247
336.702
336.225
335.776
335.444
335.529
335.662
335.705
335.783
335.9
335.808
335.658
335.294
334.79
334.428
333.92
333.763
333.755
333.814
334.121
332.694
332.2
331.805
331.388
331.068
331.147
331.27
331.325
331.374
331.518
331.41
331.3
330.965
330.559
330.236
329.816
329.682
329.702
329.76
330.015
327.982
327.534
327.197
326.857
326.549
326.613
326.727
326.781
326.803
326.95
326.84
326.784
326.487
326.123
325.872
325.524
325.413
325.45
325.503
325.711
323.099
322.729
322.455
322.188
321.891
321.954
322.043
322.113
322.099
322.226
322.148
322.122
321.879
321.577
321.341
321.09
320.995
321.021
321.081
321.241
318.094
317.821
317.577
317.381
317.157
317.184
317.273
317.324
317.298
317.398
317.366
317.315
317.144
316.925
316.717
316.545
316.456
316.451
316.516
316.65
312.994
312.791
312.62
312.479
312.335
312.334
312.421
312.456
312.409
312.494
312.494
312.429
312.333
312.182
312.015
311.894
311.851
311.812
311.852
311.954
307.822
307.708
307.583
307.509
307.431
307.428
307.498
307.514
307.479
307.524
307.538
307.493
307.445
307.348
307.249
307.168
307.172
307.121
307.137
307.194
302.617
302.585
302.546
302.514
302.489
302.496
302.523
302.51
302.513
302.522
302.538
302.519
302.505
302.471
302.443
302.404
302.423
302.392
302.389
302.417
338.399
337.972
337.451
336.959
336.685
336.768
336.622
336.689
336.72
336.822
336.637
336.541
336.201
335.718
335.305
334.988
334.775
334.905
334.983
335.216
333.691
333.346
332.863
332.435
332.198
332.248
332.121
332.176
332.192
332.304
332.146
332.077
331.802
331.357
331.005
330.753
330.557
330.685
330.753
330.978
328.827
328.535
328.097
327.737
327.53
327.559
327.477
327.503
327.519
327.618
327.502
327.44
327.23
326.816
326.529
326.319
326.15
326.262
326.335
326.528
323.802
323.549
323.172
322.899
322.721
322.746
322.682
322.692
322.706
322.796
322.71
322.656
322.493
322.135
321.889
321.742
321.604
321.672
321.774
321.884
318.633
318.444
318.135
317.947
317.807
317.817
317.77
317.781
317.784
317.853
317.806
317.762
317.63
317.352
317.167
317.055
316.932
316.981
317.084
317.139
313.373
313.236
313.035
312.909
312.786
312.797
312.741
312.786
312.77
312.828
312.79
312.759
312.667
312.48
312.332
312.281
312.174
312.188
312.287
312.31
308.059
307.986
307.856
307.784
307.703
307.734
307.668
307.707
307.704
307.751
307.722
307.683
307.63
307.516
307.447
307.408
307.36
307.34
307.415
307.413
302.702
302.687
302.646
302.615
302.586
302.599
302.572
302.582
302.589
302.62
302.59
302.578
302.554
302.527
302.499
302.488
302.478
302.47
302.482
302.487
339.644
339.097
338.667
338.267
338.043
337.903
337.736
337.72
337.75
337.671
337.559
337.402
337.013
336.684
336.165
335.934
335.854
335.938
336.069
336.291
334.771
334.333
333.935
333.568
333.382
333.252
333.118
333.087
333.142
333.04
332.967
332.848
332.499
332.228
331.761
331.584
331.522
331.605
331.739
331.891
329.7
329.373
329.03
328.676
328.542
328.42
328.341
328.27
328.338
328.244
328.179
328.099
327.801
327.578
327.157
327.023
326.986
327.071
327.203
327.306
324.5
324.273
323.955
323.664
323.561
323.464
323.415
323.31
323.358
323.3
323.236
323.195
322.96
322.76
322.403
322.342
322.296
322.372
322.495
322.584
319.179
319.037
318.769
318.527
318.437
318.379
318.344
318.255
318.304
318.249
318.19
318.165
318.001
317.809
317.541
317.546
317.456
317.518
317.657
317.725
313.776
313.68
313.492
313.305
313.219
313.188
313.193
313.1
313.154
313.117
313.056
313.04
312.935
312.779
312.595
312.616
312.538
312.582
312.695
312.728
308.301
308.247
308.143
308.019
307.966
307.933
307.952
307.899
307.93
307.92
307.871
307.873
307.804
307.699
307.593
307.58
307.547
307.589
307.644
307.67
302.792
302.774
302.744
302.693
302.679
302.657
302.667
302.647
302.655
302.653
302.648
302.662
302.621
302.593
302.538
302.542
302.533
302.543
302.563
302.57
340.757
340.381
339.908
339.527
339.169
338.948
338.77
338.697
338.732
338.605
338.472
338.195
337.857
337.629
337.195
337.013
336.834
336.926
337.028
337.366
335.758
335.439
335.028
334.668
334.384
334.177
334.018
333.955
333.986
333.884
333.763
333.543
333.245
333.048
332.665
332.56
332.402
332.472
332.544
332.867
330.59
330.295
329.957
329.633
329.411
329.215
329.115
329.031
329.053
328.963
328.883
328.692
328.445
328.285
327.937
327.883
327.764
327.806
327.876
328.137
325.248
325.014
324.723
324.468
324.284
324.101
324.031
323.946
323.975
323.903
323.824
323.697
323.487
323.376
323.054
323.046
322.94
322.969
323.051
323.256
319.776
319.592
319.359
319.159
319.037
318.882
318.804
318.747
318.789
318.718
318.662
318.571
318.392
318.333
318.051
318.071
317.969
317.981
318.08
318.224
314.194
314.086
313.889
313.753
313.683
313.575
313.476
313.449
313.497
313.441
313.392
313.347
313.207
313.153
312.969
312.979
312.907
312.91
313.022
313.092
308.554
308.486
308.356
308.298
308.248
308.199
308.106
308.112
308.129
308.107
308.068
308.047
307.959
307.927
307.814
307.827
307.777
307.77
307.861
307.885
302.875
302.849
302.811
302.785
302.782
302.761
302.719
302.72
302.726
302.737
302.702
302.707
302.674
302.668
302.626
302.617
302.598
302.601
302.643
302.654
342.006
341.531
341.088
340.649
340.297
339.897
339.715
339.75
339.624
339.517
339.415
338.997
338.746
338.507
338.223
337.929
337.799
337.917
338.107
338.434
336.826
336.425
336.039
335.68
335.377
335.001
334.837
334.87
334.774
334.686
334.602
334.22
334.011
333.822
333.579
333.335
333.223
333.342
333.504
333.771
331.46
331.115
330.814
330.523
330.263
329.929
329.765
329.801
329.744
329.666
329.574
329.275
329.09
328.942
328.725
328.566
328.465
328.565
328.692
328.919
325.946
325.651
325.429
325.206
324.989
324.704
324.568
324.585
324.546
324.501
324.409
324.176
324.016
323.896
323.723
323.615
323.521
323.606
323.728
323.899
320.308
320.064
319.924
319.749
319.576
319.337
319.221
319.237
319.206
319.21
319.118
318.945
318.831
318.729
318.573
318.53
318.45
318.519
318.589
318.738
314.578
314.395
314.317
314.182
314.056
313.874
313.794
313.817
313.783
313.801
313.722
313.613
313.548
313.468
313.341
313.303
313.266
313.319
313.343
313.467
308.798
308.678
308.629
308.546
308.462
308.366
308.294
308.321
308.299
308.326
308.264
308.215
308.164
308.134
308.038
308.017
307.999
308.031
308.031
308.113
302.959
302.9
302.905
302.874
302.827
302.808
302.768
302.799
302.784
302.801
302.771
302.757
302.74
302.737
302.699
302.698
302.684
302.688
302.69
302.721
343.135
342.55
342.16
341.73
341.23
340.763
340.621
340.495
340.484
340.251
340.135
339.848
339.545
339.241
338.957
338.889
338.742
338.796
339.035
339.379
337.819
337.303
336.977
336.596
336.159
335.757
335.636
335.497
335.501
335.305
335.208
334.956
334.721
334.437
334.201
334.144
334.047
334.091
334.3
334.634
332.294
331.882
331.601
331.287
330.893
330.562
330.47
330.338
330.32
330.183
330.082
329.891
329.7
329.432
329.255
329.186
329.165
329.166
329.357
329.672
326.616
326.314
326.067
325.806
325.463
325.176
325.16
325.032
325.01
324.887
324.814
324.662
324.502
324.297
324.15
324.079
324.11
324.063
324.251
324.532
320.805
320.591
320.399
320.228
319.926
319.703
319.714
319.6
319.582
319.495
319.416
319.308
319.188
319.018
318.915
318.864
318.909
318.827
319.007
319.248
314.913
314.772
314.625
314.552
314.297
314.148
314.136
314.089
314.065
314.02
313.93
313.864
313.787
313.652
313.58
313.551
313.603
313.519
313.636
313.835
308.985
308.908
308.812
308.77
308.611
308.525
308.525
308.51
308.485
308.455
308.39
308.364
308.314
308.211
308.166
308.173
308.213
308.143
308.225
308.337
303.013
302.986
302.958
302.94
302.887
302.858
302.866
302.86
302.847
302.836
302.809
302.8
302.799
302.757
302.736
302.751
302.771
302.741
302.767
302.792
343.807
343.235
342.884
342.399
341.943
341.578
341.318
341.036
340.953
340.843
340.663
340.403
340.206
339.885
339.628
339.434
339.446
339.506
339.682
339.942
338.392
337.89
337.601
337.178
336.742
336.427
336.236
335.956
335.877
335.768
335.641
335.452
335.263
334.99
334.798
334.604
334.631
334.703
334.853
335.079
332.801
332.38
332.139
331.783
331.363
331.091
330.961
330.697
330.638
330.552
330.434
330.33
330.132
329.909
329.763
329.571
329.623
329.706
329.811
330.006
327.034
326.731
326.512
326.219
325.83
325.622
325.564
325.297
325.253
325.174
325.101
325.047
324.834
324.688
324.541
324.381
324.443
324.545
324.603
324.771
321.163
320.937
320.746
320.518
320.208
320.053
320.01
319.783
319.771
319.673
319.652
319.606
319.41
319.322
319.211
319.06
319.17
319.229
319.229
319.408
315.212
315.041
314.886
314.732
314.519
314.39
314.359
314.2
314.185
314.105
314.099
314.073
313.917
313.876
313.796
313.686
313.805
313.805
313.801
313.946
309.173
309.074
308.957
308.866
308.756
308.683
308.639
308.558
308.55
308.496
308.498
308.494
308.367
308.363
308.317
308.265
308.315
308.294
308.312
308.412
303.084
303.045
303.001
302.983
302.95
302.921
302.896
302.868
302.874
302.859
302.854
302.857
302.81
302.813
302.795
302.776
302.79
302.784
302.782
302.823
)
;

boundaryField
{
    hotSide
    {
        type            fixedGradient;
        gradient        nonuniform List<scalar> 
400
(
229.051
231.409
235.558
241.454
248.918
257.696
267.51
278.109
289.277
300.844
312.676
324.668
336.735
348.807
360.825
372.733
384.482
396.029
407.348
418.432
218.234
220.719
225.123
231.39
239.307
248.573
258.871
269.924
281.504
293.433
305.576
317.831
330.116
342.367
354.528
366.547
378.374
389.968
401.302
412.372
211.992
214.75
219.403
225.89
233.999
243.432
253.876
265.05
276.724
288.718
300.897
313.156
325.416
337.616
349.703
361.63
373.355
384.841
396.067
407.033
210.034
213.198
218.102
224.684
232.764
242.085
252.371
263.363
274.839
286.621
298.571
310.584
322.581
334.502
346.3
357.937
369.38
380.606
391.603
402.375
211.171
214.809
219.987
226.639
234.618
243.715
253.7
264.342
275.439
286.818
298.345
309.915
321.454
332.908
344.239
355.422
366.437
377.274
387.932
398.423
214.062
218.19
223.676
230.449
238.38
247.293
256.988
267.262
277.928
288.823
299.821
310.825
321.774
332.626
343.36
353.966
364.443
374.794
385.029
395.161
217.622
222.229
228.058
235.032
243.023
251.868
261.38
271.366
281.646
292.064
302.503
312.885
323.166
333.331
343.383
353.334
363.202
373.005
382.759
392.484
221.047
226.099
232.29
239.531
247.692
256.605
266.076
275.904
285.898
295.902
305.806
315.555
325.138
334.576
343.905
353.168
362.4
371.634
380.894
390.2
223.725
229.153
235.682
243.217
251.62
260.708
270.269
280.073
289.9
299.579
309.005
318.152
327.054
335.779
344.407
353.007
361.639
370.342
379.147
388.07
225.184
230.867
237.647
245.426
254.06
263.354
273.067
282.934
292.694
302.146
311.186
319.821
328.137
336.253
344.29
352.345
360.49
368.773
377.222
385.855
225.1
230.858
237.725
245.605
254.35
263.755
273.563
283.478
293.207
302.523
311.322
319.634
327.581
335.32
342.998
350.727
358.588
366.631
374.886
383.366
223.347
228.962
235.704
243.475
252.125
261.448
271.182
281.031
290.7
299.962
308.713
316.979
324.883
332.58
340.217
347.911
355.745
363.772
372.026
380.521
220.042
225.301
231.711
239.175
247.54
256.603
266.111
275.79
285.376
294.663
303.546
312.028
320.192
328.16
336.057
343.99
352.04
360.266
368.703
377.373
215.561
220.296
226.231
233.27
241.261
250.003
259.256
268.771
278.316
287.708
296.84
305.684
314.277
322.697
331.036
339.383
347.814
356.388
365.146
374.115
210.524
214.63
220.027
226.624
234.265
242.745
251.826
261.269
270.86
280.425
289.854
299.094
308.15
317.06
325.889
334.706
343.579
352.567
361.715
371.051
205.804
209.236
214.096
220.301
227.683
236.013
245.038
254.511
264.218
273.988
283.705
293.305
302.768
312.112
321.379
330.626
339.916
349.306
358.844
368.561
202.556
205.325
209.689
215.568
222.77
231.028
240.058
249.595
259.419
269.359
279.297
289.163
298.928
308.596
318.197
327.78
337.405
347.132
357.009
367.068
202.172
204.361
208.278
213.848
220.852
228.992
237.955
247.465
257.299
267.288
277.316
287.312
297.242
307.101
316.913
326.72
336.579
346.55
356.683
367.007
205.888
207.654
211.166
216.357
223.013
230.835
239.515
248.782
258.419
268.264
278.203
288.164
298.108
308.023
317.926
327.85
337.845
347.965
358.255
368.739
214.08
215.596
218.741
223.459
229.574
236.835
244.974
253.748
262.958
272.45
282.112
291.87
301.678
311.52
321.4
331.341
341.377
351.551
361.894
372.423
)
;
    }
    coldSide
    {
        type            mixed;
        refValue        uniform 300;
        refGradient     uniform 0;
        valueFraction   uniform 0.991591;
        source          uniform 0;
        value           nonuniform List<scalar> 
400
(
300.015
300.015
300.015
300.015
300.016
300.016
300.017
300.018
300.018
300.019
300.02
300.021
300.021
300.022
300.023
300.023
300.024
300.025
300.025
300.026
300.014
300.015
300.015
300.015
300.016
300.016
300.017
300.017
300.018
300.019
300.019
300.02
300.021
300.022
300.023
300.023
300.024
300.024
300.025
300.026
300.014
300.014
300.015