/*--------------------------------*- C++ -*----------------------------------*\
| =========                 |                                                 |
| \\      /  F ield         | OpenFOAM: The Open Source CFD Toolbox           |
|  \\    /   O peration     | Version:  2212                                  |
|   \\  /    A nd           | Website:  www.openfoam.com                      |
|    \\/     M anipulation  |                                                 |
\*---------------------------------------------------------------------------*/
FoamFile
{
    version     2.0;
    format      ascii;
    arch        "LSB;label=32;scalar=64";
    class       volScalarField;
    location    "0";
    object      Ttrue;
}
// * * * * * * * * * * * * * * * * * * * * * * * * * * * * * * * * * * * * * //

dimensions      [0 0 0 1 0 0 0];

internalField   nonuniform List<scalar> 
3200
(
344.488
345.007
345.669
346.391
347.135
347.865
348.538
349.107
349.522
349.74
349.74
349.522
349.107
348.538
347.865
347.135
346.391
345.669
345.007
344.488
338.651
339.09
339.662
340.286
340.93
341.561
342.144
342.635
342.993
343.182
343.182
342.993
342.635
342.144
341.561
340.93
340.286
339.662
339.09
338.651
332.775
333.139
333.621
334.148
334.692
335.226
335.718
336.132
336.434
336.593
336.593
336.434
336.132
335.718
335.226
334.692
334.148
333.621
333.139
332.775
326.865
327.159
327.551
327.982
328.427
328.863
329.265
329.603
329.85
329.98
329.98
329.85
329.603
329.265
328.863
328.427
327.982
327.551
327.159
326.865
320.929
321.154
321.458
321.794
322.139
322.478
322.79
323.053
323.244
323.345
323.345
323.244
323.053
322.79
322.478
322.139
321.794
321.458
321.154
320.929
314.971
315.131
315.348
315.587
315.834
316.076
316.298
316.486
316.623
316.695
316.695
316.623
316.486
316.298
316.076
315.834
315.587
315.348
315.131
314.971
308.999
309.094
309.224
309.368
309.516
309.661
309.795
309.908
309.989
310.033
310.033
309.989
309.908
309.795
309.661
309.516
309.368
309.224
309.094
308.999
303.018
303.049
303.093
303.141
303.191
303.239
303.284
303.322
303.349
303.364
303.364
303.349
303.322
303.284
303.239
303.191
303.141
303.093
303.049
303.018
344.645
345.16
345.817
346.532
347.268
347.99
348.656
349.218
349.627
349.843
349.843
349.627
349.218
348.656
347.99
347.268
346.532
345.817
345.16
344.645
338.788
339.224
339.79
340.409
341.046
341.671
342.246
342.732
343.085
343.271
343.271
343.085
342.732
342.246
341.671
341.046
340.409
339.79
339.224
338.788
332.891
333.252
333.73
334.252
334.791
335.318
335.804
336.214
336.512
336.669
336.669
336.512
336.214
335.804
335.318
334.791
334.252
333.73
333.252
332.891
326.96
327.251
327.64
328.068
328.508
328.939
329.336
329.67
329.914
330.042
330.042
329.914
329.67
329.336
328.939
328.508
328.068
327.64
327.251
326.96
321.003
321.226
321.528
321.86
322.202
322.537
322.846
323.105
323.294
323.394
323.394
323.294
323.105
322.846
322.537
322.202
321.86
321.528
321.226
321.003
315.024
315.182
315.397
315.635
315.879
316.118
316.338
316.524
316.658
316.729
316.729
316.658
316.524
316.338
316.118
315.879
315.635
315.397
315.182
315.024
309.031
309.125
309.254
309.396
309.543
309.687
309.819
309.93
310.011
310.054
310.054
310.011
309.93
309.819
309.687
309.543
309.396
309.254
309.125
309.031
303.028
303.06
303.103
303.151
303.2
303.248
303.292
303.33
303.357
303.371
303.371
303.357
303.33
303.292
303.248
303.2
303.151
303.103
303.06
303.028
344.961
345.468
346.114
346.816
347.537
348.243
348.894
349.442
349.84
350.05
350.05
349.84
349.442
348.894
348.243
347.537
346.816
346.114
345.468
344.961
339.062
339.491
340.048
340.655
341.28
341.891
342.453
342.926
343.271
343.452
343.452
343.271
342.926
342.453
341.891
341.28
340.655
340.048
339.491
339.062
333.123
333.479
333.948
334.461
334.989
335.505
335.98
336.38
336.67
336.823
336.823
336.67
336.38
335.98
335.505
334.989
334.461
333.948
333.479
333.123
327.151
327.437
327.819
328.239
328.67
329.092
329.48
329.806
330.044
330.169
330.169
330.044
329.806
329.48
329.092
328.67
328.239
327.819
327.437
327.151
321.151
321.371
321.667
321.993
322.329
322.657
322.958
323.211
323.396
323.493
323.493
323.396
323.211
322.958
322.657
322.329
321.993
321.667
321.371
321.151
315.13
315.286
315.497
315.73
315.969
316.204
316.419
316.6
316.731
316.8
316.8
316.731
316.6
316.419
316.204
315.969
315.73
315.497
315.286
315.13
309.094
309.187
309.314
309.454
309.598
309.738
309.867
309.976
310.055
310.096
310.096
310.055
309.976
309.867
309.738
309.598
309.454
309.314
309.187
309.094
303.05
303.081
303.123
303.17
303.218
303.265
303.308
303.345
303.371
303.385
303.385
303.371
303.345
303.308
303.265
303.218
303.17
303.123
303.081
303.05
345.437
345.932
346.561
347.244
347.944
348.627
349.256
349.784
350.168
350.37
350.37
350.168
349.784
349.256
348.627
347.944
347.244
346.561
345.932
345.437
339.475
339.894
340.436
341.027
341.633
342.225
342.768
343.225
343.556
343.731
343.731
343.556
343.225
342.768
342.225
341.633
341.027
340.436
339.894
339.475
333.473
333.82
334.277
334.777
335.289
335.789
336.248
336.633
336.913
337.06
337.06
336.913
336.633
336.248
335.789
335.289
334.777
334.277
333.82
333.473
327.437
327.716
328.089
328.497
328.916
329.325
329.7
330.014
330.243
330.363
330.363
330.243
330.014
329.7
329.325
328.916
328.497
328.089
327.716
327.437
321.374
321.588
321.878
322.195
322.52
322.838
323.129
323.374
323.551
323.644
323.644
323.551
323.374
323.129
322.838
322.52
322.195
321.878
321.588
321.374
315.289
315.441
315.648
315.874
316.106
316.333
316.541
316.716
316.842
316.909
316.909
316.842
316.716
316.541
316.333
316.106
315.874
315.648
315.441
315.289
309.19
309.281
309.404
309.54
309.68
309.816
309.941
310.046
310.122
310.162
310.162
310.122
310.046
309.941
309.816
309.68
309.54
309.404
309.281
309.19
303.082
303.112
303.153
303.199
303.246
303.291
303.333
303.368
303.394
303.407
303.407
303.394
303.368
303.333
303.291
303.246
303.199
303.153
303.112
303.082
346.073
346.553
347.161
347.82
348.493
349.148
349.748
350.252
350.617
350.809
350.809
350.617
350.252
349.748
349.148
348.493
347.82
347.161
346.553
346.073
340.027
340.433
340.958
341.528
342.11
342.677
343.196
343.632
343.947
344.113
344.113
343.947
343.632
343.196
342.677
342.11
341.528
340.958
340.433
340.027
333.94
334.277
334.719
335.201
335.693
336.173
336.611
336.979
337.245
337.385
337.385
337.245
336.979
336.611
336.173
335.693
335.201
334.719
334.277
333.94
327.82
328.091
328.452
328.845
329.248
329.639
329.998
330.298
330.516
330.63
330.63
330.516
330.298
329.998
329.639
329.248
328.845
328.452
328.091
327.82
321.672
321.88
322.16
322.466
322.779
323.083
323.362
323.595
323.764
323.853
323.853
323.764
323.595
323.362
323.083
322.779
322.466
322.16
321.88
321.672
315.503
315.65
315.849
316.068
316.291
316.509
316.708
316.874
316.995
317.058
317.058
316.995
316.874
316.708
316.509
316.291
316.068
315.849
315.65
315.503
309.318
309.406
309.526
309.657
309.791
309.922
310.041
310.141
310.213
310.251
310.251
310.213
310.141
310.041
309.922
309.791
309.657
309.526
309.406
309.318
303.125
303.154
303.194
303.238
303.283
303.327
303.367
303.4
303.424
303.437
303.437
303.424
303.4
303.367
303.327
303.283
303.238
303.194
303.154
303.125
346.872
347.334
347.918
348.547
349.189
349.811
350.379
350.854
351.197
351.378
351.378
351.197
350.854
350.379
349.811
349.189
348.547
347.918
347.334
346.872
340.72
341.111
341.615
342.16
342.715
343.253
343.745
344.156
344.453
344.609
344.609
344.453
344.156
343.745
343.253
342.715
342.16
341.615
341.111
340.72
334.528
334.852
335.276
335.737
336.206
336.661
337.077
337.424
337.674
337.806
337.806
337.674
337.424
337.077
336.661
336.206
335.737
335.276
334.852
334.528
328.301
328.562
328.908
329.284
329.668
330.04
330.38
330.663
330.868
330.976
330.976
330.868
330.663
330.38
330.04
329.668
329.284
328.908
328.562
328.301
322.046
322.247
322.515
322.808
323.106
323.396
323.659
323.88
324.039
324.122
324.122
324.039
323.88
323.659
323.396
323.106
322.808
322.515
322.247
322.046
315.77
315.912
316.104
316.313
316.526
316.732
316.921
317.078
317.191
317.251
317.251
317.191
317.078
316.921
316.732
316.526
316.313
316.104
315.912
315.77
309.479
309.564
309.678
309.804
309.932
310.056
310.169
310.263
310.332
310.367
310.367
310.332
310.263
310.169
310.056
309.932
309.804
309.678
309.564
309.479
303.179
303.207
303.245
303.287
303.33
303.372
303.41
303.441
303.464
303.476
303.476
303.464
303.441
303.41
303.372
303.33
303.287
303.245
303.207
303.179
347.836
348.277
348.834
349.431
350.038
350.623
351.156
351.6
351.92
352.088
352.088
351.92
351.6
351.156
350.623
350.038
349.431
348.834
348.277
347.836
341.557
341.93
342.41
342.928
343.452
343.959
344.42
344.804
345.081
345.226
345.226
345.081
344.804
344.42
343.959
343.452
342.928
342.41
341.93
341.557
335.236
335.546
335.951
336.388
336.832
337.26
337.65
337.974
338.208
338.331
338.331
338.208
337.974
337.65
337.26
336.832
336.388
335.951
335.546
335.236
328.881
329.131
329.461
329.818
330.181
330.531
330.85
331.115
331.306
331.406
331.406
331.306
331.115
330.85
330.531
330.181
329.818
329.461
329.131
328.881
322.498
322.69
322.946
323.224
323.506
323.778
324.026
324.232
324.38
324.458
324.458
324.38
324.232
324.026
323.778
323.506
323.224
322.946
322.69
322.498
316.094
316.229
316.411
316.61
316.811
317.006
317.183
317.33
317.436
317.491
317.491
317.436
317.33
317.183
317.006
316.811
316.61
316.411
316.229
316.094
309.673
309.754
309.864
309.983
310.104
310.221
310.327
310.415
310.479
310.512
310.512
310.479
310.415
310.327
310.221
310.104
309.983
309.864
309.754
309.673
303.244
303.271
303.307
303.347
303.388
303.427
303.463
303.492
303.513
303.525
303.525
303.513
303.492
303.463
303.427
303.388
303.347
303.307
303.271
303.244
348.967
349.386
349.913
350.476
351.045
351.592
352.087
352.498
352.794
352.949
352.949
352.794
352.498
352.087
351.592
351.045
350.476
349.913
349.386
348.967
342.538
342.893
343.348
343.835
344.328
344.801
345.23
345.586
345.841
345.975
345.975
345.841
345.586
345.23
344.801
344.328
343.835
343.348
342.893
342.538
336.068
336.362
336.745
337.157
337.574
337.974
338.337
338.637
338.853
338.966
338.966
338.853
338.637
338.337
337.974
337.574
337.157
336.745
336.362
336.068
329.563
329.799
330.112
330.449
330.789
331.117
331.413
331.659
331.835
331.928
331.928
331.835
331.659
331.413
331.117
330.789
330.449
330.112
329.799
329.563
323.029
323.211
323.453
323.715
323.98
324.234
324.464
324.655
324.793
324.864
324.864
324.793
324.655
324.464
324.234
323.98
323.715
323.453
323.211
323.029
316.473
316.601
316.774
316.961
317.15
317.332
317.497
317.633
317.731
317.782
317.782
317.731
317.633
317.497
317.332
317.15
316.961
316.774
316.601
316.473
309.901
309.978
310.082
310.194
310.307
310.417
310.515
310.597
310.656
310.687
310.687
310.656
310.597
310.515
310.417
310.307
310.194
310.082
309.978
309.901
303.32
303.346
303.38
303.418
303.456
303.493
303.526
303.553
303.573
303.583
303.583
303.573
303.553
303.526
303.493
303.456
303.418
303.38
303.346
303.32
350.268
350.664
351.16
351.687
352.217
352.724
353.181
353.559
353.83
353.972
353.972
353.83
353.559
353.181
352.724
352.217
351.687
351.16
350.664
350.268
343.667
344.003
344.43
344.887
345.346
345.785
346.181
346.508
346.742
346.865
346.865
346.742
346.508
346.181
345.785
345.346
344.887
344.43
344.003
343.667
337.024
337.302
337.663
338.049
338.437
338.808
339.143
339.419
339.618
339.721
339.721
339.618
339.419
339.143
338.808
338.437
338.049
337.663
337.302
337.024
330.346
330.57
330.864
331.179
331.497
331.8
332.074
332.3
332.462
332.547
332.547
332.462
332.3
332.074
331.8
331.497
331.179
330.864
330.57
330.346
323.639
323.81
324.038
324.284
324.531
324.767
324.98
325.155
325.281
325.347
325.347
325.281
325.155
324.98
324.767
324.531
324.284
324.038
323.81
323.639
316.909
317.03
317.193
317.368
317.545
317.713
317.865
317.991
318.081
318.128
318.128
318.081
317.991
317.865
317.713
317.545
317.368
317.193
317.03
316.909
310.163
310.236
310.333
310.438
310.544
310.646
310.737
310.812
310.866
310.894
310.894
310.866
310.812
310.737
310.646
310.544
310.438
310.333
310.236
310.163
303.408
303.432
303.465
303.5
303.536
303.57
303.6
303.625
303.643
303.653
303.653
303.643
303.625
303.6
303.57
303.536
303.5
303.465
303.432
303.408
351.741
352.113
352.577
353.068
353.559
354.026
354.445
354.79
355.037
355.166
355.166
355.037
354.79
354.445
354.026
353.559
353.068
352.577
352.113
351.741
344.946
345.261
345.661
346.086
346.511
346.916
347.279
347.578
347.791
347.903
347.903
347.791
347.578
347.279
346.916
346.511
346.086
345.661
345.261
344.946
338.108
338.369
338.706
339.065
339.425
339.767
340.074
340.327
340.507
340.602
340.602
340.507
340.327
340.074
339.767
339.425
339.065
338.706
338.369
338.108
331.233
331.443
331.718
332.012
332.306
332.586
332.837
333.044
333.192
333.269
333.269
333.192
333.044
332.837
332.586
332.306
332.012
331.718
331.443
331.233
324.329
324.491
324.704
324.933
325.161
325.379
325.574
325.735
325.85
325.91
325.91
325.85
325.735
325.574
325.379
325.161
324.933
324.704
324.491
324.329
317.403
317.517
317.669
317.832
317.996
318.151
318.291
318.406
318.487
318.53
318.53
318.487
318.406
318.291
318.151
317.996
317.832
317.669
317.517
317.403
310.46
310.528
310.619
310.717
310.815
310.909
310.993
311.062
311.111
311.136
311.136
311.111
311.062
310.993
310.909
310.815
310.717
310.619
310.528
310.46
303.507
303.53
303.561
303.594
303.626
303.658
303.686
303.709
303.725
303.734
303.734
303.725
303.709
303.686
303.658
303.626
303.594
303.561
303.53
303.507
353.389
353.737
354.168
354.623
355.075
355.503
355.886
356.199
356.422
356.539
356.539
356.422
356.199
355.886
355.503
355.075
354.623
354.168
353.737
353.389
346.376
346.67
347.043
347.437
347.828
348.199
348.53
348.802
348.995
349.096
349.096
348.995
348.802
348.53
348.199
347.828
347.437
347.043
346.67
346.376
339.319
339.563
339.877
340.21
340.542
340.855
341.135
341.365
341.529
341.614
341.614
341.529
341.365
341.135
340.855
340.542
340.21
339.877
339.563
339.319
332.225
332.422
332.678
332.95
333.221
333.478
333.707
333.895
334.029
334.098
334.098
334.029
333.895
333.707
333.478
333.221
332.95
332.678
332.422
332.225
325.102
325.253
325.451
325.663
325.874
326.074
326.252
326.398
326.502
326.556
326.556
326.502
326.398
326.252
326.074
325.874
325.663
325.451
325.253
325.102
317.955
318.062
318.204
318.355
318.505
318.648
318.775
318.88
318.954
318.993
318.993
318.954
318.88
318.775
318.648
318.505
318.355
318.204
318.062
317.955
310.792
310.856
310.941
311.031
311.122
311.208
311.284
311.347
311.391
311.414
311.414
311.391
311.347
311.284
311.208
311.122
311.031
310.941
310.856
310.792
303.619
303.64
303.668
303.699
303.729
303.758
303.784
303.805
303.82
303.827
303.827
303.82
303.805
303.784
303.758
303.729
303.699
303.668
303.64
303.619
355.213
355.537
355.937
356.356
356.771
357.161
357.508
357.792
357.993
358.097
358.097
357.993
357.792
357.508
357.161
356.771
356.356
355.937
355.537
355.213
347.959
348.233
348.578
348.941
349.301
349.639
349.94
350.185
350.36
350.45
350.45
350.36
350.185
349.94
349.639
349.301
348.941
348.578
348.233
347.959
340.66
340.888
341.179
341.486
341.79
342.076
342.33
342.538
342.685
342.762
342.762
342.685
342.538
342.33
342.076
341.79
341.486
341.179
340.888
340.66
333.324
333.507
333.744
333.995
334.244
334.478
334.687
334.856
334.977
335.04
335.04
334.977
334.856
334.687
334.478
334.244
333.995
333.744
333.507
333.324
325.957
326.098
326.282
326.477
326.671
326.853
327.015
327.147
327.241
327.289
327.289
327.241
327.147
327.015
326.853
326.671
326.477
326.282
326.098
325.957
318.567
318.666
318.797
318.937
319.075
319.205
319.321
319.415
319.482
319.517
319.517
319.482
319.415
319.321
319.205
319.075
318.937
318.797
318.666
318.567
311.159
311.219
311.297
311.381
311.464
311.542
311.612
311.669
311.709
311.73
311.73
311.709
311.669
311.612
311.542
311.464
311.381
311.297
311.219
311.159
303.742
303.762
303.788
303.816
303.844
303.87
303.894
303.913
303.926
303.933
303.933
303.926
303.913
303.894
303.87
303.844
303.816
303.788
303.762
303.742
357.214
357.515
357.884
358.27
358.648
359.003
359.317
359.572
359.753
359.846
359.846
359.753
359.572
359.317
359.003
358.648
358.27
357.884
357.515
357.214
349.696
349.95
350.269
350.603
350.931
351.238
351.51
351.732
351.888
351.969
351.969
351.888
351.732
351.51
351.238
350.931
350.603
350.269
349.95
349.696
342.132
342.343
342.611
342.894
343.171
343.432
343.662
343.849
343.981
344.05
344.05
343.981
343.849
343.662
343.432
343.171
342.894
342.611
342.343
342.132
334.529
334.699
334.918
335.149
335.376
335.589
335.778
335.931
336.039
336.095
336.095
336.039
335.931
335.778
335.589
335.376
335.149
334.918
334.699
334.529
326.896
327.026
327.196
327.375
327.552
327.718
327.864
327.983
328.068
328.111
328.111
328.068
327.983
327.864
327.718
327.552
327.375
327.196
327.026
326.896
319.238
319.33
319.451
319.579
319.706
319.824
319.929
320.014
320.074
320.105
320.105
320.074
320.014
319.929
319.824
319.706
319.579
319.451
319.33
319.238
311.563
311.618
311.69
311.767
311.843
311.914
311.977
312.028
312.064
312.083
312.083
312.064
312.028
311.977
311.914
311.843
311.767
311.69
311.618
311.563
303.877
303.895
303.92
303.946
303.971
303.995
304.016
304.033
304.045
304.052
304.052
304.045
304.033
304.016
303.995
303.971
303.946
303.92
303.895
303.877
359.393
359.671
360.012
360.364
360.709
361.031
361.313
361.543
361.704
361.788
361.788
361.704
361.543
361.313
361.031
360.709
360.364
360.012
359.671
359.393
351.587
351.822
352.116
352.421
352.72
352.999
353.244
353.443
353.583
353.655
353.655
353.583
353.443
353.244
352.999
352.72
352.421
352.116
351.822
351.587
343.734
343.929
344.176
344.434
344.687
344.923
345.131
345.299
345.417
345.479
345.479
345.417
345.299
345.131
344.923
344.687
344.434
344.176
343.929
343.734
335.841
335.998
336.2
336.411
336.618
336.811
336.981
337.119
337.216
337.266
337.266
337.216
337.119
336.981
336.811
336.618
336.411
336.2
335.998
335.841
327.917
328.037
328.194
328.358
328.519
328.669
328.802
328.909
328.984
329.023
329.023
328.984
328.909
328.802
328.669
328.519
328.358
328.194
328.037
327.917
319.968
320.053
320.165
320.282
320.397
320.505
320.599
320.676
320.729
320.757
320.757
320.729
320.676
320.599
320.505
320.397
320.282
320.165
320.053
319.968
312.001
312.052
312.119
312.19
312.259
312.323
312.38
312.426
312.458
312.475
312.475
312.458
312.426
312.38
312.323
312.259
312.19
312.119
312.052
312.001
304.024
304.041
304.064
304.087
304.11
304.132
304.151
304.166
304.177
304.183
304.183
304.177
304.166
304.151
304.132
304.11
304.087
304.064
304.041
304.024
361.747
362.004
362.316
362.638
362.951
363.242
363.496
363.701
363.846
363.921
363.921
363.846
363.701
363.496
363.242
362.951
362.638
362.316
362.004
361.747
353.629
353.846
354.115
354.394
354.666
354.918
355.138
355.316
355.441
355.506
355.506
355.441
355.316
355.138
354.918
354.666
354.394
354.115
353.846
353.629
345.463
345.642
345.87
346.106
346.336
346.549
346.736
346.886
346.992
347.047
347.047
346.992
346.886
346.736
346.549
346.336
346.106
345.87
345.642
345.463
337.257
337.402
337.587
337.78
337.968
338.143
338.295
338.419
338.505
338.55
338.55
338.505
338.419
338.295
338.143
337.968
337.78
337.587
337.402
337.257
329.019
329.13
329.273
329.424
329.57
329.706
329.825
329.921
329.988
330.023
330.023
329.988
329.921
329.825
329.706
329.57
329.424
329.273
329.13
329.019
320.755
320.834
320.937
321.044
321.148
321.246
321.331
321.399
321.447
321.472
321.472
321.447
321.399
321.331
321.246
321.148
321.044
320.937
320.834
320.755
312.474
312.521
312.583
312.647
312.71
312.768
312.82
312.861
312.89
312.905
312.905
312.89
312.861
312.82
312.768
312.71
312.647
312.583
312.521
312.474
304.183
304.198
304.219
304.241
304.262
304.281
304.298
304.312
304.322
304.327
304.327
304.322
304.312
304.298
304.281
304.262
304.241
304.219
304.198
304.183
364.265
364.501
364.787
365.081
365.365
365.627
365.856
366.039
366.168
366.235
366.235
366.168
366.039
365.856
365.627
365.365
365.081
364.787
364.501
364.265
355.811
356.011
356.258
356.512
356.758
356.986
357.184
357.343
357.455
357.513
357.513
357.455
357.343
357.184
356.986
356.758
356.512
356.258
356.011
355.811
347.31
347.475
347.683
347.898
348.107
348.3
348.467
348.602
348.697
348.746
348.746
348.697
348.602
348.467
348.3
348.107
347.898
347.683
347.475
347.31
338.768
338.901
339.071
339.247
339.418
339.575
339.713
339.823
339.901
339.941
339.941
339.901
339.823
339.713
339.575
339.418
339.247
339.071
338.901
338.768
330.194
330.297
330.428
330.565
330.698
330.821
330.928
331.014
331.074
331.105
331.105
331.074
331.014
330.928
330.821
330.698
330.565
330.428
330.297
330.194
321.596
321.668
321.762
321.86
321.955
322.042
322.119
322.18
322.223
322.245
322.245
322.223
322.18
322.119
322.042
321.955
321.86
321.762
321.668
321.596
312.979
313.022
313.079
313.137
313.194
313.247
313.293
313.33
313.356
313.369
313.369
313.356
313.33
313.293
313.247
313.194
313.137
313.079
313.022
312.979
304.352
304.366
304.385
304.405
304.424
304.442
304.457
304.469
304.478
304.483
304.483
304.478
304.469
304.457
304.442
304.424
304.405
304.385
304.366
304.352
366.92
367.137
367.399
367.666
367.924
368.16
368.365
368.53
368.645
368.704
368.704
368.645
368.53
368.365
368.16
367.924
367.666
367.399
367.137
366.92
358.108
358.291
358.517
358.749
358.973
359.178
359.356
359.499
359.598
359.65
359.65
359.598
359.499
359.356
359.178
358.973
358.749
358.517
358.291
358.108
349.25
349.402
349.593
349.789
349.978
350.152
350.303
350.423
350.508
350.551
350.551
350.508
350.423
350.303
350.152
349.978
349.789
349.593
349.402
349.25
340.353
340.476
340.631
340.792
340.947
341.089
341.213
341.311
341.381
341.416
341.416
341.381
341.311
341.213
341.089
340.947
340.792
340.631
340.476
340.353
331.426
331.52
331.641
331.766
331.886
331.997
332.093
332.17
332.224
332.252
332.252
332.224
332.17
332.093
331.997
331.886
331.766
331.641
331.52
331.426
322.475
322.541
322.627
322.717
322.803
322.882
322.951
323.006
323.044
323.064
323.064
323.044
323.006
322.951
322.882
322.803
322.717
322.627
322.541
322.475
313.507
313.547
313.598
313.652
313.704
313.751
313.792
313.826
313.849
313.861
313.861
313.849
313.826
313.792
313.751
313.704
313.652
313.598
313.547
313.507
304.529
304.542
304.559
304.577
304.595
304.611
304.624
304.636
304.643
304.647
304.647
304.643
304.636
304.624
304.611
304.595
304.577
304.559
304.542
304.529
369.641
369.84
370.081
370.325
370.558
370.772
370.957
371.105
371.207
371.26
371.26
371.207
371.105
370.957
370.772
370.558
370.325
370.081
369.84
369.641
360.451
360.62
360.827
361.039
361.242
361.428
361.588
361.716
361.806
361.851
361.851
361.806
361.716
361.588
361.428
361.242
361.039
360.827
360.62
360.451
351.221
351.361
351.536
351.715
351.887
352.045
352.181
352.289
352.365
352.404
352.404
352.365
352.289
352.181
352.045
351.887
351.715
351.536
351.361
351.221
341.959
342.071
342.214
342.361
342.501
342.63
342.742
342.831
342.893
342.925
342.925
342.893
342.831
342.742
342.63
342.501
342.361
342.214
342.071
341.959
332.67
332.756
332.867
332.981
333.091
333.191
333.278
333.347
333.395
333.42
333.42
333.395
333.347
333.278
333.191
333.091
332.981
332.867
332.756
332.67
323.361
323.422
323.501
323.582
323.661
323.733
323.795
323.844
323.879
323.896
323.896
323.879
323.844
323.795
323.733
323.661
323.582
323.501
323.422
323.361
314.038
314.074
314.122
314.171
314.218
314.261
314.298
314.328
314.349
314.359
314.359
314.349
314.328
314.298
314.261
314.218
314.171
314.122
314.074
314.038
304.707
304.719
304.735
304.751
304.767
304.781
304.794
304.804
304.811
304.814
304.814
304.811
304.804
304.794
304.781
304.767
304.751
304.735
304.719
304.707
372.252
372.436
372.658
372.882
373.096
373.291
373.459
373.592
373.685
373.733
373.733
373.685
373.592
373.459
373.291
373.096
372.882
372.658
372.436
372.252
362.673
362.829
363.02
363.215
363.401
363.57
363.716
363.832
363.913
363.955
363.955
363.913
363.832
363.716
363.57
363.401
363.215
363.02
362.829
362.673
353.07
353.2
353.361
353.526
353.684
353.828
353.952
354.05
354.119
354.154
354.154
354.119
354.05
353.952
353.828
353.684
353.526
353.361
353.2
353.07
343.45
343.554
343.686
343.822
343.951
344.069
344.17
344.251
344.307
344.336
344.336
344.307
344.251
344.17
344.069
343.951
343.822
343.686
343.554
343.45
333.816
333.897
333.999
334.104
334.205
334.297
334.376
334.439
334.483
334.506
334.506
334.483
334.439
334.376
334.297
334.205
334.104
333.999
333.897
333.816
324.173
324.23
324.303
324.378
324.45
324.516
324.573
324.618
324.649
324.665
324.665
324.649
324.618
324.573
324.516
324.45
324.378
324.303
324.23
324.173
314.523
314.557
314.6
314.646
314.689
314.729
314.763
314.79
314.809
314.818
314.818
314.809
314.79
314.763
314.729
314.689
314.646
314.6
314.557
314.523
304.869
304.88
304.895
304.91
304.924
304.938
304.949
304.958
304.964
304.968
304.968
304.964
304.958
304.949
304.938
304.924
304.91
304.895
304.88
304.869
374.292
374.466
374.674
374.884
375.084
375.266
375.422
375.546
375.632
375.677
375.677
375.632
375.546
375.422
375.266
375.084
374.884
374.674
374.466
374.292
364.343
364.49
364.671
364.854
365.028
365.187
365.323
365.431
365.507
365.545
365.545
365.507
365.431
365.323
365.187
365.028
364.854
364.671
364.49
364.343
354.418
354.54
354.693
354.849
354.997
355.132
355.248
355.34
355.404
355.437
355.437
355.404
355.34
355.248
355.132
354.997
354.849
354.693
354.54
354.418
344.51
344.609
344.734
344.862
344.984
345.095
345.19
345.266
345.319
345.346
345.346
345.319
345.266
345.19
345.095
344.984
344.862
344.734
344.609
344.51
334.616
334.693
334.79
334.889
334.985
335.071
335.146
335.205
335.246
335.267
335.267
335.246
335.205
335.146
335.071
334.985
334.889
334.79
334.693
334.616
324.732
324.786
324.855
324.927
324.995
325.057
325.11
325.152
325.182
325.197
325.197
325.182
325.152
325.11
325.057
324.995
324.927
324.855
324.786
324.732
314.853
314.886
314.927
314.97
315.011
315.049
315.081
315.106
315.124
315.133
315.133
315.124
315.106
315.081
315.049
315.011
314.97
314.927
314.886
314.853
304.979
304.989
305.003
305.018
305.032
305.044
305.055
305.063
305.069
305.072
305.072
305.069
305.063
305.055
305.044
305.032
305.018
305.003
304.989
304.979
)
;

boundaryField
{
    hotSide
    {
        type            fixedGradient;
        gradient        nonuniform List<scalar> 
400
(
463.246
464.908
468.238
473.247
479.949
488.365
498.516
510.426
524.121
539.625
556.962
576.155
597.225
620.19
645.068
671.871
700.612
731.301
763.944
798.548
470.074
471.682
474.906
479.76
486.265
494.445
504.331
515.954
529.345
544.536
561.558
580.438
601.201
623.871
648.465
674.999
703.487
733.939
766.363
800.763
477.463
479.007
482.104
486.775
493.045
500.95
510.526
521.814
534.855
549.688
566.352
584.88
605.302
627.643
651.927
678.169
706.385
736.584
768.774
802.96
485.291
486.76
489.711
494.168
500.169
507.756
516.978
527.888
540.535
554.971
571.239
589.381
609.432
631.421
655.373
681.307
709.237
739.173
771.122
805.089
493.34
494.724
497.51
501.729
507.429
514.664
523.498
533.993
546.215
560.222
576.068
593.803
613.465
635.089
658.7
684.319
711.959
741.632
773.341
807.091
501.273
502.567
505.176
509.142
514.522
521.387
529.813
539.878
551.659
565.228
580.646
597.971
617.245
638.507
661.784
687.096
714.457
743.876
775.358
808.903
508.637
509.84
512.273
515.987
521.052
527.552
535.579
545.225
556.582
569.73
584.743
601.68
620.593
641.519
664.487
689.519
716.626
745.817
777.095
810.457
514.887
516.008
518.283
521.77
526.553
532.728
540.401
549.68
560.665
573.448
588.11
604.716
623.319
643.961
666.671
691.468
718.365
747.367
778.476
811.689
519.46
520.519
522.673
525.987
530.555
536.483
543.89
552.892
563.599
576.111
590.513
606.875
625.252
645.686
668.208
692.836
719.581
748.449
779.439
812.545
521.884
522.909
524.996
528.217
532.667
538.462
545.725
554.578
565.136
577.502
591.766
607.998
626.255
646.58
669.003
693.542
720.208
749.006
779.933
812.984
521.884
522.909
524.996
528.217
532.667
538.462
545.725
554.578
565.136
577.502
591.766
607.998
626.255
646.58
669.003
693.542
720.208
749.006
779.933
812.984
519.46
520.519
522.673
525.987
530.555
536.483
543.89
552.892
563.599
576.111
590.513
606.875
625.252
645.686
668.208
692.836
719.581
748.449
779.439
812.545
514.887
516.008
518.283
521.77
526.553
532.728
540.401
549.68
560.665
573.448
588.11
604.716
623.319
643.961
666.671
691.468
718.365
747.367
778.476
811.689
508.637
509.84
512.273
515.987
521.052
527.552
535.579
545.225
556.582
569.73
584.743
601.68
620.593
641.519
664.487
689.519
716.626
745.817
777.095
810.457
501.273
502.567
505.176
509.142
514.522
521.387
529.813
539.878
551.659
565.228
580.646
597.971
617.245
638.507
661.784
687.096
714.457
743.876
775.358
808.903
493.34
494.724
497.51
501.729
507.429
514.664
523.498
533.993
546.215
560.222
576.068
593.803
613.465
635.089
658.7
684.319
711.959
741.632
773.341
807.091
485.291
486.76
489.711
494.168
500.169
507.756
516.978
527.888
540.535
554.971
571.239
589.381
609.432
631.421
655.373
681.307
709.237
739.173
771.122
805.089
477.463
479.007
482.104
486.775
493.045
500.95
510.526
521.814
534.855
549.688
566.352
584.88
605.302
627.643
651.927
678.169
706.385
736.584
768.774
802.96
470.074
471.682
474.906
479.76
486.265
494.445
504.331
515.954
529.345
544.536
561.558
580.438
601.201
623.871
648.465
674.999
703.487
733.939
766.363
800.763
463.246
464.908
468.238
473.247
479.949
488.365
498.516
510.426
524.121
539.625
556.962
576.155
597.225
620.19
645.068
671.871
700.612
731.301
763.944
798.548
)
;
    }
    coldSide
    {
        type            mixed;
        refValue        uniform 300;
        refGradient     uniform 0;
        valueFraction   uniform 0.991591;
        source          uniform 0;
        value           nonuniform List<scalar> 
400
(
300.025
300.025
300.026
300.026
300.026
300.027
300.027
300.028
300.029
300.029
300.03
300.031
300.033
300.034
300.035
300.037
300.038
300.04
300.041
300.042
300.026
300.026
300.026
300.026
300.027
300.027
300.028
300.028
300.029
300.03
300.031
300.032
300.033
300.034
300.035
300.037
300.038
300.04