/*--------------------------------*- C++ -*----------------------------------*\
| =========                 |                                                 |
| \\      /  F ield         | OpenFOAM: The Open Source CFD Toolbox           |
|  \\    /   O peration     | Version:  2212                                  |
|   \\  /    A nd           | Website:  www.openfoam.com                      |
|    \\/     M anipulation  |                                                 |
\*---------------------------------------------------------------------------*/
FoamFile
{
    version     2.0;
    format      ascii;
    arch        "LSB;label=32;scalar=64";
    class       volScalarField;
    location    "0";
    object      Ttrue;
}
// * * * * * * * * * * * * * * * * * * * * * * * * * * * * * * * * * * * * * //

dimensions      [0 0 0 1 0 0 0];

internalField   nonuniform List<scalar> 
3200
(
342.479
343.492
344.787
346.198
347.651
349.078
350.395
351.506
352.316
352.743
352.743
352.316
351.506
350.395
349.078
347.651
346.198
344.787
343.492
342.479
336.853
337.711
338.828
340.048
341.306
342.54
343.678
344.638
345.338
345.707
345.707
345.338
344.638
343.678
342.54
341.306
340.048
338.828
337.711
336.853
331.211
331.924
332.864
333.896
334.959
336.001
336.962
337.773
338.362
338.674
338.674
338.362
337.773
336.962
336.001
334.959
333.896
332.864
331.924
331.211
325.558
326.131
326.898
327.741
328.61
329.461
330.246
330.908
331.39
331.644
331.644
331.39
330.908
330.246
329.461
328.61
327.741
326.898
326.131
325.558
319.894
320.334
320.929
321.584
322.259
322.921
323.531
324.045
324.419
324.616
324.616
324.419
324.045
323.531
322.921
322.259
321.584
320.929
320.334
319.894
314.222
314.534
314.958
315.426
315.908
316.381
316.816
317.183
317.449
317.59
317.59
317.449
317.183
316.816
316.381
315.908
315.426
314.958
314.534
314.222
308.545
308.731
308.986
309.266
309.556
309.84
310.101
310.321
310.481
310.565
310.565
310.481
310.321
310.101
309.84
309.556
309.266
308.986
308.731
308.545
302.865
302.927
303.012
303.106
303.203
303.298
303.386
303.46
303.513
303.542
303.542
303.513
303.46
303.386
303.298
303.203
303.106
303.012
302.927
302.865
342.575
343.58
344.864
346.262
347.7
349.111
350.412
351.51
352.309
352.731
352.731
352.309
351.51
350.412
349.111
347.7
346.262
344.864
343.58
342.575
336.935
337.787
338.894
340.103
341.348
342.569
343.694
344.642
345.332
345.697
345.697
345.332
344.642
343.694
342.569
341.348
340.103
338.894
337.787
336.935
331.281
331.988
332.921
333.942
334.994
336.025
336.975
337.776
338.358
338.666
338.666
338.358
337.776
336.975
336.025
334.994
333.942
332.921
331.988
331.281
325.615
326.184
326.944
327.779
328.639
329.482
330.257
330.911
331.386
331.637
331.637
331.386
330.911
330.257
329.482
328.639
327.779
326.944
326.184
325.615
319.938
320.375
320.965
321.614
322.282
322.937
323.54
324.047
324.416
324.611
324.611
324.416
324.047
323.54
322.937
322.282
321.614
320.965
320.375
319.938
314.254
314.563
314.984
315.447
315.924
316.392
316.822
317.184
317.448
317.587
317.587
317.448
317.184
316.822
316.392
315.924
315.447
314.984
314.563
314.254
308.564
308.749
309.001
309.279
309.566
309.846
310.105
310.322
310.48
310.563
310.563
310.48
310.322
310.105
309.846
309.566
309.279
309.001
308.749
308.564
302.871
302.933
303.017
303.111
303.207
303.301
303.387
303.46
303.513
303.541
303.541
303.513
303.46
303.387
303.301
303.207
303.111
303.017
302.933
302.871
342.768
343.758
345.019
346.391
347.801
349.181
350.452
351.523
352.302
352.713
352.713
352.302
351.523
350.452
349.181
347.801
346.391
345.019
343.758
342.768
337.102
337.94
339.029
340.216
341.436
342.63
343.729
344.654
345.327
345.682
345.682
345.327
344.654
343.729
342.63
341.436
340.216
339.029
337.94
337.102
331.422
332.117
333.034
334.037
335.068
336.077
337.005
337.786
338.354
338.653
338.653
338.354
337.786
337.005
336.077
335.068
334.037
333.034
332.117
331.422
325.73
326.29
327.037
327.857
328.699
329.524
330.282
330.92
331.383
331.628
331.628
331.383
330.92
330.282
329.524
328.699
327.857
327.037
326.29
325.73
320.028
320.457
321.037
321.674
322.329
322.97
323.559
324.054
324.414
324.604
324.604
324.414
324.054
323.559
322.97
322.329
321.674
321.037
320.457
320.028
314.318
314.622
315.035
315.49
315.958
316.415
316.836
317.19
317.446
317.582
317.582
317.446
317.19
316.836
316.415
315.958
315.49
315.035
314.622
314.318
308.603
308.784
309.032
309.305
309.586
309.861
310.113
310.325
310.479
310.561
310.561
310.479
310.325
310.113
309.861
309.586
309.305
309.032
308.784
308.603
302.884
302.945
303.028
303.119
303.213
303.305
303.39
303.461
303.513
303.54
303.54
303.513
303.461
303.39
303.305
303.213
303.119
303.028
302.945
302.884
343.06
344.027
345.257
346.591
347.959
349.295
350.523
351.555
352.305
352.7
352.7
352.305
351.555
350.523
349.295
347.959
346.591
345.257
344.027
343.06
337.355
338.173
339.234
340.389
341.573
342.729
343.79
344.683
345.33
345.672
345.672
345.33
344.683
343.79
342.729
341.573
340.389
339.234
338.173
337.355
331.635
332.314
333.208
334.184
335.184
336.161
337.058
337.811
338.358
338.646
338.646
338.358
337.811
337.058
336.161
335.184
334.184
333.208
332.314
331.635
325.904
326.45
327.179
327.976
328.795
329.593
330.326
330.941
331.387
331.622
331.622
331.387
330.941
330.326
329.593
328.795
327.976
327.179
326.45
325.904
320.163
320.582
321.148
321.767
322.403
323.024
323.593
324.071
324.417
324.6
324.6
324.417
324.071
323.593
323.024
322.403
321.767
321.148
320.582
320.163
314.414
314.711
315.114
315.557
316.011
316.454
316.86
317.201
317.449
317.579
317.579
317.449
317.201
316.86
316.454
316.011
315.557
315.114
314.711
314.414
308.66
308.838
309.079
309.345
309.618
309.884
310.128
310.332
310.481
310.559
310.559
310.481
310.332
310.128
309.884
309.618
309.345
309.079
308.838
308.66
302.903
302.963
303.044
303.133
303.224
303.313
303.395
303.464
303.513
303.539
303.539
303.513
303.464
303.395
303.313
303.224
303.133
303.044
302.963
302.903
343.454
344.391
345.581
346.868
348.183
349.463
350.637
351.621
352.334
352.709
352.709
352.334
351.621
350.637
349.463
348.183
346.868
345.581
344.391
343.454
337.695
338.489
339.515
340.628
341.767
342.875
343.89
344.74
345.357
345.681
345.681
345.357
344.74
343.89
342.875
341.767
340.628
339.515
338.489
337.695
331.923
332.581
333.445
334.386
335.349
336.285
337.142
337.861
338.381
338.655
338.655
338.381
337.861
337.142
336.285
335.349
334.386
333.445
332.581
331.923
326.138
326.668
327.373
328.142
328.929
329.694
330.395
330.982
331.407
331.63
331.63
331.407
330.982
330.395
329.694
328.929
328.142
327.373
326.668
326.138
320.345
320.752
321.298
321.896
322.508
323.103
323.647
324.103
324.433
324.607
324.607
324.433
324.103
323.647
323.103
322.508
321.896
321.298
320.752
320.345
314.544
314.832
315.222
315.649
316.086
316.511
316.899
317.225
317.46
317.584
317.584
317.46
317.225
316.899
316.511
316.086
315.649
315.222
314.832
314.544
308.738
308.91
309.144
309.4
309.663
309.918
310.151
310.346
310.488
310.562
310.562
310.488
310.346
310.151
309.918
309.663
309.4
309.144
308.91
308.738
302.93
302.987
303.065
303.151
303.239
303.325
303.403
303.468
303.516
303.54
303.54
303.516
303.468
303.403
303.325
303.239
303.151
303.065
302.987
302.93
343.954
344.856
345.998
347.229
348.482
349.697
350.808
351.736
352.407
352.76
352.76
352.407
351.736
350.808
349.697
348.482
347.229
345.998
344.856
343.954
338.127
338.891
339.876
340.941
342.026
343.078
344.039
344.841
345.422
345.727
345.727
345.422
344.841
344.039
343.078
342.026
340.941
339.876
338.891
338.127
332.287
332.921
333.751
334.651
335.568
336.457
337.269
337.947
338.437
338.694
338.694
338.437
337.947
337.269
336.457
335.568
334.651
333.751
332.921
332.287
326.436
326.946
327.623
328.358
329.108
329.836
330.499
331.053
331.453
331.663
331.663
331.453
331.053
330.499
329.836
329.108
328.358
327.623
326.946
326.436
320.576
320.968
321.492
322.064
322.647
323.213
323.728
324.159
324.469
324.633
324.633
324.469
324.159
323.728
323.213
322.647
322.064
321.492
320.968
320.576
314.709
314.986
315.36
315.769
316.185
316.589
316.957
317.264
317.486
317.603
317.603
317.486
317.264
316.957
316.589
316.185
315.769
315.36
314.986
314.709
308.838
309.003
309.227
309.472
309.723
309.965
310.186
310.37
310.504
310.573
310.573
310.504
310.37
310.186
309.965
309.723
309.472
309.227
309.003
308.838
302.963
303.018
303.093
303.175
303.259
303.34
303.414
303.476
303.521
303.544
303.544
303.521
303.476
303.414
303.34
303.259
303.175
303.093
303.018
302.963
344.564
345.427
346.515
347.683
348.867
350.011
351.052
351.919
352.545
352.873
352.873
352.545
351.919
351.052
350.011
348.867
347.683
346.515
345.427
344.564
338.655
339.385
340.323
341.334
342.36
343.35
344.251
345.001
345.542
345.826
345.826
345.542
345.001
344.251
343.35
342.36
341.334
340.323
339.385
338.655
332.732
333.338
334.129
334.983
335.85
336.688
337.449
338.083
338.54
338.779
338.779
338.54
338.083
337.449
336.688
335.85
334.983
334.129
333.338
332.732
326.8
327.287
327.932
328.63
329.339
330.024
330.646
331.164
331.538
331.733
331.733
331.538
331.164
330.646
330.024
329.339
328.63
327.932
327.287
326.8
320.859
321.233
321.733
322.276
322.827
323.36
323.843
324.246
324.536
324.688
324.688
324.536
324.246
323.843
323.36
322.827
322.276
321.733
321.233
320.859
314.911
315.176
315.532
315.92
316.314
316.694
317.039
317.327
317.534
317.642
317.642
317.534
317.327
317.039
316.694
316.314
315.92
315.532
315.176
314.911
308.958
309.117
309.33
309.563
309.8
310.028
310.235
310.408
310.532
310.597
310.597
310.532
310.408
310.235
310.028
309.8
309.563
309.33
309.117
308.958
303.003
303.056
303.128
303.206
303.285
303.362
303.431
303.489
303.531
303.552
303.552
303.531
303.489
303.431
303.362
303.285
303.206
303.128
303.056
303.003
345.289
346.109
347.138
348.239
349.35
350.419
351.386
352.19
352.768
353.07
353.07
352.768
352.19
351.386
350.419
349.35
348.239
347.138
346.109
345.289
339.281
339.975
340.863
341.816
342.778
343.703
344.541
345.236
345.736
345.998
345.998
345.736
345.236
344.541
343.703
342.778
341.816
340.863
339.975
339.281
333.261
333.837
334.585
335.391
336.204
336.987
337.695
338.282
338.705
338.926
338.926
338.705
338.282
337.695
336.987
336.204
335.391
334.585
333.837
333.261
327.232
327.695
328.305
328.964
329.629
330.269
330.848
331.328
331.673
331.854
331.854
331.673
331.328
330.848
330.269
329.629
328.964
328.305
327.695
327.232
321.194
321.55
322.023
322.535
323.052
323.55
324
324.373
324.641
324.782
324.782
324.641
324.373
324
323.55
323.052
322.535
322.023
321.55
321.194
315.15
315.402
315.739
316.105
316.475
316.83
317.152
317.418
317.609
317.71
317.71
317.609
317.418
317.152
316.83
316.475
316.105
315.739
315.402
315.15
309.102
309.252
309.455
309.674
309.896
310.11
310.303
310.463
310.578
310.638
310.638
310.578
310.463
310.303
310.11
309.896
309.674
309.455
309.252
309.102
303.051
303.102
303.169
303.243
303.317
303.389
303.454
303.507
303.546
303.566
303.566
303.546
303.507
303.454
303.389
303.317
303.243
303.169
303.102
303.051
346.134
346.908
347.876
348.907
349.942
350.933
351.826
352.565
353.094
353.371
353.371
353.094
352.565
351.826
350.933
349.942
348.907
347.876
346.908
346.134
340.011
340.666
341.502
342.394
343.291
344.149
344.923
345.562
346.02
346.26
346.26
346.02
345.562
344.923
344.149
343.291
342.394
341.502
340.666
340.011
333.878
334.421
335.125
335.88
336.638
337.364
338.018
338.558
338.945
339.148
339.148
338.945
338.558
338.018
337.364
336.638
335.88
335.125
334.421
333.878
327.735
328.173
328.747
329.364
329.984
330.577
331.112
331.554
331.87
332.036
332.036
331.87
331.554
331.112
330.577
329.984
329.364
328.747
328.173
327.735
321.585
321.921
322.366
322.846
323.328
323.79
324.206
324.549
324.795
324.924
324.924
324.795
324.549
324.206
323.79
323.328
322.846
322.366
321.921
321.585
315.43
315.667
315.985
316.327
316.672
317.002
317.299
317.544
317.72
317.811
317.811
317.72
317.544
317.299
317.002
316.672
316.327
315.985
315.667
315.43
309.27
309.412
309.602
309.808
310.015
310.213
310.391
310.538
310.644
310.699
310.699
310.644
310.538
310.391
310.213
310.015
309.808
309.602
309.412
309.27
303.108
303.155
303.219
303.288
303.357
303.423
303.483
303.533
303.568
303.586
303.586
303.568
303.533
303.483
303.423
303.357
303.288
303.219
303.155
303.108
347.103
347.83
348.736
349.696
350.654
351.567
352.386
353.061
353.543
353.795
353.795
353.543
353.061
352.386
351.567
350.654
349.696
348.736
347.83
347.103
340.849
341.464
342.246
343.077
343.908
344.698
345.408
345.992
346.409
346.627
346.627
346.409
345.992
345.408
344.698
343.908
343.077
342.246
341.464
340.849
334.585
335.096
335.755
336.457
337.16
337.828
338.428
338.922
339.275
339.459
339.459
339.275
338.922
338.428
337.828
337.16
336.457
335.755
335.096
334.585
328.313
328.724
329.261
329.835
330.41
330.957
331.448
331.852
332.14
332.291
332.291
332.14
331.852
331.448
330.957
330.41
329.835
329.261
328.724
328.313
322.034
322.349
322.766
323.213
323.66
324.085
324.467
324.781
325.005
325.122
325.122
325.005
324.781
324.467
324.085
323.66
323.213
322.766
322.349
322.034
315.75
315.973
316.27
316.589
316.909
317.213
317.485
317.71
317.87
317.953
317.953
317.87
317.71
317.485
317.213
316.909
316.589
316.27
315.973
315.75
309.462
309.595
309.774
309.965
310.157
310.34
310.503
310.638
310.734
310.784
310.784
310.734
310.638
310.503
310.34
310.157
309.965
309.774
309.595
309.462
303.172
303.217
303.276
303.34
303.405
303.466
303.521
303.566
303.598
303.615
303.615
303.598
303.566
303.521
303.466
303.405
303.34
303.276
303.217
303.172
348.2
348.88
349.724
350.613
351.496
352.333
353.08
353.692
354.129
354.356
354.356
354.129
353.692
353.08
352.333
351.496
350.613
349.724
348.88
348.2
341.798
342.374
343.102
343.871
344.636
345.361
346.008
346.539
346.917
347.114
347.114
346.917
346.539
346.008
345.361
344.636
343.871
343.102
342.374
341.798
335.387
335.864
336.478
337.128
337.776
338.389
338.936
339.385
339.705
339.871
339.871
339.705
339.385
338.936
338.389
337.776
337.128
336.478
335.864
335.387
328.968
329.352
329.852
330.384
330.914
331.416
331.864
332.231
332.492
332.628
332.628
332.492
332.231
331.864
331.416
330.914
330.384
329.852
329.352
328.968
322.543
322.838
323.226
323.64
324.052
324.442
324.79
325.076
325.279
325.385
325.385
325.279
325.076
324.79
324.442
324.052
323.64
323.226
322.838
322.543
316.113
316.322
316.599
316.894
317.189
317.467
317.716
317.92
318.065
318.141
318.141
318.065
317.92
317.716
317.467
317.189
316.894
316.599
316.322
316.113
309.68
309.805
309.971
310.148
310.325
310.492
310.642
310.764
310.851
310.897
310.897
310.851
310.764
310.642
310.492
310.325
310.148
309.971
309.805
309.68
303.245
303.287
303.342
303.402
303.461
303.517
303.567
303.608
303.638
303.653
303.653
303.638
303.608
303.567
303.517
303.461
303.402
303.342
303.287
303.245
349.431
350.064
350.846
351.666
352.476
353.239
353.917
354.471
354.864
355.069
355.069
354.864
354.471
353.917
353.239
352.476
351.666
350.846
350.064
349.431
342.862
343.398
344.073
344.783
345.485
346.146
346.734
347.213
347.554
347.731
347.731
347.554
347.213
346.734
346.146
345.485
344.783
344.073
343.398
342.862
336.286
336.73
337.299
337.899
338.493
339.053
339.55
339.955
340.244
340.393
340.393
340.244
339.955
339.55
339.053
338.493
337.899
337.299
336.73
336.286
329.702
330.06
330.524
331.015
331.501
331.958
332.365
332.697
332.933
333.055
333.055
332.933
332.697
332.365
331.958
331.501
331.015
330.524
330.06
329.702
323.114
323.388
323.748
324.13
324.508
324.864
325.18
325.438
325.622
325.717
325.717
325.622
325.438
325.18
324.864
324.508
324.13
323.748
323.388
323.114
316.521
316.715
316.971
317.244
317.514
317.769
317.995
318.179
318.31
318.378
318.378
318.31
318.179
317.995
317.769
317.514
317.244
316.971
316.715
316.521
309.925
310.041
310.195
310.358
310.521
310.673
310.809
310.92
310.999
311.039
311.039
310.999
310.92
310.809
310.673
310.521
310.358
310.195
310.041
309.925
303.327
303.366
303.417
303.472
303.527
303.578
303.623
303.661
303.687
303.701
303.701
303.687
303.661
303.623
303.578
303.527
303.472
303.417
303.366
303.327
350.798
351.386
352.108
352.861
353.601
354.294
354.907
355.406
355.759
355.942
355.942
355.759
355.406
354.907
354.294
353.601
352.861
352.108
351.386
350.798
344.045
344.542
345.165
345.817
346.459
347.06
347.591
348.023
348.329
348.488
348.488
348.329
348.023
347.591
347.06
346.459
345.817
345.165
344.542
344.045
337.285
337.697
338.222
338.773
339.316
339.825
340.275
340.64
340.899
341.033
341.033
340.899
340.64
340.275
339.825
339.316
338.773
338.222
337.697
337.285
330.518
330.85
331.278
331.729
332.174
332.59
332.958
333.257
333.469
333.579
333.579
333.469
333.257
332.958
332.59
332.174
331.729
331.278
330.85
330.518
323.748
324.002
324.335
324.685
325.031
325.355
325.641
325.874
326.038
326.124
326.124
326.038
325.874
325.641
325.355
325.031
324.685
324.335
324.002
323.748
316.973
317.154
317.39
317.641
317.888
318.119
318.324
318.49
318.608
318.669
318.669
318.608
318.49
318.324
318.119
317.888
317.641
317.39
317.154
316.973
310.197
310.304
310.446
310.597
310.745
310.884
311.007
311.107
311.177
311.214
311.214
311.177
311.107
311.007
310.884
310.745
310.597
310.446
310.304
310.197
303.418
303.454
303.502
303.552
303.602
303.648
303.69
303.723
303.747
303.759
303.759
303.747
303.723
303.69
303.648
303.602
303.552
303.502
303.454
303.418
352.305
352.848
353.513
354.202
354.876
355.504
356.057
356.505
356.821
356.984
356.984
356.821
356.505
356.057
355.504
354.876
354.202
353.513
352.848
352.305
345.348
345.807
346.381
346.978
347.562
348.107
348.586
348.974
349.248
349.39
349.39
349.248
348.974
348.586
348.107
347.562
346.978
346.381
345.807
345.348
338.385
338.766
339.25
339.755
340.249
340.71
341.115
341.444
341.676
341.796
341.796
341.676
341.444
341.115
340.71
340.249
339.755
339.25
338.766
338.385
331.417
331.724
332.118
332.531
332.936
333.313
333.645
333.914
334.104
334.202
334.202
334.104
333.914
333.645
333.313
332.936
332.531
332.118
331.724
331.417
324.446
324.682
324.988
325.309
325.624
325.917
326.175
326.384
326.532
326.608
326.608
326.532
326.384
326.175
325.917
325.624
325.309
324.988
324.682
324.446
317.472
317.639
317.857
318.086
318.311
318.521
318.706
318.855
318.96
319.015
319.015
318.96
318.855
318.706
318.521
318.311
318.086
317.857
317.639
317.472
310.496
310.595
310.726
310.864
310.999
311.125
311.236
311.326
311.389
311.422
311.422
311.389
311.326
311.236
311.125
310.999
310.864
310.726
310.595
310.496
303.518
303.552
303.596
303.642
303.687
303.729
303.766
303.797
303.818
303.829
303.829
303.818
303.797
303.766
303.729
303.687
303.642
303.596
303.552
303.518
353.95
354.451
355.061
355.691
356.303
356.871
357.368
357.769
358.051
358.197
358.197
358.051
357.769
357.368
356.871
356.303
355.691
355.061
354.451
353.95
346.77
347.194
347.721
348.266
348.797
349.289
349.72
350.068
350.313
350.439
350.439
350.313
350.068
349.72
349.289
348.797
348.266
347.721
347.194
346.77
339.586
339.938
340.382
340.843
341.292
341.709
342.074
342.368
342.575
342.682
342.682
342.575
342.368
342.074
341.709
341.292
340.843
340.382
339.938
339.586
332.399
332.681
333.044
333.421
333.788
334.13
334.428
334.669
334.839
334.926
334.926
334.839
334.669
334.428
334.13
333.788
333.421
333.044
332.681
332.399
325.209
325.426
325.706
326
326.286
326.551
326.784
326.971
327.103
327.171
327.171
327.103
326.971
326.784
326.551
326.286
326
325.706
325.426
325.209
318.016
318.17
318.37
318.58
318.784
318.974
319.14
319.274
319.368
319.417
319.417
319.368
319.274
319.14
318.974
318.784
318.58
318.37
318.17
318.016
310.823
310.914
311.034
311.16
311.283
311.397
311.497
311.577
311.634
311.663
311.663
311.634
311.577
311.497
311.397
311.283
311.16
311.034
310.914
310.823
303.628
303.659
303.699
303.741
303.782
303.82
303.854
303.881
303.9
303.91
303.91
303.9
303.881
303.854
303.82
303.782
303.741
303.699
303.659
303.628
355.728
356.19
356.749
357.323
357.878
358.39
358.837
359.196
359.448
359.578
359.578
359.448
359.196
358.837
358.39
357.878
357.323
356.749
356.19
355.728
348.307
348.697
349.18
349.677
350.158
350.602
350.99
351.301
351.52
351.632
351.632
351.52
351.301
350.99
350.602
350.158
349.677
349.18
348.697
348.307
340.883
341.206
341.613
342.034
342.441
342.818
343.146
343.409
343.594
343.689
343.689
343.594
343.409
343.146
342.818
342.441
342.034
341.613
341.206
340.883
333.457
333.718
334.05
334.394
334.727
335.035
335.304
335.519
335.671
335.749
335.749
335.671
335.519
335.304
335.035
334.727
334.394
334.05
333.718
333.457
326.031
326.23
326.488
326.755
327.015
327.255
327.464
327.632
327.749
327.81
327.81
327.749
327.632
327.464
327.255
327.015
326.755
326.488
326.23
326.031
318.603
318.744
318.928
319.119
319.305
319.476
319.625
319.745
319.83
319.873
319.873
319.83
319.745
319.625
319.476
319.305
319.119
318.928
318.744
318.603
311.175
311.259
311.369
311.484
311.595
311.698
311.788
311.86
311.911
311.937
311.937
311.911
311.86
311.788
311.698
311.595
311.484
311.369
311.259
311.175
303.746
303.774
303.811
303.849
303.887
303.921
303.951
303.976
303.993
304.001
304.001
303.993
303.976
303.951
303.921
303.887
303.849
303.811
303.774
303.746
357.622
358.046
358.558
359.081
359.584
360.046
360.447
360.769
360.993
361.109
361.109
360.993
360.769
360.447
360.046
359.584
359.081
358.558
358.046
357.622
349.94
350.299
350.741
351.194
351.63
352.031
352.379
352.658
352.853
352.953
352.953
352.853
352.658
352.379
352.031
351.63
351.194
350.741
350.299
349.94
342.259
342.557
342.929
343.312
343.682
344.022
344.316
344.552
344.718
344.803
344.803
344.718
344.552
344.316
344.022
343.682
343.312
342.929
342.557
342.259
334.579
334.819
335.123
335.436
335.739
336.017
336.258
336.452
336.587
336.656
336.656
336.587
336.452
336.258
336.017
335.739
335.436
335.123
334.819
334.579
326.901
327.085
327.32
327.564
327.8
328.016
328.204
328.355
328.46
328.514
328.514
328.46
328.355
328.204
328.016
327.8
327.564
327.32
327.085
326.901
319.223
319.353
319.521
319.696
319.864
320.019
320.153
320.261
320.336
320.375
320.375
320.336
320.261
320.153
320.019
319.864
319.696
319.521
319.353
319.223
311.547
311.624
311.725
311.83
311.931
312.024
312.105
312.169
312.214
312.238
312.238
312.214
312.169
312.105
312.024
311.931
311.83
311.725
311.624
311.547
303.871
303.896
303.93
303.965
303.999
304.03
304.057
304.079
304.094
304.102
304.102
304.094
304.079
304.057
304.03
303.999
303.965
303.93
303.896
303.871
359.582
359.972
360.441
360.918
361.375
361.793
362.154
362.443
362.644
362.747
362.747
362.644
362.443
362.154
361.793
361.375
360.918
360.441
359.972
359.582
351.623
351.953
352.358
352.772
353.168
353.531
353.844
354.095
354.269
354.359
354.359
354.269
354.095
353.844
353.531
353.168
352.772
352.358
351.953
351.623
343.671
343.945
344.286
344.637
344.973
345.28
345.546
345.758
345.906
345.982
345.982
345.906
345.758
345.546
345.28
344.973
344.637
344.286
343.945
343.671
335.726
335.947
336.225
336.512
336.787
337.039
337.257
337.431
337.552
337.614
337.614
337.552
337.431
337.257
337.039
336.787
336.512
336.225
335.947
335.726
327.788
327.957
328.173
328.396
328.611
328.807
328.976
329.111
329.206
329.254
329.254
329.206
329.111
328.976
328.807
328.611
328.396
328.173
327.957
327.788
319.854
319.974
320.128
320.288
320.441
320.581
320.702
320.799
320.867
320.901
320.901
320.867
320.799
320.702
320.581
320.441
320.288
320.128
319.974
319.854
311.924
311.996
312.088
312.184
312.276
312.361
312.433
312.492
312.532
312.553
312.553
312.532
312.492
312.433
312.361
312.276
312.184
312.088
311.996
311.924
303.997
304.021
304.052
304.084
304.115
304.143
304.167
304.187
304.201
304.208
304.208
304.201
304.187
304.167
304.143
304.115
304.084
304.052
304.021
303.997
361.481
361.842
362.274
362.712
363.13
363.511
363.839
364.1
364.282
364.375
364.375
364.282
364.1
363.839
363.511
363.13
362.712
362.274
361.842
361.481
353.233
353.538
353.912
354.293
354.656
354.987
355.272
355.499
355.657
355.738
355.738
355.657
355.499
355.272
354.987
354.656
354.293
353.912
353.538
353.233
345.007
345.261
345.577
345.899
346.207
346.488
346.73
346.923
347.057
347.126
347.126
347.057
346.923
346.73
346.488
346.207
345.899
345.577
345.261
345.007
336.802
337.006
337.264
337.528
337.781
338.011
338.21
338.368
338.478
338.534
338.534
338.478
338.368
338.21
338.011
337.781
337.528
337.264
337.006
336.802
328.613
328.77
328.97
329.176
329.373
329.553
329.707
329.83
329.916
329.96
329.96
329.916
329.83
329.707
329.553
329.373
329.176
328.97
328.77
328.613
320.438
320.549
320.692
320.839
320.98
321.109
321.219
321.307
321.369
321.4
321.4
321.369
321.307
321.219
321.109
320.98
320.839
320.692
320.549
320.438
312.273
312.339
312.425
312.513
312.598
312.675
312.742
312.795
312.832
312.85
312.85
312.832
312.795
312.742
312.675
312.598
312.513
312.425
312.339
312.273
304.113
304.135
304.164
304.194
304.222
304.248
304.27
304.288
304.301
304.307
304.307
304.301
304.288
304.27
304.248
304.222
304.194
304.164
304.135
304.113
362.98
363.319
363.726
364.137
364.528
364.883
365.188
365.43
365.599
365.685
365.685
365.599
365.43
365.188
364.883
364.528
364.137
363.726
363.319
362.98
354.455
354.744
355.096
355.454
355.795
356.105
356.371
356.583
356.73
356.805
356.805
356.73
356.583
356.371
356.105
355.795
355.454
355.096
354.744
354.455
345.99
346.23
346.529
346.833
347.123
347.386
347.613
347.793
347.918
347.982
347.982
347.918
347.793
347.613
347.386
347.123
346.833
346.529
346.23
345.99
337.573
337.767
338.011
338.261
338.499
338.716
338.902
339.05
339.153
339.205
339.205
339.153
339.05
338.902
338.716
338.499
338.261
338.011
337.767
337.573
329.194
329.343
329.533
329.728
329.914
330.083
330.228
330.343
330.424
330.465
330.465
330.424
330.343
330.228
330.083
329.914
329.728
329.533
329.343
329.194
320.843
320.949
321.084
321.224
321.357
321.478
321.582
321.665
321.722
321.752
321.752
321.722
321.665
321.582
321.478
321.357
321.224
321.084
320.949
320.843
312.512
312.575
312.657
312.74
312.821
312.893
312.956
313.006
313.041
313.058
313.058
313.041
313.006
312.956
312.893
312.821
312.74
312.657
312.575
312.512
304.193
304.214
304.241
304.269
304.296
304.321
304.342
304.358
304.37
304.376
304.376
304.37
304.358
304.342
304.321
304.296
304.269
304.241
304.214
304.193
)
;

boundaryField
{
    hotSide
    {
        type            fixedGradient;
        gradient        nonuniform List<scalar> 
400
(
448.666
449.724
451.851
455.067
459.404
464.898
471.592
479.534
488.773
499.357
511.332
524.745
539.635
556.038
573.988
593.511
614.63
637.364
661.728
687.734
462.01
462.962
464.881
467.796
471.745
476.78
482.957
490.337
498.982
508.955
520.314
533.115
547.406
563.231
580.626
599.624
620.249
642.521
666.455
692.062
476.45
477.277
478.949
481.504
484.997
489.491
495.062
501.788
509.749
519.024
529.683
541.796
555.419
570.604
587.392
605.819
625.911
647.689
671.167
696.355
491.749
492.428
493.813
495.953
498.918
502.792
507.672
513.658
520.851
529.346
539.233
550.592
563.49
577.986
594.127
611.95
631.484
652.748
675.756
700.516
507.478
507.992
509.054
510.729
513.105
516.293
520.412
525.59
531.949
539.608
548.671
559.233
571.372
585.154
600.629
617.836
636.805
657.553
680.093
704.429
522.981
523.319
524.036
525.215
526.968
529.431
532.754
537.09
542.59
549.391
557.618
567.378
578.76
591.834
606.655
623.263
641.686
661.94
684.034
707.969
537.371
537.532
537.906
538.592
539.728
541.478
544.021
547.54
552.21
558.19
565.623
574.628
585.301
597.719
611.938
627.998
645.925
665.733
687.427
711.006
549.585
549.586
549.651
549.894
550.478
551.593
553.446
556.245
560.189
565.456
572.203
580.56
590.63
602.492
616.205
631.807
649.322
668.762
690.128
713.414
558.523
558.402
558.23
558.135
558.299
558.932
560.264
562.522
565.923
570.66
576.899
584.779
594.406
605.864
619.21
634.481
651.7
670.876
692.008
715.087
563.259
563.072
562.77
562.492
562.427
562.8
563.85
565.817
568.926
573.379
579.348
586.973
596.367
607.611
620.763
635.861
652.925
671.964
692.973
715.945
563.259
563.072
562.77
562.492
562.427
562.8
563.85
565.817
568.926
573.379
579.348
586.973
596.367
607.611
620.763
635.861
652.925
671.964
692.973
715.945
558.523
558.402
558.23
558.135
558.299
558.932
560.264
562.522
565.923
570.66
576.899
584.779
594.406
605.864
619.21
634.481
651.7
670.876
692.008
715.087
549.585
549.586
549.651
549.894
550.478
551.593
553.446
556.245
560.189
565.456
572.203
580.56
590.63
602.492
616.205
631.807
649.322
668.762
690.128
713.414
537.371
537.532
537.906
538.592
539.728
541.478
544.021
547.54
552.21
558.19
565.623
574.628
585.301
597.719
611.938
627.998
645.925
665.733
687.427
711.006
522.981
523.319
524.036
525.215
526.968
529.431
532.754
537.09
542.59
549.391
557.618
567.378
578.76
591.834
606.655
623.263
641.686
661.94
684.034
707.969
507.478
507.992
509.054
510.729
513.105
516.293
520.412
525.59
531.949
539.608
548.671
559.233
571.372
585.154
600.629
617.836
636.805
657.553
680.093
704.429
491.749
492.428
493.813
495.953
498.918
502.792
507.672
513.658
520.851
529.346
539.233
550.592
563.49
577.986
594.127
611.95
631.484
652.748
675.756
700.516
476.45
477.277
478.949
481.504
484.997
489.491
495.062
501.788
509.749
519.024
529.683
541.796
555.419
570.604
587.392
605.819
625.911
647.689
671.167
696.355
462.01
462.962
464.881
467.796
471.745
476.78
482.957
490.337
498.982
508.955
520.314
533.115
547.406
563.231
580.626
599.624
620.249
642.521
666.455
692.062
448.666
449.724
451.851
455.067
459.404
464.898
471.592
479.534
488.773
499.357
511.332
524.745
539.635
556.038
573.988
593.511
614.63
637.364
661.728
687.734
)
;
    }
    coldSide
    {
        type            mixed;
        refValue        uniform 300;
        refGradient     uniform 0;
        valueFraction   uniform 0.991591;
        source          uniform 0;
        value           nonuniform List<scalar> 
400
(
300.024
300.024
300.024
300.024
300.025
300.025
300.025
300.026
300.026
300.027
300.027
300.028
300.029
300.03
300.031
300.032
300.033
300.034
300.035
300.035
300.025
300.025
300.025
300.025
300.025
300.025
300.026
300.026
300.027
300.027
300.028
300.028
300.029
300.03
300.031
300.032
300.033
300.034