/*--------------------------------*- C++ -*----------------------------------*\
| =========                 |                                                 |
| \\      /  F ield         | OpenFOAM: The Open Source CFD Toolbox           |
|  \\    /   O peration     | Version:  2212                                  |
|   \\  /    A nd           | Website:  www.openfoam.com                      |
|    \\/     M anipulation  |                                                 |
\*---------------------------------------------------------------------------*/
FoamFile
{
    version     2.0;
    format      ascii;
    arch        "LSB;label=32;scalar=64";
    class       volScalarField;
    location    "0";
    object      T;
}
// * * * * * * * * * * * * * * * * * * * * * * * * * * * * * * * * * * * * * //

dimensions      [0 0 0 1 0 0 0];

internalField   nonuniform List<scalar> 
3200
(
344.756
345.543
346.581
347.355
348.053
349.098
349.427
349.963
350.259
350.229
350.023
349.919
349.387
348.977
348.373
347.331
346.394
345.458
344.391
343.126
338.841
339.521
340.369
341.061
341.642
342.58
342.867
343.32
343.57
343.519
343.389
343.306
342.83
342.444
341.941
341.047
340.201
339.399
338.472
337.417
332.924
333.453
334.178
334.747
335.286
336.018
336.263
336.643
336.878
336.848
336.728
336.663
336.28
335.877
335.478
334.774
333.978
333.317
332.577
331.699
326.972
327.378
328.02
328.41
328.896
329.469
329.656
329.966
330.176
330.186
330.094
330.014
329.677
329.344
329.028
328.488
327.813
327.267
326.693
326.002
320.991
321.292
321.833
322.081
322.525
322.872
323.044
323.301
323.462
323.476
323.428
323.344
323.088
322.809
322.589
322.191
321.626
321.273
320.808
320.243
315.021
315.201
315.629
315.806
316.128
316.312
316.454
316.632
316.8
316.779
316.744
316.697
316.537
316.287
316.132
315.869
315.457
315.237
314.896
314.474
309.037
309.13
309.407
309.495
309.692
309.831
309.884
310.009
310.094
310.07
310.056
310.007
309.968
309.772
309.696
309.497
309.291
309.14
308.946
308.721
303.05
303.041
303.157
303.201
303.222
303.291
303.319
303.36
303.372
303.367
303.368
303.344
303.337
303.286
303.264
303.196
303.132
303.059
302.994
302.943
345.455
346.355
347.309
348.267
349
349.807
350.202
350.695
351.073
350.973
351.1
350.929
350.28
349.87
349.233
348.145
347.118
346.378
345.444
344.109
339.4
340.182
341.032
341.787
342.386
343.143
343.485
343.897
344.264
344.191
344.28
344.138
343.493
343.22
342.617
341.686
340.788
340.2
339.338
338.239
333.349
333.992
334.763
335.317
335.787
336.474
336.712
337.1
337.437
337.427
337.494
337.371
336.751
336.578
335.998
335.276
334.493
334.048
333.268
332.318
327.281
327.834
328.445
328.915
329.271
329.835
329.982
330.298
330.61
330.62
330.68
330.56
330.055
329.891
329.41
328.924
328.231
327.885
327.213
326.424
321.218
321.666
322.118
322.495
322.792
323.179
323.324
323.544
323.774
323.821
323.858
323.705
323.389
323.262
322.888
322.512
321.945
321.726
321.175
320.567
315.15
315.484
315.796
316.076
316.262
316.547
316.687
316.818
316.955
317.054
317.041
316.931
316.721
316.646
316.364
316.068
315.662
315.56
315.157
314.708
309.068
309.323
309.496
309.659
309.789
309.917
310.048
310.088
310.175
310.23
310.238
310.159
310.053
309.996
309.798
309.664
309.397
309.327
309.125
308.822
303.062
303.109
303.191
303.232
303.292
303.335
303.36
303.37
303.418
303.428
303.43
303.384
303.378
303.341
303.28
303.257
303.148
303.111
303.056
302.958
346.594
347.485
348.266
349.286
350.052
350.877
351.417
351.816
352.138
352.054
352.052
351.919
351.516
350.967
350.111
349.442
348.249
347.306
346.055
344.851
340.353
341.137
341.836
342.646
343.29
344.007
344.552
344.851
345.117
345.089
345.079
344.936
344.621
344.103
343.379
342.755
341.761
340.943
339.869
338.859
334.112
334.767
335.426
336.025
336.589
337.131
337.707
337.89
338.093
338.135
338.125
337.986
337.776
337.277
336.673
336.161
335.295
334.62
333.671
332.838
327.926
328.428
329.023
329.489
329.935
330.375
330.823
330.962
331.162
331.235
331.186
331.075
330.914
330.458
329.92
329.586
328.871
328.335
327.553
326.859
321.72
322.082
322.575
322.946
323.298
323.639
323.95
324.064
324.223
324.334
324.286
324.163
324.029
323.668
323.281
323.021
322.427
322.083
321.424
320.865
315.509
315.76
316.1
316.388
316.65
316.909
317.102
317.191
317.318
317.394
317.347
317.248
317.161
316.885
316.607
316.436
316.01
315.8
315.319
314.915
309.291
309.467
309.659
309.817
309.983
310.162
310.259
310.341
310.414
310.469
310.439
310.343
310.31
310.139
309.961
309.873
309.594
309.518
309.202
308.962
303.111
303.172
303.244
303.283
303.339
303.405
303.427
303.487
303.491
303.501
303.503
303.454
303.457
303.403
303.343
303.302
303.208
303.201
303.08
302.999
347.474
348.592
349.643
350.487
351.456
351.896
352.74
353.031
353.302
353.359
353.347
353.018
352.548
352.173
351.354
350.701
349.67
348.405
347.124
346.078
341.1
342.066
342.985
343.682
344.526
344.929
345.662
345.875
346.129
346.222
346.236
345.903
345.454
345.142
344.479
343.902
343.018
341.875
340.775
339.928
334.769
335.555
336.338
336.939
337.662
337.999
338.616
338.77
339.01
339.135
339.11
338.836
338.424
338.146
337.576
337.108
336.4
335.37
334.456
333.765
328.472
329.033
329.719
330.211
330.803
331.073
331.562
331.682
331.889
332.022
331.96
331.77
331.415
331.191
330.7
330.363
329.766
328.894
328.169
327.613
322.179
322.569
323.115
323.511
323.918
324.161
324.529
324.617
324.775
324.898
324.836
324.695
324.463
324.233
323.888
323.596
323.132
322.441
321.928
321.425
315.85
316.146
316.509
316.811
317.073
317.251
317.499
317.543
317.667
317.731
317.775
317.654
317.478
317.247
317.057
316.875
316.518
315.987
315.664
315.306
309.518
309.73
309.916
310.115
310.254
310.355
310.488
310.539
310.592
310.603
310.682
310.624
310.534
310.329
310.243
310.162
309.898
309.598
309.419
309.187
303.186
303.253
303.324
303.401
303.432
303.477
303.486
303.514
303.533
303.559
303.587
303.551
303.559
303.445
303.42
303.411
303.305
303.239
303.173
303.093
348.574
349.655
350.741
351.659
352.63
353.293
353.903
354.44
354.394
354.638
354.574
354.481
354.068
353.354
352.757
351.846
350.843
349.559
348.231
347.122
342.078
343.022
343.939
344.749
345.558
346.104
346.71
347.122
347.066
347.307
347.259
347.21
346.792
346.17
345.654
344.901
344.028
342.834
341.75
340.831
335.615
336.427
337.134
337.862
338.496
338.942
339.484
339.817
339.75
340.015
339.93
339.895
339.579
339.016
338.574
337.975
337.196
336.144
335.359
334.6
329.146
329.825
330.363
331.036
331.48
331.834
332.259
332.54
332.504
332.723
332.6
332.611
332.332
331.911
331.53
331.051
330.386
329.516
328.902
328.292
322.701
323.211
323.603
324.166
324.469
324.741
325.047
325.295
325.294
325.401
325.273
325.32
325.101
324.8
324.494
324.121
323.664
322.923
322.438
321.99
316.238
316.575
316.855
317.298
317.507
317.675
317.865
318.082
318.09
318.129
318.055
318.072
317.915
317.746
317.504
317.255
316.926
316.35
315.998
315.695
309.764
309.995
310.15
310.413
310.507
310.628
310.723
310.889
310.857
310.881
310.87
310.884
310.783
310.651
310.521
310.389
310.16
309.804
309.58
309.401
303.27
303.364
303.4
303.471
303.533
303.544
303.593
303.647
303.649
303.629
303.656
303.661
303.628
303.568
303.513
303.472
303.399
303.285
303.225
303.144
349.51
350.616
351.728
352.965
353.829
354.455
355.09
355.471
355.699
355.967
355.793
355.638
355.297
354.274
353.901
352.862
351.947
350.652
349.378
348.235
342.879
343.813
344.763
345.882
346.584
347.097
347.687
348.031
348.201
348.434
348.298
348.132
347.863
346.957
346.644
345.721
344.998
343.818
342.77
341.795
336.28
337.04
337.852
338.825
339.387
339.811
340.31
340.552
340.716
340.948
340.826
340.649
340.472
339.668
339.42
338.647
338.077
336.999
336.134
335.358
329.667
330.289
330.956
331.804
332.193
332.497
332.981
333.14
333.295
333.459
333.394
333.251
333.116
332.446
332.263
331.6
331.112
330.292
329.535
328.924
323.075
323.594
324.06
324.774
325.023
325.234
325.66
325.756
325.879
326.014
325.966
325.857
325.741
325.208
325.108
324.583
324.197
323.592
322.96
322.477
316.485
316.879
317.191
317.703
317.879
318.001
318.357
318.404
318.471
318.622
318.561
318.493
318.375
317.979
317.923
317.586
317.298
316.863
316.37
316.048
309.891
310.149
310.299
310.67
310.739
310.8
311.036
311.065
311.086
311.204
311.169
311.121
311.007
310.773
310.758
310.53
310.415
310.147
309.815
309.621
303.317
303.408
303.441
303.583
303.616
303.628
303.725
303.704
303.687
303.755
303.74
303.726
303.69
303.618
303.606
303.531
303.511
303.414
303.295
303.232
350.641
351.616
352.825
354.096
354.709
355.663
356.223
356.472
356.777
356.961
356.991
356.567
356.374
355.471
354.759
353.765
352.772
351.676
350.185
349.194
343.911
344.709
345.697
346.829
347.366
348.183
348.669
348.878
349.16
349.275
349.327
348.977
348.812
347.982
347.387
346.505
345.676
344.709
343.447
342.599
337.167
337.829
338.653
339.602
340.058
340.726
341.156
341.358
341.591
341.624
341.711
341.439
341.289
340.499
340.087
339.278
338.654
337.785
336.705
336.011
330.424
330.944
331.608
332.407
332.753
333.287
333.628
333.802
334.01
334.031
334.094
333.916
333.795
333.093
332.799
332.102
331.652
330.92
329.981
329.43
323.635
324.101
324.572
325.183
325.46
325.857
326.127
326.244
326.467
326.508
326.492
326.354
326.306
325.734
325.51
324.934
324.647
324.031
323.29
322.86
316.889
317.202
317.54
317.951
318.19
318.492
318.644
318.763
318.922
318.955
318.892
318.819
318.823
318.391
318.206
317.811
317.596
317.165
316.643
316.327
310.182
310.296
310.517
310.777
310.929
311.116
311.192
311.271
311.385
311.391
311.345
311.293
311.334
311.058
310.924
310.686
310.559
310.314
310.001
309.805
303.43
303.456
303.519
303.622
303.664
303.719
303.762
303.768
303.83
303.811
303.802
303.776
303.801
303.694
303.655
303.575
303.543
303.484
303.326
303.29
351.447
352.667
353.782
354.865
355.792
356.662
357.375
357.697
357.868
357.925
358.052
357.693
357.42
356.479
355.758
354.696
353.661
352.513
351.045
350.096
344.584
345.652
346.564
347.493
348.314
349.011
349.669
349.946
350.063
350.126
350.271
349.945
349.715
348.823
348.206
347.262
346.438
345.443
344.183
343.407
337.734
338.611
339.363
340.125
340.848
341.377
342.001
342.228
342.289
342.343
342.489
342.223
342.032
341.219
340.685
339.877
339.243
338.393
337.295
336.736
330.922
331.601
332.17
332.819
333.437
333.817
334.336
334.513
334.57
334.592
334.77
334.532
334.384
333.662
333.212
332.562
332.082
331.386
330.462
330.083
324.057
324.538
324.999
325.562
326.019
326.335
326.722
326.853
326.845
326.856
327.036
326.862
326.752
326.17
325.765
325.268
324.951
324.397
323.71
323.421
317.202
317.509
317.858
318.286
318.591
318.8
319.099
319.169
319.157
319.156
319.347
319.179
319.121
318.709
318.446
318.047
317.814
317.432
316.964
316.732
310.339
310.514
310.711
311.019
311.173
311.274
311.461
311.506
311.475
311.494
311.612
311.486
311.5
311.216
311.063
310.824
310.69
310.49
310.188
310.058
303.464
303.53
303.602
303.695
303.75
303.767
303.83
303.864
303.868
303.841
303.905
303.844
303.862
303.762
303.713
303.636
303.585
303.527
303.43
303.389
352.529
353.603
354.77
355.918
356.734
357.393
358.255
358.787
358.976
358.876
358.888
358.498
358.144
357.288
356.696
355.68
354.612
353.454
351.946
350.968
345.512
346.421
347.428
348.386
349.102
349.616
350.436
350.923
351.054
350.986
350.957
350.599
350.328
349.538
349.067
348.189
347.209
346.262
344.98
344.172
338.546
339.283
340.112
340.887
341.529
341.902
342.64
343.046
343.128
343.071
343.106
342.748
342.496
341.854
341.417
340.743
339.845
339.08
338.039
337.393
331.562
332.175
332.783
333.39
333.992
334.273
334.828
335.212
335.235
335.199
335.203
334.94
334.707
334.183
333.827
333.337
332.555
331.916
331.085
330.578
324.549
325.022
325.515
325.915
326.463
326.653
327.065
327.366
327.409
327.322
327.352
327.131
326.948
326.538
326.28
325.844
325.307
324.756
324.152
323.758
317.538
317.903
318.234
318.493
318.916
318.996
319.328
319.568
319.621
319.48
319.537
319.338
319.251
318.93
318.761
318.388
318.063
317.648
317.203
316.959
310.543
310.808
310.943
311.087
311.318
311.393
311.634
311.781
311.815
311.678
311.732
311.59
311.531
311.341
311.275
310.991
310.866
310.627
310.295
310.135
303.528
303.629
303.672
303.711
303.781
303.814
303.892
303.942
303.95
303.891
303.957
303.892
303.865
303.796
303.788
303.67
303.657
303.566
303.439
303.399
353.186
354.4
355.188
356.51
357.562
358.355
359.022
359.453
359.732
359.827
359.704
359.322
359.014
358.329
357.644
356.675
355.498
354.138
352.923
351.912
346.061
347.106
347.719
348.915
349.812
350.492
351.095
351.453
351.701
351.742
351.677
351.327
351.054
350.469
349.876
349.094
348.02
346.885
345.821
344.97
338.982
339.837
340.315
341.296
342.124
342.727
343.21
343.468
343.688
343.688
343.661
343.397
343.165
342.689
342.124
341.517
340.607
339.648
338.749
338.041
331.94
332.599
332.963
333.758
334.438
334.955
335.393
335.487
335.687
335.703
335.678
335.492
335.255
334.913
334.396
333.98
333.162
332.428
331.704
331.117
324.894
325.328
325.625
326.25
326.752
327.229
327.559
327.592
327.718
327.729
327.762
327.608
327.383
327.108
326.72
326.411
325.73
325.2
324.636
324.191
317.822
318.079
318.329
318.731
319.119
319.441
319.688
319.717
319.8
319.822
319.847
319.718
319.548
319.303
319.088
318.85
318.368
317.969
317.592
317.283
310.691
310.837
311.036
311.284
311.472
311.678
311.815
311.828
311.917
311.928
311.941
311.855
311.718
311.554
311.471
311.311
311.013
310.784
310.555
310.377
303.588
303.632
303.697
303.763
303.848
303.913
303.979
303.979
303.965
303.98
304.003
303.971
303.925
303.873
303.839
303.783
303.683
303.626
303.56
303.468
353.95
355.226
355.998
357.277
358.409
359.27
359.643
360.08
360.533
360.711
360.443
360.198
359.736
359.186
358.22
357.305
356.103
354.833
353.676
352.275
346.765
347.827
348.448
349.581
350.518
351.349
351.607
351.964
352.419
352.537
352.283
352.104
351.711
351.21
350.352
349.585
348.537
347.46
346.481
345.324
339.587
340.432
340.958
341.931
342.664
343.449
343.632
343.907
344.31
344.379
344.175
344.048
343.726
343.23
342.542
341.91
341.033
340.126
339.29
338.415
332.394
333.024
333.491
334.275
334.84
335.553
335.69
335.864
336.251
336.253
336.129
335.986
335.677
335.304
334.755
334.272
333.514
332.827
332.117
331.458
325.192
325.672
326.021
326.621
327.06
327.648
327.785
327.9
328.199
328.181
328.068
327.945
327.7
327.416
327.018
326.623
326.003
325.509
324.981
324.447
317.999
318.36
318.573
319.045
319.315
319.753
319.882
319.962
320.164
320.142
320.065
319.947
319.73
319.576
319.272
318.951
318.568
318.26
317.835
317.47
310.824
311.065
311.134
311.441
311.602
311.864
311.936
312.031
312.082
312.099
312.062
311.939
311.794
311.764
311.546
311.354
311.127
310.962
310.698
310.498
303.623
303.709
303.709
303.835
303.895
303.971
304.001
304.04
304.043
304.065
304.043
304
303.94
303.941
303.874
303.803
303.735
303.677
303.576
303.517
354.48
355.823
356.738
357.918
359.136
359.841
360.293
361.016
361.409
361.36
361.135
360.824
360.516
359.897
358.883
357.781
356.786
355.482
354.184
352.965
347.162
348.334
349.123
350.152
351.184
351.824
352.151
352.831
353.137
353.098
352.933
352.647
352.386
351.814
350.955
349.987
349.103
348.025
346.927
345.853
339.857
340.862
341.554
342.372
343.27
343.841
344.099
344.66
344.911
344.881
344.726
344.52
344.253
343.759
343.052
342.229
341.469
340.577
339.694
338.752
332.607
333.437
333.976
334.637
335.389
335.852
336.092
336.503
336.739
336.681
336.528
336.408
336.183
335.77
335.157
334.489
333.877
333.17
332.455
331.709
325.39
325.99
326.421
326.915
327.532
327.881
328.08
328.413
328.585
328.535
328.375
328.263
328.145
327.789
327.287
326.803
326.307
325.796
325.239
324.641
318.155
318.544
318.866
319.255
319.621
319.948
320.094
320.313
320.42
320.362
320.25
320.155
320.13
319.848
319.468
319.126
318.772
318.417
318.021
317.58
310.896
311.138
311.33
311.591
311.755
311.982
312.076
312.177
312.258
312.24
312.173
312.113
312.101
311.893
311.684
311.469
311.264
311.018
310.8
310.59
303.648
303.734
303.8
303.872
303.93
304.026
304.058
304.091
304.105
304.108
304.098
304.051
304.064
303.993
303.916
303.834
303.773
303.681
303.601
303.548
354.71
356.147
357.349
358.716
359.822
360.406
360.915
361.682
361.994
362.118
361.973
361.512
361.236
360.528
359.53
358.426
357.237
355.996
354.793
353.489
347.357
348.613
349.624
350.827
351.786
352.32
352.761
353.35
353.674
353.788
353.663
353.216
353.015
352.357
351.531
350.553
349.524
348.444
347.427
346.321
340.031
341.101
341.957
342.949
343.786
344.275
344.625
345.061
345.379
345.452
345.357
344.988
344.753
344.244
343.544
342.688
341.863
340.927
340.095
339.172
332.71
333.573
334.307
335.127
335.766
336.241
336.508
336.825
337.024
337.189
337.105
336.762
336.536
336.183
335.576
334.846
334.215
333.45
332.826
332
325.423
326.045
326.681
327.274
327.798
328.224
328.388
328.626
328.753
328.933
328.854
328.571
328.39
328.117
327.654
327.04
326.606
325.985
325.516
324.884
318.179
318.516
319.049
319.467
319.847
320.154
320.291
320.415
320.563
320.628
320.624
320.404
320.298
320.064
319.747
319.263
318.993
318.539
318.218
317.778
310.865
311.096
311.405
311.665
311.901
312.114
312.197
312.26
312.359
312.388
312.387
312.254
312.224
312.018
311.856
311.579
311.419
311.117
310.949
310.645
303.642
303.73
303.828
303.906
303.992
304.059
304.084
304.107
304.147
304.132
304.164
304.092
304.105
304.03
303.984
303.89
303.831
303.711
303.672
303.563
355.225
356.533
357.847
359.084
360.093
360.95
361.398
362.126
362.546
362.556
362.527
361.989
361.743
360.754
359.967
359.031
357.757
356.51
355.051
353.814
347.801
348.907
350.026
351.122
352.011
352.729
353.183
353.767
354.189
354.15
354.087
353.651
353.42
352.576
351.9
351.078
349.994
348.901
347.623
346.605
340.404
341.332
342.276
343.187
343.953
344.572
344.953
345.392
345.892
345.792
345.686
345.289
345.104
344.374
343.885
343.159
342.287
341.323
340.26
339.383
333.024
333.783
334.562
335.28
335.94
336.437
336.755
336.99
337.511
337.442
337.337
336.998
336.864
336.251
335.888
335.293
334.536
333.749
332.918
332.179
325.71
326.281
326.885
327.436
327.994
328.356
328.554
328.67
329.119
329.162
328.995
328.732
328.641
328.147
327.934
327.472
326.817
326.242
325.572
324.988
318.438
318.764
319.164
319.621
320
320.312
320.4
320.473
320.761
320.857
320.734
320.49
320.423
320.076
319.966
319.602
319.164
318.731
318.266
317.812
311.098
311.247
311.495
311.788
311.974
312.199
312.245
312.284
312.491
312.538
312.467
312.292
312.253
312.035
311.992
311.726
311.493
311.217
310.948
310.708
303.721
303.779
303.867
303.95
303.995
304.073
304.121
304.134
304.179
304.208
304.191
304.111
304.106
304.023
304.018
303.927
303.845
303.769
303.665
303.584
355.768
356.834
358.257
359.292
360.544
361.283
361.813
362.465
362.903
362.84
362.926
362.468
361.911
361.092
360.359
359.333
358.206
356.977
355.507
354.135
348.292
349.154
350.458
351.283
352.379
353.03
353.486
354.114
354.403
354.376
354.462
354.039
353.572
352.846
352.231
351.339
350.346
349.279
348.049
346.887
340.813
341.549
342.691
343.343
344.249
344.785
345.244
345.732
345.97
345.979
346.05
345.671
345.289
344.635
344.183
343.355
342.538
341.627
340.617
339.633
333.375
333.96
334.934
335.383
336.129
336.577
337.036
337.383
337.576
337.583
337.635
337.305
337.024
336.46
336.083
335.41
334.77
333.984
333.187
332.408
325.969
326.416
327.205
327.476
328.034
328.421
328.779
329.026
329.184
329.193
329.274
328.996
328.778
328.365
328.036
327.528
327.014
326.36
325.776
325.182
318.573
318.893
319.459
319.632
320.004
320.294
320.575
320.72
320.801
320.85
320.928
320.755
320.552
320.282
319.988
319.65
319.265
318.812
318.357
317.991
311.131
311.335
311.67
311.799
311.979
312.181
312.355
312.428
312.514
312.506
312.601
312.489
312.342
312.163
312.01
311.817
311.575
311.301
311.03
310.804
303.737
303.789
303.915
303.965
304.007
304.085
304.132
304.163
304.198
304.191
304.233
304.206
304.137
304.092
304.026
303.97
303.881
303.784
303.701
303.616
355.865
357.003
358.474
359.635
360.768
361.566
362.225
362.846
363.03
363.212
363.033
362.777
362.219
361.572
360.78
359.734
358.394
357.131
355.688
354.394
348.367
349.354
350.617
351.577
352.62
353.286
353.857
354.375
354.522
354.731
354.576
354.333
353.832
353.245
352.604
351.663
350.521
349.442
348.197
347.105
340.917
341.647
342.76
343.566
344.479
345.055
345.545
345.955
346.049
346.287
346.12
345.914
345.487
344.996
344.44
343.653
342.698
341.792
340.745
339.812
333.436
333.963
334.959
335.581
336.327
336.865
337.234
337.518
337.628
337.86
337.711
337.5
337.153
336.757
336.293
335.666
334.916
334.185
333.296
332.526
326.008
326.359
327.18
327.633
328.204
328.683
328.969
329.139
329.268
329.426
329.332
329.125
328.851
328.562
328.188
327.731
327.169
326.563
325.901
325.252
318.599
318.815
319.429
319.742
320.099
320.49
320.713
320.805
320.91
321.003
320.991
320.771
320.592
320.402
320.149
319.815
319.413
318.965
318.481
318.017
311.18
311.287
311.693
311.813
312.036
312.3
312.45
312.485
312.558
312.632
312.637
312.5
312.344
312.267
312.075
311.879
311.653
311.364
311.106
310.805
303.744
303.794
303.921
303.973
304.035
304.114
304.184
304.195
304.217
304.235
304.231
304.208
304.119
304.113
304.03
303.979
303.914
303.808
303.715
303.615
355.982
357.326
358.736
359.866
360.9
361.724
362.624
363.012
363.146
363.244
363.194
362.51
362.261
361.569
360.919
359.852
358.59
357.388
355.806
354.733
348.469
349.63
350.823
351.798
352.716
353.424
354.177
354.522
354.657
354.748
354.673
354.105
353.883
353.25
352.699
351.815
350.678
349.734
348.26
347.429
340.958
341.938
342.971
343.736
344.515
345.181
345.768
346.057
346.201
346.236
346.245
345.788
345.505
344.993
344.511
343.802
342.835
342.015
340.784
340.147
333.466
334.278
335.111
335.691
336.349
336.932
337.423
337.58
337.77
337.773
337.822
337.488
337.197
336.746
336.359
335.765
335.021
334.347
333.332
332.801
325.992
326.607
327.259
327.69
328.238
328.714
329.111
329.159
329.353
329.348
329.411
329.193
328.923
328.571
328.22
327.777
327.249
326.717
325.909
325.489
318.516
318.994
319.415
319.732
320.194
320.471
320.773
320.778
320.947
320.958
321.003
320.881
320.654
320.392
320.101
319.794
319.466
319.108
318.502
318.215
311.089
311.398
311.63
311.856
312.115
312.285
312.435
312.442
312.561
312.574
312.594
312.559
312.387
312.222
312.078
311.858
311.708
311.471
311.111
310.963
303.699
303.824
303.891
303.995
304.07
304.102
304.161
304.183
304.209
304.204
304.218
304.209
304.154
304.076
304.055
303.999
303.91
303.836
303.74
303.691
356.168
357.404
358.812
360.077
360.877
361.869
362.465
363.086
363.157
363.095
363.037
362.77
362.398
361.661
360.949
359.928
358.702
357.261
355.816
354.593
348.656
349.692
350.898
351.998
352.659
353.52
354.041
354.6
354.666
354.584
354.593
354.286
354.007
353.364
352.717
351.891
350.79
349.578
348.297
347.253
341.153
341.994
343.013
343.935
344.475
345.225
345.67
346.125
346.173
346.107
346.191
345.902
345.648
345.114
344.516
343.855
342.921
341.93
340.841
339.967
333.705
334.332
335.141
335.886
336.355
336.971
337.312
337.674
337.713
337.693
337.791
337.553
337.352
336.859
336.353
335.833
335.09
334.279
333.41
332.683
326.256
326.667
327.332
327.867
328.258
328.741
329.019
329.26
329.302
329.308
329.376
329.212
329.069
328.623
328.211
327.867
327.254
326.642
325.997
325.448
318.796
319.07
319.571
319.892
320.183
320.508
320.759
320.886
320.941
320.962
320.953
320.878
320.75
320.432
320.112
319.918
319.465
319.058
318.584
318.175
311.263
311.457
311.755
311.954
312.092
312.339
312.435
312.551
312.599
312.597
312.57
312.552
312.51
312.249
312.083
311.989
311.695
311.439
311.179
310.908
303.793
303.844
303.939
304.025
304.055
304.142
304.157
304.188
304.231
304.218
304.223
304.207
304.189
304.104
304.061
304.026
303.921
303.865
303.755
303.668
355.932
357.252
358.807
360.131
360.857
361.932
362.573
363.065
363.231
363.336
363.312
362.975
362.456
361.576
360.791
359.803
358.652
357.269
356.048
354.709
348.434
349.551
350.848
352.041
352.692
353.594
354.154
354.573
354.689
354.759
354.763
354.522
354.061
353.256
352.568
351.755
350.755
349.559
348.541
347.435
340.975
341.898
342.957
343.969
344.547
345.27
345.752
346.13
346.237
346.274
346.272
346.088
345.709
344.996
344.395
343.757
342.891
341.876
341.05
340.104
333.531
334.27
335.12
335.893
336.429
336.99
337.395
337.686
337.84
337.806
337.856
337.64
337.31
336.759
336.255
335.742
335.081
334.209
333.564
332.78
326.102
326.614
327.343
327.886
328.366
328.764
329.043
329.251
329.421
329.397
329.454
329.199
328.977
328.579
328.231
327.761
327.273
326.586
326.068
325.472
318.668
318.983
319.548
319.911
320.266
320.514
320.76
320.867
320.989
320.968
321.044
320.828
320.691
320.412
320.171
319.834
319.51
318.97
318.561
318.219
311.21
311.352
311.741
311.934
312.197
312.283
312.443
312.526
312.605
312.572
312.642
312.511
312.455
312.231
312.135
311.928
311.731
311.401
311.158
310.932
303.779
303.812
303.929
303.986
304.102
304.125
304.163
304.194
304.223
304.205
304.227
304.204
304.19
304.086
304.061
304.004
303.938
303.806
303.763
303.646
355.947
357.243
358.721
359.908
361.023
361.722
362.101
362.98
363.273
363.333
363.208
362.944
362.46
361.531
360.657
359.647
358.441
357.177
356.121
354.691
348.471
349.573
350.828
351.893
352.822
353.429
353.775
354.463
354.794
354.798
354.708
354.491
354.074
353.273
352.498
351.623
350.561
349.483
348.619
347.398
341.012
341.907
342.981
343.83
344.667
345.19
345.464
345.952
346.311
346.28
346.232
346.059
345.718
345.088
344.364
343.627
342.797
341.826
341.126
340.116
333.536
334.275
335.139
335.811
336.54
336.973
337.157
337.511
337.875
337.805
337.779
337.646
337.413
336.895
336.271
335.621
335.03
334.169
333.618
332.843
326.063
326.667
327.307
327.811
328.374
328.711
328.867
329.097
329.447
329.38
329.341
329.296
329.086
328.653
328.191
327.672
327.245
326.54
326.123
325.581
318.627
319.041
319.486
319.822
320.21
320.493
320.595
320.773
321.039
320.966
320.945
320.921
320.787
320.468
320.142
319.776
319.402
318.947
318.63
318.32
311.181
311.435
311.675
311.866
312.114
312.305
312.394
312.491
312.647
312.591
312.547
312.555
312.507
312.29
312.113
311.898
311.64
311.371
311.183
311.015
303.75
303.838
303.928
303.974
304.055
304.137
304.155
304.194
304.23
304.209
304.192
304.204
304.179
304.111
304.05
303.998
303.911
303.814
303.763
303.692
)
;

boundaryField
{
    hotSide
    {
        type            fixedGradient;
        gradient        nonuniform List<scalar> 
400
(
467.977
481.551
494.679
507.301
519.359
530.798
541.562
551.599
560.86
569.297
576.869
583.535
589.261
594.017
597.776
600.519
602.228
602.895
602.515
601.088
480.866
494.819
508.314
521.29
533.688
545.449
556.517
566.839
576.363
585.042
592.831
599.691
605.584
610.481
614.354
617.181
618.948
619.643
619.262
617.805
492.454
506.748
520.572
533.866
546.567
558.617
569.958
580.535
590.295
599.191
607.175
614.208
620.252
625.274
629.249
632.153
633.971
634.691
634.309
632.826
502.662
517.254
531.368
544.939
557.907
570.211
581.791
592.592
602.559
611.644
619.8
626.984
633.159
638.292
642.355
645.326
647.189
647.931
647.548
646.04
511.421
526.268
540.628
554.437
567.632
580.151
591.935
602.926
613.07
622.317
630.618
637.93
644.217
649.444
653.582
656.609
658.509
659.269
658.884
657.355
518.676
533.731
548.293
562.297
575.678
588.374
600.325
611.472
621.76
631.137
639.557
646.975
653.352
658.654
662.854
665.926
667.855
668.629
668.241
666.694
524.381
539.598
554.316
568.47
581.995
594.827
606.906
618.173
628.572
638.051
646.561
654.059
660.505
665.865
670.11
673.217
675.167
675.95
675.559
673.995
528.503
543.833
558.661
572.92
586.545
599.473
611.641
622.991
633.467
643.015
651.588
659.141
665.634
671.033
675.308
678.436
680.4
681.186
680.791
679.215
531.021
546.415
561.305
575.624
589.306
602.286
614.504
625.9
636.418
646.004
654.611
662.192
668.71
674.128
678.418
681.556
683.524
684.31
683.91
682.322
531.924
547.334
562.238
576.57
590.263
603.255
615.483
626.887
637.412
647.005
655.615
663.2
669.719
675.138
679.427
682.562
684.526
685.308
684.9
683.304
531.211
546.587
561.458
575.758
589.419
602.38
614.578
625.954
636.451
646.017
654.604
662.166
668.664
674.064
678.336
681.457
683.408
684.179
683.764
682.163
528.894
544.188
558.978
573.199
586.786
599.674
611.802
623.112
633.547
643.056
651.589
659.103
665.558
670.92
675.16
678.254
680.185
680.941
680.516
678.913
524.992
540.156
554.82
568.918
582.385
595.16
607.18
618.388
628.728
638.148
646.6
654.041
660.431
665.736
669.929
672.984
674.886
675.623
675.189
673.585
519.536
534.523
549.015
562.946
576.254
588.875
600.749
611.819
622.031
631.332
639.676
647.019
653.323
658.555
662.685
665.691
667.556
668.269
667.825
666.223
512.565
527.331
541.607
555.33
568.437
580.866
592.558
603.457
613.508
622.662
630.871
638.093
644.291
649.431
653.485
656.431
658.252
658.938
658.482
656.887
504.131
518.632
532.65
546.124
558.991
571.191
582.666
593.361
603.222
612.2
620.25
627.329
633.401
638.433
642.398
645.274
647.044
647.699
647.232
645.646
494.292
508.486
522.207
535.393
547.984
559.92
571.145
581.604
591.247
600.023
607.89
614.805
620.733
625.642
629.506
632.302
634.016
634.637
634.159
632.585
483.117
496.966
510.352
523.214
535.493
547.133
558.077
568.272
577.669
586.22
593.881
600.613
606.38
611.152
614.903
617.612
619.263
619.848
619.36
617.801
470.684
484.152
497.168
509.672
521.609
532.921
543.555
553.46
562.586
570.888
578.324
584.855
590.446
595.068
598.696
601.31
602.894
603.44
602.943
601.403
457.081
470.135
482.748
494.864
506.428
517.385
527.683
537.273
546.106
554.139
561.331
567.644
573.046
577.506
581.003
583.515
585.028
585.534
585.029
583.513
)
;
    }
    coldSide
    {
        type            mixed;
        refValue        uniform 300;
        refGradient     uniform 0;
        valueFraction   uniform 0.991591;
        source          uniform 0;
        value           nonuniform List<scalar> 
400
(
300.026
300.026
300.026
300.027
300.028
300.028
300.029
300.029
300.03
300.03
300.03
300.031
300.031
300.031
300.031
300.031
300.031
300.032
300.032
300.032
300.026
300.026
300.027
300.027
300.028
300.029
300.029
300.03
300.031
300.031
300.031
300.031
300.031
300.032
300.032
300.032
300.032
300.032
300.032
300.032