/*--------------------------------*- C++ -*----------------------------------*\
| =========                 |                                                 |
| \\      /  F ield         | OpenFOAM: The Open Source CFD Toolbox           |
|  \\    /   O peration     | Version:  2212                                  |
|   \\  /    A nd           | Website:  www.openfoam.com                      |
|    \\/     M anipulation  |                                                 |
\*---------------------------------------------------------------------------*/
FoamFile
{
    version     2.0;
    format      ascii;
    arch        "LSB;label=32;scalar=64";
    class       volScalarField;
    location    "0";
    object      Tdirect;
}
// * * * * * * * * * * * * * * * * * * * * * * * * * * * * * * * * * * * * * //

dimensions      [0 0 0 1 0 0 0];

internalField   nonuniform List<scalar> 
3200
(
343.047
343.318
343.664
344.041
344.429
344.81
345.162
345.459
345.675
345.789
345.789
345.675
345.459
345.162
344.81
344.429
344.041
343.664
343.318
343.047
337.25
337.48
337.778
338.104
338.44
338.77
339.074
339.33
339.517
339.616
339.616
339.517
339.33
339.074
338.77
338.44
338.104
337.778
337.48
337.25
331.479
331.669
331.92
332.196
332.48
332.758
333.015
333.231
333.389
333.472
333.472
333.389
333.231
333.015
332.758
332.48
332.196
331.92
331.669
331.479
325.729
325.882
326.087
326.312
326.544
326.772
326.982
327.158
327.287
327.355
327.355
327.287
327.158
326.982
326.772
326.544
326.312
326.087
325.882
325.729
319.998
320.115
320.274
320.449
320.63
320.806
320.969
321.107
321.206
321.259
321.259
321.206
321.107
320.969
320.806
320.63
320.449
320.274
320.115
319.998
314.281
314.364
314.477
314.602
314.731
314.857
314.973
315.071
315.143
315.18
315.18
315.143
315.071
314.973
314.857
314.731
314.602
314.477
314.364
314.281
308.574
308.624
308.691
308.766
308.844
308.92
308.989
309.048
309.091
309.114
309.114
309.091
309.048
308.989
308.92
308.844
308.766
308.691
308.624
308.574
302.873
302.89
302.913
302.938
302.964
302.989
303.013
303.032
303.047
303.054
303.054
303.047
303.032
303.013
302.989
302.964
302.938
302.913
302.89
302.873
343.224
343.493
343.836
344.209
344.594
344.97
345.318
345.611
345.825
345.937
345.937
345.825
345.611
345.318
344.97
344.594
344.209
343.836
343.493
343.224
337.403
337.631
337.926
338.25
338.582
338.908
339.209
339.462
339.646
339.744
339.744
339.646
339.462
339.209
338.908
338.582
338.25
337.926
337.631
337.403
331.608
331.797
332.046
332.319
332.6
332.875
333.129
333.343
333.498
333.58
333.58
333.498
333.343
333.129
332.875
332.6
332.319
332.046
331.797
331.608
325.835
325.986
326.19
326.413
326.642
326.867
327.075
327.249
327.376
327.443
327.443
327.376
327.249
327.075
326.867
326.642
326.413
326.19
325.986
325.835
320.08
320.196
320.354
320.527
320.706
320.881
321.042
321.177
321.276
321.328
321.328
321.276
321.177
321.042
320.881
320.706
320.527
320.354
320.196
320.08
314.339
314.422
314.534
314.658
314.785
314.91
315.025
315.122
315.192
315.229
315.229
315.192
315.122
315.025
314.91
314.785
314.658
314.534
314.422
314.339
308.609
308.658
308.726
308.8
308.876
308.951
309.02
309.078
309.121
309.143
309.143
309.121
309.078
309.02
308.951
308.876
308.8
308.726
308.658
308.609
302.885
302.902
302.924
302.949
302.975
303
303.023
303.042
303.057
303.064
303.064
303.057
303.042
303.023
303
302.975
302.949
302.924
302.902
302.885
343.579
343.843
344.18
344.547
344.923
345.292
345.631
345.917
346.125
346.235
346.235
346.125
345.917
345.631
345.292
344.923
344.547
344.18
343.843
343.579
337.709
337.933
338.224
338.541
338.867
339.186
339.48
339.727
339.906
340.001
340.001
339.906
339.727
339.48
339.186
338.867
338.541
338.224
337.933
337.709
331.866
332.052
332.297
332.565
332.84
333.11
333.358
333.566
333.718
333.798
333.798
333.718
333.566
333.358
333.11
332.84
332.565
332.297
332.052
331.866
326.046
326.195
326.395
326.614
326.839
327.059
327.262
327.432
327.556
327.621
327.621
327.556
327.432
327.262
327.059
326.839
326.614
326.395
326.195
326.046
320.243
320.358
320.513
320.683
320.858
321.029
321.187
321.319
321.415
321.466
321.466
321.415
321.319
321.187
321.029
320.858
320.683
320.513
320.358
320.243
314.456
314.537
314.648
314.769
314.894
315.016
315.129
315.223
315.292
315.328
315.328
315.292
315.223
315.129
315.016
314.894
314.769
314.648
314.537
314.456
308.679
308.728
308.794
308.867
308.942
309.015
309.083
309.139
309.18
309.202
309.202
309.18
309.139
309.083
309.015
308.942
308.867
308.794
308.728
308.679
302.909
302.925
302.947
302.971
302.997
303.021
303.044
303.063
303.077
303.084
303.084
303.077
303.063
303.044
303.021
302.997
302.971
302.947
302.925
302.909
344.111
344.369
344.698
345.054
345.42
345.776
346.104
346.38
346.58
346.686
346.686
346.58
346.38
346.104
345.776
345.42
345.054
344.698
344.369
344.111
338.169
338.388
338.671
338.98
339.296
339.605
339.889
340.127
340.3
340.391
340.391
340.3
340.127
339.889
339.605
339.296
338.98
338.671
338.388
338.169
332.254
332.436
332.675
332.935
333.203
333.464
333.703
333.904
334.05
334.127
334.127
334.05
333.904
333.703
333.464
333.203
332.935
332.675
332.436
332.254
326.362
326.508
326.703
326.916
327.135
327.348
327.544
327.708
327.827
327.89
327.89
327.827
327.708
327.544
327.348
327.135
326.916
326.703
326.508
326.362
320.49
320.602
320.753
320.918
321.088
321.254
321.406
321.534
321.626
321.675
321.675
321.626
321.534
321.406
321.254
321.088
320.918
320.753
320.602
320.49
314.632
314.711
314.819
314.937
315.058
315.177
315.285
315.376
315.442
315.477
315.477
315.442
315.376
315.285
315.177
315.058
314.937
314.819
314.711
314.632
308.785
308.832
308.896
308.967
309.04
309.111
309.176
309.231
309.271
309.292
309.292
309.271
309.231
309.176
309.111
309.04
308.967
308.896
308.832
308.785
302.944
302.96
302.981
303.005
303.03
303.053
303.075
303.094
303.107
303.114
303.114
303.107
303.094
303.075
303.053
303.03
303.005
302.981
302.96
302.944
344.822
345.072
345.39
345.733
346.085
346.427
346.74
347.003
347.194
347.294
347.294
347.194
347.003
346.74
346.427
346.085
345.733
345.39
345.072
344.822
338.784
338.996
339.27
339.567
339.871
340.167
340.438
340.666
340.83
340.917
340.917
340.83
340.666
340.438
340.167
339.871
339.567
339.27
338.996
338.784
332.773
332.949
333.18
333.431
333.688
333.938
334.167
334.359
334.498
334.571
334.571
334.498
334.359
334.167
333.938
333.688
333.431
333.18
332.949
332.773
326.786
326.927
327.116
327.321
327.531
327.736
327.923
328.08
328.193
328.253
328.253
328.193
328.08
327.923
327.736
327.531
327.321
327.116
326.927
326.786
320.818
320.927
321.073
321.233
321.396
321.555
321.7
321.822
321.91
321.957
321.957
321.91
321.822
321.7
321.555
321.396
321.233
321.073
320.927
320.818
314.866
314.943
315.047
315.161
315.278
315.391
315.495
315.582
315.645
315.678
315.678
315.645
315.582
315.495
315.391
315.278
315.161
315.047
314.943
314.866
308.925
308.971
309.034
309.102
309.172
309.24
309.303
309.355
309.393
309.412
309.412
309.393
309.355
309.303
309.24
309.172
309.102
309.034
308.971
308.925
302.991
303.006
303.027
303.05
303.074
303.097
303.118
303.135
303.148
303.154
303.154
303.148
303.135
303.118
303.097
303.074
303.05
303.027
303.006
302.991
345.712
345.953
346.258
346.587
346.922
347.246
347.543
347.791
347.97
348.064
348.064
347.97
347.791
347.543
347.246
346.922
346.587
346.258
345.953
345.712
339.553
339.757
340.02
340.305
340.594
340.876
341.132
341.347
341.502
341.583
341.583
341.502
341.347
341.132
340.876
340.594
340.305
340.02
339.757
339.553
333.422
333.592
333.813
334.054
334.299
334.536
334.753
334.934
335.065
335.134
335.134
335.065
334.934
334.753
334.536
334.299
334.054
333.813
333.592
333.422
327.316
327.452
327.633
327.83
328.03
328.224
328.401
328.549
328.656
328.712
328.712
328.656
328.549
328.401
328.224
328.03
327.83
327.633
327.452
327.316
321.23
321.335
321.475
321.628
321.783
321.934
322.072
322.187
322.27
322.314
322.314
322.27
322.187
322.072
321.934
321.783
321.628
321.475
321.335
321.23
315.16
315.234
315.334
315.443
315.554
315.662
315.761
315.843
315.902
315.933
315.933
315.902
315.843
315.761
315.662
315.554
315.443
315.334
315.234
315.16
309.102
309.146
309.206
309.271
309.338
309.403
309.462
309.511
309.547
309.565
309.565
309.547
309.511
309.462
309.403
309.338
309.271
309.206
309.146
309.102
303.05
303.065
303.085
303.107
303.129
303.151
303.171
303.187
303.199
303.206
303.206
303.199
303.187
303.171
303.151
303.129
303.107
303.085
303.065
303.05
346.783
347.014
347.304
347.616
347.933
348.239
348.517
348.748
348.915
349.003
349.003
348.915
348.748
348.517
348.239
347.933
347.616
347.304
347.014
346.783
340.479
340.674
340.925
341.195
341.469
341.733
341.974
342.174
342.319
342.395
342.395
342.319
342.174
341.974
341.733
341.469
341.195
340.925
340.674
340.479
334.204
334.366
334.577
334.805
335.037
335.26
335.464
335.633
335.755
335.819
335.819
335.755
335.633
335.464
335.26
335.037
334.805
334.577
334.366
334.204
327.954
328.084
328.257
328.443
328.633
328.816
328.982
329.12
329.22
329.272
329.272
329.22
329.12
328.982
328.816
328.633
328.443
328.257
328.084
327.954
321.726
321.826
321.959
322.104
322.252
322.394
322.523
322.63
322.708
322.749
322.749
322.708
322.63
322.523
322.394
322.252
322.104
321.959
321.826
321.726
315.514
315.585
315.68
315.783
315.889
315.99
316.082
316.159
316.215
316.244
316.244
316.215
316.159
316.082
315.99
315.889
315.783
315.68
315.585
315.514
309.314
309.356
309.413
309.475
309.539
309.6
309.655
309.701
309.734
309.752
309.752
309.734
309.701
309.655
309.6
309.539
309.475
309.413
309.356
309.314
303.121
303.135
303.155
303.175
303.197
303.217
303.236
303.251
303.262
303.268
303.268
303.262
303.251
303.236
303.217
303.197
303.175
303.155
303.135
303.121
348.037
348.256
348.531
348.825
349.122
349.407
349.666
349.88
350.034
350.115
350.115
350.034
349.88
349.666
349.407
349.122
348.825
348.531
348.256
348.037
341.562
341.747
341.984
342.239
342.496
342.743
342.967
343.153
343.286
343.356
343.356
343.286
343.153
342.967
342.743
342.496
342.239
341.984
341.747
341.562
335.118
335.272
335.472
335.687
335.904
336.113
336.302
336.459
336.572
336.631
336.631
336.572
336.459
336.302
336.113
335.904
335.687
335.472
335.272
335.118
328.701
328.824
328.987
329.163
329.341
329.512
329.667
329.795
329.887
329.935
329.935
329.887
329.795
329.667
329.512
329.341
329.163
328.987
328.824
328.701
322.305
322.4
322.527
322.664
322.802
322.935
323.055
323.155
323.226
323.264
323.264
323.226
323.155
323.055
322.935
322.802
322.664
322.527
322.4
322.305
315.928
315.995
316.085
316.183
316.281
316.376
316.462
316.533
316.584
316.611
316.611
316.584
316.533
316.462
316.376
316.281
316.183
316.085
315.995
315.928
309.562
309.602
309.656
309.715
309.774
309.831
309.883
309.926
309.956
309.972
309.972
309.956
309.926
309.883
309.831
309.774
309.715
309.656
309.602
309.562
303.205
303.218
303.236
303.256
303.276
303.295
303.312
303.326
303.337
303.342
303.342
303.337
303.326
303.312
303.295
303.276
303.256
303.236
303.218
303.205
349.473
349.68
349.939
350.214
350.491
350.755
350.994
351.191
351.333
351.407
351.407
351.333
351.191
350.994
350.755
350.491
350.214
349.939
349.68
349.473
342.803
342.978
343.202
343.44
343.68
343.909
344.115
344.286
344.409
344.473
344.473
344.409
344.286
344.115
343.909
343.68
343.44
343.202
342.978
342.803
336.166
336.311
336.499
336.701
336.903
337.097
337.272
337.416
337.52
337.574
337.574
337.52
337.416
337.272
337.097
336.903
336.701
336.499
336.311
336.166
329.556
329.673
329.827
329.991
330.157
330.316
330.458
330.576
330.661
330.705
330.705
330.661
330.576
330.458
330.316
330.157
329.991
329.827
329.673
329.556
322.97
323.06
323.179
323.307
323.436
323.559
323.67
323.762
323.827
323.862
323.862
323.827
323.762
323.67
323.559
323.436
323.307
323.179
323.06
322.97
316.402
316.465
316.55
316.642
316.734
316.822
316.901
316.967
317.014
317.038
317.038
317.014
316.967
316.901
316.822
316.734
316.642
316.55
316.465
316.402
309.847
309.885
309.936
309.991
310.046
310.099
310.146
310.186
310.214
310.229
310.229
310.214
310.186
310.146
310.099
310.046
309.991
309.936
309.885
309.847
303.3
303.313
303.33
303.348
303.367
303.384
303.4
303.413
303.423
303.428
303.428
303.423
303.413
303.4
303.384
303.367
303.348
303.33
303.313
303.3
351.094
351.289
351.531
351.787
352.043
352.287
352.506
352.686
352.815
352.882
352.882
352.815
352.686
352.506
352.287
352.043
351.787
351.531
351.289
351.094
344.204
344.369
344.578
344.8
345.021
345.233
345.422
345.578
345.69
345.748
345.748
345.69
345.578
345.422
345.233
345.021
344.8
344.578
344.369
344.204
337.348
337.485
337.661
337.848
338.036
338.215
338.375
338.507
338.601
338.65
338.65
338.601
338.507
338.375
338.215
338.036
337.848
337.661
337.485
337.348
330.522
330.632
330.775
330.929
331.082
331.228
331.359
331.467
331.544
331.585
331.585
331.544
331.467
331.359
331.228
331.082
330.929
330.775
330.632
330.522
323.72
323.804
323.916
324.035
324.154
324.268
324.37
324.454
324.514
324.545
324.545
324.514
324.454
324.37
324.268
324.154
324.035
323.916
323.804
323.72
316.937
316.997
317.076
317.161
317.247
317.328
317.401
317.461
317.503
317.526
317.526
317.503
317.461
317.401
317.328
317.247
317.161
317.076
316.997
316.937
310.168
310.204
310.251
310.303
310.354
310.403
310.446
310.482
310.508
310.521
310.521
310.508
310.482
310.446
310.403
310.354
310.303
310.251
310.204
310.168
303.408
303.419
303.435
303.453
303.47
303.486
303.501
303.513
303.521
303.526
303.526
303.521
303.513
303.501
303.486
303.47
303.453
303.435
303.419
303.408
352.901
353.083
353.308
353.546
353.782
354.005
354.205
354.368
354.485
354.546
354.546
354.485
354.368
354.205
354.005
353.782
353.546
353.308
353.083
352.901
345.766
345.92
346.114
346.32
346.524
346.718
346.891
347.032
347.133
347.186
347.186
347.133
347.032
346.891
346.718
346.524
346.32
346.114
345.92
345.766
338.666
338.794
338.958
339.132
339.305
339.469
339.615
339.735
339.82
339.864
339.864
339.82
339.735
339.615
339.469
339.305
339.132
338.958
338.794
338.666
331.598
331.701
331.835
331.977
332.118
332.252
332.372
332.47
332.54
332.576
332.576
332.54
332.47
332.372
332.252
332.118
331.977
331.835
331.701
331.598
324.556
324.635
324.738
324.849
324.959
325.063
325.156
325.232
325.287
325.315
325.315
325.287
325.232
325.156
325.063
324.959
324.849
324.738
324.635
324.556
317.534
317.589
317.663
317.742
317.821
317.895
317.962
318.016
318.055
318.075
318.075
318.055
318.016
317.962
317.895
317.821
317.742
317.663
317.589
317.534
310.526
310.559
310.604
310.651
310.698
310.743
310.783
310.816
310.839
310.851
310.851
310.839
310.816
310.783
310.743
310.698
310.651
310.604
310.559
310.526
303.528
303.539
303.553
303.569
303.585
303.6
303.614
303.625
303.632
303.636
303.636
303.632
303.625
303.614
303.6
303.585
303.569
303.553
303.539
303.528
354.895
355.064
355.273
355.492
355.708
355.912
356.093
356.241
356.346
356.401
356.401
356.346
356.241
356.093
355.912
355.708
355.492
355.273
355.064
354.895
347.489
347.632
347.812
348.002
348.189
348.366
348.523
348.651
348.742
348.789
348.789
348.742
348.651
348.523
348.366
348.189
348.002
347.812
347.632
347.489
340.121
340.239
340.391
340.552
340.71
340.86
340.993
341.101
341.178
341.218
341.218
341.178
341.101
340.993
340.86
340.71
340.552
340.391
340.239
340.121
332.786
332.881
333.005
333.136
333.266
333.388
333.497
333.586
333.649
333.681
333.681
333.649
333.586
333.497
333.388
333.266
333.136
333.005
332.881
332.786
325.478
325.551
325.648
325.749
325.85
325.946
326.03
326.099
326.148
326.174
326.174
326.148
326.099
326.03
325.946
325.85
325.749
325.648
325.551
325.478
318.192
318.244
318.312
318.385
318.457
318.525
318.586
318.635
318.67
318.688
318.688
318.67
318.635
318.586
318.525
318.457
318.385
318.312
318.244
318.192
310.921
310.952
310.993
311.037
311.08
311.121
311.158
311.187
311.208
311.219
311.219
311.208
311.187
311.158
311.121
311.08
311.037
310.993
310.952
310.921
303.66
303.67
303.684
303.699
303.713
303.727
303.739
303.749
303.756
303.76
303.76
303.756
303.749
303.739
303.727
303.713
303.699
303.684
303.67
303.66
357.075
357.232
357.425
357.626
357.824
358.009
358.173
358.306
358.4
358.449
358.449
358.4
358.306
358.173
358.009
357.824
357.626
357.425
357.232
357.075
349.373
349.506
349.672
349.846
350.017
350.178
350.32
350.435
350.517
350.56
350.56
350.517
350.435
350.32
350.178
350.017
349.846
349.672
349.506
349.373
341.711
341.821
341.961
342.109
342.254
342.39
342.51
342.607
342.677
342.712
342.712
342.677
342.607
342.51
342.39
342.254
342.109
341.961
341.821
341.711
334.084
334.173
334.287
334.408
334.527
334.638
334.736
334.816
334.873
334.902
334.902
334.873
334.816
334.736
334.638
334.527
334.408
334.287
334.173
334.084
326.487
326.555
326.643
326.737
326.829
326.916
326.992
327.055
327.099
327.121
327.121
327.099
327.055
326.992
326.916
326.829
326.737
326.643
326.555
326.487
318.912
318.96
319.023
319.09
319.156
319.218
319.273
319.317
319.348
319.365
319.365
319.348
319.317
319.273
319.218
319.156
319.09
319.023
318.96
318.912
311.353
311.382
311.42
311.46
311.5
311.537
311.57
311.596
311.615
311.625
311.625
311.615
311.596
311.57
311.537
311.5
311.46
311.42
311.382
311.353
303.805
303.814
303.827
303.84
303.854
303.866
303.877
303.886
303.892
303.896
303.896
303.892
303.886
303.877
303.866
303.854
303.84
303.827
303.814
303.805
359.441
359.587
359.764
359.948
360.128
360.296
360.444
360.563
360.648
360.692
360.692
360.648
360.563
360.444
360.296
360.128
359.948
359.764
359.587
359.441
351.418
351.54
351.694
351.853
352.009
352.155
352.283
352.386
352.459
352.497
352.497
352.459
352.386
352.283
352.155
352.009
351.853
351.694
351.54
351.418
343.437
343.539
343.668
343.803
343.935
344.058
344.166
344.254
344.316
344.348
344.348
344.316
344.254
344.166
344.058
343.935
343.803
343.668
343.539
343.437
335.493
335.575
335.681
335.791
335.899
336
336.089
336.16
336.211
336.237
336.237
336.211
336.16
336.089
336
335.899
335.791
335.681
335.575
335.493
327.581
327.644
327.726
327.811
327.895
327.974
328.043
328.099
328.138
328.159
328.159
328.138
328.099
328.043
327.974
327.895
327.811
327.726
327.644
327.581
319.693
319.737
319.795
319.857
319.917
319.973
320.022
320.062
320.09
320.105
320.105
320.09
320.062
320.022
319.973
319.917
319.857
319.795
319.737
319.693
311.822
311.848
311.883
311.92
311.956
311.99
312.02
312.044
312.061
312.069
312.069
312.061
312.044
312.02
311.99
311.956
311.92
311.883
311.848
311.822
303.962
303.971
303.982
303.995
304.007
304.018
304.028
304.036
304.042
304.045
304.045
304.042
304.036
304.028
304.018
304.007
303.995
303.982
303.971
303.962
361.99
362.124
362.287
362.455
362.619
362.771
362.903
363.011
363.086
363.125
363.125
363.086
363.011
362.903
362.771
362.619
362.455
362.287
362.124
361.99
353.619
353.733
353.873
354.019
354.161
354.292
354.407
354.5
354.566
354.599
354.599
354.566
354.5
354.407
354.292
354.161
354.019
353.873
353.733
353.619
345.295
345.389
345.507
345.63
345.75
345.862
345.959
346.038
346.093
346.122
346.122
346.093
346.038
345.959
345.862
345.75
345.63
345.507
345.389
345.295
337.01
337.086
337.182
337.283
337.381
337.472
337.552
337.617
337.662
337.685
337.685
337.662
337.617
337.552
337.472
337.381
337.283
337.182
337.086
337.01
328.758
328.816
328.892
328.97
329.046
329.117
329.179
329.229
329.265
329.283
329.283
329.265
329.229
329.179
329.117
329.046
328.97
328.892
328.816
328.758
320.533
320.574
320.627
320.683
320.738
320.789
320.833
320.869
320.894
320.907
320.907
320.894
320.869
320.833
320.789
320.738
320.683
320.627
320.574
320.533
312.326
312.351
312.383
312.416
312.449
312.48
312.506
312.528
312.543
312.551
312.551
312.543
312.528
312.506
312.48
312.449
312.416
312.383
312.351
312.326
304.131
304.139
304.15
304.161
304.172
304.182
304.191
304.198
304.203
304.206
304.206
304.203
304.198
304.191
304.182
304.172
304.161
304.15
304.139
304.131
364.711
364.834
364.984
365.137
365.285
365.422
365.541
365.637
365.705
365.739
365.739
365.705
365.637
365.541
365.422
365.285
365.137
364.984
364.834
364.711
355.968
356.072
356.201
356.334
356.462
356.581
356.685
356.768
356.826
356.856
356.856
356.826
356.768
356.685
356.581
356.462
356.334
356.201
356.072
355.968
347.275
347.361
347.47
347.582
347.691
347.792
347.879
347.95
347.999
348.025
348.025
347.999
347.95
347.879
347.792
347.691
347.582
347.47
347.361
347.275
338.626
338.695
338.784
338.876
338.965
339.047
339.119
339.176
339.217
339.238
339.238
339.217
339.176
339.119
339.047
338.965
338.876
338.784
338.695
338.626
330.012
330.066
330.134
330.206
330.275
330.339
330.395
330.44
330.471
330.488
330.488
330.471
330.44
330.395
330.339
330.275
330.206
330.134
330.066
330.012
321.427
321.465
321.514
321.565
321.615
321.66
321.7
321.732
321.755
321.766
321.766
321.755
321.732
321.7
321.66
321.615
321.565
321.514
321.465
321.427
312.863
312.885
312.915
312.945
312.975
313.003
313.026
313.046
313.059
313.066
313.066
313.059
313.046
313.026
313.003
312.975
312.945
312.915
312.885
312.863
304.31
304.318
304.328
304.338
304.348
304.357
304.365
304.372
304.376
304.379
304.379
304.376
304.372
304.365
304.357
304.348
304.338
304.328
304.318
304.31
367.575
367.688
367.825
367.965
368.099
368.223
368.33
368.416
368.476
368.507
368.507
368.476
368.416
368.33
368.223
368.099
367.965
367.825
367.688
367.575
358.436
358.532
358.65
358.771
358.887
358.994
359.087
359.162
359.214
359.241
359.241
359.214
359.162
359.087
358.994
358.887
358.771
358.65
358.532
358.436
349.353
349.432
349.532
349.634
349.733
349.824
349.902
349.965
350.009
350.032
350.032
350.009
349.965
349.902
349.824
349.733
349.634
349.532
349.432
349.353
340.318
340.382
340.463
340.547
340.628
340.702
340.767
340.818
340.855
340.873
340.873
340.855
340.818
340.767
340.702
340.628
340.547
340.463
340.382
340.318
331.324
331.373
331.436
331.502
331.564
331.622
331.672
331.713
331.741
331.755
331.755
331.741
331.713
331.672
331.622
331.564
331.502
331.436
331.373
331.324
322.362
322.397
322.442
322.488
322.533
322.575
322.611
322.639
322.659
322.67
322.67
322.659
322.639
322.611
322.575
322.533
322.488
322.442
322.397
322.362
313.423
313.444
313.471
313.499
313.526
313.551
313.572
313.59
313.602
313.608
313.608
313.602
313.59
313.572
313.551
313.526
313.499
313.471
313.444
313.423
304.498
304.505
304.514
304.523
304.532
304.541
304.548
304.554
304.558
304.56
304.56
304.558
304.554
304.548
304.541
304.532
304.523
304.514
304.505
304.498
370.511
370.615
370.74
370.868
370.99
371.101
371.198
371.275
371.329
371.356
371.356
371.329
371.275
371.198
371.101
370.99
370.868
370.74
370.615
370.511
360.954
361.042
361.15
361.261
361.367
361.464
361.547
361.614
361.661
361.685
361.685
361.661
361.614
361.547
361.464
361.367
361.261
361.15
361.042
360.954
351.464
351.537
351.628
351.722
351.812
351.894
351.965
352.021
352.061
352.081
352.081
352.061
352.021
351.965
351.894
351.812
351.722
351.628
351.537
351.464
342.032
342.091
342.165
342.242
342.316
342.383
342.441
342.487
342.52
342.536
342.536
342.52
342.487
342.441
342.383
342.316
342.242
342.165
342.091
342.032
332.649
332.694
332.752
332.811
332.869
332.921
332.966
333.003
333.028
333.041
333.041
333.028
333.003
332.966
332.921
332.869
332.811
332.752
332.694
332.649
323.304
323.336
323.377
323.42
323.461
323.498
323.531
323.556
323.575
323.584
323.584
323.575
323.556
323.531
323.498
323.461
323.42
323.377
323.336
323.304
313.987
314.006
314.031
314.056
314.081
314.103
314.123
314.138
314.149
314.155
314.155
314.149
314.138
314.123
314.103
314.081
314.056
314.031
314.006
313.987
304.687
304.693
304.701
304.71
304.718
304.726
304.732
304.737
304.741
304.743
304.743
304.741
304.737
304.732
304.726
304.718
304.71
304.701
304.693
304.687
373.332
373.429
373.544
373.661
373.773
373.875
373.962
374.032
374.08
374.105
374.105
374.08
374.032
373.962
373.875
373.773
373.661
373.544
373.429
373.332
363.345
363.427
363.527
363.628
363.725
363.814
363.89
363.95
363.993
364.014
364.014
363.993
363.95
363.89
363.814
363.725
363.628
363.527
363.427
363.345
353.447
353.515
353.599
353.685
353.768
353.843
353.907
353.959
353.995
354.013
354.013
353.995
353.959
353.907
353.843
353.768
353.685
353.599
353.515
353.447
343.627
343.682
343.751
343.821
343.889
343.95
344.004
344.046
344.075
344.09
344.09
344.075
344.046
344.004
343.95
343.889
343.821
343.751
343.682
343.627
333.873
333.915
333.968
334.023
334.076
334.124
334.165
334.198
334.221
334.232
334.232
334.221
334.198
334.165
334.124
334.076
334.023
333.968
333.915
333.873
324.169
324.199
324.237
324.276
324.314
324.348
324.378
324.402
324.418
324.426
324.426
324.418
324.402
324.378
324.348
324.314
324.276
324.237
324.199
324.169
314.503
314.521
314.544
314.567
314.59
314.61
314.628
314.642
314.652
314.657
314.657
314.652
314.642
314.628
314.61
314.59
314.567
314.544
314.521
314.503
304.859
304.865
304.873
304.881
304.888
304.895
304.901
304.906
304.909
304.911
304.911
304.909
304.906
304.901
304.895
304.888
304.881
304.873
304.865
304.859
375.547
375.637
375.746
375.856
375.96
376.055
376.137
376.201
376.246
376.27
376.27
376.246
376.201
376.137
376.055
375.96
375.856
375.746
375.637
375.547
365.151
365.228
365.322
365.417
365.508
365.591
365.662
365.719
365.758
365.778
365.778
365.758
365.719
365.662
365.591
365.508
365.417
365.322
365.228
365.151
354.899
354.963
355.042
355.124
355.201
355.272
355.332
355.38
355.414
355.431
355.431
355.414
355.38
355.332
355.272
355.201
355.124
355.042
354.963
354.899
344.766
344.818
344.883
344.95
345.014
345.071
345.121
345.161
345.188
345.202
345.202
345.188
345.161
345.121
345.071
345.014
344.95
344.883
344.818
344.766
334.73
334.769
334.82
334.872
334.922
334.967
335.006
335.037
335.058
335.069
335.069
335.058
335.037
335.006
334.967
334.922
334.872
334.82
334.769
334.73
324.767
324.795
324.831
324.869
324.904
324.937
324.964
324.986
325.002
325.01
325.01
325.002
324.986
324.964
324.937
324.904
324.869
324.831
324.795
324.767
314.856
314.873
314.895
314.917
314.939
314.958
314.975
314.988
314.997
315.002
315.002
314.997
314.988
314.975
314.958
314.939
314.917
314.895
314.873
314.856
304.976
304.982
304.989
304.997
305.004
305.011
305.016
305.021
305.024
305.025
305.025
305.024
305.021
305.016
305.011
305.004
304.997
304.989
304.982
304.976
)
;

boundaryField
{
    hotSide
    {
        type            fixedGradient;
        gradient        nonuniform List<scalar> 
400
(
466.038
467.981
471.87
477.712
485.513
495.284
507.036
520.783
536.536
554.31
574.115
595.966
619.872
645.843
673.887
704.013
736.225
770.53
806.931
845.431
469.602
471.517
475.351
481.112
488.81
498.458
510.072
523.668
539.263
556.874
576.515
598.202
621.948
647.764
675.66
705.646
737.726
771.907
808.193
846.587
473.46
475.341
479.109
484.774
492.35
501.854
513.306
526.727
542.14
559.563
579.018
600.521
624.088
649.733
677.468
707.3
739.239
773.288
809.452
847.734
477.546
479.389
483.08
488.634
496.068
505.407
516.674
529.898
545.105
562.321
581.569
602.87
626.244
651.706
679.267
708.938
740.727
774.639
810.678
848.845
481.748
483.546
487.151
492.581
499.858
509.013
520.078
533.086
548.07
565.062
584.09
605.179
628.35
653.62
681.004
710.511
742.149
775.923
811.837
849.89
485.89
487.641
491.154
496.451
503.562
512.523
523.375
536.158
550.912
567.675
586.48
607.355
630.323
655.405
682.614
711.961
743.453
777.095
812.889
850.836
489.734
491.438
494.859
500.024
506.97
515.741
526.385
538.949
553.482
570.026
588.619
609.291
632.071
656.977
684.025
713.225
744.585
778.108
813.796
851.647
492.997
494.658
497.996
503.043
509.842
518.443
528.902
541.275
555.614
571.967
590.376
610.876
633.494
658.252
685.165
714.243
745.493
778.917
814.517
852.291
495.384
497.013
500.288
505.245
511.931
520.404
530.724
542.952
557.146
573.357
591.631
612.003
634.503
659.153
685.967
714.957
746.128
779.482
815.019
852.738
496.649
498.26
501.501
506.409
513.034
521.437
531.682
543.832
557.948
574.083
592.285
612.589
635.027
659.619
686.382
715.326
746.455
779.773
815.277
852.967
496.649
498.26
501.501
506.409
513.034
521.437
531.682
543.832
557.948
574.083
592.285
612.589
635.027
659.619
686.382
715.326
746.455
779.773
815.277
852.967
495.384
497.013
500.288
505.245
511.931
520.404
530.724
542.952
557.146
573.357
591.631
612.003
634.503
659.153
685.967
714.957
746.128
779.482
815.019
852.738
492.997
494.658
497.996
503.043
509.842
518.443
528.902
541.275
555.614
571.967
590.376
610.876
633.494
658.252
685.165
714.243
745.493
778.917
814.517
852.291
489.734
491.438
494.859
500.024
506.97
515.741
526.385
538.949
553.482
570.026
588.619
609.291
632.071
656.977
684.025
713.225
744.585
778.108
813.796
851.647
485.89
487.641
491.154
496.451
503.562
512.523
523.375
536.158
550.912
567.675
586.48
607.355
630.323
655.405
682.614
711.961
743.453
777.095
812.889
850.836
481.748
483.546
487.151
492.581
499.858
509.013
520.078
533.086
548.07
565.062
584.09
605.179
628.35
653.62
681.004
710.511
742.149
775.923
811.837
849.89
477.546
479.389
483.08
488.634
496.068
505.407
516.674
529.898
545.105
562.321
581.569
602.87
626.244
651.706
679.267
708.938
740.727
774.639
810.678
848.845
473.46
475.341
479.109
484.774
492.35
501.854
513.306
526.727
542.14
559.563
579.018
600.521
624.088
649.733
677.468
707.3
739.239
773.288
809.452
847.734
469.602
471.517
475.351
481.112
488.81
498.458
510.072
523.668
539.263
556.874
576.515
598.202
621.948
647.764
675.66
705.646
737.726
771.907
808.193
846.587
466.038
467.981
471.87
477.712
485.513
495.284
507.036
520.783
536.536
554.31
574.115
595.966
619.872
645.843
673.887
704.013
736.225
770.53
806.931
845.431
)
;
    }
    coldSide
    {
        type            mixed;
        refValue        uniform 300;
        refGradient     uniform 0;
        valueFraction   uniform 0.991591;
        source          uniform 0;
        value           nonuniform List<scalar> 
400
(
300.024
300.024
300.024
300.025
300.025
300.026
300.026
300.027
300.028
300.029
300.03
300.031
300.032
300.033
300.035
300.036
300.038
300.039
300.041
300.042
300.024
300.024
300.025
300.025
300.025
300.026
300.026
300.027
300.028
300.029
300.03
300.031
300.032
300.033
300.035
300.036
300.038