/*--------------------------------*- C++ -*----------------------------------*\
| =========                 |                                                 |
| \\      /  F ield         | OpenFOAM: The Open Source CFD Toolbox           |
|  \\    /   O peration     | Version:  2212                                  |
|   \\  /    A nd           | Website:  www.openfoam.com                      |
|    \\/     M anipulation  |                                                 |
\*---------------------------------------------------------------------------*/
FoamFile
{
    version     2.0;
    format      ascii;
    arch        "LSB;label=32;scalar=64";
    class       volScalarField;
    location    "0";
    object      T;
}
// * * * * * * * * * * * * * * * * * * * * * * * * * * * * * * * * * * * * * //

dimensions      [0 0 0 1 0 0 0];

internalField   nonuniform List<scalar> 
3200
(
354.348
352.755
351.736
351.134
351.001
351.16
351.539
351.977
352.092
352.325
352.066
351.403
350.915
349.882
348.913
348.062
347.385
347.531
348.107
349.233
346.741
345.395
344.555
344.072
343.945
344.107
344.46
344.851
344.999
345.171
344.955
344.382
344.007
343.119
342.278
341.575
340.983
341.078
341.578
342.498
339.309
338.176
337.49
337.12
337.023
337.156
337.501
337.808
338.001
338.097
337.945
337.441
337.164
336.403
335.706
335.115
334.617
334.659
335.125
335.841
332.024
331.095
330.545
330.243
330.209
330.286
330.617
330.846
331.033
331.096
330.981
330.568
330.355
329.721
329.193
328.682
328.296
328.282
328.714
329.258
324.812
324.115
323.683
323.446
323.441
323.467
323.778
323.939
324.102
324.161
324.08
323.739
323.579
323.097
322.709
322.319
322
321.966
322.31
322.724
317.661
317.204
316.875
316.698
316.717
316.721
316.987
317.084
317.212
317.231
317.201
316.933
316.829
316.481
316.219
315.948
315.701
315.676
315.935
316.206
310.597
310.314
310.12
310.004
310.029
310.046
310.207
310.25
310.342
310.341
310.331
310.147
310.107
309.884
309.74
309.582
309.416
309.41
309.573
309.729
303.547
303.453
303.382
303.349
303.361
303.36
303.425
303.437
303.469
303.46
303.462
303.393
303.389
303.307
303.265
303.211
303.155
303.15
303.209
303.268
354.282
352.837
351.811
351.23
351.217
351.421
351.851
352.271
352.492
352.602
352.474
351.902
351.231
350.251
349.362
348.28
347.628
347.612
348.2
349.256
346.674
345.478
344.653
344.143
344.151
344.335
344.715
345.094
345.312
345.397
345.31
344.805
344.262
343.426
342.673
341.753
341.202
341.161
341.69
342.54
339.247
338.277
337.593
337.186
337.216
337.367
337.698
338.012
338.234
338.284
338.205
337.774
337.351
336.646
336.047
335.256
334.795
334.764
335.202
335.873
331.941
331.183
330.639
330.313
330.348
330.499
330.777
331.011
331.205
331.245
331.189
330.848
330.501
329.915
329.46
328.79
328.428
328.393
328.763
329.289
324.757
324.184
323.744
323.528
323.555
323.675
323.897
324.067
324.23
324.227
324.192
323.968
323.693
323.216
322.898
322.378
322.064
322.058
322.349
322.752
317.625
317.248
316.931
316.782
316.8
316.907
317.045
317.158
317.3
317.263
317.245
317.108
316.908
316.566
316.357
315.995
315.762
315.748
315.929
316.248
310.565
310.342
310.154
310.073
310.073
310.15
310.232
310.277
310.395
310.358
310.34
310.273
310.154
309.938
309.829
309.605
309.47
309.453
309.561
309.777
303.534
303.472
303.409
303.375
303.373
303.405
303.425
303.441
303.488
303.469
303.47
303.448
303.406
303.331
303.295
303.218
303.174
303.155
303.205
303.273
354.421
353.139
352.106
351.508
351.517
351.863
352.345
352.805
353.101
353.237
353.162
352.495
351.772
350.789
349.905
348.694
348.036
347.845
348.441
349.404
346.826
345.764
344.94
344.391
344.427
344.722
345.154
345.563
345.81
345.955
345.916
345.33
344.7
343.875
343.134
342.098
341.544
341.372
341.89
342.665
339.38
338.548
337.882
337.409
337.437
337.686
338.067
338.416
338.627
338.748
338.718
338.261
337.714
337.025
336.431
335.573
335.099
334.941
335.357
335.992
332.093
331.432
330.895
330.498
330.531
330.726
331.051
331.338
331.513
331.607
331.599
331.252
330.814
330.217
329.763
329.085
328.704
328.549
328.87
329.386
324.87
324.38
323.961
323.661
323.694
323.842
324.095
324.32
324.448
324.54
324.548
324.263
323.931
323.447
323.141
322.63
322.308
322.165
322.409
322.828
317.72
317.384
317.101
316.877
316.924
317.013
317.174
317.346
317.444
317.53
317.518
317.318
317.068
316.726
316.544
316.172
315.93
315.794
315.994
316.298
310.623
310.445
310.26
310.125
310.163
310.209
310.311
310.394
310.476
310.535
310.52
310.39
310.215
310.028
309.945
309.701
309.569
309.464
309.598
309.784
303.552
303.494
303.437
303.393
303.404
303.433
303.465
303.485
303.514
303.535
303.521
303.481
303.421
303.349
303.349
303.259
303.219
303.171
303.209
303.275
354.908
353.56
352.507
352.034
352.049
352.396
352.965
353.306
353.812
354.012
353.957
353.366
352.663
351.676
350.734
349.448
348.727
348.434
349.034
349.894
347.246
346.14
345.256
344.869
344.864
345.197
345.687
345.99
346.457
346.617
346.57
346.078
345.496
344.661
343.867
342.758
342.141
341.878
342.398
343.098
339.761
338.852
338.12
337.794
337.82
338.126
338.492
338.786
339.188
339.303
339.282
338.876
338.39
337.72
337.028
336.119
335.611
335.347
335.808
336.361
332.383
331.66
331.077
330.792
330.873
331.115
331.399
331.655
332.002
332.059
332.071
331.716
331.346
330.826
330.253
329.501
329.116
328.863
329.249
329.692
325.111
324.553
324.094
323.889
323.97
324.166
324.362
324.588
324.862
324.896
324.896
324.645
324.357
323.946
323.521
322.93
322.61
322.407
322.713
323.065
317.897
317.519
317.162
317.04
317.097
317.258
317.374
317.552
317.781
317.762
317.764
317.606
317.377
317.088
316.779
316.377
316.153
315.991
316.211
316.465
310.717
310.513
310.276
310.217
310.247
310.361
310.423
310.538
310.698
310.665
310.665
310.581
310.434
310.266
310.072
309.842
309.713
309.591
309.727
309.885
303.587
303.524
303.44
303.432
303.433
303.473
303.498
303.527
303.595
303.58
303.576
303.549
303.508
303.45
303.378
303.298
303.271
303.211
303.263
303.311
355.392
354.095
353.086
352.68
352.662
353.109
353.758
354.142
354.768
354.954
354.972
354.54
353.724
352.601
351.598
350.403
349.626
349.411
349.85
350.774
347.664
346.603
345.741
345.402
345.419
345.783
346.402
346.716
347.28
347.438
347.463
347.107
346.408
345.452
344.635
343.585
342.915
342.75
343.081
343.868
340.09
339.25
338.525
338.23
338.29
338.578
339.121
339.402
339.874
340.022
340.054
339.732
339.158
338.367
337.707
336.83
336.26
336.11
336.364
336.999
332.647
331.986
331.395
331.164
331.218
331.489
331.916
332.149
332.534
332.666
332.692
332.417
331.96
331.322
330.802
330.089
329.652
329.49
329.712
330.205
325.315
324.826
324.34
324.157
324.221
324.458
324.766
324.959
325.231
325.369
325.393
325.165
324.809
324.328
323.931
323.364
323.047
322.898
323.083
323.428
318.048
317.701
317.353
317.207
317.265
317.44
317.658
317.802
318.011
318.106
318.131
317.956
317.703
317.367
317.081
316.659
316.454
316.351
316.502
316.715
310.815
310.618
310.418
310.308
310.358
310.472
310.588
310.695
310.806
310.867
310.884
310.774
310.631
310.441
310.237
310.007
309.891
309.824
309.92
310.021
303.621
303.559
303.495
303.459
303.472
303.508
303.542
303.579
303.621
303.648
303.656
303.621
303.576
303.511
303.432
303.351
303.312
303.292
303.322
303.358
356.147
354.809
353.892
353.452
353.52
354.029
354.601
355.162
355.801
356.095
356.123
355.611
354.982
353.737
352.608
351.559
350.732
350.479
350.872
351.667
348.318
347.222
346.453
346.058
346.147
346.587
347.104
347.6
348.163
348.389
348.447
348.036
347.509
346.43
345.489
344.559
343.87
343.623
343.979
344.621
340.619
339.77
339.127
338.766
338.891
339.241
339.696
340.128
340.6
340.781
340.883
340.561
340.111
339.192
338.419
337.636
337.066
336.855
337.135
337.645
333.048
332.431
331.869
331.571
331.703
331.998
332.374
332.743
333.101
333.261
333.379
333.127
332.736
332.003
331.38
330.752
330.292
330.103
330.352
330.724
325.573
325.173
324.693
324.456
324.584
324.826
325.112
325.408
325.678
325.833
325.919
325.722
325.425
324.875
324.392
323.899
323.549
323.387
323.583
323.843
318.224
317.95
317.612
317.404
317.526
317.723
317.913
318.117
318.312
318.437
318.505
318.352
318.15
317.754
317.408
317.058
316.811
316.705
316.838
317.009
310.932
310.753
310.582
310.402
310.515
310.635
310.752
310.863
310.988
311.078
311.093
311.01
310.901
310.652
310.449
310.243
310.105
310.023
310.105
310.191
303.658
303.599
303.552
303.472
303.525
303.561
303.599
303.651
303.685
303.718
303.705
303.687
303.652
303.572
303.499
303.432
303.404
303.344
303.39
303.404
356.948
355.716
354.816
354.442
354.413
354.894
355.506
356.066
356.815
357.231
357.34
356.929
356.297
354.983
353.704
352.717
351.987
351.68
352.24
352.954
349.005
347.997
347.218
346.921
346.902
347.345
347.903
348.371
349.039
349.399
349.521
349.169
348.64
347.5
346.401
345.575
344.942
344.649
345.162
345.712
341.197
340.378
339.757
339.506
339.515
339.911
340.383
340.774
341.362
341.662
341.77
341.48
341.038
340.072
339.183
338.479
337.943
337.707
338.116
338.538
333.533
332.92
332.413
332.197
332.21
332.564
332.936
333.268
333.749
333.995
334.101
333.854
333.499
332.696
332.01
331.421
331
330.799
331.124
331.432
325.973
325.528
325.121
324.954
324.982
325.286
325.575
325.82
326.2
326.381
326.5
326.29
326.021
325.382
324.864
324.404
324.091
323.944
324.178
324.404
318.495
318.198
317.906
317.771
317.813
318.064
318.246
318.424
318.691
318.791
318.914
318.743
318.576
318.116
317.735
317.432
317.204
317.101
317.267
317.426
311.073
310.905
310.734
310.643
310.684
310.827
310.945
311.06
311.214
311.263
311.359
311.238
311.14
310.874
310.642
310.476
310.33
310.265
310.367
310.462
303.716
303.657
303.601
303.561
303.586
303.626
303.669
303.705
303.762
303.763
303.81
303.757
303.736
303.647
303.572
303.506
303.461
303.445
303.488
303.509
357.872
356.748
355.807
355.456
355.508
355.922
356.58
357.23
358.036
358.396
358.612
358.226
357.466
356.235
354.989
353.965
353.402
353.138
353.401
354.126
349.77
348.884
348.068
347.784
347.83
348.228
348.803
349.356
350.099
350.402
350.606
350.305
349.638
348.571
347.523
346.645
346.17
345.93
346.166
346.748
341.858
341.145
340.49
340.235
340.297
340.632
341.142
341.601
342.266
342.49
342.666
342.438
341.893
340.976
340.122
339.398
338.977
338.786
338.991
339.428
334.073
333.521
332.998
332.785
332.829
333.135
333.586
333.923
334.494
334.663
334.816
334.629
334.22
333.448
332.764
332.181
331.863
331.652
331.854
332.187
326.403
326.002
325.589
325.44
325.46
325.691
326.06
326.319
326.774
326.889
327.034
326.88
326.591
325.979
325.434
325.022
324.758
324.578
324.745
325.007
318.804
318.559
318.242
318.148
318.152
318.3
318.602
318.779
319.103
319.181
319.296
319.189
318.999
318.549
318.145
317.854
317.7
317.543
317.661
317.868
311.27
311.134
310.938
310.882
310.891
310.981
311.175
311.256
311.465
311.507
311.57
311.515
311.415
311.135
310.887
310.73
310.65
310.529
310.589
310.728
303.777
303.728
303.668
303.654
303.647
303.685
303.74
303.768
303.844
303.853
303.864
303.852
303.818
303.731
303.644
303.599
303.569
303.52
303.557
303.593
358.993
357.956
357.018
356.651
356.62
356.997
357.741
358.42
359.134
359.439
359.816
359.479
358.696
357.417
356.317
355.321
354.695
354.515
354.879
355.49
350.748
349.913
349.148
348.835
348.826
349.148
349.816
350.408
351.044
351.282
351.632
351.355
350.708
349.589
348.658
347.816
347.283
347.137
347.444
347.909
342.687
342.026
341.405
341.123
341.159
341.431
341.976
342.51
343.074
343.235
343.537
343.348
342.776
341.834
341.052
340.344
339.915
339.793
340.066
340.395
334.796
334.258
333.758
333.516
333.577
333.792
334.219
334.665
335.162
335.275
335.533
335.403
334.902
334.147
333.531
332.956
332.596
332.489
332.73
332.964
326.983
326.565
326.215
326.01
326.067
326.213
326.54
326.895
327.297
327.387
327.579
327.486
327.091
326.513
326.046
325.603
325.306
325.235
325.437
325.572
319.237
318.946
318.686
318.548
318.606
318.687
318.947
319.168
319.46
319.536
319.67
319.604
319.337
318.92
318.586
318.274
318.069
318.028
318.168
318.234
311.559
311.373
311.209
311.123
311.163
311.222
311.359
311.497
311.674
311.705
311.796
311.772
311.606
311.358
311.152
310.971
310.863
310.824
310.905
310.933
303.88
303.81
303.759
303.734
303.735
303.762
303.812
303.859
303.903
303.918
303.957
303.948
303.893
303.81
303.727
303.681
303.65
303.631
303.658
303.667
360.16
359.06
358.257
357.89
357.854
358.156
358.781
359.603
360.349
360.693
360.841
360.642
359.84
358.723
357.58
356.678
356.101
355.944
356.3
356.933
351.77
350.902
350.207
349.909
349.897
350.154
350.731
351.45
352.083
352.367
352.533
352.376
351.669
350.717
349.76
348.993
348.463
348.364
348.639
349.13
343.547
342.86
342.289
342.056
342.067
342.261
342.762
343.368
343.929
344.162
344.308
344.179
343.615
342.798
341.992
341.375
340.925
340.823
341.066
341.43
335.455
334.944
334.479
334.283
334.33
334.478
334.855
335.373
335.837
336.037
336.175
336.055
335.61
334.94
334.275
333.798
333.436
333.339
333.537
333.817
327.475
327.126
326.737
326.598
326.643
326.763
327.056
327.455
327.811
327.974
328.088
328
327.668
327.132
326.607
326.253
325.977
325.9
326.036
326.256
319.572
319.345
319.072
318.961
318.981
319.078
319.288
319.567
319.839
319.951
320.045
319.977
319.745
319.357
318.981
318.718
318.549
318.487
318.579
318.727
311.741
311.616
311.436
311.37
311.387
311.451
311.556
311.737
311.895
311.99
312.052
311.981
311.861
311.614
311.366
311.223
311.127
311.095
311.129
311.245
303.925
303.893
303.835
303.815
303.813
303.835
303.869
303.925
303.991
304.02
304.044
304.007
303.982
303.895
303.802
303.756
303.73
303.722
303.727
303.77
361.375
360.427
359.565
359.061
358.984
359.364
359.954
360.689
361.38
361.798
361.978
361.686
360.894
359.978
358.946
358.027
357.502
357.401
357.693
358.3
352.822
352.063
351.341
350.896
350.861
351.205
351.747
352.391
352.977
353.348
353.507
353.27
352.583
351.805
350.934
350.14
349.694
349.598
349.818
350.329
344.43
343.827
343.245
342.874
342.842
343.158
343.623
344.17
344.661
344.991
345.143
344.938
344.356
343.692
342.979
342.327
341.947
341.869
342.038
342.448
336.181
335.708
335.269
334.934
334.938
335.205
335.592
336.036
336.433
336.716
336.85
336.684
336.192
335.662
335.094
334.554
334.268
334.212
334.319
334.627
328.044
327.682
327.369
327.075
327.116
327.32
327.629
327.97
328.275
328.49
328.606
328.491
328.103
327.697
327.245
326.842
326.605
326.585
326.664
326.874
319.979
319.721
319.526
319.278
319.326
319.509
319.719
319.96
320.187
320.316
320.409
320.337
320.062
319.768
319.447
319.154
318.982
318.968
319.035
319.162
311.968
311.82
311.73
311.542
311.58
311.698
311.818
311.988
312.126
312.193
312.24
312.2
312.036
311.864
311.672
311.485
311.379
311.39
311.424
311.486
304.012
303.956
303.928
303.862
303.876
303.916
303.96
304.026
304.06
304.094
304.105
304.079
304.03
303.984
303.915
303.844
303.817
303.814
303.832
303.836
362.726
361.565
360.681
360.284
360.222
360.491
361.111
361.839
362.357
362.816
363.032
362.687
362.063
361.147
360.252
359.431
358.958
358.845
359.135
359.829
353.988
353.049
352.295
351.944
351.928
352.191
352.758
353.357
353.81
354.208
354.417
354.123
353.594
352.812
352.057
351.371
350.939
350.867
351.061
351.673
345.435
344.68
344.038
343.77
343.75
343.972
344.508
345.001
345.366
345.684
345.877
345.664
345.246
344.566
343.938
343.395
342.975
342.943
343.072
343.594
337.015
336.429
335.898
335.697
335.681
335.854
336.318
336.74
337.005
337.268
337.413
337.28
336.95
336.393
335.86
335.437
335.105
335.076
335.164
335.568
328.693
328.246
327.844
327.697
327.682
327.83
328.2
328.532
328.713
328.937
329.05
328.939
328.703
328.242
327.847
327.531
327.274
327.24
327.299
327.616
320.44
320.102
319.852
319.754
319.755
319.85
320.111
320.369
320.475
320.631
320.733
320.662
320.5
320.156
319.885
319.634
319.459
319.428
319.462
319.719
312.257
312.047
311.905
311.852
311.854
311.914
312.067
312.217
312.289
312.375
312.438
312.396
312.32
312.092
311.933
311.772
311.661
311.66
311.693
311.83
304.107
304.03
303.991
303.974
303.974
303.995
304.041
304.096
304.122
304.147
304.173
304.147
304.128
304.053
303.99
303.944
303.9
303.905
303.913
303.973
364.073
362.902
361.998
361.661
361.428
361.638
362.259
362.807
363.333
363.795
363.92
363.666
363.106
362.377
361.534
360.85
360.431
360.379
360.711
361.409
355.166
354.212
353.416
353.163
352.961
353.147
353.728
354.214
354.671
355.059
355.199
354.992
354.494
353.889
353.159
352.598
352.231
352.171
352.453
353.021
346.453
345.669
344.979
344.791
344.621
344.789
345.309
345.733
346.124
346.431
346.56
346.39
345.977
345.474
344.852
344.411
344.082
344.043
344.294
344.735
337.837
337.228
336.667
336.513
336.395
336.525
336.958
337.329
337.634
337.883
337.964
337.869
337.533
337.117
336.628
336.261
336.004
335.965
336.179
336.519
329.338
328.884
328.446
328.329
328.241
328.339
328.689
328.99
329.184
329.412
329.451
329.42
329.142
328.814
328.447
328.149
327.944
327.94
328.095
328.347
320.915
320.61
320.291
320.191
320.135
320.215
320.463
320.694
320.819
321.006
320.986
321.01
320.808
320.56
320.287
320.09
319.942
319.949
320.032
320.224
312.551
312.394
312.177
312.109
312.073
312.113
312.283
312.42
312.502
312.609
312.566
312.608
312.485
312.334
312.161
312.06
311.961
311.964
312.017
312.131
304.204
304.162
304.08
304.056
304.037
304.053
304.117
304.16
304.183
304.228
304.22
304.225
304.187
304.135
304.084
304.053
304.004
304.006
304.031
304.067
365.308
364.217
363.302
362.878
362.741
362.82
363.367
363.883
364.356
364.667
364.844
364.677
364.151
363.442
362.845
362.13
361.883
361.879
362.145
362.906
356.215
355.311
354.552
354.221
354.116
354.184
354.666
355.145
355.544
355.819
355.981
355.851
355.426
354.798
354.299
353.697
353.477
353.464
353.651
354.3
347.308
346.566
345.95
345.672
345.605
345.675
346.074
346.5
346.84
347.089
347.221
347.126
346.79
346.255
345.839
345.342
345.148
345.125
345.241
345.8
338.529
337.94
337.449
337.26
337.194
337.252
337.566
337.944
338.217
338.433
338.533
338.449
338.184
337.776
337.41
337.031
336.864
336.85
336.937
337.395
329.845
329.42
329.067
328.902
328.85
328.925
329.146
329.469
329.659
329.845
329.907
329.837
329.665
329.329
329.059
328.751
328.612
328.613
328.684
329.038
321.273
320.97
320.744
320.621
320.57
320.643
320.786
321.038
321.164
321.294
321.339
321.289
321.179
320.929
320.734
320.504
320.413
320.424
320.476
320.717
312.751
312.572
312.439
312.37
312.348
312.389
312.459
312.643
312.695
312.771
312.81
312.773
312.709
312.554
312.451
312.299
312.249
312.262
312.287
312.418
304.267
304.214
304.178
304.159
304.125
304.157
304.172
304.241
304.254
304.28
304.296
304.278
304.26
304.205
304.174
304.117
304.103
304.112
304.108
304.155
366.611
365.556
364.814
364.123
363.96
364.194
364.512
364.966
365.445
365.724
365.828
365.678
365.17
364.627
364.058
363.503
363.228
363.347
363.678
364.487
357.338
356.462
355.853
355.289
355.153
355.361
355.68
356.054
356.485
356.744
356.83
356.692
356.29
355.832
355.373
354.855
354.62
354.746
355.028
355.684
348.241
347.53
347.035
346.591
346.485
346.666
346.966
347.261
347.618
347.839
347.948
347.828
347.523
347.118
346.746
346.303
346.092
346.205
346.448
346.974
339.28
338.735
338.328
338
337.92
338.057
338.333
338.571
338.843
339.036
339.133
339.042
338.801
338.488
338.178
337.817
337.653
337.726
337.938
338.335
330.408
330.035
329.736
329.49
329.424
329.549
329.766
329.959
330.164
330.294
330.389
330.305
330.134
329.906
329.675
329.371
329.253
329.321
329.459
329.759
321.663
321.4
321.204
321.023
320.979
321.092
321.243
321.382
321.498
321.585
321.705
321.611
321.517
321.334
321.171
320.967
320.893
320.945
321.018
321.213
313.007
312.821
312.713
312.61
312.597
312.643
312.77
312.84
312.904
312.945
313.028
312.968
312.922
312.813
312.701
312.586
312.553
312.569
312.622
312.711
304.353
304.296
304.262
304.224
304.225
304.232
304.277
304.3
304.32
304.346
304.376
304.338
304.326
304.297
304.252
304.206
304.206
304.203
304.224
304.26
368.024
366.914
366.06
365.545
365.337
365.491
365.774
366.179
366.49
366.65
366.801
366.579
366.324
365.888
365.376
364.876
364.693
364.822
365.283
366.068
358.545
357.633
356.939
356.502
356.339
356.486
356.744
357.089
357.405
357.554
357.659
357.462
357.269
356.9
356.491
356.044
355.905
356.008
356.376
357.029
349.254
348.521
347.977
347.624
347.487
347.624
347.84
348.149
348.411
348.54
348.627
348.459
348.314
347.987
347.681
347.298
347.174
347.289
347.58
348.111
340.112
339.54
339.122
338.816
338.742
338.85
339.042
339.284
339.53
339.623
339.684
339.552
339.416
339.154
338.936
338.636
338.516
338.641
338.841
339.254
331.074
330.662
330.355
330.097
330.069
330.159
330.311
330.471
330.693
330.761
330.788
330.712
330.597
330.4
330.237
330.016
329.923
330.011
330.168
330.468
322.117
321.861
321.674
321.469
321.455
321.516
321.616
321.736
321.892
321.939
321.96
321.912
321.832
321.69
321.561
321.438
321.367
321.414
321.523
321.713
313.26
313.107
313.016
312.88
312.887
312.908
312.973
313.063
313.13
313.156
313.18
313.143
313.087
313.005
312.951
312.888
312.842
312.857
312.926
313.016
304.439
304.388
304.363
304.316
304.32
304.326
304.354
304.377
304.395
304.403
304.424
304.388
304.381
304.358
304.342
304.314
304.306
304.311
304.347
304.354
369.333
368.269
367.473
367.072
366.795
366.756
367.005
367.312
367.586
367.766
367.787
367.559
367.342
366.936
366.595
366.155
366.06
366.377
366.955
367.61
359.674
358.79
358.147
357.815
357.587
357.586
357.782
358.084
358.32
358.52
358.53
358.333
358.151
357.797
357.482
357.154
357.051
357.333
357.823
358.352
350.197
349.479
348.974
348.687
348.552
348.537
348.667
348.967
349.162
349.387
349.38
349.204
349.054
348.768
348.482
348.229
348.144
348.394
348.803
349.208
340.877
340.348
339.927
339.69
339.608
339.596
339.685
339.943
340.102
340.303
340.295
340.124
340.049
339.812
339.578
339.385
339.316
339.518
339.84
340.123
331.688
331.288
330.978
330.773
330.729
330.733
330.78
331.005
331.128
331.295
331.286
331.134
331.085
330.912
330.737
330.597
330.532
330.702
330.934
331.126
322.597
322.315
322.103
321.941
321.923
321.935
321.945
322.102
322.209
322.322
322.334
322.193
322.174
322.051
321.937
321.849
321.777
321.925
322.084
322.208
313.555
313.377
313.272
313.152
313.149
313.161
313.16
313.28
313.327
313.387
313.405
313.311
313.297
313.221
313.163
313.123
313.067
313.148
313.248
313.328
304.546
304.478
304.462
304.406
304.402
304.405
304.414
304.455
304.465
304.493
304.495
304.469
304.444
304.432
304.405
304.391
304.389
304.405
304.436
304.473
370.83
369.73
368.907
368.375
368.128
368.044
368.201
368.41
368.619
368.78
368.889
368.721
368.338
368.048
367.767
367.479
367.573
367.743
368.432
369.159
361.006
360.073
359.386
358.933
358.736
358.696
358.817
358.996
359.23
359.356
359.458
359.32
358.965
358.762
358.496
358.251
358.356
358.508
359.087
359.673
351.365
350.578
350.016
349.638
349.491
349.49
349.556
349.716
349.927
350.053
350.133
350.013
349.713
349.573
349.324
349.141
349.226
349.359
349.852
350.315
341.865
341.225
340.79
340.468
340.351
340.372
340.413
340.552
340.711
340.848
340.902
340.796
340.549
340.46
340.26
340.109
340.191
340.285
340.689
341.063
332.472
331.964
331.655
331.396
331.306
331.337
331.36
331.475
331.593
331.706
331.75
331.657
331.489
331.442
331.271
331.155
331.229
331.29
331.578
331.881
323.144
322.778
322.568
322.385
322.334
322.34
322.372
322.459
322.535
322.627
322.658
322.576
322.488
322.448
322.329
322.228
322.304
322.316
322.52
322.75
313.883
313.652
313.539
313.421
313.393
313.414
313.434
313.486
313.512
313.569
313.589
313.558
313.499
313.476
313.403
313.338
313.386
313.367
313.492
313.656
304.66
304.568
304.545
304.491
304.494
304.494
304.504
304.524
304.53
304.551
304.551
304.541
304.523
304.516
304.488
304.466
304.486
304.47
304.514
304.577
372.235
371.148
370.316
369.653
369.376
369.291
369.388
369.507
369.665
369.908
369.889
369.682
369.413
369.238
368.976
368.82
368.989
369.18
369.793
370.66
362.153
361.248
360.575
360.012
359.79
359.747
359.837
359.945
360.084
360.322
360.314
360.126
359.908
359.74
359.515
359.392
359.559
359.728
360.227
360.945
352.277
351.545
351.002
350.538
350.366
350.348
350.418
350.514
350.65
350.853
350.856
350.714
350.508
350.385
350.197
350.094
350.22
350.363
350.806
351.331
342.584
341.979
341.584
341.191
341.053
341.07
341.102
341.189
341.316
341.471
341.474
341.373
341.187
341.131
340.955
340.884
340.957
341.1
341.479
341.844
333.03
332.533
332.252
331.96
331.865
331.874
331.878
331.951
332.071
332.181
332.181
332.127
331.967
331.936
331.799
331.753
331.782
331.927
332.217
332.481
323.541
323.178
323.007
322.794
322.72
322.743
322.725
322.786
322.867
322.951
322.946
322.94
322.819
322.783
322.704
322.648
322.664
322.793
323.007
323.166
314.103
313.9
313.799
313.672
313.635
313.647
313.639
313.66
313.702
313.779
313.763
313.769
313.684
313.664
313.623
313.573
313.583
313.694
313.826
313.902
304.718
304.654
304.616
304.579
304.562
304.558
304.569
304.58
304.583
304.63
304.612
304.612
304.58
304.576
304.563
304.552
304.548
304.588
304.638
304.654
373.279
372.212
371.387
370.772
370.496
370.228
370.313
370.44
370.407
370.65
370.471
370.437
370.339
370.123
370.015
369.864
369.866
370.241
370.974
371.787
363.02
362.143
361.467
360.951
360.707
360.508
360.576
360.716
360.684
360.9
360.726
360.748
360.643
360.491
360.387
360.238
360.246
360.565
361.163
361.861
352.976
352.291
351.722
351.304
351.092
350.942
351.022
351.141
351.118
351.315
351.154
351.208
351.107
350.983
350.921
350.771
350.769
351.043
351.518
352.106
343.133
342.594
342.141
341.799
341.608
341.511
341.601
341.689
341.673
341.852
341.703
341.779
341.668
341.576
341.552
341.409
341.402
341.627
342.011
342.487
333.391
333.018
332.67
332.414
332.259
332.187
332.251
332.33
332.335
332.466
332.384
332.432
332.327
332.226
332.253
332.133
332.134
332.293
332.59
332.973
323.786
323.533
323.291
323.108
322.995
322.927
322.994
323.037
323.078
323.153
323.1
323.137
323.054
322.964
323.007
322.903
322.926
323.042
323.244
323.512
314.258
314.108
313.963
313.869
313.782
313.724
313.799
313.804
313.865
313.902
313.873
313.878
313.819
313.758
313.804
313.756
313.755
313.82
313.928
314.09
304.772
304.736
304.665
304.642
304.612
304.595
304.622
304.631
304.658
304.647
304.644
304.651
304.643
304.606
304.626
304.613
304.611
304.623
304.659
304.706
)
;

boundaryField
{
    hotSide
    {
        type            fixedGradient;
        gradient        nonuniform List<scalar> 
400
(
626.313
624.318
625.103
628.596
634.534
642.537
652.197
663.147
675.085
687.782
701.075
714.857
729.073
743.713
758.806
774.415
790.628
807.54
825.219
843.693
602.905
601.153
602.369
606.466
613.121
621.882
632.282
643.91
656.44
669.632
683.317
697.392
711.809
726.565
741.703
757.307
773.487
790.363
808.03
826.526
587.203
585.979
587.694
592.25
599.324
608.465
619.205
631.129
643.906
657.29
671.11
685.262
699.702
714.432
729.502
745.003
761.053
777.775
795.271
813.585
578.728
578.299
580.593
585.508
592.762
601.967
612.705
624.59
637.304
650.6
664.309
678.325
692.604
707.154
722.026
737.308
753.112
769.55
786.713
804.647
575.623
576.157
579.136
584.453
591.87
601.067
611.688
623.391
635.877
648.913
662.331
676.03
689.97
704.165
718.67
733.571
748.969
764.964
781.635
799.03
575.768
577.343
581.125
586.994
594.734
604.066
614.675
626.251
638.514
651.241
664.274
677.523
690.965
704.628
718.579
732.912
747.726
763.117
779.16
795.905
577.392
580.033
584.722
591.318
599.609
609.321
620.148
631.783
643.946
656.414
669.04
681.757
694.571
707.544
720.772
734.371
748.452
763.117
778.442
794.48
579.111
582.788
588.44
595.906
604.959
615.307
626.62
638.554
650.802
663.12
675.369
687.514
699.612
711.783
724.174
736.937
750.208
764.098
778.688
794.033
579.811
584.412
590.991
599.375
609.317
620.49
632.514
644.979
657.507
669.813
681.754
693.342
704.708
716.055
727.6
739.54
752.038
765.215
779.154
793.904
578.59
583.886
591.219
600.413
611.201
623.227
636.049
649.174
662.131
674.567
686.328
697.48
708.247
718.922
729.793
741.099
753.022
765.688
779.176
793.531
574.809
580.446
588.204
597.905
609.276
621.935
635.397
649.105
662.513
675.207
687.02
698.054
708.6
719.013
729.622
740.693
752.413
764.912
778.265
792.512
568.206
573.748
581.496
591.271
602.791
615.666
629.397
643.417
657.169
670.233
682.429
693.848
704.768
715.536
726.477
737.853
749.856
762.617
776.214
790.688
559.004
564.02
571.337
580.773
592.04
604.747
618.411
632.5
646.509
660.052
672.946
685.223
697.076
708.779
720.608
732.801
745.544
758.972
773.171
788.192
547.951
552.097
558.684
567.533
578.352
590.748
604.259
618.397
632.712
646.858
660.638
674.019
687.099
700.056
713.097
726.423
740.205
754.578
769.64
785.45
536.304
539.359
545.079
553.292
563.697
575.884
589.385
603.73
618.492
633.342
648.067
662.584
676.915
691.162
705.472
720.006
734.92
750.348
766.393
783.121
525.846
527.711
532.557
540.226
550.383
562.57
576.275
591.004
606.327
621.91
637.529
653.067
668.502
683.887
699.327
714.958
730.923
747.357
764.369
782.028
518.97
519.661
523.704
530.948
541.003
553.325
567.333
582.486
598.339
614.551
630.893
647.232
663.525
679.795
696.124
712.631
729.457
746.741
764.599
783.099
518.581
518.261
521.59
528.425
538.319
550.652
564.783
580.141
596.269
612.831
629.597
646.431
663.275
680.138
697.084
714.219
731.681
749.61
768.127
787.296
527.256
526.246
528.936
535.197
544.587
556.486
570.257
585.339
601.286
617.77
634.565
651.529
668.597
685.76
703.064
720.6
738.487
756.856
775.815
795.42
545.753
544.411
546.527
551.998
560.459
571.389
584.233
598.491
613.749
629.696
646.107
662.838
679.807
696.99
714.411
732.134
750.249
768.855
788.032
807.82
)
;
    }
    coldSide
    {
        type            mixed;
        refValue        uniform 300;
        refGradient     uniform 0;
        valueFraction   uniform 0.991591;
        source          uniform 0;
        value           nonuniform List<scalar> 
400
(
300.03
300.03
300.03
300.03
300.03
300.031
300.031
300.032
300.033
300.033
300.034
300.035
300.035
300.036
300.037
300.037
300.038
300.039
300.04
300.04
300.029
300.029
300.029
300.03
300.03
300.03
300.031
300.031
300.032
300.033
300.033
300.034
300.035
300.035
300.036
300.037
300.038
300.038
300.039
300.04
300.028
300.029
300.029