/*--------------------------------*- C++ -*----------------------------------*\
| =========                 |                                                 |
| \\      /  F ield         | OpenFOAM: The Open Source CFD Toolbox           |
|  \\    /   O peration     | Version:  2212                                  |
|   \\  /    A nd           | Website:  www.openfoam.com                      |
|    \\/     M anipulation  |                                                 |
\*---------------------------------------------------------------------------*/
FoamFile
{
    version     2.0;
    format      ascii;
    arch        "LSB;label=32;scalar=64";
    class       volScalarField;
    location    "./ITHACAoutput/true/18.6";
    object      error;
}
// * * * * * * * * * * * * * * * * * * * * * * * * * * * * * * * * * * * * * //

dimensions      [0 0 0 1 0 0 0];

internalField   nonuniform List<scalar> 
3200
(
2.64851
2.80241
3.03323
3.40775
3.74999
4.12538
4.38377
4.77562
5.00524
5.26171
5.36926
5.35944
5.31066
5.24072
5.05265
4.88605
4.76686
4.61267
4.49753
4.35585
2.10081
2.26134
2.44918
2.79888
3.04111
3.35229
3.67299
3.92737
4.1866
4.33351
4.44101
4.46486
4.45872
4.31185
4.26817
4.11162
3.9736
3.80217
3.74808
3.6385
1.64352
1.69756
1.91925
2.23462
2.40261
2.76901
3.02719
3.17567
3.42645
3.48863
3.62325
3.71818
3.62999
3.57445
3.43594
3.32608
3.26092
3.13441
2.99937
3.02143
1.22146
1.39555
1.6026
1.71293
1.87475
2.06837
2.31013
2.46414
2.6641
2.75225
2.90172
2.89113
2.8558
2.81919
2.72523
2.60675
2.57221
2.56669
2.44971
2.40722
0.946732
1.04749
1.13916
1.32549
1.43421
1.60898
1.74881
1.89359
2.02544
2.12577
2.17627
2.21781
2.2203
2.1723
2.14531
2.02123
1.99897
1.95767
1.87634
1.78177
0.647781
0.740266
0.759721
0.903682
1.02869
1.08538
1.21731
1.33658
1.35374
1.52299
1.52078
1.55208
1.53986
1.44067
1.50821
1.42543
1.36543
1.33802
1.27924
1.31225
0.379533
0.401884
0.499228
0.523064
0.621964
0.635802
0.73872
0.811081
0.836702
0.929162
0.938489
0.925484
0.870497
0.891919
0.923938
0.899929
0.79889
0.813308
0.785887
0.731767
0.123127
0.194162
0.192082
0.214978
0.23698
0.19279
0.211034
0.241774
0.321953
0.303963
0.291273
0.334651
0.33066
0.27975
0.29125
0.301976
0.288994
0.278115
0.15183
0.282927
2.03067
2.19638
2.44432
2.77638
3.06202
3.35325
3.67285
4.00061
4.34343
4.44326
4.60574
4.671
4.63401
4.60794
4.35612
4.1981
4.03889
3.97414
3.80508
3.77398
1.61968
1.6892
2.03613
2.20877
2.47181
2.71435
3.11915
3.36259
3.55137
3.7545
3.85999
3.82873
3.82977
3.74568
3.72864
3.50989
3.35235
3.27729
3.21964
3.12629
1.30406
1.37467
1.57777
1.78567
2.0523
2.28791
2.47784
2.76428
2.89071
3.09611
3.13314
3.22912
3.23449
3.0995
2.98792
2.82302
2.83062
2.68508
2.66038
2.58498
0.97163
1.03515
1.14276
1.34973
1.60383
1.78562
1.90294
2.11669
2.28231
2.43606
2.53606
2.53581
2.47922
2.41428
2.37311
2.30814
2.21446
2.14229
2.1156
2.02599
0.712191
0.828158
0.871903
1.10052
1.16118
1.26007
1.53471
1.6671
1.68443
1.80759
1.90879
1.87516
1.85877
1.93427
1.79767
1.78801
1.66675
1.71773
1.6758
1.57742
0.513793
0.523249
0.604427
0.685074
0.765353
0.937016
0.983861
1.1878
1.23091
1.29279
1.35843
1.33245
1.33623
1.30045
1.27809
1.26149
1.15857
1.1886
1.14042
1.15144
0.298691
0.352096
0.333622
0.45107
0.435548
0.537343
0.632728
0.666571
0.719233
0.803505
0.885449
0.813686
0.719058
0.781765
0.785724
0.763713
0.677156
0.682392
0.702661
0.684279
0.109265
0.0993535
0.124915
0.164692
0.214978
0.185146
0.208356
0.214384
0.249074
0.26395
0.287544
0.333507
0.250707
0.264297
0.248304
0.228761
0.228876
0.213473
0.264123
0.238647
1.25623
1.41773
1.65279
1.95516
2.22093
2.44827
2.87717
3.11981
3.34773
3.53828
3.63227
3.67861
3.67138
3.62796
3.55969
3.27652
3.16048
3.07527
3.04157
2.86737
0.913194
1.0815
1.2362
1.43548
1.75473
2.00545
2.2889
2.5444
2.74234
2.95748
3.00022
3.08941
3.02938
2.95214
2.88472
2.74619
2.7113
2.5776
2.43498
2.46913
0.692605
0.7966
0.965677
1.17402
1.38823
1.58084
1.81982
2.1216
2.18693
2.37234
2.42865
2.47835
2.51637
2.40338
2.34657
2.20586
2.24803
2.07908
2.08089
1.95667
0.554839
0.594846
0.697439
0.877101
1.0064
1.28982
1.48777
1.56874
1.74786
1.85515
1.96557
1.95783
2.02374
1.94246
1.85474
1.80806
1.76197
1.6314
1.66319
1.53111
0.398882
0.403486
0.538128
0.673693
0.892798
0.930526
1.02564
1.24346
1.30165
1.38004
1.49962
1.4605
1.55398
1.45474
1.48372
1.32823
1.27453
1.19858
1.24248
1.16129
0.245718
0.317348
0.313523
0.482396
0.58793
0.602146
0.687468
0.841999
0.921517
0.97439
1.00502
1.04393
1.07254
1.02036
0.980192
0.992977
0.95451
0.891955
0.823576
0.881214
0.173021
0.110937
0.204091
0.221591
0.326091
0.395094
0.418091
0.527355
0.56514
0.565146
0.586803
0.580743
0.644477
0.656477
0.614156
0.585232
0.539276
0.540817
0.542714
0.525687
0.045819
0.015826
0.0371489
0.0717305
0.0904411
0.139096
0.198813
0.161995
0.185332
0.158425
0.220322
0.23377
0.179946
0.232795
0.191424
0.218911
0.212069
0.199974
0.178056
0.196956
0.423317
0.583921
0.685748
0.96715
1.23758
1.52886
1.85011
2.12381
2.31247
2.53961
2.66614
2.64233
2.68227
2.61481
2.4999
2.32951
2.2388
2.20116
2.10162
1.99725
0.141296
0.350692
0.431678
0.665892
0.896285
1.20317
1.45238
1.63432
1.90835
2.02567
2.11324
2.16874
2.16655
2.08942
2.0542
1.97928
1.86162
1.8263
1.71425
1.73175
0.101164
0.143956
0.29168
0.474405
0.644413
0.895674
1.15739
1.31819
1.54872
1.61371
1.748
1.7274
1.72146
1.74005
1.625
1.52541
1.387
1.4607
1.39492
1.33563
0.00327767
0.053891
0.273506
0.3986
0.503483
0.668477
0.908068
1.01658
1.14493
1.27704
1.35693
1.33957
1.38622
1.26806
1.29207
1.17731
1.21218
1.09711
1.12341
1.12614
-0.0472173
-0.00984533
0.151288
0.22033
0.326951
0.559332
0.630043
0.773182
0.868325
0.909678
0.956851
1.03955
1.09043
1.00269
0.930669
0.947487
0.917392
0.869704
0.850908
0.793678
0.0108685
-0.0252119
0.0243692
0.167915
0.235879
0.33558
0.431979
0.544348
0.561373
0.632469
0.677861
0.734858
0.687829
0.703675
0.670968
0.640183
0.569295
0.5823
0.55705
0.568119
-0.0539047
0.00591487
0.0632772
0.105386
0.184755
0.199748
0.27538
0.28571
0.387607
0.386642
0.37034
0.415686
0.434903
0.428386
0.403554
0.399106
0.411652
0.353742
0.341565
0.376464
0.0532876
-0.0200974
0.0303437
-0.00458772
0.0363408
0.121138
0.151765
0.110166
0.08193
0.164143
0.133145
0.13206
0.0789731
0.150409
0.170133
0.114629
0.118913
0.121513
0.184123
0.12775
-0.300477
-0.265725
-0.112419
0.132652
0.212065
0.64579
0.83857
1.09484
1.3661
1.57253
1.58823
1.62978
1.66652
1.53336
1.47163
1.40452
1.26592
1.21998
1.20759
1.25051
-0.452128
-0.46429
-0.219148
-0.100694
0.0620619
0.397122
0.587078
0.878354
1.06254
1.1222
1.25344
1.33564
1.26324
1.23337
1.14182
1.07681
1.04568
0.951759
1.01585
0.996052
-0.48719
-0.463526
-0.308372
-0.146584
0.00963149
0.257056
0.388863
0.583293
0.762225
0.89451
0.985892
0.986362
0.973615
0.989483
0.893684
0.965328
0.822354
0.779582
0.801497
0.7638
-0.412751
-0.399769
-0.33494
-0.167718
-0.0652919
0.105582
0.188169
0.421788
0.623217
0.628513
0.733512
0.823817
0.747256
0.741179
0.725321
0.718844
0.585853
0.646664
0.590901
0.552121
-0.437202
-0.318724
-0.269326
-0.142675
-0.0787609
0.0441918
0.136426
0.313795
0.428239
0.486227
0.504225
0.568488
0.539721
0.557103
0.549173
0.475265
0.449887
0.377761
0.416493
0.458667
-0.295097
-0.228216
-0.157191
-0.149997
-0.049069
-0.0133906
0.104382
0.205029
0.128614
0.3246
0.354284
0.337906
0.382324
0.348596
0.375851
0.321789
0.285384
0.26388
0.336856
0.329827
-0.202078
-0.12841
-0.134819
-0.0753589
-0.0102098
0.0251257
0.0473649
0.099414
0.210377
0.22539
0.208245
0.229655
0.197183
0.185824
0.111328
0.206142
0.165985
0.175238
0.262569
0.195
-0.0545457
-0.0280875
-0.0610612
-0.0389951
-0.0448618
-0.026287
-0.0258753
0.0489027
0.0588398
0.114534
0.0448338
0.0494507
0.0308539
0.0538045
0.062461
0.0786945
0.0591747
0.0563773
0.0611799
0.0387612
-1.07557
-1.05101
-0.909539
-0.731858
-0.559399
-0.346636
-0.0191094
0.147643
0.40409
0.530987
0.562396
0.639788
0.700871
0.609068
0.512958
0.431875
0.457032
0.473625
0.429356
0.343408
-1.0668
-1.09113
-0.947605
-0.733128
-0.616393
-0.496174
-0.259032
-0.0377597
0.136757
0.318524
0.434795
0.396181
0.45222
0.363914
0.32932
0.281148
0.339941
0.289058
0.304208
0.29197
-0.969752
-0.96864
-0.86095
-0.801304
-0.61273
-0.411006
-0.330326
-0.132945
0.00926757
0.210774
0.222309
0.242237
0.313887
0.29419
0.219275
0.185015
0.196837
0.0919439
0.189922
0.185719
-0.943213
-0.852222
-0.774159
-0.647757
-0.670784
-0.38626
-0.289536
-0.13315
-0.107416
0.0913363
0.144197
0.234565
0.136335
0.103167
0.192404
0.0711228
0.0107255
0.00944774
0.126131
0.129305
-0.748683
-0.728174
-0.600298
-0.556055
-0.577389
-0.402842
-0.292951
-0.221616
-0.116631
0.0458432
0.0733263
0.0800087
0.143156
0.042773
0.0733462
0.0583055
0.00144927
0.032291
0.0771125
0.0791445
-0.56479
-0.575914
-0.516518
-0.442778
-0.357231
-0.301623
-0.263125
-0.141382
-0.0853399
-0.036627
0.0517145
0.0347211
0.0657686
0.0151828
0.0510824
0.00375389
-0.0380848
0.0483931
0.00626825
0.0382311
-0.364036
-0.302585
-0.33056
-0.251894
-0.225578
-0.144464
-0.181472
-0.0759401
-0.0988556
-0.0528179
0.025536
0.00113475
0.00800423
0.0208909
-0.0139912
-0.0164136
-0.0194476
0.0044573
0.00874215
-0.106355
-0.0508044
-0.205925
-0.149078
-0.0930534
0.00726983
-0.0872153
0.00108093
-0.0302112
-0.0556493
0.0311834
-0.028646
-0.0282203
0.0263747
0.0138938
-0.0151861
0.0428837
0.0576511
-0.0220827
0.00606422
0.0306802
-1.70797
-1.70401
-1.62801
-1.53924
-1.37291
-1.1522
-1.01291
-0.786682
-0.601035
-0.414459
-0.361687
-0.234759
-0.297495
-0.329004
-0.360198
-0.366655
-0.353349
-0.323797
-0.329617
-0.235128
-1.66265
-1.63016
-1.46156
-1.49122
-1.33229
-1.1248
-0.993228
-0.834174
-0.652886
-0.545208
-0.523954
-0.376595
-0.432045
-0.4186
-0.452793
-0.430255
-0.465908
-0.403002
-0.348658
-0.32649
-1.47007
-1.49132
-1.41537
-1.35823
-1.18854
-1.11125
-0.922359
-0.84402
-0.715636
-0.532172
-0.527161
-0.443226
-0.415315
-0.371362
-0.453938
-0.444851
-0.420457
-0.384684
-0.402511
-0.325975
-1.2897
-1.27159
-1.26971
-1.17749
-1.0257
-1.00814
-0.871462
-0.718783
-0.610118
-0.563409
-0.409533
-0.438058
-0.386946
-0.345821
-0.401713
-0.4261
-0.382367
-0.380272
-0.391506
-0.335481
-1.04436
-1.0406
-1.0148
-1.0016
-0.937135
-0.777725
-0.664581
-0.637112
-0.482826
-0.423638
-0.385662
-0.379741
-0.387529
-0.350616
-0.360847
-0.348691
-0.308663
-0.319271
-0.252989
-0.247934
-0.729579
-0.722579
-0.780211
-0.691833
-0.626122
-0.558016
-0.502522
-0.451363
-0.389704
-0.329298
-0.268836
-0.188418
-0.239703
-0.261949
-0.230088
-0.283531
-0.243558
-0.254003
-0.232429
-0.248085
-0.483112
-0.454059
-0.454276
-0.353124
-0.445264
-0.396419
-0.338848
-0.257458
-0.257128
-0.213685
-0.162786
-0.120694
-0.189992
-0.217968
-0.174131
-0.173139
-0.184725
-0.124979
-0.0920084
-0.131977
-0.158824
-0.219543
-0.164185
-0.17679
-0.111962
-0.133879
-0.0565781
-0.0674253
-0.111454
-0.0620658
-0.101997
-0.057881
0.00445553
-0.116504
-0.0898367
-0.0726439
-0.116772
-0.0953228
-0.026055
-0.00298154
-2.34179
-2.30964
-2.36803
-2.23028
-2.11583
-1.97396
-1.756
-1.63727
-1.44993
-1.30576
-1.19123
-1.1463
-1.17871
-1.09687
-1.16502
-1.08904
-1.11653
-1.06249
-1.01784
-0.843944
-2.1767
-2.13309
-2.175
-2.03148
-1.98205
-1.8233
-1.63757
-1.50954
-1.40061
-1.27049
-1.2326
-1.1932
-1.17238
-1.10986
-1.09547
-1.1164
-1.06189
-0.991094
-0.992877
-0.858818
-1.9314
-1.92853
-1.91572
-1.86957
-1.83477
-1.6364
-1.53503
-1.40652
-1.23962
-1.16177
-1.1209
-1.09211
-1.00978
-1.09983
-0.954548
-1.0255
-0.943725
-0.923488
-0.890925
-0.821953
-1.66263
-1.76704
-1.6384
-1.62406
-1.56762
-1.42655
-1.31752
-1.23368
-1.14462
-1.02463
-1.09308
-0.944641
-0.88041
-0.860942
-0.89188
-0.863042
-0.811562
-0.812274
-0.72447
-0.683021
-1.34889
-1.31227
-1.29792
-1.24498
-1.25692
-1.1398
-1.02179
-1.00312
-0.963588
-0.86521
-0.77734
-0.752815
-0.693091
-0.733807
-0.710695
-0.636946
-0.64961
-0.70764
-0.65494
-0.594181
-0.92447
-0.900122
-0.994233
-0.988709
-0.897249
-0.75253
-0.785059
-0.733181
-0.652551
-0.625425
-0.537939
-0.581751
-0.558514
-0.550564
-0.504856
-0.520586
-0.511015
-0.514462
-0.455413
-0.470993
-0.583755
-0.607515
-0.639791
-0.575998
-0.503287
-0.507592
-0.49276
-0.416312
-0.398453
-0.44034
-0.27867
-0.337614
-0.379729
-0.318054
-0.355677
-0.263364
-0.296779
-0.243919
-0.316961
-0.355936
-0.25235
-0.215985
-0.177997
-0.209933
-0.272532
-0.160339
-0.150331
-0.117884
-0.149634
-0.143864
-0.115282
-0.142265
-0.119071
-0.139952
-0.108161
-0.0763967
-0.0942111
-0.118659
-0.101913
-0.0751389
-2.80729
-2.94557
-2.84641
-2.89512
-2.74573
-2.58059
-2.53255
-2.31605
-2.2709
-2.14932
-1.96921
-1.94535
-1.91634
-1.90569
-1.90182
-1.81203
-1.82262
-1.73298
-1.63729
-1.46214
-2.6475
-2.6905
-2.61986
-2.6088
-2.58262
-2.43952
-2.32963
-2.21652
-2.08841
-2.01713
-1.82615
-1.83262
-1.76258
-1.73702
-1.73966
-1.76224
-1.65749
-1.49055
-1.55764
-1.35891
-2.27334
-2.28247
-2.36048
-2.32886
-2.25984
-2.19238
-2.04825
-1.93707
-1.86825
-1.76985
-1.73489
-1.61008
-1.60005
-1.53353
-1.50562
-1.49106
-1.45135
-1.46053
-1.30537
-1.2463
-1.92287
-1.92642
-1.97546
-2.02853
-1.93162
-1.85178
-1.72545
-1.66034
-1.52528
-1.49195
-1.4597
-1.39172
-1.36304
-1.32728
-1.32523
-1.28281
-1.27256
-1.21049
-1.16219
-0.999929
-1.54069
-1.56484
-1.5634
-1.55807
-1.58882
-1.45348
-1.425
-1.36699
-1.25346
-1.2486
-1.21376
-1.10918
-1.17022
-1.13945
-1.06051
-1.00518
-0.969188
-0.991844
-0.897148
-0.739367
-1.21127
-1.12926
-1.16854
-1.16472
-1.10503
-1.07803
-1.08415
-0.945011
-0.955783
-0.932129
-0.808397
-0.806726
-0.822156
-0.835425
-0.796891
-0.73079
-0.81572
-0.715137
-0.724215
-0.599527
-0.661452
-0.720908
-0.720269
-0.706498
-0.739742
-0.665292
-0.63805
-0.652244
-0.562722
-0.545112
-0.475091
-0.487858
-0.484997
-0.506211
-0.435427
-0.446321
-0.423551
-0.458929
-0.414942
-0.371916
-0.184196
-0.22225
-0.199477
-0.291424
-0.23966
-0.259564
-0.15422
-0.2651
-0.181219
-0.136914
-0.263979
-0.147958
-0.199931
-0.159629
-0.165843
-0.160957
-0.212889
-0.167158
-0.118721
-0.122143
-3.25414
-3.26361
-3.32921
-3.40806
-3.32783
-3.23966
-3.1927
-2.96745
-2.95047
-2.75718
-2.73035
-2.615
-2.59116
-2.55855
-2.45349
-2.39737
-2.32678
-2.21798
-2.03688
-1.94034
-2.95193
-3.00142
-3.06458
-3.08133
-3.0612
-3.02166
-2.84455
-2.72071
-2.69846
-2.55795
-2.55197
-2.41546
-2.44652
-2.31014
-2.24076
-2.21093
-2.1769
-2.08648
-1.87151
-1.81857
-2.57409
-2.66462
-2.71779
-2.68518
-2.76006
-2.59716
-2.56469
-2.50297
-2.31411
-2.29927
-2.23083
-2.2227
-2.14169
-2.06065
-2.03028
-1.92892
-1.92391
-1.82504
-1.66037
-1.57795
-2.1963
-2.22309
-2.27396
-2.25583
-2.28431
-2.23106
-2.1236
-2.08901
-2.04267
-1.90412
-1.83624
-1.88038
-1.80879
-1.80781
-1.67912
-1.68441
-1.58407
-1.54057
-1.40055
-1.27738
-1.70116
-1.8334
-1.77829
-1.82685
-1.81142
-1.71506
-1.67653
-1.67221
-1.66289
-1.51721
-1.44713
-1.45517
-1.46204
-1.39795
-1.34377
-1.30882
-1.2781
-1.18496
-1.11464
-1.01761
-1.21674
-1.2855
-1.37018
-1.30263
-1.27712
-1.2278
-1.20241
-1.1803
-1.19964
-1.19003
-1.09299
-1.04513
-1.0284
-1.01087
-1.00378
-0.97416
-0.865774
-0.877148
-0.825737
-0.750158
-0.794125
-0.822846
-0.871303
-0.766351
-0.756035
-0.83401
-0.763816
-0.756422
-0.748547
-0.651331
-0.631633
-0.643264
-0.668537
-0.595818
-0.622181
-0.572028
-0.47648
-0.501141
-0.530361
-0.500519
-0.224343
-0.2691
-0.249548
-0.28649
-0.229225
-0.314969
-0.24603
-0.251222
-0.189912
-0.274019
-0.292051
-0.272152
-0.229971
-0.194322
-0.150701
-0.159365
-0.18081
-0.18926
-0.125316
-0.152407
-3.5684
-3.64227
-3.68304
-3.78508
-3.79758
-3.78668
-3.75609
-3.59719
-3.50471
-3.33638
-3.29757
-3.25292
-3.18179
-3.1493
-3.0283
-3.00741
-2.88533
-2.67694
-2.43965
-2.32789
-3.22146
-3.33229
-3.41013
-3.45138
-3.52381
-3.43696
-3.34288
-3.24402
-3.20274
-3.13941
-3.00779
-2.95838
-2.87331
-2.83816
-2.86117
-2.69298
-2.58802
-2.47112
-2.27934
-2.09466
-2.81757
-2.95035
-3.01417
-3.03671
-3.03174
-2.99788
-2.96931
-2.84132
-2.79906
-2.77747
-2.63346
-2.6645
-2.53031
-2.5168
-2.41331
-2.36989
-2.22107
-2.14154
-1.97769
-1.86597
-2.39125
-2.45244
-2.5522
-2.54749
-2.5237
-2.50799
-2.47061
-2.46809
-2.36976
-2.33284
-2.21438
-2.20703
-2.11848
-2.03832
-2.01357
-1.95647
-1.8668
-1.81108
-1.66345
-1.568
-1.94106
-1.96472
-1.99582
-2.03567
-1.95251
-2.00202
-2.00209
-1.92823
-1.80713
-1.86438
-1.79388
-1.77571
-1.72061
-1.61602
-1.58202
-1.49886
-1.55662
-1.41467
-1.32274
-1.22326
-1.33087
-1.39292
-1.46877
-1.46862
-1.46153
-1.38666
-1.40846
-1.45186
-1.34964
-1.32893
-1.26396
-1.2224
-1.21604
-1.19448
-1.14924
-1.17151
-1.05406
-1.03153
-0.94943
-0.92229
-0.791965
-0.876625
-0.903875
-0.837552
-0.885382
-0.935484
-0.827877
-0.847595
-0.81776
-0.845956
-0.853754
-0.775739
-0.818456
-0.667222
-0.692547
-0.706986
-0.678949
-0.62142
-0.564591
-0.535106
-0.31461
-0.257302
-0.265675
-0.326821
-0.314675
-0.326486
-0.325127
-0.315401
-0.228547
-0.267389
-0.289174
-0.275558
-0.259777
-0.18165
-0.256252
-0.219936
-0.241286
-0.184569
-0.191573
-0.179566
-3.75675
-3.9132
-4.04282
-4.16332
-4.21923
-4.18175
-4.13583
-4.08088
-3.99566
-3.84029
-3.76408
-3.69293
-3.67429
-3.62247
-3.48331
-3.3648
-3.18459
-3.04817
-2.84302
-2.62409
-3.41012
-3.52601
-3.7212
-3.74311
-3.82088
-3.71477
-3.7059
-3.70564
-3.64227
-3.59288
-3.39714
-3.45905
-3.31269
-3.25478
-3.15359
-3.00008
-2.92081
-2.75346
-2.58173
-2.33765
-3.02133
-3.08814
-3.25867
-3.28924
-3.34525
-3.30167
-3.18065
-3.25385
-3.1557
-3.10235
-3.03001
-2.91026
-2.80132
-2.85147
-2.72363
-2.63002
-2.58929
-2.3549
-2.21607
-2.09773
-2.56087
-2.56088
-2.66189
-2.72739
-2.8203
-2.78251
-2.73328
-2.64025
-2.60768
-2.48607
-2.55715
-2.4829
-2.42094
-2.38528
-2.29542
-2.20506
-2.13906
-1.9679
-1.84042
-1.74743
-1.94034
-1.97902
-2.11023
-2.19472
-2.20089
-2.24873
-2.19103
-2.19136
-2.11957
-2.05768
-2.03773
-1.88829
-1.92113
-1.85413
-1.85968
-1.80035
-1.69771
-1.58094
-1.44262
-1.35105
-1.44309
-1.45485
-1.54007
-1.6048
-1.54814
-1.51165
-1.50782
-1.52582
-1.52066
-1.47991
-1.48797
-1.41779
-1.40828
-1.33985
-1.34243
-1.25463
-1.27528
-1.1722
-1.04446
-0.945061
-0.918181
-0.942243
-0.909117
-0.966707
-0.998696
-0.995629
-0.933975
-0.968383
-0.950424
-0.872366
-0.938123
-0.896513
-0.794115
-0.805417
-0.819034
-0.870181
-0.708983
-0.779826
-0.651784
-0.642118
-0.343645
-0.356159
-0.336148
-0.30135
-0.294109
-0.265335
-0.288766
-0.349591
-0.2374
-0.334805
-0.328808
-0.31817
-0.298089
-0.288755
-0.29789
-0.317128
-0.275592
-0.186172
-0.208145
-0.213787
-3.85779
-4.05564
-4.21617
-4.35858
-4.42952
-4.49191
-4.4186
-4.42591
-4.23255
-4.29338
-4.19685
-4.17043
-4.07395
-3.98028
-3.83048
-3.67679
-3.47865
-3.29693
-3.02986
-2.81978
-3.53738
-3.68834
-3.82688
-3.85218
-3.98258
-4.03141
-3.99474
-3.93583
-3.92948
-3.8515
-3.78613
-3.74347
-3.66396
-3.5236
-3.45247
-3.26522
-3.07385
-2.93293
-2.79593
-2.51045
-3.07394
-3.23521
-3.37461
-3.48676
-3.49665
-3.52787
-3.56172
-3.50929
-3.42584
-3.33596
-3.31624
-3.30383
-3.17626
-3.07035
-3.0477
-2.85988
-2.70605
-2.54807
-2.28527
-2.1854
-2.61078
-2.70836
-2.74516
-2.89447
-2.92323
-2.90336
-2.93822
-2.91943
-2.89554
-2.83578
-2.73037
-2.67861
-2.71439
-2.55127
-2.50654
-2.3848
-2.31496
-2.11933
-2.00902
-1.82512
-2.05985
-2.12672
-2.24757
-2.22764
-2.25669
-2.36864
-2.29115
-2.30133
-2.24843
-2.21987
-2.23041
-2.17277
-2.04465
-2.00711
-2.01265
-1.89755
-1.76612
-1.67932
-1.49166
-1.46667
-1.44909
-1.52415
-1.57619
-1.69455
-1.68037
-1.66598
-1.73708
-1.72566
-1.69052
-1.56603
-1.61337
-1.55143
-1.59318
-1.5069
-1.36681
-1.44095
-1.37106
-1.27733
-1.12799
-1.0442
-0.871656
-0.945065
-0.961502
-1.0217
-1.06325
-1.01383
-1.0072
-1.02041
-1.01736
-0.908126
-0.892752
-0.947209
-0.83973
-0.902221
-0.868933
-0.779804
-0.753882
-0.756106
-0.674812
-0.628175
-0.328256
-0.361876
-0.287023
-0.395092
-0.284645
-0.30633
-0.290689
-0.31773
-0.319123
-0.369173
-0.348255
-0.304619
-0.268289
-0.31084
-0.267596
-0.326324
-0.277867
-0.24129
-0.168468
-0.136326
-3.90198
-4.11369
-4.29982
-4.48276
-4.56211
-4.62777
-4.6133
-4.6924
-4.57785
-4.53843
-4.5309
-4.36579
-4.31588
-4.12199
-4.00151
-3.90274
-3.68738
-3.38366
-3.12972
-2.8461
-3.51389
-3.68328
-3.82382
-4.08045
-4.1083
-4.12102
-4.17803
-4.16637
-4.08773
-4.04803
-4.00113
-3.97186
-3.88293
-3.76716
-3.64935
-3.4303
-3.30564
-3.0409
-2.82522
-2.57361
-3.05823
-3.23557
-3.37578
-3.52968
-3.55066
-3.70527
-3.64109
-3.60371
-3.62062
-3.54075
-3.48975
-3.46275
-3.35254
-3.25837
-3.21345
-3.04393
-2.8598
-2.63022
-2.44158
-2.2003
-2.61786
-2.7235
-2.85653
-2.91043
-3.00425
-3.02172
-3.01135
-3.03609
-3.02715
-2.93475
-2.95245
-2.89257
-2.80839
-2.76588
-2.61948
-2.5407
-2.40243
-2.2386
-2.01791
-1.86998
-1.97688
-2.11394
-2.23595
-2.30789
-2.35036
-2.35805
-2.39411
-2.41776
-2.43313
-2.2872
-2.26168
-2.28278
-2.22342
-2.09624
-2.06863
-1.98363
-1.85601
-1.74355
-1.58252
-1.42572
-1.42726
-1.49073
-1.52736
-1.66699
-1.70455
-1.66548
-1.78367
-1.73856
-1.70497
-1.67656
-1.64945
-1.6026
-1.649
-1.58208
-1.47427
-1.41671
-1.35157
-1.30668
-1.12786
-1.046
-0.93709
-0.97902
-1.00834
-0.960313
-1.02307
-1.11352
-1.10298
-1.08073
-0.999611
-1.04416
-1.00674
-0.937975
-0.925658
-0.972547
-0.929347
-0.814933
-0.82618
-0.739278
-0.663196
-0.622918
-0.262768
-0.344482
-0.307794
-0.379486
-0.366523
-0.367689
-0.330695
-0.310195
-0.3268
-0.317888
-0.299363
-0.340434
-0.29464
-0.332579
-0.352682
-0.261333
-0.286226
-0.254442
-0.252292
-0.245074
-3.72288
-3.97878
-4.22139
-4.40115
-4.5451
-4.7418
-4.78382
-4.73403
-4.74989
-4.65404
-4.58055
-4.5674
-4.44331
-4.24694
-4.0932
-3.84666
-3.65955
-3.4256
-3.13991
-2.82403
-3.39205
-3.62891
-3.80939
-4.01445
-4.18601
-4.18475
-4.26788
-4.24516
-4.21325
-4.19564
-4.169
-4.04362
-3.94592
-3.84678
-3.68667
-3.56026
-3.28613
-3.081
-2.83294
-2.55842
-2.99046
-3.10953
-3.28517
-3.47473
-3.65305
-3.71262
-3.68861
-3.72661
-3.7103
-3.65656
-3.56361
-3.58221
-3.51248
-3.35873
-3.18677
-3.02675
-2.84012
-2.64521
-2.36408
-2.25611
-2.47091
-2.50534
-2.75339
-2.89717
-3.00111
-3.04746
-3.09138
-3.09168
-3.07789
-2.98472
-2.98915
-3.00295
-2.86635
-2.80896
-2.69086
-2.5874
-2.36408
-2.21488
-2.00074
-1.84978
-1.98904
-2.09858
-2.13049
-2.27254
-2.47118
-2.45798
-2.50728
-2.42014
-2.42853
-2.43752
-2.32972
-2.32467
-2.28686
-2.13767
-2.05479
-1.98191
-1.87979
-1.79078
-1.55667
-1.40462
-1.34768
-1.42207
-1.62578
-1.62387
-1.70466
-1.71299
-1.80962
-1.77744
-1.74881
-1.80687
-1.74042
-1.71392
-1.64853
-1.59526
-1.54193
-1.35758
-1.33661
-1.31039
-1.13011
-1.03844
-0.886743
-0.903909
-1.0126
-0.998274
-1.07829
-1.08168
-1.03972
-1.07213
-1.06637
-1.03521
-1.05446
-0.978116
-1.0491
-0.948873
-0.939898
-0.84102
-0.766427
-0.760662
-0.709862
-0.659976
-0.301463
-0.375648
-0.314978
-0.305713
-0.351152
-0.369189
-0.410623
-0.385088
-0.393645
-0.416085
-0.364575
-0.340032
-0.336656
-0.225835
-0.314415
-0.369238
-0.227048
-0.282578
-0.233268
-0.203289
-3.51314
-3.68708
-4.07239
-4.3055
-4.52652
-4.63432
-4.70283
-4.70082
-4.72087
-4.63113
-4.60028
-4.51134
-4.38708
-4.25807
-4.09285
-3.82566
-3.58513
-3.33817
-2.93116
-2.62815
-3.21646
-3.44213
-3.73276
-3.83638
-4.03652
-4.0804
-4.2406
-4.22261
-4.22981
-4.17911
-4.10962
-4.09246
-3.95409
-3.85201
-3.62187
-3.49447
-3.22301
-2.94514
-2.62603
-2.3326
-2.77657
-2.99567
-3.18189
-3.3585
-3.47669
-3.66704
-3.61657
-3.74012
-3.61876
-3.69393
-3.64045
-3.48646
-3.45779
-3.22954
-3.15823
-2.96382
-2.70494
-2.48875
-2.33128
-2.09461
-2.31442
-2.47409
-2.66282
-2.86851
-2.87422
-3.00869
-3.02561
-3.09872
-3.08555
-3.1164
-2.98483
-2.9533
-2.86271
-2.77801
-2.61802
-2.56379
-2.31449
-2.12133
-1.85844
-1.70759
-1.86334
-1.93598
-2.1798
-2.20608
-2.33107
-2.42405
-2.46508
-2.44737
-2.43091
-2.33669
-2.3357
-2.34144
-2.27665
-2.18274
-2.11176
-1.96386
-1.83437
-1.6469
-1.51421
-1.30072
-1.38577
-1.47471
-1.58782
-1.67619
-1.69077
-1.78524
-1.72164
-1.75858
-1.7094
-1.70826
-1.76233
-1.67028
-1.68321
-1.57119
-1.56729
-1.49033
-1.27146
-1.22515
-1.05356
-0.903768
-0.774323
-0.877896
-0.931094
-1.00143
-1.06781
-1.01734
-1.1019
-1.11467
-1.02716
-1.02751
-1.01967
-0.985476
-0.987987
-0.944155
-0.871538
-0.89178
-0.804767
-0.790052
-0.730014
-0.535481
-0.282643
-0.230267
-0.287613
-0.305372
-0.433125
-0.362967
-0.386197
-0.349167
-0.346905
-0.344324
-0.378466
-0.296497
-0.327809
-0.365766
-0.296168
-0.294213
-0.242292
-0.223729
-0.231038
-0.225154
-3.16238
-3.41824
-3.68144
-4.02968
-4.20735
-4.36527
-4.47281
-4.5803
-4.56102
-4.60156
-4.44154
-4.40925
-4.27572
-4.19263
-3.91475
-3.77068
-3.38657
-3.03601
-2.73771
-2.38737
-2.88633
-3.16677
-3.42766
-3.65653
-3.88034
-3.90811
-4.0866
-4.12959
-4.14837
-4.11698
-4.02915
-3.92771
-3.80221
-3.7199
-3.55762
-3.34307
-3.0667
-2.7008
-2.4166
-2.11952
-2.51519
-2.77736
-3.0283
-3.20392
-3.27397
-3.41817
-3.5161
-3.60775
-3.54318
-3.5555
-3.45759
-3.42209
-3.36002
-3.19659
-2.99228
-2.8687
-2.66045
-2.36095
-2.12271
-1.81588
-2.14296
-2.23642
-2.52267
-2.69985
-2.80669
-2.81206
-2.99448
-2.96752
-2.95909
-2.98682
-2.92165
-2.89005
-2.8307
-2.70039
-2.55416
-2.43893
-2.18435
-1.96136
-1.71421
-1.55125
-1.62207
-1.82171
-1.9405
-2.11051
-2.15586
-2.2578
-2.38321
-2.38174
-2.33687
-2.3851
-2.26634
-2.22082
-2.15407
-2.07942
-1.99701
-1.92092
-1.73404
-1.54077
-1.41037
-1.24161
-1.25645
-1.31882
-1.4097
-1.54258
-1.63038
-1.68074
-1.66627
-1.70137
-1.78459
-1.70686
-1.67355
-1.56766
-1.59823
-1.50584
-1.41631
-1.37754
-1.25215
-1.07295
-0.995983
-0.907599
-0.702405
-0.830492
-0.880053
-0.925465
-0.98923
-0.980669
-1.06319
-1.0212
-1.01578
-1.09133
-1.00174
-0.930335
-0.918294
-0.961803
-0.882326
-0.764711
-0.754791
-0.677791
-0.616842
-0.591306
-0.279604
-0.241395
-0.293841
-0.338221
-0.320049
-0.298682
-0.340571
-0.301932
-0.244515
-0.377328
-0.33262
-0.330116
-0.374141
-0.329461
-0.239477
-0.288114
-0.247095
-0.163733
-0.201409
-0.166458
-2.65755
-3.01385
-3.33777
-3.6319
-3.85186
-4.13242
-4.15586
-4.25799
-4.34979
-4.29199
-4.23901
-4.14744
-4.0141
-3.87267
-3.65941
-3.36576
-3.03567
-2.71576
-2.31661
-1.9483
-2.42576
-2.7419
-3.05247
-3.27474
-3.55042
-3.60594
-3.78303
-3.80198
-3.85899
-3.85753
-3.76992
-3.77185
-3.64364
-3.44909
-3.35739
-3.01437
-2.81341
-2.43774
-2.12045
-1.81796
-2.19137
-2.42899
-2.73465
-2.99601
-3.11061
-3.16525
-3.2391
-3.35589
-3.39258
-3.39669
-3.3669
-3.26558
-3.22818
-3.03512
-2.78406
-2.61724
-2.37195
-2.11811
-1.89819
-1.58843
-1.87118
-2.03991
-2.19623
-2.40537
-2.6239
-2.70362
-2.8
-2.82781
-2.84936
-2.88686
-2.76726
-2.72307
-2.68909
-2.50595
-2.42145
-2.19093
-2.08173
-1.77403
-1.52923
-1.36719
-1.4642
-1.67822
-1.75618
-1.93202
-2.04247
-2.14138
-2.12342
-2.222
-2.22457
-2.23612
-2.20403
-2.13882
-2.03731
-1.91867
-1.81447
-1.73053
-1.55051
-1.46166
-1.15263
-1.07386
-1.09641
-1.1505
-1.28766
-1.4009
-1.48012
-1.47421
-1.57991
-1.54889
-1.62157
-1.61604
-1.60636
-1.55327
-1.48584
-1.4929
-1.28514
-1.24802
-1.11726
-1.00702
-0.895941
-0.817378
-0.616587
-0.744262
-0.770029
-0.872348
-0.86542
-0.933435
-0.963629
-0.93161
-1.03355
-1.00799
-1.00748
-0.974097
-0.976379
-0.92325
-0.83198
-0.808333
-0.741938
-0.632448
-0.54466
-0.51882
-0.225787
-0.258061
-0.214459
-0.268418
-0.3396
-0.329915
-0.345827
-0.298495
-0.333669
-0.281945
-0.364455
-0.329601
-0.29022
-0.21767
-0.283594
-0.250174
-0.254739
-0.243704
-0.164438
-0.186416
-2.16104
-2.5151
-2.84227
-3.22378
-3.52257
-3.73585
-3.75503
-3.98029
-3.99993
-3.97294
-3.95082
-3.87732
-3.70161
-3.58477
-3.32148
-3.04457
-2.73972
-2.33729
-1.89153
-1.58296
-2.02673
-2.40352
-2.68873
-2.92371
-3.19603
-3.38614
-3.46868
-3.58988
-3.56961
-3.63863
-3.60302
-3.51493
-3.31612
-3.12262
-2.96427
-2.74993
-2.4276
-2.0672
-1.8653
-1.42104
-1.75051
-2.09244
-2.38442
-2.64266
-2.87709
-2.97006
-3.11411
-3.08953
-3.13649
-3.12204
-3.0943
-3.04609
-2.9515
-2.76164
-2.67353
-2.42551
-2.11308
-1.78843
-1.56238
-1.31669
-1.51367
-1.75662
-1.92482
-2.15835
-2.32624
-2.52285
-2.61479
-2.5921
-2.6072
-2.63776
-2.60087
-2.587
-2.50441
-2.41854
-2.11113
-1.99961
-1.81778
-1.44314
-1.33499
-0.988869
-1.32347
-1.4739
-1.59185
-1.70252
-1.91333
-1.91057
-2.0736
-2.019
-2.02284
-2.10806
-1.99866
-2.02067
-1.99465
-1.8558
-1.77508
-1.65072
-1.38834
-1.18838
-0.978811
-0.884828
-0.952459
-0.980699
-1.14234
-1.29442
-1.36654
-1.37939
-1.42874
-1.46497
-1.57682
-1.48092
-1.49416
-1.49258
-1.33888
-1.28493
-1.28561
-1.17983
-1.02863
-0.846465
-0.695363
-0.585709
-0.528119
-0.597613
-0.585983
-0.740859
-0.811794
-0.873245
-0.913995
-0.917646
-0.891095
-0.915493
-0.953456
-0.895179
-0.885006
-0.788848
-0.739706
-0.710906
-0.555976
-0.543005
-0.473825
-0.301427
-0.162326
-0.227737
-0.268567
-0.272117
-0.249602
-0.264175
-0.270284
-0.338288
-0.295149
-0.318099
-0.313904
-0.30894
-0.277865
-0.177002
-0.239663
-0.195682
-0.154683
-0.210777
-0.112772
-0.119635
-1.70234
-2.06822
-2.40844
-2.82593
-3.13221
-3.3806
-3.46931
-3.60964
-3.6947
-3.59055
-3.62848
-3.52865
-3.43002
-3.23293
-2.96462
-2.71747
-2.37982
-1.96758
-1.5484
-1.13626
-1.68584
-1.99134
-2.28843
-2.69962
-2.88239
-3.072
-3.19259
-3.28051
-3.38102
-3.38014
-3.37944
-3.23716
-3.10305
-2.96725
-2.77636
-2.44795
-2.11812
-1.79717
-1.48056
-1.14162
-1.57682
-1.81235
-2.08318
-2.39147
-2.55753
-2.6885
-2.82183
-2.94504
-2.94593
-2.92292
-2.88663
-2.84401
-2.80637
-2.52894
-2.36504
-2.1437
-1.86416
-1.62781
-1.25962
-0.977571
-1.38304
-1.52707
-1.79849
-2.05251
-2.21446
-2.32152
-2.47471
-2.43798
-2.47969
-2.42549
-2.4564
-2.40744
-2.20128
-2.1718
-2.02565
-1.85947
-1.58702
-1.3362
-1.05457
-0.88007
-1.06694
-1.26074
-1.40119
-1.61496
-1.67588
-1.86444
-1.92039
-2.00723
-1.90282
-1.95027
-1.96829
-1.93509
-1.86458
-1.69754
-1.67527
-1.46172
-1.28884
-1.07409
-0.881502
-0.685503
-0.820898
-0.915376
-1.04023
-1.17271
-1.2259
-1.33551
-1.30916
-1.4197
-1.41758
-1.39976
-1.40663
-1.32857
-1.26048
-1.20747
-1.15546
-1.06888
-0.981726
-0.757254
-0.629294
-0.483067
-0.501446
-0.558943
-0.637593
-0.686886
-0.796993
-0.800179
-0.797271
-0.908553
-0.851049
-0.81685
-0.913948
-0.87919
-0.740647
-0.761317
-0.802896
-0.685637
-0.522665
-0.465982
-0.373875
-0.370651
-0.127182
-0.2103
-0.285102
-0.330139
-0.313039
-0.294612
-0.284639
-0.273922
-0.211764
-0.239065
-0.277406
-0.320751
-0.310227
-0.210519
-0.226166
-0.210531
-0.172367
-0.201916
-0.209108
-0.141311
)
;

boundaryField
{
    hotSide
    {
        type            calculated;