/*--------------------------------*- C++ -*----------------------------------*\
| =========                 |                                                 |
| \\      /  F ield         | OpenFOAM: The Open Source CFD Toolbox           |
|  \\    /   O peration     | Version:  2212                                  |
|   \\  /    A nd           | Website:  www.openfoam.com                      |
|    \\/     M anipulation  |                                                 |
\*---------------------------------------------------------------------------*/
FoamFile
{
    version     2.0;
    format      ascii;
    arch        "LSB;label=32;scalar=64";
    class       volScalarField;
    location    "./ITHACAoutput/true/18.6";
    object      trueState;
}
// * * * * * * * * * * * * * * * * * * * * * * * * * * * * * * * * * * * * * //

dimensions      [0 0 0 1 0 0 0];

internalField   nonuniform List<scalar> 
3200
(
317.275
317.47
317.719
317.99
318.269
318.543
318.796
319.009
319.165
319.247
319.247
319.165
319.009
318.796
318.543
318.269
317.99
317.719
317.47
317.275
315.044
315.209
315.424
315.658
315.9
316.137
316.355
316.54
316.674
316.745
316.745
316.674
316.54
316.355
316.137
315.9
315.658
315.424
315.209
315.044
312.784
312.92
313.101
313.299
313.503
313.704
313.888
314.044
314.157
314.217
314.217
314.157
314.044
313.888
313.704
313.503
313.299
313.101
312.92
312.784
310.497
310.607
310.755
310.917
311.083
311.247
311.398
311.525
311.617
311.666
311.666
311.617
311.525
311.398
311.247
311.083
310.917
310.755
310.607
310.497
308.19
308.274
308.388
308.514
308.644
308.771
308.888
308.987
309.059
309.096
309.096
309.059
308.987
308.888
308.771
308.644
308.514
308.388
308.274
308.19
305.865
305.925
306.006
306.096
306.189
306.279
306.363
306.433
306.485
306.512
306.512
306.485
306.433
306.363
306.279
306.189
306.096
306.006
305.925
305.865
303.528
303.564
303.612
303.666
303.722
303.776
303.827
303.869
303.9
303.916
303.916
303.9
303.869
303.827
303.776
303.722
303.666
303.612
303.564
303.528
301.183
301.195
301.212
301.23
301.248
301.267
301.283
301.298
301.308
301.313
301.313
301.308
301.298
301.283
301.267
301.248
301.23
301.212
301.195
301.183
317.337
317.53
317.777
318.045
318.322
318.593
318.843
319.053
319.207
319.288
319.288
319.207
319.053
318.843
318.593
318.322
318.045
317.777
317.53
317.337
315.098
315.262
315.474
315.707
315.946
316.18
316.396
316.578
316.711
316.781
316.781
316.711
316.578
316.396
316.18
315.946
315.707
315.474
315.262
315.098
312.829
312.965
313.144
313.341
313.543
313.741
313.923
314.077
314.189
314.248
314.248
314.189
314.077
313.923
313.741
313.543
313.341
313.144
312.965
312.829
310.535
310.644
310.79
310.951
311.116
311.278
311.427
311.552
311.643
311.692
311.692
311.643
311.552
311.427
311.278
311.116
310.951
310.79
310.644
310.535
308.219
308.303
308.416
308.541
308.669
308.795
308.911
309.008
309.079
309.116
309.116
309.079
309.008
308.911
308.795
308.669
308.541
308.416
308.303
308.219
305.886
305.945
306.026
306.115
306.207
306.296
306.379
306.449
306.499
306.526
306.526
306.499
306.449
306.379
306.296
306.207
306.115
306.026
305.945
305.886
303.54
303.576
303.624
303.678
303.733
303.787
303.836
303.878
303.908
303.924
303.924
303.908
303.878
303.836
303.787
303.733
303.678
303.624
303.576
303.54
301.188
301.199
301.216
301.234
301.252
301.27
301.287
301.301
301.311
301.316
301.316
301.311
301.301
301.287
301.27
301.252
301.234
301.216
301.199
301.188
317.461
317.652
317.894
318.157
318.428
318.693
318.937
319.143
319.292
319.371
319.371
319.292
319.143
318.937
318.693
318.428
318.157
317.894
317.652
317.461
315.206
315.367
315.576
315.804
316.038
316.268
316.479
316.657
316.786
316.854
316.854
316.786
316.657
316.479
316.268
316.038
315.804
315.576
315.367
315.206
312.921
313.055
313.231
313.423
313.622
313.815
313.994
314.144
314.253
314.31
314.31
314.253
314.144
313.994
313.815
313.622
313.423
313.231
313.055
312.921
310.61
310.718
310.861
311.019
311.181
311.339
311.485
311.607
311.696
311.743
311.743
311.696
311.607
311.485
311.339
311.181
311.019
310.861
310.718
310.61
308.278
308.36
308.472
308.594
308.72
308.843
308.956
309.051
309.12
309.157
309.157
309.12
309.051
308.956
308.843
308.72
308.594
308.472
308.36
308.278
305.928
305.986
306.066
306.153
306.243
306.331
306.412
306.479
306.529
306.555
306.555
306.529
306.479
306.412
306.331
306.243
306.153
306.066
305.986
305.928
303.566
303.601
303.648
303.701
303.755
303.807
303.856
303.897
303.926
303.942
303.942
303.926
303.897
303.856
303.807
303.755
303.701
303.648
303.601
303.566
301.196
301.208
301.224
301.241
301.259
301.277
301.293
301.307
301.317
301.322
301.322
301.317
301.307
301.293
301.277
301.259
301.241
301.224
301.208
301.196
317.648
317.834
318.07
318.326
318.589
318.846
319.081
319.28
319.424
319.499
319.499
319.424
319.28
319.081
318.846
318.589
318.326
318.07
317.834
317.648
315.369
315.526
315.73
315.951
316.179
316.401
316.605
316.776
316.9
316.966
316.966
316.9
316.776
316.605
316.401
316.179
315.951
315.73
315.526
315.369
313.059
313.19
313.361
313.549
313.741
313.929
314.101
314.245
314.35
314.406
314.406
314.35
314.245
314.101
313.929
313.741
313.549
313.361
313.19
313.059
310.724
310.829
310.969
311.122
311.279
311.432
311.573
311.691
311.777
311.822
311.822
311.777
311.691
311.573
311.432
311.279
311.122
310.969
310.829
310.724
308.366
308.447
308.555
308.674
308.796
308.916
309.025
309.117
309.183
309.218
309.218
309.183
309.117
309.025
308.916
308.796
308.674
308.555
308.447
308.366
305.991
306.048
306.126
306.211
306.298
306.383
306.461
306.527
306.574
306.599
306.599
306.574
306.527
306.461
306.383
306.298
306.211
306.126
306.048
305.991
303.604
303.638
303.684
303.735
303.788
303.839
303.886
303.925
303.953
303.968
303.968
303.953
303.925
303.886
303.839
303.788
303.735
303.684
303.638
303.604
301.209
301.22
301.236
301.253
301.27
301.288
301.303
301.316
301.326
301.331
301.331
301.326
301.316
301.303
301.288
301.27
301.253
301.236
301.22
301.209
317.898
318.078
318.306
318.553
318.806
319.052
319.277
319.466
319.603
319.675
319.675
319.603
319.466
319.277
319.052
318.806
318.553
318.306
318.078
317.898
315.586
315.739
315.936
316.149
316.368
316.581
316.776
316.939
317.058
317.12
317.12
317.058
316.939
316.776
316.581
316.368
316.149
315.936
315.739
315.586
313.244
313.37
313.536
313.717
313.902
314.082
314.246
314.384
314.484
314.537
314.537
314.484
314.384
314.246
314.082
313.902
313.717
313.536
313.37
313.244
310.875
310.977
311.112
311.26
311.411
311.558
311.693
311.805
311.887
311.93
311.93
311.887
311.805
311.693
311.558
311.411
311.26
311.112
310.977
310.875
308.484
308.562
308.667
308.782
308.9
309.014
309.119
309.206
309.269
309.303
309.303
309.269
309.206
309.119
309.014
308.9
308.782
308.667
308.562
308.484
306.076
306.131
306.206
306.288
306.372
306.454
306.528
306.591
306.636
306.66
306.66
306.636
306.591
306.528
306.454
306.372
306.288
306.206
306.131
306.076
303.655
303.688
303.733
303.782
303.832
303.881
303.926
303.964
303.991
304.005
304.005
303.991
303.964
303.926
303.881
303.832
303.782
303.733
303.688
303.655
301.226
301.237
301.252
301.269
301.285
301.302
301.317
301.329
301.339
301.343
301.343
301.339
301.329
301.317
301.302
301.285
301.269
301.252
301.237
301.226
318.211
318.385
318.604
318.84
319.081
319.314
319.528
319.706
319.835
319.903
319.903
319.835
319.706
319.528
319.314
319.081
318.84
318.604
318.385
318.211
315.859
316.006
316.195
316.399
316.608
316.81
316.994
317.149
317.26
317.319
317.319
317.26
317.149
316.994
316.81
316.608
316.399
316.195
316.006
315.859
313.476
313.597
313.757
313.93
314.106
314.277
314.433
314.563
314.657
314.706
314.706
314.657
314.563
314.433
314.277
314.106
313.93
313.757
313.597
313.476
311.066
311.164
311.293
311.435
311.579
311.718
311.846
311.952
312.029
312.069
312.069
312.029
311.952
311.846
311.718
311.579
311.435
311.293
311.164
311.066
308.633
308.708
308.809
308.919
309.031
309.139
309.238
309.321
309.38
309.412
309.412
309.38
309.321
309.238
309.139
309.031
308.919
308.809
308.708
308.633
306.182
306.235
306.307
306.386
306.466
306.543
306.614
306.673
306.716
306.738
306.738
306.716
306.673
306.614
306.543
306.466
306.386
306.307
306.235
306.182
303.719
303.75
303.794
303.841
303.889
303.935
303.978
304.013
304.039
304.052
304.052
304.039
304.013
303.978
303.935
303.889
303.841
303.794
303.75
303.719
301.247
301.258
301.272
301.288
301.304
301.32
301.334
301.346
301.355
301.359
301.359
301.355
301.346
301.334
301.32
301.304
301.288
301.272
301.258
301.247
318.59
318.755
318.964
319.188
319.416
319.636
319.836
320.002
320.122
320.185
320.185
320.122
320.002
319.836
319.636
319.416
319.188
318.964
318.755
318.59
316.188
316.329
316.509
316.703
316.9
317.09
317.263
317.407
317.511
317.566
317.566
317.511
317.407
317.263
317.09
316.9
316.703
316.509
316.329
316.188
313.756
313.872
314.024
314.188
314.354
314.515
314.661
314.783
314.871
314.917
314.917
314.871
314.783
314.661
314.515
314.354
314.188
314.024
313.872
313.756
311.295
311.389
311.513
311.647
311.783
311.914
312.034
312.133
312.205
312.243
312.243
312.205
312.133
312.034
311.914
311.783
311.647
311.513
311.389
311.295
308.812
308.884
308.98
309.084
309.19
309.292
309.385
309.462
309.518
309.547
309.547
309.518
309.462
309.385
309.292
309.19
309.084
308.98
308.884
308.812
306.31
306.361
306.43
306.504
306.58
306.653
306.719
306.774
306.814
306.835
306.835
306.814
306.774
306.719
306.653
306.58
306.504
306.43
306.361
306.31
303.796
303.826
303.867
303.912
303.957
304.001
304.041
304.074
304.098
304.111
304.111
304.098
304.074
304.041
304.001
303.957
303.912
303.867
303.826
303.796
301.273
301.283
301.297
301.312
301.327
301.342
301.355
301.367
301.375
301.379
301.379
301.375
301.367
301.355
301.342
301.327
301.312
301.297
301.283
301.273
319.033
319.191
319.388
319.6
319.813
320.018
320.204
320.359
320.47
320.528
320.528
320.47
320.359
320.204
320.018
319.813
319.6
319.388
319.191
319.033
316.575
316.708
316.878
317.061
317.246
317.424
317.585
317.718
317.814
317.865
317.865
317.814
317.718
317.585
317.424
317.246
317.061
316.878
316.708
316.575
314.084
314.194
314.338
314.493
314.649
314.799
314.935
315.048
315.129
315.172
315.172
315.129
315.048
314.935
314.799
314.649
314.493
314.338
314.194
314.084
311.565
311.654
311.771
311.897
312.025
312.148
312.259
312.351
312.418
312.452
312.452
312.418
312.351
312.259
312.148
312.025
311.897
311.771
311.654
311.565
309.022
309.09
309.181
309.28
309.379
309.474
309.561
309.633
309.684
309.711
309.711
309.684
309.633
309.561
309.474
309.379
309.28
309.181
309.09
309.022
306.461
306.509
306.574
306.644
306.715
306.784
306.845
306.896
306.933
306.952
306.952
306.933
306.896
306.845
306.784
306.715
306.644
306.574
306.509
306.461
303.886
303.915
303.954
303.996
304.039
304.08
304.117
304.148
304.17
304.181
304.181
304.17
304.148
304.117
304.08
304.039
303.996
303.954
303.915
303.886
301.304
301.313
301.326
301.34
301.355
301.368
301.381
301.391
301.399
301.402
301.402
301.399
301.391
301.381
301.368
301.355
301.34
301.326
301.313
301.304
319.544
319.692
319.878
320.076
320.275
320.465
320.637
320.779
320.88
320.934
320.934
320.88
320.779
320.637
320.465
320.275
320.076
319.878
319.692
319.544
317.019
317.145
317.305
317.477
317.649
317.814
317.962
318.085
318.173
318.219
318.219
318.173
318.085
317.962
317.814
317.649
317.477
317.305
317.145
317.019
314.461
314.565
314.701
314.845
314.991
315.13
315.256
315.36
315.434
315.473
315.473
315.434
315.36
315.256
315.13
314.991
314.845
314.701
314.565
314.461
311.874
311.958
312.069
312.187
312.306
312.42
312.523
312.608
312.669
312.7
312.7
312.669
312.608
312.523
312.42
312.306
312.187
312.069
311.958
311.874
309.264
309.328
309.414
309.506
309.598
309.687
309.767
309.833
309.88
309.905
309.905
309.88
309.833
309.767
309.687
309.598
309.506
309.414
309.328
309.264
306.634
306.68
306.741
306.806
306.873
306.936
306.993
307.04
307.074
307.091
307.091
307.074
307.04
306.993
306.936
306.873
306.806
306.741
306.68
306.634
303.99
304.018
304.054
304.094
304.133
304.172
304.206
304.234
304.254
304.265
304.265
304.254
304.234
304.206
304.172
304.133
304.094
304.054
304.018
303.99
301.339
301.348
301.36
301.373
301.386
301.399
301.411
301.42
301.427
301.431
301.431
301.427
301.42
301.411
301.399
301.386
301.373
301.36
301.348
301.339
320.121
320.261
320.435
320.619
320.803
320.979
321.136
321.265
321.358
321.406
321.406
321.358
321.265
321.136
320.979
320.803
320.619
320.435
320.261
320.121
317.522
317.64
317.79
317.95
318.109
318.261
318.397
318.509
318.59
318.631
318.631
318.59
318.509
318.397
318.261
318.109
317.95
317.79
317.64
317.522
314.888
314.986
315.113
315.248
315.383
315.511
315.626
315.721
315.789
315.824
315.824
315.789
315.721
315.626
315.511
315.383
315.248
315.113
314.986
314.888
312.225
312.304
312.407
312.517
312.628
312.733
312.827
312.905
312.96
312.989
312.989
312.96
312.905
312.827
312.733
312.628
312.517
312.407
312.304
312.225
309.537
309.598
309.678
309.764
309.849
309.931
310.004
310.065
310.108
310.13
310.13
310.108
310.065
310.004
309.931
309.849
309.764
309.678
309.598
309.537
306.83
306.873
306.93
306.991
307.052
307.111
307.163
307.206
307.237
307.253
307.253
307.237
307.206
307.163
307.111
307.052
306.991
306.93
306.873
306.83
304.108
304.134
304.168
304.205
304.242
304.277
304.308
304.334
304.353
304.362
304.362
304.353
304.334
304.308
304.277
304.242
304.205
304.168
304.134
304.108
301.378
301.387
301.398
301.41
301.423
301.435
301.445
301.454
301.46
301.463
301.463
301.46
301.454
301.445
301.435
301.423
301.41
301.398
301.387
301.378
320.767
320.898
321.06
321.23
321.4
321.561
321.704
321.822
321.905
321.949
321.949
321.905
321.822
321.704
321.561
321.4
321.23
321.06
320.898
320.767
318.084
318.194
318.334
318.482
318.629
318.768
318.892
318.994
319.067
319.105
319.105
319.067
318.994
318.892
318.768
318.629
318.482
318.334
318.194
318.084
315.366
315.457
315.575
315.7
315.824
315.942
316.047
316.134
316.195
316.227
316.227
316.195
316.134
316.047
315.942
315.824
315.7
315.575
315.457
315.366
312.617
312.691
312.787
312.889
312.991
313.087
313.173
313.244
313.294
313.32
313.32
313.294
313.244
313.173
313.087
312.991
312.889
312.787
312.691
312.617
309.843
309.9
309.974
310.054
310.133
310.208
310.275
310.329
310.368
310.389
310.389
310.368
310.329
310.275
310.208
310.133
310.054
309.974
309.9
309.843
307.049
307.089
307.142
307.199
307.255
307.309
307.357
307.396
307.424
307.438
307.438
307.424
307.396
307.357
307.309
307.255
307.199
307.142
307.089
307.049
304.24
304.264
304.296
304.33
304.364
304.396
304.425
304.448
304.465
304.474
304.474
304.465
304.448
304.425
304.396
304.364
304.33
304.296
304.264
304.24
301.422
301.43
301.441
301.452
301.464
301.475
301.484
301.492
301.498
301.501
301.501
301.498
301.492
301.484
301.475
301.464
301.452
301.441
301.43
301.422
321.482
321.603
321.753
321.911
322.066
322.213
322.343
322.449
322.525
322.564
322.564
322.525
322.449
322.343
322.213
322.066
321.911
321.753
321.603
321.482
318.706
318.809
318.938
319.075
319.209
319.336
319.449
319.541
319.607
319.641
319.641
319.607
319.541
319.449
319.336
319.209
319.075
318.938
318.809
318.706
315.894
315.979
316.089
316.204
316.318
316.425
316.521
316.599
316.654
316.683
316.683
316.654
316.599
316.521
316.425
316.318
316.204
316.089
315.979
315.894
313.051
313.119
313.209
313.303
313.396
313.484
313.562
313.626
313.671
313.695
313.695
313.671
313.626
313.562
313.484
313.396
313.303
313.209
313.119
313.051
310.181
310.234
310.303
310.376
310.449
310.517
310.578
310.628
310.663
310.681
310.681
310.663
310.628
310.578
310.517
310.449
310.376
310.303
310.234
310.181
307.291
307.328
307.378
307.43
307.482
307.531
307.574
307.61
307.635
307.648
307.648
307.635
307.61
307.574
307.531
307.482
307.43
307.378
307.328
307.291
304.386
304.408
304.437
304.469
304.5
304.529
304.556
304.577
304.592
304.6
304.6
304.592
304.577
304.556
304.529
304.5
304.469
304.437
304.408
304.386
301.471
301.479
301.488
301.499
301.509
301.519
301.528
301.535
301.54
301.543
301.543
301.54
301.535
301.528
301.519
301.509
301.499
301.488
301.479
301.471
322.265
322.378
322.517
322.662
322.804
322.937
323.055
323.15
323.218
323.253
323.253
323.218
323.15
323.055
322.937
322.804
322.662
322.517
322.378
322.265
319.388
319.484
319.603
319.729
319.852
319.967
320.069
320.152
320.211
320.241
320.241
320.211
320.152
320.069
319.967
319.852
319.729
319.603
319.484
319.388
316.474
316.553
316.654
316.76
316.864
316.961
317.048
317.118
317.168
317.194
317.194
317.168
317.118
317.048
316.961
316.864
316.76
316.654
316.553
316.474
313.527
313.59
313.673
313.759
313.844
313.924
313.995
314.053
314.093
314.114
314.114
314.093
314.053
313.995
313.924
313.844
313.759
313.673
313.59
313.527
310.552
310.601
310.665
310.732
310.799
310.861
310.916
310.961
310.992
311.009
311.009
310.992
310.961
310.916
310.861
310.799
310.732
310.665
310.601
310.552
307.557
307.591
307.637
307.685
307.732
307.777
307.816
307.848
307.871
307.882
307.882
307.871
307.848
307.816
307.777
307.732
307.685
307.637
307.591
307.557
304.545
304.566
304.593
304.622
304.651
304.677
304.701
304.72
304.734
304.741
304.741
304.734
304.72
304.701
304.677
304.651
304.622
304.593
304.566
304.545
301.525
301.532
301.541
301.55
301.56
301.569
301.577
301.583
301.588
301.59
301.59
301.588
301.583
301.577
301.569
301.56
301.55
301.541
301.532
301.525
323.119
323.223
323.351
323.483
323.612
323.733
323.839
323.925
323.986
324.017
324.017
323.986
323.925
323.839
323.733
323.612
323.483
323.351
323.223
323.119
320.131
320.219
320.329
320.444
320.556
320.66
320.753
320.827
320.88
320.907
320.907
320.88
320.827
320.753
320.66
320.556
320.444
320.329
320.219
320.131
317.104
317.177
317.27
317.367
317.462
317.551
317.629
317.692
317.736
317.759
317.759
317.736
317.692
317.629
317.551
317.462
317.367
317.27
317.177
317.104
314.044
314.103
314.179
314.258
314.336
314.408
314.472
314.524
314.56
314.579
314.579
314.56
314.524
314.472
314.408
314.336
314.258
314.179
314.103
314.044
310.956
311.001
311.06
311.122
311.182
311.238
311.288
311.328
311.357
311.371
311.371
311.357
311.328
311.288
311.238
311.182
311.122
311.06
311.001
310.956
307.846
307.878
307.92
307.964
308.007
308.047
308.083
308.111
308.132
308.142
308.142
308.132
308.111
308.083
308.047
308.007
307.964
307.92
307.878
307.846
304.719
304.738
304.763
304.79
304.816
304.84
304.861
304.879
304.891
304.897
304.897
304.891
304.879
304.861
304.84
304.816
304.79
304.763
304.738
304.719
301.583
301.589
301.598
301.607
301.615
301.624
301.631
301.636
301.641
301.643
301.643
301.641
301.636
301.631
301.624
301.615
301.607
301.598
301.589
301.583
324.039
324.136
324.253
324.374
324.491
324.6
324.696
324.773
324.827
324.855
324.855
324.827
324.773
324.696
324.6
324.491
324.374
324.253
324.136
324.039
320.932
321.013
321.114
321.219
321.321
321.415
321.498
321.565
321.612
321.636
321.636
321.612
321.565
321.498
321.415
321.321
321.219
321.114
321.013
320.932
317.784
317.852
317.937
318.026
318.112
318.192
318.262
318.318
318.358
318.379
318.379
318.358
318.318
318.262
318.192
318.112
318.026
317.937
317.852
317.784
314.602
314.656
314.726
314.798
314.869
314.935
314.992
315.038
315.071
315.088
315.088
315.071
315.038
314.992
314.935
314.869
314.798
314.726
314.656
314.602
311.391
311.433
311.487
311.543
311.598
311.649
311.694
311.73
311.755
311.768
311.768
311.755
311.73
311.694
311.649
311.598
311.543
311.487
311.433
311.391
308.157
308.187
308.225
308.265
308.305
308.341
308.373
308.399
308.417
308.426
308.426
308.417
308.399
308.373
308.341
308.305
308.265
308.225
308.187
308.157
304.907
304.924
304.947
304.971
304.995
305.017
305.036
305.051
305.062
305.068
305.068
305.062
305.051
305.036
305.017
304.995
304.971
304.947
304.924
304.907
301.646
301.652
301.659
301.668
301.675
301.683
301.689
301.694
301.698
301.7
301.7
301.698
301.694
301.689
301.683
301.675
301.668
301.659
301.652
301.646
325.023
325.112
325.219
325.33
325.436
325.535
325.62
325.689
325.738
325.763
325.763
325.738
325.689
325.62
325.535
325.436
325.33
325.219
325.112
325.023
321.787
321.862
321.955
322.05
322.143
322.228
322.302
322.362
322.404
322.426
322.426
322.404
322.362
322.302
322.228
322.143
322.05
321.955
321.862
321.787
318.51
318.572
318.65
318.731
318.809
318.881
318.944
318.995
319.03
319.049
319.049
319.03
318.995
318.944
318.881
318.809
318.731
318.65
318.572
318.51
315.197
315.247
315.311
315.377
315.441
315.5
315.552
315.593
315.622
315.637
315.637
315.622
315.593
315.552
315.5
315.441
315.377
315.311
315.247
315.197
311.855
311.893
311.943
311.994
312.044
312.09
312.13
312.162
312.185
312.197
312.197
312.185
312.162
312.13
312.09
312.044
311.994
311.943
311.893
311.855
308.489
308.516
308.551
308.588
308.624
308.657
308.685
308.708
308.724
308.733
308.733
308.724
308.708
308.685
308.657
308.624
308.588
308.551
308.516
308.489
305.106
305.122
305.143
305.165
305.187
305.207
305.224
305.238
305.247
305.252
305.252
305.247
305.238
305.224
305.207
305.187
305.165
305.143
305.122
305.106
301.713
301.718
301.725
301.733
301.74
301.746
301.752
301.757
301.76
301.762
301.762
301.76
301.757
301.752
301.746
301.74
301.733
301.725
301.718
301.713
326.059
326.141
326.239
326.339
326.436
326.525
326.602
326.664
326.707
326.729
326.729
326.707
326.664
326.602
326.525
326.436
326.339
326.239
326.141
326.059
322.686
322.755
322.839
322.926
323.01
323.087
323.154
323.208
323.245
323.264
323.264
323.245
323.208
323.154
323.087
323.01
322.926
322.839
322.755
322.686
319.271
319.328
319.399
319.473
319.544
319.609
319.666
319.711
319.743
319.759
319.759
319.743
319.711
319.666
319.609
319.544
319.473
319.399
319.328
319.271
315.82
315.866
315.925
315.985
316.043
316.096
316.143
316.18
316.206
316.219
316.219
316.206
316.18
316.143
316.096
316.043
315.985
315.925
315.866
315.82
312.34
312.375
312.42
312.467
312.512
312.554
312.59
312.619
312.639
312.65
312.65
312.639
312.619
312.59
312.554
312.512
312.467
312.42
312.375
312.34
308.836
308.86
308.893
308.926
308.959
308.988
309.014
309.035
309.049
309.057
309.057
309.049
309.035
309.014
308.988
308.959
308.926
308.893
308.86
308.836
305.314
305.329
305.348
305.369
305.388
305.406
305.421
305.434
305.442
305.447
305.447
305.442
305.434
305.421
305.406
305.388
305.369
305.348
305.329
305.314
301.783
301.788
301.794
301.801
301.807
301.813
301.818
301.823
301.826
301.827
301.827
301.826
301.823
301.818
301.813
301.807
301.801
301.794
301.788
301.783
327.119
327.194
327.284
327.375
327.463
327.543
327.613
327.668
327.707
327.727
327.727
327.707
327.668
327.613
327.543
327.463
327.375
327.284
327.194
327.119
323.6
323.664
323.742
323.821
323.897
323.967
324.027
324.075
324.109
324.126
324.126
324.109
324.075
324.027
323.967
323.897
323.821
323.742
323.664
323.6
320.042
320.095
320.16
320.228
320.292
320.351
320.402
320.443
320.471
320.486
320.486
320.471
320.443
320.402
320.351
320.292
320.228
320.16
320.095
320.042
316.449
316.492
316.545
316.6
316.653
316.702
316.743
316.777
316.8
316.812
316.812
316.8
316.777
316.743
316.702
316.653
316.6
316.545
316.492
316.449
312.828
312.86
312.902
312.945
312.986
313.024
313.056
313.082
313.1
313.11
313.11
313.1
313.082
313.056
313.024
312.986
312.945
312.902
312.86
312.828
309.184
309.207
309.236
309.267
309.296
309.323
309.347
309.365
309.378
309.385
309.385
309.378
309.365
309.347
309.323
309.296
309.267
309.236
309.207
309.184
305.523
305.537
305.555
305.573
305.591
305.607
305.621
305.632
305.64
305.644
305.644
305.64
305.632
305.621
305.607
305.591
305.573
305.555
305.537
305.523
301.853
301.857
301.863
301.869
301.875
301.881
301.885
301.889
301.892
301.893
301.893
301.892
301.889
301.885
301.881
301.875
301.869
301.863
301.857
301.853
328.132
328.201
328.284
328.368
328.449
328.522
328.585
328.635
328.67
328.688
328.688
328.67
328.635
328.585
328.522
328.449
328.368
328.284
328.201
328.132
324.465
324.523
324.595
324.668
324.738
324.801
324.856
324.9
324.93
324.946
324.946
324.93
324.9
324.856
324.801
324.738
324.668
324.595
324.523
324.465
320.763
320.812
320.872
320.934
320.993
321.047
321.094
321.131
321.157
321.17
321.17
321.157
321.131
321.094
321.047
320.993
320.934
320.872
320.812
320.763
317.032
317.071
317.121
317.172
317.22
317.264
317.302
317.333
317.354
317.365
317.365
317.354
317.333
317.302
317.264
317.22
317.172
317.121
317.071
317.032
313.277
313.307
313.345
313.385
313.423
313.457
313.487
313.51
313.527
313.535
313.535
313.527
313.51
313.487
313.457
313.423
313.385
313.345
313.307
313.277
309.502
309.523
309.551
309.579
309.606
309.631
309.652
309.669
309.681
309.687
309.687
309.681
309.669
309.652
309.631
309.606
309.579
309.551
309.523
309.502
305.713
305.726
305.742
305.759
305.776
305.791
305.803
305.813
305.821
305.824
305.824
305.821
305.813
305.803
305.791
305.776
305.759
305.742
305.726
305.713
301.916
301.92
301.926
301.932
301.937
301.942
301.946
301.95
301.952
301.953
301.953
301.952
301.95
301.946
301.942
301.937
301.932
301.926
301.92
301.916
328.92
328.985
329.063
329.142
329.217
329.286
329.344
329.391
329.423
329.44
329.44
329.423
329.391
329.344
329.286
329.217
329.142
329.063
328.985
328.92
325.111
325.167
325.234
325.303
325.369
325.428
325.479
325.52
325.548
325.562
325.562
325.548
325.52
325.479
325.428
325.369
325.303
325.234
325.167
325.111
321.286
321.332
321.389
321.448
321.503
321.554
321.598
321.632
321.656
321.668
321.668
321.656
321.632
321.598
321.554
321.503
321.448
321.389
321.332
321.286
317.444
317.482
317.529
317.576
317.622
317.664
317.7
317.728
317.748
317.758
317.758
317.748
317.728
317.7
317.664
317.622
317.576
317.529
317.482
317.444
313.588
313.617
313.653
313.691
313.727
313.759
313.787
313.809
313.825
313.832
313.832
313.825
313.809
313.787
313.759
313.727
313.691
313.653
313.617
313.588
309.72
309.74
309.766
309.793
309.819
309.842
309.862
309.878
309.889
309.895
309.895
309.889
309.878
309.862
309.842
309.819
309.793
309.766
309.74
309.72
305.842
305.855
305.87
305.886
305.902
305.916
305.928
305.937
305.944
305.947
305.947
305.944
305.937
305.928
305.916
305.902
305.886
305.87
305.855
305.842
301.959
301.963
301.968
301.974
301.979
301.984
301.988
301.991
301.993
301.994
301.994
301.993
301.991
301.988
301.984
301.979
301.974
301.968
301.963
301.959
)
;

boundaryField
{
    hotSide
    {
        type            fixedGradient;
        gradient        nonuniform List<scalar> 
400
(
175.833
176.467
177.735
179.643
182.197
185.403
189.269
193.806
199.021
204.925
211.526
218.834
226.855
235.597
245.066
255.268
266.206
277.885
290.306
303.473
178.396
179.009
180.238
182.088
184.567
187.685
191.452
195.88
200.982
206.768
213.251
220.441
228.347
236.978
246.341
256.442
267.285
278.875
291.214
304.305
181.169
181.758
182.939
184.721
187.112
190.126
193.777
198.079
203.049
208.702
215.051
222.108
229.886
238.394
247.641
257.632
268.373
279.867
292.119
305.129
184.107
184.668
185.794
187.496
189.785
192.68
196.198
200.359
205.181
210.684
216.885
223.798
231.436
239.812
248.934
258.809
269.443
280.839
293
305.928
187.128
187.657
188.721
190.333
192.51
195.273
198.645
202.651
207.313
212.655
218.697
225.457
232.95
241.189
250.183
259.94
270.465
281.762
293.833
306.68
190.105
190.6
191.599
193.115
195.173
197.796
201.015
204.859
209.356
214.534
220.415
227.021
234.369
242.472
251.34
260.982
271.402
282.604
294.59
307.36
192.869
193.33
194.262
195.684
197.623
200.11
203.179
206.866
211.204
216.224
221.953
228.414
235.625
243.602
252.355
261.891
272.216
283.333
295.242
307.943
195.215
195.645
196.518
197.855
199.688
202.052
204.989
208.538
212.736
217.619
223.216
229.553
236.649
244.519
253.174
262.623
272.869
283.915
295.76
308.405
196.931
197.338
198.165
199.438
201.19
203.462
206.299
209.743
213.838
218.619
224.118
230.363
237.374
245.166
253.751
263.136
273.325
284.321
296.122
308.727
197.841
198.235
199.037
200.274
201.983
204.205
206.987
210.376
214.414
219.141
224.589
230.785
237.75
245.502
254.05
263.401
273.561
284.529
296.307
308.891
197.841
198.235
199.037
200.274
201.983
204.205
206.987
210.376
214.414
219.141
224.589
230.785
237.75
245.502
254.05
263.401
273.561
284.529
296.307
308.891
196.931
197.338
198.165
199.438
201.19
203.462
206.299
209.743
213.838
218.619
224.118
230.363
237.374
245.166
253.751
263.136
273.325
284.321
296.122
308.727
195.215
195.645
196.518
197.855
199.688
202.052
204.989
208.538
212.736
217.619
223.216
229.553
236.649
244.519
253.174
262.623
272.869
283.915
295.76
308.405
192.869
193.33
194.262
195.684
197.623
200.11
203.179
206.866
211.204
216.224
221.953
228.414
235.625
243.602
252.355
261.891
272.216
283.333
295.242
307.943
190.105
190.6
191.599
193.115
195.173
197.796
201.015
204.859
209.356
214.534
220.415
227.021
234.369
242.472
251.34
260.982
271.402
282.604
294.59
307.36
187.128
187.657
188.721
190.333
192.51
195.273
198.645
202.651
207.313
212.655
218.697
225.457
232.95
241.189
250.183
259.94
270.465
281.762
293.833
306.68
184.107
184.668
185.794
187.496
189.785
192.68
196.198
200.359
205.181
210.684
216.885
223.798
231.436
239.812
248.934
258.809
269.443
280.839
293
305.928
181.169
181.758
182.939
184.721
187.112
190.126
193.777
198.079
203.049
208.702
215.051
222.108
229.886
238.394
247.641
257.632
268.373
279.867
292.119
305.129
178.396
179.009
180.238
182.088
184.567
187.685
191.452
195.88
200.982
206.768
213.251
220.441
228.347
236.978
246.341
256.442
267.285
278.875
291.214
304.305
175.833
176.467
177.735
179.643
182.197
185.403
189.269
193.806
199.021
204.925
211.526
218.834
226.855
235.597
245.066
255.268
266.206
277.885
290.306
303.473
)
;
    }
    coldSide
    {
        type            mixed;
        refValue        uniform 300;
        refGradient     uniform 0;
        valueFraction   uniform 0.991591;
        source          uniform 0;
        value           nonuniform List<scalar> 
400
(
300.01
300.01
300.01
300.01
300.01
300.01
300.011
300.011
300.011
300.012
300.012
300.012
300.013
300.013
300.014
300.014
300.015
300.016
300.016
300.016
300.01
300.01
300.01
300.01
300.01
300.011
300.011
300.011
300.011
300.012
300.012
300.012
300.013