/*--------------------------------*- C++ -*----------------------------------*\
| =========                 |                                                 |
| \\      /  F ield         | OpenFOAM: The Open Source CFD Toolbox           |
|  \\    /   O peration     | Version:  2212                                  |
|   \\  /    A nd           | Website:  www.openfoam.com                      |
|    \\/     M anipulation  |                                                 |
\*---------------------------------------------------------------------------*/
FoamFile
{
    version     2.0;
    format      ascii;
    arch        "LSB;label=32;scalar=64";
    class       volScalarField;
    location    "0";
    object      T;
}
// * * * * * * * * * * * * * * * * * * * * * * * * * * * * * * * * * * * * * //

dimensions      [0 0 0 1 0 0 0];

internalField   nonuniform List<scalar> 
3200
(
336.91
335.667
334.835
334.517
334.646
335.196
335.713
336.456
336.949
337.397
337.564
337.426
337.161
336.594
335.991
335.501
335.336
335.575
336.558
337.852
332.114
331.101
330.355
330.085
330.204
330.659
331.083
331.752
332.159
332.558
332.712
332.553
332.32
331.85
331.325
330.877
330.769
330.962
331.809
332.913
327.279
326.478
325.821
325.59
325.699
326.058
326.399
327.01
327.328
327.661
327.793
327.651
327.452
327.036
326.604
326.238
326.147
326.29
327.006
327.926
322.404
321.765
321.218
321.022
321.146
321.404
321.665
322.179
322.42
322.709
322.828
322.693
322.517
322.153
321.82
321.54
321.483
321.565
322.186
322.9
317.485
316.99
316.546
316.407
316.523
316.688
316.916
317.296
317.497
317.703
317.82
317.71
317.554
317.25
317.025
316.81
316.759
316.837
317.323
317.862
312.529
312.16
311.852
311.773
311.842
311.962
312.109
312.392
312.521
312.665
312.756
312.689
312.571
312.341
312.178
312.057
312.007
312.072
312.401
312.79
307.539
307.319
307.121
307.078
307.132
307.213
307.269
307.452
307.52
307.628
307.673
307.642
307.569
307.413
307.305
307.265
307.244
307.267
307.44
307.703
302.532
302.467
302.385
302.384
302.394
302.42
302.438
302.485
302.518
302.556
302.572
302.56
302.54
302.492
302.446
302.427
302.44
302.444
302.502
302.588
337.265
336.092
335.245
334.954
335.128
335.694
336.382
336.991
337.54
337.951
338.258
338.167
337.844
337.381
336.628
336.081
335.817
336.126
337.044
338.181
332.437
331.465
330.717
330.466
330.603
331.069
331.651
332.172
332.637
333.001
333.273
333.201
332.902
332.495
331.836
331.392
331.183
331.439
332.252
333.177
327.556
326.767
326.145
325.918
326.027
326.382
326.865
327.334
327.721
328.016
328.248
328.194
327.93
327.563
327.009
326.676
326.52
326.691
327.426
328.135
322.637
322.005
321.506
321.284
321.406
321.657
322.048
322.439
322.764
322.976
323.214
323.143
322.902
322.619
322.147
321.899
321.798
321.93
322.535
323.073
317.687
317.187
316.763
316.61
316.726
316.889
317.199
317.485
317.76
317.921
318.137
318.042
317.841
317.613
317.264
317.1
317.016
317.147
317.604
317.985
312.696
312.322
311.994
311.888
311.982
312.08
312.329
312.514
312.697
312.845
313.004
312.935
312.757
312.588
312.359
312.259
312.21
312.295
312.601
312.877
307.656
307.421
307.202
307.152
307.217
307.264
307.42
307.533
307.639
307.725
307.834
307.784
307.664
307.551
307.427
307.396
307.344
307.412
307.546
307.745
302.576
302.486
302.423
302.402
302.429
302.433
302.492
302.54
302.559
302.593
302.626
302.612
302.569
302.526
302.499
302.482
302.457
302.485
302.519
302.595
337.985
336.803
336.007
335.736
335.94
336.617
337.366
337.961
338.603
339.075
339.288
339.186
338.805
338.304
337.532
337.075
336.768
336.855
337.741
338.76
333.025
332.054
331.384
331.138
331.299
331.889
332.524
333.032
333.574
333.959
334.143
334.072
333.724
333.296
332.626
332.247
331.987
332.074
332.802
333.672
328.027
327.25
326.689
326.479
326.614
327.079
327.626
328.068
328.511
328.82
328.967
328.893
328.609
328.242
327.691
327.369
327.183
327.233
327.818
328.571
322.989
322.388
321.926
321.739
321.869
322.226
322.67
323.036
323.415
323.642
323.78
323.698
323.468
323.162
322.699
322.444
322.326
322.344
322.815
323.426
317.933
317.467
317.11
316.954
317.078
317.338
317.696
317.968
318.254
318.417
318.562
318.498
318.311
318.063
317.678
317.51
317.435
317.421
317.795
318.255
312.837
312.538
312.256
312.169
312.232
312.427
312.671
312.86
313.066
313.177
313.279
313.243
313.138
312.935
312.632
312.548
312.491
312.466
312.727
313.069
307.715
307.563
307.356
307.34
307.353
307.477
307.633
307.733
307.857
307.935
307.984
307.981
307.921
307.772
307.576
307.559
307.516
307.474
307.639
307.873
302.587
302.54
302.463
302.469
302.464
302.507
302.569
302.598
302.636
302.67
302.679
302.677
302.663
302.61
302.541
302.529
302.523
302.496
302.558
302.645
338.995
337.756
337.045
336.795
336.976
337.837
338.568
339.233
339.96
340.421
340.567
340.547
340.121
339.45
338.763
338.244
337.922
337.936
338.782
339.769
333.888
332.874
332.262
332.055
332.19
332.916
333.571
334.116
334.737
335.117
335.245
335.227
334.853
334.271
333.685
333.258
332.991
332.993
333.735
334.55
328.74
327.922
327.418
327.234
327.327
327.963
328.526
328.948
329.46
329.776
329.88
329.9
329.563
329.066
328.558
328.216
328.022
328.004
328.632
329.302
323.583
322.925
322.539
322.383
322.442
322.951
323.414
323.762
324.157
324.414
324.492
324.534
324.249
323.831
323.394
323.146
323.024
322.996
323.485
324.018
318.401
317.882
317.601
317.48
317.516
317.876
318.249
318.551
318.835
319.032
319.089
319.127
318.88
318.568
318.224
318.038
317.97
317.942
318.3
318.713
313.175
312.828
312.611
312.526
312.559
312.775
313.046
313.304
313.473
313.63
313.655
313.686
313.498
313.29
313.029
312.91
312.874
312.831
313.096
313.382
307.937
307.721
307.576
307.519
307.558
307.666
307.833
307.997
308.111
308.195
308.208
308.227
308.107
307.982
307.828
307.769
307.758
307.701
307.859
308.042
302.666
302.582
302.539
302.513
302.535
302.572
302.628
302.683
302.72
302.744
302.741
302.765
302.713
302.682
302.628
302.608
302.605
302.579
302.64
302.703
340.238
339.135
338.399
338.088
338.311
339.107
339.884
340.685
341.416
341.836
341.979
341.998
341.569
340.929
340.322
339.588
339.376
339.392
339.976
341.056
334.983
334.079
333.446
333.156
333.335
334.025
334.708
335.358
335.99
336.324
336.476
336.479
336.13
335.558
335.024
334.392
334.25
334.229
334.767
335.651
329.706
328.967
328.413
328.182
328.314
328.908
329.463
330.018
330.528
330.775
330.942
330.922
330.64
330.155
329.693
329.188
329.075
329.034
329.524
330.223
324.386
323.784
323.333
323.147
323.258
323.751
324.18
324.633
325.039
325.227
325.37
325.349
325.129
324.726
324.337
323.946
323.866
323.815
324.21
324.786
319.029
318.548
318.212
318.044
318.148
318.527
318.868
319.202
319.507
319.651
319.774
319.752
319.604
319.268
318.945
318.671
318.629
318.549
318.87
319.321
313.626
313.281
313.045
312.928
312.991
313.245
313.525
313.746
313.956
314.064
314.153
314.133
314.036
313.782
313.553
313.36
313.349
313.277
313.527
313.827
308.196
307.988
307.844
307.784
307.798
307.969
308.157
308.289
308.383
308.454
308.517
308.487
308.45
308.285
308.14
308.032
308.034
307.982
308.142
308.327
302.742
302.678
302.632
302.608
302.616
302.669
302.748
302.778
302.805
302.832
302.86
302.832
302.841
302.787
302.728
302.701
302.696
302.671
302.728
302.8
341.83
340.662
339.897
339.701
339.956
340.619
341.399
342.251
342.947
343.386
343.57
343.623
343.207
342.529
341.864
341.25
340.94
340.943
341.648
342.572
336.38
335.393
334.734
334.561
334.777
335.349
336.015
336.74
337.357
337.675
337.836
337.898
337.531
336.941
336.376
335.861
335.601
335.58
336.217
336.977
330.867
330.03
329.514
329.351
329.537
330.028
330.571
331.176
331.709
331.954
332.09
332.127
331.828
331.305
330.873
330.431
330.211
330.195
330.744
331.345
325.295
324.628
324.23
324.092
324.215
324.65
325.072
325.579
326.01
326.205
326.309
326.326
326.098
325.65
325.317
324.936
324.775
324.778
325.221
325.705
319.702
319.179
318.906
318.789
318.868
319.224
319.537
319.933
320.285
320.421
320.491
320.513
320.31
319.98
319.748
319.438
319.296
319.333
319.651
320.04
314.1
313.708
313.537
313.466
313.504
313.748
313.978
314.255
314.509
314.608
314.627
314.679
314.524
314.309
314.136
313.91
313.798
313.848
314.055
314.339
308.463
308.242
308.123
308.108
308.1
308.257
308.405
308.562
308.728
308.777
308.773
308.806
308.737
308.613
308.499
308.357
308.29
308.325
308.437
308.621
302.836
302.767
302.729
302.719
302.713
302.768
302.811
302.872
302.932
302.942
302.941
302.958
302.932
302.894
302.843
302.808
302.78
302.786
302.834
302.891
343.427
342.329
341.567
341.357
341.687
342.141
342.982
343.855
344.627
345.184
345.298
345.488
345.007
344.253
343.551
342.924
342.593
342.61
343.27
344.186
337.753
336.84
336.176
335.997
336.267
336.628
337.361
338.127
338.781
339.22
339.336
339.501
339.068
338.414
337.83
337.315
337.006
337.021
337.62
338.354
332.038
331.3
330.744
330.555
330.79
331.091
331.714
332.344
332.906
333.236
333.352
333.459
333.12
332.551
332.094
331.655
331.374
331.388
331.922
332.498
326.3
325.698
325.247
325.095
325.255
325.522
326.026
326.522
327.003
327.219
327.311
327.423
327.139
326.676
326.342
325.961
325.704
325.737
326.181
326.619
320.498
320.045
319.685
319.575
319.693
319.895
320.291
320.679
321.063
321.174
321.268
321.354
321.122
320.773
320.551
320.239
320.012
320.047
320.412
320.746
314.689
314.352
314.092
314.022
314.102
314.244
314.506
314.788
315.076
315.147
315.214
315.276
315.115
314.883
314.704
314.497
314.311
314.344
314.624
314.842
308.846
308.627
308.478
308.438
308.464
308.548
308.717
308.893
309.072
309.119
309.156
309.181
309.079
308.936
308.859
308.716
308.607
308.618
308.793
308.909
302.965
302.894
302.843
302.833
302.829
302.857
302.92
302.991
303.049
303.067
303.074
303.085
303.048
303.001
302.965
302.924
302.886
302.894
302.946
302.993
345.185
344.157
343.42
343.232
343.378
343.911
344.68
345.625
346.329
346.987
347.198
347.308
346.819
346.118
345.292
344.784
344.383
344.438
345.097
345.949
339.271
338.412
337.762
337.613
337.732
338.158
338.859
339.643
340.252
340.81
340.975
341.074
340.64
340.067
339.357
338.902
338.567
338.602
339.163
339.887
333.334
332.616
332.066
331.935
332.041
332.385
332.973
333.623
334.139
334.604
334.758
334.805
334.449
333.965
333.388
332.984
332.693
332.74
333.203
333.814
327.324
326.767
326.316
326.187
326.298
326.57
327.026
327.556
327.981
328.362
328.5
328.512
328.253
327.841
327.411
327.044
326.806
326.858
327.207
327.713
321.302
320.862
320.509
320.409
320.52
320.686
321.04
321.475
321.803
322.091
322.229
322.205
322.006
321.711
321.366
321.057
320.899
320.894
321.184
321.601
315.255
314.934
314.681
314.597
314.698
314.795
315.068
315.365
315.582
315.798
315.917
315.895
315.721
315.558
315.295
315.076
314.949
314.91
315.158
315.445
309.201
308.977
308.828
308.773
308.84
308.877
309.061
309.232
309.367
309.487
309.573
309.546
309.426
309.342
309.213
309.054
308.982
308.95
309.113
309.284
303.099
303.018
302.949
302.932
302.968
302.964
303.04
303.099
303.136
303.18
303.198
303.204
303.154
303.124
303.094
303.023
303.006
302.993
303.056
303.113
347.07
346.078
345.428
345.112
345.325
345.919
346.472
347.252
347.95
348.689
348.982
348.925
348.547
347.949
347.301
346.614
346.358
346.425
346.931
347.814
340.897
340.09
339.504
339.246
339.41
339.929
340.402
341.042
341.653
342.271
342.521
342.479
342.161
341.622
341.082
340.468
340.277
340.349
340.754
341.491
334.691
334.057
333.536
333.33
333.444
333.877
334.28
334.807
335.326
335.833
336.036
336.014
335.758
335.289
334.815
334.298
334.136
334.223
334.533
335.155
328.446
327.943
327.524
327.336
327.436
327.773
328.127
328.54
328.952
329.363
329.527
329.52
329.313
328.934
328.532
328.121
327.998
328.046
328.276
328.809
322.173
321.773
321.446
321.326
321.387
321.641
321.949
322.249
322.547
322.866
323.001
322.992
322.84
322.543
322.222
321.927
321.819
321.836
322.005
322.415
315.872
315.587
315.342
315.26
315.309
315.496
315.706
315.92
316.145
316.371
316.43
316.454
316.355
316.127
315.912
315.715
315.611
315.608
315.727
316.019
309.527
309.368
309.231
309.181
309.203
309.323
309.454
309.565
309.709
309.839
309.873
309.892
309.834
309.697
309.573
309.453
309.385
309.373
309.454
309.638
303.191
303.143
303.101
303.082
303.071
303.141
303.173
303.203
303.239
303.306
303.31
303.311
303.302
303.242
303.211
303.169
303.143
303.146
303.162
303.229
349.088
348.135
347.495
347.234
347.315
347.765
348.421
349.034
349.741
350.374
350.718
350.595
350.287
349.742
349.077
348.568
348.402
348.418
348.881
349.839
342.628
341.845
341.296
341.055
341.106
341.525
342.06
342.576
343.205
343.732
344.037
343.919
343.65
343.176
342.629
342.186
342.061
342.078
342.444
343.249
336.152
335.515
335.043
334.833
334.861
335.234
335.668
336.106
336.653
337.065
337.329
337.221
337.004
336.573
336.134
335.76
335.671
335.687
335.98
336.633
329.655
329.128
328.768
328.579
328.59
328.908
329.23
329.593
330.056
330.386
330.595
330.485
330.336
329.975
329.611
329.312
329.237
329.262
329.477
330.012
323.106
322.707
322.46
322.273
322.267
322.541
322.78
323.049
323.423
323.672
323.843
323.759
323.64
323.349
323.061
322.826
322.793
322.797
322.953
323.384
316.549
316.247
316.099
315.931
315.945
316.156
316.282
316.492
316.765
316.92
317.068
316.994
316.934
316.7
316.475
316.321
316.3
316.305
316.411
316.72
309.974
309.771
309.698
309.567
309.583
309.724
309.792
309.924
310.069
310.162
310.265
310.212
310.175
310.05
309.9
309.809
309.798
309.803
309.868
310.039
303.35
303.272
303.256
303.216
303.216
303.256
303.288
303.339
303.374
303.4
303.43
303.422
303.404
303.381
303.321
303.283
303.28
303.286
303.316
303.368
351.14
350.3
349.62
349.392
349.405
349.721
350.245
350.873
351.567
352.214
352.428
352.258
352.096
351.522
350.84
350.481
350.336
350.428
350.926
351.877
344.45
343.725
343.14
342.935
342.939
343.186
343.644
344.202
344.781
345.332
345.507
345.364
345.218
344.73
344.125
343.829
343.717
343.787
344.206
345.02
337.701
337.101
336.595
336.434
336.426
336.623
337.011
337.516
337.982
338.417
338.572
338.447
338.31
337.89
337.41
337.163
337.045
337.124
337.458
338.136
330.918
330.437
330.028
329.893
329.879
330.033
330.346
330.77
331.141
331.485
331.607
331.493
331.389
331.036
330.675
330.464
330.388
330.429
330.689
331.238
324.11
323.73
323.418
323.322
323.297
323.41
323.64
323.966
324.266
324.529
324.607
324.545
324.458
324.159
323.898
323.736
323.695
323.721
323.912
324.323
317.247
316.99
316.787
316.718
316.677
316.771
316.903
317.147
317.353
317.554
317.609
317.557
317.486
317.281
317.088
316.978
316.946
316.977
317.11
317.404
310.351
310.208
310.109
310.045
310.042
310.066
310.156
310.302
310.426
310.546
310.574
310.552
310.501
310.401
310.261
310.197
310.198
310.205
310.285
310.461
303.465
303.42
303.39
303.365
303.361
303.378
303.404
303.456
303.501
303.531
303.545
303.541
303.516
303.482
303.453
303.416
303.423
303.415
303.447
303.502
353.286
352.496
351.681
351.306
351.42
351.673
352.01
352.63
353.37
353.848
354.005
354.071
353.812
353.263
352.821
352.478
352.369
352.598
352.993
353.891
346.293
345.63
344.912
344.619
344.668
344.905
345.173
345.712
346.366
346.748
346.862
346.928
346.722
346.254
345.87
345.568
345.507
345.678
346.024
346.76
339.273
338.741
338.113
337.87
337.88
338.088
338.297
338.752
339.316
339.642
339.717
339.764
339.561
339.226
338.864
338.605
338.586
338.726
339.034
339.606
332.219
331.794
331.262
331.072
331.064
331.246
331.387
331.778
332.238
332.482
332.532
332.564
332.401
332.17
331.84
331.635
331.634
331.737
331.973
332.439
325.123
324.8
324.392
324.219
324.213
324.373
324.439
324.773
325.111
325.294
325.335
325.345
325.234
325.091
324.801
324.642
324.639
324.752
324.893
325.263
317.995
317.742
317.48
317.353
317.33
317.454
317.485
317.742
317.952
318.086
318.121
318.121
318.057
317.961
317.746
317.609
317.632
317.715
317.799
318.078
310.824
310.663
310.532
310.429
310.415
310.505
310.524
310.678
310.787
310.87
310.887
310.881
310.867
310.805
310.678
310.586
310.608
310.657
310.708
310.868
303.629
303.577
303.533
303.5
303.487
303.527
303.52
303.583
303.618
303.64
303.649
303.645
303.652
303.627
303.583
303.554
303.558
303.571
303.581
303.647
355.351
354.644
353.869
353.436
353.444
353.646
354.027
354.462
355.028
355.486
355.688
355.748
355.466
355.043
354.743
354.391
354.376
354.626
355.14
355.94
348.062
347.486
346.805
346.459
346.443
346.602
346.943
347.314
347.791
348.18
348.329
348.408
348.159
347.789
347.545
347.22
347.218
347.447
347.879
348.579
340.757
340.282
339.717
339.407
339.412
339.539
339.803
340.117
340.509
340.846
340.93
341.048
340.829
340.513
340.323
340.016
340.041
340.233
340.567
341.176
333.432
333.03
332.612
332.301
332.317
332.439
332.616
332.89
333.231
333.472
333.527
333.623
333.44
333.206
333.073
332.778
332.847
332.994
333.245
333.732
326.059
325.726
325.439
325.165
325.158
325.284
325.417
325.637
325.896
326.054
326.107
326.16
326.072
325.891
325.77
325.521
325.608
325.716
325.888
326.258
318.643
318.397
318.222
317.995
317.981
318.102
318.179
318.355
318.533
318.622
318.66
318.701
318.65
318.552
318.45
318.251
318.325
318.4
318.531
318.772
311.213
311.056
310.958
310.817
310.795
310.876
310.915
311.051
311.143
311.174
311.197
311.229
311.203
311.157
311.083
310.971
311.018
311.067
311.154
311.278
303.758
303.706
303.674
303.632
303.619
303.644
303.657
303.719
303.743
303.742
303.746
303.765
303.753
303.75
303.699
303.691
303.696
303.714
303.733
303.779
357.495
356.808
355.989
355.605
355.494
355.616
355.877
356.312
356.746
357.155
357.301
357.408
357.207
356.858
356.52
356.381
356.461
356.655
357.267
357.94
349.943
349.375
348.663
348.291
348.218
348.309
348.543
348.898
349.266
349.603
349.742
349.838
349.671
349.367
349.056
348.964
349.025
349.209
349.74
350.299
342.338
341.878
341.299
340.952
340.895
340.95
341.175
341.446
341.736
342.034
342.165
342.237
342.088
341.848
341.573
341.497
341.531
341.716
342.142
342.619
334.703
334.337
333.887
333.575
333.534
333.58
333.752
333.966
334.196
334.415
334.556
334.601
334.487
334.32
334.06
333.987
334.042
334.208
334.514
334.917
327.036
326.744
326.407
326.162
326.137
326.168
326.288
326.457
326.647
326.797
326.906
326.948
326.845
326.741
326.546
326.468
326.529
326.651
326.9
327.189
319.34
319.117
318.889
318.709
318.69
318.709
318.813
318.925
319.074
319.162
319.236
319.261
319.17
319.111
318.996
318.931
318.977
319.048
319.256
319.433
311.624
311.496
311.36
311.24
311.231
311.269
311.297
311.374
311.459
311.515
311.562
311.573
311.517
311.468
311.409
311.376
311.402
311.441
311.568
311.664
303.886
303.854
303.812
303.764
303.777
303.776
303.787
303.816
303.844
303.864
303.866
303.88
303.852
303.85
303.812
303.825
303.824
303.838
303.881
303.91
359.715
358.946
358.182
357.698
357.491
357.562
357.836
358.123
358.479
358.718
358.934
359.011
358.84
358.617
358.375
358.187
358.392
358.684
359.246
359.959
351.873
351.25
350.589
350.132
349.936
350.009
350.243
350.486
350.759
350.987
351.156
351.216
351.095
350.878
350.656
350.529
350.713
350.987
351.448
352.04
343.998
343.473
342.916
342.534
342.356
342.401
342.614
342.793
342.994
343.215
343.352
343.401
343.318
343.103
342.915
342.81
342.995
343.226
343.621
344.087
336.091
335.656
335.204
334.877
334.751
334.77
334.933
335.086
335.228
335.411
335.529
335.555
335.492
335.314
335.148
335.089
335.23
335.414
335.731
336.1
328.173
327.802
327.439
327.181
327.088
327.107
327.234
327.336
327.442
327.58
327.678
327.673
327.65
327.516
327.38
327.329
327.424
327.597
327.819
328.095
320.19
319.903
319.619
319.446
319.381
319.412
319.502
319.567
319.62
319.712
319.787
319.776
319.785
319.665
319.586
319.547
319.599
319.749
319.912
320.1
312.151
311.98
311.787
311.691
311.642
311.688
311.738
311.765
311.782
311.843
311.901
311.881
311.89
311.822
311.774
311.748
311.766
311.872
311.989
312.08
304.075
304.019
303.954
303.921
303.915
303.923
303.941
303.945
303.953
303.965
303.996
303.982
303.988
303.96
303.951
303.944
303.947
303.977
304.023
304.047
361.743
360.916
360.285
359.72
359.366
359.509
359.62
359.829
360.127
360.393
360.495
360.518
360.462
360.397
360.176
360.19
360.318
360.577
361.25
361.823
353.643
352.915
352.381
351.884
351.54
351.69
351.784
351.943
352.207
352.457
352.511
352.539
352.506
352.441
352.259
352.265
352.356
352.596
353.175
353.639
345.492
344.876
344.427
343.985
343.692
343.821
343.925
344.038
344.266
344.46
344.525
344.544
344.511
344.437
344.29
344.294
344.353
344.562
345.042
345.424
337.333
336.774
336.428
336.07
335.808
335.915
336.01
336.103
336.301
336.421
336.503
336.516
336.48
336.401
336.292
336.284
336.334
336.505
336.894
337.211
329.111
328.656
328.371
328.11
327.901
327.989
328.065
328.131
328.281
328.382
328.43
328.457
328.421
328.341
328.251
328.245
328.306
328.435
328.734
328.981
320.827
320.502
320.302
320.111
319.96
320.044
320.084
320.129
320.234
320.303
320.346
320.369
320.319
320.257
320.226
320.202
320.241
320.328
320.544
320.712
312.515
312.325
312.192
312.093
311.986
312.059
312.076
312.101
312.168
312.204
312.212
312.251
312.202
312.164
312.167
312.148
312.153
312.224
312.342
312.455
304.2
304.136
304.096
304.05
304.015
304.053
304.055
304.058
304.086
304.086
304.08
304.11
304.092
304.084
304.08
304.071
304.07
304.108
304.133
304.18
363.703
363.046
362.346
361.784
361.445
361.433
361.412
361.527
361.786
362.102
362.162
362.223
362.091
362.02
361.963
361.986
362.204
362.584
363.237
363.813
355.297
354.754
354.142
353.668
353.367
353.341
353.335
353.433
353.648
353.916
353.972
354.031
353.919
353.826
353.784
353.818
353.985
354.323
354.891
355.37
346.863
346.424
345.917
345.501
345.233
345.232
345.247
345.319
345.495
345.687
345.758
345.797
345.701
345.591
345.568
345.617
345.752
346.048
346.528
346.935
338.397
338.056
337.658
337.3
337.073
337.082
337.099
337.162
337.279
337.438
337.511
337.556
337.461
337.333
337.323
337.383
337.494
337.751
338.124
338.467
329.919
329.651
329.333
329.063
328.874
328.914
328.902
328.967
329.04
329.144
329.235
329.264
329.199
329.066
329.048
329.112
329.21
329.411
329.713
329.951
321.41
321.217
320.975
320.802
320.661
320.694
320.69
320.722
320.776
320.846
320.916
320.93
320.888
320.783
320.778
320.8
320.903
321.028
321.248
321.413
312.861
312.745
312.6
312.504
312.421
312.44
312.441
312.46
312.496
312.54
312.59
312.595
312.545
312.502
312.488
312.508
312.583
312.638
312.757
312.868
304.303
304.276
304.224
304.191
304.167
304.184
304.178
304.177
304.192
304.199
304.228
304.22
304.203
304.192
304.191
304.196
304.221
304.237
304.285
304.314
365.638
365.048
364.268
363.676
363.452
363.289
363.222
363.234
363.362
363.607
363.741
363.827
363.811
363.566
363.681
363.663
363.961
364.412
365.058
365.685
356.973
356.48
355.818
355.312
355.1
354.954
354.888
354.906
355.012
355.2
355.339
355.416
355.412
355.153
355.29
355.26
355.517
355.893
356.476
357.001
348.247
347.885
347.33
346.906
346.712
346.577
346.538
346.532
346.616
346.783
346.899
346.969
346.994
346.756
346.843
346.807
347.049
347.359
347.864
348.301
339.511
339.256
338.799
338.452
338.269
338.157
338.154
338.128
338.206
338.354
338.427
338.482
338.538
338.305
338.37
338.337
338.548
338.801
339.213
339.575
330.752
330.583
330.233
329.956
329.809
329.718
329.715
329.702
329.755
329.874
329.925
329.964
330.022
329.841
329.88
329.837
330.026
330.205
330.523
330.811
321.979
321.879
321.634
321.426
321.317
321.25
321.238
321.238
321.271
321.388
321.395
321.439
321.473
321.325
321.36
321.339
321.477
321.582
321.84
322.048
313.215
313.134
313.005
312.891
312.804
312.762
312.748
312.764
312.784
312.856
312.853
312.892
312.926
312.815
312.833
312.802
312.888
312.956
313.131
313.243
304.435
304.409
304.363
304.318
304.285
304.276
304.271
304.275
304.293
304.312
304.305
304.326
304.335
304.3
304.3
304.294
304.324
304.346
304.403
304.437
367.305
366.792
366.059
365.424
365.114
364.843
364.82
364.771
364.792
365.046
365.063
365.174
365.227
365.167
365.24
365.365
365.601
366.137
366.78
367.287
358.411
357.97
357.363
356.784
356.484
356.248
356.271
356.226
356.215
356.459
356.468
356.546
356.623
356.55
356.605
356.702
356.919
357.391
357.945
358.348
349.489
349.114
348.618
348.119
347.836
347.663
347.712
347.628
347.631
347.834
347.833
347.908
347.973
347.918
347.989
348.045
348.233
348.612
349.092
349.399
340.527
340.247
339.842
339.429
339.167
339.05
339.103
339.019
339.021
339.153
339.191
339.242
339.302
339.254
339.326
339.378
339.506
339.819
340.206
340.438
331.54
331.332
331.027
330.699
330.493
330.381
330.465
330.366
330.389
330.46
330.534
330.552
330.589
330.57
330.624
330.682
330.769
330.98
331.29
331.476
322.548
322.407
322.198
321.939
321.814
321.722
321.784
321.723
321.75
321.769
321.84
321.844
321.891
321.862
321.884
321.949
322.001
322.141
322.376
322.503
313.536
313.46
313.343
313.179
313.091
313.055
313.08
313.057
313.08
313.073
313.117
313.125
313.156
313.12
313.148
313.188
313.233
313.3
313.443
313.526
304.54
304.5
304.474
304.417
304.391
304.386
304.389
304.385
304.383
304.39
304.4
304.408
304.422
304.391
304.407
304.419
304.441
304.469
304.508
304.535
368.757
368.153
367.457
366.763
366.32
366.042
366.068
365.98
365.955
366.153
366.169
366.202
366.216
366.338
366.384
366.595
366.789
367.397
367.915
368.581
359.599
359.112
358.515
357.894
357.47
357.282
357.293
357.202
357.181
357.358
357.366
357.384
357.375
357.521
357.54
357.73
357.898
358.427
358.856
359.414
350.432
350.059
349.554
348.99
348.636
348.496
348.532
348.427
348.414
348.554
348.557
348.55
348.543
348.705
348.734
348.869
349.007
349.462
349.785
350.28
341.266
340.982
340.575
340.093
339.771
339.695
339.768
339.627
339.656
339.755
339.743
339.728
339.709
339.859
339.906
339.997
340.117
340.485
340.727
341.151
332.108
331.909
331.579
331.205
330.943
330.879
330.969
330.814
330.848
330.925
330.936
330.918
330.885
331.022
331.071
331.134
331.245
331.5
331.675
331.997
322.96
322.827
322.566
322.295
322.112
322.086
322.155
322.001
322.066
322.102
322.131
322.085
322.067
322.178
322.229
322.255
322.344
322.506
322.638
322.853
313.803
313.716
313.544
313.404
313.294
313.289
313.313
313.218
313.262
313.268
313.306
313.266
313.241
313.334
313.372
313.369
313.436
313.522
313.619
313.71
304.62
304.603
304.537
304.499
304.462
304.468
304.465
304.439
304.45
304.448
304.463
304.444
304.437
304.472
304.492
304.476
304.507
304.531
304.556
304.586
)
;

boundaryField
{
    hotSide
    {
        type            fixedGradient;
        gradient        nonuniform List<scalar> 
400
(
380.309
384.609
392.19
402.973
416.64
432.73
450.748
470.236
490.812
512.167
534.063
556.311
578.766
601.309
623.843
646.283
668.555
690.6
712.378
733.874
361.108
365.646
373.699
385.17
399.677
416.676
435.602
455.952
477.316
499.376
521.89
544.673
567.586
590.516
613.374
636.08
658.564
680.769
702.656
724.217
350.314
355.358
363.878
375.771
390.657
407.999
427.236
447.862
469.466
491.722
514.386
537.273
560.241
583.186
606.019
628.67
651.078
673.191
694.98
716.443
347.409
353.204
362.202
374.298
389.171
406.363
425.378
445.752
467.088
489.065
511.434
534.006
556.64
579.229
601.695
623.974
646.018
667.792
689.278
710.48
350.258
356.93
366.45
378.709
393.446
410.294
428.839
448.675
469.435
490.812
512.562
534.496
556.477
578.406
600.215
621.856
643.296
664.518
685.517
706.302
356.452
364.032
374.14
386.658
401.36
417.94
436.045
455.317
475.422
496.072
517.034
538.134
559.249
580.3
601.24
622.042
642.697
663.203
683.569
703.808
364.053
372.525
383.287
396.207
411.07
427.595
445.456
464.318
483.861
503.811
523.952
544.135
564.268
584.308
604.243
624.079
643.83
663.515
683.153
702.761
371.635
380.946
392.399
405.848
421.073
437.789
455.665
474.353
493.524
512.899
532.279
551.548
570.664
589.64
608.512
627.33
646.137
664.97
683.855
702.812
378.125
388.164
400.28
414.316
430.041
447.15
465.281
484.044
503.065
522.041
540.779
559.208
577.356
595.308
613.164
631.017
648.941
666.985
685.18
703.544
382.706
393.276
405.921
420.481
436.712
454.288
472.808
491.821
510.886
529.654
547.93
565.694
583.051
600.167
617.203
634.293
651.527
668.963
686.633
704.549
384.815
395.627
408.546
423.412
439.977
457.9
476.746
496.02
515.225
533.967
552.048
569.48
586.425
603.102
619.711
636.404
653.285
670.413
687.817
705.507
384.221
394.921
407.777
422.627
439.22
457.206
476.145
495.531
514.866
533.751
551.98
569.559
586.643
603.444
620.159
636.942
653.896
671.082
688.533
706.26
381.101
391.339
403.804
418.331
434.665
452.455
471.273
490.643
510.106
529.294
547.996
566.173
583.913
601.368
618.695
636.026
653.457
671.052
688.848
706.864
376.072
385.566
397.405
411.429
427.376
444.897
463.574
482.965
502.654
522.304
541.693
560.729
579.422
597.847
616.102
634.283
652.469
670.721
689.08
707.572
370.186
378.747
389.851
403.344
418.955
436.316
455.002
474.579
494.648
514.883
535.052
555.018
574.733
594.207
613.483
632.62
651.672
670.692
689.718
708.784
364.965
372.498
382.854
395.893
411.311
428.693
447.573
467.494
488.049
508.909
529.831
550.656
571.298
591.725
611.942
631.974
651.856
671.623
691.31
710.95
362.489
368.989
378.64
391.309
406.64
424.141
443.279
463.556
484.55
505.927
527.442
548.928
570.28
591.445
612.403
633.156
653.718
674.111
694.361
714.498
365.313
370.899
379.896
392.175
407.332
424.801
443.997
464.391
485.553
507.156
528.955
550.785
572.534
594.134
615.552
636.771
657.791
678.62
699.273
719.772
375.72
380.648
389.023
400.727
415.357
432.349
451.118
471.144
492.01
513.392
535.054
556.827
578.594
600.278
621.829
643.219
664.434
685.469
706.328
727.027
394.372
398.932
406.707
417.601
431.279
447.265
465.048
484.159
504.21
524.893
545.974
567.279
588.682
610.094
631.453
652.716
673.857
694.86
715.719
736.442
)
;
    }
    coldSide
    {
        type            mixed;
        refValue        uniform 300;
        refGradient     uniform 0;
        valueFraction   uniform 0.991591;
        source          uniform 0;
        value           nonuniform List<scalar> 
400
(
300.021
300.022
300.022
300.022
300.023
300.024
300.025
300.026
300.027
300.028
300.029
300.031
300.032
300.033
300.034
300.035
300.036
300.037
300.038
300.039
300.021
300.021
300.021
300.022
300.023
300.023
300.024
300.025
300.026
300.028
300.029
300.03
300.031
300.032
300.034
300.035
300.036
300.037
300.038