/*--------------------------------*- C++ -*----------------------------------*\
| =========                 |                                                 |
| \\      /  F ield         | OpenFOAM: The Open Source CFD Toolbox           |
|  \\    /   O peration     | Version:  2212                                  |
|   \\  /    A nd           | Website:  www.openfoam.com                      |
|    \\/     M anipulation  |                                                 |
\*---------------------------------------------------------------------------*/
FoamFile
{
    version     2.0;
    format      ascii;
    arch        "LSB;label=32;scalar=64";
    class       volScalarField;
    location    "0";
    object      Ttrue;
}
// * * * * * * * * * * * * * * * * * * * * * * * * * * * * * * * * * * * * * //

dimensions      [0 0 0 1 0 0 0];

internalField   nonuniform List<scalar> 
3200
(
322.746
322.952
323.217
323.504
323.801
324.092
324.36
324.587
324.752
324.839
324.839
324.752
324.587
324.36
324.092
323.801
323.504
323.217
322.952
322.746
319.874
320.049
320.277
320.526
320.782
321.034
321.266
321.462
321.604
321.68
321.68
321.604
321.462
321.266
321.034
320.782
320.526
320.277
320.049
319.874
316.934
317.08
317.271
317.482
317.698
317.911
318.107
318.272
318.393
318.456
318.456
318.393
318.272
318.107
317.911
317.698
317.482
317.271
317.08
316.934
313.937
314.054
314.21
314.382
314.559
314.733
314.893
315.028
315.126
315.178
315.178
315.126
315.028
314.893
314.733
314.559
314.382
314.21
314.054
313.937
310.892
310.982
311.103
311.237
311.374
311.509
311.634
311.739
311.815
311.855
311.855
311.815
311.739
311.634
311.509
311.374
311.237
311.103
310.982
310.892
307.81
307.874
307.96
308.056
308.154
308.25
308.339
308.414
308.468
308.497
308.497
308.468
308.414
308.339
308.25
308.154
308.056
307.96
307.874
307.81
304.702
304.74
304.792
304.849
304.908
304.966
305.019
305.064
305.097
305.114
305.114
305.097
305.064
305.019
304.966
304.908
304.849
304.792
304.74
304.702
301.578
301.591
301.608
301.627
301.647
301.666
301.684
301.699
301.71
301.716
301.716
301.71
301.699
301.684
301.666
301.647
301.627
301.608
301.591
301.578
322.832
323.038
323.299
323.584
323.878
324.165
324.431
324.655
324.818
324.904
324.904
324.818
324.655
324.431
324.165
323.878
323.584
323.299
323.038
322.832
319.95
320.123
320.349
320.596
320.85
321.099
321.328
321.522
321.662
321.737
321.737
321.662
321.522
321.328
321.099
320.85
320.596
320.349
320.123
319.95
316.999
317.143
317.333
317.542
317.756
317.966
318.16
318.323
318.442
318.505
318.505
318.442
318.323
318.16
317.966
317.756
317.542
317.333
317.143
316.999
313.99
314.106
314.261
314.431
314.607
314.779
314.937
315.07
315.167
315.218
315.218
315.167
315.07
314.937
314.779
314.607
314.431
314.261
314.106
313.99
310.934
311.023
311.143
311.275
311.412
311.545
311.668
311.772
311.847
311.887
311.887
311.847
311.772
311.668
311.545
311.412
311.275
311.143
311.023
310.934
307.84
307.903
307.989
308.083
308.181
308.276
308.364
308.438
308.491
308.52
308.52
308.491
308.438
308.364
308.276
308.181
308.083
307.989
307.903
307.84
304.72
304.758
304.809
304.866
304.924
304.982
305.034
305.079
305.111
305.128
305.128
305.111
305.079
305.034
304.982
304.924
304.866
304.809
304.758
304.72
301.584
301.597
301.614
301.633
301.652
301.672
301.689
301.704
301.715
301.721
301.721
301.715
301.704
301.689
301.672
301.652
301.633
301.614
301.597
301.584
323.006
323.208
323.465
323.745
324.033
324.314
324.573
324.792
324.951
325.034
325.034
324.951
324.792
324.573
324.314
324.033
323.745
323.465
323.208
323.006
320.102
320.273
320.495
320.737
320.985
321.229
321.453
321.642
321.779
321.851
321.851
321.779
321.642
321.453
321.229
320.985
320.737
320.495
320.273
320.102
317.128
317.27
317.457
317.662
317.872
318.078
318.267
318.426
318.542
318.603
318.603
318.542
318.426
318.267
318.078
317.872
317.662
317.457
317.27
317.128
314.097
314.211
314.363
314.53
314.702
314.87
315.025
315.155
315.25
315.3
315.3
315.25
315.155
315.025
314.87
314.702
314.53
314.363
314.211
314.097
311.017
311.105
311.223
311.353
311.486
311.617
311.737
311.838
311.912
311.95
311.95
311.912
311.838
311.737
311.617
311.486
311.353
311.223
311.105
311.017
307.9
307.962
308.046
308.139
308.234
308.328
308.414
308.486
308.538
308.566
308.566
308.538
308.486
308.414
308.328
308.234
308.139
308.046
307.962
307.9
304.756
304.793
304.844
304.899
304.957
305.013
305.064
305.107
305.139
305.155
305.155
305.139
305.107
305.064
305.013
304.957
304.899
304.844
304.793
304.756
301.596
301.608
301.625
301.644
301.663
301.682
301.699
301.714
301.724
301.73
301.73
301.724
301.714
301.699
301.682
301.663
301.644
301.625
301.608
301.596
323.267
323.465
323.715
323.988
324.266
324.539
324.789
325
325.153
325.233
325.233
325.153
325
324.789
324.539
324.266
323.988
323.715
323.465
323.267
320.33
320.497
320.713
320.949
321.19
321.426
321.643
321.824
321.957
322.026
322.026
321.957
321.824
321.643
321.426
321.19
320.949
320.713
320.497
320.33
317.323
317.461
317.644
317.843
318.047
318.246
318.429
318.583
318.694
318.753
318.753
318.694
318.583
318.429
318.246
318.047
317.843
317.644
317.461
317.323
314.257
314.368
314.517
314.68
314.846
315.009
315.159
315.284
315.375
315.423
315.423
315.375
315.284
315.159
315.009
314.846
314.68
314.517
314.368
314.257
311.142
311.228
311.343
311.469
311.599
311.726
311.842
311.939
312.01
312.047
312.047
312.01
311.939
311.842
311.726
311.599
311.469
311.343
311.228
311.142
307.99
308.05
308.132
308.223
308.315
308.406
308.489
308.558
308.609
308.635
308.635
308.609
308.558
308.489
308.406
308.315
308.223
308.132
308.05
307.99
304.81
304.846
304.896
304.95
305.005
305.06
305.109
305.151
305.181
305.197
305.197
305.181
305.151
305.109
305.06
305.005
304.95
304.896
304.846
304.81
301.614
301.626
301.643
301.661
301.68
301.698
301.714
301.728
301.739
301.744
301.744
301.739
301.728
301.714
301.698
301.68
301.661
301.643
301.626
301.614
323.617
323.808
324.05
324.313
324.581
324.842
325.081
325.282
325.427
325.504
325.504
325.427
325.282
325.081
324.842
324.581
324.313
324.05
323.808
323.617
320.635
320.797
321.006
321.233
321.465
321.691
321.898
322.072
322.198
322.264
322.264
322.198
322.072
321.898
321.691
321.465
321.233
321.006
320.797
320.635
317.583
317.717
317.894
318.086
318.282
318.473
318.648
318.794
318.9
318.956
318.956
318.9
318.794
318.648
318.473
318.282
318.086
317.894
317.717
317.583
314.471
314.579
314.723
314.88
315.04
315.196
315.339
315.459
315.545
315.591
315.591
315.545
315.459
315.339
315.196
315.04
314.88
314.723
314.579
314.471
311.31
311.393
311.504
311.626
311.751
311.872
311.983
312.076
312.143
312.179
312.179
312.143
312.076
311.983
311.872
311.751
311.626
311.504
311.393
311.31
308.11
308.169
308.248
308.335
308.424
308.511
308.59
308.656
308.704
308.73
308.73
308.704
308.656
308.59
308.511
308.424
308.335
308.248
308.169
308.11
304.882
304.917
304.965
305.017
305.071
305.123
305.171
305.21
305.239
305.254
305.254
305.239
305.21
305.171
305.123
305.071
305.017
304.965
304.917
304.882
301.639
301.65
301.666
301.684
301.702
301.719
301.735
301.748
301.758
301.763
301.763
301.758
301.748
301.735
301.719
301.702
301.684
301.666
301.65
301.639
324.054
324.238
324.471
324.722
324.978
325.226
325.452
325.641
325.778
325.85
325.85
325.778
325.641
325.452
325.226
324.978
324.722
324.471
324.238
324.054
321.018
321.174
321.375
321.592
321.813
322.028
322.224
322.387
322.506
322.568
322.568
322.506
322.387
322.224
322.028
321.813
321.592
321.375
321.174
321.018
317.909
318.039
318.208
318.391
318.578
318.76
318.925
319.064
319.164
319.216
319.216
319.164
319.064
318.925
318.76
318.578
318.391
318.208
318.039
317.909
314.74
314.844
314.982
315.132
315.285
315.433
315.568
315.681
315.763
315.806
315.806
315.763
315.681
315.568
315.433
315.285
315.132
314.982
314.844
314.74
311.52
311.599
311.706
311.823
311.942
312.057
312.162
312.25
312.314
312.347
312.347
312.314
312.25
312.162
312.057
311.942
311.823
311.706
311.599
311.52
308.26
308.317
308.393
308.476
308.561
308.644
308.719
308.781
308.827
308.851
308.851
308.827
308.781
308.719
308.644
308.561
308.476
308.393
308.317
308.26
304.973
305.007
305.053
305.103
305.154
305.203
305.248
305.286
305.313
305.327
305.327
305.313
305.286
305.248
305.203
305.154
305.103
305.053
305.007
304.973
301.669
301.68
301.696
301.712
301.729
301.746
301.761
301.774
301.783
301.788
301.788
301.783
301.774
301.761
301.746
301.729
301.712
301.696
301.68
301.669
324.582
324.758
324.98
325.218
325.46
325.693
325.905
326.082
326.21
326.277
326.277
326.21
326.082
325.905
325.693
325.46
325.218
324.98
324.758
324.582
321.479
321.628
321.819
322.026
322.235
322.437
322.62
322.773
322.884
322.942
322.942
322.884
322.773
322.62
322.437
322.235
322.026
321.819
321.628
321.479
318.302
318.426
318.587
318.762
318.938
319.109
319.264
319.394
319.487
319.536
319.536
319.487
319.394
319.264
319.109
318.938
318.762
318.587
318.426
318.302
315.063
315.163
315.294
315.437
315.581
315.721
315.848
315.953
316.029
316.069
316.069
316.029
315.953
315.848
315.721
315.581
315.437
315.294
315.163
315.063
311.773
311.849
311.951
312.062
312.174
312.283
312.381
312.463
312.522
312.554
312.554
312.522
312.463
312.381
312.283
312.174
312.062
311.951
311.849
311.773
308.442
308.496
308.569
308.648
308.728
308.805
308.876
308.935
308.977
308.999
308.999
308.977
308.935
308.876
308.805
308.728
308.648
308.569
308.496
308.442
305.082
305.115
305.158
305.206
305.254
305.3
305.343
305.378
305.403
305.417
305.417
305.403
305.378
305.343
305.3
305.254
305.206
305.158
305.115
305.082
301.706
301.716
301.731
301.747
301.763
301.779
301.793
301.805
301.813
301.818
301.818
301.813
301.805
301.793
301.779
301.763
301.747
301.731
301.716
301.706
325.2
325.367
325.577
325.802
326.028
326.246
326.444
326.608
326.725
326.787
326.787
326.725
326.608
326.444
326.246
326.028
325.802
325.577
325.367
325.2
322.019
322.161
322.342
322.536
322.733
322.921
323.092
323.234
323.336
323.389
323.389
323.336
323.234
323.092
322.921
322.733
322.536
322.342
322.161
322.019
318.763
318.88
319.033
319.197
319.363
319.523
319.667
319.787
319.873
319.918
319.918
319.873
319.787
319.667
319.523
319.363
319.197
319.033
318.88
318.763
315.442
315.537
315.661
315.796
315.931
316.062
316.18
316.278
316.348
316.385
316.385
316.348
316.278
316.18
316.062
315.931
315.796
315.661
315.537
315.442
312.069
312.141
312.238
312.342
312.448
312.549
312.641
312.717
312.772
312.801
312.801
312.772
312.717
312.641
312.549
312.448
312.342
312.238
312.141
312.069
308.654
308.706
308.774
308.849
308.924
308.997
309.062
309.117
309.156
309.176
309.176
309.156
309.117
309.062
308.997
308.924
308.849
308.774
308.706
308.654
305.21
305.241
305.282
305.327
305.372
305.416
305.455
305.488
305.511
305.523
305.523
305.511
305.488
305.455
305.416
305.372
305.327
305.282
305.241
305.21
301.749
301.759
301.773
301.788
301.803
301.817
301.831
301.842
301.849
301.853
301.853
301.849
301.842
301.831
301.817
301.803
301.788
301.773
301.759
301.749
325.91
326.068
326.265
326.476
326.687
326.889
327.071
327.222
327.33
327.386
327.386
327.33
327.222
327.071
326.889
326.687
326.476
326.265
326.068
325.91
322.64
322.773
322.944
323.126
323.309
323.484
323.641
323.772
323.865
323.914
323.914
323.865
323.772
323.641
323.484
323.309
323.126
322.944
322.773
322.64
319.292
319.403
319.546
319.7
319.855
320.003
320.136
320.246
320.325
320.367
320.367
320.325
320.246
320.136
320.003
319.855
319.7
319.546
319.403
319.292
315.878
315.967
316.084
316.21
316.336
316.457
316.566
316.656
316.721
316.755
316.755
316.721
316.656
316.566
316.457
316.336
316.21
316.084
315.967
315.878
312.409
312.478
312.568
312.666
312.765
312.859
312.944
313.014
313.064
313.09
313.09
313.064
313.014
312.944
312.859
312.765
312.666
312.568
312.478
312.409
308.898
308.947
309.012
309.081
309.152
309.219
309.28
309.33
309.365
309.384
309.384
309.365
309.33
309.28
309.219
309.152
309.081
309.012
308.947
308.898
305.357
305.386
305.425
305.467
305.509
305.55
305.586
305.616
305.637
305.649
305.649
305.637
305.616
305.586
305.55
305.509
305.467
305.425
305.386
305.357
301.798
301.808
301.821
301.835
301.849
301.862
301.874
301.885
301.892
301.896
301.896
301.892
301.885
301.874
301.862
301.849
301.835
301.821
301.808
301.798
326.712
326.86
327.045
327.241
327.436
327.623
327.79
327.927
328.026
328.077
328.077
328.026
327.927
327.79
327.623
327.436
327.241
327.045
326.86
326.712
323.341
323.466
323.626
323.795
323.965
324.126
324.271
324.39
324.475
324.519
324.519
324.475
324.39
324.271
324.126
323.965
323.795
323.626
323.466
323.341
319.889
319.993
320.128
320.271
320.414
320.551
320.673
320.774
320.846
320.883
320.883
320.846
320.774
320.673
320.551
320.414
320.271
320.128
319.993
319.889
316.37
316.453
316.563
316.68
316.797
316.909
317.009
317.091
317.15
317.181
317.181
317.15
317.091
317.009
316.909
316.797
316.68
316.563
316.453
316.37
312.794
312.858
312.943
313.034
313.125
313.212
313.29
313.354
313.4
313.423
313.423
313.4
313.354
313.29
313.212
313.125
313.034
312.943
312.858
312.794
309.174
309.22
309.28
309.345
309.41
309.472
309.528
309.574
309.606
309.623
309.623
309.606
309.574
309.528
309.472
309.41
309.345
309.28
309.22
309.174
305.523
305.55
305.587
305.626
305.665
305.702
305.736
305.763
305.783
305.793
305.793
305.783
305.763
305.736
305.702
305.665
305.626
305.587
305.55
305.523
301.854
301.863
301.875
301.888
301.901
301.914
301.925
301.934
301.94
301.944
301.944
301.94
301.934
301.925
301.914
301.901
301.888
301.875
301.863
301.854
327.608
327.746
327.919
328.1
328.28
328.45
328.603
328.728
328.817
328.863
328.863
328.817
328.728
328.603
328.45
328.28
328.1
327.919
327.746
327.608
324.124
324.241
324.389
324.546
324.703
324.85
324.982
325.091
325.168
325.208
325.208
325.168
325.091
324.982
324.85
324.703
324.546
324.389
324.241
324.124
320.556
320.654
320.779
320.912
321.044
321.169
321.28
321.372
321.437
321.471
321.471
321.437
321.372
321.28
321.169
321.044
320.912
320.779
320.654
320.556
316.919
316.997
317.099
317.208
317.316
317.418
317.509
317.584
317.637
317.665
317.665
317.637
317.584
317.509
317.418
317.316
317.208
317.099
316.997
316.919
313.223
313.283
313.362
313.447
313.531
313.61
313.681
313.739
313.781
313.802
313.802
313.781
313.739
313.681
313.61
313.531
313.447
313.362
313.283
313.223
309.482
309.524
309.581
309.641
309.701
309.758
309.809
309.85
309.88
309.895
309.895
309.88
309.85
309.809
309.758
309.701
309.641
309.581
309.524
309.482
305.709
305.734
305.768
305.804
305.84
305.874
305.905
305.93
305.947
305.957
305.957
305.947
305.93
305.905
305.874
305.84
305.804
305.768
305.734
305.709
301.916
301.924
301.936
301.948
301.96
301.971
301.981
301.99
301.996
301.999
301.999
301.996
301.99
301.981
301.971
301.96
301.948
301.936
301.924
301.916
328.597
328.727
328.886
329.053
329.218
329.374
329.512
329.625
329.705
329.747
329.747
329.705
329.625
329.512
329.374
329.218
329.053
328.886
328.727
328.597
324.989
325.098
325.235
325.38
325.523
325.658
325.778
325.876
325.945
325.981
325.981
325.945
325.876
325.778
325.658
325.523
325.38
325.235
325.098
324.989
321.294
321.384
321.5
321.623
321.744
321.858
321.959
322.042
322.101
322.131
322.131
322.101
322.042
321.959
321.858
321.744
321.623
321.5
321.384
321.294
317.525
317.598
317.693
317.793
317.892
317.986
318.068
318.136
318.184
318.209
318.209
318.184
318.136
318.068
317.986
317.892
317.793
317.693
317.598
317.525
313.697
313.753
313.827
313.904
313.981
314.054
314.119
314.171
314.209
314.228
314.228
314.209
314.171
314.119
314.054
313.981
313.904
313.827
313.753
313.697
309.822
309.862
309.914
309.97
310.025
310.077
310.123
310.16
310.187
310.201
310.201
310.187
310.16
310.123
310.077
310.025
309.97
309.914
309.862
309.822
305.913
305.937
305.968
306.002
306.035
306.066
306.094
306.116
306.132
306.141
306.141
306.132
306.116
306.094
306.066
306.035
306.002
305.968
305.937
305.913
301.985
301.992
302.003
302.014
302.025
302.036
302.045
302.053
302.058
302.061
302.061
302.058
302.053
302.045
302.036
302.025
302.014
302.003
301.992
301.985
329.681
329.801
329.948
330.102
330.253
330.394
330.519
330.621
330.693
330.73
330.73
330.693
330.621
330.519
330.394
330.253
330.102
329.948
329.801
329.681
325.936
326.037
326.164
326.297
326.428
326.551
326.659
326.747
326.809
326.842
326.842
326.809
326.747
326.659
326.551
326.428
326.297
326.164
326.037
325.936
322.101
322.185
322.292
322.404
322.515
322.619
322.711
322.785
322.838
322.865
322.865
322.838
322.785
322.711
322.619
322.515
322.404
322.292
322.185
322.101
318.19
318.257
318.345
318.437
318.527
318.612
318.687
318.748
318.791
318.814
318.814
318.791
318.748
318.687
318.612
318.527
318.437
318.345
318.257
318.19
314.216
314.268
314.336
314.408
314.478
314.544
314.603
314.65
314.684
314.701
314.701
314.684
314.65
314.603
314.544
314.478
314.408
314.336
314.268
314.216
310.194
310.231
310.279
310.331
310.381
310.428
310.47
310.504
310.528
310.54
310.54
310.528
310.504
310.47
310.428
310.381
310.331
310.279
310.231
310.194
306.138
306.159
306.188
306.219
306.249
306.278
306.303
306.323
306.338
306.345
306.345
306.338
306.323
306.303
306.278
306.249
306.219
306.188
306.159
306.138
302.06
302.067
302.077
302.087
302.097
302.107
302.115
302.122
302.127
302.129
302.129
302.127
302.122
302.115
302.107
302.097
302.087
302.077
302.067
302.06
330.859
330.97
331.106
331.246
331.384
331.512
331.624
331.716
331.78
331.814
331.814
331.78
331.716
331.624
331.512
331.384
331.246
331.106
330.97
330.859
326.965
327.059
327.176
327.297
327.416
327.528
327.625
327.704
327.76
327.789
327.789
327.76
327.704
327.625
327.528
327.416
327.297
327.176
327.059
326.965
322.978
323.055
323.154
323.257
323.358
323.452
323.534
323.601
323.649
323.673
323.673
323.649
323.601
323.534
323.452
323.358
323.257
323.154
323.055
322.978
318.911
318.974
319.054
319.139
319.221
319.298
319.366
319.421
319.459
319.479
319.479
319.459
319.421
319.366
319.298
319.221
319.139
319.054
318.974
318.911
314.78
314.828
314.891
314.956
315.02
315.08
315.133
315.176
315.206
315.221
315.221
315.206
315.176
315.133
315.08
315.02
314.956
314.891
314.828
314.78
310.599
310.633
310.677
310.724
310.77
310.813
310.85
310.881
310.902
310.913
310.913
310.902
310.881
310.85
310.813
310.77
310.724
310.677
310.633
310.599
306.381
306.401
306.428
306.456
306.484
306.509
306.532
306.55
306.563
306.57
306.57
306.563
306.55
306.532
306.509
306.484
306.456
306.428
306.401
306.381
302.141
302.148
302.157
302.167
302.176
302.184
302.192
302.198
302.202
302.205
302.205
302.202
302.198
302.192
302.184
302.176
302.167
302.157
302.148
302.141
332.129
332.231
332.355
332.484
332.608
332.724
332.826
332.907
332.965
332.995
332.995
332.965
332.907
332.826
332.724
332.608
332.484
332.355
332.231
332.129
328.074
328.16
328.267
328.379
328.487
328.587
328.675
328.746
328.796
328.822
328.822
328.796
328.746
328.675
328.587
328.487
328.379
328.267
328.16
328.074
323.922
323.994
324.084
324.178
324.27
324.355
324.429
324.489
324.532
324.553
324.553
324.532
324.489
324.429
324.355
324.27
324.178
324.084
323.994
323.922
319.688
319.746
319.82
319.897
319.972
320.041
320.102
320.151
320.186
320.204
320.204
320.186
320.151
320.102
320.041
319.972
319.897
319.82
319.746
319.688
315.387
315.432
315.489
315.549
315.607
315.661
315.709
315.747
315.774
315.788
315.788
315.774
315.747
315.709
315.661
315.607
315.549
315.489
315.432
315.387
311.034
311.065
311.106
311.149
311.191
311.229
311.263
311.29
311.31
311.32
311.32
311.31
311.29
311.263
311.229
311.191
311.149
311.106
311.065
311.034
306.643
306.662
306.686
306.712
306.737
306.76
306.78
306.797
306.808
306.814
306.814
306.808
306.797
306.78
306.76
306.737
306.712
306.686
306.662
306.643
302.229
302.236
302.244
302.252
302.261
302.269
302.275
302.281
302.285
302.287
302.287
302.285
302.281
302.275
302.269
302.261
302.252
302.244
302.236
302.229
333.483
333.577
333.691
333.808
333.921
334.026
334.117
334.19
334.242
334.268
334.268
334.242
334.19
334.117
334.026
333.921
333.808
333.691
333.577
333.483
329.255
329.335
329.433
329.535
329.633
329.724
329.803
329.866
329.911
329.934
329.934
329.911
329.866
329.803
329.724
329.633
329.535
329.433
329.335
329.255
324.928
324.994
325.077
325.163
325.246
325.322
325.389
325.443
325.481
325.5
325.5
325.481
325.443
325.389
325.322
325.246
325.163
325.077
324.994
324.928
320.515
320.568
320.636
320.706
320.774
320.837
320.892
320.936
320.967
320.983
320.983
320.967
320.936
320.892
320.837
320.774
320.706
320.636
320.568
320.515
316.033
316.074
316.126
316.181
316.234
316.283
316.325
316.36
316.384
316.396
316.396
316.384
316.36
316.325
316.283
316.234
316.181
316.126
316.074
316.033
311.497
311.526
311.563
311.602
311.64
311.675
311.705
311.73
311.747
311.756
311.756
311.747
311.73
311.705
311.675
311.64
311.602
311.563
311.526
311.497
306.921
306.939
306.961
306.985
307.007
307.028
307.047
307.061
307.072
307.077
307.077
307.072
307.061
307.047
307.028
307.007
306.985
306.961
306.939
306.921
302.323
302.329
302.336
302.344
302.352
302.359
302.365
302.37
302.373
302.375
302.375
302.373
302.37
302.365
302.359
302.352
302.344
302.336
302.329
302.323
334.906
334.993
335.097
335.204
335.306
335.401
335.482
335.548
335.594
335.617
335.617
335.594
335.548
335.482
335.401
335.306
335.204
335.097
334.993
334.906
330.495
330.568
330.658
330.751
330.84
330.921
330.992
331.049
331.089
331.109
331.109
331.089
331.049
330.992
330.921
330.84
330.751
330.658
330.568
330.495
325.981
326.042
326.117
326.196
326.271
326.34
326.4
326.449
326.482
326.5
326.5
326.482
326.449
326.4
326.34
326.271
326.196
326.117
326.042
325.981
321.38
321.429
321.491
321.555
321.616
321.673
321.722
321.762
321.789
321.803
321.803
321.789
321.762
321.722
321.673
321.616
321.555
321.491
321.429
321.38
316.707
316.745
316.793
316.843
316.891
316.935
316.973
317.004
317.025
317.036
317.036
317.025
317.004
316.973
316.935
316.891
316.843
316.793
316.745
316.707
311.979
312.006
312.04
312.076
312.11
312.142
312.169
312.191
312.206
312.214
312.214
312.206
312.191
312.169
312.142
312.11
312.076
312.04
312.006
311.979
307.212
307.227
307.248
307.269
307.29
307.309
307.325
307.339
307.348
307.353
307.353
307.348
307.339
307.325
307.309
307.29
307.269
307.248
307.227
307.212
302.42
302.425
302.432
302.439
302.446
302.453
302.458
302.463
302.466
302.467
302.467
302.466
302.463
302.458
302.453
302.446
302.439
302.432
302.425
302.42
336.358
336.438
336.533
336.63
336.724
336.809
336.883
336.941
336.982
337.003
337.003
336.982
336.941
336.883
336.809
336.724
336.63
336.533
336.438
336.358
331.753
331.821
331.903
331.988
332.068
332.142
332.206
332.257
332.293
332.311
332.311
332.293
332.257
332.206
332.142
332.068
331.988
331.903
331.821
331.753
327.045
327.101
327.171
327.242
327.311
327.374
327.428
327.471
327.501
327.517
327.517
327.501
327.471
327.428
327.374
327.311
327.242
327.171
327.101
327.045
322.25
322.295
322.352
322.411
322.467
322.518
322.563
322.598
322.623
322.635
322.635
322.623
322.598
322.563
322.518
322.467
322.411
322.352
322.295
322.25
317.384
317.419
317.463
317.508
317.552
317.592
317.627
317.654
317.674
317.684
317.684
317.674
317.654
317.627
317.592
317.552
317.508
317.463
317.419
317.384
312.463
312.487
312.519
312.551
312.583
312.611
312.636
312.656
312.669
312.677
312.677
312.669
312.656
312.636
312.611
312.583
312.551
312.519
312.487
312.463
307.502
307.517
307.536
307.555
307.574
307.591
307.606
307.618
307.626
307.63
307.63
307.626
307.618
307.606
307.591
307.574
307.555
307.536
307.517
307.502
302.517
302.522
302.529
302.535
302.541
302.547
302.552
302.556
302.559
302.56
302.56
302.559
302.556
302.552
302.547
302.541
302.535
302.529
302.522
302.517
337.741
337.814
337.903
337.992
338.077
338.155
338.222
338.275
338.312
338.331
338.331
338.312
338.275
338.222
338.155
338.077
337.992
337.903
337.814
337.741
332.937
333
333.076
333.153
333.228
333.295
333.353
333.399
333.432
333.448
333.448
333.432
333.399
333.353
333.295
333.228
333.153
333.076
333
332.937
328.036
328.088
328.152
328.218
328.281
328.338
328.388
328.427
328.454
328.468
328.468
328.454
328.427
328.388
328.338
328.281
328.218
328.152
328.088
328.036
323.054
323.095
323.148
323.202
323.253
323.3
323.341
323.373
323.395
323.407
323.407
323.395
323.373
323.341
323.3
323.253
323.202
323.148
323.095
323.054
318.004
318.036
318.077
318.119
318.159
318.196
318.228
318.253
318.27
318.279
318.279
318.27
318.253
318.228
318.196
318.159
318.119
318.077
318.036
318.004
312.903
312.926
312.955
312.985
313.014
313.04
313.063
313.081
313.093
313.1
313.1
313.093
313.081
313.063
313.04
313.014
312.985
312.955
312.926
312.903
307.766
307.779
307.797
307.815
307.832
307.848
307.861
307.872
307.88
307.883
307.883
307.88
307.872
307.861
307.848
307.832
307.815
307.797
307.779
307.766
302.606
302.61
302.616
302.622
302.628
302.633
302.638
302.641
302.644
302.645
302.645
302.644
302.641
302.638
302.633
302.628
302.622
302.616
302.61
302.606
338.809
338.879
338.962
339.045
339.125
339.198
339.26
339.309
339.344
339.361
339.361
339.344
339.309
339.26
339.198
339.125
339.045
338.962
338.879
338.809
333.818
333.877
333.949
334.022
334.091
334.155
334.209
334.252
334.282
334.297
334.297
334.282
334.252
334.209
334.155
334.091
334.022
333.949
333.877
333.818
328.751
328.8
328.861
328.923
328.982
329.036
329.082
329.119
329.145
329.158
329.158
329.145
329.119
329.082
329.036
328.982
328.923
328.861
328.8
328.751
323.619
323.659
323.709
323.76
323.808
323.852
323.89
323.921
323.942
323.952
323.952
323.942
323.921
323.89
323.852
323.808
323.76
323.709
323.659
323.619
318.433
318.463
318.502
318.542
318.58
318.614
318.644
318.668
318.684
318.692
318.692
318.684
318.668
318.644
318.614
318.58
318.542
318.502
318.463
318.433
313.204
313.225
313.253
313.282
313.309
313.333
313.355
313.372
313.383
313.389
313.389
313.383
313.372
313.355
313.333
313.309
313.282
313.253
313.225
313.204
307.944
307.957
307.973
307.99
308.007
308.022
308.034
308.045
308.052
308.055
308.055
308.052
308.045
308.034
308.022
308.007
307.99
307.973
307.957
307.944
302.665
302.669
302.675
302.681
302.686
302.691
302.695
302.699
302.701
302.702
302.702
302.701
302.699
302.695
302.691
302.686
302.681
302.675
302.669
302.665
)
;

boundaryField
{
    hotSide
    {
        type            fixedGradient;
        gradient        nonuniform List<scalar> 
400
(
223.49
224.338
226.039
228.594
232.011
236.298
241.462
247.514
254.463
262.32
271.095
280.795
291.43
303.006
315.532
329.011
343.449
358.849
375.215
392.549
226.211
227.038
228.696
231.19
234.528
238.721
243.779
249.717
256.545
264.278
272.926
282.502
293.014
304.473
316.885
330.257
344.594
359.9
376.179
393.431
229.155
229.957
231.565
233.985
237.23
241.313
246.248
252.052
258.741
266.331
274.837
284.272
294.648
305.977
318.265
331.521
345.749
360.954
377.14
394.307
232.275
233.047
234.596
236.932
240.069
244.025
248.819
254.473
261.005
268.436
276.784
286.066
296.294
307.482
319.638
332.771
346.885
361.986
378.076
395.155
235.483
236.221
237.704
239.945
242.962
246.778
251.418
256.906
263.268
270.529
278.709
287.828
297.902
308.944
320.964
333.971
347.971
362.966
378.96
395.953
238.644
239.346
240.759
242.899
245.789
249.458
253.934
259.251
265.438
272.524
280.533
289.489
299.408
310.306
322.193
335.078
348.966
363.861
379.764
396.675
241.579
242.245
243.587
245.627
248.391
251.914
256.232
261.382
267.4
274.318
282.166
290.967
300.742
311.506
323.27
336.043
349.83
364.634
380.456
397.295
244.069
244.703
245.982
247.932
250.584
253.977
258.154
263.157
269.027
275.8
283.508
292.177
301.829
312.479
324.141
336.82
350.523
365.252
381.006
397.786
245.892
246.501
247.732
249.612
252.178
255.474
259.544
264.437
270.196
276.861
284.465
293.037
302.599
313.167
324.753
337.366
351.008
365.683
381.39
398.127
246.858
247.453
248.658
250.501
253.02
256.262
260.276
265.109
270.809
277.415
284.965
293.485
302.999
313.523
325.07
337.647
351.258
365.905
381.587
398.302
246.858
247.453
248.658
250.501
253.02
256.262
260.276
265.109
270.809
277.415
284.965
293.485
302.999
313.523
325.07
337.647
351.258
365.905
381.587
398.302
245.892
246.501
247.732
249.612
252.178
255.474
259.544
264.437
270.196
276.861
284.465
293.037
302.599
313.167
324.753
337.366
351.008
365.683
381.39
398.127
244.069
244.703
245.982
247.932
250.584
253.977
258.154
263.157
269.027
275.8
283.508
292.177
301.829
312.479
324.141
336.82
350.523
365.252
381.006
397.786
241.579
242.245
243.587
245.627
248.391
251.914
256.232
261.382
267.4
274.318
282.166
290.967
300.742
311.506
323.27
336.043
349.83
364.634
380.456
397.295
238.644
239.346
240.759
242.899
245.789
249.458
253.934
259.251
265.438
272.524
280.533
289.489
299.408
310.306
322.193
335.078
348.966
363.861
379.764
396.675
235.483
236.221
237.704
239.945
242.962
246.778
251.418
256.906
263.268
270.529
278.709
287.828
297.902
308.944
320.964
333.971
347.971
362.966
378.96
395.953
232.275
233.047
234.596
236.932
240.069
244.025
248.819
254.473
261.005
268.436
276.784
286.066
296.294
307.482
319.638
332.771
346.885
361.986
378.076
395.155
229.155
229.957
231.565
233.985
237.23
241.313
246.248
252.052
258.741
266.331
274.837
284.272
294.648
305.977
318.265
331.521
345.749
360.954
377.14
394.307
226.211
227.038
228.696
231.19
234.528
238.721
243.779
249.717
256.545
264.278
272.926
282.502
293.014
304.473
316.885
330.257
344.594
359.9
376.179
393.431
223.49
224.338
226.039
228.594
232.011
236.298
241.462
247.514
254.463
262.32
271.095
280.795
291.43
303.006
315.532
329.011
343.449
358.849
375.215
392.549
)
;
    }
    coldSide
    {
        type            mixed;
        refValue        uniform 300;
        refGradient     uniform 0;
        valueFraction   uniform 0.991591;
        source          uniform 0;
        value           nonuniform List<scalar> 
400
(
300.013
300.013
300.013
300.014
300.014
300.014
300.014
300.015
300.015
300.016
300.016
300.017
300.017
300.018
300.019
300.02
300.02
300.021
300.022
300.022
300.013
300.013
300.014
300.014
300.014
300.014
300.014
300.015
300.015
300.016
300.016
300.017
300.017
300.018
300.019
300.02
300.02