/*--------------------------------*- C++ -*----------------------------------*\
| =========                 |                                                 |
| \\      /  F ield         | OpenFOAM: The Open Source CFD Toolbox           |
|  \\    /   O peration     | Version:  2212                                  |
|   \\  /    A nd           | Website:  www.openfoam.com                      |
|    \\/     M anipulation  |                                                 |
\*---------------------------------------------------------------------------*/
FoamFile
{
    version     2.0;
    format      ascii;
    arch        "LSB;label=32;scalar=64";
    class       volScalarField;
    location    "0";
    object      T;
}
// * * * * * * * * * * * * * * * * * * * * * * * * * * * * * * * * * * * * * //

dimensions      [0 0 0 1 0 0 0];

internalField   nonuniform List<scalar> 
3200
(
348.187
349.412
350.293
351.251
351.953
352.821
353.673
354.255
354.738
354.995
355.192
354.914
354.613
353.886
353.415
352.389
351.513
350.312
349.389
348.068
341.698
342.692
343.415
344.26
344.857
345.648
346.436
346.911
347.341
347.575
347.789
347.544
347.215
346.61
346.221
345.345
344.543
343.586
342.738
341.623
335.196
336.1
336.57
337.364
337.89
338.497
339.264
339.628
340.013
340.204
340.407
340.211
339.819
339.381
339.055
338.345
337.649
336.853
336.126
335.189
328.73
329.503
329.831
330.474
330.949
331.424
332.088
332.399
332.748
332.836
333.019
332.877
332.503
332.186
331.884
331.366
330.805
330.158
329.546
328.777
322.323
322.936
323.148
323.664
324.023
324.375
324.917
325.157
325.496
325.493
325.631
325.566
325.24
325.014
324.809
324.376
323.939
323.464
322.95
322.352
315.934
316.372
316.518
316.91
317.152
317.365
317.816
317.979
318.236
318.2
318.287
318.24
318.016
317.849
317.717
317.447
317.096
316.729
316.43
315.94
309.567
309.875
309.957
310.171
310.296
310.381
310.703
310.761
310.949
310.936
310.958
310.942
310.782
310.692
310.667
310.484
310.284
310.032
309.866
309.602
303.184
303.314
303.338
303.404
303.45
303.483
303.602
303.588
303.672
303.659
303.676
303.668
303.617
303.58
303.59
303.516
303.461
303.356
303.306
303.212
349.128
350.309
351.28
352.175
353.11
354.043
354.898
355.486
355.877
356.24
356.115
355.894
355.541
355.24
354.486
353.849
352.571
351.438
350.329
349.225
342.463
343.406
344.271
345.058
345.819
346.682
347.424
347.903
348.284
348.621
348.48
348.297
347.97
347.767
347.121
346.58
345.458
344.423
343.58
342.58
335.872
336.623
337.357
338.03
338.665
339.371
340.002
340.37
340.766
341.062
340.959
340.786
340.493
340.328
339.812
339.283
338.399
337.474
336.802
336.001
329.302
329.933
330.49
331.066
331.554
332.121
332.683
332.939
333.294
333.558
333.45
333.38
333.083
332.947
332.545
332.077
331.358
330.629
330.128
329.438
322.734
323.282
323.65
324.152
324.46
324.927
325.426
325.621
325.871
326.077
325.983
325.988
325.683
325.625
325.318
324.9
324.367
323.823
323.438
322.887
316.211
316.627
316.876
317.267
317.456
317.762
318.199
318.324
318.46
318.606
318.544
318.535
318.361
318.324
318.116
317.744
317.391
317.028
316.731
316.361
309.745
309.962
310.16
310.395
310.447
310.682
310.927
311.027
311.094
311.139
311.154
311.101
311.009
310.988
310.862
310.607
310.431
310.251
310.031
309.825
303.268
303.335
303.403
303.488
303.503
303.598
303.662
303.708
303.713
303.732
303.744
303.711
303.69
303.673
303.649
303.545
303.507
303.444
303.359
303.299
350.526
351.449
352.655
353.869
354.642
355.54
356.339
357.101
357.475
357.58
357.686
357.596
357.121
356.641
356.061
355.454
353.802
353.006
351.723
350.765
343.63
344.392
345.454
346.502
347.152
347.95
348.636
349.277
349.622
349.718
349.843
349.762
349.337
348.931
348.475
347.906
346.508
345.778
344.717
343.953
336.799
337.461
338.312
339.24
339.813
340.456
341.048
341.524
341.852
341.965
342.048
342.011
341.636
341.29
340.941
340.416
339.262
338.66
337.728
337.141
329.989
330.598
331.225
332.003
332.528
333.035
333.496
333.858
334.108
334.243
334.335
334.3
334.022
333.731
333.461
333.016
332.024
331.571
330.846
330.345
323.272
323.752
324.241
324.845
325.263
325.644
325.998
326.268
326.456
326.641
326.652
326.668
326.478
326.186
325.999
325.634
324.825
324.509
323.987
323.619
316.591
316.972
317.331
317.734
318.031
318.32
318.561
318.723
318.85
319.05
319.016
319.034
318.914
318.669
318.556
318.272
317.74
317.477
317.139
316.851
309.952
310.176
310.422
310.673
310.812
311.02
311.116
311.226
311.324
311.441
311.435
311.418
311.367
311.182
311.096
310.972
310.64
310.465
310.282
310.075
303.333
303.408
303.485
303.578
303.631
303.705
303.71
303.761
303.809
303.837
303.831
303.812
303.821
303.752
303.701
303.695
303.559
303.488
303.429
303.378
351.608
352.944
354.368
355.614
356.419
357.229
357.958
358.442
358.994
359.358
359.452
359.166
358.898
358.288
357.552
356.675
355.767
354.619
353.201
352.061
344.59
345.676
346.926
348.013
348.684
349.394
350.015
350.44
350.912
351.203
351.354
351.133
350.909
350.361
349.743
348.988
348.155
347.218
345.998
345.019
337.616
338.488
339.557
340.435
341.091
341.71
342.161
342.522
342.941
343.167
343.35
343.192
343.006
342.522
341.974
341.359
340.64
339.828
338.832
338.036
330.659
331.412
332.278
332.941
333.545
334.04
334.369
334.711
335.032
335.228
335.415
335.273
335.123
334.71
334.257
333.784
333.211
332.453
331.748
331.068
323.793
324.38
325.045
325.494
326.057
326.448
326.628
326.963
327.214
327.386
327.483
327.393
327.279
326.934
326.576
326.215
325.773
325.144
324.668
324.156
316.977
317.362
317.871
318.147
318.581
318.901
318.961
319.25
319.431
319.596
319.608
319.545
319.443
319.219
318.94
318.662
318.377
317.887
317.623
317.251
310.19
310.451
310.709
310.88
311.158
311.356
311.386
311.566
311.705
311.794
311.77
311.714
311.657
311.508
311.408
311.207
311.02
310.715
310.588
310.393
303.404
303.517
303.592
303.654
303.751
303.806
303.789
303.858
303.916
303.975
303.945
303.921
303.919
303.848
303.856
303.754
303.683
303.603
303.555
303.488
353.36
354.589
355.864
356.911
358.125
358.926
359.46
360.269
360.685
360.965
360.965
360.657
360.645
359.993
359.29
358.217
357.398
355.875
354.473
353.268
346.05
347.117
348.236
349.095
350.141
350.859
351.27
352.017
352.369
352.616
352.656
352.401
352.426
351.801
351.196
350.324
349.579
348.269
347.075
346.024
338.82
339.772
340.699
341.426
342.248
342.961
343.229
343.89
344.153
344.39
344.425
344.244
344.246
343.656
343.195
342.503
341.845
340.754
339.736
338.896
331.674
332.54
333.203
333.808
334.473
335.096
335.288
335.805
336.002
336.233
336.289
336.106
336.116
335.643
335.228
334.683
334.186
333.299
332.458
331.808
324.61
325.281
325.746
326.232
326.735
327.272
327.406
327.8
327.91
328.175
328.2
328.021
328.029
327.721
327.319
326.913
326.547
325.854
325.215
324.744
317.588
318.008
318.298
318.695
319.019
319.425
319.589
319.853
319.884
320.124
320.151
320.005
320.023
319.838
319.46
319.185
318.927
318.407
317.98
317.642
310.553
310.79
310.962
311.225
311.393
311.65
311.769
311.895
311.932
312.076
312.123
311.994
312.023
311.94
311.685
311.501
311.347
311.02
310.835
310.572
303.533
303.61
303.671
303.762
303.822
303.927
303.951
303.973
304.007
304.053
304.054
304.023
304.033
304.009
303.912
303.848
303.813
303.692
303.624
303.532
354.622
355.715
357.261
358.181
359.463
360.028
361.093
361.797
362.017
362.267
362.37
362.131
362.045
361.281
360.521
359.806
358.824
357.455
356.011
355.002
347.166
348.05
349.391
350.206
351.334
351.808
352.758
353.362
353.535
353.703
353.842
353.635
353.58
352.932
352.238
351.666
350.825
349.669
348.393
347.565
339.783
340.49
341.683
342.339
343.266
343.693
344.533
344.991
345.156
345.297
345.449
345.275
345.187
344.638
344.062
343.584
342.89
341.97
340.796
340.187
332.445
333.037
334.041
334.561
335.301
335.666
336.408
336.72
336.826
336.968
337.107
336.982
336.868
336.452
335.926
335.553
334.987
334.306
333.317
332.881
325.198
325.61
326.423
326.825
327.416
327.728
328.251
328.508
328.561
328.72
328.812
328.742
328.624
328.304
327.888
327.596
327.18
326.641
325.844
325.573
317.987
318.227
318.802
319.151
319.572
319.834
320.13
320.356
320.328
320.5
320.596
320.553
320.419
320.2
319.915
319.688
319.442
319.045
318.398
318.275
310.809
310.916
311.228
311.503
311.73
311.904
312.076
312.179
312.197
312.324
312.372
312.332
312.251
312.123
311.96
311.782
311.686
311.45
311.048
310.966
303.628
303.662
303.758
303.867
303.938
303.996
304.039
304.074
304.092
304.134
304.138
304.12
304.123
304.058
304.022
303.947
303.928
303.841
303.709
303.667
355.888
357.041
358.621
359.783
360.877
361.688
362.635
363.179
363.51
363.827
363.818
363.6
363.311
362.779
361.989
361.141
360.229
358.847
357.376
356.155
348.278
349.186
350.583
351.602
352.522
353.246
354.021
354.519
354.818
355.101
355.124
354.933
354.683
354.24
353.504
352.867
352.088
350.878
349.602
348.593
340.742
341.4
342.619
343.543
344.269
344.901
345.542
345.982
346.217
346.445
346.52
346.367
346.159
345.809
345.136
344.632
343.996
342.942
341.872
341.072
333.248
333.787
334.779
335.581
336.095
336.645
337.151
337.526
337.681
337.878
337.974
337.877
337.701
337.34
336.834
336.457
335.922
335.089
334.179
333.61
325.786
326.219
326.958
327.622
327.991
328.472
328.827
329.139
329.203
329.396
329.475
329.435
329.254
328.952
328.608
328.318
327.894
327.26
326.514
326.161
318.362
318.663
319.22
319.697
319.917
320.363
320.574
320.833
320.82
320.959
321.016
321.038
320.821
320.632
320.417
320.224
319.852
319.457
318.875
318.665
310.999
311.174
311.529
311.813
311.937
312.282
312.341
312.513
312.481
312.578
312.602
312.647
312.48
312.362
312.255
312.136
311.93
311.673
311.291
311.2
303.665
303.737
303.888
303.957
304.012
304.126
304.114
304.214
304.176
304.226
304.23
304.26
304.171
304.132
304.126
304.068
303.986
303.91
303.768
303.751
357.192
358.449
359.836
361.101
362.401
363.22
364.099
364.633
365.133
365.311
365.162
365.129
364.718
364.174
363.298
362.433
361.559
360.192
358.733
357.35
349.361
350.382
351.62
352.731
353.867
354.562
355.333
355.791
356.195
356.388
356.232
356.23
355.93
355.439
354.658
353.932
353.214
352.017
350.789
349.584
341.627
342.414
343.526
344.454
345.444
346.048
346.665
347.055
347.431
347.572
347.402
347.449
347.203
346.745
346.1
345.547
344.893
343.933
342.86
341.895
333.95
334.546
335.527
336.278
337.143
337.59
338.095
338.455
338.734
338.832
338.679
338.753
338.538
338.16
337.637
337.183
336.675
335.868
334.99
334.232
326.339
326.776
327.591
328.163
328.876
329.174
329.576
329.846
330.054
330.152
330.011
330.13
329.958
329.615
329.199
328.9
328.474
327.845
327.158
326.606
318.778
319.076
319.631
320.097
320.593
320.797
321.106
321.32
321.416
321.52
321.41
321.511
321.374
321.108
320.79
320.656
320.34
319.85
319.373
318.976
311.263
311.429
311.749
312.054
312.357
312.471
312.679
312.825
312.803
312.934
312.868
312.935
312.848
312.689
312.451
312.403
312.196
311.911
311.603
311.361
303.742
303.816
303.933
304.041
304.15
304.179
304.261
304.295
304.266
304.345
304.321
304.346
304.309
304.244
304.18
304.144
304.082
303.981
303.901
303.84
358.433
359.771
361.171
362.548
363.681
364.573
365.442
366.052
366.442
366.568
366.589
366.477
366.077
365.378
364.607
363.69
362.662
361.291
359.793
358.635
350.478
351.519
352.791
353.962
354.942
355.717
356.466
357.001
357.325
357.492
357.506
357.416
357.062
356.408
355.807
355.036
354.127
352.972
351.68
350.718
342.663
343.4
344.546
345.455
346.327
346.976
347.578
348.093
348.32
348.524
348.517
348.458
348.153
347.565
347.075
346.486
345.656
344.704
343.622
342.9
334.86
335.401
336.375
337.062
337.786
338.352
338.812
339.282
339.425
339.607
339.601
339.573
339.297
338.777
338.38
337.929
337.304
336.501
335.604
335.066
327.074
327.439
328.239
328.771
329.372
329.782
330.087
330.461
330.596
330.744
330.743
330.741
330.547
330.082
329.768
329.423
328.996
328.286
327.621
327.28
319.289
319.563
320.177
320.523
320.99
321.205
321.458
321.714
321.817
321.968
321.963
321.953
321.818
321.454
321.255
321.013
320.714
320.151
319.712
319.455
311.554
311.736
312.12
312.315
312.58
312.728
312.842
313.039
313.085
313.163
313.178
313.214
313.078
312.872
312.787
312.631
312.445
312.07
311.834
311.668
303.88
303.931
304.081
304.122
304.216
304.275
304.279
304.377
304.384
304.416
304.426
304.435
304.393
304.304
304.284
304.23
304.178
304.029
303.984
303.933
359.499
360.704
362.297
363.638
365.002
366.018
366.574
367.193
367.582
367.888
367.804
367.723
367.298
366.727
365.75
364.85
363.737
362.225
360.787
359.457
351.326
352.402
353.785
354.926
356.071
356.967
357.438
357.982
358.329
358.601
358.548
358.477
358.153
357.633
356.804
356.012
355.045
353.785
352.503
351.434
343.301
344.145
345.342
346.357
347.251
348.033
348.399
348.881
349.221
349.412
349.388
349.307
349.104
348.666
347.909
347.254
346.474
345.427
344.305
343.453
335.343
336.01
337.015
337.868
338.527
339.167
339.499
339.907
340.208
340.308
340.319
340.232
340.08
339.739
339.101
338.599
337.917
337.089
336.174
335.484
327.472
327.936
328.724
329.433
329.904
330.437
330.652
331.007
331.263
331.252
331.269
331.231
331.129
330.873
330.334
330.015
329.443
328.785
328.063
327.545
319.629
319.923
320.503
321.044
321.367
321.743
321.853
322.135
322.323
322.292
322.292
322.287
322.254
322.069
321.634
321.456
320.997
320.522
320.028
319.669
311.789
311.918
312.305
312.63
312.829
313.056
313.106
313.3
313.387
313.371
313.362
313.387
313.331
313.274
313.009
312.863
312.584
312.305
312.008
311.806
303.965
303.981
304.146
304.244
304.307
304.375
304.416
304.464
304.478
304.464
304.471
304.494
304.457
304.462
304.368
304.308
304.218
304.12
304.028
303.976
360.23
361.673
363.341
364.697
365.901
367.072
367.819
368.458
368.815
369.029
369.037
368.859
368.624
367.961
366.979
365.833
364.752
363.212
361.886
360.619
351.999
353.221
354.678
355.807
356.809
357.87
358.548
359.105
359.411
359.607
359.599
359.49
359.265
358.725
357.825
356.862
355.917
354.634
353.49
352.424
343.856
344.873
346.136
347.054
347.864
348.789
349.35
349.843
350.133
350.296
350.253
350.184
349.963
349.593
348.767
348.01
347.183
346.1
345.207
344.259
335.792
336.632
337.621
338.378
339.007
339.808
340.246
340.662
340.955
341.063
341.037
340.974
340.769
340.51
339.773
339.246
338.519
337.614
336.939
336.186
327.788
328.439
329.187
329.839
330.255
330.945
331.207
331.559
331.801
331.888
331.885
331.811
331.642
331.495
330.859
330.501
329.912
329.194
328.714
328.146
319.847
320.286
320.836
321.282
321.581
322.11
322.254
322.526
322.7
322.745
322.764
322.677
322.603
322.46
322.018
321.786
321.354
320.85
320.516
320.099
311.953
312.191
312.5
312.747
312.956
313.296
313.382
313.516
313.593
313.686
313.666
313.591
313.585
313.442
313.208
313.041
312.82
312.489
312.361
312.074
303.995
304.109
304.153
304.267
304.352
304.466
304.498
304.534
304.557
304.597
304.583
304.546
304.554
304.5
304.426
304.351
304.293
304.168
304.154
304.061
361.244
362.732
364.221
365.467
366.906
367.851
368.715
369.484
369.838
370.301
370.067
369.829
369.635
369.012
367.984
367
365.63
364.498
362.848
361.502
352.846
354.134
355.381
356.487
357.698
358.519
359.295
359.93
360.284
360.661
360.489
360.274
360.139
359.661
358.732
357.869
356.684
355.784
354.298
353.227
344.528
345.61
346.691
347.628
348.608
349.319
350.025
350.573
350.842
351.113
351.025
350.83
350.731
350.39
349.592
348.855
347.848
347.107
345.851
344.976
336.344
337.19
338.117
338.8
339.623
340.233
340.818
341.276
341.503
341.723
341.706
341.498
341.404
341.169
340.527
339.92
339.049
338.475
337.461
336.755
328.248
328.864
329.59
330.074
330.694
331.22
331.626
332.043
332.223
332.412
332.418
332.244
332.139
331.974
331.492
330.993
330.298
329.893
329.088
328.502
320.171
320.587
321.104
321.47
321.813
322.244
322.548
322.856
322.981
323.142
323.157
323.005
322.914
322.821
322.517
322.136
321.656
321.323
320.786
320.308
312.116
312.371
312.654
312.861
313.08
313.337
313.507
313.729
313.796
313.902
313.915
313.809
313.732
313.715
313.551
313.277
313.011
312.831
312.507
312.194
304.059
304.151
304.242
304.301
304.387
304.457
304.521
304.602
304.631
304.652
304.675
304.628
304.589
304.607
304.534
304.457
304.365
304.32
304.192
304.09
362.099
363.506
364.937
366.45
367.737
368.596
369.838
370.461
370.898
371.137
371.084
370.938
370.667
369.836
368.786
367.991
366.581
365.164
363.713
362.507
353.613
354.805
355.989
357.335
358.435
359.184
360.254
360.819
361.209
361.44
361.356
361.252
361.061
360.349
359.425
358.74
357.522
356.353
355.076
354.069
345.231
346.164
347.155
348.313
349.233
349.851
350.796
351.266
351.635
351.852
351.737
351.681
351.51
350.956
350.172
349.591
348.558
347.576
346.487
345.619
336.921
337.64
338.446
339.384
340.173
340.685
341.431
341.801
342.158
342.332
342.228
342.191
342.077
341.556
340.961
340.506
339.617
338.794
337.991
337.236
328.645
329.197
329.853
330.525
331.147
331.615
332.139
332.466
332.77
332.89
332.792
332.779
332.704
332.282
331.804
331.44
330.761
330.088
329.498
328.904
320.456
320.842
321.322
321.79
322.178
322.601
322.915
323.169
323.409
323.485
323.434
323.417
323.37
323.073
322.704
322.441
321.953
321.493
321.043
320.607
312.285
312.533
312.776
313.088
313.29
313.582
313.75
313.89
314.028
314.055
314.1
314.043
314.03
313.878
313.599
313.454
313.129
312.89
312.613
312.38
304.127
304.221
304.298
304.396
304.459
304.565
304.612
304.647
304.709
304.69
304.736
304.725
304.716
304.647
304.56
304.503
304.41
304.309
304.219
304.139
362.688
364.16
365.7
367.259
368.559
369.698
370.479
371.371
371.845
372.015
371.768
371.541
371.421
370.435
369.631
368.737
367.353
365.743
364.31
363.075
354.091
355.315
356.631
358.027
359.155
360.162
360.835
361.604
362.001
362.185
361.968
361.76
361.66
360.869
360.132
359.407
358.179
356.829
355.621
354.592
345.61
346.594
347.748
348.924
349.866
350.77
351.313
351.934
352.308
352.451
352.268
352.082
352.005
351.39
350.752
350.14
349.087
347.991
346.954
346.142
337.213
337.942
338.953
339.888
340.722
341.443
341.87
342.349
342.695
342.757
342.629
342.531
342.452
341.951
341.427
340.942
340.048
339.219
338.404
337.711
328.938
329.399
330.244
330.952
331.623
332.208
332.535
332.881
333.17
333.19
333.062
333.028
332.945
332.558
332.199
331.796
331.076
330.53
329.857
329.288
320.698
320.973
321.608
322.075
322.575
323.012
323.219
323.446
323.69
323.647
323.586
323.554
323.468
323.223
323.011
322.698
322.178
321.779
321.276
320.886
312.464
312.621
312.963
313.234
313.556
313.83
313.945
314.061
314.222
314.186
314.166
314.149
314.094
313.947
313.817
313.602
313.319
313.073
312.76
312.514
304.177
304.231
304.346
304.435
304.53
304.636
304.69
304.713
304.761
304.757
304.713
304.747
304.706
304.658
304.623
304.551
304.464
304.384
304.265
304.164
363.432
364.79
366.427
367.783
369.172
370.479
371.27
371.89
372.386
372.439
372.37
372.375
371.768
371.254
370.234
369.196
367.931
366.449
364.89
363.676
354.805
355.884
357.297
358.443
359.693
360.823
361.559
362.068
362.465
362.549
362.485
362.496
361.946
361.554
360.704
359.729
358.682
357.409
356.079
355.072
346.249
347.123
348.291
349.239
350.281
351.299
351.931
352.386
352.641
352.81
352.737
352.731
352.252
351.891
351.259
350.414
349.57
348.526
347.3
346.535
337.743
338.451
339.387
340.207
341.034
341.88
342.377
342.76
342.964
343.127
343.026
343.054
342.642
342.306
341.864
341.214
340.511
339.676
338.625
338.092
329.317
329.839
330.594
331.226
331.873
332.539
332.917
333.178
333.348
333.533
333.38
333.424
333.113
332.837
332.521
332.059
331.509
330.877
330.001
329.651
320.947
321.292
321.835
322.273
322.768
323.218
323.52
323.687
323.815
323.926
323.789
323.852
323.637
323.403
323.177
322.935
322.489
322.064
321.417
321.206
312.548
312.76
313.098
313.377
313.652
313.911
314.12
314.19
314.295
314.338
314.298
314.307
314.211
314.01
313.923
313.784
313.519
313.242
312.852
312.75
304.209
304.276
304.38
304.493
304.574
304.668
304.75
304.73
304.792
304.793
304.799
304.793
304.769
304.689
304.663
304.594
304.538
304.424
304.308
304.268
364.018
365.453
366.967
368.331
369.844
370.967
371.763
372.322
372.811
373.141
372.74
373.002
372.17
371.55
370.862
369.853
368.525
366.929
365.307
363.914
355.294
356.505
357.803
358.954
360.302
361.255
361.947
362.407
362.842
363.142
362.77
363.062
362.289
361.78
361.197
360.362
359.204
357.83
356.438
355.267
346.625
347.707
348.755
349.717
350.862
351.65
352.26
352.615
352.994
353.255
352.974
353.182
352.554
352.118
351.634
350.929
349.999
348.836
347.664
346.676
337.998
338.973
339.79
340.608
341.492
342.149
342.645
342.912
343.234
343.439
343.249
343.388
342.892
342.529
342.13
341.546
340.783
339.892
338.89
338.176
329.433
330.322
330.904
331.542
332.216
332.71
333.111
333.332
333.57
333.706
333.573
333.701
333.282
333.019
332.674
332.242
331.7
330.969
330.193
329.678
321.013
321.668
322.038
322.51
323.018
323.398
323.649
323.787
323.953
324.026
323.924
324.073
323.782
323.547
323.268
323.002
322.608
322.118
321.555
321.179
312.612
313.024
313.22
313.544
313.824
314.063
314.18
314.257
314.358
314.36
314.355
314.471
314.273
314.12
313.913
313.805
313.568
313.278
312.92
312.706
304.225
304.378
304.427
304.558
304.623
304.702
304.746
304.776
304.782
304.804
304.802
304.844
304.804
304.734
304.636
304.635
304.55
304.477
304.309
304.26
364.546
365.848
367.335
368.72
370.271
371.291
372.167
372.659
373.096
373.535
373.385
373.422
372.762
372.184
371.273
370.179
368.938
367.375
365.887
364.433
355.687
356.817
358.109
359.255
360.639
361.565
362.341
362.681
363.121
363.502
363.342
363.38
362.816
362.313
361.543
360.624
359.579
358.299
356.924
355.721
346.918
347.942
348.993
349.947
351.125
351.912
352.599
352.876
353.255
353.601
353.465
353.42
352.933
352.559
351.936
351.154
350.299
349.29
348.009
347.118
338.231
339.113
339.981
340.699
341.706
342.356
342.926
343.175
343.481
343.747
343.649
343.586
343.117
342.886
342.41
341.76
341.064
340.271
339.227
338.524
329.682
330.377
331.054
331.562
332.387
332.912
333.363
333.535
333.771
333.962
333.898
333.819
333.436
333.274
332.938
332.448
331.872
331.264
330.456
329.931
321.191
321.67
322.12
322.546
323.117
323.509
323.806
323.931
324.076
324.225
324.183
324.163
323.842
323.74
323.503
323.215
322.74
322.316
321.758
321.318
312.715
313.034
313.283
313.543
313.894
314.139
314.265
314.368
314.44
314.516
314.514
314.499
314.304
314.222
314.102
313.938
313.635
313.413
313.063
312.77
304.253
304.371
304.446
304.554
304.648
304.732
304.784
304.817
304.824
304.849
304.854
304.86
304.813
304.768
304.723
304.675
304.567
304.486
304.389
304.265
364.598
365.924
367.618
369.097
370.455
371.382
372.63
373.007
373.33
374.011
373.87
373.676
373.039
372.496
371.565
370.467
369.2
367.817
365.997
364.405
355.777
356.863
358.35
359.599
360.781
361.602
362.671
362.999
363.323
363.9
363.754
363.574
363.081
362.605
361.807
360.882
359.829
358.609
357.042
355.668
347.029
347.905
349.158
350.221
351.259
351.966
352.837
353.102
353.4
353.88
353.708
353.603
353.223
352.832
352.119
351.358
350.452
349.5
348.177
346.984
338.361
339.059
340.068
340.967
341.778
342.423
343.084
343.346
343.557
343.975
343.787
343.724
343.432
343.167
342.536
341.959
341.163
340.426
339.356
338.405
329.811
330.302
331.117
331.822
332.371
332.958
333.441
333.686
333.812
334.107
333.993
333.906
333.709
333.545
333.047
332.63
332.003
331.394
330.571
329.888
321.27
321.59
322.184
322.696
323.053
323.529
323.849
324.082
324.123
324.326
324.273
324.213
324.002
323.948
323.612
323.319
322.849
322.412
321.819
321.321
312.777
312.92
313.312
313.616
313.819
314.126
314.305
314.463
314.52
314.593
314.554
314.539
314.378
314.392
314.153
313.991
313.7
313.444
313.093
312.819
304.287
304.34
304.488
304.577
304.645
304.731
304.79
304.853
304.859
304.903
304.881
304.873
304.814
304.814
304.736
304.695
304.598
304.521
304.384
304.299
364.686
366.171
367.741
369.41
370.588
371.625
372.688
373.29
373.574
373.98
373.96
373.817
373.375
372.599
371.63
370.569
369.406
367.771
366.161
364.674
355.852
357.085
358.435
359.909
360.923
361.835
362.709
363.274
363.526
363.849
363.819
363.71
363.397
362.681
361.889
360.958
360.002
358.543
357.226
355.911
347.119
348.162
349.301
350.541
351.34
352.18
352.859
353.329
353.596
353.833
353.82
353.72
353.503
352.868
352.254
351.44
350.688
349.397
348.328
347.174
338.481
339.262
340.222
341.257
341.909
342.59
343.072
343.533
343.752
343.914
343.925
343.834
343.647
343.089
342.693
342.015
341.412
340.379
339.49
338.548
329.913
330.44
331.225
332.054
332.537
333.016
333.418
333.781
333.973
334.086
334.105
334.071
333.899
333.431
333.191
332.641
332.183
331.405
330.692
329.97
321.356
321.736
322.281
322.869
323.236
323.521
323.847
324.116
324.21
324.304
324.312
324.34
324.191
323.814
323.688
323.29
322.965
322.456
321.958
321.415
312.822
313.072
313.398
313.721
313.951
314.094
314.31
314.484
314.539
314.575
314.59
314.635
314.496
314.265
314.219
313.977
313.791
313.506
313.209
312.859
304.298
304.39
304.512
304.596
304.653
304.725
304.807
304.853
304.877
304.911
304.889
304.887
304.849
304.774
304.769
304.698
304.618
304.54
304.424
304.302
364.953
366.302
367.802
369.313
370.777
371.795
372.73
373.461
373.744
373.992
373.922
373.837
373.713
372.51
371.449
370.665
369.494
367.878
366.408
364.9
356.113
357.213
358.49
359.814
361.096
361.937
362.799
363.431
363.66
363.886
363.801
363.735
363.664
362.619
361.748
361.04
360.067
358.701
357.393
356.172
347.369
348.255
349.341
350.474
351.529
352.157
352.945
353.493
353.69
353.92
353.822
353.763
353.718
352.825
352.086
351.517
350.689
349.547
348.507
347.449
338.726
339.378
340.271
341.218
342.057
342.52
343.177
343.63
343.779
344.022
343.897
343.849
343.855
343.118
342.529
342.064
341.383
340.464
339.693
338.778
330.122
330.558
331.284
332.04
332.64
333.006
333.518
333.893
333.962
334.184
334.045
334.036
334.056
333.464
333.03
332.672
332.094
331.473
330.853
330.086
321.542
321.804
322.328
322.897
323.268
323.56
323.922
324.141
324.208
324.442
324.267
324.277
324.301
323.907
323.56
323.335
322.901
322.506
322.034
321.449
312.955
313.103
313.402
313.759
313.974
314.129
314.388
314.447
314.521
314.688
314.572
314.522
314.622
314.342
314.134
314.048
313.748
313.497
313.223
312.901
304.363
304.409
304.503
304.621
304.691
304.726
304.824
304.845
304.87
304.919
304.89
304.849
304.905
304.792
304.727
304.711
304.615
304.518
304.436
304.325
)
;

boundaryField
{
    hotSide
    {
        type            fixedGradient;
        gradient        nonuniform List<scalar> 
400
(
523.012
540.617
557.794
574.468
590.561
605.997
620.702
634.606
647.638
659.732
670.828
680.867
689.797
697.572
704.149
709.494
713.577
716.377
717.88
718.076
537.653
555.76
573.429
590.58
607.135
623.015
638.145
652.451
665.861
678.308
689.729
700.063
709.258
717.265
724.041
729.55
733.762
736.655
738.213
738.427
550.863
569.423
587.534
605.115
622.085
638.366
653.877
668.545
682.296
695.06
706.773
717.374
726.807
735.022
741.977
747.633
751.961
754.937
756.545
756.777
562.553
581.511
600.011
617.971
635.308
651.94
667.789
682.775
696.826
709.87
721.84
732.674
742.317
750.716
757.828
763.614
768.044
771.092
772.744
772.989
572.642
591.941
610.776
629.061
646.712
663.647
679.783
695.043
709.35
722.633
734.823
745.858
755.68
764.236
771.482
777.379
781.894
785.005
786.693
786.95
581.065
600.647
619.758
638.312
656.222
673.406
689.781
705.266
719.785
733.265
745.636
756.836
766.804
775.49
782.845
788.832
793.418
796.578
798.295
798.56
587.769
607.573
626.9
645.664
663.778
681.156
697.716
713.378
728.062
741.695
754.208
765.535
775.617
784.402
791.842
797.898
802.537
805.734
807.472
807.742
592.713
612.677
632.159
651.073
669.332
686.849
703.542
719.328
734.129
747.871
760.483
771.9
782.062
790.916
798.415
804.518
809.193
812.415
814.165
814.435
595.87
615.929
635.504
654.507
672.852
690.451
707.222
723.081
737.951
751.756
764.425
775.893
786.101
794.994
802.525
808.653
813.346
816.578
818.333
818.599
597.222
617.312
636.917
655.949
674.32
691.945
708.738
724.619
739.507
753.329
766.013
777.494
787.712
796.612
804.149
810.28
814.973
818.203
819.952
820.212
596.766
616.823
636.394
655.393
673.731
691.324
708.086
723.935
738.794
752.587
765.243
776.698
786.891
795.768
803.282
809.394
814.07
817.284
819.02
819.268
594.508
614.468
633.944
652.849
671.095
688.598
705.274
721.041
735.821
749.539
762.126
773.515
783.649
792.472
799.939
806.009
810.649
813.835
815.549
815.781
590.467
610.267
629.586
648.336
666.433
683.791
700.327
715.961
730.614
744.213
756.688
767.975
778.015
786.754
794.147
800.154
804.741
807.885
809.569
809.783
584.672
604.251
623.352
641.89
659.781
676.939
693.283
708.733
723.212
736.648
748.972
760.119
770.032
778.659
785.953
791.875
796.393
799.484
801.13
801.322
577.164
596.462
615.287
633.556
651.185
668.091
684.192
699.411
713.672
726.902
739.035
750.007
759.762
768.247
775.418
781.236
785.669
788.694
790.295
790.462
567.995
586.954
605.448
623.393
640.707
657.309
673.12
688.061
702.06
715.045
726.95
737.713
747.279
755.596
762.621
768.315
772.648
775.597
777.146
777.285
557.227
575.794
593.902
611.471
628.421
644.671
660.144
674.765
688.46
701.161
712.803
723.325
732.673
740.797
747.654
753.207
757.427
760.29
761.78
761.891
544.935
563.057
580.73
597.875
614.412
630.265
645.358
659.616
672.97
685.351
696.696
706.947
716.051
723.958
730.628
736.024
740.117
742.884
744.312
744.391
531.204
548.833
566.024
582.698
598.78
614.193
628.865
642.723
655.699
667.727
678.745
688.698
697.532
705.202
711.666
716.889
720.844
723.509
724.869
724.917
516.129
533.222
549.886
566.048
581.634
596.569
610.783
624.206
636.771
648.416
659.08
668.709
677.252
684.664
690.906
695.944
699.75
702.305
703.594
703.611
)
;
    }
    coldSide
    {
        type            mixed;
        refValue        uniform 300;
        refGradient     uniform 0;
        valueFraction   uniform 0.991591;
        source          uniform 0;
        value           nonuniform List<scalar> 
400
(
300.027
300.027
300.028
300.029
300.03
300.031
300.031
300.031
300.033
300.033
300.034
300.034
300.035
300.035
300.035
300.036
300.036
300.036
300.036
300.037
300.028
300.028
300.029
300.03
300.03
300.031
300.031
300.032
300.033
300.033
300.035
300.035
300.035
300.036
300.036
300.037
300.037
300.036
300.037
300.037