/*--------------------------------*- C++ -*----------------------------------*\
| =========                 |                                                 |
| \\      /  F ield         | OpenFOAM: The Open Source CFD Toolbox           |
|  \\    /   O peration     | Version:  2212                                  |
|   \\  /    A nd           | Website:  www.openfoam.com                      |
|    \\/     M anipulation  |                                                 |
\*---------------------------------------------------------------------------*/
FoamFile
{
    version     2.0;
    format      ascii;
    arch        "LSB;label=32;scalar=64";
    class       volScalarField;
    location    "./ITHACAoutput/true/9.8";
    object      error;
}
// * * * * * * * * * * * * * * * * * * * * * * * * * * * * * * * * * * * * * //

dimensions      [0 0 0 1 0 0 0];

internalField   nonuniform List<scalar> 
3200
(
3.47327
3.21672
3.25224
3.28795
3.42218
3.7421
3.99931
4.20477
4.46465
4.66673
4.70599
4.6361
4.5483
4.33931
4.18548
3.91898
3.86251
3.96204
4.01114
4.15884
2.90281
2.73708
2.75442
2.81105
2.87917
3.11251
3.35045
3.53876
3.84126
3.98583
4.02576
3.96476
3.87309
3.7289
3.46152
3.3579
3.30938
3.37977
3.48506
3.55765
2.39767
2.28674
2.27129
2.24928
2.40678
2.59398
2.73495
2.98327
3.20781
3.30796
3.33435
3.31919
3.19138
3.12634
2.94001
2.90105
2.77253
2.84871
2.89614
3.02626
1.83408
1.81245
1.75903
1.79571
1.86626
2.02848
2.21568
2.41163
2.49218
2.76632
2.69233
2.652
2.5673
2.54932
2.40568
2.35638
2.25041
2.25294
2.37317
2.48301
1.425
1.41167
1.33196
1.40081
1.54219
1.59249
1.80953
1.88195
2.00185
2.08166
2.0463
2.02453
1.9488
1.94638
1.85754
1.79679
1.76385
1.82961
1.90913
1.95639
1.01627
0.996763
0.942856
0.969093
1.03054
1.11692
1.23855
1.27624
1.38423
1.43725
1.43093
1.50989
1.35958
1.36761
1.34842
1.25068
1.25544
1.22169
1.30916
1.3328
0.621155
0.584902
0.574481
0.602564
0.617419
0.633311
0.781079
0.832568
0.823772
0.83092
0.962156
0.861163
0.822011
0.836297
0.744248
0.716404
0.705449
0.709859
0.792603
0.855673
0.160588
0.203989
0.178159
0.136609
0.23308
0.248697
0.251833
0.281583
0.284642
0.23549
0.278805
0.33576
0.246635
0.255476
0.277249
0.273052
0.256271
0.249231
0.268777
0.244709
2.64693
2.51642
2.42351
2.45316
2.63115
2.76506
3.1267
3.32782
3.546
3.57649
3.73803
3.66382
3.5578
3.44907
3.24342
3.05977
3.0365
2.9792
3.18011
3.33209
2.25478
2.07997
2.05291
2.11114
2.0975
2.40482
2.54759
2.83302
3.00379
3.13716
3.20635
3.19059
3.04469
2.9552
2.78679
2.58886
2.58035
2.72784
2.8369
3.00929
1.87154
1.77589
1.68186
1.72595
1.8063
1.94362
2.14349
2.39981
2.54403
2.64037
2.66873
2.7141
2.60658
2.45775
2.33656
2.27519
2.26772
2.23953
2.32602
2.47542
1.48858
1.47707
1.33453
1.39193
1.47653
1.54833
1.82316
1.87004
2.06754
2.12189
2.23965
2.14295
2.09197
2.00996
1.92515
1.84846
1.79895
1.80933
2.02643
2.08115
1.13817
1.0307
1.02238
1.07754
1.15749
1.22745
1.33036
1.46608
1.58871
1.70805
1.70948
1.71415
1.67836
1.5663
1.47527
1.47055
1.45192
1.47385
1.48169
1.64832
0.804826
0.816239
0.743201
0.829539
0.775387
0.830932
0.96173
1.03954
1.11133
1.19918
1.27184
1.22417
1.20464
1.09298
1.1291
1.09867
1.04134
1.03617
1.08684
1.12462
0.543189
0.393321
0.481344
0.412202
0.445605
0.506813
0.608856
0.666036
0.723153
0.699683
0.642885
0.681477
0.715367
0.720107
0.636852
0.590048
0.542578
0.65751
0.631658
0.647213
0.221626
0.185119
0.183873
0.162865
0.207299
0.246896
0.142385
0.215187
0.230962
0.20285
0.236327
0.332908
0.201313
0.214083
0.25953
0.186052
0.18643
0.192106
0.198759
0.226048
1.62006
1.5246
1.39428
1.31468
1.48742
1.68565
1.84059
2.13456
2.29375
2.40755
2.4835
2.45041
2.35874
2.17341
2.01884
1.93092
1.87984
1.92195
2.2221
2.38949
1.42021
1.21697
1.14789
1.14032
1.25821
1.36873
1.62245
1.78016
2.02082
2.14018
2.13643
2.12743
2.05023
1.9158
1.82793
1.78615
1.63821
1.7753
1.99183
2.08999
1.10155
1.06897
0.89917
0.934327
1.02265
1.14719
1.30853
1.49438
1.7517
1.77848
1.81886
1.80024
1.83298
1.62792
1.51619
1.44486
1.53081
1.53628
1.71584
1.86121
0.954661
0.86093
0.761654
0.715894
0.859456
0.957681
1.05538
1.24197
1.43842
1.45983
1.51502
1.47296
1.45257
1.33513
1.30589
1.20607
1.2724
1.30456
1.39423
1.52319
0.654467
0.632082
0.54249
0.565899
0.61316
0.735033
0.855184
0.892644
1.09029
1.11296
1.09937
1.17428
1.07742
1.01959
0.93917
0.999945
0.982799
1.02913
1.05994
1.19337
0.471269
0.447008
0.396413
0.440252
0.431789
0.527237
0.602475
0.643445
0.776469
0.793392
0.873051
0.855697
0.810166
0.715772
0.788423
0.696714
0.697418
0.729806
0.787801
0.851378
0.336145
0.260917
0.326543
0.276102
0.25914
0.281868
0.352786
0.429929
0.454969
0.482487
0.505807
0.545354
0.422985
0.434872
0.476179
0.480248
0.388594
0.463575
0.463184
0.500333
0.103894
0.138634
0.0721906
0.0398689
0.0307436
0.110218
0.149616
0.114001
0.144719
0.195212
0.0879326
0.160016
0.11513
0.165026
0.116594
0.0659558
0.190758
0.14395
0.205148
0.146306
0.737051
0.495531
0.380878
0.374274
0.320623
0.428848
0.662721
0.861574
1.08905
1.18371
1.29167
1.29378
1.13215
1.06043
0.937115
0.762271
0.919499
1.06545
1.1722
1.43083
0.602869
0.473684
0.277079
0.281548
0.256574
0.400566
0.510275
0.806535
0.95762
1.0923
1.01958
1.06613
0.949285
0.895111
0.822883
0.782043
0.849432
0.970229
1.17701
1.33175
0.516617
0.362236
0.229767
0.194054
0.193534
0.261357
0.496925
0.627907
0.711603
0.90993
0.93854
0.887192
0.838667
0.818246
0.791551
0.672268
0.670239
0.844661
0.951059
1.14842
0.410046
0.222222
0.160373
0.126343
0.210259
0.247001
0.348402
0.548272
0.586611
0.66006
0.849537
0.741014
0.683187
0.671263
0.567071
0.575493
0.581507
0.658672
0.803899
0.997898
0.288442
0.120839
0.134097
0.0869075
0.13722
0.301565
0.288604
0.432049
0.504206
0.566861
0.550087
0.50284
0.51676
0.493187
0.456626
0.437257
0.5677
0.529258
0.670925
0.816645
0.20294
0.15864
0.107663
0.0991738
0.0712452
0.0997315
0.268123
0.34173
0.375813
0.393904
0.41801
0.443781
0.388521
0.396391
0.331528
0.385878
0.357724
0.396433
0.50013
0.562992
0.165035
0.089113
0.0767167
0.00765144
0.0923127
0.0582611
0.156144
0.170335
0.245918
0.248438
0.293853
0.256764
0.201514
0.257095
0.216805
0.180738
0.191799
0.331237
0.330705
0.387862
0.0677721
0.0137869
-0.00528474
0.00532006
0.0217611
0.0765998
0.0859251
0.0472857
0.0110515
0.0562924
0.0526548
0.0881413
0.0712008
0.124445
0.0958685
0.0536385
0.0803978
0.142823
0.10418
0.15267
-0.0551504
-0.400125
-0.548638
-0.68348
-0.699366
-0.593306
-0.446483
-0.282095
-0.0902912
-0.0190371
0.0193353
0.0393267
-0.0651356
-0.102168
-0.173959
-0.22703
-0.10155
-0.0150928
0.362424
0.634852
-0.0970244
-0.31837
-0.546522
-0.581175
-0.61249
-0.566886
-0.470786
-0.287822
-0.160134
-0.0154918
0.00541868
-0.0288697
0.0377235
-0.0808049
-0.0730957
-0.127677
0.0347387
0.10881
0.386169
0.695844
-0.13539
-0.297449
-0.420647
-0.509113
-0.611803
-0.481711
-0.32713
-0.199152
-0.126936
0.0191358
0.0653503
0.00436865
0.00530014
-0.102768
-0.0308088
-0.0894239
0.0599989
0.1205
0.3635
0.584877
-0.0517652
-0.203972
-0.410669
-0.398714
-0.426515
-0.389331
-0.32571
-0.186113
-0.0707022
0.0789992
-0.00786174
0.0317966
0.0066075
-0.0475872
-0.0897261
-0.0642959
0.022361
0.129081
0.392481
0.488245
-0.129909
-0.24816
-0.313233
-0.382167
-0.336935
-0.322108
-0.25612
-0.163858
-0.0852201
0.0411179
0.0424077
0.0481639
-0.0108749
-0.0122905
-0.00390539
-0.0103829
0.0645452
0.109317
0.296916
0.418024
-0.0753517
-0.135972
-0.191492
-0.254825
-0.255994
-0.276506
-0.132885
-0.0835901
-0.091392
-0.00442367
0.0887878
0.0741945
0.0064291
0.0173387
-0.00279057
-0.0401506
0.0939749
0.128796
0.184695
0.370454
-0.0553946
-0.0761395
-0.147764
-0.123106
-0.18053
-0.0962405
-0.0540424
0.00557818
0.0442606
-0.10287
0.108891
0.0854591
0.0425315
0.0129287
0.0655139
-0.0245367
0.0445316
0.0696887
0.134052
0.197901
-0.0576948
-0.00203387
-0.0102382
-0.0733901
-0.103913
0.0128707
-0.0989311
0.00126711
-0.00706443
-0.0187375
0.0222433
-0.00212039
-0.024152
0.0441944
0.00246988
0.00748217
-0.0172385
0.0580052
-0.00768129
0.0649617
-0.832948
-1.11756
-1.39253
-1.58113
-1.53601
-1.54857
-1.48263
-1.2853
-1.19613
-1.12964
-0.994593
-1.09397
-1.06306
-1.08148
-1.11184
-1.05129
-0.972737
-0.739893
-0.407337
-0.0275752
-0.665597
-0.981389
-1.22934
-1.28456
-1.34759
-1.35459
-1.29628
-1.1492
-1.02561
-0.912601
-0.860789
-0.904423
-0.91847
-0.891177
-0.929586
-0.919913
-0.803783
-0.594506
-0.331198
0.0213331
-0.679578
-0.799185
-1.00301
-1.12261
-1.15729
-1.12777
-1.12026
-0.914425
-0.905973
-0.689813
-0.70014
-0.740923
-0.673445
-0.793679
-0.704443
-0.727761
-0.590774
-0.415427
-0.146935
0.0216035
-0.531799
-0.704656
-0.838894
-0.89811
-0.891625
-0.966405
-0.862564
-0.767694
-0.736913
-0.695143
-0.531773
-0.607178
-0.546529
-0.587935
-0.589729
-0.516891
-0.476823
-0.333371
-0.0950524
0.0625628
-0.375858
-0.537826
-0.689597
-0.72157
-0.772345
-0.702474
-0.676968
-0.603978
-0.531616
-0.456106
-0.503693
-0.38624
-0.49327
-0.408041
-0.427711
-0.367462
-0.400756
-0.215634
-0.0316111
0.0685756
-0.273924
-0.426776
-0.566222
-0.458624
-0.527752
-0.527372
-0.470316
-0.510769
-0.437052
-0.381791
-0.343197
-0.297911
-0.290778
-0.322642
-0.351209
-0.253966
-0.187231
-0.192734
-0.0259523
0.0219766
-0.149014
-0.178341
-0.335638
-0.353261
-0.373387
-0.317551
-0.250388
-0.255079
-0.252267
-0.259857
-0.142388
-0.164646
-0.209791
-0.24698
-0.200014
-0.191578
-0.0813293
-0.122325
0.0179481
0.0576845
-0.0336136
-0.0172192
-0.0738085
-0.198964
-0.0876239
-0.0348358
-0.0563384
-0.085989
-0.0576387
-0.0811951
-0.0478742
-0.0934252
-0.0411755
-0.0446374
-0.0274515
-0.0875413
-0.0177095
-0.0446828
-0.00289739
-0.0188412
-1.23406
-1.57608
-1.9063
-2.20998
-2.27062
-2.27352
-2.22515
-2.24105
-2.10455
-2.04644
-1.98137
-1.96521
-2.01607
-2.01611
-1.88134
-1.85697
-1.65662
-1.34796
-0.917766
-0.537714
-1.15598
-1.48499
-1.74344
-1.94743
-1.98127
-2.04569
-2.02689
-1.95096
-1.83907
-1.76702
-1.67936
-1.69162
-1.71919
-1.63181
-1.61516
-1.54118
-1.33126
-1.03913
-0.793841
-0.42352
-0.96528
-1.2067
-1.46767
-1.65806
-1.80478
-1.71598
-1.66512
-1.70348
-1.50672
-1.45869
-1.44956
-1.42098
-1.4469
-1.36059
-1.28446
-1.23334
-1.03476
-0.863026
-0.551474
-0.317437
-0.802597
-1.07907
-1.17057
-1.36517
-1.41364
-1.45118
-1.43956
-1.30169
-1.23032
-1.19535
-1.16794
-1.21702
-1.09838
-1.1418
-1.12517
-1.00547
-0.868149
-0.695904
-0.426242
-0.164004
-0.701607
-0.748644
-0.927526
-0.992843
-1.09117
-1.11752
-1.05344
-0.987391
-0.964302
-0.927704
-0.908592
-0.893073
-0.833779
-0.86802
-0.794036
-0.756128
-0.747773
-0.537293
-0.307773
-0.176262
-0.486355
-0.584116
-0.667918
-0.69841
-0.794962
-0.757202
-0.786929
-0.772856
-0.719943
-0.694237
-0.611234
-0.58707
-0.631469
-0.629671
-0.628329
-0.56454
-0.48236
-0.351294
-0.207034
-0.163837
-0.228979
-0.303267
-0.431103
-0.448158
-0.501962
-0.4912
-0.450983
-0.412036
-0.369623
-0.35294
-0.385576
-0.409238
-0.364514
-0.33289
-0.34689
-0.320171
-0.243248
-0.217844
-0.114264
-0.0767502
-0.0820126
-0.107732
-0.134901
-0.148913
-0.160514
-0.176207
-0.206442
-0.192848
-0.198287
-0.124325
-0.159683
-0.11273
-0.132688
-0.104728
-0.0706533
-0.0405527
-0.0545756
-0.0577483
-0.0860151
0.0486688
-1.61365
-2.08776
-2.46491
-2.80217
-2.92718
-2.99185
-2.9862
-2.95913
-2.93061
-2.80522
-2.76631
-2.66128
-2.66546
-2.63533
-2.56024
-2.37056
-2.19105
-1.75021
-1.36927
-0.879077
-1.35826
-1.77968
-2.10596
-2.33869
-2.41577
-2.6717
-2.63362
-2.50191
-2.44988
-2.40076
-2.37861
-2.31378
-2.31675
-2.25905
-2.13016
-2.03983
-1.83447
-1.5231
-1.12823
-0.649883
-1.23221
-1.52868
-1.79997
-1.99647
-2.12267
-2.19587
-2.14852
-2.19337
-2.09938
-2.0029
-2.03235
-2.02285
-1.87664
-1.91942
-1.77019
-1.67477
-1.5169
-1.21547
-0.872356
-0.529618
-1.08804
-1.29485
-1.51908
-1.63005
-1.73143
-1.81744
-1.83615
-1.75485
-1.67189
-1.60959
-1.61735
-1.62161
-1.63203
-1.4245
-1.39011
-1.33663
-1.17822
-0.952071
-0.651679
-0.382753
-0.850987
-0.938378
-1.13463
-1.32546
-1.36399
-1.36924
-1.40439
-1.40651
-1.33118
-1.28703
-1.20828
-1.20054
-1.20685
-1.11756
-1.10568
-1.03333
-0.931724
-0.754531
-0.537339
-0.300032
-0.567025
-0.706259
-0.888918
-0.926125
-0.95376
-1.06289
-1.0258
-0.986623
-0.972404
-0.924457
-0.90826
-0.826142
-0.79799
-0.802755
-0.835934
-0.713632
-0.608726
-0.543986
-0.385107
-0.184426
-0.346846
-0.40411
-0.548695
-0.497481
-0.621713
-0.560995
-0.588965
-0.572137
-0.548909
-0.605416
-0.510562
-0.561106
-0.545418
-0.460821
-0.470523
-0.394604
-0.307957
-0.204914
-0.249378
-0.0807146
-0.161676
-0.214668
-0.150916
-0.14098
-0.192396
-0.196238
-0.226517
-0.207288
-0.198084
-0.168853
-0.181215
-0.183366
-0.15577
-0.115195
-0.219513
-0.131151
-0.114078
-0.180983
-0.120625
-0.0373198
-1.84468
-2.1831
-2.71423
-3.0246
-3.22161
-3.42463
-3.49144
-3.49435
-3.42779
-3.38508
-3.36997
-3.27535
-3.20936
-3.13138
-3.02581
-2.82547
-2.4725
-2.00208
-1.55024
-1.06378
-1.58485
-1.90439
-2.35625
-2.63709
-2.83929
-2.96343
-2.96274
-3.03377
-2.9151
-2.95617
-2.93398
-2.89536
-2.77843
-2.69288
-2.53667
-2.34826
-2.07511
-1.7259
-1.24277
-0.832017
-1.32455
-1.65238
-1.96859
-2.18873
-2.42608
-2.49645
-2.6163
-2.54313
-2.56403
-2.44971
-2.42486
-2.4039
-2.30032
-2.14206
-2.11493
-1.95014
-1.65292
-1.35567
-0.960018
-0.644867
-1.1327
-1.44732
-1.5868
-1.81531
-2.00389
-2.07392
-2.05285
-2.03259
-2.04025
-1.97222
-2.0142
-1.96874
-1.78197
-1.84101
-1.71617
-1.53162
-1.34294
-1.03103
-0.876168
-0.478537
-0.867476
-1.1096
-1.30989
-1.45554
-1.5276
-1.62573
-1.6795
-1.63133
-1.60767
-1.5323
-1.52946
-1.53302
-1.44454
-1.40077
-1.3231
-1.13226
-0.986727
-0.838551
-0.538057
-0.361806
-0.675519
-0.762266
-0.872699
-1.0003
-1.1376
-1.09196
-1.12624
-1.14594
-1.16689
-1.1424
-1.05931
-1.05644
-1.06988
-0.974743
-0.890651
-0.864043
-0.736504
-0.634447
-0.428649
-0.245592
-0.344273
-0.500281
-0.563729
-0.658009
-0.714442
-0.777035
-0.707863
-0.66375
-0.617746
-0.654071
-0.656672
-0.590598
-0.647112
-0.587773
-0.541234
-0.577631
-0.476532
-0.330435
-0.232357
-0.174262
-0.138678
-0.191285
-0.211303
-0.141876
-0.222761
-0.258665
-0.195247
-0.235596
-0.228488
-0.274492
-0.215393
-0.225481
-0.147768
-0.193853
-0.117732
-0.148835
-0.114912
-0.101982
-0.0611841
-0.0225325
-1.75743
-2.25107
-2.78336
-3.13357
-3.50563
-3.65719
-3.77492
-3.73126
-3.80705
-3.77826
-3.75447
-3.67959
-3.56796
-3.41833
-3.22139
-2.9192
-2.59692
-2.12823
-1.56196
-1.0234
-1.55079
-1.97157
-2.38383
-2.74312
-3.04611
-3.17381
-3.26244
-3.28445
-3.34196
-3.25579
-3.21079
-3.03916
-2.96561
-2.93947
-2.72904
-2.41217
-2.23092
-1.76868
-1.34
-0.8182
-1.32897
-1.67879
-2.08304
-2.30429
-2.5182
-2.72381
-2.7933
-2.81272
-2.78161
-2.68981
-2.64505
-2.58352
-2.5348
-2.45143
-2.30271
-2.14043
-1.78743
-1.48048
-1.04811
-0.60373
-1.06149
-1.38835
-1.64712
-1.88429
-2.0316
-2.23357
-2.3038
-2.31109
-2.20512
-2.19648
-2.19949
-2.1631
-2.05131
-1.93582
-1.8316
-1.63986
-1.39986
-1.15088
-0.810047
-0.443507
-0.929177
-1.14626
-1.33518
-1.48123
-1.55199
-1.64734
-1.71534
-1.77908
-1.78422
-1.66554
-1.69348
-1.62575
-1.59146
-1.39569
-1.40577
-1.24328
-1.12945
-0.862234
-0.577768
-0.380081
-0.657049
-0.737245
-0.947709
-1.08262
-1.17369
-1.2984
-1.30194
-1.25304
-1.22961
-1.15371
-1.21851
-1.15573
-1.12251
-1.00208
-0.977841
-0.883369
-0.704707
-0.611535
-0.453174
-0.267843
-0.404831
-0.495882
-0.537523
-0.614902
-0.69008
-0.771527
-0.690045
-0.75923
-0.794697
-0.651602
-0.694964
-0.696492
-0.545323
-0.655668
-0.671501
-0.528898
-0.408001
-0.404183
-0.297915
-0.136217
-0.111348
-0.0848626
-0.19646
-0.246218
-0.205571
-0.252027
-0.25165
-0.324285
-0.167903
-0.235371
-0.252045
-0.221327
-0.25747
-0.26721
-0.221283
-0.180654
-0.165068
-0.164714
-0.0266915
-0.101888
-1.43124
-2.07988
-2.5909
-3.03561
-3.44364
-3.70428
-3.84079
-3.8983
-3.94591
-3.9386
-3.88467
-3.81609
-3.75658
-3.53095
-3.26473
-2.98841
-2.54492
-1.92203
-1.35289
-0.745067
-1.28576
-1.71966
-2.24805
-2.62189
-2.93785
-3.17269
-3.32433
-3.37414
-3.4042
-3.36264
-3.32577
-3.2042
-3.20278
-3.02735
-2.73821
-2.45564
-2.07903
-1.67235
-1.0907
-0.617783
-1.14951
-1.51503
-1.91544
-2.34569
-2.49665
-2.69195
-2.82056
-2.87092
-2.85818
-2.89677
-2.76236
-2.6619
-2.57015
-2.50073
-2.26204
-2.07312
-1.71139
-1.34428
-0.814085
-0.441928
-0.920595
-1.27375
-1.52865
-1.83323
-2.05634
-2.21254
-2.31041
-2.29885
-2.33948
-2.30641
-2.25133
-2.1873
-2.1074
-1.98129
-1.79932
-1.58386
-1.39415
-1.08929
-0.679272
-0.314612
-0.753587
-0.95855
-1.13834
-1.46923
-1.60853
-1.7342
-1.74179
-1.8018
-1.83353
-1.85748
-1.7243
-1.72884
-1.62097
-1.56356
-1.42291
-1.17838
-1.07515
-0.774159
-0.465256
-0.273603
-0.590375
-0.680072
-0.887353
-1.10648
-1.14618
-1.15878
-1.26085
-1.29815
-1.34218
-1.23599
-1.24629
-1.20551
-1.16927
-1.03689
-1.00505
-0.846187
-0.673724
-0.51889
-0.328895
-0.15025
-0.26419
-0.426324
-0.554248
-0.654291
-0.644336
-0.750846
-0.775924
-0.7362
-0.764264
-0.761766
-0.750735
-0.734195
-0.72363
-0.690616
-0.615457
-0.518233
-0.391287
-0.326009
-0.171924
-0.18528
-0.0566176
-0.122667
-0.162647
-0.179968
-0.244527
-0.257455
-0.254532
-0.335565
-0.254035
-0.240523
-0.259695
-0.229335
-0.194065
-0.292642
-0.215977
-0.140423
-0.136432
-0.103473
-0.0501719
-0.0304701
-1.00929
-1.65111
-2.26698
-2.82071
-3.17152
-3.46337
-3.63959
-3.84719
-3.90473
-3.96309
-3.8501
-3.75076
-3.58368
-3.41236
-3.05212
-2.73192
-2.22592
-1.52555
-0.967862
-0.312469
-0.957901
-1.40927
-1.95204
-2.44421
-2.72198
-2.97076
-3.13492
-3.34944
-3.25482
-3.29721
-3.2988
-3.17579
-3.04996
-2.86294
-2.61476
-2.30782
-1.78893
-1.29772
-0.730435
-0.202446
-0.81402
-1.18356
-1.6225
-2.00511
-2.35968
-2.56512
-2.7
-2.68979
-2.79068
-2.77548
-2.70912
-2.61594
-2.53248
-2.33606
-2.09887
-1.87345
-1.50706
-1.04513
-0.577608
-0.0278582
-0.615376
-1.01801
-1.31158
-1.61083
-1.93728
-2.10852
-2.22226
-2.2054
-2.21007
-2.26015
-2.21202
-2.09999
-2.02928
-1.87255
-1.71886
-1.53747
-1.14047
-0.823074
-0.407284
0.0256849
-0.518876
-0.760257
-1.06371
-1.30888
-1.49199
-1.65326
-1.72678
-1.75067
-1.79074
-1.72624
-1.68982
-1.6716
-1.52713
-1.44475
-1.2939
-1.14409
-0.883397
-0.613453
-0.310147
0.0495508
-0.387082
-0.571028
-0.734737
-0.854689
-1.06898
-1.19594
-1.2202
-1.21794
-1.28138
-1.28075
-1.28335
-1.15738
-1.06216
-1.02196
-0.878596
-0.722912
-0.595915
-0.405557
-0.233725
0.0336528
-0.250117
-0.339195
-0.456272
-0.468217
-0.579795
-0.675661
-0.777056
-0.701855
-0.818108
-0.689767
-0.727198
-0.754582
-0.686488
-0.603276
-0.545739
-0.518991
-0.327904
-0.284318
-0.133844
-0.00406457
-0.0782513
-0.186099
-0.217452
-0.184352
-0.217974
-0.215756
-0.242171
-0.255092
-0.277749
-0.232681
-0.26781
-0.230385
-0.204494
-0.199125
-0.198194
-0.176476
-0.10316
-0.132138
-0.0446324
-0.0411116
-0.317357
-0.969564
-1.68029
-2.22555
-2.62967
-3.06418
-3.32683
-3.46704
-3.58578
-3.62982
-3.59016
-3.40826
-3.21422
-3.05354
-2.61537
-2.26173
-1.72258
-1.08991
-0.305173
0.332
-0.299983
-0.796376
-1.48204
-1.89411
-2.39759
-2.56481
-2.81781
-3.05041
-3.03284
-3.09586
-2.99663
-2.90455
-2.73564
-2.46786
-2.17166
-1.90789
-1.37937
-0.766093
-0.141974
0.388363
-0.309768
-0.72083
-1.1861
-1.58196
-1.96969
-2.20674
-2.34674
-2.50066
-2.54202
-2.57737
-2.5804
-2.48301
-2.25368
-2.14515
-1.86989
-1.52225
-1.04996
-0.603866
-0.112276
0.395452
-0.215241
-0.566799
-1.00859
-1.28226
-1.60803
-1.7287
-1.95381
-2.04486
-2.11544
-2.08361
-2.07709
-1.96131
-1.84436
-1.74556
-1.4999
-1.26398
-0.86328
-0.477265
-0.0583021
0.358028
-0.156341
-0.461899
-0.754602
-1.04921
-1.25795
-1.3653
-1.54847
-1.6272
-1.56238
-1.64513
-1.52615
-1.51386
-1.49689
-1.25807
-1.19047
-0.945961
-0.636525
-0.340962
0.0467656
0.30554
-0.0938418
-0.29873
-0.558301
-0.686669
-0.857652
-0.960321
-1.12369
-1.11233
-1.14648
-1.13184
-1.17624
-0.970429
-1.0168
-0.974002
-0.744994
-0.600439
-0.454682
-0.2149
0.0564311
0.203346
-0.0202117
-0.205348
-0.341812
-0.392879
-0.609723
-0.622875
-0.614139
-0.692245
-0.718913
-0.6809
-0.622212
-0.629262
-0.632428
-0.514603
-0.514805
-0.410616
-0.223864
-0.171966
-0.0299959
0.149046
-0.017582
-0.105213
-0.113889
-0.120897
-0.251795
-0.151215
-0.163018
-0.241958
-0.202498
-0.21426
-0.263515
-0.175481
-0.217923
-0.142999
-0.164592
-0.120947
-0.113194
-0.0307174
0.0456626
0.111887
0.567275
-0.0984743
-0.745059
-1.47653
-1.97302
-2.41521
-2.7175
-2.92558
-2.92886
-2.95813
-2.94404
-2.87334
-2.66522
-2.39475
-2.032
-1.58653
-0.946648
-0.26204
0.474805
1.27639
0.526131
-0.0808795
-0.752406
-1.23891
-1.68972
-2.079
-2.33685
-2.46834
-2.54207
-2.58562
-2.50369
-2.42216
-2.24069
-2.01586
-1.63902
-1.23785
-0.759478
-0.128813
0.637539
1.12433
0.478227
-0.126042
-0.612392
-1.0465
-1.37091
-1.77198
-1.95289
-2.03412
-2.14605
-2.10101
-2.14388
-1.95967
-1.87813
-1.66081
-1.3547
-0.885306
-0.601741
0.00482701
0.560638
1.16482
0.370083
-0.0488233
-0.493053
-0.829999
-1.13555
-1.40684
-1.54769
-1.66896
-1.70592
-1.78
-1.74199
-1.57536
-1.49345
-1.31571
-1.09211
-0.723564
-0.376232
0.0651819
0.489953
0.864698
0.258619
-0.0247663
-0.345839
-0.651848
-0.867882
-1.1375
-1.21796
-1.26189
-1.39642
-1.38289
-1.35271
-1.2324
-1.15335
-1.00955
-0.72089
-0.628991
-0.263343
0.0667451
0.401432
0.705832
0.202939
-0.0191678
-0.271347
-0.42067
-0.606736
-0.80031
-0.893028
-0.947451
-0.911145
-1.06013
-0.942517
-0.877179
-0.786347
-0.736405
-0.520384
-0.325139
-0.16149
0.0118711
0.262736
0.512112
0.108448
-0.0331181
-0.068418
-0.301942
-0.423438
-0.476489
-0.500173
-0.541628
-0.507227
-0.604973
-0.510329
-0.484976
-0.460595
-0.430093
-0.419375
-0.201488
-0.126382
0.11256
0.180637
0.327057
0.0545594
0.0448178
-0.104104
-0.131005
-0.143055
-0.154979
-0.161619
-0.184903
-0.168855
-0.209227
-0.164743
-0.265411
-0.189431
-0.176483
-0.122094
-0.0581935
-0.025574
0.0327813
0.0978347
0.1327
1.65447
0.978822
0.198547
-0.537922
-1.08032
-1.47618
-1.80788
-2.07156
-2.18138
-2.19537
-2.15944
-2.02588
-1.86888
-1.51022
-1.17518
-0.559984
-0.000760126
0.812849
1.68517
2.38723
1.4218
0.863807
0.170686
-0.383435
-0.893766
-1.26176
-1.5269
-1.75079
-1.83879
-1.88083
-1.76123
-1.66494
-1.54289
-1.19039
-0.878718
-0.364648
0.165692
0.810019
1.59927
2.18634
1.25921
0.75199
0.169052
-0.323853
-0.785122
-1.05758
-1.34406
-1.42871
-1.5008
-1.55788
-1.49795
-1.38906
-1.28396
-0.975025
-0.657112
-0.291818
0.210222
0.75753
1.41687
1.89914
1.05462
0.566613
0.131037
-0.287969
-0.563328
-0.884884
-1.04138
-1.14684
-1.2137
-1.27605
-1.23917
-1.16766
-0.967263
-0.763758
-0.601797
-0.123319
0.144001
0.664853
1.10019
1.59123
0.783865
0.474364
0.126139
-0.246049
-0.497124
-0.645622
-0.837266
-0.912416
-0.876592
-0.889617
-0.967313
-0.762886
-0.774525
-0.58066
-0.404065
-0.158345
0.132398
0.552591
0.876074
1.29342
0.570362
0.334373
0.0938853
-0.109768
-0.295737
-0.437644
-0.569562
-0.65018
-0.723972
-0.666147
-0.625881
-0.489804
-0.525188
-0.392688
-0.265435
-0.0773903
0.174368
0.38666
0.662
0.918657
0.292394
0.156088
0.0277591
-0.103711
-0.188724
-0.260285
-0.374626
-0.371974
-0.436654
-0.360721
-0.395966
-0.384903
-0.312014
-0.245304
-0.130085
0.0237198
0.134726
0.197635
0.436351
0.561013
0.157276
0.0476154
0.0876414
0.0194029
-0.0861239
-0.107014
-0.193344
-0.164872
-0.150992
-0.126001
-0.130713
-0.0988862
-0.0915867
-0.0812604
0.0646834
-0.0434967
0.0372641
0.126813
0.110197
0.174373
3.11064
2.30539
1.45988
0.817005
0.139177
-0.354766
-0.701099
-0.983162
-1.12896
-1.11177
-1.14344
-0.924298
-0.779259
-0.390649
0.0264007
0.506403
1.28125
2.05506
2.92566
3.66875
2.6577
2.03399
1.30522
0.637931
0.142163
-0.280647
-0.61163
-0.749872
-0.926132
-0.986028
-0.905438
-0.74997
-0.609503
-0.27096
0.0891951
0.591136
1.21714
1.88975
2.60358
3.35671
2.24194
1.63864
1.10696
0.555094
0.181233
-0.217631
-0.480957
-0.683116
-0.728765
-0.694398
-0.706583
-0.660297
-0.4125
-0.237673
0.139742
0.5769
1.12558
1.70905
2.29131
2.9132
1.81318
1.37602
0.927915
0.47
0.15621
-0.173892
-0.363228
-0.541427
-0.621963
-0.653911
-0.61913
-0.507831
-0.290487
-0.0400191
0.165054
0.550415
0.964738
1.43404
2.02193
2.3845
1.42969
1.12532
0.645006
0.381946
0.10346
-0.028748
-0.244217
-0.338835
-0.350626
-0.460013
-0.377576
-0.364582
-0.173498
-0.0979292
0.160592
0.443056
0.750337
1.10799
1.57055
1.91646
1.04187
0.776887
0.522625
0.383228
0.111208
-0.0988514
-0.215985
-0.282833
-0.353836
-0.303261
-0.328528
-0.268657
-0.140495
-0.00875913
0.115264
0.286453
0.568305
0.771419
1.13046
1.38545
0.615298
0.465145
0.354767
0.102707
-0.0103027
-0.0913287
-0.145203
-0.152327
-0.198953
-0.150092
-0.22642
-0.135084
-0.145068
0.00942079
0.057824
0.244462
0.343714
0.57173
0.655815
0.761647
0.263273
0.153297
0.0874897
0.0346182
0.0862091
-0.0087748
-0.0352232
-0.0316576
-0.00536327
-0.0892261
-0.0787069
-0.0677911
-0.051122
0.00462762
0.0779452
0.0620819
0.153416
0.248594
0.153488
0.202835
4.7116
3.77055
3.00889
2.24077
1.61453
1.0486
0.663459
0.380823
0.146447
0.0848821
0.105153
0.289057
0.574455
0.921105
1.37729
1.91628
2.63924
3.52289
4.40582
5.26058
4.09678
3.33288
2.57996
1.88786
1.42371
0.881509
0.540157
0.343101
0.164396
0.224255
0.259224
0.393024
0.555515
0.901847
1.23369
1.86249
2.41654
3.18631
3.99831
4.68087
3.34337
2.88885
2.16111
1.67668
1.20158
0.796807
0.531239
0.309121
0.175312
0.279061
0.238191
0.358205
0.543899
0.848331
1.1829
1.62248
2.15811
2.72943
3.37704
4.02161
2.78581
2.31526
1.74304
1.30941
1.02136
0.648194
0.483858
0.276446
0.159274
0.107262
0.184969
0.212744
0.471895
0.758694
1.06514
1.37633
1.83517
2.30622
2.82798
3.38587
2.2343
1.80674
1.40197
1.08712
0.767783
0.486849
0.454582
0.180995
0.20927
0.232375
0.161951
0.25237
0.388448
0.561983
0.863756
1.06744
1.43484
1.83809
2.20729
2.66489
1.52427
1.31511
0.959427
0.761656
0.570573
0.395499
0.254735
0.104559
0.22647
0.071049
0.125959
0.25572
0.258311
0.405733
0.612161
0.753766
1.02947
1.29479
1.65943
1.88308
0.925279
0.769746
0.511162
0.457881
0.308827
0.250862
0.162966
0.116611
0.0452906
0.0919236
0.124367
0.0717706
0.142681
0.306582
0.3695
0.464838
0.621735
0.833521
0.972453
1.15116
0.2619
0.338823
0.213313
0.181444
0.152608
0.128317
0.0784519
0.0534129
0.0314789
0.0462358
-0.0450475
0.068681
0.0158328
0.0930531
0.0868766
0.113645
0.20259
0.157258
0.31822
0.407253
6.42502
5.55211
4.53049
3.84245
3.11868
2.5589
2.15507
1.90141
1.66048
1.60108
1.67549
1.84133
1.99548
2.39044
3.03177
3.55252
4.26889
5.12988
6.0935
6.94402
5.49985
4.79376
4.10429
3.33054
2.74731
2.262
1.93192
1.60876
1.56111
1.41426
1.51916
1.61093
1.88102
2.16712
2.64384
3.15628
3.81526
4.60704
5.39569
6.09524
4.61862
4.07622
3.37071
2.80952
2.29268
1.93055
1.66027
1.40985
1.27416
1.22303
1.19442
1.41117
1.61903
1.90431
2.29133
2.80724
3.31061
3.9113
4.67475
5.20974
3.76198
3.35145
2.79345
2.21888
1.87955
1.55983
1.40905
1.14743
1.01857
1.06944
1.12673
1.2649
1.36982
1.60411
1.91009
2.31474
2.78882
3.33852
3.90246
4.34941
2.89272
2.58597
2.14311
1.79084
1.44662
1.19457
1.0712
0.858252
0.829303
0.825281
0.873092
0.9067
1.08547
1.34185
1.51979
1.78846
2.16961
2.63248
3.05934
3.3966
2.09122
1.80481
1.55586
1.23914
1.02467
0.903521
0.731535
0.662803
0.597236
0.637197
0.589439
0.698847
0.719095
0.878158
1.04395
1.28471
1.55133
1.82333
2.20674
2.41752
1.17975
1.09508
0.926496
0.782067
0.60629
0.539224
0.431221
0.443751
0.361078
0.365495
0.366565
0.451145
0.50151
0.489802
0.682056
0.815601
0.997985
1.18193
1.35713
1.51269
0.458538
0.415611
0.302615
0.231652
0.217604
0.214602
0.122018
0.206705
0.175993
0.125666
0.199999
0.201331
0.190451
0.177925
0.167072
0.277308
0.318742
0.337995
0.491834
0.516126
8.07727
7.28128
6.33028
5.44164
4.72234
4.22308
3.73166
3.42844
3.22396
3.10735
3.17628
3.27338
3.60515
3.95651
4.49588
5.17331
5.9261
6.89712
7.86724
8.7076
6.97452
6.26372
5.38497
4.72152
4.16928
3.64657
3.19891
2.94727
2.80581
2.81049
2.85109
2.84682
3.18449
3.48366
3.98974
4.56556
5.25331
5.99548
6.90011
7.5483
5.87496
5.28393
4.62413
4.01409
3.49194
3.06403
2.72499
2.51219
2.37451
2.33163
2.36638
2.52663
2.71328
3.04739
3.39672
3.8904
4.48525
5.2141
5.83979
6.52449
4.80119
4.30708
3.66156
3.17752
2.8744
2.48997
2.25696
2.05244
1.94986
1.98183
1.93235
2.07291
2.27263
2.52343
2.75425
3.22762
3.69316
4.22432
4.82769
5.38814
3.70323
3.31969
2.89365
2.52529
2.21048
1.90175
1.76118
1.60895
1.45794
1.47306
1.57436
1.57977
1.82154
1.91047
2.16672
2.55557
2.95329
3.35349
3.75602
4.17821
2.70499
2.37734
2.08928
1.80453
1.60815
1.31796
1.2008
1.16667
1.07554
1.09115
1.10003
1.16768
1.28454
1.36722
1.5737
1.7902
2.06247
2.42261
2.6845
2.98268
1.61078
1.4139
1.23788
1.0933
0.909063
0.842171
0.718551
0.674256
0.697816
0.592901
0.630917
0.71193
0.733198
0.816339
0.908291
1.06776
1.24035
1.41406
1.56165
1.81008
0.555202
0.434417
0.457268
0.442364
0.330189
0.248413
0.204905
0.256744
0.268359
0.20551
0.225475
0.242808
0.218343
0.289433
0.362951
0.315051
0.421302
0.47835
0.518207
0.574712
9.50719
8.70407
7.7041
6.81283
6.12316
5.50902
5.00287
4.75068
4.53711
4.42332
4.45591
4.61367
4.89227
5.35012
5.81645
6.5655
7.3124
8.19027
9.17278
10.0884
8.22053
7.40514
6.55196
5.86237
5.20354
4.6615
4.27821
3.94879
3.84029
3.78419
3.79002
3.99421
4.19358
4.592
5.04899
5.62631
6.38051
7.05735
8.0065
8.69396
6.81802
6.13312
5.50703
4.88334
4.3318
3.87431
3.58119
3.35242
3.18696
3.14384
3.21572
3.2941
3.56454
3.90464
4.30167
4.7736
5.36398
6.05506
6.72531
7.39952
5.50577
5.04978
4.48977
3.95609
3.52688
3.22041
2.89909
2.69273
2.59579
2.60678
2.59971
2.71269
2.84658
3.11715
3.5193
3.88278
4.34429
4.9658
5.55981
6.02481
4.25291
3.89737
3.46389
3.02644
2.77202
2.49987
2.16506
2.16668
2.07715
1.98715
2.08091
2.12907
2.24645
2.48866
2.74181
3.0015
3.39261
3.8264
4.36332
4.77314
2.98775
2.67952
2.48261
2.16041
1.90306
1.78385
1.64395
1.48464
1.39978
1.4375
1.49147
1.52016
1.63828
1.73628
2.00363
2.22351
2.46068
2.79039
3.10238
3.35097
1.81099
1.65918
1.44669
1.30868
1.10218
1.03524
0.920024
0.834591
0.838431
0.785118
0.86413
0.846722
1.00328
1.05555
1.18043
1.2622
1.49
1.7758
1.91578
2.12622
0.636806
0.496374
0.480978
0.470009
0.401782
0.257863
0.319139
0.304238
0.331682
0.327757
0.293866
0.230267
0.28851
0.283951
0.430119
0.434659
0.45661
0.537118
0.61282
0.695079
)
;

boundaryField
{
    hotSide
    {
        type            calculated;
        value           nonuniform List<scalar> 
400
(
3.82607
2.99939
1.97188
1.08795
0.294611
-0.484469
-0.886939
-1.26786
-1.50011
-1.41389
-1.08845
-0.666863
0.0251382