/*--------------------------------*- C++ -*----------------------------------*\
| =========                 |                                                 |
| \\      /  F ield         | OpenFOAM: The Open Source CFD Toolbox           |
|  \\    /   O peration     | Version:  2212                                  |
|   \\  /    A nd           | Website:  www.openfoam.com                      |
|    \\/     M anipulation  |                                                 |
\*---------------------------------------------------------------------------*/
FoamFile
{
    version     2.0;
    format      ascii;
    arch        "LSB;label=32;scalar=64";
    class       volScalarField;
    location    "0";
    object      T;
}
// * * * * * * * * * * * * * * * * * * * * * * * * * * * * * * * * * * * * * //

dimensions      [0 0 0 1 0 0 0];

internalField   nonuniform List<scalar> 
3200
(
350.144
350.939
352.076
353.315
354.263
354.905
355.697
356.175
356.644
356.674
356.651
356.323
356.154
355.711
354.74
353.857
352.959
351.791
350.508
349.679
343.51
344.141
345.1
346.17
347.016
347.557
348.259
348.688
349.068
349.131
349.111
348.783
348.706
348.292
347.491
346.678
345.901
344.945
343.792
343.13
336.847
337.328
338.154
339.036
339.746
340.237
340.828
341.211
341.51
341.593
341.577
341.286
341.215
340.849
340.205
339.492
338.849
338.026
337.077
336.557
330.161
330.487
331.171
331.92
332.473
332.926
333.4
333.728
333.978
334.033
334.042
333.821
333.75
333.428
332.869
332.352
331.809
331.11
330.345
329.945
323.469
323.744
324.237
324.87
325.243
325.624
325.995
326.221
326.463
326.462
326.46
326.287
326.283
325.991
325.558
325.142
324.729
324.185
323.584
323.318
316.789
316.999
317.295
317.784
318.041
318.338
318.603
318.755
318.924
318.855
318.909
318.76
318.768
318.582
318.292
317.959
317.665
317.278
316.889
316.69
310.086
310.226
310.405
310.692
310.87
310.995
311.173
311.297
311.379
311.334
311.346
311.265
311.281
311.153
311.008
310.782
310.627
310.351
310.144
310.045
303.365
303.427
303.493
303.579
303.633
303.693
303.741
303.782
303.804
303.795
303.797
303.769
303.781
303.722
303.706
303.617
303.571
303.452
303.428
303.387
350.922
352.068
353.263
354.447
355.505
356.231
356.994
357.245
357.66
357.997
357.914
357.566
357.13
356.728
356.072
355.087
353.971
352.932
351.753
350.63
344.069
345.018
346.076
347.092
348.059
348.697
349.355
349.576
349.898
350.186
350.183
349.87
349.488
349.14
348.589
347.668
346.723
345.84
344.86
343.878
337.246
337.989
338.958
339.779
340.597
341.178
341.751
341.949
342.19
342.433
342.466
342.174
341.862
341.553
341.037
340.31
339.521
338.793
337.942
337.118
330.474
331.036
331.841
332.484
333.253
333.672
334.11
334.339
334.515
334.701
334.701
334.503
334.242
333.991
333.561
332.973
332.331
331.742
331.003
330.387
323.706
324.134
324.744
325.205
325.867
326.194
326.495
326.722
326.868
326.961
327.01
326.827
326.622
326.403
326.088
325.62
325.16
324.686
324.107
323.61
316.966
317.286
317.657
317.973
318.464
318.735
318.911
319.09
319.201
319.295
319.273
319.128
319.022
318.849
318.625
318.255
317.956
317.621
317.206
316.859
310.198
310.393
310.622
310.792
311.069
311.233
311.374
311.467
311.516
311.615
311.553
311.478
311.411
311.327
311.164
310.94
310.796
310.597
310.3
310.118
303.429
303.495
303.561
303.614
303.703
303.757
303.804
303.854
303.867
303.898
303.864
303.834
303.833
303.806
303.734
303.652
303.622
303.56
303.441
303.394
352.32
353.584
354.848
356.031
356.944
357.945
358.465
359.067
359.365
359.647
359.412
358.955
358.748
358.322
357.461
356.559
355.46
354.307
353.079
351.717
345.324
346.36
347.397
348.413
349.26
350.095
350.555
351.07
351.357
351.604
351.419
350.969
350.869
350.473
349.737
348.95
347.998
347.064
345.95
344.79
338.319
339.123
340.025
340.918
341.622
342.289
342.693
343.14
343.354
343.571
343.458
343.043
342.986
342.661
342.05
341.358
340.548
339.781
338.845
337.885
331.304
331.946
332.659
333.433
333.998
334.566
334.884
335.275
335.408
335.606
335.534
335.186
335.166
334.864
334.362
333.785
333.095
332.493
331.736
331.015
324.341
324.828
325.349
326.005
326.369
326.842
327.122
327.424
327.572
327.708
327.607
327.342
327.377
327.087
326.718
326.282
325.734
325.264
324.611
324.13
317.398
317.735
318.061
318.543
318.812
319.137
319.419
319.598
319.656
319.808
319.691
319.516
319.582
319.319
319.085
318.79
318.409
318.058
317.526
317.272
310.453
310.662
310.832
311.135
311.292
311.464
311.655
311.771
311.784
311.915
311.822
311.706
311.749
311.585
311.478
311.301
311.081
310.825
310.512
310.408
303.5
303.588
303.637
303.721
303.804
303.833
303.903
303.97
303.957
304.008
303.977
303.939
303.959
303.894
303.857
303.775
303.709
303.606
303.525
303.492
353.898
355.187
356.52
357.497
358.433
359.432
360.168
360.661
361.114
361.103
361.061
360.802
360.655
360.079
359.024
358.136
356.927
355.656
354.526
353.15
346.669
347.722
348.886
349.679
350.515
351.393
351.971
352.483
352.853
352.814
352.808
352.606
352.488
352.018
351.045
350.319
349.24
348.141
347.203
346.036
339.466
340.268
341.277
341.976
342.662
343.407
343.832
344.35
344.624
344.589
344.595
344.419
344.322
343.933
343.145
342.542
341.6
340.671
339.893
338.948
332.266
332.908
333.707
334.322
334.848
335.475
335.776
336.259
336.451
336.435
336.417
336.315
336.208
335.897
335.304
334.775
334.037
333.248
332.576
331.857
325.131
325.574
326.197
326.665
327.058
327.524
327.766
328.203
328.319
328.295
328.302
328.251
328.167
327.923
327.504
327.046
326.519
325.858
325.306
324.795
317.959
318.247
318.702
319.088
319.336
319.663
319.808
320.113
320.177
320.18
320.192
320.174
320.11
319.948
319.68
319.355
318.951
318.417
318.044
317.723
310.781
310.957
311.21
311.484
311.576
311.823
311.871
312.056
312.09
312.076
312.137
312.112
312.08
312.013
311.813
311.676
311.359
311.065
310.787
310.66
303.613
303.661
303.775
303.835
303.874
303.968
303.989
304.037
304.047
304.035
304.058
304.052
304.07
304.034
303.96
303.901
303.802
303.718
303.601
303.561
355.5
356.745
357.914
358.887
359.966
361.135
361.769
362.422
362.639
362.55
362.807
362.585
362.139
361.601
360.677
359.611
358.616
357.297
355.955
354.495
348.038
349.099
350.091
350.924
351.848
352.888
353.409
353.959
354.144
354.087
354.291
354.154
353.807
353.336
352.526
351.573
350.719
349.634
348.453
347.183
340.572
341.512
342.328
342.965
343.78
344.642
345.118
345.573
345.75
345.682
345.843
345.724
345.471
345.112
344.409
343.584
342.85
341.988
340.975
339.91
333.171
333.901
334.583
335.102
335.769
336.476
336.88
337.273
337.421
337.33
337.46
337.364
337.155
336.891
336.316
335.652
335.041
334.338
333.512
332.629
325.777
326.343
326.894
327.279
327.787
328.356
328.651
328.949
329.088
328.993
329.111
329.049
328.837
328.732
328.248
327.699
327.239
326.674
326.061
325.386
318.391
318.767
319.244
319.483
319.852
320.253
320.445
320.649
320.755
320.688
320.748
320.761
320.562
320.586
320.182
319.742
319.473
319.048
318.589
318.135
311.049
311.249
311.563
311.684
311.934
312.143
312.301
312.386
312.477
312.369
312.464
312.478
312.334
312.389
312.144
311.849
311.709
311.425
311.151
310.905
303.704
303.771
303.875
303.894
304.009
304.078
304.117
304.139
304.188
304.154
304.198
304.19
304.13
304.159
304.087
303.963
303.92
303.838
303.747
303.646
356.938
358.172
359.53
360.639
361.865
362.688
363.433
363.84
364.15
364.32
364.585
364.033
363.884
363.166
362.317
361.154
360.112
358.995
357.362
355.797
349.327
350.31
351.481
352.436
353.525
354.245
354.84
355.231
355.436
355.676
355.872
355.376
355.209
354.674
353.943
352.9
351.973
351.064
349.684
348.356
341.72
342.507
343.465
344.3
345.201
345.854
346.283
346.648
346.805
347.044
347.189
346.798
346.603
346.234
345.605
344.704
343.873
343.154
342.051
340.927
334.103
334.727
335.476
336.182
336.902
337.454
337.789
338.11
338.255
338.434
338.57
338.259
338.022
337.868
337.291
336.551
335.859
335.267
334.373
333.514
326.497
327.009
327.562
328.11
328.649
329.088
329.354
329.617
329.759
329.863
329.999
329.719
329.513
329.447
329.011
328.399
327.883
327.359
326.721
326.074
318.913
319.298
319.678
320.064
320.401
320.74
320.956
321.155
321.249
321.302
321.441
321.207
321.062
321.032
320.705
320.268
319.912
319.476
319.114
318.626
311.343
311.558
311.814
312.038
312.261
312.439
312.597
312.685
312.722
312.808
312.864
312.748
312.649
312.643
312.405
312.133
311.957
311.649
311.496
311.17
303.8
303.859
303.97
304.017
304.097
304.177
304.224
304.258
304.241
304.303
304.292
304.25
304.23
304.239
304.162
304.075
304.001
303.906
303.846
303.752
358.343
359.533
360.967
362.209
363.461
364.202
364.827
365.4
365.852
366.068
366.023
365.706
365.349
364.588
363.84
362.771
361.578
360.336
358.826
357.377
350.447
351.485
352.698
353.841
354.879
355.559
356.045
356.547
356.934
357.117
357.076
356.866
356.566
355.929
355.241
354.321
353.275
352.252
350.954
349.692
342.625
343.458
344.491
345.465
346.334
346.964
347.323
347.777
348.042
348.208
348.241
348.083
347.783
347.281
346.646
345.889
345.008
344.184
343.1
342.085
334.837
335.529
336.329
337.127
337.817
338.406
338.649
339.009
339.253
339.404
339.443
339.328
339.047
338.638
338.097
337.476
336.759
336.104
335.223
334.475
327.061
327.652
328.22
328.856
329.372
329.846
330.099
330.292
330.445
330.611
330.638
330.575
330.366
330.02
329.569
329.121
328.552
328.069
327.433
326.842
319.323
319.736
320.158
320.606
321.003
321.332
321.515
321.613
321.703
321.846
321.875
321.837
321.687
321.424
321.092
320.774
320.392
320.038
319.53
319.165
311.598
311.851
312.138
312.354
312.607
312.799
312.942
312.955
313.019
313.101
313.115
313.103
313.022
312.873
312.678
312.459
312.253
312.063
311.697
311.493
303.878
303.971
304.074
304.147
304.223
304.284
304.34
304.357
304.355
304.373
304.397
304.385
304.368
304.334
304.242
304.171
304.107
304.06
303.924
303.864
359.487
360.854
362.284
363.534
364.638
365.66
366.289
366.908
367.425
367.39
367.423
367.129
366.716
365.894
365.159
364.017
362.632
361.546
360.072
358.713
351.466
352.592
353.847
354.895
355.874
356.829
357.289
357.882
358.323
358.314
358.323
358.092
357.747
356.982
356.34
355.408
354.185
353.287
352.067
350.86
343.507
344.396
345.462
346.328
347.198
347.98
348.368
348.846
349.282
349.238
349.243
349.086
348.856
348.148
347.59
346.877
345.776
345.054
344.059
343.022
335.58
336.277
337.087
337.846
338.54
339.2
339.565
339.842
340.25
340.251
340.221
340.064
339.966
339.415
338.868
338.311
337.398
336.835
336.037
335.201
327.649
328.186
328.758
329.391
329.942
330.474
330.795
330.908
331.283
331.283
331.263
331.098
331.084
330.692
330.183
329.769
329.028
328.61
328
327.379
319.743
320.111
320.542
320.973
321.332
321.773
322.03
322.032
322.302
322.325
322.352
322.176
322.216
321.941
321.609
321.242
320.738
320.437
319.988
319.561
311.868
312.048
312.369
312.567
312.781
313.078
313.25
313.208
313.377
313.416
313.414
313.289
313.34
313.194
313.011
312.779
312.493
312.312
312.006
311.779
304.009
304.022
304.147
304.214
304.288
304.374
304.427
304.428
304.468
304.489
304.499
304.42
304.484
304.44
304.351
304.281
304.194
304.132
304.01
303.965
360.64
362.166
363.572
364.88
366.039
367.092
367.564
368.13
368.58
368.709
368.701
368.473
368.36
367.077
366.229
365.366
364.035
362.566
361.216
359.908
352.445
353.777
354.983
356.095
357.095
358.035
358.378
358.912
359.319
359.381
359.45
359.251
359.212
358.009
357.271
356.588
355.396
354.181
352.97
351.917
344.298
345.448
346.459
347.315
348.182
349.003
349.329
349.779
350.118
350.102
350.253
350.078
350.054
349.037
348.381
347.854
346.805
345.816
344.834
343.915
336.204
337.122
337.978
338.596
339.308
340.027
340.303
340.661
340.946
340.942
341.033
340.914
340.948
340.117
339.471
339.151
338.294
337.477
336.671
335.911
328.131
328.845
329.491
329.98
330.53
331.09
331.354
331.583
331.812
331.831
331.869
331.782
331.792
331.188
330.648
330.459
329.822
329.155
328.525
327.92
320.067
320.592
321.043
321.373
321.806
322.217
322.437
322.541
322.716
322.696
322.754
322.662
322.724
322.297
321.886
321.789
321.323
320.852
320.41
319.949
312.073
312.395
312.632
312.815
313.09
313.355
313.497
313.549
313.647
313.637
313.693
313.58
313.658
313.408
313.144
313.135
312.814
312.545
312.312
312.003
304.044
304.16
304.214
304.302
304.4
304.477
304.521
304.53
304.572
304.565
304.604
304.552
304.578
304.504
304.401
304.419
304.295
304.223
304.146
304.033
361.901
363.237
364.809
366.149
367.226
368.296
368.901
369.539
369.783
370.035
369.994
369.88
369.468
368.619
367.807
366.55
365.376
363.823
362.294
360.831
353.575
354.724
356.03
357.19
358.119
359.042
359.6
360.131
360.358
360.567
360.577
360.449
360.16
359.37
358.67
357.555
356.586
355.237
353.916
352.695
345.241
346.259
347.307
348.308
349.069
349.86
350.318
350.771
350.963
351.133
351.213
351.049
350.852
350.149
349.553
348.627
347.787
346.676
345.611
344.556
336.94
337.79
338.644
339.412
340.072
340.677
341.112
341.449
341.665
341.765
341.865
341.735
341.56
341.015
340.5
339.733
339.04
338.175
337.313
336.462
328.655
329.359
330.023
330.608
331.097
331.587
331.926
332.182
332.384
332.419
332.543
332.391
332.311
331.865
331.498
330.883
330.352
329.699
329.017
328.396
320.419
320.916
321.468
321.842
322.228
322.565
322.816
322.905
323.121
323.077
323.26
323.135
323.104
322.772
322.486
322.066
321.669
321.216
320.711
320.323
312.223
312.548
312.89
313.109
313.36
313.531
313.686
313.734
313.883
313.82
313.991
313.895
313.878
313.671
313.49
313.27
313.037
312.736
312.431
312.207
304.1
304.211
304.317
304.416
304.477
304.53
304.597
304.59
304.675
304.639
304.672
304.663
304.675
304.579
304.516
304.451
304.371
304.267
304.158
304.09
362.918
364.473
365.941
367.199
368.403
369.594
370.116
370.886
370.966
371.223
371.169
370.865
370.389
369.784
368.827
367.835
366.326
364.805
363.055
361.647
354.442
355.783
357.012
358.079
359.146
360.204
360.666
361.296
361.375
361.618
361.574
361.315
360.923
360.424
359.601
358.731
357.41
356.094
354.639
353.41
346.013
347.124
348.141
349.035
349.957
350.86
351.282
351.773
351.853
352.085
352.009
351.845
351.534
351.107
350.379
349.657
348.505
347.435
346.251
345.234
337.615
338.456
339.303
340.066
340.823
341.537
341.911
342.324
342.35
342.552
342.488
342.381
342.154
341.829
341.207
340.584
339.605
338.778
337.789
337.024
329.261
329.833
330.55
331.108
331.733
332.283
332.583
332.876
332.941
333.085
332.984
332.951
332.772
332.533
332.027
331.525
330.783
330.124
329.382
328.771
320.882
321.306
321.782
322.202
322.688
323.026
323.288
323.485
323.538
323.588
323.519
323.562
323.433
323.294
322.864
322.483
321.963
321.512
321.009
320.558
312.544
312.805
313.072
313.327
313.624
313.817
313.992
314.085
314.123
314.137
314.109
314.168
314.085
313.997
313.733
313.491
313.192
312.889
312.634
312.36
304.194
304.302
304.363
304.472
304.55
304.638
304.679
304.712
304.723
304.722
304.719
304.773
304.741
304.695
304.604
304.522
304.416
304.334
304.244
304.149
363.923
365.544
366.773
368.025
369.434
370.579
371.355
371.939
372.36
372.378
372.138
371.983
371.556
371.123
369.988
368.9
367.428
365.889
364.245
362.69
355.353
356.681
357.72
358.8
360.022
361.05
361.735
362.251
362.595
362.595
362.374
362.251
361.917
361.556
360.534
359.609
358.368
357.008
355.614
354.295
346.765
347.85
348.738
349.653
350.696
351.574
352.145
352.6
352.844
352.862
352.669
352.585
352.296
352.024
351.094
350.403
349.346
348.154
347.009
345.884
338.183
339.043
339.822
340.551
341.461
342.152
342.597
342.993
343.118
343.21
343.058
342.987
342.716
342.514
341.744
341.177
340.324
339.339
338.408
337.522
329.644
330.304
330.923
331.531
332.26
332.737
333.082
333.396
333.48
333.584
333.473
333.39
333.173
333.033
332.442
332.032
331.36
330.53
329.841
329.212
321.145
321.611
322.05
322.498
323.053
323.366
323.608
323.864
323.873
323.973
323.881
323.859
323.649
323.591
323.167
322.901
322.391
321.785
321.272
320.899
312.676
312.95
313.218
313.483
313.88
314.012
314.158
314.338
314.326
314.389
314.306
314.351
314.185
314.176
313.887
313.732
313.43
313.096
312.723
312.537
304.251
304.317
304.431
304.52
304.653
304.692
304.731
304.817
304.809
304.82
304.76
304.836
304.745
304.747
304.644
304.604
304.495
304.394
304.272
304.224
364.673
366.333
367.708
369.035
370.268
371.513
372.325
372.974
373.256
373.238
373.158
372.916
372.441
372.025
370.843
369.497
368.375
366.718
365.083
363.808
355.949
357.322
358.512
359.705
360.725
361.886
362.571
363.098
363.387
363.328
363.218
363.092
362.668
362.32
361.359
360.179
359.194
357.774
356.3
355.294
347.306
348.405
349.447
350.407
351.263
352.28
352.862
353.293
353.549
353.511
353.424
353.296
352.954
352.64
351.938
350.905
350.056
348.836
347.588
346.79
338.646
339.537
340.402
341.179
341.908
342.783
343.197
343.496
343.741
343.714
343.626
343.537
343.262
343.022
342.486
341.614
340.932
339.909
338.91
338.308
330.038
330.676
331.37
332.011
332.577
333.216
333.542
333.787
333.965
333.962
333.894
333.83
333.642
333.447
333.05
332.38
331.823
331.008
330.199
329.839
321.439
321.867
322.392
322.905
323.275
323.694
323.952
324.128
324.242
324.237
324.189
324.159
324.027
323.937
323.654
323.112
322.75
322.164
321.516
321.342
312.879
313.163
313.427
313.781
314.005
314.221
314.374
314.478
314.588
314.53
314.529
314.515
314.424
314.407
314.209
313.889
313.678
313.324
312.928
312.811
304.291
304.413
304.492
304.632
304.7
304.761
304.806
304.837
304.867
304.847
304.854
304.858
304.845
304.837
304.751
304.657
304.58
304.445
304.315
304.301
365.304
366.935
368.556
369.78
371.354
372.355
373.056
373.893
374.163
374.015
373.951
373.824
373.242
372.523
371.474
370.281
369.197
367.512
365.796
364.402
356.507
357.884
359.269
360.335
361.691
362.566
363.26
363.877
364.165
364.047
363.974
363.9
363.347
362.742
361.828
360.827
359.909
358.415
356.933
355.784
347.737
348.896
350.071
350.905
352.065
352.835
353.485
353.935
354.223
354.135
354.099
353.983
353.482
352.965
352.215
351.428
350.642
349.366
348.116
347.195
339.002
339.991
340.909
341.6
342.537
343.183
343.726
344.002
344.337
344.213
344.226
344.087
343.684
343.256
342.658
342.035
341.393
340.332
339.31
338.641
330.31
331.063
331.79
332.362
333.045
333.551
334.001
334.164
334.457
334.381
334.384
334.232
333.909
333.616
333.15
332.694
332.176
331.324
330.538
330.091
321.667
322.178
322.676
323.133
323.592
323.92
324.316
324.353
324.619
324.582
324.538
324.454
324.211
324.007
323.638
323.368
322.994
322.372
321.804
321.519
313.007
313.302
313.593
313.891
314.173
314.37
314.598
314.596
314.806
314.726
314.749
314.663
314.534
314.411
314.185
314.005
313.819
313.424
313.115
312.912
304.364
304.466
304.564
304.664
304.759
304.817
304.883
304.889
304.968
304.918
304.933
304.9
304.885
304.843
304.751
304.693
304.622
304.48
304.391
304.328
366.16
367.363
369.17
370.608
371.781
373.061
373.724
374.414
374.805
374.744
374.807
374.826
374.077
373.157
372.116
371.044
369.718
368.024
366.435
364.793
357.285
358.244
359.835
361.016
362.082
363.216
363.772
364.396
364.69
364.653
364.685
364.74
364.098
363.283
362.359
361.482
360.342
358.885
357.478
356.099
348.441
349.206
350.507
351.508
352.44
353.413
353.884
354.419
354.642
354.624
354.631
354.675
354.176
353.482
352.671
351.949
351.05
349.762
348.563
347.435
339.641
340.226
341.229
342.094
342.885
343.664
344.07
344.503
344.631
344.644
344.687
344.696
344.301
343.685
343.055
342.47
341.761
340.729
339.687
338.777
330.849
331.318
331.964
332.702
333.377
333.959
334.265
334.634
334.675
334.741
334.728
334.714
334.448
333.932
333.431
333.057
332.492
331.678
330.861
330.115
322.023
322.364
322.79
323.395
323.821
324.29
324.471
324.771
324.738
324.798
324.824
324.801
324.581
324.244
323.844
323.615
323.187
322.633
322.062
321.522
313.222
313.437
313.712
314.035
314.28
314.565
314.697
314.875
314.844
314.858
314.861
314.903
314.79
314.568
314.305
314.157
313.909
313.574
313.25
312.877
304.442
304.519
304.604
304.711
304.784
304.894
304.926
305.011
304.98
304.975
304.964
305.007
304.984
304.877
304.789
304.728
304.67
304.562
304.441
304.302
366.657
367.943
369.843
371.283
372.205
373.589
374.259
374.881
375.16
375.414
375.067
375.204
374.609
373.71
372.801
371.771
370.306
368.392
366.994
365.38
357.641
358.749
360.381
361.66
362.47
363.671
364.225
364.767
364.958
365.242
364.959
365.07
364.59
363.728
362.959
362.125
360.824
359.207
357.984
356.643
348.656
349.574
350.956
352.071
352.779
353.821
354.258
354.678
354.852
355.118
354.848
354.971
354.586
353.82
353.19
352.511
351.378
350.044
348.94
347.93
339.725
340.461
341.57
342.528
343.142
343.998
344.351
344.65
344.829
345.02
344.835
344.879
344.63
343.996
343.467
342.906
341.974
340.935
339.975
339.253
330.859
331.4
332.272
333.064
333.494
334.208
334.449
334.751
334.858
334.988
334.829
334.827
334.668
334.171
333.794
333.371
332.599
331.807
331.054
330.554
322.038
322.421
323.011
323.65
323.909
324.424
324.571
324.828
324.909
324.995
324.874
324.875
324.748
324.397
324.12
323.871
323.244
322.711
322.144
321.873
313.261
313.468
313.778
314.204
314.353
314.653
314.735
314.909
314.973
314.97
314.954
314.909
314.837
314.666
314.451
314.342
313.947
313.619
313.292
313.187
304.46
304.525
304.618
304.77
304.796
304.892
304.949
304.972
305.016
304.994
305.017
304.999
304.969
304.909
304.849
304.807
304.667
304.559
304.461
304.435
367.009
368.45
370.14
371.769
372.805
374.08
374.754
375.301
375.479
375.878
375.572
375.749
375.116
374.175
373.19
372.084
370.632
368.838
367.392
365.687
357.983
359.192
360.698
362.048
362.944
364.092
364.642
365.142
365.277
365.645
365.351
365.559
364.992
364.193
363.358
362.402
361.17
359.576
358.323
356.91
348.977
350.004
351.261
352.407
353.154
354.123
354.593
355.007
355.152
355.477
355.214
355.405
354.923
354.203
353.571
352.754
351.725
350.383
349.273
348.132
340.022
340.801
341.854
342.844
343.468
344.21
344.621
344.963
345.04
345.342
345.132
345.257
344.896
344.233
343.771
343.127
342.275
341.212
340.23
339.354
331.106
331.657
332.481
333.295
333.751
334.363
334.689
334.993
335.015
335.245
335.051
335.13
334.892
334.336
334.008
333.532
332.841
332.025
331.254
330.594
322.195
322.59
323.136
323.784
324.105
324.541
324.785
325.018
325.009
325.15
325.021
325.068
324.911
324.524
324.274
323.963
323.453
322.862
322.32
321.854
313.32
313.553
313.865
314.268
314.494
314.739
314.866
315.016
315.028
315.113
315.047
315.039
314.965
314.742
314.561
314.396
314.083
313.734
313.416
313.119
304.455
304.539
304.656
304.779
304.868
304.937
304.997
305.028
305.047
305.063
305.041
305.04
305.025
304.952
304.879
304.826
304.724
304.603
304.498
304.392
367.131
368.64
370.141
371.914
372.978
374.296
375.24
375.668
375.901
376.264
376.003
375.808
375.204
374.532
373.56
372.315
370.952
369.213
367.449
365.853
358.095
359.332
360.679
362.229
363.118
364.296
365.087
365.409
365.628
365.941
365.74
365.62
365.082
364.463
363.617
362.572
361.399
359.912
358.345
357.01
349.045
350.101
351.251
352.542
353.351
354.352
355.021
355.256
355.426
355.651
355.52
355.449
354.997
354.436
353.699
352.874
351.917
350.622
349.262
348.189
340.041
340.902
341.874
342.951
343.623
344.401
345.001
345.165
345.263
345.419
345.358
345.324
344.96
344.47
343.908
343.221
342.45
341.361
340.226
339.452
331.118
331.747
332.535
333.393
333.931
334.542
334.998
335.048
335.169
335.25
335.189
335.195
334.96
334.508
334.134
333.612
333.003
332.124
331.258
330.699
322.211
322.627
323.218
323.879
324.229
324.683
324.993
324.995
325.099
325.138
325.126
325.082
324.978
324.596
324.385
324.039
323.589
322.905
322.284
321.914
313.328
313.57
313.95
314.375
314.555
314.847
315.023
314.984
315.062
315.088
315.038
315.033
315.008
314.734
314.636
314.414
314.149
313.75
313.369
313.162
304.464
304.559
304.688
304.838
304.861
304.982
305.012
305.025
305.049
305.071
305.051
305.037
305.018
304.927
304.895
304.827
304.749
304.601
304.47
304.415
367.457
368.529
370.259
371.901
373.25
374.387
375.066
375.778
376.179
376.462
376.16
376.1
375.269
374.643
373.568
372.218
371.08
369.34
367.518
366.006
358.327
359.25
360.7
362.168
363.353
364.321
364.955
365.562
365.864
366.127
365.907
365.845
365.114
364.596
363.673
362.533
361.539
360.021
358.452
357.169
349.263
350.062
351.271
352.511
353.479
354.305
354.909
355.386
355.623
355.84
355.653
355.632
355.04
354.587
353.811
352.88
352.04
350.674
349.398
348.381
340.224
340.892
341.884
342.927
343.704
344.351
344.868
345.237
345.396
345.591
345.468
345.458
344.976
344.608
343.977
343.23
342.526
341.397
340.35
339.607
331.275
331.759
332.54
333.374
333.984
334.494
334.877
335.145
335.232
335.458
335.315
335.338
334.92
334.673
334.195
333.622
333.048
332.18
331.369
330.851
322.334
322.692
323.226
323.826
324.299
324.588
324.935
325.106
325.129
325.322
325.184
325.204
324.94
324.734
324.407
324.031
323.558
322.966
322.405
322.071
313.436
313.662
313.924
314.299
314.575
314.753
314.98
315.056
315.082
315.187
315.124
315.115
314.987
314.83
314.653
314.445
314.145
313.786
313.445
313.268
304.477
304.573
304.678
304.79
304.876
304.93
305.011
305.039
305.042
305.083
305.069
305.039
305.03
304.949
304.926
304.842
304.749
304.632
304.509
304.448
367.616
368.837
370.465
371.973
373.415
374.428
375.248
375.963
376.276
376.494
376.126
376.213
375.437
374.638
373.708
372.164
371.134
369.711
367.766
365.931
358.543
359.496
360.901
362.278
363.492
364.34
365.088
365.699
365.938
366.106
365.869
365.963
365.249
364.609
363.81
362.411
361.559
360.32
358.661
357.093
349.483
350.23
351.41
352.624
353.651
354.327
355.013
355.521
355.666
355.823
355.686
355.744
355.112
354.599
353.926
352.731
351.994
350.987
349.569
348.256
340.47
341.04
341.981
343.057
343.835
344.381
344.961
345.37
345.478
345.599
345.523
345.57
345.05
344.648
344.053
343.095
342.473
341.736
340.55
339.437
331.471
331.902
332.624
333.453
334.112
334.527
334.933
335.273
335.351
335.472
335.352
335.41
335.04
334.729
334.206
333.507
333.012
332.484
331.513
330.615
322.516
322.782
323.307
323.828
324.377
324.664
324.978
325.199
325.229
325.352
325.23
325.308
325.056
324.779
324.351
323.929
323.582
323.209
322.486
321.857
313.525
313.668
313.991
314.264
314.643
314.795
315.023
315.134
315.135
315.224
315.185
315.217
315.092
314.888
314.57
314.4
314.182
313.948
313.496
313.126
304.522
304.572
304.683
304.78
304.923
304.949
305.044
305.089
305.076
305.099
305.075
305.088
305.078
305.003
304.878
304.817
304.737
304.669
304.513
304.387
)
;

boundaryField
{
    hotSide
    {
        type            fixedGradient;
        gradient        nonuniform List<scalar> 
400
(
531.083
549.018
566.521
583.511
599.912
615.646
630.638
644.814
658.104
670.441
681.761
692.007
701.125
709.066
715.788
721.256
725.441
728.319
729.875
730.101
545.757
564.195
582.19
599.659
616.523
632.702
648.119
662.698
676.367
689.057
700.703
711.244
720.627
728.8
735.722
741.354
745.666
748.637
750.248
750.493
558.953
577.843
596.279
614.178
631.457
648.036
663.834
678.774
692.783
705.789
717.726
728.533
738.153
746.535
753.634
759.413
763.841
766.893
768.554
768.815
570.581
589.867
608.691
626.966
644.609
661.537
677.67
692.927
707.233
720.517
732.71
743.749
753.576
762.14
769.395
775.303
779.831
782.955
784.659
784.933
580.561
600.186
619.339
637.935
655.889
673.115
689.532
705.059
719.619
733.139
745.549
756.785
766.789
775.508
782.895
788.911
793.523
796.708
798.447
798.732
588.83
608.731
628.155
647.014
665.222
682.693
699.342
715.09
729.857
743.569
756.156
767.554
777.701
786.545
794.039
800.143
804.824
808.057
809.824
810.116
595.335
615.451
635.084
654.146
672.55
690.208
707.037
722.955
737.881
751.741
764.464
775.984
786.241
795.181
802.757
808.927
813.658
816.926
818.713
819.008
600.038
620.304
640.083
659.287
677.828
695.617
712.571
728.606
743.642
757.605
770.421
782.026
792.357
801.362
808.992
815.206
819.971
823.261
825.059
825.354
602.914
623.265
643.127
662.411
681.028
698.89
715.913
732.013
747.11
761.127
773.994
785.644
796.015
805.053
812.711
818.946
823.726
827.025
828.825
829.116
603.951
624.321
644.202
663.503
682.135
700.013
717.049
733.16
748.267
762.293
775.167
786.822
797.198
806.238
813.896
820.13
824.907
828.201
829.994
830.277
603.148
623.472
643.307
662.563
681.151
698.985
715.978
732.048
747.116
761.104
773.942
785.563
795.906
804.917
812.548
818.759
823.514
826.79
828.569
828.84
600.516
620.73
640.456
659.604
678.088
695.821
712.717
728.693
743.671
757.575
770.334
781.883
792.159
801.11
808.688
814.852
819.568
822.813
824.567
824.823
596.079
616.119
635.673
654.654
672.975
690.55
707.294
723.125
737.966
751.74
764.379
775.816
785.991
794.851
802.349
808.445
813.106
816.306
818.029
818.265
589.871
609.675
628.997
647.752
665.853
683.214
699.753
715.39
730.045
743.646
756.124
767.412
777.453
786.193
793.587
799.593
804.181
807.324
809.008
809.221
581.939
601.447
620.479
638.949
656.774
673.869
690.153
705.546
719.971
733.356
745.633
756.738
766.612
775.204
782.468
788.365
792.864
795.94
797.576
797.764
572.34
591.494
610.178
628.31
645.807
662.585
678.564
693.667
707.819
720.947
732.986
743.873
753.55
761.967
769.079
774.848
779.243
782.24
783.822
783.982
561.141
579.886
598.171
615.912
633.029
649.442
665.071
679.841
693.677
706.511
718.277
728.913
738.365
746.582
753.52
759.143
763.42
766.328
767.851
767.982
548.422
566.707
584.541
601.843
618.534
634.536
649.772
664.167
677.65
690.153
701.613
711.969
721.168
729.162
735.907
741.367
745.514
748.324
749.783
749.882
534.273
552.05
569.386
586.204
602.425
617.974
632.776
646.758
659.853
671.992
683.116
693.165
702.087
709.836
716.369
721.653
725.658
728.363
729.752
729.82
518.792
536.018
552.814
569.105
584.816
599.874
614.206
627.742
640.415
652.161
662.92
672.637
681.261
688.745
695.051
700.145
703.998
706.591
707.908
707.944
)
;
    }
    coldSide
    {
        type            mixed;
        refValue        uniform 300;
        refGradient     uniform 0;
        valueFraction   uniform 0.991591;
        source          uniform 0;
        value           nonuniform List<scalar> 
400
(
300.028
300.029
300.029
300.03
300.031
300.032
300.033
300.034
300.034
300.034
300.035
300.036
300.036
300.037
300.037
300.038
300.037
300.038
300.038
300.038
300.029
300.029
300.03
300.031
300.032
300.032
300.033
300.034
300.035
300.035
300.036
300.036
300.037
300.038
300.038
300.038