/*--------------------------------*- C++ -*----------------------------------*\
| =========                 |                                                 |
| \\      /  F ield         | OpenFOAM: The Open Source CFD Toolbox           |
|  \\    /   O peration     | Version:  2212                                  |
|   \\  /    A nd           | Website:  www.openfoam.com                      |
|    \\/     M anipulation  |                                                 |
\*---------------------------------------------------------------------------*/
FoamFile
{
    version     2.0;
    format      ascii;
    arch        "LSB;label=32;scalar=64";
    class       volScalarField;
    location    "./ITHACAoutput/true/16.4";
    object      error;
}
// * * * * * * * * * * * * * * * * * * * * * * * * * * * * * * * * * * * * * //

dimensions      [0 0 0 1 0 0 0];

internalField   nonuniform List<scalar> 
3200
(
-4.35953
-2.43909
-0.762894
0.29153
0.719158
0.80317
0.705349
0.276039
0.0896737
-0.0595799
-0.136149
-0.209738
-0.0332765
0.195382
0.37079
0.369512
0.0386086
-0.767612
-2.22457
-4.07757
-3.74139
-2.10147
-0.721962
0.204172
0.604824
0.636963
0.458786
0.344577
0.0345319
-0.0584861
-0.11959
-0.22393
0.0778751
0.176521
0.307944
0.284973
0.0354992
-0.632433
-1.96281
-3.53562
-3.1393
-1.87756
-0.61883
0.178511
0.468724
0.502996
0.47165
0.257652
0.0685346
-0.00960416
-0.0756993
-0.147982
-0.073969
0.160986
0.298806
0.283372
-0.00842561
-0.615243
-1.77685
-2.8648
-2.51055
-1.57005
-0.452598
0.0372341
0.377884
0.442931
0.302014
0.185041
0.0672469
-0.0741895
-0.15173
-0.0950936
-0.034815
0.120185
0.212766
0.288785
-0.00927284
-0.509713
-1.40563
-2.35269
-1.96881
-1.1344
-0.4568
0.148801
0.328111
0.287696
0.26359
0.207069
0.0717325
-0.0953019
-0.128904
-0.0813383
-0.0254589
0.102202
0.173288
0.121406
0.0154891
-0.377023
-1.10563
-1.82635
-1.39304
-0.889887
-0.36987
0.0366019
0.167522
0.262544
0.196055
0.125086
0.0778803
-0.034986
-0.0484462
-0.0484526
0.0545859
0.0135169
0.0928374
0.101484
-0.0534786
-0.279429
-0.733684
-1.22258
-0.832288
-0.475932
-0.213706
0.0145813
0.13044
0.162726
0.169755
0.0626872
-0.07667
0.0139747
-0.0228143
0.0315885
-0.0297999
0.0237528
0.103849
0.028532
-0.026988
-0.175339
-0.546698
-0.747325
-0.292168
-0.101561
-0.143702
-0.0805014
0.0540087
0.0846597
-0.0359184
0.120674
-0.00908585
0.0144097
-0.0161016
-0.0080079
0.0599259
-0.0378098
-0.0221209
0.0359165
0.0606657
-0.0505526
-0.0691924
-0.215229
-4.51157
-2.55414
-0.900187
0.0501245
0.470236
0.444504
0.315983
-0.0494539
-0.305097
-0.446196
-0.64254
-0.629103
-0.368604
-0.164093
0.0811804
0.217314
-0.112644
-0.973043
-2.39479
-4.19896
-3.82909
-2.21242
-0.813731
0.0431652
0.384802
0.371918
0.234504
-0.0607075
-0.206559
-0.453158
-0.545282
-0.505333
-0.35146
-0.215938
0.0517195
0.184368
-0.185966
-0.857928
-2.16996
-3.67869
-3.14862
-1.93459
-0.674294
0.0258206
0.340673
0.338234
0.330806
0.027688
-0.192826
-0.35819
-0.475837
-0.390361
-0.24751
-0.132352
0.0490724
0.0801811
-0.114015
-0.696582
-1.80785
-3.03438
-2.58591
-1.57544
-0.589322
-0.0226198
0.348599
0.328434
0.179147
0.0652994
-0.137699
-0.223937
-0.358076
-0.339694
-0.218858
-0.12886
0.0988869
0.0537656
-0.125695
-0.563293
-1.52606
-2.4084
-2.02061
-1.22554
-0.431183
-0.0255442
0.185552
0.201346
0.14788
-0.0213934
-0.246744
-0.265722
-0.330809
-0.203274
-0.19839
-0.0768794
-0.0244466
0.140942
-0.0905053
-0.555226
-1.17508
-1.82769
-1.46082
-0.875417
-0.333571
-0.00266929
0.193497
0.165268
0.152208
-0.00464322
-0.0990909
-0.193339
-0.119991
-0.155791
-0.171495
-0.0601715
-0.0447445
0.0773022
-0.0879683
-0.369588
-0.734436
-1.3162
-0.943348
-0.501427
-0.199197
0.0444903
0.0651797
0.0919745
0.092636
-0.0266952
-0.0884334
-0.167355
-0.0505026
0.0128558
-0.0752181
-0.0396114
0.0126304
0.0373509
-0.00202139
-0.186369
-0.542731
-0.815466
-0.292666
-0.196422
-0.0197886
0.00758315
0.0798314
0.0692706
-0.0121177
0.0694944
0.00212321
-0.0227358
-0.0528714
-0.0276503
-0.0523207
-0.0504868
-0.120344
0.0560002
0.0506193
-0.0646473
-0.146303
-0.208191
-4.71662
-2.84969
-1.28936
-0.33531
0.0836104
0.116811
-0.136796
-0.552968
-0.88272
-1.17725
-1.31403
-1.16952
-1.11047
-0.740204
-0.428349
-0.346703
-0.516102
-1.25186
-2.69186
-4.4618
-4.09633
-2.43541
-1.09797
-0.300297
0.0877353
0.0290276
-0.17446
-0.476369
-0.787631
-0.986341
-1.05004
-1.10835
-0.915011
-0.574409
-0.39609
-0.226755
-0.476422
-1.1306
-2.35793
-3.73652
-3.33585
-1.98509
-1.00772
-0.176771
0.0233727
0.0374868
-0.103921
-0.382373
-0.606871
-0.761883
-0.889451
-0.877306
-0.713717
-0.586988
-0.337905
-0.242277
-0.380293
-0.965128
-1.93136
-3.13994
-2.67741
-1.74749
-0.845985
-0.227452
0.0154206
0.00245511
-0.111535
-0.27524
-0.510823
-0.646779
-0.769389
-0.701897
-0.55609
-0.430606
-0.249555
-0.216599
-0.360144
-0.802214
-1.63848
-2.60872
-2.04568
-1.33031
-0.591438
-0.183895
0.0251194
0.0806168
-0.14179
-0.205096
-0.389606
-0.485373
-0.502377
-0.59828
-0.45402
-0.334225
-0.192611
-0.11301
-0.274512
-0.543009
-1.2977
-1.97754
-1.51885
-0.960456
-0.487867
-0.137968
0.0228
0.0496098
-0.055582
-0.142674
-0.284496
-0.361112
-0.338355
-0.4217
-0.371092
-0.222274
-0.130505
-0.080638
-0.168598
-0.404494
-0.928401
-1.47668
-0.902785
-0.515461
-0.246855
-0.0424802
0.0416023
-0.0180183
-0.0149116
-0.0702893
-0.180204
-0.14483
-0.241608
-0.250345
-0.151041
-0.11088
-0.0567992
-0.0801274
-0.138709
-0.251743
-0.580963
-0.897592
-0.29388
-0.213629
-0.0604109
-0.0345535
0.00329862
0.01618
-0.0764921
-0.0166703
-0.08829
-0.0664328
-0.0568751
-0.0588464
-0.100923
0.0257829
-0.0453057
-0.0134139
0.0318403
-0.0952513
-0.166821
-0.284
-5.06622
-3.32087
-1.71342
-0.779542
-0.397587
-0.51382
-0.822503
-1.12608
-1.59138
-1.83929
-1.94928
-1.9819
-1.81824
-1.34446
-1.05625
-0.90972
-1.05093
-1.78521
-3.09473
-4.78258
-4.40113
-2.88102
-1.51956
-0.753085
-0.334441
-0.384109
-0.69937
-0.947092
-1.35213
-1.6085
-1.6575
-1.65838
-1.48658
-1.13743
-0.859109
-0.70558
-0.915279
-1.54041
-2.63442
-4.06917
-3.72124
-2.41113
-1.30813
-0.593718
-0.297791
-0.313188
-0.491068
-0.773327
-1.12579
-1.24967
-1.42599
-1.32064
-1.21536
-1.00097
-0.664778
-0.653027
-0.79133
-1.36746
-2.33451
-3.39568
-2.94207
-2.02062
-1.00497
-0.524949
-0.258113
-0.23782
-0.464616
-0.637743
-0.86688
-1.0382
-1.1205
-1.04556
-0.9748
-0.762723
-0.562857
-0.479844
-0.631908
-1.10476
-1.83402
-2.74729
-2.27907
-1.50936
-0.863243
-0.443295
-0.138126
-0.224969
-0.388622
-0.54407
-0.594122
-0.860289
-0.935318
-0.8027
-0.757634
-0.607006
-0.37148
-0.473455
-0.4948
-0.855428
-1.44289
-2.14657
-1.61984
-1.10689
-0.524879
-0.301863
-0.149639
-0.133963
-0.199271
-0.347144
-0.498041
-0.543013
-0.664981
-0.644803
-0.52928
-0.381128
-0.367586
-0.273143
-0.314827
-0.551857
-1.03237
-1.50453
-1.00781
-0.707598
-0.364957
-0.151499
-0.049712
-0.0482815
-0.158049
-0.207059
-0.250245
-0.308669
-0.421908
-0.341696
-0.339645
-0.219572
-0.197105
-0.162448
-0.215563
-0.349531
-0.611829
-0.936621
-0.32639
-0.181753
-0.16413
-0.0676326
-0.0111848
0.00674637
-0.00559672
-0.0574525
-0.0755193
-0.107578
-0.0681374
-0.071166
-0.143952
-0.108829
0.00357506
-0.112809
-0.102441
-0.148385
-0.239517
-0.298623
-5.587
-3.82417
-2.22293
-1.35821
-1.0521
-1.07815
-1.37605
-1.8161
-2.24977
-2.61014
-2.73301
-2.70605
-2.42564
-2.10433
-1.72475
-1.486
-1.63294
-2.25639
-3.67944
-5.14851
-4.81098
-3.28179
-1.98609
-1.20162
-0.874454
-0.958657
-1.1588
-1.53469
-1.85309
-2.24402
-2.3134
-2.3449
-2.14296
-1.74747
-1.48783
-1.28471
-1.39245
-1.93013
-3.11084
-4.56027
-4.00137
-2.81346
-1.68297
-1.04638
-0.760927
-0.767716
-0.989898
-1.30236
-1.56924
-1.84821
-1.92525
-1.89217
-1.77574
-1.44512
-1.18269
-1.0968
-1.19071
-1.64449
-2.74758
-3.66025
-3.27686
-2.32031
-1.30131
-0.860851
-0.616074
-0.481163
-0.804603
-1.04862
-1.235
-1.51717
-1.64809
-1.59017
-1.29896
-1.20636
-0.961185
-0.82629
-1.00041
-1.40474
-2.12799
-3.02661
-2.48175
-1.7615
-0.996767
-0.676288
-0.414906
-0.527956
-0.578693
-0.879359
-0.922212
-1.07902
-1.23584
-1.11048
-1.11018
-0.914948
-0.780084
-0.654837
-0.731056
-1.11847
-1.69288
-2.33823
-1.81764
-1.26108
-0.781102
-0.506962
-0.266913
-0.332708
-0.361793
-0.61837
-0.667624
-0.79285
-0.895582
-0.83849
-0.775126
-0.71304
-0.57808
-0.473532
-0.522226
-0.77154
-1.22955
-1.58827
-1.0618
-0.746698
-0.455075
-0.264963
-0.177052
-0.20771
-0.224215
-0.327227
-0.372699
-0.472103
-0.483335
-0.482271
-0.500755
-0.390858
-0.293756
-0.236105
-0.342357
-0.416942
-0.729842
-0.97393
-0.441312
-0.308049
-0.154536
-0.0722484
-0.051899
-0.0467764
-0.110844
-0.201085
-0.145098
-0.188438
-0.238952
-0.195712
-0.182776
-0.126832
-0.116519
-0.0988243
-0.0804726
-0.140224
-0.224579
-0.388663
-6.16584
-4.43172
-2.96547
-2.05211
-1.68575
-1.65429
-2.03618
-2.43849
-2.91178
-3.42151
-3.49053
-3.45064
-3.20326
-2.76912
-2.37912
-2.23618
-2.23451
-2.93492
-4.22331
-5.76139
-5.23184
-3.77949
-2.52738
-1.72214
-1.4529
-1.439
-1.66823
-2.10786
-2.57615
-2.81778
-3.00918
-2.98104
-2.77142
-2.37099
-2.02701
-1.89127
-1.97988
-2.55406
-3.61407
-4.86337
-4.38404
-3.22125
-2.19024
-1.47302
-1.2346
-1.21775
-1.42146
-1.71381
-2.10298
-2.35648
-2.54804
-2.41427
-2.22444
-1.94257
-1.71058
-1.60247
-1.74762
-2.11269
-3.02004
-4.23016
-3.58984
-2.66174
-1.77516
-1.2335
-0.965787
-0.948176
-1.10952
-1.42108
-1.70119
-1.89364
-1.97871
-2.03493
-1.84953
-1.62075
-1.36463
-1.24568
-1.34664
-1.76242
-2.50849
-3.30757
-2.66197
-2.04725
-1.29972
-0.938449
-0.772994
-0.762914
-0.904921
-1.1075
-1.30652
-1.46676
-1.60787
-1.62998
-1.39778
-1.22449
-1.05355
-0.944946
-1.06756
-1.33221
-2.00353
-2.61958
-1.94579
-1.3954
-0.989848
-0.704993
-0.481595
-0.514797
-0.625907
-0.739463
-0.897246
-1.06752
-1.08077
-1.0816
-1.06339
-0.832578
-0.793423
-0.669376
-0.798095
-0.940251
-1.34567
-1.79552
-1.27447
-0.811298
-0.608789
-0.385049
-0.349395
-0.341798
-0.36512
-0.427032
-0.508051
-0.585551
-0.647333
-0.631203
-0.596266
-0.551126
-0.532236
-0.483083
-0.440187
-0.562277
-0.834361
-1.0755
-0.476937
-0.292684
-0.162697
-0.117152
-0.073514
-0.0773981
-0.206587
-0.244427
-0.181954
-0.19309
-0.193864
-0.228515
-0.179715
-0.193431
-0.117766
-0.0923539
-0.189816
-0.230913
-0.280191
-0.309222
-6.77679
-5.03646
-3.69237
-2.76808
-2.31724
-2.32556
-2.69642
-3.08367
-3.56622
-4.04625
-4.27756
-4.24414
-3.82967
-3.52379
-3.08409
-2.74094
-2.95556
-3.6463
-4.84043
-6.35118
-5.72741
-4.34759
-3.10962
-2.37792
-2.03492
-1.97116
-2.23564
-2.70089
-3.08903
-3.43199
-3.6785
-3.53806
-3.38941
-2.93656
-2.54625
-2.38221
-2.54402
-3.04394
-4.18389
-5.33092
-4.78324
-3.60694
-2.64984
-1.96593
-1.62622
-1.71929
-1.94829
-2.264
-2.46308
-2.87597
-3.00328
-2.98518
-2.76873
-2.47284
-2.21807
-1.99811
-2.0653
-2.62779
-3.45573
-4.56118
-3.95174
-3.01002
-2.20131
-1.57386
-1.39232
-1.36975
-1.50003
-1.84788
-2.14822
-2.293
-2.40308
-2.36923
-2.21734
-2.01644
-1.81399
-1.59871
-1.70499
-2.17454
-2.83042
-3.63948
-2.96038
-2.32585
-1.65995
-1.23094
-1.08426
-1.06504
-1.19738
-1.39876
-1.59895
-1.77814
-1.85786
-1.90548
-1.76978
-1.56101
-1.36641
-1.3079
-1.37121
-1.679
-2.19236
-2.80926
-2.16402
-1.80418
-1.15173
-0.792619
-0.773886
-0.779241
-0.843666
-0.984561
-1.12293
-1.26686
-1.40279
-1.30602
-1.19229
-1.16928
-1.00522
-0.924881
-0.945621
-1.18803
-1.54538
-1.97981
-1.38884
-1.00398
-0.709718
-0.471309
-0.431311
-0.471882
-0.523802
-0.622867
-0.695214
-0.787515
-0.797943
-0.774733
-0.779822
-0.668881
-0.598377
-0.507725
-0.475953
-0.710185
-0.931995
-1.24554
-0.500357
-0.301547
-0.200885
-0.193874
-0.0906884
-0.214778
-0.191101
-0.217672
-0.209109
-0.284036
-0.272695
-0.270434
-0.24376
-0.183261
-0.167222
-0.234581
-0.160552
-0.329517
-0.262384
-0.373376
-7.29981
-5.73722
-4.26669
-3.3318
-3.01884
-2.94311
-3.1846
-3.6534
-4.1163
-4.62326
-4.92644
-4.81008
-4.49329
-4.01691
-3.64203
-3.42152
-3.56282
-4.23095
-5.44547
-6.77255
-6.25794
-4.91621
-3.63852
-2.88982
-2.57053
-2.56555
-2.80535
-3.08174
-3.53133
-3.98118
-4.05352
-4.03385
-3.86229
-3.46883
-3.1213
-2.99588
-3.04167
-3.64425
-4.63016
-5.82002
-5.26291
-4.25626
-3.14747
-2.4589
-2.16504
-2.15875
-2.21861
-2.61903
-2.95151
-3.26137
-3.5071
-3.41848
-3.2443
-2.84905
-2.56835
-2.42565
-2.59656
-3.03951
-3.86165
-4.77215
-4.27808
-3.36943
-2.58458
-1.92308
-1.6664
-1.77573
-1.84406
-2.05743
-2.35831
-2.66903
-2.74036
-2.77058
-2.61153
-2.28638
-2.08188
-1.92749
-2.12791
-2.5462
-3.13371
-3.90591
-3.36566
-2.64594
-1.94918
-1.47394
-1.36369
-1.31262
-1.45599
-1.57997
-1.88181
-2.0424
-2.16711
-2.24457
-1.91847
-1.80804
-1.68696
-1.50274
-1.64434
-1.87085
-2.49567
-3.01016
-2.3299
-1.87514
-1.40144
-1.08343
-0.953112
-0.93751
-0.965271
-1.14459
-1.21893
-1.49406
-1.4746
-1.4721
-1.38209
-1.27684
-1.1417
-1.01542
-1.14702
-1.37741
-1.70699
-2.18785
-1.35912
-1.12977
-0.854643
-0.661131
-0.619631
-0.5918
-0.617658
-0.669592
-0.769035
-0.859028
-0.80065
-0.850808
-0.801627
-0.799157
-0.688586
-0.65991
-0.697444
-0.752808
-1.0853
-1.20945
-0.450172
-0.34675
-0.322767
-0.143896
-0.208432
-0.180832
-0.215615
-0.319489
-0.302354
-0.320758
-0.32453
-0.296193
-0.282372
-0.233629
-0.127927
-0.226318
-0.190433
-0.302228
-0.368891
-0.461683
-7.78493
-6.23905
-4.91891
-4.02672
-3.47461
-3.59296
-3.73681
-4.11165
-4.57866
-5.10849
-5.24383
-5.2127
-4.96936
-4.54399
-4.18
-3.9861
-4.09392
-4.76029
-5.87353
-7.24235
-6.72507
-5.45249
-4.25758
-3.36768
-3.01467
-2.9236
-3.24102
-3.48407
-3.99704
-4.29133
-4.55024
-4.4849
-4.33922
-3.82583
-3.58127
-3.32887
-3.5457
-4.10778
-5.05236
-6.11482
-5.5869
-4.50157
-3.46731
-2.87661
-2.58548
-2.45763
-2.7117
-2.92334
-3.31632
-3.63626
-3.72709
-3.68524
-3.49478
-3.18257
-2.92337
-2.77577
-2.98066
-3.47425
-4.26366
-5.10846
-4.52461
-3.74296
-2.8448
-2.33269
-2.04602
-2.04558
-2.15449
-2.35264
-2.72974
-2.85805
-2.97433
-2.95254
-2.94911
-2.58587
-2.37979
-2.29085
-2.42686
-2.83293
-3.46746
-4.21537
-3.50105
-2.93204
-2.21704
-1.71538
-1.56022
-1.56545
-1.57094
-1.75815
-1.97397
-2.18562
-2.35124
-2.37855
-2.21464
-2.02323
-1.88028
-1.77849
-1.79758
-2.07078
-2.68246
-3.19839
-2.53374
-2.09123
-1.50679
-1.28858
-1.19246
-1.11326
-1.15132
-1.28823
-1.50796
-1.59032
-1.68604
-1.55067
-1.54303
-1.42377
-1.35213
-1.3473
-1.30217
-1.5222
-1.86085
-2.25976
-1.53554
-1.28073
-0.976621
-0.854507
-0.72436
-0.590741
-0.664342
-0.80547
-0.827215
-0.981841
-0.962777
-0.958257
-0.851604
-0.822109
-0.761047
-0.753766
-0.789238
-0.859702
-1.07913
-1.33621
-0.537792
-0.38231
-0.444709
-0.247053
-0.243657
-0.279449
-0.228562
-0.26316
-0.35862
-0.296852
-0.255877
-0.335821
-0.347344
-0.287884
-0.242623
-0.26044
-0.269289
-0.334343
-0.347347
-0.44623
-8.23328
-6.76057
-5.3441
-4.4237
-3.90507
-3.94589
-4.07438
-4.49919
-4.87902
-5.29189
-5.55902
-5.53444
-5.2525
-4.74086
-4.48146
-4.26781
-4.40734
-5.13514
-6.29761
-7.5408
-7.0648
-5.86523
-4.62928
-3.83817
-3.43657
-3.25577
-3.41299
-3.7184
-4.12146
-4.56481
-4.67698
-4.80834
-4.4045
-4.07992
-3.79635
-3.73796
-3.84305
-4.37328
-5.38325
-6.42717
-5.93904
-4.84246
-3.80592
-3.1817
-2.86032
-2.76184
-2.8227
-3.15426
-3.55234
-3.78248
-3.93738
-3.90109
-3.71268
-3.46266
-3.20974
-3.16601
-3.2278
-3.67128
-4.49028
-5.39072
-4.78648
-3.96512
-3.1344
-2.59736
-2.34462
-2.28464
-2.29427
-2.57465
-2.80745
-3.0432
-3.22922
-3.14378
-2.97965
-2.79491
-2.59365
-2.54657
-2.61157
-3.05844
-3.62186
-4.4088
-3.74163
-3.1178
-2.47423
-2.11181
-1.79569
-1.73204
-1.75791
-1.95889
-2.19002
-2.3703
-2.52158
-2.37744
-2.273
-2.12378
-2.03988
-1.9417
-2.0345
-2.33834
-2.78823
-3.35276
-2.66867
-2.22249
-1.71505
-1.44543
-1.26692
-1.18777
-1.30386
-1.37763
-1.5614
-1.60956
-1.68376
-1.78371
-1.64787
-1.56895
-1.43834
-1.42391
-1.52435
-1.67872
-2.0775
-2.40197
-1.50787
-1.34837
-1.1191
-0.827435
-0.804988
-0.670757
-0.69024
-0.88795
-0.834174
-1.00411
-1.06675
-1.08406
-0.918161
-0.899139
-0.800938
-0.817676
-0.856126
-0.973185
-1.23423
-1.44064
-0.59172
-0.377407
-0.377095
-0.332498
-0.161041
-0.320042
-0.322678
-0.261123
-0.324087
-0.254362
-0.310344
-0.398758
-0.262929
-0.304743
-0.250947
-0.284879
-0.316626
-0.303576
-0.41297
-0.449767
-8.50823
-7.10399
-5.77561
-4.82008
-4.36091
-4.13316
-4.25597
-4.57781
-4.98781
-5.38009
-5.5969
-5.59976
-5.30748
-4.96847
-4.76644
-4.64906
-4.77404
-5.35848
-6.49024
-7.7414
-7.32256
-6.10597
-4.90027
-4.18795
-3.68169
-3.58126
-3.58856
-3.84099
-4.27649
-4.47995
-4.78531
-4.78052
-4.50539
-4.22272
-3.9667
-3.92038
-4.13743
-4.68723
-5.56684
-6.68393
-6.14989
-5.0671
-4.17478
-3.46805
-3.07416
-2.97431
-3.03301
-3.25344
-3.52846
-3.80789
-3.90927
-3.98102
-3.80598
-3.56137
-3.32066
-3.24508
-3.34328
-3.80457
-4.67187
-5.52672
-4.94282
-4.15803
-3.39978
-2.8571
-2.46577
-2.36622
-2.44737
-2.64692
-2.82677
-3.09978
-3.21901
-3.19185
-3.004
-2.84342
-2.68541
-2.58782
-2.74805
-3.14603
-3.78595
-4.49317
-3.84568
-3.28907
-2.61812
-2.1763
-1.95285
-1.87732
-1.9075
-2.02661
-2.28911
-2.4305
-2.49536
-2.46985
-2.35049
-2.25367
-2.03452
-2.05269
-2.20249
-2.45901
-2.92729
-3.41727
-2.74233
-2.28613
-1.94955
-1.52894
-1.31053
-1.2285
-1.34062
-1.52853
-1.67268
-1.6388
-1.7563
-1.7573
-1.66537
-1.52534
-1.38252
-1.43311
-1.54018
-1.7433
-2.01997
-2.47176
-1.63474
-1.37826
-1.07908
-0.886002
-0.892922
-0.769808
-0.807763
-0.810808
-0.94115
-0.993016
-1.07826
-1.03325
-0.999963
-0.932061
-0.879755
-0.815628
-0.96431
-1.03355
-1.25141
-1.43843
-0.500773
-0.402215
-0.378354
-0.282271
-0.309164
-0.226795
-0.244491
-0.280746
-0.309276
-0.385502
-0.38683
-0.402002
-0.360463
-0.318434
-0.2744
-0.268063
-0.290157
-0.363458
-0.330231
-0.456178
-8.72686
-7.28767
-6.01088
-5.02839
-4.49805
-4.3078
-4.30836
-4.44108
-4.96414
-5.21984
-5.45261
-5.40305
-5.20922
-5.03596
-4.60031
-4.58732
-4.85741
-5.52059
-6.51835
-7.75017
-7.44882
-6.26142
-5.17756
-4.28413
-3.86077
-3.67791
-3.69514
-3.86599
-4.22249
-4.42691
-4.62041
-4.64687
-4.43233
-4.11001
-3.92371
-4.00205
-4.16824
-4.79328
-5.60837
-6.60807
-6.22972
-5.24925
-4.27814
-3.64391
-3.24197
-3.07795
-3.08301
-3.21358
-3.46299
-3.67436
-3.81366
-3.83432
-3.64153
-3.43235
-3.30495
-3.28594
-3.49644
-3.93537
-4.74062
-5.52262
-5.01985
-4.25474
-3.45133
-2.97049
-2.66536
-2.44121
-2.51816
-2.59698
-2.82934
-3.01136
-3.14415
-3.11536
-2.95098
-2.79127
-2.75441
-2.68348
-2.84106
-3.18078
-3.78554
-4.48067
-3.93119
-3.31525
-2.75363
-2.28703
-2.01861
-1.81504
-1.94102
-1.97725
-2.18775
-2.27468
-2.38309
-2.43299
-2.24888
-2.14493
-2.06116
-2.08474
-2.08605
-2.4657
-2.96819
-3.44622
-2.75818
-2.40807
-1.96461
-1.56799
-1.43789
-1.31821
-1.37507
-1.37686
-1.5635
-1.58642
-1.75523
-1.68732
-1.60013
-1.50365
-1.48721
-1.4765
-1.52428
-1.74988
-2.06278
-2.4067
-1.67107
-1.38866
-1.19324
-0.979143
-0.839863
-0.934939
-0.793894
-0.799025
-0.992067
-1.00029
-1.02101
-0.971003
-0.939125
-0.853699
-0.893011
-0.89901
-0.948159
-1.12059
-1.23882
-1.38571
-0.495658
-0.470728
-0.346556
-0.366219
-0.32006
-0.273718
-0.335808
-0.280494
-0.282202
-0.36055
-0.346062
-0.373889
-0.242982
-0.330664
-0.254378
-0.331941
-0.309496
-0.394509
-0.421721
-0.464009
-8.67952
-7.32197
-6.01737
-5.0937
-4.50338
-4.17821
-4.25976
-4.3265
-4.71089
-4.99283
-5.12203
-5.10452
-4.92891
-4.72223
-4.4373
-4.51843
-4.81705
-5.48871
-6.57167
-7.68475
-7.44263
-6.31866
-5.17902
-4.39098
-3.82404
-3.63921
-3.56377
-3.74509
-3.88856
-4.2178
-4.31611
-4.3231
-4.12035
-4.00015
-3.80466
-3.76416
-4.10103
-4.68785
-5.5673
-6.51906
-6.21802
-5.27457
-4.33556
-3.68482
-3.21257
-2.99738
-2.95059
-3.05919
-3.2413
-3.52622
-3.62411
-3.56705
-3.48874
-3.28092
-3.1716
-3.23798
-3.47268
-3.89889
-4.63474
-5.45741
-5.01828
-4.33611
-3.52282
-2.94931
-2.57064
-2.41448
-2.36776
-2.46907
-2.59125
-2.78757
-2.92478
-2.91621
-2.78728
-2.57166
-2.59311
-2.46778
-2.69386
-3.15007
-3.74927
-4.42066
-3.81449
-3.28644
-2.7467
-2.19889
-1.96109
-1.87909
-1.79078
-1.99924
-2.06158
-2.15001
-2.21551
-2.18721
-2.14212
-1.97984
-1.95828
-1.97477
-2.15895
-2.44976
-2.95119
-3.42513
-2.79985
-2.44677
-1.93897
-1.56905
-1.39196
-1.22641
-1.29902
-1.39715
-1.46449
-1.55702
-1.56029
-1.53972
-1.51561
-1.43558
-1.40248
-1.39036
-1.46777
-1.72149
-2.01364
-2.41869
-1.6694
-1.46278
-1.10896
-1.00336
-0.859345
-0.777628
-0.752524
-0.840223
-0.849597
-0.908865
-0.949729
-0.92322
-0.872845
-0.841415
-0.850787
-0.78757
-0.918861
-1.00221
-1.22963
-1.47327
-0.606515
-0.463753
-0.381176
-0.298862
-0.266098
-0.238152
-0.267265
-0.186703
-0.234074
-0.295875
-0.405067
-0.284676
-0.263407
-0.252515
-0.279861
-0.329787
-0.290513
-0.400297
-0.442969
-0.465838
-8.47548
-7.20585
-6.01043
-4.98191
-4.3542
-3.9854
-3.84015
-4.02328
-4.20555
-4.43659
-4.56932
-4.5654
-4.37905
-4.29824
-4.18222
-4.20213
-4.59667
-5.23462
-6.1924
-7.43856
-7.28527
-6.17941
-5.12613
-4.22428
-3.60016
-3.40646
-3.28584
-3.39047
-3.58132
-3.69654
-3.85669
-3.78226
-3.6534
-3.59328
-3.47317
-3.54391
-3.86627
-4.47186
-5.29536
-6.32239
-6.05911
-5.14089
-4.24783
-3.55613
-3.07633
-2.79746
-2.8146
-2.79251
-2.96668
-3.11871
-3.1384
-3.16595
-3.01769
-3.01064
-2.84927
-2.93042
-3.21417
-3.72994
-4.4307
-5.19728
-4.89052
-4.18839
-3.38778
-2.90092
-2.49126
-2.29806
-2.20646
-2.23138
-2.41699
-2.52737
-2.59827
-2.57034
-2.49085
-2.28379
-2.33394
-2.30241
-2.61443
-2.96053
-3.53503
-4.27955
-3.74214
-3.24043
-2.656
-2.28459
-1.83329
-1.69562
-1.68284
-1.74419
-1.91562
-1.95246
-1.9553
-1.89628
-1.97871
-1.75407
-1.7733
-1.8165
-2.01227
-2.31981
-2.7562
-3.20997
-2.7234
-2.25347
-1.83466
-1.64138
-1.4046
-1.24965
-1.18688
-1.18722
-1.22271
-1.34898
-1.29977
-1.38995
-1.26472
-1.26237
-1.25217
-1.19111
-1.37722
-1.65971
-1.99166
-2.21167
-1.62501
-1.43496
-1.00661
-0.929646
-0.762227
-0.771762
-0.727529
-0.745483
-0.712839
-0.810905
-0.747279
-0.84891
-0.765851
-0.754267
-0.822472
-0.732032
-0.849798
-1.05383
-1.24122
-1.38064
-0.571476
-0.541855
-0.364839
-0.364817
-0.237452
-0.180939
-0.314537
-0.262215
-0.212117
-0.205204
-0.258438
-0.33465
-0.302402
-0.221803
-0.250435
-0.281254
-0.280996
-0.332693
-0.343749
-0.382366
-8.26107
-6.93819
-5.65003
-4.65874
-4.0086
-3.61437
-3.44486
-3.45442
-3.53157
-3.68518
-3.79252
-3.76817
-3.67438
-3.63679
-3.47843
-3.65408
-4.10798
-4.77749
-5.79037
-6.92914
-7.00094
-5.94124
-4.83062
-3.99961
-3.41833
-3.05964
-2.86032
-2.92449
-2.96821
-3.03844
-3.14617
-3.16179
-3.02181
-2.95807
-2.98848
-3.12765
-3.49685
-4.08081
-5.02571
-5.83762
-5.89115
-4.94245
-3.98728
-3.34886
-2.79481
-2.58757
-2.42281
-2.42617
-2.46071
-2.6268
-2.73838
-2.61422
-2.50551
-2.42743
-2.34565
-2.54681
-2.83393
-3.40201
-4.1609
-4.89595
-4.74889
-4.06733
-3.27835
-2.75568
-2.31291
-2.06348
-1.91077
-1.93463
-1.95796
-2.06334
-2.08352
-1.99826
-2.02439
-1.96505
-2.02766
-1.94869
-2.40605
-2.6738
-3.20226
-3.92784
-3.61009
-3.14585
-2.48792
-2.08235
-1.77023
-1.46134
-1.51375
-1.42312
-1.53142
-1.58825
-1.689
-1.56869
-1.53017
-1.50381
-1.46859
-1.52528
-1.74984
-2.05095
-2.5821
-3.04256
-2.64677
-2.21882
-1.83885
-1.48892
-1.21568
-1.06695
-1.05819
-1.09411
-1.04428
-1.06862
-1.1271
-1.11846
-1.08842
-1.05039
-1.08073
-1.12587
-1.13275
-1.57341
-1.76642
-2.11775
-1.49452
-1.31352
-1.06658
-0.890884
-0.667056
-0.673493
-0.661935
-0.65564
-0.630011
-0.596418
-0.684219
-0.604334
-0.724249
-0.612397
-0.617834
-0.608645
-0.800173
-0.905462
-1.05707
-1.26425
-0.553634
-0.468564
-0.401927
-0.362112
-0.321628
-0.312825
-0.230853
-0.277929
-0.262016
-0.198694
-0.184651
-0.204916
-0.278884
-0.246702
-0.234028
-0.192917
-0.289733
-0.267232
-0.335663
-0.460344
-7.71058
-6.44418
-5.21795
-4.15156
-3.4033
-3.03388
-2.74721
-2.70499
-2.80945
-2.86151
-2.90657
-2.9241
-2.7933
-2.78434
-2.81719
-2.99295
-3.44905
-4.27548
-5.29407
-6.2693
-6.54694
-5.48167
-4.41261
-3.62427
-2.99969
-2.51628
-2.35424
-2.20896
-2.2465
-2.35708
-2.48434
-2.38737
-2.3354
-2.3453
-2.32872
-2.53434
-2.88527
-3.55755
-4.40199
-5.30315
-5.43647
-4.65879
-3.68424
-2.9931
-2.40353
-2.15684
-1.92011
-1.8525
-1.87979
-1.85532
-1.9499
-1.96212
-1.90517
-1.8104
-1.97923
-2.04074
-2.45277
-2.96521
-3.643
-4.40008
-4.49026
-3.70885
-2.96775
-2.41457
-2.01217
-1.60608
-1.53089
-1.48245
-1.43581
-1.46709
-1.58768
-1.63326
-1.52512
-1.4418
-1.57485
-1.65644
-1.86257
-2.35537
-2.86288
-3.5773
-3.40121
-2.93291
-2.28859
-1.80768
-1.53527
-1.25662
-1.14563
-1.11975
-1.19545
-1.20505
-1.14282
-1.18947
-1.04232
-1.15633
-1.16146
-1.20338
-1.36326
-1.79815
-2.173
-2.68404
-2.40004
-1.99066
-1.60279
-1.2689
-1.07076
-0.961827
-0.805485
-0.780387
-0.763665
-0.785194
-0.866161
-0.75592
-0.824604
-0.792675
-0.788386
-0.954384
-0.953356
-1.28698
-1.57525
-1.94795
-1.376
-1.21804
-1.0152
-0.73225
-0.631243
-0.521399
-0.50714
-0.493809
-0.509678
-0.513127
-0.463194
-0.480321
-0.479102
-0.5002
-0.514002
-0.571727
-0.552337
-0.757579
-0.949457
-1.13456
-0.52919
-0.438672
-0.34142
-0.199046
-0.207746
-0.197061
-0.156092
-0.123917
-0.0904212
-0.20496
-0.153469
-0.087301
-0.203621
-0.151009
-0.167346
-0.202954
-0.202806
-0.277955
-0.318334
-0.396231
-7.04912
-5.79132
-4.54851
-3.48119
-2.69842
-2.20747
-1.92136
-1.8563
-1.78314
-1.79422
-1.88337
-1.92585
-1.83589
-1.80054
-1.90074
-2.14497
-2.71655
-3.47274
-4.52301
-5.55043
-6.03352
-4.86557
-3.8855
-2.94562
-2.27371
-1.86618
-1.5942
-1.56124
-1.4032
-1.5152
-1.48484
-1.50963
-1.48095
-1.49797
-1.54022
-1.84733
-2.21661
-2.79995
-3.79698
-4.62676
-4.94518
-4.21256
-3.21651
-2.51637
-1.86405
-1.51143
-1.35152
-1.175
-1.19962
-1.16997
-1.22793
-1.22537
-1.17456
-1.11065
-1.25591
-1.44308
-1.75634
-2.33543
-3.07976
-3.8908
-4.03762
-3.30208
-2.54054
-1.90364
-1.56973
-1.12296
-0.966038
-0.938499
-0.894178
-0.908346
-0.923081
-0.987461
-0.920818
-0.90726
-0.990409
-1.18135
-1.43746
-1.83866
-2.40915
-3.03446
-3.04453
-2.50352
-1.95703
-1.60199
-1.20197
-0.913737
-0.775296
-0.692071
-0.654033
-0.65278
-0.645866
-0.655424
-0.715514
-0.737549
-0.730844
-0.842916
-1.0445
-1.45168
-1.88525
-2.35362
-2.17853
-1.84648
-1.43654
-1.02803
-0.777889
-0.620821
-0.492646
-0.526597
-0.45362
-0.469268
-0.399376
-0.543765
-0.443075
-0.503206
-0.424298
-0.55197
-0.812868
-0.909105
-1.38347
-1.59763
-1.23481
-1.05042
-0.870876
-0.637428
-0.42377
-0.349873
-0.313959
-0.266091
-0.206397
-0.318975
-0.304402
-0.259803
-0.235454
-0.242942
-0.277191
-0.349724
-0.439856
-0.572652
-0.80924
-0.926894
-0.484062
-0.319958
-0.288666
-0.264909
-0.145872
-0.116761
-0.128461
-0.0269381
-0.128474
-0.127299
-0.128523
-0.109951
-0.0726152
-0.0972596
-0.0942416
-0.115104
-0.133721
-0.23443
-0.194912
-0.361158
-6.17506
-4.9988
-3.8329
-2.75376
-1.93804
-1.35709
-0.973935
-0.79283
-0.715227
-0.641683
-0.741734
-0.696394
-0.705504
-0.728707
-0.939725
-1.15354
-1.78558
-2.505
-3.56159
-4.56522
-5.2516
-4.2244
-3.18052
-2.27141
-1.52603
-1.07478
-0.813264
-0.557775
-0.521749
-0.565085
-0.470484
-0.552055
-0.445465
-0.566857
-0.71517
-0.92304
-1.35113
-2.05495
-2.96808
-3.86758
-4.35201
-3.50119
-2.62887
-1.88423
-1.33999
-0.834773
-0.583523
-0.503233
-0.371163
-0.360445
-0.48942
-0.298369
-0.349108
-0.336909
-0.524316
-0.678161
-1.08068
-1.65217
-2.43121
-3.1415
-3.51805
-2.88361
-2.10702
-1.55912
-1.00537
-0.611602
-0.47406
-0.264441
-0.165003
-0.256389
-0.246363
-0.266278
-0.276557
-0.337107
-0.428802
-0.493165
-0.861236
-1.38275
-1.9281
-2.51387
-2.68772
-2.27275
-1.62569
-1.20237
-0.76171
-0.452844
-0.373889
-0.18965
-0.145556
-0.205014
-0.115402
-0.152458
-0.182785
-0.259288
-0.300933
-0.397193
-0.631775
-1.04758
-1.4708
-2.03489
-1.9286
-1.5563
-1.19161
-0.82485
-0.511076
-0.350213
-0.207628
-0.13593
-0.155
-0.04542
-0.0993337
-0.193955
-0.0310904
-0.091573
-0.132694
-0.323467
-0.499193
-0.703871
-1.04023
-1.40252
-1.11692
-0.900793
-0.665015
-0.48316
-0.336827
-0.223934
-0.122849
-0.0478642
-0.0522297
-0.122499
-0.0793975
-0.0173134
-0.0488378
-0.0847098
-0.0805913
-0.191245
-0.293073
-0.385261
-0.531623
-0.808979
-0.390805
-0.195955
-0.224211
-0.22678
-0.137543
-0.0995998
-0.0314131
-0.0638071
0.0193144
-0.0164516
-0.0323009
-0.0153053
0.0448597
-0.00491425
-0.0478795
0.016743
-0.0785694
-0.170878
-0.233405
-0.259835
-5.29638
-4.08996
-2.82665
-1.82287
-0.97948
-0.331219
0.0370106
0.309439
0.295439
0.458376
0.501357
0.487398
0.42842
0.40398
0.178211
-0.146331
-0.740564
-1.58843
-2.56024
-3.57741
-4.51803
-3.47955
-2.43729
-1.53185
-0.803226
-0.315856
0.00690766
0.33281
0.370771
0.472826
0.483621
0.528025
0.414528
0.386669
0.210516
-0.013211
-0.533748
-1.27338
-2.18402
-3.02538
-3.75598
-2.91715
-2.05291
-1.23716
-0.599673
-0.232522
0.115938
0.279898
0.323952
0.380575
0.520502
0.432311
0.458928
0.364169
0.298055
-0.0334816
-0.397332
-1.07067
-1.77718
-2.47874
-3.10387
-2.39555
-1.55916
-1.01323
-0.455811
-0.137303
0.152816
0.264726
0.28997
0.375763
0.358154
0.474245
0.48146
0.408126
0.233995
0.0250474
-0.271092
-0.80333
-1.30737
-1.89066
-2.38654
-1.83057
-1.34188
-0.761954
-0.330113
-0.133662
0.13985
0.18304
0.338946
0.318317
0.288582
0.276688
0.414771
0.294332
0.149655
0.0639326
-0.252448
-0.613355
-1.09037
-1.4824
-1.63695
-1.24866
-0.839879
-0.54092
-0.275805
-0.0928761
0.0680975
0.110433
0.273101
0.239775
0.262799
0.196691
0.268448
0.260194
0.173599
0.00690378
-0.179232
-0.415352
-0.73762
-1.00351
-0.936001
-0.747602
-0.517787
-0.306118
-0.153054
-0.0624026
0.10455
0.0848789
0.0691263
0.143513
0.0927039
0.22086
0.170687
0.141196
0.0938181
-0.0167032
-0.0585644
-0.264023
-0.409892
-0.617594
-0.318889
-0.292918
-0.16417
-0.0852334
0.0231393
0.0328613
0.0603336
0.0551959
0.0764953
0.0674992
0.0286993
0.0187654
0.0585435
0.00774753
0.0565828
-0.00553648
-0.0339005
-0.111582
-0.117811
-0.217247
-4.50184
-3.31871
-2.14659
-1.07027
-0.220231
0.460345
0.874967
1.13421
1.26853
1.41475
1.36017
1.37965
1.3672
1.26547
1.05297
0.676151
0.0943583
-0.707502
-1.7766
-2.7862
-3.81328
-2.87756
-1.80951
-0.982044
-0.213917
0.354042
0.770115
1.00141
1.09369
1.13435
1.20786
1.19945
1.21497
1.0712
0.890166
0.681753
0.0846997
-0.543448
-1.42638
-2.37363
-3.28087
-2.44547
-1.54167
-0.722155
-0.10514
0.263237
0.682541
0.903586
1.01664
1.09863
1.05062
1.04681
1.04804
1.04773
0.833942
0.637543
0.155233
-0.485542
-1.23798
-1.93603
-2.65161
-2.03006
-1.32434
-0.5652
0.0294309
0.277429
0.531971
0.685282
0.765556
0.875771
0.915414
0.884302
0.893874
0.890449
0.637136
0.420597
0.0839569
-0.394269
-0.97584
-1.54232
-2.01765
-1.58402
-0.975743
-0.402185