/*--------------------------------*- C++ -*----------------------------------*\
| =========                 |                                                 |
| \\      /  F ield         | OpenFOAM: The Open Source CFD Toolbox           |
|  \\    /   O peration     | Version:  2212                                  |
|   \\  /    A nd           | Website:  www.openfoam.com                      |
|    \\/     M anipulation  |                                                 |
\*---------------------------------------------------------------------------*/
FoamFile
{
    version     2.0;
    format      ascii;
    arch        "LSB;label=32;scalar=64";
    class       volScalarField;
    location    "0";
    object      relativeErrorField;
}
// * * * * * * * * * * * * * * * * * * * * * * * * * * * * * * * * * * * * * //

dimensions      [0 0 0 1 0 0 0];

internalField   nonuniform List<scalar> 
3200
(
0.012689
0.00709425
0.00221693
0.000846342
0.00208568
0.00232703
0.00204174
0.000798426
0.00025923
0.000172183
0.000393465
0.000606315
9.62503e-05
0.000565564
0.00107429
0.00107165
0.000112085
0.00223064
0.00647031
0.0118683
0.0110744
0.0062165
0.002134
0.000602978
0.00178463
0.00187783
0.00135146
0.00101434
0.000101603
0.000172038
0.000351777
0.000658867
0.000229243
0.000519981
0.000907849
0.000840858
0.000104839
0.00186937
0.00580633
0.0104653
0.00945347
0.00565106
0.00186128
0.000536515
0.00140768
0.00150948
0.00141443
0.000772224
0.000205322
2.87666e-05
0.000226736
0.000443338
0.000221697
0.000482782
0.000896709
0.000851027
2.53233e-05
0.00185049
0.00534792
0.00862687
0.00769426
0.00480982
0.00138575
0.000113932
0.00115554
0.00135361
0.000922432
0.000564893
0.000205219
0.000226363
0.000462951
0.000290199
0.000106283
0.000367076
0.000650216
0.000883085
2.83737e-05
0.00156062
0.00430614
0.00721043
0.00614341
0.00353857
0.00142428
0.000463728
0.00102202
0.000895691
0.000820268
0.000644133
0.000223078
0.000296331
0.000400815
0.000252951
7.91954e-05
0.000318045
0.000539503
0.000378161
4.82707e-05
0.00117554
0.00344884
0.00569889
0.00442735
0.00282756
0.00117486
0.000116221
0.000531735
0.000833047
0.000621873
0.000396653
0.000246912
0.000110908
0.000153578
0.000153614
0.000173094
4.28746e-05
0.000294571
0.000322123
0.000169809
0.000887579
0.00233124
0.00388559
0.00269521
0.001541
0.000691814
4.71926e-05
0.000422076
0.000526432
0.000549061
0.000202722
0.00024791
4.51839e-05
7.37645e-05
0.000102141
9.6369e-05
7.68266e-05
0.00033596
9.23235e-05
8.7347e-05
0.000567612
0.00177013
0.00242008
0.000964406
0.000335223
0.000474285
0.000265673
0.000178228
0.000279354
0.000118513
0.00039814
2.99758e-05
4.7539e-05
5.31206e-05
2.64195e-05
0.000197714
0.000124754
7.29931e-05
0.000118524
0.000200211
0.000166847
0.000228383
0.000710442
0.0131245
0.007425
0.00261455
0.000145443
0.00136309
0.00128724
0.000914231
0.000142976
0.000881578
0.00128891
0.00185608
0.00181779
0.00106567
0.00047477
0.00023509
0.000629936
0.000326852
0.00282616
0.00696175
0.0122151
0.0113287
0.0065417
0.00240416
0.000127422
0.00113492
0.00109598
0.000690495
0.000178633
0.000607511
0.00133244
0.00160332
0.00148623
0.00103418
0.000635828
0.000152408
0.000543769
0.000548964
0.00253474
0.00641615
0.0108837
0.00947773
0.00582038
0.00202731
7.75743e-05
0.00102273
0.00101466
0.000991696
8.29557e-05
0.000577483
0.00107249
0.00142475
0.00116907
0.000741562
0.000396769
0.00014721
0.00024071
0.000342543
0.00209432
0.00543907
0.00913383
0.00792253
0.00482471
0.00180377
6.91915e-05
0.00106566
0.00100339
0.000546998
0.000199287
0.000420095
0.000683068
0.00109223
0.00103635
0.000667929
0.000393454
0.000302107
0.00016436
0.000384488
0.0017241
0.00467349
0.00737871
0.00630335
0.00382187
0.00134406
7.95865e-05
0.000577822
0.000626702
0.00046008
6.65333e-05
0.00076716
0.000826048
0.00102838
0.000632005
0.000616991
0.000239184
7.60915e-05
0.000438906
0.000281981
0.00173072
0.00366451
0.00570155
0.00464186
0.00278104
0.00105936
8.47418e-06
0.000614069
0.000524298
0.000482708
1.47214e-05
0.000314106
0.000612794
0.000380315
0.000493836
0.000543726
0.000190826
0.000141948
0.000245321
0.000279272
0.00117374
0.00233317
0.00418232
0.00305451
0.00162335
0.000644769
0.000143977
0.000210884
0.000297513
0.000299592
8.63198e-05
0.000285918
0.000541047
0.000163271
4.15644e-05
0.000243221
0.000128106
4.08559e-05
0.000120846
6.5415e-06
0.000603246
0.00175708
0.00264043
0.00096601
0.000648306
6.53091e-05
2.50252e-05
0.000263432
0.000228566
3.9981e-05
0.000229275
7.00457e-06
7.5005e-05
0.000174422
9.122e-05
0.000172616
0.000166575
0.00039709
0.000184792
0.000167049
0.000213358
0.000482883
0.000687181
0.0137064
0.00827547
0.00374102
0.000971958
0.000242124
0.000337946
0.000395415
0.0015972
0.00254828
0.00339759
0.00379233
0.00337624
0.0032075
0.00213959
0.00123925
0.001004
0.00149602
0.00363222
0.00781712
0.0129659
0.012108
0.00719436
0.00324098
0.000885673
0.000258537
8.54659e-05
0.000513266
0.00140058
0.00231462
0.00289785
0.00308499
0.00325711
0.00269023
0.00168992
0.00116621
0.000668198
0.00140512
0.00333729
0.00696547
0.0110445
0.0100332
0.00596753
0.00302738
0.000530673
7.01138e-05
0.000112372
0.000311312
0.00114481
0.00181621
0.00227964
0.00266134
0.00262555
0.00213685
0.00175841
0.00101292
0.000726786
0.00114165
0.00289943
0.005806
0.00944393
0.00819739
0.00534805
0.00258766
0.000695302
4.71105e-05
7.49592e-06
0.000340349
0.000839502
0.00155753
0.00197171
0.00234548
0.00214012
0.00169612
0.00131399
0.000761939
0.000661715
0.00110093
0.00245377
0.00501443
0.00798708
0.00637816
0.00414641
0.00184264
0.000572656
7.81845e-05
0.000250802
0.00044092
0.000637545
0.00121078
0.00150818
0.00156101
0.00185927
0.00141133
0.00103933
0.000599222
0.000351745
0.000854841
0.00169175
0.00404477
0.00616571
0.00482437
0.00305003
0.00154878
0.000437842
7.23302e-05
0.000157327
0.00017621
0.000452191
0.000901512
0.00114417
0.00107207
0.00133628
0.00117614
0.000704666
0.000413867
0.000255814
0.000535047
0.00128411
0.00294823
0.00469044
0.00292247
0.0016684
0.000798843
0.000137441
0.000134571
5.82714e-05
4.82149e-05
0.000227235
0.000582505
0.00046813
0.000780939
0.000809233
0.000488294
0.00035852
0.00018369
0.000259189
0.000448779
0.000814662
0.00188041
0.00290566
0.000969941
0.00070504
0.000199361
0.000114021
1.08841e-05
5.33837e-05
0.000252358
5.49947e-05
0.000291252
0.000219145
0.000187617
0.000194124
0.000332939
8.50614e-05
0.00014948
4.42606e-05
0.000105068
0.000314337
0.000550559
0.000937331
0.014699
0.00962862
0.00496368
0.00225621
0.00114964
0.00148436
0.00237408
0.00324802
0.00458773
0.00530098
0.00561796
0.00571355
0.00524446
0.00388068
0.00305137
0.00263049
0.00304169
0.00517165
0.00897294
0.013876
0.0129907
0.00849887
0.00447927
0.0022181
0.000984222
0.00112947
0.00205496
0.0027811
0.00396868
0.00472001
0.00486381
0.00486754
0.00436528
0.00334212
0.00252621
0.00207645
0.00269582
0.00454075
0.00777141
0.0120108
0.0111787
0.00723961
0.00392523
0.00178029
0.0008923
0.000937778
0.00146946
0.00231284
0.00336566
0.00373522
0.00426224
0.00394817
0.00363486
0.00299529
0.00199054
0.00195673
0.00237284
0.00410328
0.00700954
0.0102008
0.00899854
0.00617777
0.00307093
0.00160317
0.000787796
0.000725433
0.00141648
0.00194343
0.00264083
0.00316219
0.00341286
0.00318514
0.00297056
0.00232532
0.00171691
0.00146455
0.00192981
0.00337585
0.00560728
0.0084028
0.00710015
0.00470074
0.00268735
0.00137938
0.000429597
0.000699368
0.00120761
0.00169005
0.00184506
0.00267128
0.00290426
0.00249279
0.00235345
0.00188622
0.00115483
0.00147253
0.00153964
0.00266302
0.00449373
0.00668736
0.00514216
0.003513
0.00166533
0.000957426
0.00047445
0.000424607
0.000631408
0.00109967
0.00157739
0.00171965
0.0021059
0.00204221
0.00167664
0.00120764
0.00116509
0.000866037
0.000998545
0.00175093
0.00327649
0.00477609
0.0032613
0.00228948
0.00118062
0.000489994
0.000160749
0.000156092
0.000510868
0.000669177
0.000808657
0.000997388
0.00136329
0.00110417
0.00109767
0.000709729
0.000637232
0.000525293
0.000697196
0.00113072
0.00197961
0.00303092
0.00107711
0.000599767
0.000541576
0.000223151
3.6901e-05
2.22562e-05
1.84623e-05
0.000189513
0.000249098
0.000354837
0.000224745
0.000234739
0.000474839
0.000359002
1.17941e-05
0.000372182
0.000338
0.000489624
0.000790383
0.000985474
0.0161756
0.0110646
0.00642639
0.00392305
0.00303611
0.00310855
0.00396422
0.00522842
0.00647375
0.00750876
0.00786224
0.00778671
0.00698324
0.00606233
0.00497282
0.00428825
0.00471656
0.00652312
0.0106459
0.0149061
0.0141738
0.00966318
0.0058438
0.00353282
0.00256888
0.00281406
0.00339915
0.00449905
0.00543012
0.00657417
0.00677742
0.00687128
0.00628223
0.0051259
0.00436741
0.00377409
0.00409387
0.00567916
0.00915982
0.0134352
0.0120009
0.00843412
0.00504204
0.00313275
0.00227657
0.00229534
0.00295781
0.00388946
0.00468472
0.00551649
0.00574643
0.00564879
0.00530318
0.00431803
0.00353603
0.00328145
0.00356487
0.00492675
0.00823661
0.0109778
0.010009
0.00708457
0.00397124
0.00262559
0.00187795
0.00146588
0.00245001
0.00319166
0.00375779
0.00461561
0.00501392
0.0048385
0.00395364
0.00367335
0.00292829
0.00251874
0.00305125
0.00428687
0.00649737
0.00924465
0.0077233
0.00548021
0.00309978
0.00210221
0.00128913
0.00163965
0.0017965
0.00272896
0.00286125
0.00334733
0.00383382
0.00344537
0.00344527
0.00284037
0.00242267
0.0020346
0.00227245
0.00347826
0.0052667
0.00727665
0.00576557
0.0039993
0.00247639
0.00160674
0.000845662
0.00105378
0.00114556
0.00195749
0.00211304
0.00250914
0.00283425
0.00265383
0.00245371
0.00225773
0.00183094
0.0015003
0.00165512
0.00244607
0.00389931
0.00503799
0.00343435
0.00241485
0.00147146
0.000856577
0.000572259
0.000671219
0.000724425
0.00105709
0.00120385
0.00152485
0.00156113
0.00155778
0.00161766
0.00126284
0.000949277
0.000763127
0.00110678
0.00134816
0.00236034
0.00315014
0.00145611
0.00101637
0.000509841
0.000238343
0.0001712
0.000154291
0.000365596
0.000663199
0.000478531
0.000621454
0.000788044
0.000645456
0.000602814
0.000418328
0.000384338
0.000325993
0.000265474
0.000462622
0.000740968
0.0012824
0.0178042
0.0127888
0.00855088
0.00591218
0.00485249
0.00475796
0.00585187
0.0070036
0.00835909
0.00982001
0.0100181
0.00990605
0.00920008
0.0079583
0.00684266
0.00643695
0.00643769
0.0084628
0.0121874
0.0166363
0.0153776
0.0111029
0.00741946
0.00505179
0.00425874
0.00421489
0.00488304
0.00616639
0.0075333
0.00823812
0.00879768
0.00871729
0.00810759
0.00694006
0.00593719
0.0055437
0.00580785
0.0074978
0.0106169
0.0142946
0.0131221
0.00963728
0.00654882
0.0044015
0.00368667
0.00363405
0.00423951
0.00510895
0.00626691
0.00702103
0.00759179
0.00719455
0.00663118
0.0057937
0.00510477
0.00478519
0.00522202
0.00631695
0.00903529
0.0126615
0.0109466
0.00811348
0.00540834
0.00375606
0.00293927
0.00288414
0.00337327
0.00431877
0.00516856
0.00575238
0.00601078
0.00618253
0.00562088
0.00492759
0.0041509
0.00379109
0.00410059
0.00536954
0.00764636
0.0100858
0.0082731
0.00636075
0.00403662
0.00291336
0.00239868
0.00236641
0.00280581
0.00343284
0.00404879
0.00454481
0.00498205
0.00505117
0.0043326
0.00379667
0.00326791
0.00293227
0.00331419
0.00413754
0.00622494
0.00814136
0.00616605
0.00442097
0.0031352
0.00223227
0.00152443
0.00162903
0.00198007
0.00233877
0.00283732
0.00337549
0.00341739
0.0034203
0.0033633
0.00263388
0.00251071
0.00211883
0.00252707
0.00297811
0.00426343
0.00568987
0.00411977
0.00262222
0.00196734
0.00124407
0.00112866
0.00110391
0.00117903
0.00137876
0.00164018
0.00189028
0.00208972
0.00203776
0.00192517
0.00177968
0.00171898
0.00156052
0.00142222
0.00181703
0.00269676
0.00347659
0.00157334
0.000965477
0.000536655
0.000386402
0.000242454
0.000255248
0.000681254
0.000805998
0.000599974
0.000636682
0.000639232
0.000753502
0.00059261
0.00063787
0.000388375
0.000304589
0.000626066
0.000761666
0.000924265
0.00102007
0.0195062
0.0144882
0.0106138
0.00795053
0.00665019
0.00666883
0.0077268
0.00883125
0.0102088
0.0115804
0.0122424
0.0121495
0.0109677
0.0100977
0.00884401
0.00786615
0.00848901
0.0104814
0.0139243
0.0182811
0.016787
0.0127363
0.00910363
0.00695661
0.0059489
0.00575852
0.00652702
0.00788122
0.00901042
0.0100088
0.0107277
0.0103202
0.00989032
0.00857339
0.00743857
0.00696415
0.00744253
0.00891135
0.0122567
0.0156249
0.0142823
0.0107653
0.00790427
0.00586063
0.00484493
0.00511914
0.00579785
0.00673431
0.00732409
0.00855039
0.00892889
0.0088766
0.00823563
0.00735884
0.00660424
0.00595288
0.00615685
0.00783848
0.010314
0.0136192
0.0120258
0.00915673
0.00669343
0.00478313
0.00422921
0.0041586
0.00455208
0.00560558
0.00651489
0.00695297
0.00728678
0.00718515
0.00672634
0.00611921
0.00550731
0.00485614
0.00518164
0.006612
0.00861036
0.0110755
0.00918578
0.00721487
0.00514731
0.00381546
0.00335945
0.00329857
0.00370714
0.00432932
0.00494786
0.00550173
0.00574841
0.00589642
0.00547766
0.00483294
0.00423196
0.00405234
0.00425025
0.00520637
0.00680078
0.00871687
0.00684956
0.00570946
0.00364377
0.00250689
0.00244692
0.00246314
0.00266608
0.00311065
0.00354728
0.00400159
0.00443096
0.00412564
0.00376695
0.00369508
0.00317745
0.00292434
0.00299081
0.00375859
0.00489047
0.0062665
0.00448625
0.00324267
0.00229188
0.00152172
0.00139232
0.00152302
0.00169033
0.00200974
0.00224297
0.00254062
0.00257427
0.00249952
0.00251617
0.0021585
0.00193129
0.001639
0.00153672
0.00229339
0.00301017
0.00402337
0.00165019
0.000994469
0.00066246
0.0006393
0.000299026
0.000708143
0.000630045
0.000717615
0.000689363
0.000936353
0.000898966
0.00089153
0.000803623
0.000604198
0.000551349
0.000773483
0.00052942
0.00108665
0.000865315
0.00123141
0.0209339
0.0164436
0.0122203
0.00953542
0.00863318
0.00841046
0.00909455
0.0104276
0.0117442
0.0131879
0.0140527
0.0137236
0.0128249
0.0114714
0.0104078
0.00978475
0.0101966
0.0121179
0.0156074
0.0194219
0.018282
0.0143553
0.0106179
0.00842741
0.00749126
0.00747195
0.00816555
0.00896572
0.0102701
0.0115763
0.0117866
0.0117316
0.0112366
0.0100967
0.00909051
0.00873085
0.00887023
0.0106346
0.0135201
0.0170027
0.0156701
0.0126677
0.00936264
0.00731019
0.00643282
0.00641058
0.006585
0.00777027
0.00875406
0.00967157
0.0104003
0.0101391
0.00962535
0.00845622
0.00762692
0.00720716
0.00771946
0.00904151
0.0114932
0.0142089
0.0129882
0.0102261
0.00784063
0.00583109
0.00505038
0.00537923
0.00558385
0.00622779
0.00713676
0.00807602
0.00829183
0.00838439
0.00790504
0.00692324
0.00630664
0.00584165
0.00645219
0.00772421
0.00951071
0.0118583
0.0104237
0.00819255
0.00603307
0.00456038
0.00421765
0.00405821
0.00449997
0.00488181
0.00581329
0.0063087
0.00669392
0.00693393
0.0059277
0.00558802
0.00521555
0.0046477
0.00508759
0.00579065
0.00772728
0.00932274
0.00736455
0.00592596
0.0044278
0.00342214
0.00300966
0.0029596
0.0030465
0.00361173
0.00384576
0.00471345
0.00465206
0.00464451
0.00436113
0.00402986
0.00360421
0.00320642
0.00362299
0.00435189
0.00539459
0.00691556
0.00438658
0.00364593
0.00275762
0.00213287
0.00199864
0.00190855
0.00199165
0.00215885
0.00247924
0.00276924
0.00258104
0.00274286
0.00258454
0.0025769
0.00222068
0.00212856
0.00225002
0.00242903
0.00350242
0.00390352
0.00148426
0.00114322
0.00106409
0.000474365
0.000687075
0.000596061
0.000710675
0.001053
0.000996497
0.00105714
0.00106957
0.000976192
0.000930669
0.000770051
0.000421673
0.000746034
0.000627779
0.00099638
0.00121622
0.00152221
0.0222309
0.017807
0.0140299
0.0114771
0.00989648
0.0102267
0.0106296
0.01169
0.0130131
0.0145162
0.0149007
0.0148151
0.0141286
0.0129257
0.0118975
0.0113533
0.0116686
0.0135775
0.0167638
0.0206815
0.0195733
0.0158623
0.0123789
0.00978541
0.00875421
0.00848469
0.00940087
0.0101014
0.0115849
0.0124358
0.0131861
0.0129989
0.0125807
0.0110971
0.0103934
0.00966661
0.0103027
0.0119433
0.0146982
0.0177972
0.0165811
0.0133549
0.0102814
0.00852525
0.00765831
0.0072759
0.00802434
0.00864731
0.00980707
0.0107517
0.0110202
0.010898
0.0103377
0.00941774
0.00865473
0.00822198
0.00883363
0.0103019
0.0126491
0.0151612
0.0136997
0.0113294
0.00860719
0.00705459
0.00618486
0.00618086
0.00650745
0.00710369
0.00824043
0.00862671
0.00897769
0.00891302
0.00890471
0.00781039
0.00719072
0.00692494
0.00733941
0.00857126
0.0104955
0.0127633
0.0108198
0.00905909
0.00684771
0.00529636
0.00481558
0.00483008
0.00484554
0.00542162
0.00608601
0.00673792
0.00724849
0.0073334
0.00682927
0.0062406
0.00580147
0.00548926
0.00555016
0.00639594
0.00828798
0.00988447
0.00799636
0.00659862
0.00475335
0.00406393
0.00375981
0.00350923
0.00362839
0.00405909
0.00475082
0.00500996
0.0053115
0.00488537
0.00486196
0.00448701
0.00426217
0.00424801
0.00410678
0.00480198
0.00587168
0.00713169
0.00495122
0.00412916
0.00314822
0.00275414
0.00233429
0.00190341
0.00214026
0.00259463
0.00266446
0.00316237
0.00310097
0.00308654
0.00274323
0.00264852
0.00245214
0.00242906
0.00254377
0.00277132
0.00347919
0.0043085
0.00177256
0.00126005
0.00146563
0.000814172
0.000802935
0.000920832
0.000753116
0.000867083
0.00118158
0.000978055
0.00084305
0.00110646
0.00114446
0.000948586
0.000799487
0.000858242
0.000887451
0.0011019
0.00114481
0.00147077
0.0233999
0.0192047
0.0151716
0.0125505
0.0110719
0.0111807
0.0115383
0.0127355
0.0138062
0.014972
0.0157277
0.0156609
0.0148679
0.0134258
0.0126982
0.0121003
0.0125041
0.0145784
0.0178896
0.0214317
0.020476
0.016992
0.0134041
0.011107
0.00993914
0.00941107
0.00986071
0.0107387
0.0118994
0.0131774
0.0135012
0.0138825
0.0127202
0.0117876
0.0109737
0.0108108
0.0111211
0.0126628
0.0155956
0.0186279
0.0175623
0.0143145
0.0112452
0.00939616
0.00844289
0.00814833
0.0083244
0.00929891
0.0104699
0.0111468
0.0116032
0.0114978
0.0109452
0.0102117
0.0094698
0.0093452
0.00953229
0.0108474
0.0132734
0.0159409
0.0144486
0.0119657
0.00945512
0.00783185
0.00706683
0.00688334
0.0069099
0.00775209
0.0084513
0.00915997
0.00971989
0.00946374
0.00897153
0.00841772
0.00781434
0.00767552
0.00787468
0.00922597
0.0109298
0.0133085
0.0115355
0.00960996
0.00762396
0.00650506
0.00552948
0.00533182
0.00540993
0.00602705
0.00673708
0.00729104
0.00775638
0.00731362
0.0069935
0.0065359
0.00627946
0.0059791
0.00626693
0.00720521
0.00859415
0.0103366
0.00840736
0.00700053
0.00540096
0.00455079
0.0039878
0.00373781
0.00410229
0.00433368
0.00491116
0.00506234
0.00529572
0.00561043
0.00518378
0.00493635
0.00452634
0.00448197
0.00479925
0.00528653
0.00654381
0.00756715
0.00485674
0.00434254
0.00360367
0.00266407
0.00259142
0.002159
0.00222143
0.00285743
0.00268418
0.00323088
0.00343244
0.00348824
0.00295465
0.00289374
0.00257802
0.00263227
0.00275645
0.00313381
0.00397494
0.00464018
0.00194958
0.00124343
0.00124234
0.00109536
0.000530496
0.00105422
0.00106286
0.000860075
0.00106744
0.000837772
0.00102216
0.00131338
0.000866023
0.00100378
0.000826623
0.000938443
0.00104307
0.00100013
0.0013606
0.00148188
0.0240543
0.020075
0.0163119
0.0136051
0.0123016
0.0116526
0.0119928
0.0128944
0.0140451
0.0151474
0.0157578
0.0157683
0.0149497
0.0140005
0.013438
0.0131145
0.0134751
0.0151338
0.0183406
0.0218863
0.0211243
0.0176077
0.0141237
0.0120643
0.0106003
0.010306
0.0103224
0.0110444
0.0122935
0.0128766
0.0137543
0.0137424
0.0129548
0.0121465
0.0114152
0.0112875
0.0119187
0.0135097
0.016053
0.019282
0.0181127
0.0149187
0.0122862
0.0102016
0.00903884
0.00874148
0.00891056
0.00955514
0.0103606
0.0111797
0.0114774
0.0116894
0.0111779
0.0104628
0.0097594
0.00954139
0.0098346
0.0111967
0.013755
0.0162774
0.0148703
0.0125058
0.0102217
0.00858674
0.00740784
0.00710617
0.00734751
0.0079445
0.00848273
0.00930107
0.00965883
0.00957828
0.00901624
0.00853655
0.00806474
0.0077745
0.00825899
0.00945873
0.0113868
0.0135176
0.0118245
0.0101109
0.00804603
0.00668618
0.00599788
0.00576424
0.00585542
0.00621975
0.0070243
0.00745761
0.00765662
0.00757892
0.00721374
0.00691806
0.00624692
0.00630451
0.00676664
0.00755705
0.00899874
0.0105073
0.00862247
0.00718696
0.00612759
0.00480449
0.00411727
0.00385874
0.00421014
0.00479952
0.00525155
0.00514489
0.00551379
0.00551724
0.00522919
0.00479023
0.00434253
0.00450236
0.00483981
0.00547931
0.00635023
0.00777174
0.00525904
0.0044335
0.00347068
0.00284929
0.00287115
0.00247496
0.00259669
0.00260624
0.003025
0.00319159
0.00346558
0.00332103
0.00321425
0.00299627
0.00282845
0.00262262
0.00310111
0.00332423
0.00402546
0.00462751
0.00164926
0.00132462
0.00124598
0.000929523
0.00101803
0.000746771
0.000805006
0.000924348
0.00101826
0.00126921
0.00127358
0.00132355
0.00118681
0.00104847
0.000903519
0.000882691
0.000955491
0.00119693
0.00108755
0.00150238
0.0245304
0.0204763
0.0168799
0.0141131
0.0126178
0.0120779
0.012074
0.0124413
0.0139029
0.0146171
0.0152689
0.0151322
0.0145932
0.014113
0.012898
0.0128682
0.0136332
0.0155031
0.0183147
0.021785
0.021379
0.0179643
0.0148478
0.0122797
0.0110609
0.0105323
0.0105773
0.0110628
0.0120801
0.0126634
0.0132169
0.0132942
0.0126834
0.0117649
0.0112362
0.0114657
0.0119476
0.0137458
0.0160907
0.0189659
0.0182668
0.0153871
0.0125355
0.0106726
0.00949144
0.00900769
0.00901937
0.00939868
0.0101261
0.010743
0.0111503
0.0112119
0.0106503
0.0100414
0.00967202
0.00962015
0.0102407
0.0115311
0.0138962
0.0161935
0.0150462
0.0127497
0.0103388
0.00889522
0.00797872
0.00730533
0.00753341
0.00776736
0.00846091
0.00900447
0.00940152
0.00931625
0.00882614
0.00835048
0.00824258
0.00803299
0.00850764
0.00952833
0.0113437
0.0134301
0.0120519
0.0101615
0.00843791
0.00700613
0.00618215
0.00555724
0.00594158
0.00605134
0.00669469
0.00696021
0.00729194
0.00744515
0.00688266
0.00656575
0.0063108
0.00638465
0.00639046
0.00755559
0.00909777
0.0105651
0.00865367
0.00755409
0.00616179
0.00491681
0.00450793
0.00413195
0.00430943
0.00431445
0.00489882
0.00497036
0.00549928
0.0052868
0.0050141
0.00471242
0.00466167
0.00462899
0.00477976
0.00548832
0.00647092
0.00755089
0.00536878
0.00446108
0.00383282
0.00314473
0.00269706
0.00300203
0.00254888
0.00256513
0.00318466
0.00321096
0.00327747
0.00311704
0.0030149
0.00274089
0.0028674
0.002887
0.00304522
0.00359947
0.00397972
0.00445199
0.00163167
0.00154955
0.00114075
0.00120542
0.00105344
0.00090088
0.0011052
0.00092312
0.000928723
0.00118655
0.00113887
0.00123046
0.000799667
0.00108826
0.000837228
0.00109255
0.00101872
0.0012986
0.00138823
0.00152748
0.0242447
0.0204447
0.0167938
0.0142088
0.0125559
0.0116439
0.0118663
0.0120482
0.0131156
0.0138988
0.0142585
0.0142115
0.0137258
0.0131546
0.0123659
0.0125979
0.0134371
0.0153184
0.0183496
0.021466
0.0212427
0.0180286
0.0147706
0.0125175
0.0108966
0.0103657
0.0101471
0.0106602
0.0110663
0.012002
0.0122817
0.012303
0.0117284
0.0113896
0.0108369
0.010726
0.011691
0.0133698
0.0158848
0.0186067
0.0181449
0.0153874
0.0126434
0.0107416
0.00936139
0.00873124
0.00859227
0.00890621
0.00943471
0.0102631
0.010548
0.0103829
0.0101568
0.0095542
0.00923874
0.00943545
0.0101232
0.01137
0.0135209
0.0159254
0.014981
0.0129415
0.0105109
0.00879693
0.00766504
0.00719726
0.00705614
0.00735649
0.00771937
0.00830356
0.00871229
0.00868741
0.00830459
0.0076638
0.00772973
0.00735832
0.00803501
0.00939877
0.01119
0.0131969
0.0116566
0.010041
0.00838997
0.00671492
0.00598721
0.00573553
0.00546482
0.00609993
0.00628937
0.00655876
0.00675859
0.00667266
0.00653588
0.00604178
0.00597725
0.006029
0.00659297
0.00748296
0.00901677
0.0104667
0.00876376
0.00765755
0.00606726
0.00490882
0.00435398
0.00383548
0.00406194
0.00436823
0.00457836
0.00486742
0.00487765
0.00481354
0.00473862
0.00448895
0.0043861
0.00434898
0.00459194
0.00538674
0.006302
0.0075707
0.00535568
0.00469243
0.00355702
0.00321793
0.00275573
0.00249342
0.0024127
0.00269367
0.00272357
0.00291348
0.00304448
0.00295959
0.00279825
0.0026977
0.002728
0.00252557
0.00294693
0.00321463
0.0039445
0.00472644
0.00199561
0.00152584
0.00125409
0.000983239
0.000875411
0.000783444
0.000879191
0.000614157
0.00076997
0.000973252
0.00133243
0.000936423
0.000866476
0.000830669
0.000920652
0.00108494
0.00095577
0.00131701
0.00145745
0.00153274
0.0235152
0.0199854
0.0166626
0.0138049
0.0120602
0.0110341
0.010628
0.0111316
0.0116334
0.0122712
0.0126384
0.0126289
0.0121159
0.0118959
0.011579
0.011639
0.0127374
0.0145118
0.0171746
0.0206383
0.0206692
0.0175263
0.0145333
0.0119716
0.0101988
0.0096465
0.00930189
0.00959557
0.0101338
0.0104589
0.010912
0.0107024
0.0103397
0.0101722
0.00983541
0.0100394
0.010957
0.0126783
0.0150189
0.0179374
0.0175896
0.0149201
0.0123241
0.0103136
0.00891905
0.00810795
0.00815534
0.00808947
0.00859264
0.00903223
0.00908926
0.0091698
0.0087418
0.00872335
0.00825811
0.008496
0.00932186
0.0108215
0.0128589
0.0150877
0.0145362
0.0124465
0.0100646
0.00861563
0.00739683
0.00682138
0.00654793
0.00662063
0.00717035
0.00749731
0.00770763
0.00762528
0.00739049
0.00677742
0.00692787
0.00683612
0.00776477
0.00879527
0.0105049
0.0127202
0.0113959
0.00986634
0.00808508
0.00695286
0.00557809
0.00515812
0.00511828
0.00530408
0.00582475
0.00593644
0.00594506
0.00576594
0.00601726
0.00533493
0.00539441
0.00552702
0.00612408
0.00706169
0.00839196
0.00977526
0.00850283
0.00703475
0.00572641
0.00512227
0.0043826
0.00389853
0.0037022
0.00370283
0.00381322
0.00420683
0.00405339
0.00433478
0.00394456
0.00393765
0.00390639
0.00371646
0.0042979
0.00518034
0.00621744
0.00690514
0.0052051
0.00459599
0.00322372
0.00297692
0.00244055
0.00247085
0.00232904
0.00238635
0.00228174
0.00259558
0.00239192
0.00271729
0.00245155
0.00241464
0.0026332
0.00234388
0.00272123
0.00337496
0.00397545
0.00442234
0.00187931
0.00178185
0.0011997
0.00119959
0.000780758
0.00059492
0.00103415
0.000862107
0.000697385
0.000674649
0.000849666
0.00110024
0.000994234
0.000729259
0.00082342
0.000924782
0.000923968
0.001094
0.00113039
0.00125742
0.0227553
0.0191051
0.0155517
0.0128179
0.0110247
0.00993674
0.00946763
0.00949139
0.00970158
0.0101226
0.0104174
0.0103516
0.0100958
0.00999512
0.00956301
0.0100497
0.0113026
0.0131501
0.0159445
0.0190865
0.0197356
0.0167435
0.0136088
0.0112635
0.00962309
0.00861048
0.00804722
0.0082258
0.00834742
0.00854419
0.00884713
0.00889182
0.00849955
0.00832222
0.00841022
0.00880476
0.00984766
0.0114964
0.0141634
0.0164562
0.0170072
0.014265
0.0115046
0.00965947
0.00805886
0.00745913
0.00698243
0.0069907
0.00708921
0.00756715
0.00788858
0.00753147
0.00721931
0.00699575
0.00676178
0.00734376
0.00817421
0.00981591
0.0120092
0.0141342
0.0140495
0.0120308
0.00969455
0.00814679
0.006836
0.00609731
0.00564488
0.00571442
0.00578262
0.00609346
0.00615306
0.00590165
0.00597952
0.00580524
0.00599147
0.00575954
0.00711315
0.00790682
0.00947198
0.0116205
0.0109529
0.00954295
0.00754557
0.00631418
0.00536664
0.00442938
0.00458744
0.00431219
0.00463992
0.00481186
0.0051171
0.00475282
0.00463657
0.00455731
0.00445133
0.00462405
0.00530594
0.0062203
0.00783281
0.00923107
0.00824106
0.00690779
0.005724
0.004634
0.00378301
0.0033197
0.00329207
0.00340346
0.00324822
0.00332383
0.00350572
0.00347897
0.00338577
0.0032678
0.00336258
0.00350354
0.00352549
0.00489774
0.00549934
0.00659389
0.00477906
0.00419999
0.00341009
0.00284807
0.00213232
0.00215271
0.0021156
0.00209535
0.00201335
0.00190596
0.00218654
0.0019313
0.00231462
0.00195727
0.0019748
0.0019456
0.00255808
0.00289496
0.00337998
0.00404274
0.00181958
0.00153995
0.0013209
0.00119001
0.00105694
0.00102798
0.000758586
0.00091326
0.000860956
0.000652884
0.00060674
0.000673334
0.000916399
0.000810666
0.000769041
0.000633964
0.00095215
0.000878236
0.00110316
0.00151297
0.0210771
0.0176101
0.0142539
0.0113366
0.00928999
0.0082788
0.00749436
0.00737745
0.00766107
0.00780239
0.00792526
0.00797372
0.00761832
0.00759565
0.00768751
0.00816985
0.00941827
0.0116794
0.0144672
0.0171373
0.0183309
0.0153442
0.0123477
0.0101383
0.00838849
0.00703457
0.00657985
0.00617253
0.00627651
0.00658497
0.00694049
0.00667007
0.00652584
0.00655486
0.00651022
0.00708715
0.00807112
0.00995503
0.012322
0.0148484
0.0156025
0.0133676
0.0105684
0.00858333
0.00689069
0.00618186
0.0055021
0.00530743
0.00538492
0.00531447
0.00558538
0.00562078
0.00545832
0.00518774
0.00567278
0.00585059
0.00703382
0.00850581
0.010453
0.0126281
0.013219
0.0109166
0.0087332
0.00710363
0.00591838
0.00472293
0.00450095
0.0043579
0.00422035
0.00431206
0.00466648
0.00480071
0.00448332
0.00423903
0.00463109
0.00487208
0.00547964
0.00693116
0.00842656
0.0105313
0.0102786
0.00886212
0.00691395
0.00546002
0.00463635
0.0037942
0.00345857
0.00338003
0.00360822
0.00363704
0.00344923
0.00359017
0.00314629
0.00349088
0.00350689
0.00363407
0.00411767
0.00543228
0.00656596
0.00811131
0.00745127
0.00617964
0.00497487
0.00393796
0.00332259
0.00298419
0.00249884
0.00242077
0.00236875
0.00243545
0.00268659
0.00234472
0.00255793
0.0024591
0.00244607
0.00296148
0.00295869
0.00399465
0.00489009
0.00604769
0.00439224
0.00388779
0.00324008
0.00233681
0.0020143
0.00166366
0.00161805
0.00157543
0.00162599
0.00163697
0.00147767
0.00153234
0.00152851
0.00159591
0.00164006
0.00182438
0.00176266
0.00241785
0.0030305
0.00362154
0.00173817
0.00144082
0.00112137
0.000653731
0.000682284
0.000647173
0.000512614
0.000406941
0.000296938
0.000673073
0.000503981
0.000286691
0.000668688
0.000495921
0.000549585
0.000666545
0.000666081
0.000912919
0.00104557
0.00130145
0.0191159
0.0157006
0.0123272
0.00943142
0.00730831
0.00597683
0.00520084
0.00502369
0.00482499
0.00485459
0.0050958
0.00521115
0.00496844
0.00487378
0.00514635
0.00580935
0.00735981
0.00941171
0.0122622
0.0150517
0.0167743
0.013524
0.0107967
0.00818256
0.00631422
0.00518112
0.004425
0.00433269
0.00389362
0.00420411
0.00411988
0.00418894
0.00410987
0.00415788
0.00427615
0.00513013
0.00615745
0.00778024
0.0105538
0.0128633
0.0141058
0.0120136
0.00917068
0.00717261
0.00531193
0.00430609
0.00384971
0.00334639
0.00341612
0.00333148
0.00349651
0.00348944
0.00334512
0.00316361
0.00357811
0.00411231
0.00500624
0.00665861
0.00878302
0.0110983
0.0118255
0.00966962
0.00743799
0.0055721
0.00459376
0.00328564
0.00282604
0.0027451
0.00261522
0.00265653
0.00269962
0.00288805
0.00269339
0.00265409
0.00289782
0.00345717
0.00420754
0.00538307
0.00705481
0.00888744
0.00916307
0.00753379
0.00588826
0.00481917
0.00361521
0.00274785
0.00233121
0.00208073
0.00196623
0.00196238
0.0019416
0.00197041
0.00215122
0.00221771
0.00219784
0.00253527
0.00314211
0.00436777
0.00567325
0.00708363
0.00674322
0.00571488
0.00444557
0.00318097
0.00240667
0.00192051
0.00152384
0.00162873
0.00140294
0.00145129
0.00123514