/*--------------------------------*- C++ -*----------------------------------*\
| =========                 |                                                 |
| \\      /  F ield         | OpenFOAM: The Open Source CFD Toolbox           |
|  \\    /   O peration     | Version:  2212                                  |
|   \\  /    A nd           | Website:  www.openfoam.com                      |
|    \\/     M anipulation  |                                                 |
\*---------------------------------------------------------------------------*/
FoamFile
{
    version     2.0;
    format      ascii;
    arch        "LSB;label=32;scalar=64";
    class       volScalarField;
    location    "0";
    object      T;
}
// * * * * * * * * * * * * * * * * * * * * * * * * * * * * * * * * * * * * * //

dimensions      [0 0 0 1 0 0 0];

internalField   nonuniform List<scalar> 
3200
(
342.792
341.294
340.091
339.206
338.985
339.099
338.977
339.239
339.328
339.355
339.202
338.884
338.403
337.818
337.291
336.782
336.598
336.792
337.764
339.196
336.69
335.502
334.503
333.731
333.565
333.67
333.545
333.805
333.876
333.904
333.814
333.522
333.123
332.576
332.153
331.743
331.539
331.702
332.513
333.7
330.782
329.857
329.012
328.382
328.27
328.359
328.203
328.459
328.53
328.554
328.485
328.261
327.923
327.44
327.089
326.76
326.549
326.709
327.378
328.329
325.024
324.291
323.626
323.122
323.041
323.102
322.967
323.155
323.237
323.303
323.219
323.039
322.761
322.377
322.061
321.815
321.648
321.818
322.315
323.059
319.351
318.821
318.303
317.93
317.861
317.909
317.779
317.938
318.001
318.085
318.007
317.896
317.672
317.355
317.089
316.944
316.797
316.935
317.323
317.885
313.781
313.417
313.028
312.774
312.706
312.755
312.642
312.785
312.812
312.909
312.83
312.769
312.587
312.367
312.192
312.098
311.98
312.085
312.359
312.745
308.258
308.042
307.814
307.665
307.615
307.65
307.566
307.669
307.68
307.762
307.697
307.642
307.534
307.418
307.317
307.263
307.185
307.258
307.425
307.628
302.762
302.695
302.625
302.568
302.54
302.555
302.541
302.579
302.567
302.61
302.577
302.559
302.519
302.494
302.462
302.44
302.404
302.429
302.483
302.549
343.179
341.436
340.354
339.534
339.295
339.327
339.432
339.692
339.746
339.761
339.629
339.433
338.884
338.336
337.671
337.097
336.932
337.111
338.036
339.326
337.072
335.631
334.71
334.017
333.819
333.87
333.918
334.211
334.238
334.246
334.167
333.985
333.533
333.025
332.449
331.985
331.836
331.987
332.781
333.838
331.12
329.952
329.2
328.599
328.469
328.504
328.515
328.81
328.832
328.829
328.753
328.622
328.247
327.823
327.334
326.967
326.822
326.959
327.602
328.485
325.291
324.382
323.793
323.271
323.203
323.195
323.215
323.469
323.507
323.512
323.404
323.31
323.017
322.693
322.254
321.983
321.847
322.025
322.475
323.207
319.594
318.901
318.447
318.032
317.978
317.962
317.999
318.186
318.234
318.251
318.157
318.056
317.857
317.602
317.261
317.036
316.964
317.112
317.423
317.984
313.962
313.477
313.152
312.825
312.817
312.792
312.825
312.954
313.005
313.015
312.952
312.863
312.738
312.541
312.3
312.155
312.114
312.213
312.424
312.811
308.369
308.082
307.893
307.655
307.684
307.669
307.704
307.776
307.802
307.819
307.769
307.732
307.643
307.532
307.385
307.294
307.293
307.31
307.45
307.68
302.798
302.701
302.64
302.564
302.575
302.566
302.576
302.61
302.619
302.621
302.605
302.588
302.561
302.525
302.471
302.444
302.446
302.44
302.504
302.565
343.735
342.071
340.832
340.016
339.87
339.773
339.969
340.393
340.56
340.517
340.438
340.117
339.603
338.893
338.294
337.737
337.675
337.855
338.619
339.84
337.546
336.172
335.135
334.444
334.318
334.213
334.408
334.788
334.963
334.902
334.826
334.564
334.124
333.489
333.014
332.543
332.5
332.631
333.272
334.278
331.51
330.401
329.556
328.984
328.864
328.78
328.967
329.299
329.451
329.365
329.335
329.12
328.741
328.171
327.821
327.439
327.398
327.486
328.006
328.837
325.623
324.739
324.083
323.596
323.495
323.414
323.588
323.868
324.007
323.937
323.916
323.725
323.436
322.948
322.677
322.367
322.346
322.421
322.824
323.477
319.841
319.178
318.679
318.286
318.203
318.128
318.267
318.513
318.636
318.569
318.548
318.379
318.187
317.81
317.608
317.363
317.338
317.373
317.691
318.197
314.129
313.687
313.317
313.022
312.954
312.91
313.017
313.202
313.306
313.233
313.224
313.083
312.958
312.718
312.56
312.384
312.353
312.372
312.595
312.97
308.457
308.215
307.998
307.807
307.767
307.747
307.8
307.912
307.989
307.939
307.923
307.86
307.771
307.63
307.516
307.43
307.403
307.415
307.547
307.773
302.829
302.746
302.69
302.618
302.607
302.603
302.612
302.645
302.676
302.66
302.662
302.617
302.599
302.543
302.512
302.49
302.477
302.493
302.518
302.604
344.387
342.941
341.605
340.934
340.695
340.633
340.88
341.226
341.366
341.544
341.417
341.053
340.548
339.849
339.1
338.556
338.445
338.51
339.413
340.55
338.107
336.952
335.8
335.239
335.036
334.981
335.192
335.527
335.661
335.78
335.69
335.389
334.945
334.351
333.7
333.25
333.168
333.182
333.962
334.923
332.007
331.052
330.121
329.634
329.495
329.419
329.602
329.895
330.062
330.126
330.074
329.806
329.428
328.948
328.386
328.024
327.951
327.978
328.597
329.388
326.05
325.275
324.531
324.124
324.017
323.95
324.103
324.354
324.518
324.566
324.522
324.292
324.005
323.608
323.159
322.879
322.796
322.814
323.331
323.922
320.176
319.587
319.023
318.69
318.601
318.578
318.682
318.869
319.027
319.059
319.018
318.841
318.644
318.298
317.98
317.759
317.706
317.698
318.09
318.538
314.383
313.96
313.556
313.296
313.261
313.252
313.306
313.447
313.561
313.586
313.558
313.426
313.303
313.029
312.822
312.676
312.65
312.624
312.871
313.21
308.636
308.37
308.131
307.96
307.951
307.939
307.964
308.076
308.135
308.133
308.132
308.047
307.972
307.8
307.681
307.595
307.573
307.574
307.719
307.917
302.887
302.811
302.714
302.658
302.658
302.655
302.664
302.706
302.725
302.725
302.719
302.704
302.671
302.613
302.577
302.55
302.547
302.538
302.578
302.649
345.358
343.905
342.732
341.962
341.657
341.776
342.064
342.3
342.554
342.685
342.622
342.217
341.753
340.947
340.232
339.821
339.509
339.53
340.512
341.506
338.942
337.763
336.779
336.11
335.857
335.948
336.223
336.441
336.649
336.778
336.716
336.373
336.016
335.287
334.683
334.332
334.048
334.085
334.922
335.718
332.701
331.756
330.919
330.368
330.189
330.258
330.498
330.668
330.832
330.981
330.912
330.629
330.354
329.732
329.226
328.901
328.678
328.712
329.393
330.059
326.613
325.847
325.167
324.733
324.593
324.67
324.857
324.967
325.118
325.255
325.179
324.95
324.779
324.24
323.849
323.575
323.39
323.396
323.956
324.47
320.622
320.042
319.488
319.173
319.084
319.11
319.276
319.348
319.475
319.591
319.518
319.353
319.233
318.803
318.506
318.283
318.167
318.133
318.587
318.954
314.677
314.295
313.87
313.662
313.596
313.616
313.74
313.781
313.884
313.947
313.901
313.787
313.726
313.407
313.224
313.023
312.97
312.93
313.255
313.493
308.79
308.565
308.31
308.204
308.148
308.166
308.238
308.258
308.328
308.345
308.338
308.271
308.245
308.041
307.932
307.799
307.778
307.749
307.948
308.087
302.946
302.87
302.779
302.759
302.741
302.737
302.761
302.775
302.799
302.794
302.789
302.773
302.768
302.698
302.669
302.611
302.601
302.595
302.664
302.706
346.614
345.093
343.895
343.168
342.808
342.964
343.182
343.45
343.788
343.914
343.916
343.564
343.049
342.265
341.549
341.161
340.707
340.797
341.75
342.882
340.03
338.805
337.785
337.124
336.84
336.981
337.181
337.439
337.732
337.837
337.852
337.573
337.121
336.428
335.834
335.492
335.076
335.146
335.969
336.921
333.594
332.648
331.795
331.213
331.022
331.124
331.315
331.522
331.771
331.883
331.895
331.645
331.28
330.689
330.215
329.9
329.536
329.594
330.294
331.056
327.305
326.582
325.882
325.414
325.277
325.35
325.547
325.692
325.899
325.997
326.011
325.792
325.5
325.037
324.652
324.379
324.084
324.168
324.688
325.274
321.116
320.592
320.051
319.715
319.605
319.651
319.816
319.932
320.082
320.171
320.173
320.007
319.779
319.422
319.121
318.904
318.688
318.747
319.151
319.57
315.028
314.678
314.282
314.057
313.98
314.005
314.136
314.208
314.315
314.398
314.395
314.256
314.113
313.832
313.631
313.482
313.332
313.38
313.652
313.937
309.011
308.797
308.557
308.442
308.379
308.396
308.478
308.521
308.598
308.63
308.636
308.54
308.466
308.279
308.178
308.089
308.019
308.018
308.19
308.35
303.012
302.942
302.867
302.833
302.817
302.815
302.839
302.855
302.894
302.89
302.895
302.864
302.838
302.778
302.738
302.712
302.686
302.692
302.749
302.783
347.81
346.392
345.25
344.508
344.189
344.441
344.449
344.86
345.145
345.239
345.276
344.982
344.393
343.648
343.056
342.501
342.134
342.433
343.182
344.29
341.043
339.881
338.909
338.271
338.04
338.275
338.289
338.64
338.894
338.975
339.011
338.773
338.248
337.625
337.135
336.638
336.317
336.562
337.21
338.145
334.458
333.52
332.704
332.153
331.998
332.217
332.239
332.523
332.747
332.808
332.861
332.653
332.213
331.716
331.272
330.846
330.581
330.796
331.35
332.109
328.037
327.266
326.61
326.186
326.057
326.237
326.292
326.491
326.673
326.735
326.784
326.615
326.252
325.856
325.479
325.162
324.919
325.104
325.562
326.173
321.687
321.132
320.618
320.314
320.191
320.334
320.402
320.546
320.668
320.734
320.777
320.647
320.372
320.085
319.765
319.507
319.3
319.482
319.844
320.289
315.452
315.078
314.711
314.492
314.378
314.492
314.539
314.636
314.734
314.793
314.832
314.726
314.535
314.326
314.097
313.916
313.773
313.886
314.149
314.473
309.275
309.054
308.846
308.699
308.623
308.696
308.725
308.79
308.824
308.889
308.901
308.823
308.728
308.594
308.463
308.344
308.268
308.316
308.479
308.685
303.096
303.035
302.966
302.903
302.886
302.908
302.932
302.942
302.949
302.977
302.979
302.948
302.918
302.879
302.837
302.788
302.777
302.789
302.845
302.908
349.412
347.982
346.862
346.021
345.77
345.809
345.928
346.31
346.583
346.782
346.761
346.428
345.804
345.176
344.446
343.954
343.774
344.117
344.705
345.689
342.453
341.248
340.306
339.597
339.393
339.46
339.551
339.862
340.122
340.289
340.303
340.013
339.466
338.938
338.333
337.891
337.745
337.995
338.509
339.322
335.679
334.652
333.872
333.298
333.13
333.204
333.266
333.553
333.781
333.922
333.946
333.682
333.219
332.802
332.299
331.917
331.793
331.995
332.43
333.075
329.019
328.171
327.558
327.102
327.002
327.052
327.095
327.349
327.556
327.67
327.662
327.443
327.076
326.741
326.323
326.025
325.913
326.104
326.426
326.964
322.463
321.802
321.334
321
320.927
320.978
321.007
321.214
321.351
321.459
321.453
321.265
320.987
320.729
320.426
320.201
320.091
320.27
320.472
320.915
315.973
315.52
315.2
314.96
314.897
314.962
314.984
315.119
315.205
315.303
315.313
315.148
314.962
314.776
314.561
314.415
314.32
314.467
314.608
314.919
309.564
309.305
309.116
308.973
308.931
308.964
308.989
309.058
309.111
309.174
309.181
309.093
308.965
308.863
308.726
308.652
308.6
308.681
308.762
308.945
303.204
303.121
303.055
303.003
302.992
303.008
303.013
303.041
303.048
303.068
303.084
303.052
302.998
302.967
302.918
302.899
302.887
302.903
302.934
302.997
351.036
349.659
348.559
347.71
347.398
347.319
347.373
347.802
348.127
348.238
348.165
347.866
347.311
346.715
346.062
345.672
345.513
345.779
346.36
347.302
343.85
342.684
341.767
341.025
340.8
340.722
340.791
341.194
341.46
341.547
341.495
341.241
340.753
340.259
339.713
339.382
339.226
339.456
339.962
340.724
336.832
335.873
335.131
334.477
334.366
334.283
334.326
334.677
334.889
334.977
334.936
334.731
334.286
333.897
333.449
333.188
333.052
333.219
333.63
334.261
329.959
329.201
328.585
328.045
328.012
327.944
327.967
328.25
328.435
328.503
328.481
328.309
327.92
327.621
327.269
327.072
326.961
327.063
327.405
327.915
323.214
322.646
322.132
321.74
321.728
321.679
321.698
321.887
322.051
322.109
322.072
321.969
321.649
321.423
321.137
321.025
320.905
320.993
321.256
321.654
316.539
316.151
315.773
315.487
315.493
315.453
315.474
315.607
315.719
315.764
315.719
315.674
315.427
315.27
315.073
315.027
314.904
314.964
315.167
315.46
309.902
309.692
309.453
309.285
309.297
309.263
309.266
309.366
309.434
309.473
309.422
309.413
309.248
309.164
309.043
309.022
308.921
308.967
309.094
309.277
303.324
303.245
303.157
303.117
303.114
303.109
303.109
303.125
303.153
303.176
303.157
303.153
303.085
303.072
303.03
303.027
302.986
302.997
303.046
303.102
352.753
351.424
350.32
349.486
349.109
348.881
349.028
349.431
349.454
349.751
349.686
349.371
348.91
348.301
347.777
347.475
347.268
347.523
348.158
349.11
345.303
344.219
343.295
342.566
342.275
342.052
342.2
342.591
342.594
342.861
342.824
342.554
342.156
341.617
341.188
340.936
340.744
340.948
341.495
342.258
338.054
337.181
336.414
335.775
335.575
335.362
335.522
335.841
335.852
336.069
336.048
335.825
335.49
335.033
334.679
334.48
334.315
334.471
334.936
335.558
330.94
330.273
329.655
329.093
328.998
328.782
328.946
329.198
329.215
329.399
329.351
329.192
328.927
328.553
328.252
328.095
327.976
328.085
328.483
328.966
323.948
323.459
322.965
322.514
322.491
322.305
322.449
322.638
322.649
322.8
322.746
322.627
322.442
322.156
321.898
321.781
321.693
321.759
322.085
322.461
317.049
316.711
316.354
316.028
316.025
315.904
316.011
316.121
316.139
316.248
316.206
316.13
315.994
315.785
315.606
315.537
315.472
315.513
315.744
316.012
310.203
310.041
309.804
309.613
309.611
309.539
309.58
309.657
309.688
309.731
309.726
309.67
309.592
309.461
309.346
309.329
309.283
309.303
309.433
309.591
303.418
303.357
303.303
303.221
303.221
303.192
303.21
303.23
303.247
303.262
303.263
303.227
303.211
303.175
303.138
303.13
303.107
303.107
303.157
303.218
354.522
353.19
352.13
351.224
350.811
350.659
350.714
350.893
350.977
351.221
351.215
350.976
350.461
349.904
349.379
349.101
349.072
349.35
349.956
350.772
346.831
345.74
344.84
344.065
343.719
343.609
343.665
343.844
343.929
344.116
344.131
343.934
343.508
343.011
342.543
342.336
342.303
342.532
343.033
343.727
339.34
338.471
337.704
337.043
336.776
336.677
336.763
336.9
336.999
337.133
337.151
337.024
336.652
336.228
335.822
335.68
335.626
335.81
336.244
336.833
332.004
331.33
330.708
330.154
329.96
329.888
329.947
330.05
330.158
330.251
330.283
330.183
329.863
329.54
329.184
329.078
329.036
329.183
329.546
330.029
324.795
324.273
323.809
323.347
323.219
323.154
323.209
323.295
323.376
323.444
323.494
323.414
323.166
322.918
322.596
322.549
322.522
322.619
322.891
323.278
317.646
317.304
316.973
316.636
316.548
316.495
316.546
316.621
316.672
316.71
316.739
316.698
316.501
316.351
316.08
316.052
316.065
316.103
316.313
316.584
310.583
310.386
310.193
309.966
309.918
309.878
309.923
309.967
309.994
310.015
310.041
310.019
309.908
309.81
309.632
309.637
309.641
309.664
309.797
309.944
303.546
303.473
303.424
303.33
303.32
303.301
303.322
303.334
303.339
303.344
303.367
303.351
303.314
303.292
303.231
303.222
303.221
303.237
303.282
303.336
356.31
355.129
354.021
353.151
352.654
352.31
352.237
352.403
352.574
352.609
352.67
352.448
352.024
351.513
351.165
350.794
350.684
351.072
351.712
352.726
348.395
347.402
346.481
345.728
345.29
345.018
344.984
345.115
345.261
345.317
345.414
345.199
344.836
344.393
344.085
343.768
343.694
344.011
344.548
345.393
340.647
339.843
339.11
338.463
338.084
337.872
337.855
337.96
338.089
338.169
338.257
338.061
337.762
337.402
337.124
336.849
336.808
337.058
337.516
338.196
333.055
332.409
331.856
331.333
330.978
330.836
330.83
330.928
331.025
331.118
331.191
331.018
330.775
330.506
330.253
330.041
330.02
330.199
330.567
331.124
325.602
325.087
324.684
324.287
323.979
323.891
323.903
323.964
324.036
324.152
324.185
324.033
323.881
323.669
323.455
323.295
323.3
323.407
323.7
324.152
318.242
317.851
317.607
317.293
317.082
317.028
317.047
317.075
317.13
317.221
317.237
317.128
317.016
316.881
316.722
316.619
316.63
316.679
316.888
317.244
310.949
310.697
310.546
310.356
310.223
310.218
310.222
310.234
310.28
310.336
310.33
310.274
310.193
310.119
310.026
309.963
309.99
310
310.117
310.355
303.68
303.585
303.526
303.468
303.416
303.42
303.412
303.434
303.443
303.467
303.463
303.448
303.417
303.389
303.362
303.336
303.351
303.346
303.392
303.473
358.215
357.042
355.82
354.966
354.32
353.966
353.994
354.094
353.983
354.178
354.127
353.878
353.613
353.184
352.847
352.504
352.477
352.883
353.504
354.429
350.019
349.066
348.036
347.287
346.74
346.417
346.483
346.591
346.496
346.676
346.647
346.424
346.206
345.828
345.566
345.256
345.219
345.561
346.095
346.858
342.04
341.251
340.454
339.76
339.313
339.049
339.131
339.207
339.121
339.304
339.286
339.102
338.905
338.595
338.37
338.115
338.063
338.356
338.793
339.438
334.188
333.567
332.958
332.381
331.999
331.808
331.885
331.94
331.864
332.035
332.029
331.893
331.705
331.46
331.275
331.052
331.023
331.258
331.612
332.14
326.472
326.001
325.542
325.093
324.774
324.663
324.708
324.752
324.7
324.858
324.841
324.717
324.572
324.401
324.242
324.086
324.055
324.238
324.52
324.931
318.852
318.503
318.206
317.891
317.644
317.582
317.601
317.633
317.606
317.723
317.724
317.605
317.493
317.417
317.274
317.175
317.141
317.275
317.486
317.763
311.309
311.085
310.901
310.749
310.572
310.536
310.553
310.553
310.567
310.633
310.641
310.551
310.469
310.457
310.357
310.297
310.284
310.352
310.498
310.657
303.782
303.712
303.642
303.605
303.548
303.536
303.537
303.539
303.542
303.566
303.57
303.538
303.499
303.506
303.467
303.451
303.437
303.466
303.522
303.563
359.998
358.838
357.759
356.822
356.119
355.812
355.727
355.716
355.72
355.688
355.524
355.412
355.139
354.874
354.533
354.27
354.374
354.714
355.355
356.205
351.551
350.589
349.682
348.875
348.286
348.042
347.943
347.974
347.973
347.974
347.848
347.738
347.534
347.294
347.014
346.763
346.853
347.154
347.689
348.377
343.33
342.509
341.781
341.103
340.627
340.418
340.299
340.364
340.349
340.398
340.279
340.188
340.034
339.828
339.622
339.378
339.457
339.711
340.131
340.678
335.259
334.578
334.021
333.456
333.098
332.901
332.82
332.855
332.836
332.933
332.84
332.744
332.622
332.454
332.293
332.069
332.158
332.356
332.698
333.132
327.306
326.807
326.375
325.918
325.641
325.499
325.418
325.456
325.446
325.544
325.463
325.381
325.259
325.163
325.035
324.86
324.954
325.095
325.329
325.669
319.454
319.118
318.793
318.451
318.275
318.156
318.104
318.14
318.143
318.204
318.139
318.077
317.985
317.926
317.837
317.723
317.794
317.929
318.048
318.278
311.682
311.47
311.254
311.056
310.945
310.881
310.842
310.868
310.855
310.919
310.876
310.845
310.784
310.732
310.694
310.621
310.677
310.775
310.831
310.945
303.915
303.829
303.773
303.702
303.658
303.645
303.626
303.64
303.637
303.657
303.648
303.633
303.619
303.593
303.585
303.559
303.569
303.612
303.625
303.662
361.874
360.781
359.709
358.841
358.009
357.654
357.391
357.342
357.265
357.23
357.106
356.896
356.721
356.486
356.184
356.02
356.235
356.556
357.189
358.056
353.206
352.267
351.381
350.63
349.926
349.617
349.392
349.361
349.315
349.306
349.178
349.015
348.877
348.682
348.424
348.285
348.457
348.723
349.266
349.978
344.725
343.94
343.209
342.574
341.986
341.772
341.55
341.536
341.498
341.51
341.399
341.265
341.174
341.014
340.782
340.669
340.814
341.04
341.502
342.042
336.404
335.761
335.171
334.635
334.202
333.996
333.832
333.841
333.818
333.846
333.733
333.609
333.56
333.414
333.223
333.138
333.241
333.48
333.823
334.238
328.209
327.685
327.249
326.826
326.527
326.337
326.227
326.233
326.259
326.246
326.162
326.057
326.023
325.921
325.742
325.699
325.767
325.99
326.239
326.547
320.111
319.718
319.403
319.086
318.898
318.749
318.676
318.691
318.738
318.709
318.647
318.571
318.545
318.475
318.354
318.317
318.34
318.543
318.725
318.92
312.053
311.825
311.637
311.426
311.33
311.246
311.2
311.197
311.243
311.214
311.181
311.137
311.119
311.071
311.005
310.989
311.019
311.116
311.232
311.34
304.04
303.964
303.913
303.821
303.798
303.766
303.745
303.75
303.764
303.751
303.745
303.745
303.718
303.707
303.689
303.677
303.701
303.724
303.766
303.799
363.793
362.606
361.645
360.716
359.852
359.485
359.065
358.91
358.903
358.727
358.688
358.468
358.33
358.174
357.973
357.816
357.911
358.407
359.195
359.978
354.836
353.848
353.039
352.225
351.506
351.209
350.84
350.707
350.717
350.584
350.546
350.37
350.242
350.128
349.961
349.835
349.869
350.325
350.994
351.642
346.064
345.261
344.611
343.91
343.331
343.076
342.784
342.682
342.683
342.595
342.546
342.415
342.271
342.2
342.057
341.978
341.986
342.359
342.93
343.482
337.456
336.83
336.318
335.721
335.278
335.083
334.841
334.773
334.78
334.698
334.657
334.57
334.424
334.379
334.265
334.216
334.222
334.523
334.974
335.438
328.985
328.531
328.121
327.679
327.321
327.204
326.986
326.961
326.97
326.892
326.866
326.818
326.67
326.645
326.578
326.523
326.55
326.783
327.093
327.484
320.616
320.314
320.033
319.72
319.473
319.397
319.217
319.214
319.231
319.174
319.128
319.127
319.006
318.98
318.957
318.901
318.932
319.105
319.317
319.605
312.358
312.176
311.996
311.835
311.671
311.628
311.521
311.517
311.518
311.507
311.469
311.455
311.389
311.401
311.385
311.326
311.359
311.462
311.596
311.775
304.134
304.084
304.007
303.965
303.908
303.89
303.866
303.858
303.848
303.856
303.846
303.834
303.815
303.818
303.819
303.792
303.808
303.84
303.886
303.938
365.636
364.518
363.44
362.501
361.691
361.243
360.891
360.556
360.411
360.249
360.238
360.054
359.892
359.832
359.646
359.503
359.616
360.169
360.967
361.74
356.41
355.452
354.564
353.771
353.081
352.713
352.42
352.126
352.003
351.888
351.877
351.731
351.62
351.569
351.416
351.261
351.35
351.832
352.506
353.147
347.395
346.602
345.891
345.217
344.634
344.351
344.109
343.851
343.748
343.67
343.663
343.549
343.478
343.403
343.296
343.167
343.218
343.645
344.182
344.729
338.547
337.919
337.359
336.802
336.338
336.121
335.918
335.717
335.627
335.594
335.571
335.477
335.433
335.35
335.273
335.191
335.226
335.562
336.004
336.425
329.827
329.374
328.933
328.499
328.146
327.979
327.851
327.693
327.589
327.595
327.566
327.52
327.478
327.402
327.357
327.298
327.304
327.563
327.913
328.234
321.235
320.918
320.601
320.288
320.028
319.924
319.851
319.733
319.612
319.677
319.649
319.62
319.576
319.525
319.522
319.463
319.448
319.634
319.904
320.131
312.728
312.532
312.347
312.17
311.984
311.943
311.911
311.817
311.733
311.806
311.779
311.76
311.736
311.728
311.703
311.659
311.655
311.785
311.94
312.065
304.266
304.205
304.132
304.076
304.004
304.002
304.002
303.962
303.92
303.953
303.939
303.931
303.921
303.929
303.903
303.904
303.907
303.953
304.005
304.036
367.341
366.22
365.314
364.316
363.388
362.927
362.502
362.316
361.882
361.861
361.727
361.599
361.368
361.414
361.271
361.272
361.451
361.941
362.744
363.411
357.856
356.913
356.155
355.305
354.536
354.144
353.787
353.638
353.246
353.27
353.161
353.058
352.863
352.915
352.784
352.765
352.921
353.338
354.02
354.593
348.585
347.813
347.206
346.495
345.867
345.523
345.241
345.125
344.802
344.817
344.74
344.681
344.514
344.554
344.452
344.407
344.537
344.888
345.461
345.921
339.504
338.885
338.429
337.836
337.323
337.057
336.816
336.759
336.482
336.502
336.451
336.441
336.277
336.286
336.259
336.171
336.293
336.583
337.007
337.397
330.591
330.118
329.778
329.301
328.898
328.722
328.515
328.497
328.252
328.282
328.25
328.264
328.128
328.115
328.136
328.035
328.135
328.386
328.669
328.985
321.8
321.448
321.218
320.857
320.575
320.461
320.312
320.318
320.121
320.156
320.137
320.149
320.051
320.034
320.071
319.985
320.037
320.238
320.429
320.648
313.061
312.85
312.707
312.494
312.308
312.269
312.176
312.18
312.052
312.083
312.09
312.067
312.013
312.02
312.036
311.998
311.992
312.119
312.262
312.386
304.365
304.303
304.256
304.182
304.112
304.109
304.074
304.078
304.033
304.053
304.045
304.041
304.013
304.019
304.032
304.017
304.013
304.052
304.1
304.141
369.027
367.868
366.954
365.822
365.155
364.47
364.145
363.914
363.469
363.365
363.101
362.949
362.822
362.728
362.81
362.972
363.13
363.699
364.359
365.188
359.265
358.307
357.537
356.567
356.021
355.455
355.175
354.993
354.609
354.516
354.317
354.191
354.079
354.012
354.075
354.2
354.359
354.842
355.383
356.065
349.744
348.979
348.34
347.54
347.088
346.636
346.39
346.245
345.918
345.826
345.72
345.607
345.507
345.458
345.504
345.596
345.754
346.157
346.584
347.136
340.423
339.837
339.363
338.68
338.317
337.964
337.768
337.648
337.368
337.296
337.255
337.135
337.058
337.033
337.054
337.115
337.283
337.61
337.92
338.38
331.289
330.848
330.502
329.974
329.675
329.418
329.257
329.174
328.951
328.887
328.868
328.788
328.723
328.701
328.71
328.75
328.915
329.172
329.38
329.75
322.257
321.965
321.737
321.356
321.139
320.945
320.845
320.799
320.606
320.585
320.559
320.529
320.484
320.468
320.45
320.467
320.618
320.8
320.931
321.186
313.321
313.158
313.031
312.784
312.654
312.559
312.5
312.477
312.337
312.327
312.325
312.322
312.302
312.274
312.265
312.255
312.374
312.474
312.549
312.697
304.462
304.407
304.361
304.275
304.231
304.21
304.187
304.178
304.126
304.122
304.129
304.133
304.129
304.112
304.112
304.104
304.138
304.177
304.204
304.248
370.372
369.077
368.141
367.185
366.439
365.723
365.268
365.053
364.577
364.476
364.212
364.08
364.044
363.916
364.009
364.204
364.453
364.97
365.651
366.53
360.372
359.311
358.508
357.686
357.059
356.454
356.084
355.907
355.521
355.418
355.222
355.093
355.087
354.962
355.076
355.235
355.46
355.889
356.46
357.195
350.65
349.79
349.136
348.439
347.927
347.427
347.135
346.973
346.652
346.575
346.417
346.309
346.322
346.178
346.329
346.471
346.639
346.987
347.462
348.069
341.143
340.496
339.954
339.39
338.969
338.569
338.368
338.206
337.941
337.89
337.773
337.673
337.709
337.584
337.711
337.85
337.975
338.233
338.63
339.093
331.818
331.331
330.921
330.505
330.174
329.855
329.726
329.59
329.355
329.331
329.246
329.17
329.215
329.113
329.205
329.331
329.399
329.622
329.894
330.261
322.64
322.314
322.038
321.733
321.49
321.272
321.167
321.07
320.917
320.883
320.816
320.761
320.812
320.751
320.796
320.89
320.924
321.091
321.281
321.55
313.561
313.373
313.226
313.02
312.881
312.742
312.678
312.623
312.548
312.53
312.468
312.436
312.479
312.458
312.46
312.521
312.531
312.643
312.73
312.914
304.536
304.481
304.438
304.349
304.315
304.269
304.242
304.221
304.19
304.194
304.162
304.165
304.173
304.18
304.173
304.201
304.19
304.231
304.256
304.325
)
;

boundaryField
{
    hotSide
    {
        type            fixedGradient;
        gradient        nonuniform List<scalar> 
400
(
501.591
503.57
508.748
517.059
528.219
541.808
557.377
574.511
592.86
612.146
632.15
652.703
673.67
694.947
716.444
738.086
759.81
781.562
803.305
825.02
476.053
478.149
483.667
492.527
504.384
518.747
535.101
552.991
572.044
591.97
612.55
633.615
655.037
676.717
698.57
720.527
742.527
764.518
786.465
808.353
458.437
460.889
466.736
475.892
488.018
502.63
519.219
537.328
556.583
576.69
597.425
618.62
640.146
661.905
683.816
705.816
727.847
749.864
771.837
793.755
448.297
451.321
457.497
466.74
478.768
493.17
509.501
527.343
546.337
566.194
586.688
607.643
628.931
650.451
672.128
693.901
715.722
737.556
759.378
781.184
443.708
447.409
453.944
463.228
475.035
489.041
504.88
522.189
540.641
559.959
579.921
600.354
621.128
642.148
663.344
684.664
706.072
727.541
749.058
770.619
442.502
446.9
453.844
463.244
474.91
488.579
503.945
520.693
538.528
557.193
576.478
596.219
616.298
636.634
657.169
677.869
698.71
719.678
740.765
761.972
442.957
448.029
455.432
465.068
476.762
490.276
505.337
521.655
538.954
556.993
575.576
594.561
613.854
633.397
653.163
673.136
693.313
713.691
734.271
755.053
443.836
449.528
457.42
467.4
479.294
492.868
507.849
523.945
540.877
558.404
576.346
594.588
613.074
631.789
650.743
669.953
689.433
709.196
729.247
749.586
444.237
450.454
458.812
469.192
481.411
495.225
510.339
526.433
543.197
560.373
577.789
595.364
613.096
631.026
649.212
667.704
686.54
705.74
725.312
745.254
443.5
450.082
458.804
469.544
482.112
496.248
511.628
527.885
544.661
561.662
578.716
595.781
612.915
630.221
647.802
665.74
684.086
702.868
722.093
741.753
441.193
447.909
456.8
467.746
480.55
494.94
510.568
527.03
543.923
560.922
577.847
594.682
611.529
628.532
645.822
663.499
681.622
700.22
719.3
738.853
437.168
443.738
452.542
463.457
476.284
490.74
506.468
523.057
540.096
557.252
574.34
591.337
608.339
625.485
642.906
660.701
678.933
697.634
716.813
736.463
431.62
437.767
446.234
456.898
469.552
483.908
499.61
516.263
533.482
550.951
568.479
586.005
603.574
621.28
639.225
657.495
676.148
695.22
714.726
734.667
425.121
430.62
438.577
448.87
461.283
475.518
491.219
508.005
525.514
543.448
561.602
579.874
598.247
616.759
635.469
654.439
673.72
693.348
713.344
733.717
418.644
423.341
430.71
440.634
452.878
467.117
482.972
500.054
518.003
536.519
555.385
574.464
593.694
613.065
632.601
652.338
672.316
692.57
713.125
733.994
413.618
417.433
424.214
433.85
446.068
460.485
476.669
494.192
512.677
531.813
551.371
571.194
591.195
611.334
631.611
652.046
672.668
693.51
714.599
735.951
412.039
414.972
421.207
430.635
442.923
457.603
474.165
492.133
511.103
530.756
550.859
571.25
591.829
612.545
633.381
654.348
675.471
696.779
718.3
740.053
416.398
418.567
424.302
433.493
445.752
460.533
477.263
495.43
514.619
534.511
554.874
575.546
596.426
617.455
638.608
659.888
681.315
702.916
724.717
746.734
428.927
430.586
435.846
444.605
456.473
470.898
487.306
505.189
524.139
543.842
564.07
584.663
605.513
626.555
647.756
669.108
690.623
712.32
734.219
756.33
450.231
451.668
456.471
464.555
475.598
489.132
504.656
521.711
539.915
558.969
578.648
598.788
619.274
640.029
661.009
682.193
703.577
725.17
746.977
769.002
)
;
    }
    coldSide
    {
        type            mixed;
        refValue        uniform 300;
        refGradient     uniform 0;
        valueFraction   uniform 0.991591;
        source          uniform 0;
        value           nonuniform List<scalar> 
400
(
300.023
300.024
300.024
300.024
300.025
300.025
300.026
300.027
300.028
300.029
300.03
300.031
300.032
300.033
300.034
300.035
300.036
300.037
300.038
300.038
300.023
300.023
300.023
300.024
300.024
300.025
300.026
300.026
300.027
300.028
300.029
300.03
300.031
300.032
300.033
300.034
300.035
300.036
300.037